/*--------------------------------*- C++ -*----------------------------------*\
  =========                 |
  \\      /  F ield         | OpenFOAM: The Open Source CFD Toolbox
   \\    /   O peration     | Website:  https://openfoam.org
    \\  /    A nd           | Version:  9
     \\/     M anipulation  |
\*---------------------------------------------------------------------------*/
FoamFile
{
    format      ascii;
    class       volScalarField;
    location    "6.08";
    object      nut;
}
// * * * * * * * * * * * * * * * * * * * * * * * * * * * * * * * * * * * * * //

dimensions      [0 2 -1 0 0 0 0];

internalField   nonuniform List<scalar> 
46400
(
0.0211949
0.00543402
0.00135243
0.00160644
0.0015354
0.00158284
0.00149405
0.00147737
0.0014125
0.00134723
0.00130248
0.00125757
0.0012406
0.00120993
0.00117468
0.00118927
0.0011293
0.00111332
0.00150995
0.00112958
0.0206478
0.00520281
0.00148123
0.00175013
0.00157531
0.00156478
0.00148197
0.00144597
0.00137493
0.00133903
0.0012922
0.00124487
0.00117948
0.00114905
0.00110733
0.00105578
0.000971839
0.000895407
0.0012318
0.00108882
0.0201199
0.00414927
0.00137581
0.00168029
0.00151761
0.00157508
0.00147852
0.00145698
0.00140385
0.00134261
0.00130029
0.00125732
0.00123332
0.0011867
0.00115144
0.00113925
0.00104146
0.00100565
0.00134851
0.00109122
0.0194321
0.00517895
0.00137116
0.00176774
0.00160255
0.00156378
0.00149858
0.00143736
0.0013751
0.00132078
0.00127084
0.00122335
0.00116384
0.00113712
0.00110632
0.00107348
0.00100405
0.000957955
0.00132367
0.00114439
0.0188407
0.00556935
0.00159413
0.00174489
0.00156312
0.00158097
0.00148885
0.00145285
0.00139472
0.00134513
0.00129451
0.00125185
0.00121944
0.00115904
0.00112751
0.00110708
0.00102944
0.000975166
0.00131145
0.00111721
0.0180097
0.00527954
0.00152549
0.00175529
0.00162557
0.00157344
0.00151331
0.00145168
0.00139143
0.00132139
0.00128386
0.00122845
0.00119611
0.00116252
0.00113025
0.00109933
0.00104378
0.00100184
0.00131526
0.00116
0.0168592
0.00462201
0.00161976
0.00173614
0.00157232
0.00155433
0.00150198
0.00144392
0.00141426
0.00134783
0.00129479
0.00124776
0.00120102
0.00116444
0.00112595
0.00110161
0.00102621
0.000976353
0.00128778
0.00112333
0.0143444
0.00342366
0.00156759
0.00167536
0.00160097
0.00150945
0.0014774
0.00142822
0.00139505
0.00135799
0.0013163
0.00127814
0.00123055
0.00119164
0.00116646
0.00113527
0.0010741
0.00100009
0.00128392
0.00115271
0.0114586
0.00274204
0.0016575
0.00162696
0.0015461
0.00147426
0.00142909
0.0013608
0.00134191
0.00130038
0.00127957
0.00124304
0.00122284
0.00117443
0.0011568
0.00114321
0.0010995
0.00101723
0.00126189
0.0011667
0.0092728
0.002261
0.00163813
0.00159673
0.00157135
0.0014922
0.00145531
0.00137346
0.00133148
0.00127999
0.00124732
0.00120981
0.00118426
0.00114458
0.00111112
0.00109832
0.00106769
0.00102215
0.00121814
0.00114099
0.00770449
0.00195774
0.0015815
0.00160164
0.00155452
0.00145765
0.00145571
0.00136636
0.00131801
0.00125191
0.00122327
0.00118305
0.00116908
0.00114023
0.00109792
0.00107197
0.00102609
0.00098153
0.00117188
0.00112146
0.00648814
0.00183388
0.00160449
0.00153943
0.00157015
0.001452
0.001445
0.00140819
0.00138215
0.00130996
0.00125967
0.00119437
0.00115797
0.00113542
0.00111301
0.001084
0.00103657
0.000980297
0.00110982
0.00106179
0.00565557
0.00173965
0.0015419
0.00144882
0.00150726
0.00141983
0.00136787
0.00130833
0.00129659
0.00126903
0.0012373
0.00120178
0.00114859
0.0011127
0.00108963
0.00108124
0.0010514
0.00101101
0.00112107
0.00107575
0.00517043
0.0017567
0.00164669
0.00147185
0.00147292
0.00150448
0.0014541
0.00135474
0.0013
0.00124847
0.0012066
0.00117222
0.00114259
0.00109597
0.00105539
0.00102261
0.000991366
0.000952861
0.00104535
0.00101176
0.00479466
0.00175076
0.00169225
0.00147927
0.00137678
0.00133214
0.00136971
0.0013605
0.00131328
0.00128476
0.00123363
0.00119918
0.00115541
0.00112852
0.00109226
0.00106233
0.00102376
0.000972033
0.00105302
0.00098785
0.00446915
0.00162297
0.00171115
0.00170861
0.00154394
0.00143095
0.00136046
0.00132849
0.00129641
0.001261
0.00121844
0.00118017
0.00113988
0.00109977
0.00106588
0.00103707
0.00100398
0.000954701
0.00102241
0.000960751
0.00401628
0.00150152
0.00139423
0.0014391
0.00149639
0.00147876
0.00139095
0.00134871
0.00132277
0.0012813
0.00125227
0.00120996
0.00119042
0.00114247
0.00111674
0.00107578
0.00103769
0.000977009
0.00102528
0.000956237
0.00420887
0.00190822
0.00161753
0.00155141
0.00152298
0.00145261
0.00135147
0.00131661
0.00125359
0.00120567
0.00114973
0.00111871
0.00108108
0.00106106
0.00103259
0.001022
0.000990766
0.000951415
0.000991947
0.000949953
0.00272017
0.00142989
0.00166966
0.0016572
0.00156582
0.00154104
0.00144295
0.00142141
0.00132492
0.00126057
0.00122651
0.00119226
0.0011581
0.00112401
0.0010833
0.00105106
0.00100773
0.000959517
0.000978211
0.000947105
0.00204794
0.00167835
0.00156848
0.00147976
0.00143743
0.00142342
0.00140626
0.00136391
0.0012897
0.00126419
0.00122789
0.00120082
0.00115539
0.00111657
0.00108195
0.00104313
0.00102186
0.000971702
0.000982153
0.000963397
0.0148728
0.0146449
0.0098683
0.000460849
0.000623975
0.00116471
0.00120935
0.00106281
0.00106616
0.00104656
0.000971683
0.000987548
0.00101438
0.000988787
0.00099054
0.00108495
0.00115776
0.00119413
0.00111422
0.000941929
0.0166746
0.0148743
0.00839719
0.000329926
0.000748393
0.00118098
0.00121038
0.00115834
0.00109338
0.00103685
0.00103306
0.00102953
0.000975322
0.000978338
0.0010406
0.00116795
0.00119932
0.00119312
0.00107667
0.000927539
0.0178827
0.014746
0.0067159
0.000547831
0.00102094
0.00130339
0.0012609
0.00116657
0.00111172
0.00108434
0.00104549
0.001028
0.00105251
0.00105101
0.00107267
0.0011545
0.00117319
0.00119138
0.001063
0.000917209
0.0191562
0.0147469
0.00480453
0.000638682
0.00119946
0.00134845
0.00126478
0.00119758
0.0011631
0.00111883
0.00107401
0.00108978
0.00105261
0.00102758
0.00106868
0.00118485
0.00122239
0.00120386
0.0010391
0.000928047
0.0197989
0.0144302
0.00365184
0.000412152
0.00124339
0.00136621
0.00131204
0.00125318
0.00117367
0.00111626
0.00111049
0.00108351
0.00107154
0.00107148
0.00111285
0.00119111
0.00118655
0.00119828
0.00102123
0.000910745
0.0206134
0.0143194
0.00241572
0.000482869
0.00138199
0.00141821
0.00132854
0.0012242
0.00120135
0.00117696
0.0011035
0.00111419
0.00110854
0.00107181
0.00108694
0.00116545
0.00119802
0.00121567
0.00102032
0.000924937
0.021159
0.0139252
0.0017513
0.000648207
0.00137577
0.00139215
0.00136367
0.0013078
0.00123082
0.00115401
0.00115476
0.00113688
0.00109026
0.00107466
0.00111329
0.00118903
0.00119159
0.00120407
0.000995904
0.000920889
0.0217937
0.013695
0.00123902
0.000847431
0.00147471
0.00145035
0.00138408
0.00126923
0.00123514
0.00121412
0.00113307
0.00112613
0.00113815
0.00109649
0.00109667
0.00114096
0.00117098
0.00122025
0.00100361
0.000924738
0.0222619
0.0133165
0.00093777
0.00104705
0.00147496
0.00141663
0.00140253
0.00133019
0.00126613
0.00119363
0.00117442
0.00116736
0.00111181
0.00107861
0.00109908
0.00115791
0.00118447
0.00122017
0.000989987
0.000937598
0.0225746
0.0129081
0.00132858
0.00107771
0.00151695
0.00146807
0.00142481
0.00132738
0.0012743
0.00124296
0.00117153
0.00114668
0.00115323
0.00111156
0.00110457
0.00112371
0.0011519
0.00122848
0.000994899
0.000940566
0.0229312
0.0126137
0.00106858
0.00130822
0.00154044
0.0014544
0.00143429
0.00134173
0.00128737
0.00123182
0.00117963
0.00117775
0.00113686
0.00108885
0.0010905
0.00112294
0.00116711
0.00122935
0.000976426
0.00094888
0.0230069
0.0120778
0.00228873
0.00124171
0.00155503
0.00145459
0.00145234
0.00137456
0.00130953
0.00127085
0.00121361
0.00117213
0.00116238
0.00112525
0.00110929
0.00110895
0.00113382
0.00122541
0.000972882
0.000956956
0.0231998
0.0119508
0.00146123
0.00142739
0.00161994
0.00148801
0.00144939
0.00136201
0.00130197
0.00126675
0.00118949
0.00118191
0.00116036
0.00110363
0.00109213
0.0010948
0.00113994
0.00121903
0.000949654
0.000954418
0.0231372
0.0116164
0.00247672
0.00133544
0.00158724
0.00148162
0.00147594
0.0014125
0.00133718
0.00129661
0.00125318
0.00119876
0.00117412
0.00114173
0.00111537
0.00109872
0.00111075
0.00119941
0.000934976
0.000973022
0.0231302
0.0114053
0.00217527
0.00146628
0.00163957
0.00151513
0.00145505
0.00139533
0.00132321
0.0012989
0.00121433
0.00119328
0.00118174
0.00112408
0.00110015
0.00108177
0.00111164
0.00118455
0.000906002
0.000965354
0.0229374
0.0106566
0.00202677
0.00145278
0.00158909
0.00152384
0.0014868
0.00143158
0.00134936
0.0013122
0.00128107
0.00122093
0.00118596
0.0011536
0.00111877
0.00109055
0.00108685
0.00114625
0.000873975
0.000984016
0.0226927
0.0100672
0.00209283
0.00150354
0.00163069
0.00154597
0.00147593
0.00144316
0.00136159
0.00132992
0.00125437
0.00122159
0.00121401
0.00116172
0.00111972
0.00109397
0.00110205
0.00113814
0.000836091
0.000982839
0.0224347
0.00884112
0.00173511
0.00157981
0.00159345
0.00156306
0.00148678
0.00144382
0.00135811
0.00132623
0.00129665
0.00123853
0.00119988
0.00117691
0.00113676
0.00110206
0.00109064
0.00109923
0.000784866
0.00098638
0.0220264
0.0077126
0.00170629
0.00155028
0.00158891
0.00157635
0.00149693
0.00148116
0.00140292
0.00135433
0.00129661
0.00125278
0.00124239
0.00120222
0.00115345
0.00113666
0.001138
0.00113829
0.000765293
0.000956704
0.0216452
0.00695536
0.00190864
0.00168919
0.00159375
0.00158237
0.00148801
0.00145691
0.00137748
0.00135158
0.00132235
0.00127761
0.00123773
0.00122897
0.00119725
0.00118907
0.00116925
0.00116309
0.000888044
0.000986412
0.0064255
0.00449713
0.00355882
0.00257268
0.002171
0.00186047
0.00157247
0.0012483
0.00103026
0.00081886
0.000658039
0.000551064
0.000387677
0.000342184
0.000375792
0.000620102
0.00132839
0.00582781
0.00994384
0.0148029
0.00648125
0.00456981
0.00362871
0.00266275
0.00222212
0.00189127
0.00160323
0.00127127
0.00105103
0.000832488
0.000655095
0.000543277
0.000378642
0.000356367
0.000369064
0.000615218
0.00133529
0.0057916
0.00993949
0.0147781
0.00643814
0.00444075
0.0035486
0.00250293
0.00214661
0.00181785
0.00155805
0.00123113
0.00100524
0.000809524
0.000639967
0.000535242
0.000367969
0.000343373
0.000348272
0.000608027
0.00128931
0.00579868
0.00991578
0.0147505
0.00657322
0.0044567
0.00353593
0.00255279
0.00218631
0.00185052
0.00158001
0.0012561
0.0010196
0.000825933
0.000637301
0.000531786
0.000365534
0.000343338
0.000337315
0.000594511
0.00131912
0.00581421
0.00990324
0.0147168
0.00634753
0.00443849
0.0035734
0.00249152
0.00214683
0.00177962
0.0015337
0.0012202
0.000983107
0.000814648
0.000625759
0.000530339
0.000349112
0.000333163
0.00031636
0.000577672
0.00133957
0.00582313
0.0099084
0.0145429
0.00633001
0.0043377
0.0034702
0.00244895
0.00219512
0.00182075
0.00154827
0.00124851
0.000992085
0.000828268
0.000627366
0.000528287
0.000344575
0.00033195
0.000301007
0.00056615
0.00134566
0.00582406
0.00986581
0.014407
0.00670004
0.00442975
0.00360025
0.00243195
0.00217126
0.00178044
0.00151474
0.00121631
0.000960224
0.000813883
0.000616739
0.000521128
0.000323934
0.000315597
0.000280696
0.000560831
0.0013478
0.00581227
0.00984178
0.0143512
0.00662079
0.00431273
0.00353342
0.00240401
0.00219503
0.00180881
0.0015231
0.00121808
0.000970104
0.000828209
0.000617364
0.000519134
0.0003235
0.00032104
0.000261092
0.000540052
0.00133521
0.00579205
0.00986126
0.0143232
0.00674374
0.00434164
0.00355462
0.00240759
0.00219909
0.00180834
0.00149692
0.00121373
0.000945457
0.000813854
0.000609834
0.00051234
0.000310432
0.000271461
0.000243716
0.000492681
0.00130349
0.00576424
0.00987841
0.0142917
0.00666813
0.00430803
0.00353864
0.00238709
0.00218012
0.00183489
0.00150687
0.00123718
0.000952786
0.000832367
0.000616637
0.000518841
0.000320482
0.000240547
0.000237012
0.000452914
0.00126379
0.00572457
0.00988599
0.014259
0.00671865
0.00423731
0.00349049
0.00237895
0.00218367
0.00182167
0.00147238
0.00121963
0.000932194
0.000820156
0.000615147
0.000518822
0.000313828
0.000209498
0.000216764
0.000431208
0.00122113
0.0056466
0.00990858
0.0142302
0.00674256
0.00423223
0.00347093
0.00237165
0.0021579
0.00185617
0.00148548
0.0012447
0.000943193
0.000838529
0.000622226
0.000527996
0.00032166
0.000223777
0.000184862
0.0003893
0.00114997
0.00562345
0.00994941
0.0142018
0.00668252
0.00415777
0.00344258
0.00237485
0.00215198
0.00181735
0.00144625
0.00123737
0.000930679
0.000829008
0.00062462
0.000531949
0.000309753
0.000273784
0.000139475
0.00035508
0.00107723
0.00564615
0.00998926
0.0141825
0.00676789
0.00411016
0.00341264
0.00234181
0.00212611
0.00184525
0.00144416
0.00125944
0.000949036
0.000845421
0.000632749
0.000549012
0.000363175
0.000334545
0.000109433
0.000318182
0.000991225
0.00556627
0.0100202
0.014163
0.00672011
0.0040415
0.00343602
0.0023912
0.00210518
0.00181626
0.00141627
0.00125889
0.000947469
0.00083854
0.000634767
0.000555837
0.000375807
0.000354657
5.38221e-05
0.000277665
0.00090414
0.00554418
0.0100498
0.0141602
0.00679409
0.00396111
0.00338003
0.00235653
0.00205999
0.00181512
0.00140368
0.00126547
0.000971508
0.00085542
0.00064848
0.000561817
0.000389949
0.000374721
6.96401e-05
0.000250724
0.000808198
0.00551143
0.010077
0.0141513
0.00691081
0.00389416
0.00338979
0.00242493
0.00203341
0.00179634
0.0013917
0.0012534
0.000977061
0.00084715
0.000650098
0.000571195
0.000402858
0.000389417
6.80591e-05
0.000224696
0.000705818
0.00546692
0.0100925
0.0141718
0.00694364
0.00383467
0.00330401
0.00240987
0.00200535
0.0017992
0.00140799
0.00126442
0.00100942
0.000875796
0.000665785
0.0005842
0.000421655
0.000409355
7.87497e-05
0.000204644
0.000610551
0.00549932
0.0101251
0.0142585
0.00695344
0.00385164
0.00318728
0.00242826
0.00198008
0.0017617
0.00139219
0.00125435
0.00100802
0.000874137
0.000676396
0.000593653
0.000434189
0.000417848
0.000102267
0.000174255
0.000505942
0.00547186
0.0101569
0.0143291
0.00751237
0.00397748
0.00306455
0.00239405
0.00196344
0.00171666
0.0013571
0.00120605
0.000996255
0.000854906
0.000668712
0.000591551
0.000449345
0.000436679
0.000118593
0.000160971
0.000394869
0.00521727
0.0100576
0.0142026
0.0148872
0.039397
0.0294387
0.0266078
0.0220268
0.019588
0.0155055
0.0132574
0.0107976
0.00910781
0.00728667
0.00657282
0.00514573
0.00502836
0.00258414
0.00221289
0.000258678
0.0503705
0.0957022
0.130847
0.0335672
0.0236805
0.0202619
0.0185322
0.0154408
0.0132836
0.0111763
0.00898701
0.00767333
0.00639236
0.00536015
0.00452424
0.00425862
0.00380953
0.00347474
0.00294493
0.0108422
0.0525097
0.0943178
0.12805
0.0173946
0.0157894
0.0147465
0.0115544
0.00987062
0.00872275
0.00820625
0.00720175
0.00635568
0.0059697
0.00535673
0.00486036
0.00450788
0.00409696
0.00424278
0.00335119
0.00734769
0.0531547
0.0918556
0.128291
0.0117259
0.00959214
0.00883866
0.00920745
0.00789656
0.00737629
0.00688002
0.0063579
0.00573885
0.00513675
0.00487133
0.00452732
0.00410872
0.00364561
0.00320131
0.00211315
0.00756303
0.0517253
0.0934693
0.12466
0.00576528
0.00765097
0.00780941
0.00697504
0.00600229
0.00512186
0.00507842
0.00486044
0.00455768
0.00437194
0.00389935
0.00388699
0.00372264
0.00382713
0.00368275
0.00244575
0.00488648
0.0470768
0.0938239
0.124441
0.00585384
0.00517916
0.00409576
0.00397903
0.00421808
0.00462425
0.00427143
0.00429291
0.00391513
0.00393537
0.00388248
0.0035317
0.00353656
0.00335485
0.00337158
0.00227048
0.00365611
0.0421639
0.0946041
0.125399
0.00243418
0.00331161
0.00389945
0.00424764
0.00369291
0.00331091
0.00323159
0.00320438
0.00324744
0.00313614
0.00300125
0.00319769
0.00312645
0.00336921
0.00325095
0.0024099
0.00232999
0.0340011
0.0958232
0.128692
0.00252926
0.00256806
0.00229205
0.00211782
0.00238698
0.00261117
0.00259474
0.00279531
0.00269659
0.00291713
0.00294651
0.00287492
0.00286857
0.00306785
0.00317387
0.00268028
0.00362285
0.0258345
0.0955137
0.135288
0.00133491
0.00149113
0.00171537
0.0020815
0.00216276
0.00224751
0.00214366
0.0022324
0.00227154
0.00245957
0.00243232
0.00274995
0.00262845
0.00300227
0.00301835
0.00307559
0.00235783
0.0181122
0.0937653
0.143285
0.00103663
0.00109707
0.00116627
0.00126129
0.00131286
0.00145532
0.00158905
0.00187725
0.00200988
0.00216341
0.00231323
0.00250136
0.00259071
0.00286163
0.00299631
0.00361598
0.00266458
0.0111893
0.0890899
0.154732
0.000497037
0.000630548
0.000774265
0.00100872
0.00111337
0.00135806
0.00138298
0.00158731
0.001714
0.00192517
0.00202277
0.00231379
0.00242776
0.00255179
0.00271967
0.00339962
0.0029077
0.00593464
0.0691965
0.167547
0.000329297
0.000495559
0.000529476
0.00072128
0.000795677
0.000971779
0.00111464
0.00130177
0.00148314
0.00169931
0.00190466
0.00212959
0.00244674
0.0027511
0.00277834
0.00289303
0.00346387
0.00456889
0.0557968
0.18519
0.000334523
0.000517263
0.000584313
0.000706966
0.000772649
0.000919125
0.00102014
0.00126561
0.00130326
0.00151746
0.00163793
0.00191785
0.00214022
0.00246331
0.00274247
0.00268261
0.00384032
0.00964305
0.0317836
0.160749
0.000406145
0.000490492
0.000527724
0.000678848
0.000756592
0.000937718
0.000977848
0.0011148
0.00117433
0.00139504
0.00144729
0.00169334
0.00164679
0.00195517
0.00201522
0.00292234
0.00305607
0.00640379
0.0174933
0.112742
0.00051692
0.000588451
0.000607571
0.000698077
0.000726892
0.000808181
0.000855332
0.000944408
0.00104479
0.00119716
0.00123264
0.00144926
0.00150366
0.00193826
0.00197613
0.00262355
0.00256227
0.00379532
0.00504374
0.0643309
0.000436759
0.000504039
0.000548444
0.000600432
0.000638311
0.000696917
0.000761238
0.000909532
0.000873608
0.000995976
0.000965994
0.00118436
0.00114486
0.00147167
0.00140317
0.00163049
0.00156185
0.00260117
0.00462323
0.0346008
0.000343007
0.000402821
0.000447736
0.000522761
0.000567455
0.000640475
0.000669915
0.000694448
0.000693288
0.000809302
0.000773018
0.00094639
0.000969973
0.00111961
0.0012842
0.00127321
0.00147205
0.00145429
0.000983822
0.0145819
0.000275334
0.000298727
0.00030612
0.000327075
0.000344519
0.000366535
0.000405749
0.000486874
0.000575928
0.00061703
0.000653441
0.000701553
0.000721457
0.0006441
0.000625135
0.000752359
0.000773579
0.00107747
0.00139769
0.00358787
0.000236024
0.000236
0.000231637
0.000242893
0.000248062
0.000245875
0.00023307
0.000250313
0.000253489
0.000274151
0.000315043
0.000353729
0.000364137
0.000425156
0.000449913
0.000487942
0.000433931
0.000540463
0.00040642
0.00288397
0.000312433
0.000288983
0.000253153
0.000218521
0.0001593
0.000132218
0.000141495
0.000138863
0.000144554
0.000176043
0.000195246
0.000231546
0.000254481
0.00029491
0.000306985
0.00024583
0.000320736
0.000238122
0.00020724
0.000478645
0.0139771
0.0141687
0.0141543
0.0141885
0.0141808
0.0141914
0.0142335
0.0139727
0.0136106
0.0137863
0.0124906
0.0122821
0.0118816
0.0117482
0.0119707
0.0111104
0.0115052
0.0100949
0.00977239
0.0105331
0.00693252
0.00693838
0.0068886
0.00686897
0.00680494
0.00683235
0.00672994
0.0066639
0.00741461
0.00696865
0.00668118
0.00685007
0.00692505
0.00724303
0.00700018
0.00699895
0.0069255
0.00656654
0.0065785
0.00782204
0.00417595
0.00416623
0.00420314
0.00426119
0.00430518
0.00436865
0.00438067
0.00449049
0.00443161
0.00424837
0.00405615
0.00432199
0.00402693
0.00383472
0.00365573
0.00332131
0.00311598
0.00383118
0.00381132
0.00424043
0.00267322
0.0026727
0.0026646
0.00265379
0.00262418
0.0026085
0.00257724
0.00255014
0.00240572
0.00241542
0.00233138
0.00233375
0.00245958
0.00263463
0.00270924
0.00311374
0.00271341
0.00288349
0.00257173
0.00286244
0.00162118
0.00161792
0.00161184
0.00161113
0.00161249
0.00163086
0.00161302
0.00162595
0.00171899
0.00182002
0.00189239
0.00192673
0.00181888
0.00165177
0.00138912
0.00138635
0.00139427
0.00149117
0.00160648
0.00161089
0.0011502
0.00114881
0.00114968
0.00115239
0.00115396
0.00115545
0.00114708
0.00114716
0.00113474
0.0011175
0.00101925
0.000964923
0.000930079
0.00110161
0.00129177
0.00110295
0.0010236
0.00110254
0.0010367
0.00127495
0.000676194
0.000672606
0.000669542
0.000669253
0.000667279
0.000666062
0.000674124
0.000674156
0.000685802
0.000698913
0.000746884
0.00080553
0.000746434
0.000713299
0.00063805
0.000784107
0.000785424
0.00070446
0.000674347
0.000675762
0.000470141
0.000466877
0.000464053
0.000464658
0.000466598
0.000470578
0.000474823
0.000479726
0.000480762
0.000489401
0.000486832
0.000492255
0.000455848
0.000475988
0.000446274
0.000446593
0.000474509
0.000577732
0.000487997
0.000498834
0.000236171
0.000235598
0.00023473
0.000235326
0.000252752
0.000239266
0.000240565
0.000240478
0.000241302
0.000245112
0.000266233
0.000244998
0.0002757
0.000257451
0.000264828
0.00032753
0.000284063
0.00024387
0.000246685
0.000295222
0.000121628
0.000121812
0.000121978
0.00012111
0.000119846
0.000117451
0.000114331
0.000118161
0.000117827
0.000164512
0.000138513
0.000162759
0.000144926
0.000151685
0.000159227
0.000155541
0.000148382
0.000168549
0.000169738
0.000199475
7.34915e-05
6.84989e-05
6.28946e-05
5.82794e-05
5.36987e-05
4.86977e-05
4.02417e-05
3.42945e-05
3.02861e-05
3.21382e-05
3.9705e-05
4.38796e-05
5.61715e-05
5.39583e-05
4.18959e-05
5.07843e-05
6.90951e-05
0.00010224
9.54759e-05
0.000118858
9.942e-05
7.99492e-05
7.11928e-05
6.47041e-05
6.03184e-05
5.62438e-05
4.82092e-05
3.59034e-05
3.14454e-05
2.33422e-05
1.97164e-05
1.4057e-05
1.10536e-05
1.43762e-05
3.32154e-05
3.58031e-05
4.48256e-05
3.69378e-05
4.77448e-05
6.64566e-05
8.64955e-05
7.74739e-05
6.85562e-05
6.44745e-05
7.8319e-05
8.5502e-05
7.24681e-05
7.13428e-05
7.98735e-05
8.29799e-05
8.03776e-05
7.89978e-05
9.17135e-05
8.59e-05
8.35197e-05
6.69667e-05
7.57234e-05
6.23319e-05
7.80174e-05
7.81068e-05
9.84612e-05
9.12979e-05
9.12849e-05
8.81506e-05
9.19247e-05
9.88777e-05
0.000104368
0.000111427
0.000113118
0.000108714
0.000106712
0.000106346
0.000106013
0.000100146
0.000100917
9.41853e-05
9.86473e-05
8.98385e-05
0.000100614
0.000105381
6.95174e-05
6.94482e-05
6.74866e-05
7.18163e-05
8.21114e-05
8.55351e-05
8.53722e-05
7.92583e-05
8.28434e-05
8.64291e-05
9.51183e-05
9.65283e-05
0.000100143
9.8765e-05
0.000107424
0.00010356
0.000110636
0.000106277
0.000120265
0.000121367
5.54489e-05
4.82277e-05
4.97657e-05
5.47975e-05
4.92735e-05
4.9228e-05
5.06133e-05
5.30235e-05
5.54606e-05
5.84799e-05
5.95905e-05
6.1989e-05
6.84107e-05
7.39784e-05
8.04042e-05
8.4769e-05
9.67548e-05
9.88989e-05
0.00010581
0.000107349
6.3298e-05
6.55248e-05
6.91568e-05
7.15901e-05
7.17341e-05
7.09705e-05
6.89659e-05
6.70935e-05
6.51471e-05
6.35868e-05
6.25324e-05
6.35403e-05
6.54483e-05
6.59114e-05
6.88819e-05
6.99533e-05
7.44433e-05
7.26429e-05
7.73288e-05
7.8223e-05
3.56833e-05
3.95595e-05
4.62119e-05
5.59841e-05
5.63588e-05
5.68219e-05
5.71644e-05
5.73045e-05
5.76034e-05
5.82528e-05
5.89498e-05
5.90588e-05
5.89782e-05
5.8887e-05
5.93444e-05
5.89861e-05
5.97867e-05
5.89396e-05
6.18804e-05
6.3918e-05
6.6828e-05
6.57927e-05
6.52731e-05
6.59607e-05
6.53111e-05
6.48955e-05
6.39891e-05
6.34829e-05
6.26626e-05
6.23961e-05
6.21706e-05
6.21128e-05
6.10625e-05
6.03984e-05
5.99208e-05
5.95794e-05
5.98332e-05
6.02807e-05
6.09005e-05
6.08946e-05
0.000104671
0.000102796
0.000101429
0.000100424
9.93326e-05
9.78961e-05
9.66066e-05
9.51134e-05
9.37717e-05
9.23404e-05
9.10656e-05
8.94531e-05
8.77843e-05
8.63441e-05
8.50142e-05
8.37448e-05
8.21758e-05
8.11181e-05
7.97613e-05
7.94183e-05
0.000933017
0.00102226
0.000776586
0.00082221
0.00092135
0.00095541
0.00100136
0.00105385
0.00108763
0.00111272
0.00115932
0.00119053
0.00124052
0.0012734
0.00136437
0.00141525
0.00136662
0.00223086
0.00747915
0.018424
0.000926829
0.00102451
0.000831553
0.000976537
0.00102735
0.00104584
0.00107551
0.00110628
0.00114773
0.00117453
0.00122436
0.00125336
0.00128499
0.00131607
0.00137253
0.00137878
0.00140981
0.0016617
0.00642729
0.0180625
0.00103328
0.0011132
0.000857865
0.000929327
0.000964426
0.000979956
0.00101151
0.00105932
0.0010814
0.00110002
0.00115415
0.00119056
0.00125762
0.00129529
0.00139099
0.00140691
0.0014787
0.00137018
0.00556507
0.0176591
0.00107969
0.0011485
0.000908221
0.00100716
0.00104688
0.00106267
0.00108623
0.00111642
0.00115027
0.00120013
0.00124854
0.0012825
0.00131345
0.00134658
0.00140633
0.00139713
0.00150018
0.00130908
0.00464909
0.0172073
0.00111366
0.00116863
0.000910625
0.000962395
0.000976798
0.000987538
0.00102067
0.00106886
0.00110032
0.00112076
0.00116788
0.00120519
0.0012715
0.00131038
0.00139118
0.00139688
0.00150388
0.00132843
0.00423198
0.0166617
0.00106733
0.00110168
0.000884961
0.000974872
0.00102605
0.00104483
0.00106625
0.00111214
0.00114053
0.00119452
0.00124074
0.00128075
0.00131687
0.00136505
0.0014294
0.00143878
0.00155609
0.00140494
0.00445745
0.0160189
0.00106515
0.00108244
0.00089518
0.000953373
0.000970035
0.000980779
0.00103233
0.00108261
0.00111782
0.00114933
0.00118927
0.00123978
0.00131186
0.00136056
0.00141943
0.00143539
0.00152603
0.00144588
0.00481493
0.0152877
0.000947322
0.000992163
0.000851616
0.000921891
0.000976298
0.00103017
0.00108599
0.00113786
0.0011695
0.00122388
0.00127203
0.00132453
0.00135839
0.00139691
0.00145978
0.00149282
0.0016224
0.00155592
0.0042974
0.0145646
0.00103162
0.00108544
0.000961918
0.00104403
0.0010809
0.00110484
0.00113626
0.0011468
0.00116891
0.00121063
0.00123448
0.0012771
0.00131414
0.00136893
0.00141254
0.00146038
0.00155606
0.00151418
0.00366291
0.0134172
0.000966124
0.00102614
0.000942671
0.000983194
0.000996445
0.00102703
0.00103712
0.00107889
0.00115295
0.00120407
0.0012349
0.00128773
0.00132616
0.00138646
0.0014582
0.00153935
0.00161076
0.00163752
0.00303228
0.0119952
0.00100422
0.0010742
0.000965286
0.00101198
0.00106726
0.00108707
0.00111914
0.00119046
0.00119602
0.00119883
0.00122608
0.00128904
0.00131816
0.00139931
0.00143438
0.00148057
0.00153244
0.00158052
0.00246468
0.00978427
0.000989522
0.00100379
0.000918037
0.00098915
0.00101375
0.00104721
0.00110494
0.00111985
0.00113483
0.00119474
0.0012574
0.00130192
0.00133007
0.00140719
0.00142979
0.00151603
0.00154577
0.00160227
0.0021395
0.007965
0.000970232
0.00100574
0.000964997
0.00102124
0.00104105
0.00109553
0.00108839
0.0011154
0.00115965
0.00119111
0.00122459
0.00125293
0.00130464
0.00137301
0.00139093
0.0014675
0.00146974
0.0015642
0.00182368
0.00620662
0.000946999
0.000975995
0.000950112
0.000983711
0.00102088
0.00103381
0.00104764
0.00112156
0.00112965
0.00119368
0.0012273
0.00127053
0.00134199
0.00140253
0.00143595
0.00151091
0.00152893
0.00163863
0.00173613
0.00521672
0.000980142
0.00100796
0.000950249
0.000998638
0.00101527
0.0010449
0.00109097
0.00111973
0.00114924
0.0012093
0.00121888
0.00130008
0.00135372
0.00139111
0.00140889
0.00148798
0.00150056
0.00162741
0.00161055
0.00417208
0.000949709
0.000955846
0.000955534
0.00100317
0.0010486
0.00108592
0.00110826
0.00115185
0.0011896
0.0012218
0.00126138
0.00132744
0.00134122
0.00137802
0.00139847
0.00146649
0.00144919
0.00154188
0.0015338
0.00398555
0.000932293
0.000978656
0.000963966
0.00100592
0.00104162
0.00104999
0.00109955
0.00113932
0.00116747
0.00122016
0.00126155
0.0012952
0.00131582
0.00131817
0.00137015
0.00140663
0.00140764
0.00148584
0.00158424
0.00403835
0.000946595
0.00098194
0.000954781
0.00100461
0.00103372
0.00106525
0.00111218
0.00112485
0.00115744
0.00118129
0.00119659
0.00124839
0.00124289
0.00132644
0.00137264
0.00143212
0.0014927
0.00160805
0.00170015
0.00357553
0.000931653
0.000941543
0.000943546
0.000993887
0.00103446
0.00106583
0.0010912
0.00112439
0.00115459
0.00121015
0.00124808
0.00130809
0.00130988
0.00141944
0.00143313
0.00152732
0.00160634
0.00166791
0.00159767
0.00211622
0.000961137
0.000991798
0.000979355
0.00102707
0.00104785
0.00106559
0.0010981
0.00112185
0.00117191
0.001199
0.00124356
0.00124405
0.00128959
0.00133955
0.00135593
0.00145168
0.00147554
0.00151026
0.00186648
0.00105875
0.000434997
0.000434525
0.000431992
0.000363497
0.000318106
0.000354458
0.000411118
0.00034571
0.000397412
0.000353735
0.000154197
0.000155887
0.00130574
0.00394891
0.00842723
0.0121558
0.010304
0.00490036
0.00102682
0.00065165
0.000403196
0.000338034
0.000378132
0.000429097
0.0003811
0.000317638
0.000339302
0.000376243
0.000400409
0.000398519
0.000351163
0.000125959
0.000332261
0.00190098
0.00538734
0.0102628
0.0123021
0.00818399
0.0024393
7.29962e-24
0.000458726
0.000399021
0.000372243
0.000357641
0.00035001
0.000350291
0.00036029
0.000311848
0.000371373
0.000415296
0.000408553
0.000321136
5.1455e-05
0.000652794
0.0029391
0.00748078
0.0121873
0.0106456
0.00495298
0.000639288
0.000432956
0.000394384
0.000407366
0.000431249
0.000411035
0.000318079
0.00035125
0.000359973
0.000349274
0.000344161
0.000432437
0.000402442
0.000246361
3.01057e-05
0.00135934
0.00510145
0.0102742
0.0122287
0.00795523
0.00119413
0.000446154
0.000378832
0.000363652
0.000361078
0.000414189
0.000389394
0.000371311
0.000335673
0.000383199
0.000386637
0.000367096
0.000409169
0.000328463
0.000130535
0.000257318
0.00271536
0.00832635
0.012658
0.00977092
0.00255457
0.000474512
0.00042717
0.000424594
0.00041575
0.00043341
0.0003507
0.000384978
0.000387037
0.000372654
0.000396837
0.000437278
0.000450415
0.000389806
0.000269771
4.67924e-05
0.00112313
0.00616835
0.0119711
0.011253
0.00328895
0.000462272
0.000398023
0.000401852
0.000376961
0.000470946
0.000444531
0.000400093
0.000370914
0.000405031
0.000408681
0.000406756
0.000445609
0.000479527
0.000408654
0.000172921
0.000297337
0.00368953
0.0106307
0.0122843
0.00430632
0.000514523
0.000449849
0.000452101
0.00040944
0.000470422
0.000429452
0.000462905
0.000470178
0.00045215
0.000478016
0.000513901
0.000522151
0.000505113
0.000494474
0.00040549
0.000202546
0.00173623
0.00934921
0.0127917
0.00700978
0.000510385
0.000449131
0.000476169
0.000422547
0.000525948
0.000513991
0.000467285
0.000453162
0.000490529
0.000508726
0.000527291
0.000601305
0.000604142
0.00063458
0.000581982
0.000225005
0.000713734
0.00804417
0.0129248
0.00948448
0.00057384
0.000483228
0.000510813
0.000444239
0.000531755
0.000532478
0.000553314
0.000569268
0.000554233
0.000576556
0.00062032
0.000650534
0.000658307
0.000702054
0.000710638
0.000513143
0.000381899
0.00597936
0.012888
0.0117968
0.000583815
0.000476209
0.00055519
0.000487789
0.000571319
0.000592032
0.000562923
0.00056602
0.000610465
0.000638502
0.000664608
0.000745195
0.000756545
0.000770611
0.000821335
0.000699551
0.000254879
0.00419822
0.0124864
0.0147734
0.000630729
0.000478486
0.000557017
0.000500382
0.00059116
0.000636234
0.000640191
0.000663249
0.000662075
0.000680543
0.000731076