/*--------------------------------*- C++ -*----------------------------------*\
  =========                 |
  \\      /  F ield         | OpenFOAM: The Open Source CFD Toolbox
   \\    /   O peration     | Website:  https://openfoam.org
    \\  /    A nd           | Version:  9
     \\/     M anipulation  |
\*---------------------------------------------------------------------------*/
FoamFile
{
    format      ascii;
    class       volScalarField;
    location    "6.08";
    object      p;
}
// * * * * * * * * * * * * * * * * * * * * * * * * * * * * * * * * * * * * * //

dimensions      [0 2 -2 0 0 0 0];

internalField   nonuniform List<scalar> 
46400
(
-128.259
-119.456
-104.676
-91.7784
-80.4179
-69.636
-60.0238
-51.0989
-42.9329
-35.3979
-28.3953
-21.9009
-15.8226
-10.0721
-4.62239
0.596725
5.5144
10.8511
15.9452
17.3579
-90.3788
-82.1773
-69.1835
-57.4455
-47.1985
-37.487
-28.8323
-20.8201
-13.5574
-6.89261
-0.754807
4.88335
10.118
14.9492
19.4688
23.6719
27.5806
31.5883
35.2069
36.0397
-53.0258
-46.6908
-34.9699
-23.803
-14.4734
-5.63047
2.16194
9.31151
15.777
21.6713
27.0602
32.0037
36.516
40.7027
44.5465
48.0707
51.237
54.4986
56.9986
56.6381
-18.1553
-12.0499
-1.07685
9.05892
17.5958
25.437
32.3261
38.5125
44.0724
49.0438
53.565
57.6423
61.3707
64.7378
67.8423
70.6554
73.1852
75.7825
77.8498
77.3431
16.5422
23.2449
33.0968
42.1877
49.551
56.361
62.2747
67.567
72.2673
76.4633
80.1991
83.5566
86.5365
89.2262
91.6295
93.7614
95.6017
97.5161
98.899
97.878
51.2083
58.5156
66.8688
74.5422
80.8068
86.4347
91.34
95.6112
99.3991
102.705
105.636
108.226
110.516
112.522
114.301
115.86
117.173
118.559
119.52
118.271
85.8468
93.3954
99.6794
105.942
110.958
115.429
119.346
122.71
125.646
128.166
130.341
132.2
133.813
135.169
136.343
137.288
138.055
138.855
139.395
137.843
119.147
126.509
131.27
135.923
139.875
143.213
146.168
148.641
150.789
152.569
154.074
155.291
156.286
157.065
157.67
158.125
158.379
158.714
158.833
157.099
150.545
155.981
160.009
163.436
166.45
168.881
170.992
172.674
174.091
175.184
176.063
176.693
177.155
177.426
177.566
177.555
177.408
177.297
177.103
175.233
179.158
183.508
186.813
189.461
191.655
193.326
194.688
195.65
196.38
196.828
197.088
197.137
197.029
196.767
196.389
195.898
195.277
194.715
194.097
192.039
204.667
208.196
210.841
212.74
214.352
215.367
216.13
216.499
216.648
216.532
216.265
215.821
215.267
214.58
213.809
212.941
211.988
211.095
210.184
208.061
228.765
231.568
233.551
234.824
235.777
236.223
236.424
236.249
235.886
235.248
234.47
233.513
232.463
231.296
230.059
228.734
227.332
225.984
224.605
222.246
249.992
252.081
253.504
254.16
254.604
254.573
254.274
253.672
252.871
251.867
250.706
249.397
247.983
246.47
244.899
243.263
241.567
239.906
238.223
235.708
270.084
271.55
272.427
272.477
272.384
271.799
271.038
269.92
268.662
267.191
265.613
263.903
262.108
260.232
258.303
256.326
254.299
252.313
250.317
247.65
287.084
287.91
288.416
288.073
287.53
286.635
285.536
284.19
282.646
280.91
279.042
277.043
274.969
272.807
270.612
268.359
266.08
263.831
261.617
258.744
303.329
303.473
303.46
302.722
301.678
300.297
298.685
296.911
294.966
292.904
290.717
288.455
286.113
283.727
281.3
278.85
276.363
273.924
271.541
268.566
314.791
314.782
314.541
313.768
312.766
311.361
309.701
307.778
305.691
303.437
301.064
298.598
296.053
293.468
290.834
288.197
285.516
282.904
280.37
277.31
326.045
326.077
325.316
324.271
322.677
320.951
318.821
316.654
314.232
311.777
309.195
306.583
303.908
301.21
298.488
295.758
293.006
290.303
287.72
284.648
333.29
333.31
332.706
331.773
330.358
328.603
326.555
324.273
321.808
319.207
316.512
313.747
310.928
308.071
305.202
302.319
299.434
296.587
293.867
290.748
339.977
339.688
338.777
337.454
335.801
333.839
331.664
329.28
326.737
324.089
321.348
318.546
315.682
312.794
309.873
306.955
304.009
301.097
298.26
295.169
-608.995
-606.836
-590.911
-572.214
-552.28
-532.631
-514.158
-496.777
-480.174
-464.426
-449.382
-435.047
-421.367
-408.266
-395.798
-383.785
-372.53
-361.661
-351.55
-341.846
-604.508
-603.447
-588.413
-566.776
-545.85
-525.718
-506.648
-488.78
-471.864
-455.785
-440.558
-426.019
-412.205
-399.024
-386.515
-374.483
-363.249
-352.381
-342.364
-332.645
-602.084
-599.151
-582.054
-559.25
-537.27
-516.634
-497.244
-479.052
-461.877
-445.676
-430.293
-415.699
-401.843
-388.657
-376.124
-364.123
-352.944
-342.159
-332.265
-322.572
-593.409
-590.431
-572.711
-549.184
-526.979
-505.98
-486.415
-468.041
-450.728
-434.387
-418.942
-404.283
-390.407
-377.239
-364.763
-352.857
-341.824
-330.963
-321.311
-311.642
-584.476
-580.449
-561.355
-537.226
-514.639
-493.396
-473.65
-455.213
-437.828
-421.489
-406.083
-391.486
-377.7
-364.649
-352.278
-340.523
-329.548
-318.943
-309.442
-299.856
-571.529
-566.657
-546.68
-522.454
-499.982
-478.818
-459.115
-440.738
-423.452
-407.183
-391.855
-377.385
-363.721
-350.795
-338.563
-326.966
-316.149
-305.732
-296.385
-286.874
-557.12
-551.355
-530.589
-506.079
-483.474
-462.385
-442.713
-424.467
-407.301
-391.189
-376.088
-361.8
-348.359
-335.679
-323.692
-312.359
-301.767
-291.597
-282.553
-273.173
-538.822
-532.348
-510.971
-486.804
-464.514
-443.774
-424.36
-406.381
-389.505
-373.709
-358.84
-344.85
-331.683
-319.275
-307.542
-296.484
-286.133
-276.251
-267.464
-258.259
-518.638
-511.452
-489.818
-465.842
-443.756
-423.356
-404.263
-386.606
-370.071
-354.566
-340.086
-326.412
-313.581
-301.512
-290.129
-279.412
-269.364
-259.787
-251.297
-242.278
-495.428
-487.691
-465.754
-442.399
-420.763
-400.88
-382.225
-365.02
-348.919
-333.879
-319.792
-306.553
-294.138
-282.472
-271.465
-261.131
-251.423
-242.232
-234.083
-225.306
-469.716
-461.5
-439.852
-417.005
-395.991
-376.68
-358.603
-341.902
-326.344
-311.767
-298.188
-285.41
-273.434
-262.203
-251.631
-241.716
-232.386
-223.584
-215.768
-207.25
-442.183
-433.671
-411.927
-389.87
-369.232
-350.689
-333.18
-317.083
-302.086
-288.078
-275.042
-262.793
-251.349
-240.625
-230.542
-221.102
-212.213
-203.882
-196.47
-188.26
-412.019
-403.415
-381.642
-360.937
-341.155
-323.238
-306.558
-291.078
-276.761
-263.359
-250.901
-239.238
-228.315
-218.11
-208.529
-199.577
-191.14
-183.279
-176.244
-168.35
-380.81
-371.98
-350.258
-330.346
-311.26
-294.16
-278.174
-263.442
-249.799
-237.059
-225.27
-214.209
-203.904
-194.278
-185.262
-176.84
-168.907
-161.568
-154.958
-147.411
-347.542
-338.474
-317.06
-298.484
-280.495
-264.181
-249.106
-235.09
-222.202
-210.155
-198.98
-188.577
-178.851
-169.8
-161.336
-153.448
-146.024
-139.202
-132.983
-125.788
-313.425
-304.1
-283.194
-265.287
-248.258
-232.796
-218.569
-205.369
-193.249
-181.932
-171.499
-161.746
-152.671
-144.23
-136.356
-129.013
-122.111
-115.818
-110.018
-103.147
-277.978
-268.415
-248.252
-231.564
-215.596
-201.016
-187.658
-175.256
-163.89
-153.303
-143.499
-134.423
-125.961
-118.113
-110.82
-104.03
-97.6763
-91.9287
-86.5488
-80.0964
-241.201
-231.648
-212.666
-196.816
-181.994
-168.327
-155.954
-144.381
-133.859
-124.037
-114.995
-106.585
-98.7546
-91.5158
-84.7976
-78.5476
-72.7313
-67.5567
-62.6961
-56.709
-204.364
-194.927
-176.977
-162.056
-148.284
-135.486
-123.942
-113.227
-103.417
-94.3358
-85.9251
-78.1688
-70.9531
-64.2593
-58.0727
-52.2763
-46.9492
-42.2873
-37.7998
-31.6164
-166.605
-156.781
-140.536
-126.736
-114.215
-102.475
-91.9462
-82.0783
-73.1212
-64.7651
-57.036
-49.84
-43.094
-36.8139
-30.8952
-25.2852
-20.1328
-15.2531
-9.97821
-3.84052
-294.862
-241.353
-193.685
-161.066
-131.388
-109.411
-90.3162
-74.7977
-62.2652
-51.1666
-42.7318
-34.7782
-29.0959
-23.3483
-19.473
-15.5213
-12.1454
-10.6981
-8.49737
-8.19456
-286.337
-234.935
-188.354
-157.128
-128.183
-106.831
-88.2419
-73.0864
-60.8979
-50.0147
-41.7993
-33.9563
-28.4599
-22.7819
-19.0747
-15.1204
-11.9253
-10.5196
-8.23614
-8.07203
-277.103
-228.52
-182.993
-153.134
-124.902
-104.249
-86.1888
-71.354
-59.5002
-48.7925
-40.8194
-33.097
-27.7742
-22.1774
-18.6466
-14.6731
-11.7209
-10.2442
-7.98285
-7.94586
-267.379
-221.282
-177.218
-148.788
-121.417
-101.406
-83.9191
-69.4469
-57.9755
-47.4901
-39.7475
-32.155
-27.0235
-21.5127
-18.1772
-14.1911
-11.5096
-9.91475
-7.74861
-7.79465
-257.058
-213.894
-171.365
-144.409
-117.87
-98.5543
-81.6786
-67.5201
-56.4127
-46.1202
-38.631
-31.1725
-26.2273
-20.813
-17.6777
-13.662
-11.2635
-9.54871
-7.43421
-7.61506
-246.198
-205.873
-165.125
-139.645
-114.124
-95.4466
-79.2241
-65.4241
-54.7279
-44.6741
-37.4243
-30.1093
-25.3598
-20.0446
-17.1403
-13.0846
-10.9541
-9.16451
-7.176
-7.36684
-234.603
-197.552
-158.812
-134.804
-110.324
-92.3254
-76.7926
-63.3162
-52.998
-43.166
-36.1694
-29.0082
-24.449
-19.2434
-16.5742
-12.4803
-10.5921
-8.73548
-6.96474
-7.12958
-222.552
-188.719
-152.13
-129.576
-106.333
-88.9602
-74.1502
-61.055
-51.1558
-41.5803
-34.829
-27.829
-23.4647
-18.372
-15.9764
-11.8593
-10.2143
-8.26224
-6.74282
-6.86724
-209.825
-179.533
-145.416
-124.269
-102.291
-85.582
-71.5169
-58.7852
-49.2656
-39.9384
-33.4403
-26.6089
-22.4393
-17.4597
-15.3323
-11.1208
-9.84912
-7.7416
-6.47241
-6.56053
-196.493
-169.896
-138.304
-118.598
-98.0657
-81.9848
-68.6889
-56.3709
-47.2755
-38.2173
-31.9728
-25.3147
-21.3349
-16.4926
-14.6416
-10.1705
-9.43118
-7.16251
-6.23644
-6.25823
-182.551
-159.948
-131.165
-112.913
-93.7794
-78.3804
-65.8573
-53.9459
-45.2374
-36.4449
-30.4607
-23.9745
-20.1915
-15.5254
-13.9046
-9.13966
-8.97513
-6.49974
-6.04939
-5.91188
-167.859
-149.594
-123.624
-106.89
-89.3298
-74.5884
-62.8456
-51.3921
-43.1152
-34.5925
-28.8769
-22.5651
-18.9719
-14.4051
-12.9862
-8.10474
-8.48667
-5.83489
-5.85506
-5.56502
-152.573
-138.971
-116.099
-100.811
-84.8091
-70.7899
-59.8236
-48.8146
-40.9458
-32.6966
-27.2286
-21.1235
-17.7036
-13.164
-11.9128
-7.11401
-7.97691
-5.24729
-5.66963
-5.19558
-136.525
-128.023
-108.233
-94.5042
-80.1143
-66.8479
-56.6425
-46.1163
-38.6933
-30.7326
-25.5231
-19.6068
-16.3514
-11.8802
-10.7649
-6.15627
-7.49501
-4.63761
-5.46677
-4.80781
-119.679
-116.827
-100.449
-88.1218
-75.3823
-62.9066
-53.4819
-43.3946
-36.4016
-28.7359
-23.7722
-18.072
-14.962
-10.6007
-9.58121
-5.22436
-6.92864
-3.99494
-5.27453
-4.38671
-101.895
-105.094
-92.3413
-81.5737
-70.473
-58.8281
-50.1875
-40.5875
-34.039
-26.6846
-21.9716
-16.4725
-13.526
-9.34463
-8.4039
-4.24276
-6.31235
-3.33832
-5.06995
-3.95469
-83.7115
-93.1652
-84.1449
-74.769
-65.343
-54.5948
-46.7579
-37.674
-31.5728
-24.556
-20.1093
-14.8124
-12.0398
-8.02697
-7.21387
-3.16152
-5.63049
-2.62333
-4.87507
-3.4546
-65.6691
-81.8807
-76.6346
-68.4035
-60.3672
-50.4499
-43.3299
-34.7482
-29.0771
-22.3805
-18.1911
-13.1058
-10.5107
-6.67821
-6.10737
-2.06812
-4.91812
-1.76523
-4.61463
-2.77542
-41.7751
-68.6976
-69.5883
-62.851
-56.1117
-47.0449
-40.506
-32.3
-26.9282
-20.4923
-16.4825
-11.5735
-9.11624
-5.48447
-5.04299
-1.03926
-4.30439
-1.42049
-4.41445
-2.40951
-15.7838
-49.8833
-57.3998
-53.7222
-49.2101
-41.6549
-36.1766
-28.8202
-24.0042
-18.0921
-14.417
-9.70299
-7.44679
-3.9712
-3.58991
0.191426
-3.42778
-1.10887
-4.35355
-1.56847
38.0996
41.5437
24.841
16.6891
7.69968
5.97796
2.28632
2.56618
1.52199
3.14294
3.27674
5.57898
5.89206
8.34079
8.00317
10.1896
8.36882
11.5094
5.8592
14.2892
99.9504
89.7299
64.2168
55.2098
42.7948
36.8855
30.5844
27.3264
24.2581
22.5858
21.0282
20.2047
19.4547
19.3342
18.5187
19.0726
17.6428
17.9421
16.4412
18.3102
123.455
109.546
94.4605
83.1467
72.6552
65.0655
58.3045
53.5928
49.2435
46.564
43.6842
42.1189
40.0715
39.2743
38.0094
37.4455
36.7773
36.305
36.2356
36.7467
133.077
122.006
109.081
99.7881
90.3171
83.1663
76.2056
70.7972
65.716
61.6328
58.071
55.0676
52.4981
50.116
48.2902
46.6175
45.4519
44.4325
44.1008
43.8617
132.533
123.942
115.696
108.14
101.17
94.6797
89.0593
83.9759
79.5767
75.6781
72.0983
69.2263
66.4416
64.1168
61.8806
59.7655
57.9463
56.3619
55.4127
55.2801
134.82
128.649
121.469
115.02
108.962
103.643
98.4758
93.9472
89.5423
85.7598
82.2442
78.8931
76.138
73.3071
71.0932
68.6898
66.9306
65.2047
64.1405
63.7169
132.876
127.737
123.307
118.831
114.319
110.027
105.823
101.867
98.254
94.832
91.6315
88.8259
85.8584
83.5281
80.8017
78.7332
76.3095
74.3656
72.8178
72.2513
134.529
131.054
126.899
122.539
118.433
114.78
111.285
108.07
104.763
101.91
98.8595
96.2599
93.5175
91.1506
88.6275
86.4065
83.9672
81.8853
79.9691
79.2621
133.912
130.822
127.816
125.381
122.625
119.74
116.801
114.079
111.276
108.802
106.231
103.995
101.507
99.5052
96.9657
95.1043
92.2988
90.5238
87.8876
87.2787
135.425
133.199
130.67
128.248
125.624
123.26
120.838
118.666
116.43
114.383
112.206
110.369
108.214
106.548
104.309
102.758
100.033
98.7334
95.6291
95.2563
136.523
134.799
132.86
131.085
129.132
127.337
125.39
123.672
121.854
120.329
118.638
117.28
115.694
114.479
112.887
111.799
109.809
109.199
105.189
106.142
137.974
136.525
134.821
133.347
131.736
130.331
128.849
127.567
126.233
125.121
123.942
123.043
122.03
121.364
120.493
120.102
119.235
119.355
119.058
120.721
139.422
138.311
137.02
135.926
134.719
133.708
132.613
131.755
130.822
130.179
129.481
129.084
128.72
128.573
128.716
128.756
129.729
129.786
132.175
133.566
140.788
139.876
138.792
137.926
136.949
136.201
135.365
134.809
134.152
133.867
133.43
133.512
133.368
133.927
134.217
135.351
136.372
138.109
141.183
142.056
142.269
141.509
140.673
140.005
139.291
138.771
138.207
137.899
137.508
137.491
137.324
137.711
137.809
138.731
139.186
140.849
141.653
144.488
145.998
149.634
143.211
142.578
141.879
141.345
140.754
140.341
139.877
139.691
139.404
139.504
139.392
139.841
139.952
140.831
141.307
142.776
143.499
145.578
146.547
159.614
144.305
143.775
143.229
142.792
142.319
142.051
141.828
141.774
141.613
141.794
141.702
142.305
142.234
143.423
143.885
145.185
145.906
147.973
149.298
152.708
145.052
144.561
144.062
143.678
143.331
143.094
142.745
142.617
142.462
142.588
142.627
143.01
143.066
143.768
143.977
145.688
145.958
146.978
147.14
157.187
145.524
145.052
144.619
144.265
143.952
143.713
143.524
143.456
143.398
143.542
143.559
143.895
144.104
144.564
144.915
145.435
145.615
147.62
147.689
148.339
145.785
145.331
144.919
144.575
144.277
144.067
143.899
143.829
143.743
143.836
143.891
144.158
144.312
144.745
144.985
145.552
145.943
146.575
146.813
153.004
258.772
255.194
250.898
246.122
240.467
234.338
227.355
219.644
211.289
202.061
191.588
181.417
170.14
158.277
146.045
132.62
119.377
104.707
90.5559
75.4729
229.039
226.659
223.999
221.032
217.766
214.169
210.394
206.083
202.199
196.797
190.923
186.416
180.82
175.252
169.425
163.307
156.885
149.223
140.38
130.837
193.141
191.478
189.679
187.803
185.723
183.621
181.225
178.906
176.155
173.484
170.343
167.274
163.294
159.219
155.411
151.989
148.431
144.969
140.917
137.285
180.952
179.616
178.22
176.749
175.209
173.59
171.883
170.098
168.195
166.257
164.211
162.067
159.979
157.573
154.823
152.643
149.911
147.489
144.673
142.138
165.026
164.003
162.955
161.872
160.739
159.602
158.388
157.186
155.875
154.595
153.154
151.831
150.182
148.551
146.545
144.667
142.836
141.212
139.588
138.027
159.411
158.555
157.673
156.769
155.846
154.896
153.932
152.939
151.926
150.899
149.784
148.674
147.515
146.345
145.167
143.915
142.611
141.467
140.102
138.919
152.579
151.901
151.2
150.488
149.747
149.002
148.222
147.452
146.604
145.789
144.824
143.846
142.667
141.636
140.586
139.583
138.651
137.743
136.78
135.826
149.94
149.345
148.744
148.131
147.511
146.878
146.236
145.583
144.924
144.253
143.574
142.884
142.176
141.433
140.696
139.969
139.177
138.421
137.619
136.901
147.205
146.723
146.223
145.713
145.166
144.563
143.936
143.332
142.745
142.165
141.583
140.969
140.376
139.775
139.161
138.536
137.906
137.253
136.572
135.904
146.26
145.827
145.388
144.94
144.487
144.027
143.561
143.083
142.598
142.106
141.608
141.103
140.595
140.077
139.554
139.028
138.498
137.971
137.448
136.912
145.532
145.185
144.832
144.471
144.103
143.726
143.344
142.954
142.56
142.155
141.749
141.33
140.913
140.478
140.049
139.599
139.15
138.692
138.239
137.777
145.836
145.514
145.187
144.856
144.521
144.182
143.839
143.492
143.142
142.787
142.43
142.067
141.704
141.333
140.964
140.585
140.21
139.821
139.44
139.041
145.867
145.594
145.319
145.041
144.761
144.479
144.196
143.909
143.621
143.327
143.035
142.735
142.437
142.131
141.83
141.517
141.212
140.893
140.586
140.26
146.507
146.261
146.013
145.757
145.508
145.261
145.005
144.739
144.472
144.205
143.937
143.669
143.401
143.132
142.864
142.592
142.325
142.049
141.782
141.503
146.782
146.583
146.399
146.218
146.024
145.822
145.632
145.448
145.263
145.069
144.87
144.663
144.454
144.235
144.015
143.782
143.553
143.317
143.092
142.856
147.714
147.487
147.26
147.033
146.805
146.578
146.35
146.119
145.888
145.664
145.446
145.231
145.022
144.817
144.621
144.429
144.246
144.058
143.875
143.687
148.112
147.916
147.721
147.528
147.337
147.147
146.96
146.775
146.592
146.412
146.234
146.059
145.885
145.713
145.544
145.375
145.21
145.043
144.881
144.716
148.521
148.339
148.158
147.978
147.801
147.626
147.452
147.281
147.111
146.944
146.779
146.616
146.455
146.297
146.142
145.988
145.839
145.691
145.547
145.405
148.83
148.653
148.478
148.306
148.135
147.967
147.8
147.636
147.474
147.315
147.158
147.003
146.851
146.702
146.555
146.411
146.269
146.13
145.993
145.859
148.987
148.814
148.643
148.475
148.309
148.144
147.982
147.823
147.666
147.511
147.358
147.208
147.061
146.916
146.774
146.634
146.497
146.363
146.232
146.104
173.56
172.152
168.152
164.535
161.293
157.83
154.179
150.299
146.088
141.469
136.425
130.821
124.674
117.8
110.293
101.81
92.4284
82.3647
69.5078
63.3078
183.229
182.882
180.68
178.37
175.816
172.976
169.838
166.362
162.516
158.273
153.614
148.45
142.766
136.439
129.497
121.673
113.097
103.548
91.8627
85.7112
194.47
194.513
192.573
190.539
188.418
185.996
183.337
180.433
177.222
173.661
169.725
165.308
160.423
154.906
148.846
141.886
134.303
125.636
115.324
108.708
206.375
206.752
205.314
203.922
202.365
200.537
198.469
196.12
193.429
190.389
186.967
183.112
178.781
173.887
168.444
162.203
155.447
147.555
138.633
132.702
218.05
218.517
217.347
216.219
214.999
213.543
211.868
209.978
207.822
205.378
202.597
199.41
195.804
191.669
187.035
181.651
175.739
168.727
160.872
156.158
228.664
229.515
228.93
228.352
227.713
226.864
225.819
224.558
223.02
221.187
219.011
216.469
213.5
210.029
206.034
201.311
196.051
189.681
182.407
178.384
239.729
240.774
240.478
240.215
239.892
239.408
238.747
237.908
236.835
235.537
233.939
232.013
229.695
226.93
223.669
219.755
215.269
209.749
203.034
199.058
248.819
250.209
250.517
250.824
251.103
251.236
251.211
251.025
250.608
249.96
249.009
247.765
246.14
244.099
241.582
238.453
234.825
230.19
224.596
220.041
258.563
260.305
261.032
261.723
262.369
262.855
263.184
263.36
263.338
263.138
262.686
261.979
260.93
259.566
257.75
255.482
252.673
249.022
244.752
240.122
266.656
268.625
269.747
270.86
271.934
272.896
273.733
274.462
275.018
275.423
275.58
275.532
275.182
274.55
273.513
272.079
270.135
267.58
264.398
260.325
275.141
277.336
278.713
280.11
281.495
282.775
283.96
285.029
285.954
286.736
287.336
287.759
287.912
287.843
287.382
286.639
285.352
283.673
281.292
278.194
281.723
284.018
285.742
287.491
289.228
290.905
292.48
293.991
295.362
296.641
297.739
298.692
299.397
299.886
300.037
299.89
299.3
298.339
296.725
294.38
288.056
290.622
292.572
294.571
296.572
298.492
300.347
302.133
303.814
305.403
306.836
308.139
309.223
310.131
310.705
311.055
310.924
310.512
309.419
307.666
292.848
295.418
297.612
299.86
302.102
304.312
306.466
308.582
310.611
312.575
314.389
316.119
317.62
318.987
319.996
320.841
321.18
321.333
320.703
319.547
296.765
299.611
302.028
304.507
306.987
309.428
311.819
314.173
316.446
318.641
320.725
322.684
324.467
326.073
327.401
328.534
329.223
329.721
329.468
328.92
299.732
302.615
305.125
307.733
310.368
312.965
315.551
318.093
320.579
323.001
325.316
327.524
329.553
331.422
333.027
334.468
335.462
336.36
336.488
336.56
301.33
304.313
306.946
309.697
312.453
315.205
317.915
320.618
323.239
325.826
328.274
330.661
332.832
334.908
336.729
338.372
339.688
340.756
341.381
341.548
301.731
304.815
307.537
310.371
313.245
316.081
318.913
321.704
324.453
327.135
329.74
332.238
334.604
336.842
338.873
340.732
342.238
343.573
344.374
344.595
300.979
304.012
306.754
309.626
312.529
315.418
318.305
321.17
324.004
326.796
329.503
332.148
334.634
337.057
339.199
341.252
342.853
344.277
345.039
345.545
298.729
301.842
304.688
307.631
310.593
313.54
316.475
319.384
322.261
325.065
327.807
330.417
332.945
335.271
337.469
339.353
341.08
342.362
343.386
343.704
14.895
12.609
10.1947
7.82855
5.49396
3.1894
0.861295
-1.54601
-3.79563
-6.33567
-8.85891
-10.9
-13.2725
-15.8246
-17.5835
-19.4748
-19.3521
-18.7145
-19.1378
-19.3776
19.624
17.2311
14.8018
12.3886
9.8962
7.37892
4.94035
2.37642
-0.114063
-2.72653
-5.38982
-8.12707
-10.3814
-13.1538
-15.7969
-16.9911
-16.4839
-18.166
-17.4099
-18.0697
24.1608
21.6607
19.1258
16.5168
13.9358
11.2297
8.58809
5.82029
3.12135
0.327686
-2.53088
-5.46726
-8.45441
-10.6535
-13.0215
-15.0637
-17.0156
-17.1886
-16.3741
-16.8143
28.565
25.9229
23.2862
20.5159
17.7858
14.9052
12.0883
9.1021
6.18457
3.14807
0.188612
-2.94781
-6.14039
-8.97902
-11.8714
-14.703
-16.801
-15.2232
-15.5174
-15.6159
32.7378
29.9285
27.1704
24.2602
21.3607
18.227
15.1843
11.9722
8.75784
5.4974
2.14864
-1.21115
-4.64902
-8.00338
-10.8721
-13.5579
-15.2554
-15.7124
-16.7237
-16.5314
37.0921
34.1405
31.2449
28.1045
25.021
21.6644
18.3391
14.8249
11.2954
7.62541
3.93062
0.145884
-3.77383
-7.47559
-11.2785
-14.7873
-17.6429
-20.0669
-19.529
-20.189
41.3549
38.2173
35.1793
31.8083
28.5068
24.8775
21.2414
17.4048
13.4365
9.35865
5.08981
0.735182
-3.74645
-8.38698
-12.9818
-17.5126
-21.7729
-25.5747
-25.687
-26.8587
45.9626
42.7126
39.5768
36.0003
32.4903
28.6179
24.6412
20.422
16.0328
11.393
6.54496
1.45301
-3.96976
-9.64669
-15.5156
-21.8585
-28.1237
-33.8546
-36.7644
-37.5146
51.086
47.6595
44.3833
40.5582
36.8045
32.6592
28.3494
23.7764
18.9143
13.7947
8.32849
2.54245
-3.69836
-10.2679
-17.4482
-25.1951
-33.338
-41.6441
-47.7612
-48.6964
57.124
53.4071
50.0281
45.9865
41.9863
37.6253
33.0049
28.0935
22.8735
17.2823
11.3082
4.89881
-2.05319
-9.5274
-17.7802
-26.6356
-36.2659
-46.4327
-55.1464
-55.5044
63.853
59.7831
56.318
52.0985
47.9045
43.3507
38.4875
33.3168
27.753
21.7966
15.3811
8.47953
0.939376
-7.17957
-16.1174
-25.846
-36.4114
-48.1925
-58.138
-60.7711
71.121
66.8003
63.282
59.0612
54.7127
50.0915
45.0807
39.7387
34.0053
27.8164
21.1351
13.9094
5.99145
-2.56689
-12.0551
-22.3832
-33.7212
-46.4177
-57.1543
-60.5238
79.1724
74.697
71.1604
66.9685
62.5487
57.8905
52.816
47.3825
41.5182
35.1746
28.3196
20.875
12.7345
3.93317
-5.85164
-16.3579
-27.9849
-40.9599
-53.381
-55.725
87.1842
82.711
79.36
75.4002
71.0596
66.5294
61.5497
56.1718
50.3542
44.0075
37.1057
29.5831
21.3208
12.3228
2.28815
-8.37248
-20.5847
-33.7775
-46.3106
-50.2265
96.6451
92.1892
88.978
85.3181
81.0989
76.6893
71.8251
66.5236
60.7653
54.4577
47.6028
40.0883
31.8378
22.7816
12.7394
1.99135
-10.7309
-23.2027
-35.982
-40.8962
106.051
101.821
98.9276
95.6176
91.69
87.5176
82.9057
77.8339
72.2902
66.18
59.4885
52.1338
44.0163
35.1
25.2402
14.4221
2.16148
-10.6556
-23.3936
-28.4578
116.513
112.827
110.345
107.476
103.864
99.9654
95.6107
90.7587
85.4267
79.5225
73.0674
65.9287
58.0669
49.4043
39.7725
29.3421
17.4643
4.7118
-8.81508
-14.1196
127.023
123.868
121.912
119.519
116.351
112.792
108.787
104.273
99.2601
93.6764
87.5267
80.7057
73.186
64.8669
55.704
45.6757
34.2236
22.2856
8.59487
3.14409
142.561
139.098
136.752
134.624
131.555
128.038
124.139
119.769
114.921
109.544
103.655
97.1171
89.931
81.9632
73.1868
63.5227
52.6542
41.1052
27.3159
21.5861
164.898
161.151
156.111
152.636
148.856
144.723
140.435
135.888
131.021
125.749
120.057
113.81
106.997
99.4725
91.2434
82.1659
71.8704
61.0132
47.7065
41.7275
101.974
102.449
101.292
100.717
98.8858
97.3447
96.1234
94.5328
93.2334
91.456
89.7632
87.6474
84.8624
82.2598
77.3027
73.4491
64.676
57.2589
42.3833
26.5158
102.328
102.795
101.803
101.309
99.72
98.2384
97.1944
95.7015
94.5342
92.8318
91.2705
89.2725
86.7156
84.2895
79.5328
76.0928
67.4982
60.5715
46.068
31.4869
102.684
103.188
102.444
101.86
100.546
99.132
98.2716
96.8958
95.8765
94.289
92.9096
90.9736
88.5486
86.2756
81.674
78.5304
70.1921
63.8652
49.627
36.3663
102.973
103.474
102.982
102.358
101.351
99.9904
99.318
98.0421
97.1539
95.641
94.3984
92.5751
90.3982
88.2744
83.8992
81.1827
72.9133
67.2753
53.3955
41.1068
103.253
103.82
103.531
102.819
102.145
100.852
100.363
99.2184
98.4654
97.0585
95.9982
94.2135
92.2013
90.2851
86.0772
83.7023
75.8175
70.5646
57.0707
45.8088
103.474
104.068
103.979
103.27
102.919
101.692
101.382
100.36
99.7237
98.3926
97.471
95.7927
94.0302
92.2258
88.2961
86.3027
78.7182
74.1508
60.9507
50.5539
103.675
104.266
104.402
103.715
103.679
102.541
102.406
101.521
101.007
99.7735
99.0291
97.3649
95.8171
94.2246
90.504
88.9184
81.7096
78.2088
64.8396
55.2912
103.829
104.447
104.81
104.153
104.427
103.38
103.412
102.66
102.25
101.093
100.484
98.9138
97.6135
96.1231
92.7473
91.5315
84.6269
81.8623
68.9733
59.8799
103.966
104.585
105.207
104.582
105.163
104.234
104.422
103.814
103.509
102.441
101.998
100.429
99.3805
98.0836
95.0115
94.1323
87.7853
85.5055
73.0896
65.2659
104.085
104.726
105.628
105.006
105.898
105.092
105.422
104.955
104.741
103.746
103.428
101.928
101.137
99.9556
97.2757
96.7433
90.8571
89.1014
77.5805
71.8879
104.202
104.836
106.05
105.418
106.623
105.972
106.426
106.107
105.979
105.064
104.894
103.381
102.875
101.879
99.5968
99.3919
94.1971
92.835
82.0841
78.554
104.301
104.919
106.51
105.828
107.353
106.867
107.43
107.254
107.199
106.355
106.289
104.818
104.584
103.726
101.882
102.032
97.4156
96.549
87.0492
84.9885
104.41
104.99
106.993
106.227
108.076
107.789
108.441
108.409
108.421
107.645
107.698
106.202
106.286
105.621
104.265
104.773
100.947
100.384
92.0422
91.3254
104.51
105.047
107.551
106.612
108.845
108.738
109.465
109.566
109.635
108.922
109.047
107.569
107.95
107.454
106.591
107.492
104.308
104.253
97.5311
98.3136
104.62
105.109
108.135
106.975
109.608
109.704
110.491
110.722
110.832
110.175
110.37
108.857
109.575
109.309
109.015
110.333
107.946
108.236
103.071
105.516
104.715
105.109
108.67
107.384
110.32
110.688
111.538
111.881
112.028
111.42
111.643
110.126
111.176
111.136
111.394
113.145
111.449
112.293
109.255
113.578
104.892
105.066
109.25
107.831
111.289
111.731
112.642
113.08
113.279
112.724
112.986
111.425
112.95
113.121
114.037
116.292
115.385
116.596
115.552
121.107
105.041
105.002
110.26
108.338
112.421
112.781
113.707
114.26
114.443
113.921
114.107
112.538
114.372
114.857
116.427
119.256
118.83
120.53
121.597
127.798
104.571
104.471
110.703
108.767
112.902
113.663
114.53
115.224
115.25
114.661
114.624
113.183
115.218
116.072
118.441
121.977
122.129
125.036
128.414
138.072
105.606
103.332
111.027
109.341
114.052
114.842
116.065
116.581
117.008
116.466
116.726
115.756
117.896
119.377
122.26
125.749
127.586
131.595
138.352
153.614
129.544
108.251
124.046
119.01
126.652
124.113
128.824
128.317
132.413
133.99
138.27
142.567
145.586
147.363
151.37
151.501
159.609
160.375
177.211
179.1
127.028
124.304
127.391
126.732
129.691
130.097
133.062
134.278
137.597
139.904
143.998
147.315
152.211
156.415
162.439
167.755
176.137
183.251
195.143
206.379
135.94
135.518
136.292
136.793
138.744
139.963
142.134
143.836
146.55
148.883
151.68
154.683
158.168
161.313
165.409
169.62
174.923
180.327
187.729
196.266
138.106
138.259
138.865
139.759
141.086
142.583
144.484
146.5
149.004
151.437
154.628
157.465
160.887
164.598
168.646
173.007
177.386
182.792
186.926
191.645
140.742
141.095
141.738
143.082
144.362
145.809
147.44
149.045
150.966
152.805
154.864
156.878
159.182
161.5
163.803
166.618
168.812
171.968
174.665
178.87
141.415
141.5
142.325
143.639
145.037
146.584
148.225
149.935
151.821
153.633
155.732
157.749
159.842
162.233
163.947
166.917
168.315
170.855
171.321
172.05
140.964
141.592
142.492
144.18
145.6
147.015
148.488
149.79
151.266
152.513
153.863
155.019
156.224
157.283
158.475
159.49
160.882
161.79
162.744
163.841
141.28
141.85
142.88
144.513
145.919
147.402
148.879
150.191
151.626
152.757
154.142
155.166
156.35
157.223
158.138
158.822
159.705
160.355
159.98
159.907
140.053
141.463
142.617
144.314
146.086
147.311
148.859
149.798
151.058
151.843
152.818
153.426
154.106
154.589
155.289
155.479
155.573
155.34
155.368
155.35
140.511
141.231
143.527
144.912
147
148.114
149.638
150.446
151.656
152.218
153.187
153.481
154.167
154.337
154.586
154.595
154.726
154.589
154.275
153.722
142.25
142.949
145.593
146.666
148.799
149.618
151.005
151.56
152.486
152.821
153.369
153.516
153.779
153.77
154.201
153.773
153.617
152.856
152.47
152.02
145.119
145.116
149.626
149.847
151.69
152.07
153.062
153.202
153.832
153.781
154.187
154.006
154.156
153.883
153.802
153.338
153.054
152.746
152.275
151.594
156.448
154.584
155.514
155.162
155.952
155.952
156.194
156.145
156.161
156.002
155.884
155.603
155.414
154.992
154.471
154.069
153.565
152.694
151.974
150.93
166.101
164.281
162.024
161.854
160.437
160.131
159.241
158.766
158.162
157.531
157.059
156.341
155.899
155.152
154.729
153.977
153.41
152.76
152.129
151.439
172.075
171.265
167.511
166.369
164.763
163.224
162.465
161.03
160.545
159.365
158.901
157.933
157.392
156.542
155.863
155.073
154.375
153.467
152.697
151.753
175.958
173.239
171.461
168.857
167.694
165.767
164.744
163.219
162.289
161.004
160.166
159.023
158.242
157.179
156.424
155.44
154.665
153.783
153.034
152.222
185.017
173.554
172.503
169.878
168.645
166.722
165.546
164.042
162.965
161.711
160.751
159.649
158.775
157.783
156.95
156.012
155.189
154.313
153.506
152.639
177.919
174.528
173.397
170.853
169.88
167.91
166.836
165.232
164.163
162.783
161.745
160.533
159.542
158.455
157.521
156.533
155.643
154.68
153.825
152.929
180.478
172.822
172.284
170.666
169.495
167.973
166.795
165.366
164.272
162.95
161.933
160.72
159.763
158.649
157.74
156.715
155.849
154.911
154.059
153.186
176.714
174.262
173.294
171.344
170.168
168.53
167.302
165.877
164.672
163.403
162.253
161.103
160.022
158.964
157.951
156.969