/*--------------------------------*- C++ -*----------------------------------*\
  =========                 |
  \\      /  F ield         | OpenFOAM: The Open Source CFD Toolbox
   \\    /   O peration     | Website:  https://openfoam.org
    \\  /    A nd           | Version:  9
     \\/     M anipulation  |
\*---------------------------------------------------------------------------*/
FoamFile
{
    format      ascii;
    class       surfaceScalarField;
    location    "6.08";
    object      phi;
}
// * * * * * * * * * * * * * * * * * * * * * * * * * * * * * * * * * * * * * //

dimensions      [0 3 -1 0 0 0 0];

internalField   nonuniform List<scalar> 
92080
(
-0.00699566
-0.520108
0.527104
-0.0354945
-1.01045
1.03895
-0.0788855
-1.08363
1.12702
-0.123635
-1.06323
1.10798
-0.168482
-1.04552
1.09037
-0.212761
-1.02834
1.07262
-0.256058
-1.01168
1.05497
-0.298618
-0.99561
1.03817
-0.341249
-0.980248
1.02288
-0.383359
-0.967078
1.00919
-0.424622
-0.955121
0.996383
-0.465593
-0.942494
0.983465
-0.505952
-0.932689
0.973048
-0.545371
-0.921444
0.960863
-0.584686
-0.910562
0.949876
-0.623479
-0.900704
0.939498
-0.661338
-0.891131
0.92899
-0.699593
-0.880282
0.918537
-0.737786
-0.87022
0.908413
-0.864413
0.898272
-0.771645
-0.00737008
-0.512738
-0.0392231
-0.978595
-0.0869674
-1.03588
-0.134201
-1.016
-0.180154
-0.999572
-0.225307
-0.983188
-0.270042
-0.966942
-0.314074
-0.951578
-0.357027
-0.937295
-0.400555
-0.923549
-0.442646
-0.91303
-0.484511
-0.900628
-0.525774
-0.891426
-0.56545
-0.881768
-0.604348
-0.871664
-0.642505
-0.862548
-0.67936
-0.854277
-0.713717
-0.845924
-0.746117
-0.837821
-0.831288
-0.779242
-0.00796661
-0.504772
-0.0448213
-0.94174
-0.0922389
-0.988467
-0.140179
-0.968058
-0.187734
-0.952017
-0.234176
-0.936747
-0.279349
-0.921768
-0.324276
-0.906651
-0.368605
-0.892967
-0.412707
-0.879447
-0.456895
-0.868843
-0.499983
-0.857541
-0.543566
-0.847843
-0.585871
-0.839463
-0.627356
-0.830178
-0.668585
-0.821319
-0.709228
-0.813634
-0.749684
-0.805469
-0.788916
-0.798589
-0.793241
-0.826962
-0.00257376
-0.502198
-0.0442594
-0.900054
-0.0929986
-0.939728
-0.141779
-0.919278
-0.191172
-0.902624
-0.24012
-0.887798
-0.28804
-0.873849
-0.334599
-0.860092
-0.379952
-0.847614
-0.424922
-0.834477
-0.468984
-0.824781
-0.512475
-0.81405
-0.555636
-0.804682
-0.598623
-0.796476
-0.640403
-0.788398
-0.681862
-0.779859
-0.722779
-0.772717
-0.762598
-0.765649
-0.802693
-0.758494
-0.752886
-0.843049
0.000706249
-0.502904
-0.0434763
-0.855872
-0.0982247
-0.884979
-0.150459
-0.867043
-0.201146
-0.851937
-0.251134
-0.83781
-0.300109
-0.824874
-0.348723
-0.811478
-0.395788
-0.800549
-0.442722
-0.787543
-0.489646
-0.777857
-0.535178
-0.768518
-0.580574
-0.759286
-0.625043
-0.752006
-0.669023
-0.744418
-0.712226
-0.736657
-0.755667
-0.729276
-0.798221
-0.723095
-0.839935
-0.716781
-0.71145
-0.881371
0.00231882
-0.505223
-0.0427206
-0.810832
-0.0963575
-0.831342
-0.149311
-0.814089
-0.202414
-0.798834
-0.254594
-0.78563
-0.30532
-0.774147
-0.355406
-0.761393
-0.404114
-0.75184
-0.450813
-0.740844
-0.497947
-0.730723
-0.54422
-0.722245
-0.590773
-0.712734
-0.637106
-0.705673
-0.682309
-0.699215
-0.726648
-0.692318
-0.770956
-0.684967
-0.815194
-0.678857
-0.858845
-0.67313
-0.667691
-0.902603
0.00339712
-0.50862
-0.0452599
-0.762175
-0.104496
-0.772106
-0.159126
-0.75946
-0.212056
-0.745904
-0.265086
-0.732601
-0.317245
-0.721988
-0.368681
-0.709957
-0.420146
-0.700375
-0.469976
-0.691015
-0.518767
-0.681932
-0.566525
-0.674487
-0.612905
-0.666354
-0.6603
-0.658279
-0.707167
-0.652348
-0.75288
-0.646604
-0.797581
-0.640267
-0.842703
-0.633735
-0.887156
-0.628678
-0.623594
-0.931253
1.08751e-06
-0.508621
-0.0521131
-0.710061
-0.110574
-0.713645
-0.166862
-0.703172
-0.220921
-0.691845
-0.273488
-0.680034
-0.325276
-0.6702
-0.376399
-0.658833
-0.427462
-0.649312
-0.478291
-0.640185
-0.528832
-0.631391
-0.57932
-0.623999
-0.628387
-0.617286
-0.676478
-0.610188
-0.725098
-0.603728
-0.773131
-0.598571
-0.81977
-0.593628
-0.86545
-0.588054
-0.911624
-0.582504
-0.578276
-0.956943
-0.00949164
-0.49913
-0.0621154
-0.657437
-0.121041
-0.65472
-0.177696
-0.646517
-0.231916
-0.637624
-0.285072
-0.626878
-0.336777
-0.618496
-0.387228
-0.608382
-0.437573
-0.598967
-0.487398
-0.59036
-0.536894
-0.581894
-0.58636
-0.574533
-0.635747
-0.567899
-0.684452
-0.561483
-0.733106
-0.555073
-0.782003
-0.549674
-0.83082
-0.544811
-0.878108
-0.540767
-0.924705
-0.535907
-0.531213
-0.971768
-0.0193947
-0.479735
-0.0736528
-0.603179
-0.131842
-0.596531
-0.18907
-0.589288
-0.244751
-0.581944
-0.299107
-0.572522
-0.352722
-0.56488
-0.404126
-0.556978
-0.454715
-0.548377
-0.504738
-0.540338
-0.554384
-0.532248
-0.60382
-0.525097
-0.652876
-0.518843
-0.700938
-0.513422
-0.748528
-0.507484
-0.796275
-0.501927
-0.844191
-0.496895
-0.892587
-0.492371
-0.939598
-0.488895
-0.484928
-0.985883
-0.0271106
-0.452624
-0.0802351
-0.550055
-0.135496
-0.54127
-0.193417
-0.531367
-0.249713
-0.525648
-0.304112
-0.518123
-0.358825
-0.510167
-0.411689
-0.504114
-0.462895
-0.497172
-0.512581
-0.490652
-0.56165
-0.483179
-0.610496
-0.476251
-0.659881
-0.469458
-0.709231
-0.464072
-0.757254
-0.459461
-0.804738
-0.454443
-0.851784
-0.449849
-0.89903
-0.445125
-0.946876
-0.44105
-0.437378
-0.994426
-0.0360657
-0.416559
-0.0927203
-0.4934
-0.148794
-0.485196
-0.204908
-0.475254
-0.262392
-0.468164
-0.316886
-0.463629
-0.371327
-0.455725
-0.426117
-0.449324
-0.480319
-0.442969
-0.533045
-0.437926
-0.584166
-0.432058
-0.633756
-0.426661
-0.682435
-0.420779
-0.731657
-0.41485
-0.780932
-0.410186
-0.829598
-0.405777
-0.877365
-0.402083
-0.924424
-0.398066
-0.970785
-0.394689
-0.391027
-1.01714
-0.0415939
-0.374965
-0.0979908
-0.437003
-0.152444
-0.430743
-0.20546
-0.422237
-0.261319
-0.412306
-0.315849
-0.409099
-0.368334
-0.40324
-0.419881
-0.397778
-0.471856
-0.390994
-0.523778
-0.386005
-0.575191
-0.380645
-0.626068
-0.375784
-0.675413
-0.371434
-0.723969
-0.366294
-0.772385
-0.361769
-0.821264
-0.356898
-0.870172
-0.353175
-0.918985
-0.349252
-0.967532
-0.346142
-0.342942
-1.01562
-0.0474653
-0.3275
-0.107442
-0.377027
-0.166186
-0.371999
-0.221095
-0.367328
-0.275535
-0.357866
-0.333894
-0.350739
-0.390468
-0.346666
-0.444654
-0.343592
-0.497097
-0.338551
-0.548938
-0.334164
-0.599845
-0.329737
-0.650469
-0.32516
-0.700754
-0.321149
-0.750002
-0.317046
-0.798376
-0.313395
-0.845855
-0.309419
-0.893154
-0.305875
-0.940161
-0.302245
-0.987218
-0.299085
-0.295879
-1.03428
-0.0479684
-0.279531
-0.109804
-0.315191
-0.170626
-0.311177
-0.226482
-0.311472
-0.277652
-0.306696
-0.329047
-0.299345
-0.383252
-0.29246
-0.43814
-0.288704
-0.491891
-0.284799
-0.545418
-0.280637
-0.597707
-0.277449
-0.649429
-0.273439
-0.700175
-0.270403
-0.750754
-0.266467
-0.800635
-0.263515
-0.85006
-0.259994
-0.898868
-0.257068
-0.947103
-0.25401
-0.994989
-0.251199
-0.248457
-1.04241
-0.0475602
-0.231971
-0.106629
-0.256122
-0.168671
-0.249135
-0.233199
-0.246943
-0.291826
-0.24807
-0.346657
-0.244514
-0.399972
-0.239145
-0.453268
-0.235409
-0.506573
-0.231494
-0.559312
-0.227898
-0.611579
-0.225182
-0.663079
-0.221939
-0.713955
-0.219527
-0.763868
-0.216554
-0.8133
-0.214082
-0.862001
-0.211293
-0.910413
-0.208656
-0.958279
-0.206143
-1.0059
-0.203578
-0.201288
-1.05307
-0.0542647
-0.177706
-0.109274
-0.201112
-0.159688
-0.198721
-0.214772
-0.191859
-0.272257
-0.190585
-0.330377
-0.186394
-0.385979
-0.183544
-0.441042
-0.180345
-0.495762
-0.176775
-0.549898
-0.173761
-0.603688
-0.171392
-0.656553
-0.169075
-0.70951
-0.166569
-0.761268
-0.164796
-0.812893
-0.162457
-0.863339
-0.160847
-0.913291
-0.158704
-0.962246
-0.157188
-1.01065
-0.155173
-0.153726
-1.05821
-0.0593078
-0.118398
-0.12681
-0.13361
-0.187511
-0.13802
-0.245115
-0.134255
-0.304028
-0.131672
-0.360316
-0.130106
-0.415177
-0.128683
-0.468655
-0.126867
-0.521509
-0.12392
-0.572967
-0.122303
-0.623534
-0.120825
-0.673457
-0.119152
-0.722789
-0.117237
-0.77198
-0.115605
-0.820774
-0.113663
-0.869633
-0.111988
-0.918034
-0.110303
-0.966419
-0.108802
-1.0143
-0.107288
-0.106122
-1.06191
-0.0384431
-0.0799554
-0.0899358
-0.0821177
-0.152141
-0.0758151
-0.214163
-0.0722334
-0.274429
-0.0714059
-0.334766
-0.0697684
-0.392433
-0.0710153
-0.45013
-0.0691701
-0.505172
-0.068878
-0.558837
-0.0686393
-0.611925
-0.0677367
-0.66448
-0.0665963
-0.71648
-0.0652371
-0.767969
-0.0641167
-0.81857
-0.0630617
-0.86862
-0.0619381
-0.917634
-0.0612895
-0.966352
-0.0600842
-1.01425
-0.0593927
-0.0583246
-1.06204
-0.0529965
-0.0269588
-0.113536
-0.0215777
-0.171682
-0.0176698
-0.228093
-0.0158222
-0.283786
-0.0157129
-0.340152
-0.0134026
-0.396622
-0.0145451
-0.452529
-0.013263
-0.506632
-0.0147752
-0.560529
-0.0147422
-0.61389
-0.0143762
-0.66692
-0.0135661
-0.719094
-0.0130627
-0.770431
-0.0127798
-0.821279
-0.0122141
-0.871142
-0.012075
-0.92093
-0.0115017
-0.96993
-0.0110837
-1.01875
-0.0105688
-1.06714
-0.00994084
0.0416137
-0.275855
0.234242
0.115378
-0.845414
0.771649
0.173672
-1.34106
1.28276
0.19215
-1.51774
1.49926
0.195955
-1.52951
1.52571
0.194407
-1.51459
1.51614
0.192307
-1.49334
1.49544
0.190232
-1.47555
1.47762
0.188236
-1.45961
1.4616
0.184906
-1.44387
1.4472
0.181862
-1.42989
1.43294
0.178161
-1.41624
1.41994
0.173654
-1.40187
1.40638
0.169373
-1.38862
1.3929
0.164929
-1.37502
1.37946
0.160197
-1.35904
1.36377
0.154399
-1.34043
1.34623
0.148277
-1.31982
1.32595
0.142421
-1.30229
1.30815
-1.28511
0.137387
1.29014
0.0326412
-0.308497
0.0929613
-0.905734
0.141134
-1.38923
0.153035
-1.52964
0.154447
-1.53093
0.15207
-1.51222
0.149916
-1.49118
0.147095
-1.47273
0.143058
-1.45557
0.139772
-1.44059
0.135634
-1.42576
0.131004
-1.41161
0.126404
-1.39727
0.12135
-1.38356
0.11561
-1.36928
0.108891
-1.35232
0.101742
-1.33328
0.0948332
-1.31291
0.0882207
-1.29568
-1.27942
0.0825313
0.0360089
-0.344505
0.0900803
-0.959805
0.124389
-1.42354
0.130455
-1.5357
0.128511
-1.52898
0.123185
-1.50689
0.117675
-1.48567
0.111755
-1.46681
0.106395
-1.45021
0.0997199
-1.43391
0.0929551
-1.41899
0.0862553
-1.40491
0.0787952
-1.38981
0.0709202
-1.37569
0.0628528
-1.36121
0.0550214
-1.34449
0.0472077
-1.32547
0.0395031
-1.30521
0.0321696
-1.28834
-1.2726
0.0253551
0.0306067
-0.375112
0.0767732
-1.00597
0.10064
-1.4474
0.100077
-1.53514
0.0940346
-1.52294
0.087603
-1.50046
0.0812426
-1.47931
0.0745363
-1.4601
0.0665925
-1.44227
0.0591016
-1.42642
0.0512913
-1.41118
0.0426906
-1.39631
0.0340979
-1.38122
0.0256885
-1.36728
0.0171675
-1.35269
0.00830592
-1.33562
-0.000817125
-1.31634
-0.00988006
-1.29615
-0.0185539
-1.27967
-1.26431
-0.026844
0.0285067
-0.403619
0.0686534
-1.04612
0.0855858
-1.46434
0.0818199
-1.53137
0.0733755
-1.5145
0.0642054
-1.49129
0.0543324
-1.46944
0.0442048
-1.44997
0.0344869
-1.43255
0.0241869
-1.41612
0.0135928
-1.40059
0.00339854
-1.38611
-0.00708623
-1.37073
-0.0180725
-1.35629
-0.029128
-1.34163
-0.0398886
-1.32486
-0.0501698
-1.30606
-0.0600227
-1.28629
-0.069864
-1.26983
-1.25475
-0.0794219
0.0242562
-0.427875
0.0572828
-1.07915
0.065673
-1.47273
0.0568835
-1.52258
0.0453159
-1.50293
0.0341066
-1.48008
0.0229737
-1.45831
0.0116003
-1.4386
-0.000220238
-1.42073
-0.0121612
-1.40418
-0.0240727
-1.38868
-0.036572
-1.37362
-0.0492328
-1.35807
-0.061572
-1.34395
-0.073714
-1.32949
-0.0855085
-1.31307
-0.0972203
-1.29435
-0.108814
-1.2747
-0.120244
-1.2584
-1.24343
-0.131567
0.0218744
-0.449749
0.0483874
-1.10566
0.0501674
-1.47451
0.038606
-1.51102
0.0250294
-1.48935
0.0115326
-1.46658
-0.00240223
-1.44437
-0.016359
-1.42464
-0.0306573
-1.40643
-0.044825
-1.39001
-0.0591854
-1.37432
-0.0731909
-1.35961
-0.087108
-1.34415
-0.101286
-1.32978
-0.11531
-1.31547
-0.129097
-1.29928
-0.142225
-1.28122
-0.155023
-1.2619
-0.16798
-1.24544
-1.23053
-0.180879
0.0183746
-0.468124
0.040102
-1.12739
0.0375052
-1.47191
0.022677
-1.49619
0.00622391
-1.4729
-0.0101626
-1.4502
-0.0264655
-1.42807
-0.0429937
-1.40812
-0.0590633
-1.39036
-0.0756565
-1.37342
-0.0921306
-1.35784
-0.108599
-1.34314
-0.12516
-1.32759
-0.1415
-1.31344
-0.157578
-1.29939
-0.172945
-1.28391
-0.187822
-1.26635
-0.2026
-1.24712
-0.217576
-1.23047
-1.21544
-0.232667
0.0161569
-0.484281
0.0309061
-1.14213
0.0203737
-1.46138
0.00177135
-1.47759
-0.0169168
-1.45421
-0.0351347
-1.43198
-0.0533618
-1.40984
-0.0713482
-1.39013
-0.0901054
-1.3716
-0.108276
-1.35525
-0.126575
-1.33954
-0.144856
-1.32486
-0.162872
-1.30958
-0.180841
-1.29547
-0.198469
-1.28176
-0.21585
-1.26653
-0.232477
-1.24972
-0.248774
-1.23083
-0.265307
-1.21393
-1.19879
-0.281955
0.0138867
-0.498168
0.0254781
-1.15373
0.0135113
-1.44941
-0.00701968
-1.45706
-0.028184
-1.43305
-0.049543
-1.41062
-0.0708902
-1.3885
-0.0924015
-1.36862
-0.113086
-1.35092
-0.134412
-1.33392
-0.155484
-1.31847
-0.176018
-1.30433
-0.196544
-1.28905
-0.217032
-1.27498
-0.237238
-1.26156
-0.256767
-1.247
-0.275571
-1.23092
-0.293983
-1.21242
-0.31263
-1.19529
-1.18028
-0.331146
0.0111798
-0.509347
0.0164859
-1.15903
-0.00232726
-1.4306
-0.0271272
-1.43226
-0.0514623
-1.40871
-0.0748974
-1.38719
-0.0978843
-1.36551
-0.120479
-1.34602
-0.143637
-1.32776
-0.166159
-1.3114
-0.18883
-1.2958
-0.211575
-1.28158
-0.233863
-1.26676
-0.255906
-1.25294
-0.277624
-1.23984
-0.29898
-1.22565
-0.319617
-1.21028
-0.339822
-1.19221
-0.360125
-1.17499
-1.16003
-0.380367
0.00969452
-0.519042
0.011147
-1.16048
-0.00942055
-1.41003
-0.0348015
-1.40688
-0.0608945
-1.38262
-0.0870305
-1.36105
-0.113206
-1.33933
-0.139247
-1.31998
-0.164587
-1.30242
-0.190285
-1.2857
-0.21581
-1.27027
-0.240684
-1.25671
-0.265388
-1.24206
-0.290016
-1.22831
-0.31418
-1.21567
-0.337805
-1.20202
-0.360379
-1.18771
-0.382275
-1.17031
-0.404284
-1.15298
-1.13822
-0.426101
0.00699739
-0.526039
0.00435287
-1.15784
-0.0222644
-1.38341
-0.0520147
-1.37713
-0.0809888
-1.35364
-0.109248
-1.33279
-0.136886
-1.3117
-0.164467
-1.2924
-0.191952
-1.27494
-0.218918
-1.25874
-0.245982
-1.24321
-0.273099
-1.22959
-0.299721
-1.21544
-0.326188
-1.20184
-0.352387
-1.18947
-0.378131
-1.17628
-0.403141
-1.1627
-0.427119
-1.14634
-0.450924
-1.12917
-1.11471
-0.474431
0.00562272
-0.531662
-0.000717738
-1.1515
-0.0289524
-1.35518
-0.0604362
-1.34565
-0.0918163
-1.32226
-0.123047
-1.30156
-0.153898
-1.28084
-0.184125
-1.26217
-0.214212
-1.24485
-0.244
-1.22895
-0.273713
-1.2135
-0.302951
-1.20035
-0.331662
-1.18673
-0.360171
-1.17333
-0.388192
-1.16145
-0.415853
-1.14862
-0.442477
-1.13607
-0.468084
-1.12073
-0.49334
-1.10391
-1.08963
-0.518419
0.00340172
-0.535064
-0.00666488
-1.14143
-0.0379286
-1.32391
-0.0719381
-1.31164
-0.105269
-1.28893
-0.138219
-1.26861
-0.170754
-1.24831
-0.203423
-1.22951
-0.235271
-1.213
-0.266848
-1.19737
-0.298165
-1.18218
-0.329653
-1.16887
-0.360742
-1.15564
-0.39152
-1.14255
-0.421822
-1.13115
-0.451658
-1.11878
-0.48083
-1.1069
-0.508558
-1.093
-0.535568
-1.0769
-1.06296
-0.562237
0.00132863
-0.536392
-0.013742
-1.12636
-0.049056
-1.2886
-0.0860825
-1.27461
-0.122049
-1.25297
-0.157579
-1.23308
-0.19235
-1.21354
-0.22643
-1.19542
-0.260975
-1.17846
-0.294623
-1.16372
-0.328128
-1.14867
-0.361211
-1.13578
-0.393798
-1.12305
-0.426365
-1.10999
-0.458323
-1.09919
-0.489778
-1.08733
-0.52061
-1.07607
-0.550259
-1.06335
-0.578857
-1.0483
-1.03473
-0.607091
0.000515863
-0.536908
-0.0166568
-1.10919
-0.051617
-1.25364
-0.0893737
-1.23685
-0.126855
-1.21548
-0.164327
-1.19561
-0.201624
-1.17624
-0.238702
-1.15835
-0.274732
-1.14243
-0.310884
-1.12757
-0.346446
-1.11311
-0.382154
-1.10008
-0.417297
-1.08791
-0.452312
-1.07497
-0.486984
-1.06452
-0.520889
-1.05342
-0.554026
-1.04293
-0.585734
-1.03164
-0.615996
-1.01804
-1.00499
-0.645737
-0.00240676
-0.534502
-0.0232507
-1.08835
-0.0648434
-1.21205
-0.1068
-1.1949
-0.146972
-1.17531
-0.186222
-1.15636
-0.224665
-1.1378
-0.262818
-1.12019
-0.301254
-1.10399
-0.33852
-1.09031
-0.375488
-1.07614
-0.412203
-1.06336
-0.448383
-1.05173
-0.484721
-1.03863
-0.521058
-1.02818
-0.557114
-1.01737
-0.592883
-1.00716
-0.627448
-0.99708
-0.660113
-0.985378
-0.972815
-0.692285
-0.00313488
-0.531367
-0.0263623
-1.06512
-0.0655886
-1.17282
-0.10689
-1.1536
-0.148248
-1.13395
-0.18961
-1.115
-0.230639
-1.09677
-0.271026
-1.07981
-0.311096
-1.06392
-0.351424
-1.04998
-0.390814
-1.03675
-0.430263
-1.02391
-0.468831
-1.01316
-0.507015
-1.00045
-0.545476
-0.989723
-0.583604
-0.979239
-0.621879
-0.968888
-0.659679
-0.95928
-0.695681
-0.949375
-0.938106
-0.730391
-0.00426255
-0.0304345
-0.0762364
-0.121851
-0.165434
-0.207811
-0.249605
-0.291243
-0.332287
-0.373076
-0.413446
-0.453892
-0.494003
-0.533589
-0.573435
-0.613176
-0.653074
-0.693816
-0.734778
-0.774613
0.0858807
-11.1561
11.2076
0.0565662
-10.4772
10.5065
0.0302014
-10.1904
10.2167
0.018308
-9.78242
9.79431
0.00715015
-9.65197
9.66313
0.000880444
-9.37166
9.37793
-0.00502661
-9.2267
9.23261
-0.00707516
-9.03188
9.03393
-0.00900321
-8.92107
8.92299
-0.00798388
-8.80111
8.8001
-0.00426735
-8.7316
8.72789
0.000437741
-8.64532
8.64061
0.00768448
-8.59222
8.58497
0.0119402
-8.56604
8.56179
0.0176779
-8.50922
8.50349
0.0248659
-8.45106
8.44387
0.0257954
-8.29564
8.29472
0.0217053
-7.32262
7.32671
0.0123792
-5.34506
5.35439
-2.24324
2.25562
0.0249641
-11.0985
-0.00358945
-10.4486
-0.0303227
-10.1636
-0.0431982
-9.76954
-0.0522845
-9.64289
-0.0556789
-9.36827
-0.0594795
-9.2229
-0.0588689
-9.03249
-0.0572108
-8.92272
-0.0525574
-8.80577
-0.0450241
-8.73914
-0.0360066
-8.65434
-0.0243296
-8.6039
-0.0154484
-8.57492
-0.00447142
-8.5202
0.00760228
-8.46313
0.0136427
-8.30168
0.0155438
-7.32452
0.0109852
-5.3405
-2.23225
-0.0359668
-11.0372
-0.0691894
-10.4154
-0.0968369
-10.136
-0.108799
-9.75758
-0.116439
-9.63525
-0.116767
-9.36794
-0.116481
-9.22319
-0.111486
-9.03749
-0.105207
-8.929
-0.0969237
-8.81405
-0.085774
-8.75029
-0.0727599
-8.66735
-0.0566383
-8.62002
-0.0431165
-8.58845
-0.02708
-8.53624
-0.0104955
-8.47972
0.000761034
-8.31294
0.00887017
-7.33263
0.0100072
-5.34164
-2.22224
-0.0994772
-10.9646
-0.137173
-10.3777
-0.163456
-10.1097
-0.172495
-9.74854
-0.17663
-9.63111
-0.17381
-9.37076
-0.171322
-9.22568
-0.16367
-9.04514
-0.153549
-8.93912
-0.141189
-8.82641
-0.125977
-8.7655
-0.108852
-8.68448
-0.0885536
-8.64031
-0.0706716
-8.60633
-0.0496315
-8.55728
-0.0285474
-8.5008
-0.0119383
-8.32955
0.00193095
-7.3465
0.00798878
-5.3477
-2.21426
-0.156233
-10.8877
-0.197875
-10.3361
-0.226629
-10.0809
-0.236674
-9.7385
-0.240443
-9.62735
-0.234662
-9.37654
-0.22782
-9.23252
-0.21575
-9.05721
-0.201107
-8.95377
-0.185207
-8.84231
-0.166522
-8.78418
-0.14537
-8.70563
-0.120792
-8.66489
-0.0984187
-8.6287
-0.0725967
-8.5831
-0.046888
-8.52651
-0.0244905
-8.35195
-0.00489955
-7.36609
0.00674829
-5.35935
-2.20751
-0.219778
-10.7995
-0.267218
-10.2886
-0.295208
-10.0529
-0.300543
-9.73316
-0.30072
-9.62717
-0.292169
-9.38509
-0.282751
-9.24194
-0.267712
-9.07225
-0.248933
-8.97255
-0.228717
-8.86253
-0.205901
-8.807
-0.180848
-8.73068
-0.152418
-8.69332
-0.125831
-8.65529
-0.0953527
-8.61358
-0.0651476
-8.55672
-0.0369156
-8.38018
-0.0113872
-7.39162
0.00505895
-5.37579
-2.20245
-0.278085
-10.7023
-0.329386
-10.2373
-0.357875
-10.0245
-0.363329
-9.72771
-0.3629
-9.6276
-0.352093
-9.3959
-0.338247
-9.25578
-0.318881
-9.09161
-0.295963
-8.99546
-0.272174
-8.88632
-0.245865
-8.83331
-0.216913
-8.75963
-0.184486
-8.72575
-0.153519
-8.68626
-0.118373
-8.64872
-0.0835956
-8.59149
-0.0492408
-8.41453
-0.0178143
-7.42304
0.00377788
-5.39739
-2.19867
-0.336436
-10.5986
-0.392492
-10.1813
-0.423559
-9.99339
-0.426343
-9.72492
-0.422504
-9.63144
-0.409171
-9.40923
-0.39262
-9.27234
-0.370201
-9.11403
-0.343059
-9.02261
-0.314884
-8.91449
-0.284504
-8.86369
-0.251892
-8.79224
-0.21586
-8.76178
-0.180736
-8.72138
-0.141038
-8.68842
-0.1019
-8.63063
-0.0615953
-8.45484
-0.0242666
-7.46037
0.00223222
-5.42388
-2.19644
-0.398129
-10.4824
-0.456514
-10.1229
-0.485184
-9.96472
-0.487332
-9.72278
-0.483238
-9.63553
-0.46791
-9.42456
-0.446726
-9.29352
-0.420159
-9.1406
-0.389258
-9.05351
-0.357588
-8.94616
-0.323733
-8.89754
-0.287311
-8.82867
-0.247388
-8.80171
-0.208036
-8.76073
-0.163999
-8.73246
-0.120566
-8.67406
-0.0740325
-8.50137
-0.0308321
-7.50357
0.000652202
-5.45537
-2.19579
-0.451974
-10.3616
-0.514865
-10.06
-0.547526
-9.93206
-0.547991
-9.72231
-0.540699
-9.64282
-0.523368
-9.44189
-0.499904
-9.31698
-0.470322
-9.17018
-0.435317
-9.08851
-0.399385
-8.98209
-0.361609
-8.93532
-0.321622
-8.86865
-0.278295
-8.84503
-0.234902
-8.80412
-0.18691
-8.78045
-0.1392
-8.72177
-0.0864232
-8.55415
-0.037248
-7.55275
-0.000890354
-5.49173
-2.19668
-0.512426
-10.2295
-0.576268
-9.99615
-0.607109
-9.90122
-0.608077
-9.72134
-0.600591
-9.65031
-0.580351
-9.46213
-0.552165
-9.34517
-0.518871
-9.20347
-0.480424
-9.12696
-0.440914
-9.0216
-0.399615
-8.97662
-0.355948
-8.91232
-0.30896
-8.89202
-0.261424
-8.85166
-0.209535
-8.83234
-0.157627
-8.77368
-0.0989364
-8.61284
-0.0432592
-7.60842
-0.00206402
-5.53292
-2.19874
-0.565803
-10.0898
-0.634398
-9.92755
-0.667785
-9.86783
-0.666858
-9.72227
-0.656111
-9.66105
-0.634235
-9.484
-0.603805
-9.3756
-0.567395
-9.23988
-0.525118
-9.16924
-0.481474
-9.06525
-0.436439
-9.02165
-0.389302
-8.95946
-0.338969
-8.94235
-0.287473
-8.90316
-0.231657
-8.88815
-0.175955
-8.82938
-0.112054
-8.67674
-0.049971
-7.67051
-0.00344274
-5.57945
-2.20218
-0.620191
-9.94404
-0.690127
-9.85761
-0.724359
-9.8336
-0.72499
-9.72164
-0.714059
-9.67198
-0.688466
-9.5096
-0.653652
-9.41041
-0.614096
-9.27944
-0.568801
-9.21453
-0.521609
-9.11244
-0.472974
-9.07029
-0.422248
-9.01018
-0.368748
-8.99585
-0.313699
-8.95821
-0.253735
-8.94812
-0.193949
-8.88917
-0.125115
-8.74557
-0.0569904
-7.73863
-0.00500349
-5.63144
-2.20719
-0.674516
-9.78794
-0.74867
-9.78346
-0.78416
-9.79811
-0.782889
-9.72291
-0.768611
-9.68626
-0.741161
-9.53705
-0.703465
-9.44811
-0.660473
-9.32243
-0.611725
-9.26328
-0.56065
-9.16351
-0.508422
-9.12251
-0.454268
-9.06434
-0.397559
-9.05256
-0.339291
-9.01647
-0.275391
-9.01202
-0.211625
-8.95294
-0.137398
-8.8198
-0.0634614
-7.81257
-0.00679058
-5.68811
-2.21398
-0.723068
-9.62711
-0.799507
-9.70702
-0.837896
-9.75972
-0.838837
-9.72197
-0.823184
-9.70192
-0.792065
-9.56817
-0.750782
-9.48939
-0.704836
-9.36838
-0.653574
-9.31454
-0.599168
-9.21792
-0.543278
-9.1784
-0.48549
-9.12213
-0.425627
-9.11243
-0.364333
-9.07777
-0.29683
-9.07952
-0.229022
-9.02075
-0.150275
-8.89855
-0.0706765
-7.89217
-0.00880892
-5.74997
-2.22279
-0.776248
-9.45796
-0.855777
-9.62749
-0.895027
-9.72047
-0.894778
-9.72222
-0.876103
-9.72059
-0.842864
-9.60141
-0.798358
-9.5339
-0.748712
-9.41802
-0.694457
-9.3688
-0.636469
-9.27591
-0.577237
-9.23764
-0.516098
-9.18327
-0.452787
-9.17574
-0.388403
-9.14215
-0.317874
-9.15005
-0.246334
-9.09229
-0.162828
-8.98205
-0.0775491
-7.97744
-0.0108295
-5.81669
-2.23362
-0.82282
-9.28087
-0.904286
-9.54603
-0.945524
-9.67923
-0.947617
-9.72013
-0.926892
-9.74132
-0.890319
-9.63798
-0.84291
-9.58131
-0.79048
-9.47045
-0.733935
-9.42534
-0.672868
-9.33697
-0.610171
-9.30033
-0.545618
-9.24782
-0.47917
-9.24219
-0.411695
-9.20963
-0.338304
-9.22344
-0.263364
-9.16723
-0.175366
-9.07005
-0.0842815
-8.06853
-0.0132512
-5.88772
-2.24687
-0.8773
-9.09586
-0.959595
-9.46373
-0.999151
-9.63967
-0.999999
-9.71928
-0.976891
-9.76442
-0.938156
-9.67671
-0.887986
-9.63148
-0.831868
-9.52657
-0.772406
-9.48481
-0.708155
-9.40122
-0.64217
-9.36632
-0.574416
-9.31557
-0.504775
-9.31183
-0.434155
-9.28025
-0.358378
-9.29922
-0.280104
-9.2455
-0.18802
-9.16214
-0.0910266
-8.16552
-0.0159548
-5.9628
-2.26282
-0.916232
-8.91002
-1.00883
-9.37113
-1.04921
-9.5993
-1.05134
-9.71715
-1.02635
-9.78942
-0.984227
-9.71883
-0.931134
-9.68457
-0.872095
-9.58561
-0.809891
-9.54701
-0.742639
-9.46848
-0.673394
-9.43556
-0.602417
-9.38655
-0.529718
-9.38453
-0.4558
-9.35416
-0.377739
-9.37728
-0.296416
-9.32682
-0.200865
-9.25769
-0.0986068
-8.26778
-0.0192812
-6.04212
-2.2821
-0.955794
-8.72884
-1.05158
-9.27534
-1.08996
-9.56092
-1.09275
-9.71436
-1.06947
-9.81269
-1.02635
-9.76195
-0.971953
-9.73897
-0.909679
-9.64788
-0.845227
-9.61146
-0.774994
-9.53871
-0.703127
-9.50743
-0.628947
-9.46073
-0.553659
-9.45981
-0.476724
-9.4311
-0.3971
-9.4569
-0.312319
-9.4116
-0.213683
-9.35632
-0.106178
-8.37528
-0.0227552
-6.12555
-2.30486
7.46107
-8.02657
-8.16334
6.46152
-8.2758
5.54953
-8.64893
4.68449
-8.84932
3.9075
-9.0357
3.23323
-9.08769
2.6725
-9.17823
2.21237
-9.18776
1.82025
-9.21934
1.50613
-9.2246
1.23952
-9.24082
1.01586
-9.23707
0.823517
-9.26747
0.657032
-9.26461
0.508834
-9.3087
0.396417
-9.29919
0.304691
-9.2646
0.241495
-8.31209
0.0918275
-5.97588
-2.21303
4.10404
-7.75302
-4.37759
3.78321
-7.95496
3.39859
-8.26431
3.00444
-8.45517
2.59518
-8.62644
2.23132
-8.72382
1.89513
-8.84204
1.61597
-8.9086
1.36701
-8.97038
1.15763
-9.01522
0.977193
-9.06038
0.82973
-9.0896
0.684881
-9.12262
0.563609
-9.14334
0.441145
-9.18624
0.346863
-9.2049
0.225509
-9.14324
0.131433
-8.21801
-0.0679269
-5.77652
-2.28096
2.71657
-7.72009
-2.74951
2.67024
-7.90863
2.52225
-8.11632
2.35144
-8.28436
2.14671
-8.42171
1.94489
-8.522
1.72606
-8.62321
1.52518
-8.70773
1.33263
-8.77782
1.1528
-8.83539
0.981276
-8.88886
0.825333
-8.93366
0.672449
-8.96974
0.542499
-9.01339
0.402306
-9.04605
0.285068
-9.08767
0.170622
-9.0288
0.106764
-8.15416
0.0190872
-5.68884
-2.26187
1.64944
-7.80075
-1.56877
1.66882
-7.92801
1.60696
-8.05446
1.51901
-8.19641
1.41755
-8.32025
1.30443
-8.40888
1.17419
-8.49297
1.04384
-8.57738
0.9118
-8.64578
0.788204
-8.71179
0.661856
-8.76252
0.544892
-8.81669
0.445227
-8.87007
0.35135
-8.91952
0.273382
-8.96808
0.198979
-9.01326
0.107676
-8.93749
0.0903681
-8.13685
0.0737078
-5.67218
-2.18816
0.935377
-7.88536
-0.850775
0.997605
-7.99024
1.03683
-8.09368
1.02924
-8.18882
0.976911
-8.26792
0.917294
-8.34926
0.841257
-8.41693
0.757457
-8.49358
0.667674
-8.556
0.572875
-8.61699
0.485076
-8.67472
0.397286
-8.7289
0.303015
-8.7758
0.208815
-8.82532
0.118416
-8.87768
0.0331354
-8.92798
-0.0378025
-8.86656
-0.0270217
-8.14763
0.0316092
-5.73081
-2.15655
0.551535
-7.97639
-0.460505
0.610239
-8.04894
0.623474
-8.10692
0.613842
-8.17919
0.585852
-8.23993
0.547019
-8.31043
0.502018
-8.37193
0.442538
-8.4341
0.379097
-8.49256
0.30937
-8.54727
0.2362
-8.60155
0.159243
-8.65195
0.083079
-8.69964
0.0111719
-8.75341
-0.060619
-8.80589
-0.130967
-8.85764
-0.179821
-8.8177
-0.127889
-8.19956
0.0178157
-5.87652
-2.13874
0.225019
-8.03425
-0.167156
0.258836
-8.08276
0.278646
-8.12673
0.288584
-8.18913
0.29205
-8.24339
0.279103
-8.29748
0.252031
-8.34486
0.214971
-8.39704
0.167716
-8.4453
0.116062
-8.49561
0.0570715
-8.54256
-0.00413197
-8.59074
-0.066026
-8.63775
-0.134846
-8.68459
-0.202728
-8.73801
-0.277143
-8.78322
-0.329884
-8.76496
-0.256425
-8.27302
-0.0339785
-6.09896
-2.17272
0.0618556
-8.08395
-0.0121545
0.09704
-8.11794
0.121209
-8.1509
0.120232
-8.18815
0.104637
-8.2278
0.0811989
-8.27404
0.0555708
-8.31923
0.0194435
-8.36091
-0.0197264
-8.40613
-0.0690644
-8.44627
-0.116763
-8.49486
-0.172147
-8.53536
-0.231409
-8.57848
-0.298398
-8.6176
-0.371665
-8.66474
-0.444111
-8.71077
-0.496598
-8.71247
-0.425923
-8.34369
-0.128506
-6.39638
-2.30122
-0.0771971
-8.1063
0.0995475
-0.0646539
-8.13049
-0.0592316
-8.15632
-0.0564653
-8.19092
-0.0581676
-8.2261
-0.0690858
-8.26312
-0.0912149
-8.2971
-0.12283
-8.3293
-0.161694
-8.36727
-0.205307
-8.40266
-0.259901
-8.44027
-0.320375
-8.47489
-0.382428
-8.51643
-0.449982
-8.55005
-0.521342
-8.59338
-0.604393
-8.62772
-0.664779
-8.65209
-0.608569
-8.3999
-0.261384
-6.74356
-2.56261
-0.130886
-8.12038
0.14496
-0.120281
-8.14109
-0.114034
-8.16257
-0.116846
-8.18811
-0.130208
-8.21273
-0.155227
-8.2381
-0.188942
-8.26339
-0.227444
-8.29079
-0.270951
-8.32376
-0.321501
-8.35211
-0.377451
-8.38431
-0.437974
-8.41436
-0.506317
-8.44809
-0.581739
-8.47462
-0.672999
-8.50212
-0.777443
-8.52328
-0.860831
-8.5687
-0.839593
-8.42114
-0.467164
-7.11599
-3.02977
-0.151958
-8.12233
0.153911
-0.155039
-8.13801
-0.163337
-8.15427
-0.179739
-8.17171
-0.201774
-8.1907
-0.230023
-8.20986
-0.260281
-8.23313
-0.296349
-8.25472
-0.341766
-8.27835
-0.394362
-8.29952
-0.454262
-8.32442
-0.523097
-8.34553
-0.600673
-8.37051
-0.681424
-8.39387
-0.772854
-8.41069
-0.875466
-8.42067
-0.985353
-8.45881
-1.00498
-8.40152
-0.696655
-7.42432
-3.72642
-0.142054
-8.11563
0.135356
-0.153824
-8.12624
-0.168062
-8.14003
-0.187636
-8.15213
-0.211102
-8.16723
-0.23972
-8.18124
-0.275572
-8.19728
-0.317259
-8.21304
-0.36664
-8.22897
-0.422366
-8.24379
-0.486961
-8.25982
-0.558157
-8.27433
-0.641622
-8.28705
-0.734747
-8.30075
-0.834608
-8.31083
-0.932971
-8.3223
-1.05899
-8.33279
-1.15685
-8.30366
-0.94096
-7.64021
-4.66739
-0.109474
-8.10286
0.0966988
-0.126406
-8.10931
-0.146887
-8.11955
-0.170055
-8.12896
-0.196616
-8.14067
-0.22697
-8.15088
-0.261763
-8.16249
-0.304205
-8.17059
-0.350183
-8.18299
-0.402806
-8.19117
-0.461395
-8.20123
-0.528989
-8.20674
-0.604696
-8.21134
-0.691669
-8.21377
-0.787477
-8.21502
-0.884725
-8.22505
-1.00754
-8.20998
-1.12787
-8.18333
-0.962194
-7.80589
-5.62958
-0.0757908
-8.08757
0.0605024
-0.092324
-8.09278
-0.111801
-8.10007
-0.135097
-8.10567
-0.162607
-8.11316
-0.195161
-8.11833
-0.230551
-8.1271
-0.269095
-8.13205
-0.31179
-8.14029
-0.359864
-8.14309
-0.412099
-8.149
-0.469267
-8.14957
-0.528466
-8.15214
-0.592779
-8.14946
-0.661612
-8.14619
-0.753164
-8.1335
-0.850076
-8.11306
-0.951488
-8.08191
-0.841077
-7.9163
-6.47066
-0.0342219
-8.06913
0.0157871
-0.054253
-8.07275
-0.0757559
-8.07857
-0.0993791
-8.08204
-0.124842
-8.0877
-0.152479
-8.09069
-0.183409
-8.09617
-0.215786
-8.09967
-0.252382
-8.1037
-0.291323
-8.10415
-0.333372
-8.10695
-0.378066
-8.10488
-0.424853
-8.10535
-0.479797
-8.09452
-0.536812
-8.08918
-0.602014
-8.0683
-0.65412
-8.06096
-0.712161
-8.02387
-0.666388
-7.96207
-7.13704
0.0163885
-8.05378
-0.0317443
-0.000529218
-8.05583
-0.0200694
-8.05903
-0.0405719
-8.06154
-0.0631901
-8.06508
-0.0862133
-8.06767
-0.111299
-8.07108
-0.139846
-8.07112
-0.169049
-8.07449
-0.199627
-8.07358
-0.230541
-8.07603
-0.264296
-8.07112
-0.297563
-8.07209
-0.334032
-8.05805
-0.366349
-8.05686
-0.402612
-8.03204
-0.43244
-8.03113
-0.44805
-8.00826
-0.419411
-7.99071
-7.55646
0.037996
-8.04133
-0.0504435
0.0242309
-8.04206
0.00864463
-8.04344
-0.00871296
-8.04418
-0.0282613
-8.04553
-0.0499899
-8.04594