/*--------------------------------*- C++ -*----------------------------------*\
  =========                 |
  \\      /  F ield         | OpenFOAM: The Open Source CFD Toolbox
   \\    /   O peration     | Website:  https://openfoam.org
    \\  /    A nd           | Version:  9
     \\/     M anipulation  |
\*---------------------------------------------------------------------------*/
FoamFile
{
    format      ascii;
    class       volVectorField;
    location    "6.08";
    object      U;
}
// * * * * * * * * * * * * * * * * * * * * * * * * * * * * * * * * * * * * * //

dimensions      [0 1 -1 0 0 0 0];

internalField   nonuniform List<vector> 
46400
(
(9.42312 -9.09259 -5.48442e-19)
(18.4108 -17.8558 5.2761e-19)
(19.4039 -19.556 -6.309e-20)
(18.6821 -19.6963 2.9344e-20)
(18.1031 -19.7406 -4.89115e-20)
(17.436 -19.8166 -5.48763e-19)
(16.8257 -19.8468 2.76368e-19)
(16.2302 -19.864 -3.76543e-20)
(15.6452 -19.8778 2.90757e-20)
(15.1462 -19.9433 -2.1405e-20)
(14.6477 -19.9861 1.45123e-20)
(14.2003 -20.0461 0)
(13.7608 -20.1025 -9.71634e-20)
(13.3221 -20.1209 9.83485e-20)
(12.9168 -20.159 8.15926e-21)
(12.5252 -20.1873 -4.84755e-20)
(12.1227 -20.2187 -3.71731e-20)
(11.7568 -20.1535 3.94525e-20)
(11.3841 -20.168 1.34433e-19)
(10.922 -20.4429 -1.18442e-19)
(9.66688 -8.55977 0)
(18.4813 -16.6396 -3.46048e-20)
(19.4348 -18.2237 0)
(18.5597 -18.3231 -3.19375e-19)
(17.8916 -18.3268 2.31176e-19)
(17.2222 -18.4364 -5.80901e-20)
(16.6169 -18.4962 0)
(16.0288 -18.5766 3.76567e-20)
(15.4867 -18.6539 -2.90776e-20)
(14.9712 -18.718 2.14059e-20)
(14.5037 -18.8431 1.86945e-21)
(14.0205 -18.8641 4.2613e-20)
(13.616 -19.0024 -6.05501e-20)
(13.2238 -19.0632 0)
(12.8109 -19.1179 6.93683e-21)
(12.463 -19.1756 1.11677e-20)
(12.119 -19.2594 0)
(11.824 -19.2695 -2.58114e-19)
(11.5088 -19.2681 -7.73737e-20)
(11.0835 -19.4821 2.59149e-19)
(9.87267 -8.00342 -1.88034e-19)
(18.444 -15.4703 1.2652e-19)
(18.9841 -16.553 -1.86089e-19)
(18.2288 -16.8145 -8.6176e-20)
(17.6814 -16.9683 8.46049e-20)
(17.0387 -17.1285 0)
(16.4309 -17.2365 -6.71879e-20)
(15.858 -17.3308 4.79718e-20)
(15.2946 -17.4455 -1.84941e-19)
(14.7798 -17.5261 1.87363e-19)
(14.3144 -17.6805 2.35191e-19)
(13.8705 -17.7859 -6.85218e-21)
(13.4416 -17.9128 -2.17003e-19)
(13.0413 -18.0306 0)
(12.6522 -18.1332 3.46129e-19)
(12.2745 -18.2188 -3.40882e-19)
(11.9098 -18.3268 0)
(11.5998 -18.3759 -1.9734e-20)
(11.2824 -18.5022 3.97138e-20)
(10.8747 -18.7751 -4.31511e-19)
(10.0957 -7.45986 4.09641e-20)
(18.2488 -14.0592 -3.11384e-20)
(18.8621 -15.2754 1.81001e-20)
(18.0094 -15.4129 -1.78834e-20)
(17.309 -15.5374 -5.79099e-20)
(16.6933 -15.7417 9.32898e-20)
(16.1066 -15.9387 1.693e-19)
(15.5327 -16.0808 -4.94199e-19)
(15.0054 -16.2471 4.30713e-19)
(14.5 -16.3734 -3.57949e-20)
(14.0407 -16.5387 0)
(13.5925 -16.6571 4.39149e-20)
(13.1845 -16.8098 -4.71911e-20)
(12.8348 -16.9712 0)
(12.4496 -17.1023 5.17673e-19)
(12.1057 -17.2171 -4.34168e-19)
(11.7757 -17.3672 0)
(11.4705 -17.4376 5.81791e-20)
(11.1573 -17.5421 7.63614e-20)
(10.7513 -17.8488 5.8222e-19)
(10.4338 -7.002 0)
(17.9184 -12.7097 0)
(18.1808 -13.6575 -1.71473e-19)
(17.4165 -13.9987 1.03631e-19)
(16.837 -14.2281 -2.70936e-19)
(16.2115 -14.4692 2.2969e-19)
(15.6329 -14.6905 0)
(15.0997 -14.8991 2.92842e-19)
(14.5765 -15.1161 -3.47768e-19)
(14.0705 -15.2605 -9.06893e-20)
(13.6346 -15.5016 -9.25226e-20)
(13.2122 -15.6662 0)
(12.7928 -15.8565 6.77808e-19)
(12.4067 -16.0081 -6.67223e-19)
(12.0587 -16.2004 0)
(11.6983 -16.3304 -7.72717e-19)
(11.3591 -16.4977 6.86685e-19)
(11.0825 -16.63 7.0168e-19)
(10.7793 -16.774 -7.57831e-19)
(10.3939 -17.088 0)
(10.7548 -6.54293 0)
(17.4415 -11.3841 0)
(17.6811 -12.2978 0)
(16.9459 -12.5943 -3.58498e-20)
(16.2764 -12.8707 0)
(15.7015 -13.1585 0)
(15.1506 -13.4646 0)
(14.5988 -13.6793 -1.14313e-19)
(14.1262 -13.9711 0)
(13.6334 -14.1553 9.06925e-20)
(13.1833 -14.3699 -2.49653e-20)
(12.7851 -14.5946 -9.74984e-19)
(12.3905 -14.7911 7.25804e-19)
(12.0691 -15.044 -9.78622e-19)
(11.7097 -15.2268 7.30707e-19)
(11.3832 -15.424 0)
(11.0532 -15.5914 -8.54824e-19)
(10.7594 -15.7534 7.27165e-19)
(10.4758 -15.916 0)
(10.096 -16.258 -1.18472e-19)
(11.1249 -6.0681 3.87293e-19)
(16.8754 -10.1688 1.26947e-19)
(16.8408 -10.9052 4.70584e-19)
(16.1388 -11.3 -4.96974e-19)
(15.5438 -11.6351 -4.99954e-19)
(14.9797 -11.9434 1.00029e-18)
(14.4554 -12.2936 -1.1576e-18)
(13.9551 -12.5742 1.01116e-19)
(13.4929 -12.8939 3.69041e-19)
(13.0545 -13.1765 0)
(12.6228 -13.4334 -2.41166e-20)
(12.2318 -13.6865 -2.30552e-20)
(11.8208 -13.8957 1.17787e-19)
(11.4475 -14.1018 1.00961e-18)
(11.1526 -14.3696 -8.97766e-19)
(10.8311 -14.5729 -1.14954e-18)
(10.5052 -14.7735 9.98509e-19)
(10.2383 -14.9452 -1.79319e-20)
(9.96766 -15.1394 -1.30141e-19)
(9.61203 -15.4814 -9.15879e-19)
(11.4392 -5.66963 -1.44455e-19)
(16.0599 -8.958 3.62345e-20)
(15.8829 -9.62128 -1.66783e-19)
(15.3858 -10.0884 -6.5272e-19)
(14.7852 -10.5013 4.39968e-19)
(14.2403 -10.8179 0)
(13.7522 -11.1924 9.38765e-19)
(13.2459 -11.481 -4.49219e-19)
(12.7975 -11.8074 3.09526e-19)
(12.373 -12.1087 1.65897e-19)
(11.9707 -12.4116 -3.10115e-19)
(11.6221 -12.7171 7.46961e-19)
(11.2829 -13.0163 1.60738e-19)
(10.9397 -13.2637 -8.97386e-19)
(10.6057 -13.5139 2.51332e-18)
(10.333 -13.7825 -1.02651e-18)
(10.0457 -14.0302 1.30204e-18)
(9.74362 -14.2049 -8.49871e-19)
(9.50017 -14.4146 2.77309e-19)
(9.16389 -14.7808 1.33699e-18)
(11.4907 -5.32062 7.57547e-19)
(15.247 -7.82826 -1.63754e-19)
(14.9272 -8.51786 -3.18115e-20)
(14.3862 -8.93681 3.66837e-19)
(13.8895 -9.43031 1.69158e-19)
(13.4252 -9.79198 1.96456e-19)
(12.9593 -10.2067 -9.01535e-19)
(12.5219 -10.518 5.51634e-19)
(12.0919 -10.8671 -1.67254e-19)
(11.6968 -11.1694 -1.65916e-19)
(11.2944 -11.4768 -1.64378e-19)
(10.9281 -11.7592 -1.83125e-19)
(10.5847 -12.0582 -3.41128e-19)
(10.2616 -12.335 1.18892e-18)
(9.9642 -12.6093 -1.65821e-18)
(9.67376 -12.8774 -1.71832e-19)
(9.41485 -13.1537 1.67242e-20)
(9.18289 -13.4131 -1.24998e-18)
(8.91161 -13.5985 9.33844e-19)
(8.62017 -13.9936 -1.47797e-18)
(11.3115 -4.81365 7.51436e-19)
(14.1937 -6.79176 -1.92774e-18)
(13.7598 -7.41414 1.27511e-18)
(13.412 -7.9336 -1.98483e-19)
(12.9499 -8.46222 -2.24202e-19)
(12.4769 -8.84984 8.66994e-19)
(12.0781 -9.31217 -1.04594e-18)
(11.6504 -9.67179 0)
(11.2401 -10.0236 8.09747e-19)
(10.8675 -10.3605 -7.96253e-19)
(10.5144 -10.6835 -5.79387e-19)
(10.1967 -11.0085 7.53365e-19)
(9.8971 -11.3164 1.804e-19)
(9.60253 -11.6167 -7.4633e-19)
(9.30373 -11.8745 1.76359e-19)
(9.04499 -12.1556 8.93912e-19)
(8.79004 -12.4179 -1.58315e-18)
(8.56042 -12.6795 1.04591e-18)
(8.3647 -12.9313 -1.4555e-20)
(8.05827 -13.2785 -1.45179e-18)
(10.9061 -4.25559 1.0892e-18)
(13.2288 -5.84689 -7.30883e-19)
(12.7939 -6.45194 4.88363e-19)
(12.3515 -6.8968 7.90078e-21)
(11.9427 -7.50217 -9.67764e-19)
(11.5726 -7.91796 -9.129e-19)
(11.164 -8.40317 1.13865e-18)
(10.8409 -8.82139 -6.70265e-19)
(10.4723 -9.22507 8.92029e-19)
(10.1276 -9.56827 0)
(9.77062 -9.90052 1.86153e-20)
(9.43781 -10.2091 2.02323e-19)
(9.13871 -10.5252 2.15868e-19)
(8.87914 -10.8505 -2.11608e-19)
(8.62289 -11.1523 0)
(8.35127 -11.4216 2.03255e-19)
(8.10887 -11.6968 0)
(7.88101 -11.9434 3.76442e-19)
(7.67749 -12.1948 1.84149e-18)
(7.46083 -12.575 -1.01896e-20)
(10.2788 -3.66318 6.16121e-19)
(12.0692 -4.97917 -1.29153e-19)
(11.5749 -5.62744 -1.88515e-18)
(11.1677 -6.05335 1.05384e-18)
(10.8196 -6.68224 2.48581e-19)
(10.4683 -7.13655 -2.44946e-19)
(10.0967 -7.61869 -1.00752e-18)
(9.7815 -8.0594 7.53023e-19)
(9.46373 -8.51427 0)
(9.18333 -8.92762 0)
(8.88019 -9.30909 -1.15657e-18)
(8.60174 -9.66215 9.17119e-19)
(8.30789 -9.97757 -2.15873e-19)
(8.04577 -10.2939 -6.64226e-19)
(7.82761 -10.6178 4.78805e-21)
(7.61908 -10.9313 1.48078e-18)
(7.40975 -11.2241 -8.26987e-19)
(7.1999 -11.4886 6.09776e-19)
(7.00553 -11.7358 -9.84493e-19)
(6.76852 -12.0687 0)
(9.45301 -3.04689 -5.46251e-19)
(10.9153 -4.16891 8.74971e-19)
(10.5463 -4.84753 1.50723e-19)
(10.154 -5.27297 1.48145e-19)
(9.745 -5.82073 0)
(9.53469 -6.35547 1.10412e-18)
(9.18072 -6.82639 -1.08479e-18)
(8.8756 -7.25233 1.37123e-19)
(8.57346 -7.67388 0)
(8.31567 -8.09257 1.01777e-18)
(8.05553 -8.49001 -8.72509e-19)
(7.80968 -8.87084 9.74733e-19)
(7.57292 -9.23228 -9.59264e-19)
(7.31563 -9.55065 9.32854e-19)
(7.07881 -9.86781 -8.00891e-19)
(6.85377 -10.1705 -8.92463e-19)
(6.66781 -10.4912 1.75215e-18)
(6.48561 -10.7794 -7.50209e-19)
(6.32619 -11.0704 1.07491e-19)
(6.14401 -11.4239 8.91065e-19)
(8.45788 -2.44437 -4.43934e-19)
(9.6087 -3.45861 4.76896e-19)
(9.25932 -4.18036 -1.50703e-19)
(8.94211 -4.71332 -1.48139e-19)
(8.53693 -5.22939 0)
(8.28375 -5.7616 0)
(8.03842 -6.34127 0)
(7.81032 -6.81552 -2.82217e-19)
(7.51481 -7.27161 -1.10361e-18)
(7.28334 -7.68075 2.16429e-18)
(7.03757 -8.09615 -1.18993e-18)
(6.82191 -8.46283 -1.32521e-19)
(6.6221 -8.8525 0)
(6.42789 -9.19166 0)
(6.24394 -9.5372 -2.41172e-19)
(6.04771 -9.83425 0)
(5.86404 -10.1421 9.18737e-19)
(5.68529 -10.4135 -1.13036e-18)
(5.52391 -10.6904 -9.84178e-19)
(5.3488 -11.0171 9.45988e-19)
(7.36691 -1.8656 4.66204e-19)
(8.30496 -2.77772 8.42184e-19)
(8.03374 -3.54838 1.89295e-22)
(7.83632 -4.14617 -9.96242e-22)
(7.50016 -4.6833 1.61163e-19)
(7.15041 -5.11627 -4.6382e-19)
(6.92032 -5.63085 0)
(6.75006 -6.1359 -4.48659e-19)
(6.55478 -6.63226 1.52072e-19)
(6.35455 -7.071 5.70634e-19)
(6.16221 -7.52659 5.53836e-19)
(5.96194 -7.90913 -4.12385e-19)
(5.76288 -8.31877 1.05646e-18)
(5.58261 -8.66069 -9.07867e-19)
(5.40395 -9.04197 1.13104e-18)
(5.24979 -9.35394 -2.10193e-18)
(5.09235 -9.7072 9.69145e-19)
(4.9525 -9.9862 1.15269e-19)
(4.81016 -10.2964 9.16101e-19)
(4.66454 -10.618 -9.8837e-19)
(6.20221 -1.35931 1.63673e-19)
(6.73988 -2.15368 -1.72432e-19)
(6.51937 -2.85457 6.94708e-19)
(6.47078 -3.59284 -6.81816e-19)
(6.32712 -4.27913 -3.32357e-19)
(6.11766 -4.81006 -8.09059e-19)
(5.79852 -5.32791 3.60912e-21)
(5.59156 -5.78347 6.23931e-19)
(5.3925 -6.28907 -1.48704e-19)
(5.2114 -6.71118 0)
(5.05847 -7.18276 0)
(4.90255 -7.56501 0)
(4.77952 -7.9993 0)
(4.6232 -8.33903 4.90328e-21)
(4.49788 -8.72922 0)
(4.34901 -9.03523 1.25923e-19)
(4.21608 -9.39052 4.98964e-19)
(4.08864 -9.66919 -1.4662e-18)
(3.96356 -9.98196 1.08181e-18)
(3.84174 -10.2973 -1.01613e-18)
(5.19891 -1.04978 0)
(5.64157 -1.81471 -9.33486e-20)
(5.29907 -2.39474 0)
(5.03063 -2.91556 2.6277e-19)
(5.00408 -3.58284 -1.76364e-19)
(4.8516 -4.14868 -6.73768e-19)
(4.7108 -4.75931 3.81762e-21)
(4.57745 -5.23371 6.46818e-19)
(4.40643 -5.78541 -6.27242e-19)
(4.26876 -6.21839 1.22887e-18)
(4.12771 -6.72633 -4.81896e-21)
(3.99669 -7.12038 -5.87582e-19)
(3.85623 -7.5804 5.68463e-19)
(3.7506 -7.94938 -6.96539e-19)
(3.6245 -8.36302 0)
(3.53092 -8.70242 -5.28051e-19)
(3.41589 -9.07677 5.20173e-19)
(3.32493 -9.37867 0)
(3.2202 -9.70309 -1.21461e-19)
(3.12438 -10.0246 0)
(3.50904 -0.602064 9.65799e-20)
(4.02951 -1.61573 9.34212e-20)
(4.11062 -2.32177 0)
(3.90038 -2.99132 3.61393e-19)
(3.72993 -3.58053 -4.47472e-19)
(3.53733 -4.20423 2.58961e-19)
(3.4114 -4.72298 -7.65682e-19)
(3.26753 -5.25097 3.32867e-19)
(3.14222 -5.7254 -8.188e-20)
(3.02243 -6.1903 0)
(2.93447 -6.61802 -7.79108e-20)
(2.85258 -7.03078 -7.59946e-20)
(2.76518 -7.42234 -7.4124e-20)
(2.69237 -7.7954 0)
(2.60675 -8.16119 -5.55461e-19)
(2.53726 -8.50245 1.15781e-18)
(2.45719 -8.85095 -9.95643e-19)
(2.39816 -9.16137 5.21122e-19)
(2.32441 -9.4747 6.39994e-20)
(2.26971 -9.80159 5.38231e-19)
(2.39422 -0.309473 -1.47368e-19)
(2.5057 -0.927818 -1.94409e-19)
(2.52573 -1.58309 4.40275e-22)
(2.42251 -2.36911 5.1234e-19)
(2.35611 -2.97705 -1.38646e-19)
(2.36168 -3.66945 -8.95938e-20)
(2.32305 -4.23575 8.71285e-20)
(2.28731 -4.82161 1.70419e-19)
(2.18335 -5.34461 8.18664e-20)
(2.14758 -5.8352 -3.21864e-19)
(2.09136 -6.29733 3.5478e-19)
(2.02331 -6.74301 7.59825e-20)
(1.95208 -7.16382 3.72575e-19)
(1.8835 -7.57074 -2.71796e-21)
(1.81439 -7.95454 3.32408e-20)
(1.74599 -8.32025 -6.25361e-19)
(1.68782 -8.67153 1.71469e-19)
(1.62287 -8.99669 0)
(1.57261 -9.30719 -3.14203e-20)
(1.51653 -9.63446 -2.74899e-19)
(1.55317 -0.290898 4.99945e-20)
(1.50091 -1.08907 -9.9063e-20)
(1.12167 -1.75159 1.94117e-19)
(0.999057 -2.42074 -4.74812e-20)
(0.983847 -3.00072 -4.69763e-20)
(0.850079 -3.61124 0)
(0.910444 -4.16129 -8.80614e-20)
(0.809571 -4.73744 1.7244e-19)
(0.859923 -5.23484 -8.44445e-20)
(0.844486 -5.73647 8.1697e-20)
(0.818996 -6.19606 -4.06499e-20)
(0.793577 -6.65378 -7.76848e-20)
(0.76284 -7.07838 1.52209e-19)
(0.742045 -7.48884 -1.48458e-19)
(0.727532 -7.87313 3.68173e-20)
(0.709544 -8.24692 2.52432e-34)
(0.707497 -8.59316 -3.43856e-20)
(0.68516 -8.9415 2.01432e-19)
(0.677437 -9.24398 -9.9187e-20)
(0.654999 -9.58889 -7.06064e-20)
(-0.0976893 -6.33285 1.72891e-19)
(1.62275 -20.1137 4.06858e-20)
(2.59878 -32.7493 0)
(3.00564 -37.6895 7.98913e-20)
(3.05958 -38.1542 7.42371e-20)
(2.99865 -37.8289 7.02301e-20)
(2.90664 -37.2686 0)
(2.84901 -36.8458 6.45371e-20)
(2.78009 -36.4934 0)
(2.71437 -36.0721 0)
(2.62987 -35.7358 -5.47221e-20)
(2.57212 -35.4295 3.43182e-21)
(2.47816 -35.0605 1.03227e-19)
(2.4113 -34.7088 0)
(2.31878 -34.3806 4.56835e-20)
(2.26901 -34.0052 4.35971e-20)
(2.14643 -33.5716 4.16621e-20)
(2.11071 -33.0554 0)
(1.9526 -32.6131 -7.62461e-20)
(1.95054 -32.1677 7.44655e-20)
(0.394436 -7.40919 2.55878e-19)
(2.00837 -21.9999 -3.57669e-19)
(3.77127 -34.1675 0)
(4.04706 -38.0091 -3.9245e-19)
(4.07587 -38.1195 3.71705e-19)
(3.9965 -37.7019 -6.31583e-19)
(3.9003 -37.2039 2.7515e-19)
(3.82087 -36.7378 1.87081e-19)
(3.72925 -36.2983 -8.45262e-19)
(3.63357 -35.9356 4.69736e-19)
(3.56067 -35.5792 -5.53999e-20)
(3.45932 -35.2065 4.10695e-19)
(3.37391 -34.8628 -1.30161e-20)
(3.28747 -34.5571 -3.84983e-19)
(3.18903 -34.2126 -4.56804e-20)
(3.10404 -33.7933 -4.3592e-20)
(2.95342 -33.3063 -4.16593e-20)
(2.89825 -32.7941 0)
(2.71593 -32.3722 -2.96919e-19)
(2.71708 -31.9569 8.19402e-21)
(0.724772 -8.05194 -1.4704e-19)
(3.12746 -23.0326 0)
(5.00377 -34.8085 0)
(5.31217 -37.9776 -1.53344e-19)
(5.2781 -37.9227 1.45815e-19)
(5.14231 -37.4174 0)
(5.00065 -36.8803 -1.31064e-19)
(4.86882 -36.4377 3.6886e-19)
(4.74338 -36.0331 -3.64331e-19)
(4.63116 -35.6631 4.43547e-19)
(4.49192 -35.2918 -5.41984e-19)
(4.38542 -34.973 0)
(4.25453 -34.6152 -3.81109e-19)
(4.13527 -34.2503 -3.50696e-19)
(3.99848 -33.8963 6.27985e-19)
(3.88757 -33.4803 -6.59618e-19)
(3.726 -33.0368 5.7098e-19)
(3.65007 -32.5398 0)
(3.45094 -32.1267 -6.47998e-19)
(3.4476 -31.7269 1.11821e-18)
(1.14086 -8.99678 8.3475e-19)
(4.07943 -24.3874 0)
(6.27178 -35.5186 3.21447e-19)
(6.48216 -37.9395 4.50232e-19)
(6.37176 -37.6842 -8.71719e-19)
(6.19025 -37.1151 2.70842e-19)
(6.02586 -36.6215 1.3106e-19)
(5.87927 -36.1474 1.32831e-18)
(5.7253 -35.7502 -1.85769e-18)
(5.56473 -35.3302 -1.84472e-19)
(5.43294 -34.9823 9.5563e-19)
(5.28314 -34.6212 1.94921e-19)
(5.13392 -34.251 -9.25322e-19)
(4.99956 -33.9343 9.04569e-19)
(4.86003 -33.5925 2.53993e-19)
(4.72945 -33.1951 -1.59446e-19)
(4.54027 -32.7244 2.30727e-19)
(4.43542 -32.2182 0)
(4.21765 -31.8334 -6.68571e-20)
(4.20918 -31.4415 0)
(1.58079 -9.59397 0)
(5.18212 -25.0953 1.29636e-18)
(7.54734 -35.5775 -1.6194e-18)
(7.73746 -37.5303 1.47549e-18)
(7.57566 -37.2045 -1.14446e-18)
(7.36188 -36.6963 -2.71063e-19)
(7.14131 -36.178 0)
(6.93783 -35.7351 6.9371e-19)
(6.73955 -35.2845 -9.19654e-19)
(6.56578 -34.956 1.05468e-18)
(6.37903 -34.5837 -8.24237e-19)
(6.20728 -34.2436 -1.9492e-19)
(6.03733 -33.9011 9.00914e-19)
(5.86909 -33.5612 -1.56089e-18)
(5.6947 -33.2144 9.88204e-19)
(5.52277 -32.7965 -3.24343e-19)
(5.32509 -32.3507 -7.39593e-19)
(5.19727 -31.8749 1.70075e-18)
(4.95574 -31.4974 -9.67064e-19)
(4.94411 -31.1157 -1.15981e-18)
(2.07533 -10.229 1.27942e-18)
(6.33318 -25.919 1.2646e-18)
(8.83425 -35.7924 -1.26717e-18)
(8.92618 -37.2088 -2.87623e-19)
(8.67936 -36.7637 2.78478e-19)
(8.41562 -36.1876 1.01753e-18)
(8.15629 -35.6901 -9.99703e-19)
(7.93305 -35.2263 0)
(7.71519 -34.8731 8.55362e-19)
(7.49162 -34.4428 -8.41079e-19)
(7.28873 -34.0999 -7.66124e-19)
(7.09507 -33.775 7.53704e-19)
(6.88191 -33.4089 0)
(6.69339 -33.0827 0)
(6.50205 -32.7544 1.40494e-18)
(6.32089 -32.3868 -1.37797e-18)
(6.10377 -31.957 -1.12688e-18)
(5.9438 -31.4814 1.11026e-18)
(5.68071 -31.1186 -1.02603e-18)
(5.65694 -30.7382 1.27049e-18)
(2.59936 -10.6714 -9.32756e-19)
(7.47656 -26.2772 3.37994e-19)
(10.0434 -35.4255 5.15757e-20)
(10.0974 -36.5288 1.45069e-18)
(9.79541 -36.0871 0)
(9.5222 -35.6143 0)
(9.21771 -35.1252 1.84847e-18)
(8.94696 -34.6938 -7.4189e-20)
(8.67869 -34.2434 -1.71298e-18)
(8.43516 -33.9344 1.55384e-18)
(8.20366 -33.586 -1.52828e-18)
(7.96504 -33.2397 0)
(7.74742 -32.9106 1.31908e-18)
(7.5342 -32.6083 -1.29837e-18)
(7.32296 -32.2906 0)
(7.10314 -31.9109 0)
(6.86419 -31.4882 0)
(6.67953 -31.0363 0)
(6.39879 -30.6931 0)
(6.36662 -30.3175 -1.22851e-19)
(3.13515 -11.0529 8.89627e-19)
(8.64549 -26.5928 -1.52576e-18)
(11.3017 -35.1304 0)
(11.2909 -35.921 0)
(10.9157 -35.4347 2.25199e-18)
(10.5756 -34.9008 1.48024e-19)
(10.223 -34.4235 -2.07123e-18)
(9.91456 -33.9944 0)
(9.62855 -33.6564 1.95525e-19)
(9.34363 -33.2637 -1.84339e-19)
(9.06704 -32.9385 0)
(8.82704 -32.6568 1.64416e-19)
(8.5578 -32.3203 -1.41077e-18)
(8.31537 -32.0038 2.57255e-18)
(8.07428 -31.7051 -4.25896e-20)
(7.84009 -31.3715 -1.1114e-18)
(7.59068 -30.9935 -1.25828e-19)
(7.36996 -30.5562 1.19628e-19)
(7.06676 -30.2083 0)
(7.01085 -29.8343 1.10041e-19)
(3.71044 -11.3428 5.7506e-19)
(9.80212 -26.692 5.02735e-19)
(12.4261 -34.5559 -1.73968e-18)
(12.3211 -35.0725 5.11287e-19)
(11.8865 -34.5933 2.26639e-19)
(11.5408 -34.1545 2.00751e-18)
(11.1586 -33.7069 -2.80997e-18)
(10.8163 -33.2977 2.05031e-18)
(10.4879 -32.9018 -1.6878e-18)
(10.1741 -32.5964 2.00029e-18)
(9.89436 -32.2852 3.28564e-19)
(9.59745 -31.9677 1.39973e-18)
(9.32312 -31.6632 -7.85651e-19)
(9.06433 -31.3984 -1.54741e-18)
(8.81177 -31.12 1.36794e-18)
(8.55072 -30.8012 0)
(8.27372 -30.4269 3.61761e-19)
(8.02572 -30.0054 1.04446e-19)
(7.70612 -29.6801 -2.13089e-19)
(7.63886 -29.3036 9.56034e-20)
(4.26782 -11.5131 -1.08792e-18)
(10.8997 -26.5309 1.12864e-18)
(13.5442 -33.7285 -2.8494e-20)
(13.4373 -34.161 -9.94971e-19)
(12.9649 -33.7303 -9.28613e-19)
(12.5516 -33.2663 -4.47007e-19)
(12.1228 -32.8335 -2.43284e-20)
(11.7325 -32.4635 -3.93596e-19)
(11.3749 -32.1254 0)
(11.0302 -31.8042 -3.48499e-19)
(10.6898 -31.5061 -3.28564e-19)
(10.3967 -31.2601 -2.00856e-20)
(10.0811 -30.9683 1.09252e-18)
(9.78728 -30.6855 -5.58907e-19)
(9.50222 -30.4317 -1.25761e-18)
(9.21831 -30.1401 9.80045e-19)
(8.93413 -29.8255 6.58718e-19)
(8.65372 -29.4359 -1.10552e-18)
(8.3108 -29.1059 2.1303e-19)
(8.22003 -28.734 1.36135e-18)
(4.86643 -11.6543 -2.60994e-18)
(12.0096 -26.4059 2.65984e-18)
(14.6016 -33.0527 -2.95757e-18)
(14.3429 -33.1816 2.41282e-18)
(13.7998 -32.7382 2.15802e-18)
(13.3637 -32.339 -1.6763e-18)
(12.9074 -31.9429 -2.25638e-18)
(12.4901 -31.5713 6.75785e-20)
(12.1091 -31.2587 1.37613e-18)
(11.7295 -30.959 -9.31506e-19)
(11.3941 -30.7016 2.3773e-18)
(11.0553 -30.4437 -1.43356e-18)
(10.7222 -30.1768 -2.73606e-19)
(10.4196 -29.9449 7.16892e-19)
(10.1232 -29.7133 -1.88222e-18)
(9.82576 -29.4581 9.0785e-19)
(9.51617 -29.1478 0)
(9.20755 -28.7796 -1.56898e-18)
(8.85108 -28.4717 1.5406e-18)
(8.74946 -28.1104 -1.26875e-18)
(5.41999 -11.6517 4.94229e-19)
(12.9869 -25.8893 5.45146e-19)
(15.4724 -31.848 2.41266e-18)
(15.289 -32.0109 2.13036e-18)
(14.7087 -31.6674 -1.28472e-18)
(14.2471 -31.2995 1.84913e-18)
(13.7569 -30.9357 -1.08899e-18)
(13.2979 -30.6398 1.29694e-18)
(12.8746 -30.317 -2.49027e-18)
(12.476 -30.0759 8.91383e-19)
(12.0838 -29.8099 0)
(11.7329 -29.6034 0)
(11.3811 -29.3714 0)
(11.0401 -29.1396 -1.78865e-18)
(10.7199 -28.935 1.76102e-18)
(10.395 -28.6965 0)
(10.0828 -28.4479 0)
(9.75372 -28.1163 -1.72825e-19)
(9.37869 -27.8142 0)
(9.25936 -27.4543 -1.48709e-18)
(5.98704 -11.6423 -9.35221e-19)
(13.984 -25.4718 -2.334e-18)
(16.4357 -30.9993 -1.69384e-18)
(16.0757 -30.9498 -3.31274e-19)
(15.4425 -30.5585 2.26587e-18)
(14.9099 -30.219 -4.40525e-19)
(14.4024 -29.8774 -6.85498e-20)
(13.9118 -29.5701 -1.54225e-18)
(13.484 -29.3428 0)
(13.0484 -29.0707 -7.8804e-19)
(12.6556 -28.8703 1.26139e-18)
(12.2886 -28.6819 0)
(11.9029 -28.4667 1.72174e-18)
(11.5597 -28.275 -1.69481e-18)
(11.2223 -28.1053 1.5254e-18)
(10.893 -27.9109 -2.76705e-18)
(10.5577 -27.6856 1.41637e-18)
(10.2032 -27.3892 1.72831e-19)
(9.81622 -27.1061 -1.4487e-19)
(9.6857 -26.7646 1.17575e-18)
(6.50219 -11.5158 -1.23434e-18)
(14.8516 -24.7375 6.9486e-20)
(17.052 -29.5295 9.48793e-20)
(16.7636 -29.5683 2.97448e-18)
(16.1331 -29.315 2.80325e-19)
(15.6008 -29.0591 -1.61619e-18)
(15.063 -28.7734 -1.15434e-18)
(14.5466 -28.5413 3.49784e-19)
(14.0692 -28.2743 1.2998e-18)
(13.6267 -28.1104 -1.41579e-18)
(13.1911 -27.8869 6.83715e-19)
(12.7874 -27.7264 -1.83587e-18)
(12.4077 -27.5609 1.428e-18)
(12.0263 -27.3803 -1.44083e-18)
(11.6771 -27.2269 1.25667e-18)
(11.3212 -27.0495 1.09944e-18)
(10.9888 -26.871 -1.25343e-18)
(10.6287 -26.6308 9.9625e-19)
(10.2344 -26.3691 -9.61194e-19)
(10.0923 -26.0342 -1.15131e-18)
(7.00806 -11.3645 -1.5271e-18)
(15.7129 -24.0383 -2.95202e-19)
(17.8794 -28.5145 1.49324e-18)
(17.4178 -28.3911 -1.30247e-18)
(16.7501 -28.0761 1.27884e-18)
(16.1332 -27.8211 3.02776e-19)
(15.5881 -27.5593 0)
(15.0393 -27.3478 -2.30634e-19)
(14.564 -27.1836 6.47345e-19)
(14.0857 -26.9795 -2.30601e-18)
(13.6411 -26.8341 1.62978e-18)
(13.2486 -26.7127 3.68914e-19)
(12.8256 -26.5697 1.84509e-19)
(12.4469 -26.4304 0)
(12.0795 -26.3259 2.28492e-20)
(11.7249 -26.1861 1.10234e-18)
(11.3733 -26.0479 -5.16529e-20)
(10.9958 -25.8404 2.0155e-19)
(10.5904 -25.6056 -9.49069e-19)
(10.4382 -25.2833 2.2095e-19)
(7.48238 -11.1303 1.37582e-18)
(16.4147 -23.1355 -2.34207e-18)
(18.2687 -26.9455 1.33743e-18)
(17.8019 -26.9346 1.15539e-18)
(17.1682 -26.7507 -7.17755e-20)
(16.5678 -26.5981 -8.08318e-19)
(15.9937 -26.3863 2.16425e-19)
(15.4335 -26.2099 2.30622e-19)
(14.9222 -26.0418 0)
(14.4503 -25.9418 0)
(13.9807 -25.7875 -1.32738e-18)
(13.5367 -25.6673 2.22148e-18)
(13.1331 -25.5685 -1.2126e-18)
(12.7239 -25.4485 0)
(12.3518 -25.3622 2.36005e-20)
(11.9769 -25.246 -1.03161e-18)
(11.6283 -25.1375 1.0101e-18)
(11.2602 -25.0077 -1.13866e-19)
(10.8621 -24.8121 -8.27776e-19)
(10.7022 -24.5025 5.68838e-19)
(7.93804 -10.8126 -1.21855e-18)
(17.0343 -22.1662 1.46998e-18)
(18.8804 -25.6911 0)
(18.3209 -25.5963 0)
(17.6543 -25.3879 2.19524e-19)
(16.9839 -25.2352 -1.07837e-18)
(16.4097 -25.0725 2.15439e-20)
(15.8238 -24.9616 7.60143e-19)
(15.2963 -24.8348 -1.30627e-18)
(14.7934 -24.7322 2.48645e-18)
(14.3119 -24.6444 -1.18225e-18)
(13.8928 -24.5957 2.63126e-19)
(13.4491 -24.5226 1.04962e-18)
(13.034 -24.434 4.1986e-20)
(12.6497 -24.4028 -6.4885e-19)
(12.2764 -24.3297 1.07222e-19)
(11.9105 -24.262 -7.87055e-19)
(11.5276 -24.1514 6.77347e-19)
(11.1259 -23.9975 2.05358e-20)
(10.9633 -23.7021 5.85599e-19)
(8.36996 -10.4955 0)
(17.5509 -21.1716 6.76812e-19)
(19.116 -24.1584 -7.90136e-19)
(18.4552 -24.1399 0)
(17.8195 -24.0174 -2.19524e-19)
(17.1591 -23.9554 7.03459e-19)
(16.5586 -23.815 -8.74204e-19)
(15.9679 -23.7146 0)
(15.4425 -23.6611 1.06211e-18)
(14.9456 -23.607 -1.0444e-18)
(14.4558 -23.5433 1.00028e-19)
(13.9849 -23.4638 -1.18051e-19)
(13.5641 -23.4443 -1.08322e-19)
(13.1368 -23.3745 -9.94679e-20)
(12.7403 -23.3564 -7.01953e-19)
(12.3611 -23.317 1.15817e-18)
(11.9959 -23.2935 -1.0572e-18)
(11.636 -23.272 9.66589e-19)
(11.2505 -23.183 -3.86188e-19)
(11.0881 -22.911 5.98611e-20)
(8.7545 -10.0309 0)
(17.937 -20.0931 -7.63767e-19)
(19.3869 -22.6572 4.44603e-19)
(18.734 -22.6689 5.35849e-19)
(18.1043 -22.5801 -5.8691e-20)
(17.4168 -22.5441 -5.28084e-20)
(16.8195 -22.4825 -5.52909e-19)
(16.2182 -22.4444 0)
(15.6433 -22.369 0)
(15.14 -22.3774 0)
(14.6373 -22.3557 -1.00026e-19)
(14.1972 -22.3739 0)
(13.748 -22.3734 -5.76434e-19)
(13.3021 -22.329 5.13302e-19)
(12.9006 -22.3444 -4.12468e-19)
(12.5104 -22.3319 7.71451e-19)
(12.1237 -22.3298 -3.5977e-19)
(11.7401 -22.3309 -3.10286e-19)
(11.3582 -22.3165 5.14207e-19)
(11.1906 -22.0355 -2.44186e-19)
(9.14066 -9.59854 0)
(18.234 -18.9673 0)
(19.5226 -21.2052 1.80747e-19)
(18.7169 -21.2394 1.6238e-19)
(18.0695 -21.1762 0)
(17.3793 -21.1995 4.21769e-19)
(16.7656 -21.1439 -4.14387e-19)
(16.1645 -21.1375 0)
(15.629 -21.1608 5.67883e-19)
(15.1075 -21.1489 -5.58412e-19)
(14.6168 -21.1888 0)
(14.1248 -21.155 -3.64219e-19)
(13.6984 -21.2285 1.05207e-19)
(13.2632 -21.2192 3.03364e-19)
(12.8322 -21.2375 0)
(12.4435 -21.2507 0)
(12.0343 -21.2798 0)
(11.6748 -21.3067 -6.44806e-20)
(11.2882 -21.3347 8.88811e-20)
(11.0747 -21.1339 0)
(1.3023 -31.0838 0)
(1.33945 -29.1242 0)
(0.749913 -28.2919 -4.63093e-21)
(0.719661 -27.118 -3.87763e-21)
(0.496607 -26.7718 0)
(0.42389 -26.0044 2.0354e-22)
(0.326087 -25.608 2.47206e-21)
(0.248362 -25.065 0)
(0.225577 -24.7612 1.54062e-21)
(0.162514 -24.4313 0)
(0.182521 -24.2391 -1.06861e-21)
(0.190447 -23.9981 -4.05849e-22)
(0.213653 -23.8503 4.08022e-22)
(0.290625 -23.7835 5.92505e-22)
(0.238379 -23.6248 0)
(0.360631 -23.4622 -8.97779e-23)
(0.332613 -23.0387 3.91454e-22)
(0.313551 -20.3446 0)
(0.205346 -14.8595 0)
(0.0656893 -6.24504 2.14736e-22)
(1.94125 -30.8842 3.14737e-20)
(1.83772 -29.065 0)
(1.18866 -28.3037 2.13952e-20)
(1.04622 -27.214 -1.29698e-20)
(0.76636 -26.8356 0)
(0.643402 -26.0444 -1.26717e-20)
(0.51176 -25.6357 4.83117e-21)
(0.379061 -25.097 0)
(0.337647 -24.7855 1.23432e-21)
(0.246271 -24.4498 -2.78991e-21)
(0.251204 -24.2556 2.98431e-21)
(0.240921 -24.0175 -3.51205e-21)
(0.255912 -23.8705 2.24954e-21)
(0.326833 -23.7922 -7.1304e-22)
(0.266502 -23.6352 -5.40417e-22)
(0.397654 -23.4752 3.50997e-22)
(0.349909 -23.0351 -5.93198e-22)
(0.334571 -20.3269 -6.27126e-22)
(0.213316 -14.8218 -1.02748e-22)
(0.0746093 -6.21378 -2.6841e-22)
(2.56354 -30.7133 -1.25466e-20)
(2.32219 -28.9342 -2.71456e-20)
(1.53901 -28.1054 -1.74971e-20)
(1.31257 -27.0067 0)
(0.98886 -26.679 0)
(0.801333 -25.9463 1.46029e-20)
(0.658524 -25.5473 -1.63102e-21)
(0.488366 -25.0278 -1.32996e-21)
(0.445636 -24.7293 -1.13001e-21)
(0.33107 -24.4146 -5.45113e-21)
(0.318396 -24.2392 0)
(0.289384 -24.0068 0)
(0.294013 -23.8735 0)
(0.360025 -23.7916 -2.24451e-21)
(0.291103 -23.6444 0)
(0.429363 -23.4883 -1.49798e-21)
(0.355515 -23.0325 1.02442e-21)
(0.353209 -20.3178 3.92747e-22)
(0.211826 -14.808 2.21958e-22)
(0.100898 -6.17356 8.29807e-22)
(3.16622 -30.4676 4.71516e-20)
(2.74849 -28.7916 -9.02911e-20)
(1.8894 -28.067 2.76674e-21)
(1.60363 -27.0668 3.19135e-20)
(1.24912 -26.7156 0)
(1.01247 -25.9641 1.83201e-20)
(0.836848 -25.5597 -4.18649e-20)
(0.613907 -25.0493 2.16648e-20)
(0.5509 -24.7468 -1.21248e-20)
(0.414305 -24.4241 4.39518e-21)
(0.389328 -24.2456 -4.48288e-22)
(0.34393 -24.0183 -3.01041e-21)
(0.338249 -23.8894 3.02508e-21)
(0.393695 -23.797 1.2248e-21)
(0.316153 -23.6542 1.02418e-21)
(0.460597 -23.4987 1.49709e-21)
(0.361475 -23.0298 -1.25938e-21)
(0.372677 -20.3123 4.67843e-22)
(0.201276 -14.786 -1.37075e-22)
(0.114428 -6.14003 -8.28458e-22)
(3.79678 -30.1983 1.14579e-19)
(3.24715 -28.6279 2.11768e-20)
(2.26258 -27.8584 -3.14372e-20)
(1.87117 -26.8577 4.49277e-20)
(1.46155 -26.5536 0)
(1.16067 -25.863 -9.6129e-21)
(0.975314 -25.4631 8.24216e-21)
(0.721352 -24.9715 0)
(0.654434 -24.6864 1.63122e-22)
(0.498653 -24.3836 0)
(0.453293 -24.225 -7.82556e-21)
(0.391335 -24.0037 0)
(0.375613 -23.888 0)
(0.423661 -23.7933 -4.0739e-21)
(0.338259 -23.6635 1.98509e-21)
(0.484896 -23.5085 -1.38616e-21)
(0.366978 -23.0294 0)
(0.394917 -20.3113 2.01918e-22)
(0.19247 -14.7788 -1.1198e-22)
(0.142732 -6.10458 0)
(4.36936 -29.9024 4.68397e-20)
(3.64338 -28.4161 -3.94451e-20)
(2.56571 -27.7642 7.51213e-20)
(2.14293 -26.8695 -7.40954e-20)
(1.71712 -26.5568 2.22215e-20)
(1.35768 -25.8586 9.64291e-21)
(1.14255 -25.4615 -1.55727e-20)
(0.842577 -24.983 -1.29027e-20)
(0.756134 -24.6972 5.5916e-21)
(0.583717 -24.3838 8.29433e-21)
(0.525437 -24.2207 -4.47106e-21)
(0.450524 -24.0079 0)
(0.419222 -23.8986 0)
(0.456614 -23.7944 -2.74219e-23)
(0.360642 -23.6715 -1.91587e-21)
(0.510409 -23.5166 1.38481e-21)
(0.370711 -23.0312 0)
(0.419843 -20.3138 -1.69374e-21)
(0.186165 -14.7736 -5.8062e-22)
(0.159802 -6.06971 -9.47213e-23)
(4.95647 -29.5344 -1.31893e-19)
(4.07464 -28.202 1.24655e-19)
(2.91896 -27.5416 -3.19519e-20)
(2.39484 -26.6693 0)
(1.93103 -26.3912 -2.2316e-20)
(1.50196 -25.7527 3.37512e-20)
(1.27264 -25.3593 -1.82461e-20)
(0.95056 -24.8991 1.29378e-20)
(0.853767 -24.6345 0)
(0.664877 -24.3397 0)
(0.587331 -24.1965 6.62046e-21)
(0.497263 -23.9886 -6.64421e-21)
(0.454379 -23.8917 0)
(0.482169 -23.7875 5.86567e-21)
(0.380124 -23.679 -1.84317e-21)
(0.530051 -23.5239 -1.19316e-21)
(0.373686 -23.0362 1.16452e-21)
(0.446087 -20.3212 2.06724e-21)
(0.178252 -14.7749 4.34692e-22)
(0.185887 -6.03911 1.82164e-22)
(5.5096 -29.1689 0)
(4.49521 -27.9328 -6.74776e-20)
(3.24504 -27.4044 6.7692e-20)
(2.65349 -26.6393 0)
(2.18044 -26.3629 0)
(1.68787 -25.7233 -3.26974e-20)
(1.43208 -25.3449 3.27878e-20)
(1.068 -24.9006 0)
(0.952015 -24.6373 9.3781e-21)
(0.748769 -24.3313 -1.71566e-20)
(0.657958 -24.1824 7.77463e-21)
(0.556051 -23.9852 5.23483e-21)
(0.494639 -23.8955 -5.2512e-21)
(0.511512 -23.784 0)
(0.399908 -23.6852 0)
(0.551842 -23.5307 -1.11584e-21)
(0.374504 -23.0452 1.5992e-21)
(0.47238 -20.3328 -8.31407e-23)
(0.168428 -14.7805 -4.05194e-22)
(0.207739 -6.00366 1.74903e-22)
(6.01678 -28.7309 7.75825e-20)
(4.83976 -27.6695 -7.76748e-20)
(3.5683 -27.1519 -8.23068e-20)
(2.89654 -26.4378 9.9514e-20)
(2.38901 -26.1937 -8.33032e-20)
(1.82409 -25.6117 6.20067e-21)
(1.55545 -25.2382 3.1719e-20)
(1.17538 -24.8115 0)
(1.04464 -24.5728 0)
(0.826028 -24.285 7.9467e-21)
(0.716517 -24.1547 0)
(0.600679 -23.9603 0)
(0.527195 -23.8824 0)
(0.535478 -23.7739 0)
(0.416413 -23.6903 0)
(0.565906 -23.5327 0)
(0.372827 -23.0569 -8.84491e-22)
(0.49786 -20.3491 8.59233e-22)
(0.156454 -14.7904 -1.31611e-22)
(0.231395 -5.97475 1.66303e-22)
(6.53501 -28.2753 -6.7068e-20)
(5.25954 -27.357 -1.06915e-19)
(3.90575 -26.9867 -2.3197e-20)
(3.15232 -26.3715 -1.52513e-20)
(2.63735 -26.1334 2.68135e-20)
(2.00907 -25.5574 5.27391e-20)
(1.71033 -25.2138 1.36503e-20)
(1.29035 -24.803 0)
(1.1404 -24.5668 -7.99062e-21)
(0.906596 -24.2678 1.70811e-20)
(0.783336 -24.1316 6.37787e-21)
(0.655721 -23.9498 5.04313e-21)
(0.5652 -23.8794 0)
(0.559185 -23.7658 3.26095e-21)
(0.434327 -23.6935 2.92751e-21)