/*--------------------------------*- C++ -*----------------------------------*\
  =========                 |
  \\      /  F ield         | OpenFOAM: The Open Source CFD Toolbox
   \\    /   O peration     | Website:  https://openfoam.org
    \\  /    A nd           | Version:  9
     \\/     M anipulation  |
\*---------------------------------------------------------------------------*/
FoamFile
{
    format      ascii;
    class       volScalarField;
    location    "6.2";
    object      p;
}
// * * * * * * * * * * * * * * * * * * * * * * * * * * * * * * * * * * * * * //

dimensions      [0 2 -2 0 0 0 0];

internalField   nonuniform List<scalar> 
46400
(
-158.609
-148.417
-129.963
-114.364
-99.9615
-86.7841
-74.8254
-63.734
-53.6014
-44.2174
-35.5277
-27.4304
-19.8885
-12.7846
-6.07729
0.296529
6.28543
12.5909
18.9224
21.718
-122.291
-112.392
-95.4435
-80.9976
-67.8376
-55.6838
-44.7346
-34.6354
-25.4566
-16.9684
-9.20389
-2.03442
4.58429
10.6966
16.4065
21.6913
26.5715
31.4244
35.8068
37.4635
-85.4072
-75.7806
-60.4102
-47.3131
-35.6024
-24.7532
-15.0404
-6.04429
2.09486
9.56862
16.4124
22.7219
28.5159
33.8657
38.7851
43.2947
47.3666
51.4261
54.6861
55.1612
-48.7114
-40.2559
-26.6914
-14.7395
-4.19292
5.62227
14.3498
22.3278
29.5214
36.0946
42.0434
47.4387
52.3571
56.8019
60.8956
64.5969
67.931
71.1949
73.9669
74.0552
-12.7406
-5.71538
6.33088
17.1344
26.4621
35.1193
42.7684
49.7849
56.0387
61.6939
66.8025
71.4359
75.6236
79.4072
82.8172
85.8825
88.5683
91.2251
93.4441
93.127
20.8746
26.8045
37.9966
47.8509
56.2952
64.0365
70.7632
76.814
82.1839
86.9966
91.2777
95.0748
98.484
101.496
104.201
106.605
108.704
110.782
112.507
111.948
52.8514
58.7363
69.0187
77.8948
85.2097
91.9263
97.6905
102.842
107.348
111.298
114.808
117.878
120.595
122.971
125.053
126.828
128.338
129.8
131.02
130.094
84.1298
90.6163
99.4811
107.252
113.49
119.121
123.912
128.069
131.695
134.82
137.546
139.869
141.884
143.589
145.068
146.323
147.337
148.343
149.217
148.143
115.059
122.245
129.065
135.532
140.592
145.064
148.861
152.083
154.853
157.151
159.112
160.74
162.09
163.172
164.03
164.662
165.11
165.558
165.886
164.595
145.09
152.261
157.437
162.311
166.295
169.64
172.491
174.786
176.707
178.231
179.459
180.378
181.09
181.572
181.901
182.04
181.997
181.956
181.807
180.229
173.948
179.514
183.702
187.226
190.189
192.509
194.439
195.902
197.059
197.854
198.408
198.69
198.768
198.646
198.388
197.979
197.449
196.927
196.316
194.545
199.791
203.975
207.182
209.673
211.725
213.244
214.414
215.155
215.627
215.782
215.742
215.473
215.056
214.459
213.741
212.894
211.927
210.968
209.933
207.904
222.758
226.117
228.58
230.295
231.63
232.378
232.876
232.938
232.797
232.332
231.692
230.833
229.845
228.707
227.479
226.143
224.721
223.314
221.847
219.583
242.557
245.142
246.995
248.015
248.765
248.974
248.923
248.496
247.878
247.009
245.994
244.784
243.457
241.994
240.44
238.795
237.068
235.362
233.648
231.123
260.56
262.534
263.821
264.286
264.479
264.117
263.512
262.526
261.342
259.933
258.393
256.711
254.939
253.073
251.146
249.153
247.103
245.081
243.068
240.478
275.383
276.717
277.576
277.572
277.338
276.623
275.673
274.419
272.973
271.297
269.475
267.509
265.45
263.295
261.09
258.819
256.503
254.198
251.924
249.128
289.41
289.999
290.322
289.752
289.029
287.755
286.306
284.552
282.669
280.599
278.437
276.154
273.811
271.399
268.953
266.47
263.948
261.449
259.002
256.124
299.748
299.735
299.558
298.677
297.623
296.207
294.579
292.715
290.656
288.449
286.091
283.636
281.089
278.48
275.822
273.144
270.431
267.754
265.163
262.141
308.519
308.328
307.631
306.408
304.874
303.081
301.044
298.847
296.492
294.026
291.456
288.819
286.12
283.385
280.62
277.844
275.044
272.275
269.619
266.58
312.787
312.731
312.193
311.176
309.812
308.027
306.024
303.719
301.284
298.663
295.963
293.159
290.304
287.398
284.468
281.529
278.567
275.642
272.814
269.69
-509.946
-509.099
-497.935
-480.105
-459.692
-440.505
-422.699
-405.905
-390.005
-374.986
-360.745
-347.174
-334.283
-321.982
-310.334
-299.119
-288.665
-278.607
-269.297
-260.402
-523.897
-522.866
-507.188
-487.091
-465.15
-444.578
-425.469
-407.661
-390.9
-375.119
-360.174
-346.067
-332.687
-319.966
-307.953
-296.454
-285.781
-275.487
-266.053
-256.944
-533.566
-531.028
-511.268
-489.405
-467.02
-445.861
-425.995
-407.454
-390.042
-373.664
-358.215
-343.587
-329.776
-316.689
-304.342
-292.553
-281.607
-271.085
-261.494
-252.2
-538.496
-535.144
-516.209
-491.384
-467.621
-445.373
-424.721
-405.44
-387.392
-370.515
-354.606
-339.663
-325.552
-312.217
-299.653
-287.701
-276.621
-265.953
-256.331
-246.852
-540.946
-534.716
-514.003
-488.755
-464.3
-441.497
-420.488
-400.906
-382.555
-365.367
-349.218
-333.979
-319.642
-306.125
-293.395
-281.309
-270.105
-259.293
-249.663
-240.08
-536.656
-531.454
-508.977
-482.962
-458.793
-435.712
-414.307
-394.409
-375.759
-358.352
-341.99
-326.659
-312.253
-298.664
-285.871
-273.79
-262.609
-251.842
-242.277
-232.626
-530.783
-525.232
-502.965
-475.568
-450.448
-427.134
-405.484
-385.414
-366.668
-349.182
-332.792
-317.388
-302.946
-289.368
-276.598
-264.56
-253.353
-242.643
-233.131
-223.471
-520.852
-514.983
-491.656
-464.21
-439.148
-415.756
-394.123
-374.121
-355.405
-337.989
-321.669
-306.404
-292.076
-278.625
-265.985
-254.104
-243.065
-232.525
-223.248
-213.629
-507.845
-501.032
-477.352
-449.986
-424.916
-401.794
-380.255
-360.387
-341.849
-324.574
-308.445
-293.321
-279.172
-265.912
-253.463
-241.775
-230.859
-220.495
-211.339
-201.8
-491.091
-483.558
-459.345
-432.44
-407.83
-385.071
-363.911
-344.384
-326.175
-309.235
-293.41
-278.629
-264.793
-251.823
-239.667
-228.275
-217.65
-207.583
-198.747
-189.345
-471.255
-462.985
-438.818
-412.372
-388.186
-365.954
-345.204
-326.088
-308.29
-291.729
-276.305
-261.87
-248.395
-235.796
-223.993
-212.948
-202.6
-192.859
-184.263
-175.034
-448.448
-439.728
-415.584
-389.644
-366.056
-344.5
-324.381
-305.832
-288.592
-272.55
-257.606
-243.671
-230.657
-218.476
-207.1
-196.462
-186.505
-177.17
-168.938
-159.948
-422.744
-413.704
-389.593
-364.828
-341.812
-320.945
-301.503
-283.558
-266.905
-251.433
-237.056
-223.624
-211.122
-199.451
-188.554
-178.389
-168.852
-159.963
-152.067
-143.321
-394.844
-385.664
-361.356
-337.875
-315.694
-295.591
-276.92
-259.702
-243.752
-228.914
-215.14
-202.317
-190.373
-179.213
-168.834
-159.144
-150.064
-141.661
-134.152
-125.728
-364.644
-355.36
-331.223
-308.818
-287.706
-268.453
-250.636
-234.183
-218.954
-204.829
-191.732
-179.513
-168.18
-157.607
-147.782
-138.639
-130.068
-122.177
-115.046
-106.897
-332.918
-323.412
-299.989
-278.525
-258.475
-240.166
-223.201
-207.561
-193.123
-179.681
-167.256
-155.704
-144.968
-134.965
-125.687
-117.039
-108.946
-101.569
-94.8213
-87.0141
-299.456
-289.891
-267.371
-246.982
-227.926
-210.579
-194.554
-179.753
-166.104
-153.459
-141.754
-130.847
-120.762
-111.354
-102.657
-94.5731
-87.0278
-80.1913
-73.8814
-66.4287
-265.381
-255.773
-234.114
-214.777
-196.792
-180.387
-165.27
-151.32
-138.504
-126.566
-115.582
-105.381
-95.9159
-87.1291
-78.9898
-71.4045
-64.3475
-58.0945
-52.2622
-45.1656
-230.086
-220.306
-199.647
-181.547
-164.671
-149.313
-135.205
-122.151
-110.159
-99.0455
-88.7518
-79.1684
-70.2969
-62.0147
-54.3581
-47.1841
-40.5687
-34.7662
-29.0764
-21.5384
-194.768
-184.963
-165.372
-148.376
-132.628
-118.237
-105.091
-92.9269
-81.785
-71.3901
-61.811
-52.8588
-44.4943
-36.6495
-29.2114
-22.1172
-15.5278
-9.28407
-2.30424
5.18572
-217.479
-170.6
-128.337
-102.313
-76.7626
-60.0513
-44.571
-33.0535
-23.3757
-15.1285
-8.90972
-2.90065
1.17252
5.5944
8.34021
11.5241
13.5464
15.0838
15.8638
16.2693
-213.647
-167.261
-125.058
-99.8472
-74.5105
-58.2516
-43.0544
-31.7455
-22.2676
-14.1534
-8.07651
-2.16803
1.79473
6.13746
8.7664
11.914
13.7071
15.3237
15.9103
16.3713
-208.38
-163.499
-121.662
-97.289
-72.2822
-56.4118
-41.4858
-30.3927
-21.1259
-13.1532
-7.22721
-1.42416
2.42992
6.69099
9.19035
12.3031
13.9173
15.6486
16.0475
16.5191
-203.103
-159.566
-118.058
-94.4252
-69.8522
-54.4056
-39.8395
-28.9448
-19.9157
-12.0727
-6.30539
-0.609455
3.12854
7.30009
9.68171
12.7403
14.1785
16.0319
16.2236
16.7111
-196.677
-154.901
-114.283
-91.5156
-67.4377
-52.3626
-38.142
-27.4517
-18.6686
-10.9673
-5.36768
0.217615
3.84318
7.916
10.1723
13.1835
14.488
16.4137
16.4161
16.9054
-190.047
-150.013
-110.252
-88.2923
-64.8138
-50.1601
-36.3625
-25.8682
-17.3542
-9.78414
-4.35683
1.11388
4.62072
8.59241
10.7298
13.6705
14.8424
16.7716
16.6406
17.1286
-182.256
-144.459
-106.031
-85.031
-62.2067
-47.9171
-34.534
-24.2399
-16.0001
-8.57612
-3.32928
2.02401
5.41699
9.27358
11.2871
14.1615
15.2299
17.1505
16.8956
17.3847
-174.161
-138.636
-101.525
-81.4431
-59.3923
-45.5229
-32.6201
-22.5275
-14.5807
-7.29449
-2.2299
3.00036
6.27448
10.0196
11.9102
14.6824
15.6584
17.5112
17.2104
17.6831
-164.996
-132.185
-96.8336
-77.8248
-56.5937
-43.0865
-30.6589
-20.7715
-13.1191
-5.98785
-1.1123
3.99206
7.15249
10.7707
12.532
15.2831
16.1037
17.8949
17.5862
18.0341
-155.346
-125.457
-91.8316
-73.8733
-53.5947
-40.5109
-28.6108
-18.9391
-11.5947
-4.61293
0.0739378
5.04604
8.08706
11.5924
13.2245
15.9984
16.5827
18.3034
18.0244
18.4162
-144.669
-118.174
-86.677
-69.8977
-50.6079
-37.8942
-26.5159
-17.0647
-10.0268
-3.21257
1.28032
6.11644
9.0563
12.3999
13.9148
16.6928
17.087
18.7381
18.5174
18.8353
-133.366
-110.598
-81.2034
-65.5948
-47.4358
-35.1565
-24.3372
-15.1232
-8.39998
-1.7505
2.54991
7.24371
10.0727
13.2825
14.7813
17.3818
17.5972
19.1818
19.0331
19.2857
-121.067
-102.547
-75.6204
-61.2616
-44.2607
-32.3773
-22.1083
-13.14
-6.72846
-0.26203
3.84113
8.38886
11.1251
14.1855
15.5786
18.0469
18.1165
19.6342
19.551
19.7388
-108.062
-94.2124
-69.759
-56.6291
-40.9202
-29.4963
-19.798
-11.0955
-4.99978
1.2839
5.19112
9.58494
12.2128
15.1755
16.3604
18.7424
18.6559
20.1015
20.025
20.2048
-93.9356
-85.4522
-63.8962
-52.0196
-37.6029
-26.6146
-17.4605
-9.02716
-3.23796
2.85022
6.5585
10.7944
13.3148
16.151
17.1652
19.4732
19.1855
20.5782
20.4563
20.6505
-78.8525
-76.1371
-57.6842
-47.0813
-34.1028
-23.6388
-15.0479
-6.90958
-1.42969
4.45982
7.97302
12.0446
14.4627
17.1837
18.0701
20.2277
19.7461
20.9586
20.8022
21.0887
-63.2819
-66.516
-51.335
-41.9208
-30.3837
-20.476
-12.465
-4.6624
0.486228
6.14301
9.44522
13.3399
15.6496
18.2439
19.0189
21.0424
20.3314
21.4149
21.0649
21.4794
-47.4256
-57.3553
-45.5788
-37.202
-26.9318
-17.5321
-9.98145
-2.46035
2.39722
7.85823
10.9536
14.6642
16.8678
19.3625
20.02
21.8979
20.8882
22.5722
21.4949
21.9648
-25.6763
-46.5673
-40.4728
-33.4075
-24.2774
-15.3864
-8.09203
-0.739082
3.95972
9.29975
12.2407
15.7982
17.946
20.3631
20.927
22.6578
21.322
22.6067
21.5004
22.234
-2.39099
-30.5043
-30.4213
-25.2328
-18.6351
-10.9063
-4.67723
2.0331
6.2574
11.1607
13.9134
17.2671
19.3673
21.5608
22.0359
23.5475
21.8519
21.5356
20.6481
22.7634
41.6091
51.448
40.7786
37.9828
31.0797
31.9093
28.2358
29.1946
27.9517
28.9938
29.144
30.09
30.2585
31.0632
31.3015
32.0162
31.4206
32.1652
29.821
35.1758
107.662
98.0907
75.8443
70.138
59.4355
54.9951
49.241
46.634
43.5586
41.993
40.4074
39.8871
39.2789
39.0891
38.6693
38.5627
38.2167
37.9314
37.1665
38.2169
119.331
109.241
96.9318
88.9631
80.9899
75.6366
70.1964
66.8842
63.433
61.264
58.844
57.1683
55.6463
54.5759
53.6831
52.859
52.4175
51.741
51.7383
52.145
127.464
119.248
109.13
102.081
94.3312
89.0048
83.4061
79.2276
75.0958
71.9483
68.949
66.5725
64.1717
62.2938
60.6102
59.3741
58.1561
57.4455
56.9811
56.8442
122.18
115.268
109.864
104.188
99.3785
94.6037
90.5435
86.8111
83.513
80.6315
78.0139
75.8072
73.8019
71.9595
70.2593
68.712
67.3682
65.9681
65.1753
65.0423
122.685
118.882
113.532
109.448
104.991
101.351
97.3395
94.151
90.7046
87.9456
85.0453
82.6743
80.2169
78.226
76.213
74.352
72.8367
71.3535
70.4374
70.042
118.533
115.457
113.136
109.994
106.914
103.927
101.048
98.3644
95.715
93.3703
90.9308
88.8804
86.6138
84.75
82.6383
80.8989
78.8547
77.1202
75.8491
75.2185
119.49
117.39
114.54
112.145
109.535
107.323
104.729
102.6
100.124
98.0957
95.7664
93.8366
91.6086
89.7516
87.5626
85.6911
83.4609
81.543
79.7051
79.0268
118.033
116.666
115.27
113.577
111.62
109.771
107.828
106.1
104.161
102.543
100.603
99.0589
97.0495
95.5349
93.3469
91.7251
89.1673
87.3465
84.7994
84.1167
119.042
117.911
116.175
114.957
113.334
112.139
110.464
109.197
107.575
106.285
104.678
103.374
101.706
100.343
98.4543
96.9414
94.432
92.855
89.7566
89.2289
119.603
118.838
117.858
116.922
115.747
114.755
113.631
112.671
111.556
110.674
109.558
108.736
107.577
106.786
105.474
104.664
102.771
102.268
97.8362
99.3082
120.142
119.576
118.707
118.142
117.272
116.694
115.837
115.289
114.479
113.991
113.302
112.913
112.338
112.047
111.548
111.41
110.817
111.026
111.388
113.143
121.517
121.158
120.578
120.202
119.652
119.31
118.84
118.582
118.24
118.103
117.925
117.902
118.003
118.097
118.698
118.866
120.235
120.283
123.084
124.077
122.274
122.035
121.594
121.391
121.002
120.877
120.569
120.564
120.368
120.555
120.517
120.998
121.233
122.116
122.81
124.181
125.431
127.592
130.602
131.59
123.539
123.411
123.148
123.079
122.89
122.927
122.832
123.034
123.077
123.498
123.74
124.456
124.929
126.076
126.97
128.536
129.984
132.437
134.329
138.774
124.23
124.141
123.956
123.938
123.83
123.924
123.92
124.173
124.304
124.742
124.987
125.665
126.082
127.169
127.792
129.294
130.206
132.193
133.073
144.033
125.109
125.06
124.969
125.007
125.016
125.175
125.294
125.568
125.804
126.225
126.634
127.259
127.891
128.736
129.363
130.539
131.361
132.969
134.174
136.843
125.635
125.601
125.486
125.498
125.46
125.643
125.798
126.148
126.388
126.873
127.174
127.778
128.124
128.836
129.419
130.3
130.795
131.859
132.021
141.668
126.081
126.056
126.103
126.196
126.338
126.531
126.688
126.883
127.087
127.378
127.686
128.137
128.506
129.125
129.478
130.18
130.428
131.772
131.912
132.801
126.202
126.2
126.234
126.326
126.419
126.588
126.732
126.961
127.191
127.54
127.858
128.293
128.681
129.195
129.627
130.212
130.604
131.271
131.479
138.901
232.917
231.03
228.665
225.486
221.679
217.073
211.914
205.738
199.267
191.503
182.685
173.454
163.354
152.783
141.55
129.392
117.045
103.663
90.2359
76.4349
204.93
204.009
202.703
201.151
199.269
196.988
194.683
191.504
188.887
185.105
179.955
175.737
171.275
167.268
162.688
157.977
153.03
147.081
140.06
132.183
168.272
167.673
166.887
166.052
164.982
163.909
162.523
161.201
159.501
157.847
155.872
153.846
151.704
148.823
145.092
141.798
138.466
135.72
132.679
130.192
156.507
156.08
155.606
155.046
154.418
153.736
152.896
152.106
151.022
150.017
148.846
147.608
146.279
145.096
143.073
140.915
138.982
137.369
135.46
134.025
141.645
141.334
140.939
140.545
140.095
139.601
139.076
138.483
137.837
137.235
136.422
135.804
134.872
134
132.917
131.693
129.957
128.489
126.755
125.416
136.416
136.184
135.945
135.673
135.372
135.06
134.661
134.301
133.814
133.398
132.808
132.339
131.766
131.225
130.589
129.969
128.921
127.811
126.844
125.904
129.775
129.544
129.293
129.014
128.708
128.36
128.008
127.631
127.213
126.809
126.343
125.885
125.312
124.839
124.047
123.231
122.223
121.417
120.462
119.736
127.627
127.443
127.243
127.022
126.771
126.488
126.182
125.863
125.518
125.157
124.778
124.378
123.943
123.493
123.075
122.589
122.091
121.698
121.248
120.885
124.545
124.343
124.126
123.883
123.648
123.433
123.213
122.921
122.589
122.242
121.902
121.57
121.237
120.921
120.607
120.269
119.912
119.593
119.267
118.981
123.696
123.55
123.39
123.212
123.025
122.827
122.634
122.438
122.242
122.042
121.847
121.643
121.44
121.23
121.02
120.802
120.571
120.331
120.074
119.818
123.258
123.15
123.042
122.933
122.823
122.702
122.572
122.43
122.281
122.116
121.945
121.762
121.578
121.383
121.187
120.984
120.782
120.585
120.382
120.189
123.365
123.255
123.146
123.036
122.927
122.819
122.706
122.582
122.457
122.32
122.177
122.02
121.86
121.686
121.511
121.335
121.168
120.998
120.825
120.648
123.932
123.851
123.765
123.677
123.586
123.492
123.397
123.299
123.2
123.097
122.994
122.884
122.774
122.657
122.539
122.414
122.289
122.156
122.026
121.888
124.304
124.227
124.15
124.07
123.989
123.905
123.819
123.732
123.643
123.552
123.459
123.365
123.27
123.173
123.075
122.975
122.875
122.772
122.668
122.563
125.069
125.005
124.94
124.874
124.808
124.741
124.673
124.605
124.535
124.466
124.395
124.324
124.253
124.18
124.108
124.034
123.962
123.886
123.813
123.736
125.547
125.482
125.418
125.353
125.29
125.225
125.162
125.099
125.037
124.974
124.913
124.852
124.791
124.731
124.671
124.613
124.554
124.497
124.438
124.383
126.156
126.098
126.04
125.983
125.927
125.872
125.818
125.766
125.714
125.664
125.614
125.566
125.519
125.472
125.427
125.382
125.338
125.296
125.254
125.214
126.605
126.542
126.48
126.418
126.356
126.295
126.235
126.176
126.119
126.065
126.015
125.972
125.931
125.893
125.858
125.825
125.791
125.761
125.731
125.705
126.889
126.84
126.793
126.746
126.696
126.647
126.6
126.556
126.514
126.473
126.431
126.389
126.35
126.314
126.28
126.249
126.219
126.192
126.166
126.145
127.007
126.95
126.895
126.841
126.79
126.741
126.694
126.648
126.605
126.563
126.523
126.485
126.448
126.413
126.38
126.349
126.322
126.297
126.274
126.252
98.1666
97.3026
93.8521
90.6378
87.5948
84.3544
80.9763
77.3882
73.5234
69.3398
64.8016
59.8194
54.3946
48.3486
41.7992
34.3603
26.4367
17.3305
6.91832
0.174773
111.371
111.349
109.321
107.029
104.783
102.309
99.583
96.6191
93.358
89.7654
85.8276
81.4691
76.668
71.3191
65.4544
58.8132
51.7486
43.4764
34.5564
28.6952
125.364
126.172
124.985
123.323
121.661
119.757
117.628
115.271
112.621
109.68
106.401
102.726
98.6312
93.9823
88.8479
82.9049
76.5108
68.8527
60.5567
56.2155
140.501
141.731
140.879
139.801
138.683
137.344
135.77
133.974
131.902
129.554
126.889
123.854
120.397
116.447
111.968
106.75
101
93.9939
86.043
81.7051
155.615
156.887
156.28
155.555
154.832
153.92
152.85
151.623
150.146
148.453
146.462
144.154
141.45
138.296
134.664
130.329
125.557
119.474
112.64
107.532
170.002
171.572
171.438
171.26
171.079
170.747
170.21
169.529
168.614
167.495
166.102
164.407
162.347
159.918
157.015
153.577
149.65
144.642
139.163
133.622
184.009
185.663
185.752
185.887
186.009
186.014
185.911
185.673
185.266
184.708
183.89
182.86
181.515
179.884
177.843
175.369
172.492
168.724
164.889
159.351
196.81
198.682
199.25
199.842
200.482
201.007
201.444
201.77
201.921
201.898
201.657
201.221
200.515
199.566
198.207
196.581
194.428
191.839
188.872
184.406
208.946
211.018
211.949
212.901
213.852
214.714
215.437
216.065
216.55
216.965
217.203
217.299
217.139
216.771
216.07
215.109
213.729
212.017
209.743
206.569
219.853
222.08
223.363
224.67
226.002
227.261
228.457
229.592
230.637
231.599
232.401
233.061
233.47
233.704
233.603
233.282
232.5
231.383
229.641
227.078
230.122
232.502
234.093
235.72
237.367
238.969
240.501
241.985
243.366
244.656
245.788
246.797
247.593
248.217
248.518
248.6
248.204
247.569
246.241
244.319
239.058
241.61
243.528
245.479
247.47
249.425
251.337
253.213
255.005
256.731
258.321
259.808
261.081
262.172
262.949
263.524
263.641
263.478
262.61
261.153
247.309
250.079
252.281
254.517
256.777
258.989
261.146
263.243
265.256
267.18
268.962
270.616
272.077
273.39
274.468
275.338
275.742
275.919
275.334
274.395
254.247
257.114
259.455
261.86
264.301
266.706
269.087
271.437
273.742
275.995
278.176
280.258
282.232
284.078
285.711
287.153
288.128
288.889
288.897
288.712
260.582
263.61
266.107
268.703
271.326
273.931
276.506
279.06
281.553
283.993
286.321
288.546
290.616
292.504
294.168
295.551
296.647
297.488
297.84
297.878
264.915
267.962
270.591
273.323
276.093
278.851
281.597
284.336
287.026
289.68
292.24
294.727
297.074
299.282
301.289
303.078
304.592
305.816
306.594
306.6
269.002
272.155
274.862
277.706
280.583
283.454
286.304
289.141
291.918
294.652
297.281
299.826
302.228
304.487
306.551
308.392
309.984
311.228
312.069
312.199
270.79
273.942
276.7
279.605
282.53
285.466
288.375
291.291
294.15
296.99
299.732
302.433
304.979
307.431
309.672
311.698
313.458
314.786
315.75
316.063
272.031
275.212
278.053
281.028
284.019
287.024
289.988
292.975
295.868
298.767
301.512
304.237
306.725
309.162
311.25
313.303
314.844
316.388
317.153
318.093
271.404
274.521
277.316
280.238
283.175
286.111
289.03
291.944
294.821
297.66
300.433
303.123
305.703
308.11
310.361
312.314
314.062
315.312
316.459
316.933
-148.292
-153.878
-159.515
-165.335
-171.237
-177.352
-183.561
-190.033
-196.597
-203.396
-210.426
-217.612
-225.117
-232.78
-240.204
-247.358
-254.244
-256.314
-258.696
-258.822
-141.868
-147.451
-153.075
-158.839
-164.811
-170.984
-177.293
-183.838
-190.543
-197.493
-204.59
-212.039
-219.619
-227.627
-235.424
-243.348
-250.258
-254.721
-258.275
-258.169
-135.206
-140.632
-146.262
-152.074
-158.022
-164.289
-170.642
-177.345
-184.173
-191.315
-198.699
-206.276
-214.192
-222.246
-230.844
-239.121
-247.073
-254.503
-256.514
-257.018
-127.85
-133.33
-138.942
-144.905
-150.869
-157.247
-163.705
-170.503
-177.518
-184.818
-192.397
-200.294
-208.529
-217.103
-226.036
-235.244
-244.598
-252.244
-255.373
-256.631
-120.076
-125.675
-131.201
-137.209
-143.228
-149.675
-156.252
-163.193
-170.38
-177.911
-185.77
-193.976
-202.587
-211.673
-221.054
-231.089
-241.298
-250.351
-256.222
-258.026
-111.988
-117.527
-122.993
-129.057
-135.059
-141.55
-148.209
-155.23
-162.565
-170.248
-178.328
-186.788
-195.782
-205.165
-215.153
-225.811
-236.856
-247.032
-255.466
-257.036
-102.997
-108.574
-114.018
-120.1
-126.152
-132.668
-139.399
-146.516
-153.972
-161.835
-170.103
-178.858
-188.118
-197.901
-208.428
-219.511
-231.154
-243.01
-252.437
-252.247
-93.8454
-99.5098
-104.719
-110.723
-116.671
-123.12
-129.85
-136.959
-144.476
-152.404
-160.832
-169.744
-179.286
-189.439
-200.351
-211.969
-224.465
-237.65
-247.983
-249.556
-83.9593
-89.3177
-94.3365
-100.196
-106.081
-112.44
-119.13
-126.243
-133.77
-141.765
-150.245
-159.29
-168.971
-179.305
-190.399
-202.339
-215.329
-228.844
-240.407
-242.855
-72.505
-77.9428
-82.8925
-88.6727
-94.5211
-100.817
-107.48
-114.527
-122.028
-129.997
-138.494
-147.562
-157.332
-167.745
-179.012
-191.174
-204.195
-218.244
-230.543
-233.548
-60.1774
-65.6332
-70.5283
-76.1801
-81.9325
-88.0842
-94.6183
-101.573
-108.961
-116.853
-125.28
-134.316
-144.057
-154.485
-165.864
-178.037
-191.424
-205.768
-218.956
-223.03
-47.7856
-53.0495
-57.63
-63.0015
-68.5489
-74.4886
-80.8417
-87.5886
-94.8053
-102.534
-110.795
-119.693
-129.289
-139.585
-150.83
-162.886
-176.096
-190.377
-204.072
-208.631
-33.9632
-39.0922
-43.5262
-48.6647
-54.0201
-59.7263
-65.8504
-72.4004
-79.3859
-86.8875
-94.9385
-103.624
-113.013
-123.129
-134.235
-146.034
-159.24
-173.373
-187.321
-192.545
-20.0469
-24.974
-29.0449
-33.8077
-38.8592
-44.2426
-50.0511
-56.2617
-62.9315
-70.1336
-77.8565
-86.2448
-95.2992
-105.099
-115.826
-127.306
-140.223
-153.97
-168.079
-173.703
-4.83076
-9.54715
-13.3582
-17.7666
-22.5252
-27.5835
-33.0662
-38.9773
-45.3137
-52.1645
-59.5569
-67.5885
-76.2683
-85.7222
-96.0696
-107.154
-119.762
-132.912
-147.095
-152.972
10.691
6.17854
2.721
-1.25837
-5.66689
-10.3566
-15.4533
-20.9538
-26.8929
-33.3523
-40.3156
-47.9222
-56.1509
-65.1486
-74.9668
-85.5935
-97.6852
-110.023
-124.579
-130.771
27.1465
22.9224
19.7821
16.2384
12.1921
7.8755
3.17059
-1.96084
-7.49606
-13.523
-20.058
-27.2028
-34.9242
-43.4257
-52.6468
-62.7639
-74.1198
-85.6644
-100.337
-106.882
43.645
39.7663
37.0502
34
30.3474
26.4054
22.1035
17.4097
12.299
6.70672
0.644964
-5.99847
-13.2092
-21.1526
-29.7777
-39.3141
-49.8128
-60.8469
-74.8261
-81.5788
62.1059
58.0104
55.4753
52.8231
49.4765
45.8241
41.8795
37.548
32.8394
27.6951
22.1013
15.9622
9.31084
1.93619
-6.04046
-14.9676
-24.723
-35.215
-48.3126
-54.9851
83.8535
79.7251
76.1207
72.9769
69.599
65.9127
62.0457
57.939
53.5169
48.7247
43.5622
37.9273
31.8136
25.0624
17.7514
9.54037
0.749712
-9.05247
-20.9108
-27.6142
60.1361
59.6803
59.1521
58.3602
56.0013
54.1148
51.1291
48.1273
43.9046
39.5201
33.1944
27.0196
17.9297
9.26959
-4.70412
-16.8958
-38.0261
-57.4906
-89.5532
-121.398
59.8485
59.3365
58.9404
58.1041
55.913
54.088
51.1884
48.2774
44.1455
39.8532
33.6764
27.6514
18.7934
10.3664
-3.35846
-14.9339
-35.8016
-53.7032
-85.124
-115.252
59.592
59.0336
58.7391
57.96
55.9267
54.1093
51.3189
48.4643
44.4007
40.1709
34.1462
28.2564
19.6476
11.4823
-1.85495
-13.0617
-33.3088
-50.2181
-80.7386
-108.552
59.3307
58.6892
58.555
57.7203
55.9157
54.0794
51.45
48.6738
44.7106
40.5689
34.8271
29.0402
20.674
12.7184
-0.132167
-10.9523
-30.4591
-46.3454
-75.8985
-101.916
59.1284
58.3996
58.413
57.6035
56.0006
54.1726
51.7245
48.9266
45.0367
40.9507
35.7136
29.7219
21.6758
14.0427
1.60378
-8.80564
-27.6304
-42.63
-70.9368
-94.7135
58.921
58.0926
58.3198
57.3947
56.0294
54.2474
51.9623
49.2104
45.4019
41.416
36.4598
30.4917
22.8299
15.4906
3.47582
-6.43384
-24.3667
-38.4272
-65.7256
-87.3421
58.7912
57.8292
58.2395
57.3636
56.1413
54.4087
52.2484
49.5565
45.7776
41.8224
36.9058
31.3569
23.98
16.9803
5.40014
-4.02369
-21.1958
-34.2859
-60.3079
-79.3763
58.5715
57.5881
58.2009
57.2614
56.1962
54.6248
52.4764
49.8768
46.1602
42.3776
37.4593
32.2917
25.2876
18.5816
7.46505
-1.40006
-17.6906
-29.7805
-54.5964
-71.3651
58.4753
57.3108
58.1791
57.32
56.3345
54.881
52.8072
50.3409
46.563
42.8569
38.1798
33.2876
26.585
20.2278
9.60306
1.31373
-14.2206
-25.3535
-48.5319
-62.8096
58.3268
57.002
58.1493
57.3419
56.4139
55.1828
53.1037
50.793
46.9666
43.4542
39.1345
34.312
28.0362
21.9935
11.8907
4.14403
-10.4822
-20.5322
-42.0191
-52.3743
58.3663
56.6732
58.2052
57.4832
56.5821
55.5621
53.4726
51.2932
47.3955
44.0153
40.0252
35.3826
29.4808
23.7915
14.256
7.08981
-6.69703
-15.8199
-35.4527
-42.7364
58.2817
56.5157
58.2871
57.5987
56.6859
56.1557
53.8805
51.7848
47.7787
44.6373
40.974
36.5111
31.0648
25.7102
16.7571
10.1057
-2.71173
-10.8413
-28.3119
-33.1311
58.3629
56.3562
58.4695
57.8269
56.9236
56.688
54.3174
52.4006
48.1794
45.2874
41.9067
37.7308
32.6623
27.6579
19.3397
13.2261
1.34168
-5.83829
-21.1063
-22.3682
58.6177
56.193
58.6691
58.0221
57.0893
57.3009
54.7372
52.9522
48.5359
45.953
42.9374
39.0155
34.3765
29.7287
22.0427
16.4122
5.52542
-0.629543
-13.4087
-11.5507
58.9085
56.0535
58.9353
58.3617
57.2921
57.9148
55.2813
53.5255
48.8616
46.5757
43.9516
40.3819
36.1147
31.8218
24.7859
19.6469
9.74387
4.66439
-5.69616
0.283967
59.226
55.9169
59.3089
58.6669
57.4616
58.6737
56.0074
54.1214
49.097
47.3058
45.0424
41.808
37.9433
34.0193
27.625
22.9608
14.0671
10.3095
2.61983
12.5496
59.6333
55.5328
59.7296
59.0693
57.722
59.5778
56.6811
55.5387
49.611
48.2589
46.2718
43.4216
39.9469
36.3614
30.6471
26.4692
18.6587
16.1612
11.0653
25.2538
60.1365
55.5251
59.7722
59.3671
57.8882
60.4906
56.8092
56.2096
49.8457
48.9386
47.4273
45.0151
41.9073
38.6621
33.5229
29.8094
22.7409
21.645
18.4695
37.3707
59.8591
55.2016
59.3492
59.6785
58.1425
61.2046
57.1216
56.2085
49.7949
49.0627
48.0244
46.1894
43.4085
40.5163
35.7172
32.4168
26.1352
27.6745
27.5473
54.3998
60.9053
53.4578
60.4073
60.0922
60.3903
62.3524
59.7366
57.7168
52.228
51.119
50.3012
48.5455
46.4123
43.7794
40.4004
37.4424
33.2338
36.536
43.1227
74.7364
85.3574
57.4153
80.4693
72.2216
81.3251
74.0903
79.9537
76.3183
81.2284
76.1689
75.9761
72.1192
73.9676
71.2786
76.6838
75.391
86.9554
85.9723
107.471
107.628
78.4016
76.3273
78.4762
76.8346
80.0355
78.0344
81.9422
80.0641
82.6588
81.8232
84.028
83.8944
87.1015
88.3162
93.6932
97.1487
107.603
114.346
132.992
143.787
88.2711
86.8646
88.5053
88.7479
90.1281
90.9807
91.5628
92.6939
93.7169
94.8205
96.1001
97.7176
100.367
103.452
108.272
113.118
120.404
127.228
137.559
147.452
90.4206
90.335
90.837
91.6517
92.5001
93.7075
94.8017
96.2892
97.871
99.6898
102.087
104.66
107.83
111.151
115.135
120.015
125.646
132.237
139.345
145.867
94.7233
94.8394
95.5242
96.8626
97.8736
99.259
100.474
102.037
103.569
105.394
107.268
109.589
112.046
115.027
118.02
121.772
125.389
129.789
134.011
139.357
96.7879
96.8286
97.6035
98.9636
99.97
101.624
102.981
104.757
106.451
108.443
110.501
112.765
115.02
117.679
120.314
123.515
126.227
129.866
132.009
135.168
98.7574
99.1359
99.9925
101.411
102.741
104.388
105.834
107.445
109.011
110.674
112.377
114.131
115.942
117.905
119.735
121.912
123.814
126.171
128.249
130.442
100.314
100.799
101.803
103.487
104.96
106.6
108.151
109.719
111.355
112.9
114.557
116.147
117.859
119.429
121.212
123.026
124.453
125.97
126.702
128.219
100.972
102.069
102.989
105.23
106.691
108.487
109.985
111.421
112.897
114.146
115.561
116.738
118.031
119.22
120.298
121.243
122.431
123.698
124.696
125.529
103.342
103.949
105.928
107.515
109.683
110.996
112.757
113.902
115.401
116.443
117.738
118.727
119.833
120.793
121.802
122.858
123.555
124.073
124.44
124.868
105.925
106.303
108.973
110.421
112.517
113.715
115.23
116.194
117.379
118.188
119.164
119.849
120.699
121.247
121.961
122.228
122.807
123.152
123.732
124.044
111.344
111.172
114.392
115.052
117.004
117.759
118.947
119.549
120.441
120.955
121.651
122.132
122.648
123.101
123.58
123.913
124.231
124.302
124.474
124.372
120.835
118.862
121.318
120.768
122.135
122.149
122.916
122.977
123.5
123.571
123.97
124.035
124.377
124.469
124.623
124.674
124.73
124.754
124.87
124.821
132.806
130.841
129.163
128.806
128.167
127.874
127.512
127.24
127.064
126.796
126.717
126.466
126.438
126.209
126.223
125.984
125.999
125.801
125.623
125.388
139.461
138.578
135.264
134.381
132.752
131.782
130.9
130.104
129.579
128.983
128.646
128.199
127.965
127.594
127.401
127.095
126.918
126.642
126.479
126.2
144.849
142.848
140.833
138.454
137.262
135.51
134.612
133.319
132.619
131.637
131.08
130.32
129.859
129.262
128.868
128.382
128.033
127.632
127.323
126.973
153.107
144.051
143.099
140.343
139.222
137.32
136.319
134.923
134.082
133.025
132.331
131.506
130.935
130.274
129.798
129.258
128.852
128.402
128.051
127.666
150.251
146.271
144.845
142.252
141.087
139.243
138.156
136.713
135.75
134.601
133.767
132.846
132.127
131.383
130.768
130.159
129.637
129.138
128.695
128.286
151.222
144.335
143.834
142.106
141.12
139.503
138.505
137.155
136.22
135.105
134.269
133.345
132.619
131.851
131.23
130.589
130.043
129.521
129.055
128.616
148.597
146.051
145.058