/*--------------------------------*- C++ -*----------------------------------*\
  =========                 |
  \\      /  F ield         | OpenFOAM: The Open Source CFD Toolbox
   \\    /   O peration     | Website:  https://openfoam.org
    \\  /    A nd           | Version:  9
     \\/     M anipulation  |
\*---------------------------------------------------------------------------*/
FoamFile
{
    format      ascii;
    class       surfaceScalarField;
    location    "6.2";
    object      phi;
}
// * * * * * * * * * * * * * * * * * * * * * * * * * * * * * * * * * * * * * //

dimensions      [0 3 -1 0 0 0 0];

internalField   nonuniform List<scalar> 
92080
(
-0.00490684
-0.537965
0.542871
-0.033024
-1.08174
1.10986
-0.0788364
-1.1971
1.24291
-0.126254
-1.17773
1.22515
-0.172548
-1.15739
1.20368
-0.218033
-1.13809
1.18357
-0.262319
-1.11998
1.16426
-0.305775
-1.1024
1.14586
-0.348424
-1.08611
1.12875
-0.390362
-1.07058
1.11252
-0.432223
-1.05593
1.09779
-0.472774
-1.04242
1.08297
-0.512783
-1.02923
1.06924
-0.552631
-1.0171
1.05695
-0.591065
-1.00549
1.04392
-0.628741
-0.993662
1.03134
-0.665552
-0.982089
1.0189
-0.702042
-0.969582
1.00607
-0.737502
-0.957971
0.993431
-0.950583
0.981984
-0.768903
-0.00616378
-0.531801
-0.0357106
-1.05219
-0.0827248
-1.15008
-0.13018
-1.13027
-0.176635
-1.11093
-0.222833
-1.09189
-0.268689
-1.07412
-0.314182
-1.05691
-0.358959
-1.04133
-0.40283
-1.02671
-0.445716
-1.01304
-0.488706
-0.999431
-0.530704
-0.98723
-0.572094
-0.975711
-0.612921
-0.964659
-0.652243
-0.95434
-0.690099
-0.944234
-0.725916
-0.933765
-0.760065
-0.923822
-0.917261
-0.793388
-0.00792355
-0.523877
-0.0403627
-1.01975
-0.0902353
-1.10021
-0.140625
-1.07988
-0.189646
-1.06191
-0.237622
-1.04391
-0.284106
-1.02764
-0.329764
-1.01125
-0.375318
-0.995775
-0.420654
-0.981374
-0.465094
-0.968602
-0.508174
-0.956351
-0.551373
-0.944031
-0.593434
-0.93365
-0.635076
-0.923017
-0.676412
-0.913003
-0.716633
-0.904012
-0.756166
-0.894232
-0.796007
-0.88398
-0.877741
-0.835527
-0.00938452
-0.514493
-0.0442474
-0.984889
-0.0942693
-1.05019
-0.144547
-1.02961
-0.194058
-1.0124
-0.243409
-0.99456
-0.29263
-0.978415
-0.340655
-0.963226
-0.387353
-0.949077
-0.433617
-0.93511
-0.479951
-0.922267
-0.525353
-0.910949
-0.569814
-0.89957
-0.61433
-0.889134
-0.657443
-0.879904
-0.700762
-0.869685
-0.743407
-0.861367
-0.783619
-0.854021
-0.823454
-0.844144
-0.836374
-0.864821
-0.0105264
-0.503966
-0.0505058
-0.94491
-0.102861
-0.997834
-0.154836
-0.97763
-0.205599
-0.961637
-0.255048
-0.945111
-0.303657
-0.929806
-0.352425
-0.914458
-0.400629
-0.900873
-0.447626
-0.888114
-0.494315
-0.875578
-0.540933
-0.864332
-0.586952
-0.85355
-0.632697
-0.843389
-0.677707
-0.834894
-0.721585
-0.825807
-0.767158
-0.815793
-0.81194
-0.809238
-0.854358
-0.801727
-0.79383
-0.896902
-0.00963907
-0.494327
-0.0531324
-0.901417
-0.105434
-0.945532
-0.158325
-0.924739
-0.21093
-0.909031
-0.26318
-0.892861
-0.314309
-0.878677
-0.363984
-0.864784
-0.413934
-0.850922
-0.463051
-0.838996
-0.511404
-0.827225
-0.558786
-0.81695
-0.60558
-0.806756
-0.652445
-0.796524
-0.699303
-0.788036
-0.743793
-0.781317
-0.787633
-0.771953
-0.833167
-0.763705
-0.877714
-0.75718
-0.749837
-0.921708
-0.00814408
-0.486183
-0.0544265
-0.855134
-0.109654
-0.890304
-0.163602
-0.870791
-0.21661
-0.856023
-0.268868
-0.840603
-0.321427
-0.826119
-0.372529
-0.813681
-0.422379
-0.801072
-0.471936
-0.78944
-0.521225
-0.777936
-0.570654
-0.767521
-0.618669
-0.758741
-0.666251
-0.748943
-0.715384
-0.738902
-0.764605
-0.732096
-0.811009
-0.725549
-0.857134
-0.71758
-0.903429
-0.710885
-0.704189
-0.949077
-0.00507669
-0.481106
-0.0527911
-0.80742
-0.110522
-0.832573
-0.167525
-0.813788
-0.223189
-0.800359
-0.276739
-0.787052
-0.329451
-0.773407
-0.38218
-0.760952
-0.434228
-0.749024
-0.485306
-0.738363
-0.535257
-0.727985
-0.585475
-0.717303
-0.635559
-0.708657
-0.6828
-0.701702
-0.729234
-0.692468
-0.777562
-0.683768
-0.826016
-0.677096
-0.873007
-0.670588
-0.919837
-0.664055
-0.657531
-0.966495
-0.0021585
-0.478948
-0.0531237
-0.756455
-0.112413
-0.773284
-0.169331
-0.75687
-0.226594
-0.743096
-0.28276
-0.730887
-0.337514
-0.718653
-0.390772
-0.707694
-0.443209
-0.696587
-0.494905
-0.686667
-0.545382
-0.677508
-0.594901
-0.667784
-0.646576
-0.656981
-0.698876
-0.649402
-0.74856
-0.642784
-0.797078
-0.63525
-0.846057
-0.628117
-0.894754
-0.621891
-0.942438
-0.616371
-0.610712
-0.989257
-0.00232063
-0.476627
-0.056521
-0.702254
-0.119507
-0.710299
-0.178641
-0.697735
-0.235288
-0.686449
-0.290834
-0.675341
-0.345534
-0.663953
-0.399155
-0.654073
-0.452113
-0.643629
-0.505107
-0.633673
-0.557314
-0.625301
-0.606876
-0.618222
-0.654536
-0.609321
-0.703914
-0.600024
-0.754213
-0.592486
-0.803611
-0.585852
-0.852561
-0.579167
-0.901664
-0.572788
-0.950766
-0.567269
-0.562153
-0.999325
-0.00842459
-0.468203
-0.0630821
-0.647597
-0.122865
-0.650516
-0.18175
-0.638851
-0.240171
-0.628027
-0.296483
-0.619029
-0.352743
-0.607693
-0.408207
-0.598609
-0.461861
-0.589975
-0.514822
-0.580712
-0.568654
-0.571469
-0.622594
-0.564282
-0.674206
-0.557709
-0.724098
-0.550132
-0.773896
-0.542687
-0.823756
-0.535992
-0.87307
-0.529853
-0.922027
-0.523831
-0.97089
-0.518407
-0.513772
-1.01927
-0.0166746
-0.451528
-0.0738729
-0.590398
-0.135428
-0.588961
-0.194444
-0.579835
-0.253616
-0.568854
-0.310987
-0.561658
-0.366325
-0.552355
-0.421423
-0.543511
-0.475094
-0.536304
-0.526914
-0.528892
-0.577546
-0.520837
-0.628919
-0.512908
-0.680235
-0.506393
-0.730526
-0.499841
-0.780142
-0.493071
-0.82925
-0.486885
-0.878046
-0.481056
-0.926639
-0.475238
-0.975266
-0.46978
-0.464894
-1.02414
-0.0255419
-0.425986
-0.0847587
-0.531182
-0.14713
-0.526589
-0.206018
-0.520948
-0.263635
-0.511237
-0.321022
-0.50427
-0.376568
-0.496809
-0.432775
-0.487304
-0.489627
-0.479453
-0.545553
-0.472966
-0.599375
-0.467015
-0.652133
-0.46015
-0.704054
-0.454473
-0.754845
-0.44905
-0.804717
-0.443199
-0.854198
-0.437404
-0.903028
-0.432227
-0.951213
-0.427052
-0.999139
-0.421855
-0.417328
-1.0467
-0.0321504
-0.393836
-0.0895673
-0.473765
-0.148672
-0.467485
-0.207792
-0.461828
-0.266041
-0.452988
-0.324376
-0.445934
-0.380968
-0.440218
-0.434118
-0.434154
-0.486892
-0.426678
-0.54068
-0.419178
-0.594404
-0.413292
-0.64743
-0.407124
-0.701022
-0.40088
-0.753961
-0.396111
-0.805876
-0.391284
-0.857474
-0.385806
-0.908459
-0.381242
-0.95891
-0.376601
-1.00861
-0.372158
-0.367584
-1.05835
-0.0390003
-0.354836
-0.0979425
-0.414823
-0.159761
-0.405666
-0.220194
-0.401395
-0.278055
-0.395127
-0.336358
-0.387631
-0.395016
-0.38156
-0.452342
-0.376828
-0.507198
-0.371822
-0.560018
-0.366358
-0.613069
-0.360241
-0.664578
-0.355615
-0.715512
-0.349947
-0.766823
-0.3448
-0.817123
-0.340984
-0.866748
-0.33618
-0.916248
-0.331742
-0.965386
-0.327463
-1.01398
-0.323559
-0.319485
-1.06208
-0.0426265
-0.312209
-0.100453
-0.356997
-0.159595
-0.346524
-0.21781
-0.34318
-0.275519
-0.337418
-0.331531
-0.331618
-0.387551
-0.32554
-0.445001
-0.319379
-0.502305
-0.314518
-0.557769
-0.310893
-0.612301
-0.305709
-0.666221
-0.301695
-0.718718
-0.29745
-0.771146
-0.292372
-0.823478
-0.288652
-0.874779
-0.28488
-0.925298
-0.281223
-0.975461
-0.277301
-1.02518
-0.27384
-0.270168
-1.0745
-0.048043
-0.264166
-0.107608
-0.297431
-0.167828
-0.286304
-0.229869
-0.28114
-0.290941
-0.276346
-0.351542
-0.271017
-0.408896
-0.268186
-0.464001
-0.264274
-0.518454
-0.260065
-0.572873
-0.256475
-0.625688
-0.252894
-0.678782
-0.248601
-0.730515
-0.245717
-0.781163
-0.241724
-0.832135
-0.23768
-0.882485
-0.23453
-0.932722
-0.230986
-0.982071
-0.227951
-1.03128
-0.224627
-0.221476
-1.07998
-0.0544111
-0.209755
-0.116508
-0.235335
-0.173993
-0.228819
-0.230586
-0.224547
-0.286037
-0.220894
-0.341132
-0.215923
-0.397493
-0.211825
-0.452786
-0.208981
-0.507977
-0.204873
-0.56316
-0.201292
-0.61733
-0.198724
-0.671372
-0.194558
-0.725352
-0.191737
-0.777994
-0.189082
-0.829976
-0.185698
-0.881578
-0.182928
-0.932658
-0.179905
-0.983293
-0.177316
-1.03322
-0.174695
-0.172266
-1.08244
-0.0627215
-0.147033
-0.131225
-0.166831
-0.194189
-0.165855
-0.253802
-0.164934
-0.311006
-0.16369
-0.365957
-0.160972
-0.420691
-0.157091
-0.475589
-0.154082
-0.529046
-0.151417
-0.582621
-0.147717
-0.635588
-0.145757
-0.687148
-0.142998
-0.738707
-0.140178
-0.790058
-0.137731
-0.840208
-0.135548
-0.890173
-0.132963
-0.939159
-0.130918
-0.988139
-0.128337
-1.03659
-0.126248
-0.123839
-1.08501
-0.0454623
-0.101571
-0.0993397
-0.112953
-0.158627
-0.106568
-0.218938
-0.104623
-0.279463
-0.103164
-0.340916
-0.0995195
-0.398346
-0.0996616
-0.455868
-0.0965599
-0.511562
-0.0957225
-0.566437
-0.0928421
-0.621334
-0.0908604
-0.675336
-0.0889958
-0.728232
-0.0872829
-0.780824
-0.0851394
-0.832854
-0.0835172
-0.884377
-0.0814399
-0.935424
-0.0798717
-0.985852
-0.0779092
-1.03567
-0.0764341
-1.085
-0.074501
0.0443825
-0.202116
0.157733
0.136216
-0.807374
0.71554
0.21205
-1.36991
1.29408
0.243568
-1.60297
1.57146
0.253414
-1.62878
1.61893
0.25709
-1.61757
1.61389
0.258293
-1.59623
1.59502
0.259128
-1.5777
1.57687
0.259432
-1.56096
1.56066
0.258987
-1.54556
1.54601
0.258057
-1.53101
1.53194
0.256538
-1.51677
1.51829
0.254388
-1.50259
1.50474
0.251749
-1.48839
1.49103
0.248345
-1.47386
1.47726
0.244384
-1.45721
1.46117
0.239862
-1.43835
1.44287
0.23535
-1.4172
1.42171
0.230468
-1.40002
1.4049
-1.38304
0.225695
1.38781
0.048754
-0.25087
0.12731
-0.88593
0.18835
-1.43095
0.209053
-1.62368
0.214536
-1.63426
0.214636
-1.61767
0.214202
-1.59579
0.213281
-1.57678
0.211501
-1.55918
0.209113
-1.54317
0.206001
-1.5279
0.202427
-1.51319
0.198436
-1.4986
0.19403
-1.48399
0.189336
-1.46916
0.184193
-1.45207
0.178548
-1.43271
0.172665
-1.41132
0.166958
-1.39431
-1.37781
0.161729
0.0509292
-0.301799
0.116932
-0.951933
0.162971
-1.47699
0.173477
-1.63418
0.173939
-1.63473
0.170762
-1.61449
0.168
-1.59303
0.164714
-1.5735
0.161055
-1.55552
0.156875
-1.53899
0.152255
-1.52328
0.147019
-1.50796
0.141269
-1.49285
0.135204
-1.47792
0.128629
-1.46259
0.121762
-1.4452
0.114719
-1.42566
0.10778
-1.40438
0.100612
-1.38715
-1.37047
0.093276
0.0387051
-0.340504
0.0942881
-1.00752
0.132897
-1.5156
0.139693
-1.64098
0.137929
-1.63296
0.133578
-1.61014
0.128973
-1.58842
0.12375
-1.56827
0.117813
-1.54958
0.111354
-1.53253
0.104373
-1.5163
0.0971774
-1.50076
0.0896576
-1.48533
0.0818301
-1.47009
0.0739251
-1.45468
0.0658656
-1.43714
0.0575803
-1.41738
0.0491691
-1.39597
0.0405721
-1.37855
-1.36213
0.0322344
0.038861
-0.379365
0.088631
-1.05729
0.114056
-1.54103
0.113903
-1.64083
0.107019
-1.62608
0.0993389
-1.60246
0.0914461
-1.58053
0.0833947
-1.56022
0.0750943
-1.54128
0.0664696
-1.52391
0.0575592
-1.50738
0.0481262
-1.49133
0.0383795
-1.47559
0.0284487
-1.46016
0.0183128
-1.44455
0.00819826
-1.42703
-0.00174013
-1.40744
-0.0116643
-1.38604
-0.0215967
-1.36862
-1.35203
-0.0317037
0.0308055
-0.410171
0.074369
-1.10085
0.0905633
-1.55722
0.0849415
-1.6352
0.0756461
-1.61678
0.0661457
-1.59296
0.0562887
-1.57068
0.046075
-1.55001
0.0355061
-1.53072
0.0245738
-1.51298
0.0133319
-1.49614
0.00208141
-1.48008
-0.00934905
-1.46416
-0.0209402
-1.44857
-0.0324594
-1.43303
-0.0438523
-1.41564
-0.0551909
-1.3961
-0.0664849
-1.37475
-0.0783357
-1.35677
-1.34032
-0.0900415
0.0252307
-0.435401
0.0602153
-1.13583
0.0704559
-1.56746
0.0622176
-1.62697
0.0498924
-1.60446
0.0375381
-1.58061
0.0247948
-1.55793
0.0119408
-1.53715
-0.00117177
-1.5176
-0.0144806
-1.49967
-0.028006
-1.48262
-0.0419065
-1.46618
-0.0558905
-1.45017
-0.070012
-1.43445
-0.0840432
-1.419
-0.0977984
-1.40188
-0.111176
-1.38272
-0.124399
-1.36153
-0.137657
-1.34351
-1.32688
-0.151096
0.0236214
-0.459023
0.0521661
-1.16438
0.0540576
-1.56935
0.0406618
-1.61357
0.0253276
-1.58912
0.00980273
-1.56508
-0.00572564
-1.5424
-0.0213436
-1.52154
-0.0369689
-1.50198
-0.0526931
-1.48394
-0.0684515
-1.46686
-0.0840764
-1.45055
-0.0997954
-1.43445
-0.115485
-1.41876
-0.131082
-1.4034
-0.146318
-1.38664
-0.161138
-1.3679
-0.175847
-1.34682
-0.191109
-1.32825
-1.31167
-0.206316
0.0206047
-0.479627
0.0425717
-1.18635
0.0378344
-1.56462
0.0210774
-1.59681
0.00289274
-1.57094
-0.0149965
-1.54719
-0.0331935
-1.52421
-0.0512939
-1.50344
-0.0695125
-1.48376
-0.087881
-1.46558
-0.106362
-1.44838
-0.124961
-1.43195
-0.143442
-1.41597
-0.162008
-1.4002
-0.180202
-1.38521
-0.198057
-1.36879
-0.21528
-1.35068
-0.232056
-1.33004
-0.249012
-1.31129
-1.29468
-0.266003
0.0175284
-0.497156
0.0342023
-1.20302
0.0242376
-1.55465
0.00369748
-1.57627
-0.0174078
-1.54983
-0.0385927
-1.52601
-0.0595392
-1.50326
-0.0805242
-1.48245
-0.101302
-1.46298
-0.121887
-1.44499
-0.142382
-1.42788
-0.162754
-1.41158
-0.18297
-1.39576
-0.203117
-1.38005
-0.223217
-1.36511
-0.24262
-1.34939
-0.261323
-1.33198
-0.279591
-1.31177
-0.298136
-1.29275
-1.27617
-0.316647
0.0147065
-0.511862
0.0251829
-1.2135
0.00933267
-1.5388
-0.0141435
-1.5528
-0.0378131
-1.52616
-0.0612541
-1.50257
-0.0849256
-1.47959
-0.108337
-1.45904
-0.131755
-1.43956
-0.155266
-1.42148
-0.178634
-1.40451
-0.201905
-1.38831
-0.224988
-1.37267
-0.247895
-1.35714
-0.270381
-1.34262
-0.292622
-1.32715
-0.313941
-1.31066
-0.334357
-1.29136
-0.354802
-1.2723
-1.25594
-0.375037
0.0122691
-0.524132
0.0182126
-1.21944
-0.00091406
-1.51967
-0.0275527
-1.52616
-0.0542124
-1.4995
-0.0806854
-1.47609
-0.106783
-1.45349
-0.132925
-1.4329
-0.158753
-1.41373
-0.184214
-1.39602
-0.209662
-1.37907
-0.234953
-1.36302
-0.259863
-1.34776
-0.284792
-1.33221
-0.309496
-1.31792
-0.333235
-1.30341
-0.356158
-1.28773
-0.378186
-1.26933
-0.40014
-1.25035
-1.23406
-0.422015
0.00949854
-0.53363
0.0100904
-1.22003
-0.0146778
-1.49491
-0.0440736
-1.49676
-0.0732419
-1.47034
-0.102134
-1.4472
-0.131011
-1.42461
-0.159524
-1.40438
-0.187997
-1.38526
-0.216449
-1.36757
-0.244395
-1.35112
-0.272263
-1.33515
-0.299864
-1.32016
-0.326954
-1.30512
-0.354027
-1.29084
-0.380853
-1.27658
-0.406464
-1.26212
-0.430736
-1.24506
-0.454732
-1.22635
-1.21024
-0.478551
0.00758666
-0.541217
0.00406993
-1.21651
-0.0235944
-1.46724
-0.0555207
-1.46484
-0.0870087
-1.43885
-0.118144
-1.41607
-0.148966
-1.39379
-0.179823
-1.37353
-0.210347
-1.35474
-0.240602
-1.33731
-0.270954
-1.32077
-0.300951
-1.30516
-0.330642
-1.29047
-0.36028
-1.27548
-0.389381
-1.26174
-0.417882
-1.24808
-0.445612
-1.23439
-0.471818
-1.21885
-0.497235
-1.20094
-1.18484
-0.52264
0.00509882
-0.546316
-0.00318426
-1.20823
-0.0345948
-1.43583
-0.0696198
-1.42981
-0.103952
-1.40452
-0.13797
-1.38205
-0.171624
-1.36014
-0.204851
-1.3403
-0.238005
-1.32158
-0.270987
-1.30433
-0.303279
-1.28847
-0.335565
-1.27287
-0.367405
-1.25863
-0.398642
-1.24425
-0.430154
-1.23023
-0.461351
-1.21688
-0.491811
-1.20393
-0.520781
-1.18988
-0.548653
-1.17306
-1.15718
-0.576308
0.00314185
-0.549457
-0.00909072
-1.196
-0.0429538
-1.40197
-0.0797958
-1.39297
-0.115789
-1.36852
-0.151206
-1.34663
-0.186389
-1.32496
-0.221525
-1.30516
-0.256232
-1.28688
-0.290941
-1.26962
-0.325886
-1.25353
-0.360292
-1.23846
-0.394689
-1.22424
-0.428759
-1.21018
-0.462135
-1.19685
-0.495346
-1.18367
-0.52802
-1.17126
-0.559322
-1.15858
-0.588788
-1.1436
-1.12802
-0.61795
0.000335101
-0.549792
-0.0169085
-1.17876
-0.0529962
-1.36588
-0.0923231
-1.35364
-0.131154
-1.32969
-0.169541
-1.30824
-0.207231
-1.28727
-0.244588
-1.26781
-0.281883
-1.24958
-0.318676
-1.23283
-0.354904
-1.2173
-0.39125
-1.20212
-0.426963
-1.18852
-0.46232
-1.17482
-0.497874
-1.1613
-0.533157
-1.14839
-0.568378
-1.13604
-0.602476
-1.12448
-0.634879
-1.1112
-1.09642
-0.666476
-0.000659995
-0.549132
-0.0204352
-1.15898
-0.0592961
-1.32702
-0.100058
-1.31288
-0.139937
-1.28981
-0.179387
-1.26879
-0.218558
-1.24809
-0.257411
-1.22895
-0.295808
-1.21118
-0.334546
-1.19409
-0.373373
-1.17847
-0.411667
-1.16382
-0.450274
-1.14992
-0.488325
-1.13677
-0.525784
-1.12384
-0.563254
-1.11092
-0.600954
-1.09834
-0.638311
-1.08713
-0.6735
-1.07601
-1.0624
-0.707518
-0.00281353
-0.546319
-0.0264021
-1.13539
-0.06749
-1.28593
-0.111035
-1.26934
-0.153904
-1.24694
-0.19614
-1.22656
-0.237458
-1.20678
-0.278481
-1.18793
-0.319112
-1.17055
-0.358818
-1.15439
-0.398496
-1.1388
-0.438353
-1.12397
-0.477451
-1.11082
-0.516632
-1.09759
-0.555886
-1.08459
-0.59463
-1.07218
-0.633691
-1.05928
-0.673756
-1.04706
-0.71358
-1.03618
-1.02491
-0.751077
-0.0034476
-0.0289837
-0.0720056
-0.116196
-0.159459
-0.202447
-0.244961
-0.287033
-0.328832
-0.3707
-0.411707
-0.452704
-0.494284
-0.534923
-0.575591
-0.616429
-0.656805
-0.697794
-0.740544
-0.783467
0.153638
-12.0048
12.0769
0.0979265
-11.3379
11.3936
0.0489066
-10.9855
11.0345
0.0238232
-10.6113
10.6363
0.00233231
-10.3614
10.3829
-0.0146996
-10.0549
10.0719
-0.0237904
-9.82927
9.83836
-0.029972
-9.63574
9.64192
-0.033683
-9.46978
9.47349
-0.0349744
-9.3312
9.33249
-0.0348968
-9.21944
9.21936
-0.0321022
-9.11702
9.11423
-0.0282086
-9.05692
9.05303
-0.0236192
-8.99479
8.9902
-0.017148
-8.96046
8.95398
-0.00912199
-8.85605
8.84802
1.5999e-05
-8.58493
8.57579
0.00484223
-7.55922
7.55439
0.00701802
-5.34539
5.34322
-2.20395
2.21097
0.0934021
-11.9365
0.0394556
-11.2839
-0.00961831
-10.9364
-0.0345153
-10.5864
-0.0551437
-10.3408
-0.0707412
-10.0393
-0.0766335
-9.82337
-0.0799164
-9.63246
-0.0801842
-9.46952
-0.0779059
-9.33347
-0.0739133
-9.22343
-0.0670151
-9.12392
-0.0590899
-9.06485
-0.0503485
-9.00353
-0.0398437
-8.97096
-0.027283
-8.86861
-0.0128045
-8.59941
-0.00170989
-7.57031
0.00428341
-5.35139
-2.19967
0.0113316
-11.8546
-0.0447002
-11.2279
-0.0916664
-10.8894
-0.11268
-10.5653
-0.128298
-10.3251
-0.139151
-10.0284
-0.140159
-9.82237
-0.138659
-9.63396
-0.133987
-9.47419
-0.126768
-9.34069
-0.117779
-9.23242
-0.105971
-9.13573
-0.0931548
-9.07766
-0.0795043
-9.01718
-0.0638278
-8.98664
-0.0458583
-8.88658
-0.026134
-8.61913
-0.0087887
-7.58766
0.00164307
-5.36182
-2.19803
-0.0477878
-11.7745
-0.103385
-11.1723
-0.148847
-10.844
-0.171284
-10.5429
-0.186477
-10.31
-0.195198
-10.0197
-0.193158
-9.82441
-0.188585
-9.63853
-0.180451
-9.48232
-0.169662
-9.35148
-0.15673
-9.24536
-0.140854
-9.1516
-0.12406
-9.09446
-0.10629
-9.03495
-0.0865129
-9.00641
-0.0640863
-8.909
-0.0396547
-8.64356
-0.0159509
-7.61136
-0.000817312
-5.37695
-2.19884
-0.124385
-11.6819
-0.184118
-11.1125
-0.229169
-10.7989
-0.247692
-10.5244
-0.258069
-10.2996
-0.262175
-10.0156
-0.255721
-9.83086
-0.246512
-9.64774
-0.233577
-9.49526
-0.217977
-9.36708
-0.200161
-9.26317
-0.179466
-9.1723
-0.157807
-9.11612
-0.135165
-9.05759
-0.110355
-9.03122
-0.0825793
-8.93678
-0.053014
-8.67313
-0.0232344
-7.64114
-0.00345369
-5.39673
-2.2023
-0.183531
-11.5884
-0.242196
-11.0539
-0.285736
-10.7554
-0.306373
-10.5037
-0.316131
-10.2898
-0.317893
-10.0138
-0.308572
-9.84018
-0.296138
-9.66017
-0.279703
-9.51169
-0.260516
-9.38627
-0.238793
-9.28489
-0.214123
-9.19697
-0.188532
-9.14171
-0.161754
-9.08437
-0.132886
-9.06009
-0.10074
-8.96893
-0.0660534
-8.70781
-0.0303476
-7.67685
-0.0060967
-5.42099
-2.20839
-0.257588
-11.4819
-0.320821
-10.9906
-0.363934
-10.7123
-0.380483
-10.4872
-0.385678
-10.2846
-0.383037
-10.0165
-0.369696
-9.85352
-0.352835
-9.67704
-0.331752
-9.53277
-0.307915
-9.41011
-0.281488
-9.31132
-0.252188
-9.22627
-0.221829
-9.17207
-0.190257
-9.11594
-0.156559
-9.09379
-0.119349
-9.00614
-0.0794003
-8.74776
-0.0377682
-7.71848
-0.0090176
-5.44974
-2.21741
-0.314815
-11.3734
-0.377345
-10.9281
-0.420022
-10.6696
-0.439051
-10.4682
-0.443312
-10.2804
-0.438134
-10.0217
-0.42203
-9.86963
-0.401864
-9.6972
-0.377234
-9.5574
-0.349799
-9.43754
-0.31952
-9.3416
-0.286417
-9.25937
-0.252233
-9.20625
-0.216689
-9.15149
-0.179067
-9.13141
-0.137457
-9.04775
-0.092251
-8.79297
-0.0452168
-7.76551
-0.0127003
-5.48225
-2.23011
-0.386695
-11.2527
-0.454338
-10.8605
-0.49582
-10.6281
-0.510481
-10.4535
-0.510453
-10.2804
-0.501069
-10.0311
-0.481254
-9.88944
-0.456925
-9.72153
-0.427841
-9.58649
-0.395949
-9.46943
-0.361181
-9.37637
-0.323652
-9.2969
-0.28488
-9.24502
-0.244657
-9.19171
-0.202452
-9.17362
-0.155951
-9.09425
-0.105294
-8.84362
-0.0524389
-7.81837
-0.0162919
-5.5184
-2.2464
-0.441164
-11.1282
-0.508545
-10.7931
-0.551406
-10.5852
-0.568702
-10.4362
-0.56735
-10.2817
-0.555287
-10.0431
-0.532725
-9.912
-0.505049
-9.74921
-0.472421
-9.61912
-0.436899
-9.50496
-0.398336
-9.41493
-0.357207
-9.33803
-0.314857
-9.28737
-0.270915
-9.23565
-0.225072
-9.21946
-0.174134
-9.14519
-0.118222
-8.89954
-0.0595756
-7.87702
-0.019676
-5.5583
-2.26608
-0.510947
-10.9923
-0.583116
-10.7209
-0.623847
-10.5445
-0.636984
-10.4231
-0.631734
-10.287
-0.61569
-10.0592
-0.589696
-9.938
-0.55807
-9.78083
-0.52125
-9.65594
-0.481494
-9.54471
-0.43868
-9.45775
-0.393315
-9.38339
-0.346489
-9.3342
-0.297866
-9.28427
-0.247758
-9.26957
-0.192446
-9.2005
-0.131074
-8.96091
-0.0667249
-7.94136
-0.022685
-5.60234
-2.28877
-0.56232
-10.852
-0.635045
-10.6482
-0.678576
-10.501
-0.694294
-10.4074
-0.687524
-10.2938
-0.668736
-10.0779
-0.639925
-9.96681
-0.604953
-9.81581
-0.564645
-9.69624
-0.521245
-9.58811
-0.474732
-9.50426
-0.425932
-9.43219
-0.375686
-9.38444
-0.323584
-9.33638
-0.269748
-9.3234
-0.210368
-9.25988
-0.143765
-9.02751
-0.0735408
-8.01159
-0.0246936
-5.65119
-2.31346
-0.630127
-10.7004
-0.706445
-10.5719
-0.746713
-10.4607
-0.758798
-10.3953
-0.74871
-10.3039
-0.726187
-10.1005
-0.694222
-9.99877
-0.655543
-9.85448
-0.61136
-9.74043
-0.564012
-9.63546
-0.51351
-9.55476
-0.460641
-9.48506
-0.40604
-9.43904
-0.350015
-9.3924
-0.291985
-9.38143
-0.228089
-9.32377
-0.156174
-9.09943
-0.0802714
-8.08749
-0.0259736
-5.70548
-2.33943
-0.679191
-10.5438
-0.756904
-10.4942
-0.800464
-10.4172
-0.814739
-10.381
-0.803043
-10.3155
-0.77774
-10.1258
-0.742799
-10.0337
-0.700826
-9.89646
-0.653207
-9.78805
-0.602246
-9.68642
-0.548231
-9.60877
-0.492104
-9.54119
-0.434192
-9.49695
-0.374684
-9.45191
-0.313159
-9.44296
-0.245426
-9.39151
-0.168719
-9.17613
-0.0869288
-8.16928
-0.0262963
-5.76612
-2.36573
-0.744254
-10.3759
-0.824354
-10.4141
-0.863769
-10.3777
-0.875098
-10.3697
-0.860685
-10.33
-0.832005
-10.1545
-0.794119
-10.0716
-0.748684
-9.94189
-0.697529
-9.8392
-0.642935
-9.74102
-0.585188
-9.66652
-0.525144
-9.60124
-0.463121
-9.55898
-0.399327
-9.5157
-0.33405
-9.50823
-0.262465
-9.46309
-0.180704
-9.25789
-0.0933544
-8.25663
-0.0262792
-5.83319
-2.39201
-0.791376
-10.2025
-0.87368
-10.3318
-0.916056
-10.3354
-0.929096
-10.3566
-0.913133
-10.3459
-0.881698
-10.1859
-0.840712
-10.1126
-0.792056
-9.99055
-0.737526
-9.89373
-0.679399
-9.79914
-0.618359
-9.72756
-0.555257
-9.66434
-0.490252
-9.62398
-0.423217
-9.58274
-0.354428
-9.57702
-0.279327
-9.53819
-0.192881
-9.34434
-0.0998817
-8.34963
-0.0262277
-5.90685
-2.41824
-0.853173
-10.0158
-0.936424
-10.2485
-0.973492
-10.2983
-0.984218
-10.3459
-0.96644
-10.3637
-0.932172
-10.2202
-0.888595
-10.1562
-0.836814
-10.0423
-0.779147
-9.9514
-0.717723
-9.86057
-0.653176
-9.79211
-0.58627
-9.73124
-0.517578
-9.69267
-0.446954
-9.65336
-0.374328
-9.64965
-0.29563
-9.61689
-0.204793
-9.43518
-0.106256
-8.44817
-0.0266599
-5.98644
-2.4449
-0.901529
-9.82175
-0.987114
-10.1629
-1.02524
-10.2602
-1.0364
-10.3347
-1.01679
-10.3833
-0.979643
-10.2573
-0.932858
-10.2029
-0.877918
-10.0973
-0.816948
-10.0124
-0.752138
-9.92538
-0.684528
-9.85972
-0.614711
-9.80106
-0.543113
-9.76427
-0.469256
-9.72722
-0.393556
-9.72535
-0.311734
-9.69871
-0.216687
-9.53023
-0.112549
-8.5523
-0.0274632
-6.07153
-2.47236
-0.951719
-9.62111
-1.04721
-10.0674
-1.08082
-10.2266
-1.08945
-10.3261
-1.06814
-10.4046
-1.02814
-10.2973
-0.978459
-10.2526
-0.920348
-10.1554
-0.856311
-10.0764
-0.78831
-9.99338
-0.71723
-9.9308
-0.64364
-9.87465
-0.568593
-9.83932
-0.491434
-9.80438
-0.412337
-9.80445
-0.327314
-9.78373
-0.22867
-9.62887
-0.120067
-8.66091
-0.0286832
-6.16291
-2.50104
-0.98723
-9.41735
-1.08896
-9.9657
-1.12307
-10.1925
-1.13209
-10.3171
-1.11177
-10.425
-1.06997
-10.3391
-1.01858
-10.304
-0.957757
-10.2162
-0.891241
-10.1429
-0.820118
-10.0645
-0.746434
-10.0045
-0.669904
-9.95118
-0.592133
-9.91709
-0.51181
-9.8847
-0.430362
-9.8859
-0.34267
-9.87143
-0.239505
-9.73204
-0.126456
-8.77396
-0.0297255
-6.25964
-2.53077
8.47022
-8.50015
-9.38741
7.28024
-8.77572
6.22612
-9.13834
5.25675
-9.34773
4.36068
-9.52888
3.60721
-9.58563
2.95892
-9.65572
2.41151
-9.66879
1.95443
-9.68585
1.56856
-9.67863
1.25054
-9.68646
0.992613
-9.69325
0.77621
-9.70069
0.598212
-9.7067
0.430589
-9.71827
0.286291
-9.72713
0.215149
-9.66089
0.143017
-8.70182
0.0728297
-6.18945
-2.45794
4.98284
-8.09849
-5.3845
4.51487
-8.30775
4.02719
-8.65065
3.52458
-8.84512
3.02977
-9.03407
2.59733
-9.1532
2.20251
-9.26091
1.86158
-9.32786
1.56511
-9.38937
1.3167
-9.43022
1.10309
-9.47285
0.91167
-9.50183
0.73342
-9.52244
0.572763
-9.54605
0.423052
-9.56856
0.287719
-9.5918
0.158335
-9.53151
0.0622546
-8.60574
-0.0384263
-6.08877
-2.49636
3.6315
-7.99469
-3.7353
3.51376
-8.19001
3.28458
-8.42148
3.02185
-8.58238
2.73118
-8.7434
2.45011
-8.87213
2.17026
-8.98105
1.90858
-9.06618
1.6593
-9.14009
1.43012
-9.20105
1.21031
-9.25304
1.0015
-9.29302
0.801212
-9.32215
0.611671
-9.3565
0.438654
-9.39555
0.275616
-9.42876
0.136219
-9.39211
0.0740688
-8.54359
0.0259796
-6.04068
-2.47038
2.31403
-8.01335
-2.29537
2.28999
-8.16597
2.19816
-8.32966
2.08124
-8.46546
1.92698
-8.58914
1.75491
-8.70006
1.57258
-8.79872
1.3903
-8.8839
1.21062
-8.96042
1.037
-9.02742
0.869785
-9.08583
0.718617
-9.14185
0.583402
-9.18693
0.459795
-9.2329
0.335519
-9.27127
0.215902
-9.30914
0.0949686
-9.27118
0.0632569
-8.51188
0.0653982
-6.04283
-2.40499
1.63451
-8.07485
-1.57302
1.65005
-8.1815
1.62294
-8.30255
1.56275
-8.40526
1.48432
-8.51072
1.38847
-8.6042
1.27779
-8.68805
1.15578
-8.76189
1.02773
-8.83236
0.89778
-8.89747
0.767323
-8.95537
0.635631
-9.01016
0.507619
-9.05892
0.379489
-9.10477
0.248755
-9.14054
0.118491
-9.17888
-0.000985342
-9.1517
-0.0111376
-8.50173
0.0436158
-6.09758
-2.36137
1.16887
-8.12946
-1.11425
1.20185
-8.21448
1.18258
-8.28328
1.14318
-8.36586
1.08537
-8.45291
1.01108
-8.52991
0.92419
-8.60116
0.829461
-8.66716
0.730067
-8.73297
0.625202
-8.7926
0.522113
-8.85228
0.415692
-8.90374
0.311865
-8.95509
0.20404
-8.99694
0.104525
-9.04102
0.00533639
-9.07969
-0.0884047
-9.05796
-0.0718273
-8.51831
0.034573
-6.20398
-2.3268
0.825328
-8.15987
-0.794919
0.832428
-8.22158
0.842276
-8.29313
0.834393
-8.35797
0.796955
-8.41547
0.743187
-8.47615
0.67722
-8.53519
0.602732
-8.59267
0.522405
-8.65264
0.43346
-8.70366
0.340808
-8.75963
0.24499
-8.80792
0.148624
-8.85873
0.0561774
-8.9045
-0.0416513
-8.94319
-0.136223
-8.98512
-0.206517
-8.98767
-0.186083
-8.53874
-0.01671
-6.37335
-2.34351
0.664373
-8.1865
-0.637747
0.67635
-8.23356
0.662956
-8.27973
0.631878
-8.3269
0.592932
-8.37653
0.540968
-8.42418
0.481869
-8.47609
0.414328
-8.52513
0.336176
-8.57449
0.254895
-8.62238
0.16382
-8.66856
0.0711002
-8.7152
-0.0224869
-8.76514
-0.115807
-8.81118
-0.203646
-8.85535
-0.291008
-8.89775
-0.358603
-8.92007
-0.336056
-8.56129
-0.0995821
-6.60983
-2.44309
0.491801
-8.18911
-0.489195
0.4818
-8.22356
0.465056
-8.26299
0.438558
-8.3004
0.402769
-8.34074
0.357188
-8.3786
0.303026
-8.42193
0.240079
-8.46218
0.168966
-8.50338
0.0905905
-8.544
0.0108009
-8.58877
-0.0749469
-8.62945
-0.167062
-8.67302
-0.263857
-8.71438
-0.35721
-8.762
-0.446602
-8.80836
-0.533063
-8.83361
-0.527278
-8.56707
-0.233815
-6.90329
-2.6769
0.422184
-8.18399
-0.427296
0.408729
-8.2101
0.386571
-8.24083
0.352286
-8.26611
0.308434
-8.29689
0.258485
-8.32865
0.200717
-8.36416
0.133345
-8.39481
0.0609851
-8.43102
-0.0198439
-8.46317
-0.108568
-8.50004
-0.205999
-8.53202
-0.310448
-8.56857
-0.419778
-8.60505
-0.530145
-8.65163
-0.641988
-8.69652
-0.751769
-8.72383
-0.786828
-8.53201
-0.451944
-7.23817
-3.12885
0.340318
-8.16559
-0.358721
0.314405
-8.18419
0.282029
-8.20846
0.245717
-8.2298
0.206723
-8.25789
0.159846
-8.28177
0.101778
-8.30609
0.0372688
-8.3303
-0.0364486
-8.3573
-0.116721
-8.3829
-0.208761
-8.408
-0.306459
-8.43432
-0.412849
-8.46219
-0.531937
-8.48596
-0.662798
-8.52077
-0.815211
-8.54411
-0.969558
-8.56948
-1.02465
-8.47692
-0.739675
-7.52315
-3.86852
0.306395
-8.14763
-0.324359
0.283595
-8.16139
0.254264
-8.17912
0.218503
-8.19404
0.172386
-8.21178
0.117786
-8.22717
0.0596683
-8.24797
-0.00618502
-8.26445
-0.0791668
-8.28432
-0.161602
-8.30047
-0.248694
-8.32091
-0.345842
-8.33718
-0.45445
-8.35358
-0.577393
-8.36302
-0.725301
-8.37286
-0.891249
-8.37816
-1.07455
-8.38618
-1.2057
-8.34577
-0.999353
-7.7295
-4.86788
0.266423
-8.1221
-0.291952
0.236385
-8.13135
0.20201
-8.14475
0.16317
-8.1552
0.120855
-8.16946
0.0738626
-8.18018
0.0204925
-8.1946
-0.0397673
-8.20419
-0.107227
-8.21686
-0.181667
-8.22603
-0.265505
-8.23707
-0.360096
-8.24259
-0.462516
-8.25116
-0.57665
-8.24889
-0.700428
-8.24909
-0.844011
-8.23457
-1.0023
-8.22789
-1.14598
-8.20209
-0.982949
-7.89253
-5.85083
0.257781
-8.09939
-0.280486
0.231205
-8.10477
0.200661
-8.1142
0.16596
-8.1205
0.12646
-8.12996
0.0830475
-8.13677
0.0330816
-8.14464
-0.0229524
-8.14815
-0.0824251
-8.15739
-0.149062
-8.15939
-0.219087
-8.16705
-0.297989
-8.16368
-0.383361
-8.16579
-0.485538
-8.14671
-0.584565
-8.15006
-0.694459
-8.12468
-0.803979
-8.11837
-0.912765
-8.09331
-0.830398
-7.97489
-6.68122
0.210809
-8.07747
-0.232737
0.186254
-8.08022
0.157447
-8.0854
0.126357
-8.08941
0.0917868
-8.09539
0.0537261
-8.09871
0.0133712
-8.10428
-0.0300868
-8.1047
-0.0760516
-8.11142
-0.125324
-8.11012
-0.178025
-8.11435
-0.234592
-8.10712
-0.294564
-8.10581
-0.352205
-8.08907
-0.413002
-8.08926
-0.468493
-8.06919
-0.53809
-8.04877
-0.610505
-8.02089
-0.599611
-7.98579
-7.28083
0.178687
-8.05775
-0.1984
0.158294
-8.05983
0.136201
-8.0633
0.110941
-8.06415
0.0823057
-8.06676
0.0507878
-8.06719
0.0162376
-8.06973
-0.0185352
-8.06992
-0.0556027
-8.07435
-0.0935836
-8.07214
-0.134057
-8.07387
-0.172086
-8.06909
-0.210229
-8.06767
-0.239852
-8.05945
-0.273736
-8.05538
-0.305866
-8.03706
-0.331138
-8.0235
-0.347597
-8.00443
-0.32924
-8.00415
-7.61007
0.124876
-8.03849
-0.144134
0.10434
-8.03929
0.0824393
-8.0414
0.060165
-8.04188
0.036852
-8.04344
0.0136263
-8.04396
-0.00987542
-8.04623
-0.0327691
-8.04703
-0.0576693
-8.04945
-0.0820183
-8.04779
-0.107663
-8.04823
-0.13203
-8.04472
-0.156211
-8.04349
-0.181105
-8.03455
-0.206237
-8.03025
-0.224454
-8.01884
-0.233044
-8.01491
-0.240862