/*--------------------------------*- C++ -*----------------------------------*\
  =========                 |
  \\      /  F ield         | OpenFOAM: The Open Source CFD Toolbox
   \\    /   O peration     | Website:  https://openfoam.org
    \\  /    A nd           | Version:  9
     \\/     M anipulation  |
\*---------------------------------------------------------------------------*/
FoamFile
{
    format      ascii;
    class       volVectorField;
    location    "6.2";
    object      U;
}
// * * * * * * * * * * * * * * * * * * * * * * * * * * * * * * * * * * * * * //

dimensions      [0 1 -1 0 0 0 0];

internalField   nonuniform List<vector> 
46400
(
(9.65825 -9.47208 -6.99635e-19)
(19.7886 -18.9774 7.51365e-19)
(21.5215 -21.6459 -7.74094e-20)
(20.8094 -21.7359 4.23428e-20)
(20.103 -21.7336 -6.09057e-20)
(19.3843 -21.7786 -6.78325e-19)
(18.7255 -21.7555 3.44386e-19)
(18.0691 -21.7518 -5.14926e-20)
(17.4974 -21.7675 4.06839e-20)
(16.9233 -21.764 -3.09617e-20)
(16.3718 -21.7473 2.22644e-20)
(15.8712 -21.7741 0)
(15.3768 -21.7465 -1.18671e-19)
(14.9454 -21.7897 1.2408e-19)
(14.5389 -21.8168 1.68383e-20)
(14.1233 -21.8054 -5.56137e-20)
(13.6962 -21.7958 -4.45653e-20)
(13.3154 -21.7163 4.77057e-20)
(12.9417 -21.6623 1.62846e-19)
(12.4592 -21.8706 -1.46439e-19)
(9.94062 -8.96079 0)
(19.9345 -17.747 -3.84015e-20)
(21.4776 -20.0403 0)
(20.6953 -20.1335 -4.44596e-19)
(20.0002 -20.1482 3.28724e-19)
(19.2827 -20.2279 -7.72399e-20)
(18.6679 -20.2884 0)
(18.0512 -20.3719 5.14938e-20)
(17.455 -20.4173 -4.06844e-20)
(16.909 -20.4854 3.09636e-20)
(16.4066 -20.5636 -6.70976e-20)
(15.919 -20.6129 5.40286e-20)
(15.4602 -20.7027 -1.7139e-20)
(15.0087 -20.7278 0)
(14.5601 -20.7762 4.82499e-21)
(14.1587 -20.8094 1.01157e-20)
(13.7712 -20.8577 0)
(13.4182 -20.8366 -2.57464e-19)
(13.0792 -20.8275 -8.41404e-20)
(12.6484 -21.0293 2.68433e-19)
(10.1749 -8.42295 -2.8565e-19)
(19.9714 -16.5169 2.42052e-19)
(21.2528 -18.4434 -3.10014e-19)
(20.4863 -18.6451 -1.86569e-19)
(19.8206 -18.7429 1.83161e-19)
(19.1081 -18.8807 0)
(18.4512 -18.9491 9.03271e-20)
(17.8086 -19.0182 -8.84121e-20)
(17.25 -19.1281 -6.42038e-20)
(16.7022 -19.2182 7.02414e-20)
(16.163 -19.3075 1.55766e-19)
(15.6585 -19.3699 1.30664e-20)
(15.1758 -19.4408 -1.58526e-19)
(14.7564 -19.5431 0)
(14.3603 -19.6291 3.06713e-19)
(13.9736 -19.7194 -3.0206e-19)
(13.5872 -19.7959 0)
(13.2422 -19.8193 -1.7757e-20)
(12.8806 -19.8812 3.90623e-20)
(12.4714 -20.1666 -4.22241e-19)
(10.3424 -7.85683 1.2917e-19)
(19.8925 -15.2771 -5.82641e-20)
(20.9577 -16.8821 -9.43733e-20)
(20.1235 -17.066 9.32701e-20)
(19.4605 -17.1961 9.2028e-21)
(18.7728 -17.374 3.03533e-21)
(18.1887 -17.5598 7.7732e-20)
(17.5981 -17.7312 -2.93805e-19)
(16.9956 -17.8431 2.73682e-19)
(16.4562 -17.9669 -2.31091e-20)
(15.9807 -18.1338 0)
(15.5336 -18.2924 3.43624e-20)
(15.0805 -18.4167 -3.89798e-20)
(14.6603 -18.5468 0)
(14.23 -18.653 4.68949e-19)
(13.8356 -18.7476 -3.92615e-19)
(13.4749 -18.8928 0)
(13.1309 -18.9562 5.47496e-20)
(12.76 -18.9859 7.25411e-20)
(12.3095 -19.273 5.6139e-19)
(10.4491 -7.27294 0)
(19.6815 -14.0212 0)
(20.5018 -15.3779 -5.33002e-20)
(19.7227 -15.6676 1.61603e-20)
(19.092 -15.8617 -1.48218e-19)
(18.4031 -16.0676 1.33496e-19)
(17.7515 -16.2138 0)
(17.1549 -16.3829 2.21567e-19)
(16.6384 -16.6085 -2.61851e-19)
(16.1141 -16.762 -7.52487e-20)
(15.5704 -16.9045 -7.86879e-20)
(15.0952 -17.0486 0)
(14.6318 -17.2147 5.97733e-19)
(14.21 -17.35 -5.88407e-19)
(13.8455 -17.5502 0)
(13.4565 -17.6615 -7.11283e-19)
(13.0843 -17.8172 6.32484e-19)
(12.8032 -17.987 6.59595e-19)
(12.463 -18.0985 -7.16726e-19)
(12.0162 -18.3865 0)
(10.5224 -6.70838 0)
(19.3176 -12.6753 0)
(19.9595 -13.8875 0)
(19.1476 -14.1559 -3.41637e-20)
(18.5117 -14.4065 0)
(17.8802 -14.6825 0)
(17.3201 -14.9685 0)
(16.7428 -15.1763 -9.40507e-20)
(16.1565 -15.3781 0)
(15.6613 -15.6004 7.52499e-20)
(15.2034 -15.8295 -2.38974e-20)
(14.7692 -16.0377 -8.62678e-19)
(14.3469 -16.2291 6.40733e-19)
(13.9436 -16.4184 -8.87227e-19)
(13.547 -16.5945 6.61604e-19)
(13.1874 -16.7868 0)
(12.7854 -16.8875 -7.95786e-19)
(12.4578 -17.0377 6.76549e-19)
(12.1643 -17.1978 0)
(11.7307 -17.5108 -1.12707e-19)
(10.6079 -6.13154 2.27041e-19)
(18.8337 -11.3409 8.30448e-20)
(19.3431 -12.4635 3.33826e-19)
(18.5601 -12.8054 -3.63746e-19)
(17.9485 -13.0934 -3.911e-19)
(17.294 -13.3695 7.95296e-19)
(16.6805 -13.6417 -9.49274e-19)
(16.1425 -13.921 7.38263e-20)
(15.6295 -14.1858 3.09657e-19)
(15.1444 -14.4229 0)
(14.6359 -14.6429 -2.30313e-20)
(14.1978 -14.8724 -2.1938e-20)
(13.7629 -15.1026 1.05591e-19)
(13.3398 -15.2796 9.21407e-19)
(12.9852 -15.5161 -8.19773e-19)
(12.6771 -15.7718 -1.06476e-18)
(12.3334 -15.9933 9.25123e-19)
(12.0024 -16.1318 -1.67706e-20)
(11.7034 -16.3168 -1.22688e-19)
(11.3104 -16.6592 -8.70007e-19)
(10.7278 -5.53257 -1.11175e-19)
(18.2052 -10.027 3.62475e-20)
(18.5337 -11.0023 -1.30104e-19)
(17.778 -11.4094 -5.28767e-19)
(17.1733 -11.7786 3.47118e-19)
(16.5944 -12.1268 0)
(16.0389 -12.4598 8.00269e-19)
(15.5367 -12.7686 -3.80983e-19)
(15.0077 -13.0751 2.70499e-19)
(14.5393 -13.3496 1.47766e-19)
(14.1028 -13.6407 -2.79084e-19)
(13.6802 -13.8836 6.69714e-19)
(13.3161 -14.1828 1.46514e-19)
(12.9445 -14.4237 -8.23631e-19)
(12.5016 -14.5833 2.31218e-18)
(12.1554 -14.7959 -9.46797e-19)
(11.853 -15.055 1.21363e-18)
(11.5396 -15.2474 -7.91804e-19)
(11.2493 -15.4239 2.61602e-19)
(10.8601 -15.7792 1.26929e-18)
(10.9221 -4.95735 6.32536e-19)
(17.4839 -8.82588 -1.22543e-19)
(17.6527 -9.66685 -3.30788e-20)
(16.932 -10.0871 3.0396e-19)
(16.3724 -10.5288 1.4026e-19)
(15.8284 -10.9213 1.70626e-19)
(15.2534 -11.3058 -7.86512e-19)
(14.7357 -11.6256 4.83527e-19)
(14.2606 -11.9759 -1.4748e-19)
(13.8327 -12.2875 -1.47769e-19)
(13.3848 -12.5898 -1.47679e-19)
(12.9548 -12.8424 -1.67071e-19)
(12.5458 -13.108 -3.11912e-19)
(12.2353 -13.4395 1.09634e-18)
(11.9282 -13.7368 -1.52878e-18)
(11.5667 -13.96 -1.59504e-19)
(11.2413 -14.2008 1.57082e-20)
(10.9701 -14.4422 -1.16891e-18)
(10.6993 -14.6529 8.74858e-19)
(10.3638 -15.0074 -1.39556e-18)
(11.096 -4.48134 6.49387e-19)
(16.5701 -7.62139 -1.59598e-18)
(16.5703 -8.42812 1.06824e-18)
(15.9699 -8.92806 -1.67456e-19)
(15.3577 -9.38233 -1.96797e-19)
(14.8622 -9.78865 7.67782e-19)
(14.3854 -10.2243 -9.24549e-19)
(13.9741 -10.6131 0)
(13.51 -10.9757 7.3074e-19)
(13.0914 -11.3154 -7.18563e-19)
(12.7278 -11.6806 -5.28437e-19)
(12.3613 -11.9964 6.8643e-19)
(11.9409 -12.2393 1.65428e-19)
(11.567 -12.4868 -6.89854e-19)
(11.2379 -12.7758 1.60732e-19)
(10.9498 -13.0581 8.29278e-19)
(10.6504 -13.3191 -1.47691e-18)
(10.3584 -13.5547 9.75717e-19)
(10.1157 -13.798 -1.33865e-20)
(9.80749 -14.1644 -1.36506e-18)
(11.137 -4.08181 9.36346e-19)
(15.5776 -6.52252 -6.26609e-19)
(15.3626 -7.2672 4.30401e-19)
(14.8788 -7.74537 1.45949e-20)
(14.4478 -8.3371 -8.58545e-19)
(13.9938 -8.77544 -8.1564e-19)
(13.4903 -9.22247 1.02002e-18)
(13.0376 -9.62946 -6.07736e-19)
(12.6175 -10.037 8.09032e-19)
(12.2107 -10.3904 0)
(11.8213 -10.7501 1.80622e-20)
(11.5147 -11.1348 1.85662e-19)
(11.2064 -11.4916 1.99473e-19)
(10.8562 -11.7807 -1.96018e-19)
(10.5411 -12.0663 0)
(10.2376 -12.3492 1.89041e-19)
(9.95337 -12.6248 0)
(9.69576 -12.8832 3.5132e-19)
(9.44035 -13.1219 1.7208e-18)
(9.17139 -13.4814 -7.81849e-21)
(10.9694 -3.6382 5.3555e-19)
(14.4847 -5.55833 -1.07511e-19)
(14.2931 -6.34608 -1.67292e-18)
(13.793 -6.84749 9.37614e-19)
(13.2338 -7.3788 2.21897e-19)
(12.8555 -7.89053 -2.20035e-19)
(12.4164 -8.35856 -9.155e-19)
(12.0707 -8.80117 6.84499e-19)
(11.7175 -9.24203 0)
(11.3605 -9.61879 0)
(10.994 -9.97036 -1.06503e-18)
(10.6526 -10.3006 8.4494e-19)
(10.3464 -10.6539 -1.99492e-19)
(10.0642 -10.9795 -6.16753e-19)
(9.76397 -11.2819 2.92421e-21)
(9.49653 -11.5751 1.37811e-18)
(9.24534 -11.8626 -7.70238e-19)
(8.99019 -12.1231 5.69695e-19)
(8.77296 -12.3814 -9.19545e-19)
(8.5308 -12.734 0)
(10.562 -3.1504 -4.82209e-19)
(13.2242 -4.66736 7.81914e-19)
(12.8397 -5.41575 1.3621e-19)
(12.5116 -5.98103 1.34497e-19)
(12.1291 -6.56924 0)
(11.7995 -7.0793 1.00928e-18)
(11.4307 -7.59445 -9.91561e-19)
(11.0314 -8.01884 1.26041e-19)
(10.7056 -8.50387 0)
(10.4077 -8.94983 9.39441e-19)
(10.1018 -9.37206 -8.05168e-19)
(9.80083 -9.74447 9.02646e-19)
(9.53146 -10.1177 -8.88324e-19)
(9.25636 -10.4554 8.65931e-19)
(8.99973 -10.778 -7.43292e-19)
(8.74992 -11.0822 -8.29884e-19)
(8.50653 -11.378 1.62987e-18)
(8.2843 -11.6493 -6.97956e-19)
(8.05003 -11.9024 1.00222e-19)
(7.81918 -12.2316 8.32648e-19)
(9.94742 -2.64347 -3.93688e-19)
(11.9862 -3.85648 4.29308e-19)
(11.7117 -4.59514 -1.36244e-19)
(11.4308 -5.15135 -1.34505e-19)
(10.9712 -5.75464 0)
(10.6487 -6.26175 0)
(10.3219 -6.83321 0)
(9.98214 -7.26748 -2.5987e-19)
(9.63791 -7.70324 -1.01911e-18)
(9.35257 -8.11719 2.00034e-18)
(9.10204 -8.55846 -1.10077e-18)
(8.82788 -8.94778 -1.22828e-19)
(8.58329 -9.33945 0)
(8.36832 -9.73064 0)
(8.12955 -10.0796 -2.2414e-19)
(7.89466 -10.4197 0)
(7.69141 -10.7491 8.56518e-19)
(7.48082 -11.0547 -1.05357e-18)
(7.29131 -11.34 -9.18275e-19)
(7.08921 -11.6953 8.8371e-19)
(9.14323 -2.14663 4.14625e-19)
(10.6755 -3.15507 7.67248e-19)
(10.2726 -3.89755 2.01097e-21)
(9.98577 -4.49338 7.40767e-22)
(9.69286 -5.13721 1.49412e-19)
(9.40942 -5.65513 -4.26728e-19)
(9.1647 -6.25048 0)
(8.96768 -6.7695 -4.14846e-19)
(8.7051 -7.27716 1.40201e-19)
(8.41056 -7.68957 5.27783e-19)
(8.15435 -8.11444 5.12985e-19)
(7.92382 -8.51839 -3.8187e-19)
(7.66937 -8.87814 9.79714e-19)
(7.45776 -9.24911 -8.41849e-19)
(7.28007 -9.60549 1.04996e-18)
(7.07369 -9.93351 -1.95129e-18)
(6.88691 -10.2529 8.99832e-19)
(6.71217 -10.5592 1.07287e-19)
(6.53733 -10.8423 8.51223e-19)
(6.34244 -11.171 -9.20099e-19)
(8.20876 -1.6706 1.45209e-19)
(9.37096 -2.51926 -1.56578e-19)
(9.01014 -3.25624 6.36272e-19)
(8.84147 -3.84412 -6.24523e-19)
(8.55836 -4.47738 -3.05996e-19)
(8.24562 -5.01145 -7.45779e-19)
(7.95319 -5.53995 2.34772e-21)
(7.69773 -6.05481 5.76114e-19)
(7.49385 -6.58394 -1.37523e-19)
(7.32514 -7.07924 0)
(7.09385 -7.52251 0)
(6.91772 -7.96681 0)
(6.72978 -8.37159 0)
(6.52817 -8.75549 4.3485e-21)
(6.36478 -9.13393 0)
(6.18889 -9.49727 1.16873e-19)
(6.01984 -9.83018 4.62995e-19)
(5.85148 -10.1555 -1.36033e-18)
(5.71238 -10.4531 1.0034e-18)
(5.56403 -10.8038 -9.44425e-19)
(7.11015 -1.24222 0)
(7.95099 -2.03945 -8.56577e-20)
(7.55338 -2.75556 0)
(7.36217 -3.39935 2.42779e-19)
(7.14919 -4.07471 -1.63221e-19)
(6.99267 -4.69375 -6.2267e-19)
(6.80536 -5.28446 3.41187e-21)
(6.59272 -5.79694 5.97941e-19)
(6.39403 -6.28405 -5.79995e-19)
(6.22882 -6.76203 1.13636e-18)
(6.05805 -7.21211 -4.42683e-21)
(5.896 -7.62969 -5.43412e-19)
(5.73824 -8.05432 5.25741e-19)
(5.56464 -8.41686 -6.44411e-19)
(5.4198 -8.79381 0)
(5.29081 -9.1456 -4.88196e-19)
(5.16663 -9.4915 4.809e-19)
(5.03264 -9.81638 0)
(4.90188 -10.1124 -1.12434e-19)
(4.75616 -10.4527 0)
(5.95812 -0.897578 8.52953e-20)
(6.60991 -1.70537 8.58173e-20)
(6.2771 -2.42187 0)
(6.05896 -3.00893 3.33126e-19)
(5.87366 -3.62876 -4.12571e-19)
(5.61805 -4.16359 2.39219e-19)
(5.51992 -4.72985 -7.0721e-19)
(5.4043 -5.27229 3.07593e-19)
(5.27045 -5.77127 -7.5573e-20)
(5.1353 -6.27223 0)
(5.01559 -6.74055 -7.18961e-20)
(4.85833 -7.18301 -7.01108e-20)
(4.76843 -7.62325 -6.83637e-20)
(4.64918 -8.03817 0)
(4.50154 -8.41936 -5.1303e-19)
(4.38661 -8.79515 1.06891e-18)
(4.25043 -9.14928 -9.18915e-19)
(4.15333 -9.49197 4.80736e-19)
(4.04496 -9.80649 5.88418e-20)
(3.95079 -10.1543 4.96491e-19)
(4.41774 -0.58615 -1.32387e-19)
(4.907 -1.53019 -1.79625e-19)
(4.80653 -2.2651 5.49595e-22)
(4.71454 -2.9786 4.73131e-19)
(4.62979 -3.57183 -1.2806e-19)
(4.55232 -4.18579 -8.25921e-20)
(4.36842 -4.68032 8.04917e-20)
(4.25882 -5.24515 1.57106e-19)
(4.11395 -5.71103 7.55801e-20)
(3.99309 -6.20692 -2.96436e-19)
(3.91319 -6.64802 3.2691e-19)
(3.7913 -7.09876 7.01207e-20)
(3.67419 -7.48052 3.42977e-19)
(3.59289 -7.9063 -2.61037e-21)
(3.51123 -8.26065 3.04204e-20)
(3.42636 -8.63785 -5.74881e-19)
(3.35528 -8.96864 1.57462e-19)
(3.26771 -9.30511 0)
(3.19493 -9.60146 -2.90031e-20)
(3.11273 -9.94093 -2.52469e-19)
(2.95351 -0.293852 4.56258e-20)
(3.38559 -0.959136 -9.11977e-20)
(3.36638 -1.60865 1.78866e-19)
(3.34406 -2.34009 -4.37558e-20)
(3.30577 -2.95475 -4.32989e-20)
(3.18962 -3.65162 0)
(3.12977 -4.22664 -8.1228e-20)
(3.04194 -4.80185 1.59041e-19)
(3.01181 -5.32863 -7.78698e-20)
(2.90825 -5.83541 7.52594e-20)
(2.85434 -6.30303 -3.74611e-20)
(2.80289 -6.78425 -7.14625e-20)
(2.7491 -7.19944 1.39962e-19)
(2.67637 -7.63151 -1.36396e-19)
(2.62215 -8.01293 3.37996e-20)
(2.54953 -8.40869 2.30811e-34)
(2.49396 -8.75888 -3.14385e-20)
(2.4269 -9.12187 1.84367e-19)
(2.3742 -9.42871 -9.08487e-20)
(2.31047 -9.78418 -6.46243e-20)
(-0.0696907 -4.51162 1.4721e-19)
(1.49279 -19.1237 7.28788e-20)
(2.93246 -33.3804 0)
(3.66499 -39.7275 6.77047e-20)
(3.72138 -40.5955 6.21105e-20)
(3.72567 -40.3991 5.79119e-20)
(3.67591 -39.8522 0)
(3.6357 -39.4082 5.32701e-20)
(3.58091 -38.9939 0)
(3.52918 -38.6233 0)
(3.46411 -38.2508 -4.32625e-20)
(3.40849 -37.8715 3.24138e-21)
(3.33069 -37.5519 8.21379e-20)
(3.2728 -37.2106 0)
(3.17782 -36.84 3.60996e-20)
(3.12688 -36.4128 3.42377e-20)
(2.99495 -35.9649 3.25241e-20)
(2.96899 -35.448 0)
(2.80955 -35.0392 -5.82458e-20)
(2.80439 -34.603 5.65324e-20)
(0.122099 -5.60979 2.24602e-19)
(2.46982 -21.1499 -3.68903e-19)
(4.13763 -34.9099 0)
(4.8594 -40.1716 -3.34944e-19)
(4.89484 -40.588 3.14351e-19)
(4.83504 -40.2203 -5.30125e-19)
(4.75157 -39.7027 2.3187e-19)
(4.67812 -39.2215 1.55878e-19)
(4.6008 -38.802 -7.00569e-19)
(4.511 -38.4068 3.87866e-19)
(4.43389 -38.0542 -4.48758e-20)
(4.33095 -37.728 3.32537e-19)
(4.25075 -37.3444 -1.25834e-20)
(4.14316 -36.9814 -3.09685e-19)
(4.05323 -36.6321 -3.61001e-20)
(3.95962 -36.2328 -3.42372e-20)
(3.82862 -35.7485 -3.25221e-20)
(3.76084 -35.2109 0)
(3.58764 -34.774 -2.30037e-19)
(3.57353 -34.3604 7.62755e-21)
(0.466974 -6.94213 -1.51506e-19)
(3.6156 -22.8438 0)
(5.4256 -36.0551 0)
(6.05437 -40.366 -1.37618e-19)
(6.04179 -40.5015 1.26328e-19)
(5.92698 -40.0636 0)
(5.80044 -39.5055 -1.13341e-19)
(5.69149 -39.0499 3.1127e-19)
(5.57732 -38.603 -3.10107e-19)
(5.4685 -38.2111 3.70542e-19)
(5.35276 -37.8136 -4.53176e-19)
(5.24155 -37.417 0)
(5.11994 -37.0836 -3.11652e-19)
(5.01187 -36.7295 -2.826e-19)
(4.87772 -36.3519 5.09616e-19)
(4.77132 -35.9082 -5.28094e-19)
(4.60103 -35.4431 4.56918e-19)
(4.52594 -34.9185 0)
(4.3224 -34.5308 -5.08855e-19)
(4.30448 -34.1194 8.70057e-19)
(1.06129 -8.06505 7.56118e-19)
(4.30897 -24.2216 0)
(6.79799 -36.9648 2.90762e-19)
(7.26048 -40.3957 3.94703e-19)
(7.22054 -40.2722 -7.68688e-19)
(7.05745 -39.7135 2.38557e-19)
(6.91167 -39.2173 1.13335e-19)
(6.76419 -38.714 1.14804e-18)
(6.61845 -38.2825 -1.59683e-18)
(6.469 -37.8712 -1.5307e-19)
(6.33453 -37.5046 8.10893e-19)
(6.18204 -37.1624 1.64991e-19)
(6.04985 -36.7656 -7.70366e-19)
(5.8926 -36.3993 7.51889e-19)
(5.76013 -36.0366 2.09025e-19)
(5.61539 -35.6353 -1.30837e-19)
(5.44358 -35.1578 1.87019e-19)
(5.32428 -34.6341 0)
(5.10249 -34.2053 -5.43371e-20)
(5.06523 -33.7826 0)
(1.60689 -8.77893 0)
(5.44904 -25.2398 1.09155e-18)
(8.13602 -37.3626 -1.47875e-18)
(8.59671 -40.1615 1.32989e-18)
(8.44632 -39.9039 -1.03756e-18)
(8.22418 -39.3693 -2.40518e-19)
(8.01757 -38.8257 0)
(7.82956 -38.3662 6.09477e-19)
(7.64135 -37.9074 -8.06696e-19)
(7.46172 -37.5082 9.09743e-19)
(7.28466 -37.1036 -7.11596e-19)
(7.10971 -36.7091 -1.64984e-19)
(6.9364 -36.3721 7.58803e-19)
(6.77152 -36.0172 -1.30938e-18)
(6.592 -35.6484 8.23114e-19)
(6.42618 -35.2098 -2.70123e-19)
(6.21407 -34.746 -6.03374e-19)
(6.07915 -34.2242 1.38103e-18)
(5.82865 -33.8457 -7.84236e-19)
(5.7967 -33.4487 -9.22705e-19)
(1.93112 -9.797 1.19928e-18)
(6.67694 -26.2246 8.80081e-19)
(9.53434 -37.6682 -1.18055e-18)
(9.79306 -39.8196 -2.67038e-19)
(9.61483 -39.4144 2.52588e-19)
(9.35453 -38.8434 9.22105e-19)
(9.11152 -38.3559 -9.05888e-19)
(8.88476 -37.8603 0)
(8.66335 -37.4325 7.55855e-19)
(8.44626 -37.024 -7.43262e-19)
(8.24752 -36.6588 -6.6586e-19)
(8.0395 -36.3123 6.55064e-19)
(7.84799 -35.9202 0)
(7.63658 -35.5635 0)
(7.45737 -35.2072 1.18093e-18)
(7.25686 -34.8262 -1.15722e-18)
(7.04517 -34.3772 -9.32099e-19)
(6.86941 -33.8712 9.18323e-19)
(6.59748 -33.4657 -8.35573e-19)
(6.53533 -33.0355 1.03263e-18)
(2.50147 -10.2601 -8.85111e-19)
(7.72385 -26.9005 2.90084e-19)
(10.8579 -37.5643 5.6423e-20)
(11.0819 -39.2853 1.36155e-18)
(10.7975 -38.8299 0)
(10.5127 -38.3053 0)
(10.2129 -37.7754 1.68565e-18)
(9.94425 -37.3259 -8.13082e-20)
(9.68201 -36.878 -1.54862e-18)
(9.42814 -36.4871 1.38083e-18)
(9.18534 -36.0931 -1.35815e-18)
(8.94335 -35.7194 0)
(8.7155 -35.392 1.14205e-18)
(8.49221 -35.0511 -1.12408e-18)
(8.26408 -34.7054 0)
(8.03725 -34.2939 0)
(7.78201 -33.8482 0)
(7.58107 -33.3457 0)
(7.27918 -32.9624 0)
(7.22672 -32.5743 -9.99758e-20)
(3.07205 -10.784 8.60971e-19)
(8.96162 -27.39 -1.46906e-18)
(12.2232 -37.3419 0)
(12.3024 -38.6377 0)
(11.9586 -38.112 2.11785e-18)
(11.6089 -37.5737 1.23991e-19)
(11.2693 -37.1074 -1.93233e-18)
(10.9564 -36.6429 0)
(10.6553 -36.2333 1.79449e-19)
(10.3656 -35.8461 -1.67681e-19)
(10.1009 -35.4967 0)
(9.83192 -35.1622 1.46868e-19)
(9.57828 -34.7944 -1.23799e-18)
(9.31443 -34.4561 2.24582e-18)
(9.08358 -34.1285 -4.58188e-20)
(8.83235 -33.786 -9.56845e-19)
(8.58054 -33.3814 -1.07334e-19)
(8.34249 -32.9072 1.01082e-19)
(8.0258 -32.5312 0)
(7.93555 -32.0962 9.14437e-20)
(3.6549 -11.1778 5.59038e-19)
(10.1967 -27.6079 4.89315e-19)
(13.461 -36.8363 -1.69543e-18)
(13.4989 -37.8234 4.95534e-19)
(13.0666 -37.3088 2.20788e-19)
(12.699 -36.8182 1.90142e-18)
(12.3017 -36.3289 -2.64233e-18)
(11.95 -35.9102 1.92024e-18)
(11.6133 -35.4985 -1.55158e-18)
(11.285 -35.1367 1.83771e-18)
(10.9756 -34.7742 2.99611e-19)
(10.6689 -34.4362 1.2549e-18)
(10.3851 -34.1313 -7.03951e-19)
(10.1038 -33.8212 -1.36043e-18)
(9.82614 -33.5059 1.20065e-18)
(9.54447 -33.1399 0)
(9.24593 -32.736 3.10465e-19)
(8.97672 -32.2653 8.99466e-20)
(8.62565 -31.8791 -1.80384e-19)
(8.54199 -31.4985 8.09494e-20)
(4.25134 -11.4674 -1.07609e-18)
(11.3997 -27.6537 1.11634e-18)
(14.684 -36.1597 -2.19575e-20)
(14.6229 -36.901 -9.71831e-19)
(14.1394 -36.3797 -8.99086e-19)
(13.7062 -35.899 -4.26661e-19)
(13.28 -35.4693 -1.86726e-20)
(12.883 -35.0583 -3.68992e-19)
(12.5091 -34.6839 0)
(12.147 -34.3325 -3.20788e-19)
(11.8189 -34.0134 -2.99619e-19)
(11.4899 -33.7124 -1.54041e-20)
(11.1765 -33.3864 9.81202e-19)
(10.8598 -33.0762 -5.03479e-19)
(10.5785 -32.7989 -1.10468e-18)
(10.2811 -32.5039 8.60973e-19)
(9.99296 -32.1605 5.67386e-19)
(9.69754 -31.7402 -9.50184e-19)
(9.34222 -31.3899 1.8009e-19)
(9.22296 -30.9609 1.14084e-18)
(4.85892 -11.6714 -2.60781e-18)
(12.5758 -27.5261 2.65831e-18)
(15.7965 -35.3622 -2.9385e-18)
(15.6692 -35.8675 2.39166e-18)
(15.1203 -35.3826 2.10537e-18)
(14.6685 -34.9402 -1.63575e-18)
(14.1894 -34.5112 -2.16494e-18)
(13.7557 -34.1388 7.73124e-20)
(13.3507 -33.7812 1.30611e-18)
(12.9557 -33.4713 -8.64425e-19)
(12.5828 -33.1548 2.2028e-18)
(12.2176 -32.8594 -1.31909e-18)
(11.8816 -32.5973 -2.47341e-19)
(11.5477 -32.3271 6.41237e-19)
(11.2221 -32.0467 -1.67542e-18)
(10.8965 -31.7489 8.03871e-19)
(10.5611 -31.4071 0)
(10.2314 -30.9925 -1.34641e-18)
(9.83791 -30.6214 1.32721e-18)
(9.7268 -30.2477 -1.07134e-18)
(5.45928 -11.7595 5.02493e-19)
(13.6747 -27.1928 5.59056e-19)
(16.8365 -34.3241 2.43486e-18)
(16.6586 -34.7211 2.12478e-18)
(16.068 -34.2673 -1.27831e-18)
(15.5589 -33.8549 1.81159e-18)
(15.057 -33.4728 -1.06869e-18)
(14.5861 -33.1319 1.2449e-18)
(14.1464 -32.8076 -2.37912e-18)
(13.7169 -32.5028 8.50485e-19)
(13.3316 -32.2344 0)
(12.9467 -31.9847 0)
(12.5788 -31.7106 0)
(12.2134 -31.4473 -1.61532e-18)
(11.8845 -31.2297 1.59041e-18)
(11.5467 -30.9812 0)
(11.2289 -30.7169 0)
(10.8904 -30.377 -1.5047e-19)
(10.5032 -30.0602 0)
(10.3569 -29.6522 -1.26246e-18)
(6.06077 -11.7821 -9.56323e-19)
(14.7246 -26.7655 -2.38537e-18)
(17.8148 -33.299 -1.71905e-18)
(17.538 -33.5037 -3.16835e-19)
(16.8855 -33.0913 2.27053e-18)
(16.3475 -32.7226 -4.48214e-19)
(15.8078 -32.3663 -7.96718e-20)
(15.2962 -32.0509 -1.50965e-18)
(14.8329 -31.7588 0)
(14.3824 -31.5177 -7.45836e-19)
(13.952 -31.2507 1.1978e-18)
(13.5366 -31.0066 0)
(13.1563 -30.8056 1.58316e-18)
(12.7763 -30.5769 -1.55834e-18)
(12.4081 -30.3474 1.37124e-18)
(12.0515 -30.1362 -2.47288e-18)
(11.6878 -29.868 1.2585e-18)
(11.313 -29.5384 1.50461e-19)
(10.889 -29.2027 -1.25704e-19)
(10.7477 -28.842 1.00297e-18)
(6.62473 -11.7012 -1.27784e-18)
(15.6845 -26.1304 7.59972e-20)
(18.6086 -31.9728 1.08806e-19)
(18.3439 -32.1815 3.0425e-18)
(17.6685 -31.8231 2.69595e-19)
(17.086 -31.4931 -1.6316e-18)
(16.5249 -31.1715 -1.14349e-18)
(15.996 -30.9109 3.53862e-19)
(15.499 -30.6458 1.27461e-18)
(15.0121 -30.3975 -1.36158e-18)
(14.5817 -30.2034 6.59152e-19)
(14.1482 -30.0089 -1.72564e-18)
(13.7339 -29.7955 1.34136e-18)
(13.3296 -29.6005 -1.32103e-18)
(12.9539 -29.4281 1.15279e-18)
(12.5799 -29.2303 9.82716e-19)
(12.2407 -29.0633 -1.12086e-18)
(11.8772 -28.8284 8.6723e-19)
(11.4675 -28.5594 -8.40265e-19)
(11.295 -28.1737 -9.81447e-19)
(7.17497 -11.5771 -1.59711e-18)
(16.5921 -25.4271 -3.09854e-19)
(19.4148 -30.763 1.56299e-18)
(19.0069 -30.8238 -1.34156e-18)
(18.3117 -30.5012 1.31733e-18)
(17.6929 -30.2312 3.0579e-19)
(17.103 -29.953 0)
(16.5255 -29.7029 -2.31244e-19)
(16.0151 -29.4828 6.34324e-19)
(15.5183 -29.3134 -2.24399e-18)
(15.0368 -29.0969 1.57926e-18)
(14.582 -28.9194 3.51158e-19)
(14.1651 -28.7816 1.72805e-19)
(13.748 -28.602 0)
(13.3478 -28.4443 2.01538e-20)
(12.9682 -28.3041 9.88889e-19)
(12.5802 -28.1148 -5.96742e-20)
(12.1826 -27.9049 1.63988e-19)
(11.746 -27.6417 -8.31053e-19)
(11.5727 -27.2937 1.89678e-19)
(7.67015 -11.3636 1.45667e-18)
(17.3872 -24.5298 -2.52303e-18)
(19.9979 -29.2538 1.41834e-18)
(19.5871 -29.3744 1.20764e-18)
(18.8854 -29.1097 -8.47151e-20)
(18.2431 -28.8721 -8.37105e-19)
(17.6383 -28.6298 2.22521e-19)
(17.0654 -28.4555 2.31246e-19)
(16.5222 -28.2549 0)
(15.9917 -28.0715 0)
(15.5296 -27.9641 -1.28618e-18)
(15.0562 -27.8242 2.13898e-18)
(14.6063 -27.684 -1.15934e-18)
(14.174 -27.5656 0)
(13.752 -27.4291 2.10769e-20)
(13.3458 -27.2905 -9.29046e-19)
(12.9852 -27.1999 9.08038e-19)
(12.6098 -27.0811 -9.98876e-20)
(12.1973 -26.8998 -7.08046e-19)
(12.0008 -26.5397 4.90648e-19)
(8.14624 -11.0959 -1.30883e-18)
(18.0963 -23.5997 1.649e-18)
(20.5827 -27.9036 0)
(20.0483 -27.9155 0)
(19.3279 -27.7004 2.34444e-19)
(18.6619 -27.5361 -1.12299e-18)
(18.0339 -27.3361 3.48282e-20)
(17.4063 -27.1595 7.83825e-19)
(16.863 -27.0186 -1.31573e-18)
(16.3269 -26.9132 2.489e-18)
(15.8013 -26.7442 -1.17562e-18)
(15.3196 -26.6458 2.5601e-19)
(14.871 -26.5603 9.99443e-19)
(14.4281 -26.4458 2.5439e-20)
(14.01 -26.3698 -6.08276e-19)
(13.6089 -26.2817 9.73378e-20)
(13.1963 -26.168 -6.9495e-19)
(12.7914 -26.0699 5.97267e-19)
(12.3722 -25.9298 1.85913e-20)
(12.178 -25.6107 4.88521e-19)
(8.56098 -10.7495 0)
(18.6666 -22.4832 8.03702e-19)
(20.9623 -26.3206 -8.67286e-19)
(20.414 -26.38 0)
(19.6931 -26.2067 -2.34448e-19)
(19.0059 -26.0705 7.49678e-19)
(18.3791 -25.9221 -9.28209e-19)
(17.7732 -25.8316 0)
(17.1939 -25.6975 1.09139e-18)
(16.6396 -25.5934 -1.07322e-18)
(16.1559 -25.5697 1.01706e-19)
(15.6524 -25.4797 -1.15681e-19)
(15.1815 -25.4242 -1.0442e-19)
(14.7301 -25.3729 -9.41526e-20)
(14.2681 -25.2824 -6.46845e-19)
(13.8378 -25.2041 1.0531e-18)
(13.4469 -25.1642 -9.36009e-19)
(13.0592 -25.1533 8.31598e-19)
(12.6636 -25.0936 -3.29727e-19)
(12.4636 -24.7927 4.94673e-20)
(8.95834 -10.3851 0)
(19.165 -21.3979 -9.50117e-19)
(21.2891 -24.8344 5.00666e-19)
(20.6564 -24.8581 5.93078e-19)
(19.9297 -24.7515 -7.11826e-20)
(19.2292 -24.6936 -6.3904e-20)
(18.5765 -24.5758 -6.06238e-19)
(17.9209 -24.486 0)
(17.3567 -24.4278 0)
(16.7876 -24.3705 0)
(16.2295 -24.2565 -1.01698e-19)
(15.7316 -24.2372 0)
(15.2519 -24.1908 -5.65507e-19)
(14.7954 -24.1526 5.02211e-19)
(14.3711 -24.1522 -3.79484e-19)
(13.9492 -24.1118 6.96656e-19)
(13.5019 -24.0444 -3.18104e-19)
(13.0758 -24.0217 -2.46972e-19)
(12.6873 -24.0323 3.99871e-19)
(12.4946 -23.7614 -1.81887e-19)
(9.31458 -9.93713 0)
(19.5144 -20.1783 0)
(21.4665 -23.225 2.0737e-19)
(20.7944 -23.2709 1.85431e-19)
(20.0734 -23.188 0)
(19.36 -23.16 4.84388e-19)
(18.7309 -23.1115 -4.75906e-19)
(18.1058 -23.0993 0)
(17.5081 -23.0465 6.30709e-19)
(16.9532 -23.0366 -6.20207e-19)
(16.4512 -23.0672 0)
(15.93 -23.0161 -3.81466e-19)
(15.4539 -23.0458 1.17812e-19)
(14.9851 -23.0343 3.07987e-19)
(14.4936 -22.9867 0)
(14.0515 -22.9693 0)
(13.61 -22.9691 0)
(13.1765 -22.9413 -2.17797e-20)
(12.7659 -22.8909 4.08458e-20)
(12.4933 -22.7511 0)
(2.06341 -33.4139 0)
(1.89833 -31.5644 0)
(1.03756 -30.5603 -3.07127e-21)
(0.844786 -29.4839 -2.46327e-21)
(0.549988 -28.7754 0)
(0.340277 -27.9256 1.68593e-22)
(0.17268 -27.2944 1.29476e-21)
(0.0878496 -26.7604 0)
(-0.00613219 -26.2992 5.70897e-22)
(-0.0438701 -25.9125 0)
(-0.0983627 -25.6007 -2.14716e-22)
(-0.0931512 -25.3142 -1.09578e-23)
(-0.112405 -25.1464 1.10162e-23)
(-0.063065 -24.9721 -1.50691e-22)
(-0.0886023 -24.875 0)
(0.0176984 -24.5872 8.13665e-23)
(0.00679099 -23.8314 -4.37302e-22)
(0.137884 -20.9888 0)
(0.035229 -14.8449 0)
(0.128529 -6.12988 -4.28686e-22)
(2.7759 -33.2822 2.42222e-20)
(2.50978 -31.4152 0)
(1.56135 -30.455 1.39843e-20)
(1.27516 -29.4519 -8.50318e-21)
(0.906646 -28.7712 0)
(0.613259 -27.9184 -6.77803e-21)
(0.413755 -27.297 2.5086e-21)
(0.28003 -26.7555 0)
(0.156442 -26.2948 3.4014e-22)
(0.0878933 -25.9114 -9.15976e-22)
(0.0115539 -25.6024 4.73667e-22)
(-0.00242724 -25.32 -2.69676e-22)
(-0.0360997 -25.154 -9.19405e-23)
(-0.00343887 -24.9835 6.11597e-23)
(-0.0400389 -24.8895 1.92465e-22)
(0.0484911 -24.5978 -3.32541e-22)
(0.0289822 -23.8486 6.89594e-22)
(0.151177 -20.9957 1.01544e-21)
(0.0445313 -14.8438 5.03743e-22)
(0.110377 -6.11124 5.30958e-22)
(3.30804 -32.961 -1.18976e-20)
(2.88357 -31.2129 -2.03363e-20)
(1.8245 -30.2418 -1.16489e-20)
(1.48702 -29.3013 0)
(1.08945 -28.6168 0)
(0.755483 -27.7943 7.6574e-21)
(0.53727 -27.2152 -1.28994e-21)
(0.377273 -26.6966 -1.01451e-21)
(0.239052 -26.2521 -8.63364e-22)
(0.15432 -25.8803 -1.72519e-21)
(0.0683236 -25.5782 0)
(0.0443697 -25.3084 0)
(0.00325071 -25.1463 0)
(0.0289203 -24.9767 7.18717e-22)
(-0.0134358 -24.8899 0)
(0.0749385 -24.614 1.29958e-21)
(0.0473146 -23.8688 -1.46483e-21)
(0.159064 -21.0102 -4.50846e-22)
(0.0494017 -14.8503 -9.99023e-22)
(0.0981037 -6.09506 -1.71166e-21)
(4.01169 -32.7653 3.49734e-20)
(3.4532 -31.0309 -6.60649e-20)
(2.3504 -30.1116 2.29522e-21)
(1.90562 -29.2504 2.08026e-20)
(1.43577 -28.6005 0)
(1.02297 -27.7765 9.31468e-21)
(0.772181 -27.2126 -2.0063e-20)
(0.564116 -26.6853 9.30157e-21)
(0.398335 -26.2433 -4.384e-21)
(0.282572 -25.8744 9.25691e-22)
(0.175736 -25.5757 -3.39273e-22)
(0.133265 -25.3095 1.28299e-22)
(0.0774357 -25.1495 -1.28918e-22)
(0.0863022 -24.9841 -2.82486e-22)
(0.0334441 -24.901 -4.38327e-22)
(0.105187 -24.6235 -1.2988e-21)
(0.0676355 -23.8869 1.85704e-21)
(0.159486 -21.0276 -6.08412e-22)
(0.058521 -14.8577 4.17135e-22)
(0.0849916 -6.08379 1.67949e-21)
(4.53421 -32.382 9.13299e-20)
(3.83183 -30.7815 1.53e-20)
(2.61117 -29.8766 -2.04984e-20)
(2.11239 -29.0685 2.90394e-20)
(1.61336 -28.4245 0)
(1.16461 -27.6376 -5.0792e-21)
(0.894514 -27.1177 3.88084e-21)
(0.659143 -26.6146 0)
(0.480148 -26.1907 1.28658e-22)
(0.347678 -25.835 0)
(0.231551 -25.5456 -1.08407e-21)
(0.179088 -25.2929 0)
(0.11599 -25.1361 0)
(0.118271 -24.9726 1.77679e-21)
(0.0602009 -24.8973 -9.33343e-22)
(0.13 -24.6368 1.39161e-21)
(0.0870009 -23.9049 0)
(0.162841 -21.0544 -3.17458e-22)
(0.062288 -14.8726 4.29769e-22)
(0.0738615 -6.07491 0)
(5.22327 -32.1166 3.62584e-20)
(4.36806 -30.561 -2.87862e-20)
(3.12645 -29.7139 4.91914e-20)
(2.51724 -28.9974 -4.8011e-20)
(1.9466 -28.3947 1.25729e-20)
(1.42681 -27.6095 5.09502e-21)
(1.12225 -27.1073 -7.0755e-21)
(0.840112 -26.5967 -5.02119e-21)
(0.635455 -26.1772 1.81228e-21)
(0.472483 -25.8238 1.42841e-21)
(0.336483 -25.5383 -9.41061e-22)
(0.265471 -25.2891 0)
(0.187416 -25.1351 0)
(0.173488 -24.9757 -5.09326e-24)
(0.106204 -24.9045 9.96452e-22)
(0.158533 -24.6454 -1.39026e-21)
(0.107164 -23.923 0)
(0.169432 -21.0815 2.97341e-21)
(0.0655347 -14.8876 3.2836e-21)
(0.0626379 -6.07033 2.15841e-22)
(5.72429 -31.6659 -1.0054e-19)
(4.72662 -30.2704 9.31846e-20)
(3.37234 -29.4593 -2.13416e-20)
(2.71648 -28.783 0)
(2.11961 -28.1998 -1.26263e-20)
(1.56624 -27.4578 1.64514e-20)
(1.24384 -26.9995 -9.41245e-21)
(0.932915 -26.5156 5.03535e-21)
(0.716612 -26.1154 0)
(0.536521 -25.7767 0)
(0.391709 -25.5026 1.32286e-22)
(0.309924 -25.2673 -1.32764e-22)
(0.224138 -25.116 0)
(0.203962 -24.9602 -2.89009e-21)
(0.131954 -24.8967 1.05963e-21)
(0.180013 -24.6553 1.5199e-21)
(0.122905 -23.9414 -1.52472e-21)
(0.173069 -21.1148 -3.81366e-21)
(0.0655387 -14.91 -2.16113e-21)
(0.0488817 -6.06909 -4.47419e-22)
(6.38323 -31.3272 0)
(5.24309 -30.0075 -4.75319e-20)
(3.86857 -29.2647 4.76845e-20)
(3.10171 -28.6924 0)
(2.43968 -28.1554 0)
(1.82065 -27.4191 -1.56613e-20)
(1.46457 -26.9794 1.57096e-20)
(1.10716 -26.4907 0)
(0.86771 -26.0969 2.21206e-21)
(0.657601 -25.7601 -3.18473e-21)
(0.494187 -25.4902 9.6889e-22)
(0.393551 -25.2582 -9.46771e-22)
(0.291839 -25.111 9.496e-22)
(0.256132 -24.9589 0)
(0.173101 -24.8994 0)
(0.204821 -24.6628 1.56692e-21)
(0.142069 -23.9601 -2.42965e-21)
(0.180392 -21.1513 -3.97058e-23)
(0.060599 -14.9316 1.35473e-21)
(0.0241249 -6.0733 -4.53709e-22)
(6.8494 -30.8114 5.92076e-20)
(5.56343 -29.6783 -5.92701e-20)
(4.09411 -28.9872 -5.37846e-20)
(3.28955 -28.446 6.19654e-20)
(2.60727 -27.945 -4.70436e-20)
(1.95696 -27.2565 5.22482e-21)
(1.58525 -26.8593 1.48922e-20)
(1.19848 -26.4003 0)
(0.947934 -26.0267 0)
(0.720934 -25.7059 1.07766e-21)
(0.548655 -25.4492 0)
(0.436745 -25.2308 0)
(0.326707 -25.0861 0)
(0.284336 -24.9392 0)
(0.197514 -24.8874 0)
(0.223297 -24.6672 0)
(0.15592 -23.9804 1.75651e-21)
(0.18735 -21.1883 -1.75803e-21)
(0.0601234 -14.9575 4.6085e-22)
(-0.00367314 -6.08476 -4.61181e-22)
(7.46293 -30.3991 -6.28578e-20)
(6.06728 -29.3706 -8.09962e-20)
(4.56549 -28.7652 -1.43882e-20)
(3.65091 -28.3378 -6.79294e-21)
(2.91299 -27.8855 1.72859e-20)
(2.20199 -27.2073 2.70108e-20)
(1.7974 -26.8284 5.59379e-21)
(1.3662 -26.3678 0)
(1.09375 -26.0031 -1.09936e-21)
(0.837856 -25.6836 3.0226e-21)
(0.648479 -25.4314 -1.38728e-22)
(0.517488 -25.2162 -1.14246e-21)
(0.390392 -25.077 0)
(0.331211 -24.9331 -2.46278e-21)