/*--------------------------------*- C++ -*----------------------------------*\
  =========                 |
  \\      /  F ield         | OpenFOAM: The Open Source CFD Toolbox
   \\    /   O peration     | Website:  https://openfoam.org
    \\  /    A nd           | Version:  9
     \\/     M anipulation  |
\*---------------------------------------------------------------------------*/
FoamFile
{
    format      ascii;
    class       surfaceScalarField;
    location    "6.6";
    object      phi;
}
// * * * * * * * * * * * * * * * * * * * * * * * * * * * * * * * * * * * * * //

dimensions      [0 3 -1 0 0 0 0];

internalField   nonuniform List<scalar> 
92080
(
-0.0058116
-0.542536
0.548347
-0.0344097
-1.06993
1.09853
-0.0807066
-1.1659
1.21219
-0.128121
-1.14561
1.19303
-0.174602
-1.12743
1.17391
-0.219869
-1.10891
1.15418
-0.263763
-1.09125
1.13514
-0.307129
-1.07364
1.11701
-0.350357
-1.05769
1.10092
-0.393098
-1.04391
1.08665
-0.435277
-1.02963
1.07181
-0.476639
-1.01692
1.05828
-0.518029
-1.00433
1.04572
-0.558187
-0.99239
1.03255
-0.597564
-0.98128
1.02066
-0.635955
-0.970083
1.00847
-0.673075
-0.959043
0.996163
-0.71019
-0.947027
0.984142
-0.747063
-0.936093
0.972966
-0.928978
0.961368
-0.779453
-0.00703606
-0.5355
-0.0377084
-1.03925
-0.0856215
-1.11798
-0.133698
-1.09754
-0.181128
-1.08
-0.228165
-1.06187
-0.274755
-1.04466
-0.319989
-1.02841
-0.364983
-1.0127
-0.409139
-0.99975
-0.452566
-0.986203
-0.495731
-0.973756
-0.537583
-0.962479
-0.579412
-0.950561
-0.619799
-0.940894
-0.659168
-0.930714
-0.697304
-0.920907
-0.732899
-0.911431
-0.765813
-0.903179
-0.895842
-0.798949
-0.00921803
-0.526282
-0.0427607
-1.00571
-0.0925369
-1.06821
-0.142831
-1.04724
-0.192039
-1.03079
-0.239588
-1.01433
-0.286214
-0.998033
-0.332296
-0.982325
-0.37801
-0.966982
-0.423115
-0.954645
-0.466841
-0.942478
-0.510284
-0.930313
-0.553192
-0.91957
-0.5956
-0.908153
-0.638112
-0.898382
-0.679312
-0.889514
-0.720049
-0.880171
-0.760974
-0.870506
-0.801213
-0.862941
-0.857368
-0.839686
-0.0103077
-0.515974
-0.0491946
-0.966825
-0.0980959
-1.01931
-0.146922
-0.998415
-0.196563
-0.981154
-0.246205
-0.964683
-0.295175
-0.949063
-0.342669
-0.934831
-0.389999
-0.919652
-0.437486
-0.907157
-0.483843
-0.896121
-0.529134
-0.885022
-0.573568
-0.875136
-0.616843
-0.864879
-0.659897
-0.855328
-0.702266
-0.847144
-0.742916
-0.839522
-0.782776
-0.830646
-0.823121
-0.822596
-0.816121
-0.864368
-0.00753253
-0.508441
-0.0498865
-0.924471
-0.101773
-0.96742
-0.153325
-0.946863
-0.203921
-0.930558
-0.253901
-0.914703
-0.303975
-0.898989
-0.353195
-0.885611
-0.401314
-0.871532
-0.44971
-0.858762
-0.497666
-0.848164
-0.545023
-0.837666
-0.591334
-0.828824
-0.637289
-0.818924
-0.682497
-0.81012
-0.728277
-0.801365
-0.77317
-0.794629
-0.816657
-0.787158
-0.858968
-0.780285
-0.774185
-0.900904
-0.0039533
-0.504488
-0.0497386
-0.878686
-0.10346
-0.913699
-0.156499
-0.893824
-0.209069
-0.877988
-0.260338
-0.863434
-0.311049
-0.848277
-0.36137
-0.83529
-0.410193
-0.822709
-0.458809
-0.810147
-0.50712
-0.799853
-0.555401
-0.789385
-0.602891
-0.781333
-0.6491
-0.772715
-0.694858
-0.764362
-0.73978
-0.756443
-0.785085
-0.749323
-0.829992
-0.742251
-0.874795
-0.735482
-0.729775
-0.919205
-8.14862e-05
-0.504406
-0.0472599
-0.831507
-0.104517
-0.856442
-0.159275
-0.839066
-0.213312
-0.82395
-0.266442
-0.810305
-0.318631
-0.796088
-0.370469
-0.783451
-0.421539
-0.771639
-0.471935
-0.759751
-0.521777
-0.75001
-0.571269
-0.739893
-0.620792
-0.73181
-0.669162
-0.724345
-0.717016
-0.716508
-0.764634
-0.708825
-0.811328
-0.70263
-0.856912
-0.696666
-0.902243
-0.690152
-0.684564
-0.947454
0.000654613
-0.505061
-0.049651
-0.781202
-0.110211
-0.795882
-0.168212
-0.781065
-0.223377
-0.768785
-0.276402
-0.75728
-0.328315
-0.744176
-0.379841
-0.731925
-0.429991
-0.72149
-0.479703
-0.710039
-0.528905
-0.700809
-0.57782
-0.690978
-0.627318
-0.682312
-0.676485
-0.675178
-0.724365
-0.668629
-0.772423
-0.660767
-0.821145
-0.653908
-0.869296
-0.648515
-0.916321
-0.643127
-0.637319
-0.963565
0.000149107
-0.50521
-0.0523369
-0.728716
-0.112325
-0.735894
-0.169833
-0.723557
-0.227675
-0.710942
-0.283286
-0.701669
-0.336499
-0.690962
-0.389295
-0.67913
-0.441277
-0.669507
-0.492568
-0.658748
-0.543066
-0.650311
-0.592315
-0.641729
-0.641402
-0.633224
-0.691107
-0.625473
-0.740149
-0.619586
-0.787684
-0.613232
-0.835657
-0.605935
-0.884167
-0.600006
-0.932479
-0.594815
-0.589912
-0.979886
-0.0070411
-0.498169
-0.0612496
-0.674507
-0.122867
-0.674276
-0.181444
-0.66498
-0.238026
-0.654361
-0.294389
-0.645306
-0.348088
-0.637263
-0.400942
-0.626276
-0.45261
-0.617839
-0.503632
-0.607726
-0.55491
-0.599033
-0.605076
-0.591563
-0.654371
-0.583929
-0.703746
-0.576098
-0.75355
-0.569782
-0.802047
-0.564736
-0.849426
-0.558555
-0.896801
-0.552631
-0.944211
-0.547404
-0.542703
-0.991421
-0.0163019
-0.481867
-0.0698788
-0.62093
-0.127795
-0.61636
-0.186115
-0.606661
-0.243615
-0.59686
-0.301085
-0.587836
-0.356939
-0.58141
-0.410985
-0.57223
-0.463831
-0.564992
-0.514686
-0.55687
-0.565584
-0.548136
-0.616353
-0.540794
-0.666037
-0.534246
-0.714804
-0.527331
-0.764392
-0.520193
-0.813805
-0.515323
-0.862207
-0.510153
-0.910101
-0.504737
-0.958066
-0.499439
-0.494865
-1.0059
-0.0250259
-0.456841
-0.0799006
-0.566056
-0.137638
-0.558622
-0.194327
-0.549972
-0.251174
-0.540013
-0.307508
-0.531502
-0.363309
-0.525609
-0.418171
-0.517368
-0.472874
-0.510289
-0.52566
-0.504085
-0.577046
-0.496749
-0.628236
-0.489604
-0.67922
-0.483261
-0.729018
-0.477532
-0.77851
-0.470702
-0.828693
-0.46514
-0.878331
-0.460516
-0.926721
-0.456346
-0.974304
-0.451857
-0.447295
-1.02187
-0.0336759
-0.423165
-0.0913955
-0.508336
-0.150121
-0.499897
-0.207079
-0.493015
-0.262208
-0.484884
-0.318384
-0.475325
-0.374101
-0.469893
-0.428629
-0.46284
-0.483307
-0.455611
-0.537445
-0.449947
-0.590236
-0.443959
-0.642068
-0.437772
-0.693601
-0.431728
-0.743945
-0.427189
-0.792934
-0.421713
-0.841761
-0.416313
-0.890916
-0.41136
-0.940315
-0.406947
-0.9885
-0.403672
-0.399697
-1.0361
-0.0413334
-0.381832
-0.101125
-0.448544
-0.159217
-0.441806
-0.215668
-0.436563
-0.27155
-0.429002
-0.326471
-0.420404
-0.382349
-0.414015
-0.43659
-0.408598
-0.490105
-0.402096
-0.543383
-0.39667
-0.595617
-0.391724
-0.646796
-0.386593
-0.697833
-0.380691
-0.749136
-0.375885
-0.799228
-0.371622
-0.848594
-0.366946
-0.897296
-0.362659
-0.946068
-0.358175
-0.995401
-0.354339
-0.351386
-1.04371
-0.0451118
-0.33672
-0.107148
-0.386508
-0.167336
-0.381618
-0.226466
-0.377434
-0.282625
-0.372843
-0.336109
-0.36692
-0.390548
-0.359576
-0.443799
-0.355347
-0.4971
-0.348795
-0.550144
-0.343626
-0.603431
-0.338437
-0.655635
-0.334389
-0.706406
-0.32992
-0.757389
-0.324902
-0.807996
-0.321015
-0.858005
-0.316938
-0.907388
-0.313276
-0.955873
-0.30969
-1.00421
-0.306003
-0.302522
-1.05307
-0.0458129
-0.290907
-0.10662
-0.325701
-0.166482
-0.321755
-0.22652
-0.317396
-0.286446
-0.312917
-0.344609
-0.308757
-0.40184
-0.302344
-0.458137
-0.29905
-0.512581
-0.294351
-0.56556
-0.290646
-0.618145
-0.285853
-0.670498
-0.282035
-0.721967
-0.278451
-0.771976
-0.274893
-0.821961
-0.271029
-0.871377
-0.267522
-0.920739
-0.263914
-0.969973
-0.260456
-1.01855
-0.257422
-0.253922
-1.06715
-0.0436995
-0.247208
-0.10084
-0.26856
-0.15922
-0.263375
-0.218148
-0.258467
-0.27774
-0.253326
-0.335327
-0.251169
-0.391574
-0.246097
-0.448121
-0.242504
-0.503328
-0.239144
-0.558153
-0.235822
-0.611335
-0.23267
-0.664291
-0.229079
-0.717243
-0.225499
-0.7697
-0.222436
-0.821443
-0.219286
-0.872626
-0.216338
-0.922957
-0.213584
-0.972843
-0.21057
-1.02227
-0.207999
-0.204901
-1.07129
-0.0575287
-0.189679
-0.11467
-0.211419
-0.175605
-0.20244
-0.234746
-0.199326
-0.29316
-0.194912
-0.352122
-0.192208
-0.408438
-0.189781
-0.463966
-0.186976
-0.518857
-0.184254
-0.573132
-0.181547
-0.626576
-0.179226
-0.678877
-0.176779
-0.730011
-0.174366
-0.780935
-0.171511
-0.831088
-0.169134
-0.881156
-0.16627
-0.930719
-0.164021
-0.979904
-0.161384
-1.02868
-0.159224
-0.156773
-1.07681
-0.0614619
-0.128217
-0.123489
-0.149392
-0.182283
-0.143646
-0.238445
-0.143163
-0.292935
-0.140422
-0.348227
-0.136915
-0.403255
-0.134753
-0.45845
-0.131781
-0.513036
-0.129668
-0.567196
-0.127386
-0.621053
-0.125369
-0.674606
-0.123226
-0.72734
-0.121631
-0.779159
-0.119692
-0.83013
-0.118164
-0.880232
-0.116168
-0.92971
-0.114543
-0.978573
-0.112521
-1.02694
-0.110859
-0.108922
-1.07479
-0.0576339
-0.0705833
-0.125994
-0.0810324
-0.185779
-0.0838617
-0.247476
-0.0814659
-0.305139
-0.082759
-0.362233
-0.0798217
-0.417915
-0.0790701
-0.472685
-0.0770113
-0.526645
-0.075708
-0.57946
-0.0745705
-0.631754
-0.0730757
-0.683001
-0.0719786
-0.734458
-0.0701748
-0.784943
-0.0692072
-0.835679
-0.0674271
-0.885437
-0.0664095
-0.93508
-0.0649007
-0.983796
-0.0638059
-1.03216
-0.0624909
-1.07963
-0.0614573
0.039234
-0.318567
0.279333
0.0984051
-0.940836
0.881664
0.144859
-1.46762
1.42117
0.156967
-1.63945
1.62734
0.157951
-1.64234
1.64136
0.155098
-1.6222
1.62505
0.152563
-1.59845
1.60098
0.150673
-1.57789
1.57978
0.148733
-1.55829
1.56023
0.145637
-1.53968
1.54278
0.143209
-1.52339
1.52582
0.140515
-1.50668
1.50938
0.137527
-1.49014
1.49312
0.134637
-1.47426
1.47715
0.131852
-1.45832
1.46111
0.128589
-1.44007
1.44334
0.124099
-1.42009
1.42458
0.118787
-1.39798
1.40329
0.11272
-1.37884
1.38491
-1.35977
0.106887
1.3656
0.0346715
-0.353238
0.0898557
-0.99602
0.126844
-1.50461
0.13336
-1.64596
0.13256
-1.64154
0.128743
-1.61838
0.125519
-1.59522
0.121442
-1.57381
0.116812
-1.55366
0.112676
-1.53555
0.107804
-1.51852
0.102938
-1.50182
0.0981238
-1.48532
0.0930707
-1.4692
0.0871565
-1.45241
0.0805772
-1.43349
0.0738461
-1.41336
0.0673967
-1.39153
0.0611689
-1.37262
-1.35334
0.0547348
0.0259461
-0.379184
0.0711173
-1.04119
0.101407
-1.5349
0.104204
-1.64876
0.0998493
-1.63719
0.094099
-1.61263
0.0882949
-1.58942
0.0827126
-1.56823
0.0772022
-1.54815
0.0710015
-1.52935
0.064944
-1.51246
0.0583244
-1.4952
0.0512593
-1.47826
0.0441858
-1.46213
0.0373888
-1.44561
0.0308621
-1.42697
0.0238614
-1.40636
0.0161457
-1.38382
0.00743297
-1.3639
-1.34457
-0.00133328
0.028907
-0.408092
0.0709242
-1.08321
0.0915539
-1.55553
0.0898643
-1.64707
0.0825137
-1.62983
0.074761
-1.60488
0.0668485
-1.58151
0.0585969
-1.55998
0.0498693
-1.53942
0.0409617
-1.52044
0.0318846
-1.50338
0.0231829
-1.4865
0.01469
-1.46976
0.00621248
-1.45365
-0.00278325
-1.43661
-0.0125599
-1.41719
-0.022765
-1.39615
-0.0328931
-1.37369
-0.0426596
-1.35414
-1.33506
-0.0521686
0.0240702
-0.432162
0.0581585
-1.1173
0.0700184
-1.56739
0.0629669
-1.64002
0.0527614
-1.61963
0.0426227
-1.59474
0.0324069
-1.57129
0.0221963
-1.54977
0.0120718
-1.5293
0.00211682
-1.51048
-0.0080828
-1.49318
-0.018932
-1.47565
-0.0301456
-1.45855
-0.0414743
-1.44232
-0.0527145
-1.42537
-0.063537
-1.40637
-0.0743587
-1.38533
-0.085303
-1.36274
-0.0967709
-1.34267
-1.32405
-0.107778
0.0235077
-0.455669
0.0547222
-1.14851
0.0620779
-1.57474
0.0524165
-1.63036
0.0394658
-1.60668
0.0265874
-1.58186
0.0136205
-1.55832
0.000835636
-1.53698
-0.0120914
-1.51637
-0.0258182
-1.49676
-0.0391954
-1.4798
-0.0520037
-1.46284
-0.0647049
-1.44585
-0.0771404
-1.42989
-0.0894604
-1.41305
-0.101835
-1.39399
-0.114319
-1.37285
-0.12693
-1.35013
-0.139515
-1.33008
-1.31229
-0.151276
0.0189481
-0.474618
0.0431163
-1.17268
0.0422809
-1.57391
0.0281219
-1.6162
0.0128123
-1.59137
-0.00229586
-1.56675
-0.0171929
-1.54343
-0.032186
-1.52199
-0.0471192
-1.50144
-0.0613347
-1.48254
-0.0760643
-1.46507
-0.0911136
-1.44779
-0.106076
-1.43089
-0.121121
-1.41484
-0.136141
-1.39803
-0.150887
-1.37925
-0.165275
-1.35846
-0.179239
-1.33617
-0.193203
-1.31612
-1.29852
-0.20698
0.018587
-0.493205
0.0393195
-1.19341
0.0347547
-1.56934
0.0180837
-1.59953
-4.3985e-05
-1.57324
-0.0178581
-1.54894
-0.0357888
-1.5255
-0.0532848
-1.50449
-0.0705528
-1.48417
-0.0886767
-1.46442
-0.106122
-1.44763
-0.123171
-1.43074
-0.140335
-1.41372
-0.15711
-1.39807
-0.173288
-1.38185
-0.188742
-1.36379
-0.203857
-1.34334
-0.219041
-1.32098
-0.234664
-1.3005
-1.28311
-0.250074
0.0144668
-0.507671
0.0292401
-1.20818
0.0186097
-1.55871
-0.0016815
-1.57924
-0.0219315
-1.55299
-0.0422449
-1.52862
-0.0620803
-1.50566
-0.0818611
-1.48471
-0.101512
-1.46452
-0.120483
-1.44545
-0.140068
-1.42805
-0.159361
-1.41145
-0.17813
-1.39495
-0.196871
-1.37933
-0.215558
-1.36317
-0.234042
-1.34531
-0.251926
-1.32546
-0.269222
-1.30369
-0.286522
-1.2832
-1.26594
-0.303691
0.0138358
-0.521507
0.0241551
-1.2185
0.00971597
-1.54427
-0.012899
-1.55662
-0.0359794
-1.52991
-0.0586743
-1.50593
-0.0814911
-1.48284
-0.103828
-1.46238
-0.125626
-1.44272
-0.147675
-1.4234
-0.16903
-1.40669
-0.190415
-1.39006
-0.211926
-1.37344
-0.233018
-1.35824
-0.253358
-1.34283
-0.272507
-1.32616
-0.290884
-1.30708
-0.308915
-1.28566
-0.327261
-1.26485
-1.24746
-0.345739
0.010551
-0.532058
0.0161742
-1.22413
-0.00341799
-1.52468
-0.0290672
-1.53097
-0.054404
-1.50457
-0.0795122
-1.48082
-0.104159
-1.4582
-0.128705
-1.43783
-0.15297
-1.41846
-0.177
-1.39937
-0.201342
-1.38235
-0.224829
-1.36658
-0.247702
-1.35057
-0.27045
-1.33549
-0.293081
-1.3202
-0.31542
-1.30382
-0.336936
-1.28557
-0.357841
-1.26475
-0.378954
-1.24374
-1.22678
-0.39963
0.00966013
-0.541718
0.0111143
-1.22558
-0.011625
-1.50194
-0.0398875
-1.50271
-0.0680354
-1.47643
-0.09597
-1.45289
-0.123647
-1.43052
-0.150847
-1.41063
-0.177321
-1.39198
-0.203146
-1.37354
-0.228727
-1.35677
-0.254615
-1.34069
-0.280222
-1.32496
-0.3053
-1.31041
-0.329752
-1.29574
-0.353026
-1.28055
-0.375148
-1.26344
-0.396402
-1.2435
-0.417834
-1.2223
-1.20513
-0.439486
0.00685775
-0.548576
0.00392895
-1.22265
-0.0231711
-1.47484
-0.0537606
-1.47212
-0.0838616
-1.44633
-0.113592
-1.42316
-0.14315
-1.40096
-0.172628
-1.38115
-0.201741
-1.36287
-0.230895
-1.34439
-0.259498
-1.32816
-0.287238
-1.31295
-0.314795
-1.2974
-0.341926
-1.28328
-0.368679
-1.26899
-0.394964
-1.25426
-0.420154
-1.23825
-0.444387
-1.21927
-0.468552
-1.19814
-1.18113
-0.492555
0.00558284
-0.554159
-0.0011745
-1.2159
-0.031518
-1.4445
-0.0653836
-1.43825
-0.0983096
-1.4134
-0.130954
-1.39051
-0.162963
-1.36895
-0.19465
-1.34947
-0.225677
-1.33184
-0.255744
-1.31432
-0.286214
-1.29769
-0.316441
-1.28272
-0.345988
-1.26786
-0.375255
-1.25401
-0.404024
-1.24022
-0.432057
-1.22623
-0.458752
-1.21156
-0.483986
-1.19403
-0.509039
-1.17309
-1.15591
-0.534253
0.00301526
-0.557174
-0.00829639
-1.20458
-0.0402756
-1.41252
-0.0756487
-1.40288
-0.110314
-1.37873
-0.14462
-1.3562
-0.178971
-1.3346
-0.213222
-1.31522
-0.247106
-1.29796
-0.28079
-1.28064
-0.313395
-1.26509
-0.345946
-1.25017
-0.378456
-1.23535
-0.41014
-1.22233
-0.44123
-1.20913
-0.4717
-1.19576
-0.501191
-1.18207
-0.529024
-1.1662
-0.555927
-1.14618
-1.12885
-0.582993
0.00138162
-0.558556
-0.0141142
-1.18909
-0.0500604
-1.37657
-0.0884215
-1.36452
-0.125796
-1.34136
-0.162564
-1.31944
-0.19845
-1.29872
-0.234217
-1.27945
-0.269675
-1.2625
-0.304574
-1.24574
-0.339903
-1.22976
-0.374047
-1.21603
-0.408026
-1.20137
-0.442079
-1.18828
-0.47558
-1.17563
-0.508769
-1.16257
-0.540706
-1.15013
-0.57092
-1.13598
-0.599735
-1.11737
-1.10018
-0.628402
-0.000185187
-0.55837
-0.0186722
-1.1706
-0.0557206
-1.33953
-0.0952536
-1.32499
-0.134079
-1.30253
-0.172778
-1.28074
-0.211461
-1.26003
-0.24982
-1.24109
-0.287685
-1.22464
-0.324911
-1.20851
-0.361726
-1.19295
-0.398995
-1.17876
-0.435606
-1.16476
-0.471926
-1.15196
-0.50759
-1.13997
-0.542779
-1.12738
-0.577457
-1.11545
-0.610043
-1.1034
-0.640309
-1.0871
-1.07009
-0.670396
-0.00163466
-0.556736
-0.0233607
-1.14887
-0.06439
-1.2985
-0.107057
-1.28232
-0.148436
-1.26116
-0.188882
-1.24029
-0.228536
-1.22038
-0.268301
-1.20132
-0.308136
-1.1848
-0.347568
-1.16908
-0.386584
-1.15393
-0.42466
-1.14068
-0.462966
-1.12645
-0.501298
-1.11362
-0.53944
-1.10183
-0.577357
-1.08946
-0.615032
-1.07778
-0.651648
-1.06678
-0.685384
-1.05337
-1.03731
-0.71817
-0.0035794
-0.553156
-0.0276679
-1.12479
-0.0693265
-1.25684
-0.112822
-1.23883
-0.155574
-1.2184
-0.19807
-1.1978
-0.239959
-1.17849
-0.281188
-1.1601
-0.322062
-1.14392
-0.362424
-1.12872
-0.403343
-1.11301
-0.444048
-1.09998
-0.484021
-1.08648
-0.524461
-1.07318
-0.564599
-1.06169
-0.6046
-1.04946
-0.644761
-1.03762
-0.68474
-1.0268
-0.72211
-1.016
-1.00183
-0.757582
-0.00480923
-0.0310703
-0.0757148
-0.121514
-0.166004
-0.209621
-0.25297
-0.296059
-0.339066
-0.381138
-0.42234
-0.464033
-0.504789
-0.545424
-0.586456
-0.627445
-0.668899
-0.711559
-0.754593
-0.79506
0.0458522
-11.6988
11.7599
0.0141128
-10.8872
10.9189
-0.00477047
-10.6366
10.6555
-0.00717456
-10.2812
10.2836
-0.0134196
-9.99424
10.0005
-0.0143164
-9.71563
9.71652
-0.0176313
-9.5176
9.52091
-0.0177462
-9.32804
9.32816
-0.0165672
-9.20719
9.20601
-0.0152761
-9.08639
9.08509
-0.0126803
-9.0179
9.0153
-0.0101983
-8.93998
8.9375
-0.00583557
-8.89337
8.889
-0.00126593
-8.81778
8.81321
0.00517029
-8.77915
8.77272
0.0108844
-8.69153
8.68581
0.018454
-8.48211
8.47454
0.0138425
-7.50363
7.50824
0.00899157
-5.40222
5.40707
-2.18698
2.19597
-0.00652363
-11.6376
-0.0399441
-10.8537
-0.0586374
-10.6179
-0.0642255
-10.2756
-0.0704015
-9.98806
-0.0702904
-9.71574
-0.0713198
-9.51657
-0.0681777
-9.33119
-0.0636442
-9.21172
-0.0589213
-9.09111
-0.0528492
-9.02397
-0.0471212
-8.94571
-0.0390784
-8.90141
-0.0298761
-8.82698
-0.0187214
-8.79031
-0.00793401
-8.70231
0.00502065
-8.49506
0.00713987
-7.50575
0.00709511
-5.40217
-2.17989
-0.0754041
-11.5635
-0.111929
-10.8172
-0.131584
-10.5983
-0.137444
-10.2698
-0.140436
-9.98507
-0.135803
-9.72037
-0.13212
-9.52025
-0.124662
-9.33865
-0.115554
-9.22083
-0.106174
-9.10049
-0.0953598
-9.03478
-0.0848313
-8.95624
-0.0725044
-8.91374
-0.0588154
-8.84067
-0.0428117
-8.80631
-0.0269616
-8.71816
-0.00842126
-8.5136
0.000646462
-7.51481
0.00586012
-5.40739
-2.17403
-0.124141
-11.4915
-0.165036
-10.7763
-0.186697
-10.5766
-0.195474
-10.261
-0.198019
-9.98252
-0.192042
-9.72635
-0.185939
-9.52635
-0.1753
-9.34928
-0.162967
-9.23316
-0.150021
-9.11343
-0.135622
-9.04918
-0.121736
-8.97012
-0.105499
-8.92997
-0.0874628
-8.85871
-0.0665929
-8.82718
-0.045806
-8.73895
-0.0217246
-8.53768
-0.00569315
-7.53085
0.00375423
-5.41683
-2.17027
-0.192405
-11.4069
-0.235567
-10.7332
-0.259514
-10.5527
-0.268268
-10.2522
-0.26689
-9.9839
-0.256391
-9.73685
-0.245798
-9.53695
-0.230838
-9.36424
-0.213919
-9.25008
-0.196489
-9.13086
-0.17747
-9.0682
-0.158949
-8.98864
-0.138327
-8.95059
-0.115794
-8.88124
-0.0903567
-8.85262
-0.0649803
-8.76433
-0.0351885
-8.56748
-0.0118222
-7.55421
0.00222435
-5.43088
-2.16805
-0.24158
-11.3166
-0.288347
-10.6864
-0.314504
-10.5265
-0.326393
-10.2403
-0.324258
-9.98604
-0.312495
-9.74861
-0.299284
-9.55016
-0.281381
-9.38215
-0.261323
-9.27014
-0.240294
-9.15189
-0.217754
-9.09074
-0.195594
-9.0108
-0.170966
-8.97522
-0.14417
-8.90804
-0.114177
-8.88261
-0.083896
-8.79461
-0.0485225
-8.60285
-0.0178524
-7.58488
0.000417826
-5.44915
-2.16763
-0.307484
-11.2161
-0.357922
-10.636
-0.385829
-10.4986
-0.397138
-10.229
-0.391117
-9.99206
-0.375389
-9.76434
-0.357847
-9.5677
-0.335639
-9.40435
-0.311109
-9.29467
-0.285642
-9.17736
-0.258651
-9.11773
-0.23214
-9.03731
-0.203351
-9.00401
-0.172174
-8.93921
-0.13826
-8.91653
-0.10331
-8.82956
-0.0620962
-8.64406
-0.0243369
-7.62264
-0.00117718
-5.47231
-2.16881
-0.357782
-11.1084
-0.412266
-10.5815
-0.441276
-10.4696
-0.454437
-10.2159
-0.44802
-9.99847
-0.431187
-9.78117
-0.410672
-9.58821
-0.385576
-9.42945
-0.358021
-9.32222
-0.329085
-9.2063
-0.298552
-9.14827
-0.268169
-9.0677
-0.235514
-9.03667
-0.200052
-8.97467
-0.162116
-8.95446
-0.122831
-8.86884
-0.0761759
-8.69072
-0.0312481
-7.66757
-0.00289917
-5.50066
-2.17171
-0.421015
-10.9911
-0.480676
-10.5218
-0.510461
-10.4398
-0.521708
-10.2046
-0.512324
-10.0079
-0.492161
-9.80133
-0.467385
-9.61299
-0.43818
-9.45866
-0.406358
-9.35405
-0.373049
-9.2396
-0.338324
-9.18299
-0.303753
-9.10227
-0.267141
-9.07328
-0.227696
-9.01412
-0.185662
-8.9965
-0.142225
-8.91228
-0.0899629
-8.74298
-0.0379258
-7.71961
-0.00449964
-5.53408
-2.1762
-0.471034
-10.8658
-0.53495
-10.4579
-0.56651
-10.4082
-0.578165
-10.193
-0.568499
-10.0175
-0.547191
-9.82264
-0.519254
-9.64093
-0.487155
-9.49076
-0.452389
-9.38881
-0.415677
-9.27632
-0.377385
-9.22128
-0.338899
-9.14076
-0.298567
-9.11361
-0.255139
-9.05755
-0.208936
-9.0427
-0.161177
-8.96004
-0.103516
-8.80064
-0.0451553
-7.77797
-0.00653519
-5.5727
-2.18274
-0.533304
-10.7321
-0.599968
-10.3912
-0.631942
-10.3763
-0.641816
-10.1831
-0.629921
-10.0294
-0.605725
-9.84684
-0.573798
-9.67285
-0.537804
-9.52675
-0.498959
-9.42766
-0.458046
-9.31723
-0.415743
-9.26359
-0.37325
-9.18325
-0.32921
-9.15765
-0.282007
-9.10475
-0.231702
-9.093
-0.179838
-9.0119
-0.117327
-8.86315
-0.0526066
-7.84269
-0.00820966
-5.6171
-2.19095
-0.583202
-10.5884
-0.654464
-10.32
-0.688217
-10.3425
-0.697382
-10.1739
-0.684691
-10.0421
-0.65924
-9.87229
-0.624343
-9.70775
-0.585514
-9.56558
-0.543737
-9.46944
-0.499428
-9.36154
-0.453472
-9.30954
-0.407126
-9.22959
-0.359593
-9.20518
-0.308727
-9.15562
-0.254047
-9.14768
-0.198164
-9.06778
-0.130528
-8.93079
-0.0600335
-7.91318
-0.0102448
-5.66689
-2.20119
-0.641358
-10.4396
-0.714693
-10.2466
-0.749214
-10.308
-0.757664
-10.1655
-0.74313
-10.0566
-0.714814
-9.90061
-0.6765
-9.74606
-0.633976
-9.6081
-0.588283
-9.51513
-0.540057
-9.40976
-0.490235
-9.35937
-0.439957
-9.27987
-0.388732
-9.25641
-0.334857
-9.20949
-0.276326
-9.20622
-0.216226
-9.12788
-0.143926
-9.00309
-0.0676815
-7.98943
-0.0119927
-5.72258
-2.21319
-0.69293
-10.2809
-0.76954
-10.17
-0.804812
-10.2727
-0.811915
-10.1584
-0.796128
-10.0724
-0.766288
-9.93045
-0.725282
-9.78707
-0.680111
-9.65327
-0.631385
-9.56385
-0.579773
-9.46138
-0.526468
-9.41267
-0.472331
-9.33401
-0.41746
-9.31128
-0.360016
-9.26693
-0.297825
-9.26841
-0.233908
-9.1918
-0.157565
-9.07943
-0.0758687
-8.07112
-0.0136829
-5.78476
-2.22687
-0.745722
-10.1182
-0.8239
-10.0918
-0.860908
-10.2357
-0.868817
-10.1505
-0.851147
-10.0901
-0.818691
-9.9629
-0.774771
-9.83099
-0.726087
-9.70196
-0.673751
-9.61619
-0.618431
-9.5167
-0.561468
-9.46963
-0.503564
-9.39191
-0.444926
-9.36992
-0.384249
-9.32761
-0.318865
-9.33379
-0.25117
-9.2595
-0.170895
-9.15971
-0.0840359
-8.15798
-0.0153636
-5.85344
-2.24223
-0.798517
-9.94804
-0.878272
-10.0121
-0.914539
-10.1995
-0.921047
-10.144
-0.90218
-10.109
-0.867945
-9.99714
-0.821557
-9.87738
-0.770265
-9.75325
-0.714853
-9.6716
-0.65623
-9.57532
-0.595923
-9.52994
-0.534339
-9.4535
-0.472203
-9.43205
-0.408164
-9.39165
-0.339459
-9.4025
-0.2681
-9.33085
-0.18454
-9.24327
-0.0926525
-8.24987
-0.0169712
-5.92912
-2.2592
-0.847787
-9.77065
-0.928502
-9.93138
-0.965989
-10.162
-0.973521
-10.1364
-0.953173
-10.1293
-0.916913
-10.0334
-0.86784
-9.92645
-0.813351
-9.80774
-0.754775
-9.73018
-0.692661
-9.63743
-0.628905
-9.5937
-0.563792
-9.51861
-0.497753
-9.49809
-0.430547
-9.45886
-0.359464
-9.47358
-0.284736
-9.40558
-0.198036
-9.32997
-0.101235
-8.34667
-0.0186098
-6.01174
-2.27781
-0.902331
-9.58649
-0.98381
-9.8499
-1.01821
-10.1276
-1.02368
-10.131
-1.00214
-10.1509
-0.963763
-10.0718
-0.912367
-9.97785
-0.8551
-9.865
-0.793558
-9.79172
-0.728346
-9.70264
-0.661416
-9.66063
-0.592773
-9.58725
-0.523283
-9.56758
-0.452499
-9.52964
-0.378575
-9.5475
-0.30058
-9.48358
-0.210846
-9.4197
-0.10901
-8.44851
-0.0204684
-6.10028
-2.29828
-0.943041
-9.40103
-1.03395
-9.75898
-1.06938
-10.0921
-1.07479
-10.1256
-1.05159
-10.1741
-1.011
-10.1124
-0.956652
-10.0322
-0.896115
-9.92554
-0.831399
-9.85644
-0.762818
-9.77123
-0.692611
-9.73083
-0.62068
-9.65919
-0.547501
-9.64076
-0.473417
-9.60372
-0.396955
-9.62396
-0.315873
-9.56466
-0.222676
-9.5129
-0.116854
-8.55433
-0.023752
-6.19339
-2.32204
-0.98288
-9.21321
-1.07791
-9.66395
-1.11259
-10.0575
-1.11658
-10.1216
-1.09454
-10.1961
-1.05267
-10.1542
-0.997378
-10.0875
-0.934111
-9.98881
-0.867219
-9.92333
-0.79577
-9.84267
-0.722791
-9.80381
-0.647339
-9.73464
-0.571223
-9.71688
-0.493792
-9.68115
-0.415112
-9.70264
-0.330463
-9.64931
-0.233658
-9.6097
-0.123874
-8.66411
-0.0270856
-6.29017
-2.34912
8.18696
-8.37004
-9.03013
7.15017
-8.62716
6.09463
-9.00193
5.13682
-9.16375
4.28996
-9.34924
3.54349
-9.40776
2.92483
-9.46883
2.40905
-9.47303
1.98258
-9.49686
1.62803
-9.48813
1.31987
-9.49565
1.0687
-9.48347
0.858301
-9.50648
0.672118
-9.49497
0.494821
-9.52535
0.357648
-9.51213
0.235795
-9.48785
0.161312
-8.58963
0.0674404
-6.1963
-2.28168
4.82989
-8.01993
-5.18001
4.40802
-8.20529
3.93675
-8.53066
3.46509
-8.69209
2.99453
-8.87868
2.56993
-8.98316
2.1867
-9.08559
1.85838
-9.14471
1.56787
-9.20634
1.32286
-9.24313
1.10971
-9.28249
0.933496
-9.30726
0.765161
-9.33814
0.615164
-9.34497
0.46173
-9.37191
0.332652
-9.38306
0.182558
-9.33776
0.0756448
-8.48272
-0.0859095
-6.03475
-2.36759
3.48962
-7.93267
-3.57688
3.3813
-8.09696
3.15812
-8.30748
2.9216
-8.45558
2.64975
-8.60683
2.38692
-8.72033
2.12539
-8.82406
1.87979
-8.89911
1.64265
-8.9692
1.42183
-9.02231
1.21214
-9.0728
1.0152
-9.11033
0.821887
-9.14483
0.649038
-9.17213
0.480576
-9.20345
0.324487
-9.22697
0.185434
-9.1987
0.1018
-8.39908
0.00824831
-5.9412
-2.35934
2.25552
-7.94883
-2.23935
2.22533
-8.06678
2.1274
-8.20955
2.01307
-8.34124
1.86098
-8.45475
1.69568
-8.55503
1.52139
-8.64977
1.35232
-8.73005
1.18401
-8.80088
1.0219
-8.8602
0.864543
-8.91545
0.715076
-8.96086
0.576296
-9.00605
0.45111
-9.04694
0.338357
-9.0907
0.238082
-9.12669
0.117806
-9.07843
0.0797668
-8.36104
0.0630346
-5.92447
-2.29631
1.47408
-8.00577
-1.41714
1.50347
-8.09617
1.50516
-8.21123
1.46661
-8.30269
1.38988
-8.37802
1.3001
-8.46525
1.19513
-8.5448
1.08124
-8.61615
0.961547
-8.68119
0.839394
-8.73805
0.715853
-8.7919
0.59359
-8.8386
0.471162
-8.88362
0.353356
-8.92913
0.23587
-8.97321
0.12447
-9.01529
0.0264322
-8.98039
0.0048276
-8.33944
0.0399086
-5.95955
-2.2564
0.987095
-8.05793
-0.934935
1.02524
-8.13432
1.00507
-8.19105
0.967129
-8.26476
0.920163
-8.33106
0.857722
-8.40281
0.784377
-8.47146
0.699141
-8.53092
0.608643
-8.59069
0.513532
-8.64294
0.418164
-8.69654
0.322302
-8.74273
0.231124
-8.79244
0.139697
-8.83771
0.0522908
-8.88581
-0.0356933
-8.92731
-0.119867
-8.89622
-0.104211
-8.3551
0.021276
-6.08503
-2.23512
0.588761
-8.09242
-0.554276
0.599604
-8.14517
0.610016
-8.20146
0.6107
-8.26544
0.597816
-8.31817
0.559895
-8.36489
0.50967
-8.42123
0.452041
-8.47329
0.383743
-8.52239
0.307076
-8.56627
0.226178
-8.61564
0.143885
-8.66044
0.0623138
-8.71087
-0.023959
-8.75143
-0.112455
-8.79731
-0.197472
-8.84229
-0.262383
-8.83131
-0.231807
-8.38567
-0.03474
-6.2821
-2.26986
0.385157
-8.12782
-0.349753
0.40396
-8.16397
0.407064
-8.20457
0.386604
-8.24498
0.353165
-8.28474
0.313605
-8.32533
0.260938
-8.36856
0.202071
-8.41442
0.1378
-8.45812
0.0697375
-8.49821
-0.00249123
-8.54341
-0.0784709
-8.58446
-0.158188
-8.63115
-0.239385
-8.67024
-0.320549
-8.71615
-0.40142
-8.76142
-0.456601
-8.77612
-0.417153
-8.42512
-0.139032
-6.56022
-2.40889
0.189234
-8.13667
-0.180388
0.18811
-8.16284
0.181015
-8.19747
0.165198
-8.22916
0.14652
-8.26606
0.121398
-8.30021
0.0869197
-8.33408
0.0365776
-8.36408
-0.0241711
-8.39737
-0.0884193
-8.43396
-0.157961
-8.47387
-0.235403
-8.50702
-0.318173
-8.54838
-0.405306
-8.5831
-0.491394
-8.63006
-0.583368
-8.66945
-0.666119
-8.69337
-0.643723
-8.44751
-0.298378
-6.90557
-2.70727
0.0916457
-8.14323
-0.0850801
0.0915007
-8.1627
0.0831335
-8.1891
0.0655686
-8.2116
0.037302
-8.23779
-0.00378404
-8.25912
-0.0510425
-8.28683
-0.103932
-8.31119
-0.159471
-8.34183
-0.222655
-8.37077
-0.293756
-8.40277
-0.371023
-8.42975
-0.456009
-8.4634
-0.551162
-8.48795
-0.652917
-8.5283
-0.767382
-8.55498
-0.874207
-8.58655
-0.889382
-8.43234
-0.538768
-7.25618
-3.24604
0.0237453
-8.13538
-0.0315975
0.0102974
-8.14925
-0.0105657
-8.16824
-0.036821
-8.18534
-0.0694918
-8.20512
-0.106206
-8.22241
-0.151372
-8.24166
-0.202327
-8.26023
-0.256403
-8.28776
-0.318097
-8.30908
-0.389125
-8.33174
-0.467317
-8.35156
-0.55806
-8.37265
-0.656577
-8.38943
-0.773618
-8.41126
-0.907463
-8.42114
-1.05142
-8.44259
-1.09438
-8.38938
-0.810694
-7.53987
-4.05673
-0.00376206
-8.12245
-0.00916621
-0.0197162
-8.1333
-0.0402509
-8.14771
-0.065921
-8.15967
-0.0972308
-8.17381
-0.133466
-8.18617
-0.171482
-8.20364
-0.214664
-8.21705
-0.269853
-8.23257
-0.333211
-8.24572
-0.405225
-8.25972
-0.484877
-8.27191
-0.575196
-8.28233
-0.671381
-8.29325
-0.787257
-8.29539
-0.909123
-8.29927
-1.06454
-8.28717
-1.18619
-8.26773
-0.984997
-7.74106
-5.04173
-0.00236171
-8.10467
-0.0154181
-0.0232323
-8.11243
-0.0482567
-8.12268
-0.0770237
-8.13091
-0.108609
-8.14222
-0.14334
-8.15144
-0.18398
-8.163
-0.227027
-8.174
-0.276306
-8.18329
-0.332095
-8.18993
-0.393244
-8.19858
-0.462077
-8.20308
-0.538202
-8.20621
-0.627343
-8.20411
-0.724971
-8.19776
-0.83045
-8.19379
-0.944669
-8.17295
-1.06489
-8.14751
-0.925781
-7.88017
-5.96751
0.0368968
-8.08782
-0.0537485
0.0173368
-8.09287
-0.00517245
-8.10017
-0.0305301
-8.10555
-0.0597426
-8.11301
-0.0915732
-8.11961
-0.127599
-8.12698
-0.171215
-8.13039
-0.217665
-8.13684
-0.268358
-8.13924
-0.323653
-8.14328
-0.38451
-8.14222
-0.449
-8.14172
-0.518265
-8.13484
-0.587926
-8.1281
-0.670072
-8.11165
-0.751652
-8.09137
-0.835748
-8.06342
-0.769417
-7.9465
-6.73693
0.0561368
-8.06854
-0.0754195
0.0346873
-8.07142
0.0116151
-8.0771
-0.0131891
-8.08074
-0.041287
-8.08491
-0.0732085
-8.08769
-0.108146
-8.09204
-0.143346
-8.09519
-0.180994
-8.09919
-0.219966
-8.10027
-0.262677
-8.10057
-0.3076
-8.09729
-0.353889
-8.09543
-0.399944
-8.08879
-0.446376
-8.08167
-0.490817
-8.0672
-0.532677
-8.04951
-0.584174
-8.01192
-0.560041
-7.97063
-7.29697
0.0695187
-8.05341
-0.0846476
0.0530519
-8.05495
0.0342224
-8.05827
0.0139026
-8.06042
-0.00776233
-8.06325
-0.0312376
-8.06421
-0.0570703
-8.06621
-0.0850306
-8.06723
-0.1156
-8.06862
-0.1471
-8.06877
-0.17883
-8.06884
-0.212402
-8.06372
-0.24479
-8.06304
-0.27804
-8.05554
-0.307202
-8.0525
-0.336914
-8.03749
-0.358812
-8.02761
-0.369469
-8.00126
-0.342546
-7.99756
-7.63952
0.0674946
-8.04044
-0.0804692
0.053525
-8.04098
0.0369053
-8.04165
0.0187733
-8.04229
-0.00026014
-8.04422
-0.0196941
-8.04478
-0.0401271
-8.04577
-0.061477
-8.04588
-0.0834594
-8.04664
-0.105675
-8.04655
-0.127298
-8.04722
-0.147269
-8.04375
-0.167497