/*--------------------------------*- C++ -*----------------------------------*\
  =========                 |
  \\      /  F ield         | OpenFOAM: The Open Source CFD Toolbox
   \\    /   O peration     | Website:  https://openfoam.org
    \\  /    A nd           | Version:  9
     \\/     M anipulation  |
\*---------------------------------------------------------------------------*/
FoamFile
{
    format      ascii;
    class       volVectorField;
    location    "6.6";
    object      U;
}
// * * * * * * * * * * * * * * * * * * * * * * * * * * * * * * * * * * * * * //

dimensions      [0 1 -1 0 0 0 0];

internalField   nonuniform List<vector> 
46400
(
(9.78168 -9.51291 -4.82244e-19)
(19.5333 -18.8169 4.54746e-19)
(20.9453 -21.0835 -7.39043e-20)
(20.1451 -21.1487 -8.58104e-21)
(19.5068 -21.1752 -5.79772e-20)
(18.8064 -21.2572 -3.3541e-19)
(18.1921 -21.2647 1.52234e-19)
(17.5483 -21.2666 -3.78972e-21)
(16.9713 -21.2835 -5.71042e-21)
(16.4502 -21.3377 1.42397e-20)
(15.9277 -21.3682 -2.18424e-20)
(15.4523 -21.4079 0)
(14.9816 -21.4346 1.65618e-19)
(14.5169 -21.4538 -1.97243e-19)
(14.0946 -21.4617 -3.36877e-19)
(13.6896 -21.4886 -9.41214e-20)
(13.2794 -21.4877 -4.39446e-20)
(12.8941 -21.4011 3.07104e-19)
(12.5087 -21.3709 4.7672e-19)
(12.0528 -21.6318 -4.38551e-19)
(10.0598 -8.98298 0)
(19.6541 -17.5879 -3.84329e-20)
(20.8859 -19.5256 0)
(20.1106 -19.6753 -1.69098e-19)
(19.4517 -19.7185 1.11395e-19)
(18.7343 -19.8073 -2.65787e-20)
(18.0854 -19.8657 0)
(17.4676 -19.9306 3.78973e-21)
(16.8818 -19.9975 5.71039e-21)
(16.3488 -20.0685 -1.42396e-20)
(15.8155 -20.1286 3.38345e-19)
(15.3331 -20.1908 5.17844e-20)
(14.861 -20.2576 -3.22666e-19)
(14.4425 -20.3198 0)
(14.0315 -20.4026 4.52403e-20)
(13.6369 -20.4261 4.97607e-20)
(13.2486 -20.4883 0)
(12.9277 -20.4839 -5.74677e-19)
(12.6043 -20.4862 -1.58721e-19)
(12.1331 -20.6661 5.88215e-19)
(10.2607 -8.42723 -1.12649e-19)
(19.6611 -16.3733 2.17638e-20)
(20.6278 -17.9244 -6.85981e-20)
(19.7781 -18.1069 4.39177e-20)
(19.1505 -18.2221 -4.31166e-20)
(18.4653 -18.3835 0)
(17.8512 -18.4797 -3.85963e-19)
(17.2498 -18.5936 3.2646e-19)
(16.6682 -18.6839 -5.16382e-19)
(16.1718 -18.8209 5.14489e-19)
(15.6708 -18.9293 5.38042e-19)
(15.2047 -19.0169 -3.70796e-20)
(14.7709 -19.142 -4.79554e-19)
(14.3095 -19.1885 0)
(13.913 -19.3023 6.58277e-19)
(13.5355 -19.3936 -6.48305e-19)
(13.1521 -19.4775 0)
(12.8185 -19.5089 -1.9805e-20)
(12.4902 -19.6393 7.79692e-20)
(12.0898 -19.9228 -7.59994e-19)
(10.3955 -7.85161 -4.43176e-20)
(19.5436 -15.1194 -3.58374e-21)
(20.3031 -16.428 1.50302e-19)
(19.5028 -16.642 -1.48559e-19)
(18.8779 -16.7851 -1.63857e-19)
(18.2232 -16.9909 2.3138e-19)
(17.5946 -17.1556 3.51993e-19)
(16.9962 -17.2944 -9.39189e-19)
(16.4181 -17.4376 8.00637e-19)
(15.9045 -17.5883 -7.32359e-20)
(15.4114 -17.7602 0)
(14.9395 -17.8849 8.22194e-20)
(14.4874 -18.0184 -8.58172e-20)
(14.0843 -18.1507 0)
(13.6848 -18.2615 8.35495e-19)
(13.3227 -18.3953 -7.07419e-19)
(12.9602 -18.5024 0)
(12.6192 -18.5477 9.73655e-20)
(12.287 -18.6329 1.1504e-19)
(11.8588 -18.9366 9.13414e-19)
(10.5248 -7.27042 0)
(19.2727 -13.7235 0)
(19.9145 -14.9429 -3.04413e-19)
(19.0792 -15.1999 2.0092e-19)
(18.4104 -15.3631 -4.48984e-19)
(17.7411 -15.5753 3.70514e-19)
(17.1344 -15.777 0)
(16.587 -16.0021 4.46104e-19)
(16.0025 -16.1642 -5.36342e-19)
(15.4968 -16.3488 -1.30011e-19)
(15.028 -16.5588 -1.32236e-19)
(14.5849 -16.7445 0)
(14.1799 -16.9474 9.99334e-19)
(13.7488 -17.088 -9.83706e-19)
(13.354 -17.255 0)
(12.9999 -17.4102 -1.13537e-18)
(12.6663 -17.6145 1.00478e-18)
(12.353 -17.7157 1.02336e-18)
(12.0247 -17.8601 -1.10981e-18)
(11.6143 -18.1636 0)
(10.7395 -6.67403 0)
(18.8794 -12.3691 0)
(19.3035 -13.411 0)
(18.5145 -13.7292 -3.71428e-20)
(17.9136 -14.0024 0)
(17.3047 -14.2787 0)
(16.6792 -14.5127 0)
(16.124 -14.7369 -1.53806e-19)
(15.5906 -14.9849 0)
(15.0864 -15.1678 1.30016e-19)
(14.6193 -15.4077 -2.60173e-20)
(14.1812 -15.6001 -1.34244e-18)
(13.765 -15.8324 1.00601e-18)
(13.3845 -16.0159 -1.34774e-18)
(13.0076 -16.2129 1.01242e-18)
(12.6312 -16.3607 0)
(12.2943 -16.5504 -1.18168e-18)
(11.9912 -16.6953 1.00827e-18)
(11.6902 -16.8702 0)
(11.2961 -17.2105 -1.61846e-19)
(10.9835 -6.15428 5.13761e-19)
(18.3293 -10.9867 1.58227e-19)
(18.7001 -12.0018 6.1066e-19)
(17.9186 -12.35 -6.39693e-19)
(17.2463 -12.6386 -6.53865e-19)
(16.6446 -12.944 1.30917e-18)
(16.051 -13.2441 -1.51342e-18)
(15.5353 -13.5228 1.35506e-19)
(15.0051 -13.8039 4.87997e-19)
(14.5114 -14.0437 0)
(14.0623 -14.3126 -2.51373e-20)
(13.6265 -14.5421 -2.40187e-20)
(13.2605 -14.8162 1.58894e-19)
(12.8804 -15.0504 1.34474e-18)
(12.5155 -15.2653 -1.18743e-18)
(12.1956 -15.4999 -1.52592e-18)
(11.8707 -15.7128 1.32801e-18)
(11.5683 -15.8838 -1.86515e-20)
(11.2645 -16.0552 -1.70718e-19)
(10.9011 -16.4121 -1.22254e-18)
(11.2903 -5.65 -1.87372e-19)
(17.6816 -9.75756 3.96449e-20)
(17.7296 -10.5542 -2.05093e-19)
(17.0621 -11.019 -8.12557e-19)
(16.4817 -11.4262 5.53647e-19)
(15.9421 -11.7679 0)
(15.3722 -12.0979 1.18749e-18)
(14.8528 -12.3779 -5.70209e-19)
(14.3712 -12.6973 3.93575e-19)
(13.9116 -12.9465 2.08864e-19)
(13.4872 -13.2413 -3.95858e-19)
(13.0813 -13.4809 9.56757e-19)
(12.6818 -13.7453 2.03791e-19)
(12.3516 -14.0135 -1.15401e-18)
(12.0047 -14.2661 3.23359e-18)
(11.6407 -14.463 -1.3204e-18)
(11.3423 -14.7248 1.68339e-18)
(11.0805 -14.9494 -1.09968e-18)
(10.7967 -15.1547 3.60409e-19)
(10.4296 -15.5241 1.74328e-18)
(11.5421 -5.17268 9.82962e-19)
(16.8327 -8.51558 -2.00108e-19)
(16.8177 -9.28246 -3.51379e-20)
(16.1994 -9.70954 4.4955e-19)
(15.637 -10.1912 2.09964e-19)
(15.1472 -10.6022 2.40183e-19)
(14.6146 -10.9909 -1.11876e-18)
(14.1389 -11.315 6.81241e-19)
(13.6869 -11.68 -2.10028e-19)
(13.2325 -11.9643 -2.08862e-19)
(12.8227 -12.2921 -2.07421e-19)
(12.4223 -12.5534 -2.27473e-19)
(12.0558 -12.8398 -4.28418e-19)
(11.7172 -13.1009 1.49657e-18)
(11.4158 -13.4014 -2.09024e-18)
(11.1165 -13.6423 -2.1551e-19)
(10.7798 -13.8743 1.76036e-20)
(10.5099 -14.0984 -1.59272e-18)
(10.2655 -14.336 1.18891e-18)
(9.92258 -14.713 -1.89659e-18)
(11.6578 -4.78831 9.11965e-19)
(15.9437 -7.3932 -2.31042e-18)
(15.6698 -8.09998 1.53299e-18)
(15.1811 -8.61861 -2.41208e-19)
(14.6154 -9.08209 -2.69943e-19)
(14.1955 -9.54118 1.04985e-18)
(13.7548 -9.98932 -1.26951e-18)
(13.275 -10.3255 0)
(12.8517 -10.7095 9.91478e-19)
(12.4402 -11.018 -9.74963e-19)
(12.0715 -11.3698 -7.14752e-19)
(11.7325 -11.6874 9.30334e-19)
(11.3637 -11.9792 2.24618e-19)
(11.0285 -12.2525 -9.25521e-19)
(10.7307 -12.5482 2.18348e-19)
(10.441 -12.8251 1.1132e-18)
(10.152 -13.077 -1.97946e-18)
(9.88698 -13.3058 1.3064e-18)
(9.63519 -13.5268 -1.52055e-20)
(9.3579 -13.9064 -1.82967e-18)
(11.522 -4.34216 1.28136e-18)
(14.874 -6.34721 -8.68253e-19)
(14.5605 -7.02143 5.84647e-19)
(14.1228 -7.50842 1.21252e-20)
(13.6817 -8.0846 -1.15654e-18)
(13.2414 -8.51678 -1.10128e-18)
(12.8427 -9.04171 1.37179e-18)
(12.4327 -9.41859 -8.12376e-19)
(12.0596 -9.85695 1.07869e-18)
(11.663 -10.1808 0)
(11.2732 -10.5264 1.99461e-20)
(10.9432 -10.8491 2.47942e-19)
(10.6368 -11.1914 2.62416e-19)
(10.3208 -11.4691 -2.57828e-19)
(10.0308 -11.7689 0)
(9.80638 -12.0764 2.48745e-19)
(9.53972 -12.3608 0)
(9.28985 -12.6029 4.65126e-19)
(9.06497 -12.8529 2.28055e-18)
(8.78531 -13.209 -8.0334e-21)
(11.1493 -3.81995 7.17726e-19)
(13.8654 -5.44379 -1.4999e-19)
(13.4444 -6.1048 -2.22778e-18)
(13.0115 -6.58023 1.24744e-18)
(12.5191 -7.12003 2.9656e-19)
(12.1433 -7.5936 -2.92921e-19)
(11.8145 -8.114 -1.20324e-18)
(11.4369 -8.54301 8.97612e-19)
(11.0978 -8.98845 0)
(10.7878 -9.40517 0)
(10.4508 -9.76799 -1.39534e-18)
(10.1395 -10.1231 1.1056e-18)
(9.84502 -10.4641 -2.62417e-19)
(9.56641 -10.7986 -8.05415e-19)
(9.26074 -11.0826 3.39322e-21)
(8.99783 -11.3909 1.80275e-18)
(8.77074 -11.6967 -1.00862e-18)
(8.54057 -11.9718 7.46348e-19)
(8.30174 -12.212 -1.20744e-18)
(8.07247 -12.5681 0)
(10.5631 -3.26617 -6.3295e-19)
(12.6321 -4.58813 1.02793e-18)
(12.218 -5.29126 1.77016e-19)
(11.8763 -5.80227 1.74338e-19)
(11.4813 -6.38012 0)
(11.112 -6.8279 1.30925e-18)
(10.7831 -7.37552 -1.28623e-18)
(10.4492 -7.80483 1.62621e-19)
(10.1206 -8.26737 0)
(9.83212 -8.68952 1.2167e-18)
(9.53053 -9.10295 -1.04334e-18)
(9.23256 -9.46684 1.17011e-18)
(8.96332 -9.83301 -1.15153e-18)
(8.71858 -10.1828 1.12449e-18)
(8.4698 -10.499 -9.65726e-19)
(8.24139 -10.8043 -1.08025e-18)
(8.02839 -11.1051 2.12294e-18)
(7.85302 -11.4054 -9.10143e-19)
(7.68609 -11.6896 1.30359e-19)
(7.45151 -12.0238 1.08968e-18)
(9.73532 -2.69255 -5.11037e-19)
(11.3917 -3.83538 5.56149e-19)
(10.9659 -4.56139 -1.77031e-19)
(10.6674 -5.05143 -1.74346e-19)
(10.3031 -5.67309 0)
(9.92521 -6.11106 0)
(9.66097 -6.67029 0)
(9.37788 -7.13115 -3.33955e-19)
(9.07223 -7.58883 -1.30958e-18)
(8.82706 -8.01743 2.57084e-18)
(8.58161 -8.4436 -1.41549e-18)
(8.34826 -8.82629 -1.57676e-19)
(8.09737 -9.19433 0)
(7.90515 -9.55987 0)
(7.68201 -9.91206 -2.89379e-19)
(7.45736 -10.2204 0)
(7.23946 -10.5376 1.10775e-18)
(7.02501 -10.8073 -1.36319e-18)
(6.85703 -11.109 -1.19157e-18)
(6.69283 -11.4576 1.14621e-18)
(8.74767 -2.11316 5.35748e-19)
(10.0089 -3.11684 9.8246e-19)
(9.72605 -3.89639 1.26896e-21)
(9.50439 -4.45429 6.93561e-23)
(9.17356 -5.10603 1.89905e-19)
(8.89438 -5.56522 -5.44599e-19)
(8.56931 -6.08999 0)
(8.34963 -6.55835 -5.2907e-19)
(8.09794 -7.02653 1.78154e-19)
(7.85591 -7.46024 6.74269e-19)
(7.63971 -7.89379 6.56816e-19)
(7.41687 -8.30792 -4.8854e-19)
(7.18484 -8.6823 1.25773e-18)
(6.95548 -9.03938 -1.08092e-18)
(6.78605 -9.40355 1.35196e-18)
(6.61394 -9.74286 -2.51419e-18)
(6.45475 -10.0745 1.16049e-18)
(6.30027 -10.3791 1.38768e-19)
(6.13038 -10.6602 1.10321e-18)
(5.97361 -11.0063 -1.19225e-18)
(7.67829 -1.58277 1.87202e-19)
(8.57568 -2.4553 -2.00453e-19)
(8.30346 -3.20418 8.10322e-19)
(8.08059 -3.79795 -7.95342e-19)
(7.91194 -4.48073 -3.89031e-19)
(7.686 -5.04856 -9.48941e-19)
(7.42221 -5.60986 2.9282e-21)
(7.23241 -6.13031 7.33047e-19)
(6.96102 -6.62316 -1.75345e-19)
(6.76683 -7.06839 0)
(6.54762 -7.50336 0)
(6.4007 -7.91812 0)
(6.25005 -8.33123 0)
(6.08144 -8.69509 5.3802e-21)
(5.91134 -9.05011 0)
(5.7418 -9.38816 1.50352e-19)
(5.58444 -9.71439 5.96123e-19)
(5.43381 -10.0286 -1.75343e-18)
(5.3014 -10.328 1.29435e-18)
(5.14765 -10.6614 -1.22319e-18)
(6.61814 -1.14642 0)
(7.2399 -1.86863 -1.08881e-19)
(7.07745 -2.5889 0)
(6.88682 -3.21754 3.07252e-19)
(6.61927 -3.84227 -2.06049e-19)
(6.44375 -4.45966 -7.8938e-19)
(6.20733 -4.99102 3.48138e-21)
(6.05802 -5.53808 7.5877e-19)
(5.92926 -6.05436 -7.37923e-19)
(5.78766 -6.53498 1.44684e-18)
(5.61962 -7.00264 -4.56748e-21)
(5.44184 -7.41226 -6.93444e-19)
(5.2758 -7.84418 6.73096e-19)
(5.1443 -8.23383 -8.25066e-19)
(4.99883 -8.62962 0)
(4.88097 -8.98346 -6.28409e-19)
(4.74606 -9.34622 6.19029e-19)
(4.62213 -9.65846 0)
(4.50197 -9.98151 -1.45267e-19)
(4.36945 -10.3161 0)
(5.56229 -0.921603 1.09404e-19)
(5.83981 -1.64085 1.08943e-19)
(5.5864 -2.30964 0)
(5.37362 -3.01301 4.2201e-19)
(5.24424 -3.60138 -5.22515e-19)
(5.16606 -4.24541 3.03287e-19)
(5.02133 -4.80895 -8.96944e-19)
(4.86599 -5.33376 3.90239e-19)
(4.70635 -5.84839 -9.61377e-20)
(4.56936 -6.31768 0)
(4.46818 -6.79753 -9.17463e-20)
(4.36759 -7.21616 -8.96228e-20)
(4.25252 -7.64477 -8.75492e-20)
(4.14069 -8.00912 0)
(4.03368 -8.40966 -6.58835e-19)
(3.92257 -8.73417 1.37427e-18)
(3.83079 -9.1141 -1.1836e-18)
(3.73111 -9.40639 6.19945e-19)
(3.64317 -9.74356 7.62848e-20)
(3.54436 -10.0606 6.44012e-19)
(3.86226 -0.600386 -1.69808e-19)
(4.54945 -1.42445 -2.26097e-19)
(4.23567 -2.12592 4.93964e-22)
(4.18432 -2.76515 5.98371e-19)
(3.99445 -3.35345 -1.61977e-19)
(3.83776 -3.903 -1.04837e-19)
(3.76597 -4.48187 1.01797e-19)
(3.69588 -4.9833 1.99597e-19)
(3.63168 -5.5348 9.6142e-20)
(3.55911 -5.98267 -3.78554e-19)
(3.46424 -6.49226 4.17331e-19)
(3.3767 -6.89981 8.96182e-20)
(3.29896 -7.37472 4.40164e-19)
(3.21061 -7.73754 -2.68137e-21)
(3.13305 -8.16703 3.98924e-20)
(3.04995 -8.48911 -7.41761e-19)
(2.96847 -8.88045 2.03414e-19)
(2.89041 -9.16809 0)
(2.81631 -9.50927 -3.74606e-20)
(2.73937 -9.82001 -3.28443e-19)
(2.46435 -0.295823 5.82524e-20)
(2.77699 -1.2456 -1.15843e-19)
(2.75689 -1.9541 2.27145e-19)
(2.74167 -2.62697 -5.54537e-20)
(2.75037 -3.31843 -5.50619e-20)
(2.69784 -3.86045 0)
(2.61975 -4.48425 -1.03331e-19)
(2.50848 -4.9572 2.02445e-19)
(2.42655 -5.52185 -9.91849e-20)
(2.35314 -5.94171 9.61773e-20)
(2.30847 -6.45213 -4.78446e-20)
(2.25825 -6.82827 -9.16904e-20)
(2.21963 -7.29196 1.79768e-19)
(2.18234 -7.64261 -1.75576e-19)
(2.14973 -8.06454 4.35428e-20)
(2.10668 -8.39321 2.99421e-34)
(2.07601 -8.77766 -4.09067e-20)
(2.02928 -9.08016 2.39723e-19)
(1.99399 -9.4122 -1.18022e-19)
(1.95005 -9.72591 -8.41853e-20)
(0.124845 -7.37793 0)
(1.45027 -22.8153 6.42346e-20)
(2.3904 -36.1509 0)
(2.69457 -40.8668 7.87434e-20)
(2.67965 -41.0383 7.27518e-20)
(2.59702 -40.5665 6.81572e-20)
(2.51647 -39.9491 0)
(2.45186 -39.4386 6.11845e-20)
(2.40125 -38.9718 0)
(2.33325 -38.5437 0)
(2.2662 -38.1114 -4.98081e-20)
(2.21598 -37.6667 4.09965e-21)
(2.14299 -37.2556 9.35797e-20)
(2.09817 -36.8555 0)
(2.01965 -36.4899 4.04149e-20)
(1.9987 -36.0643 3.8172e-20)
(1.88237 -35.5792 3.61029e-20)
(1.87516 -35.0171 0)
(1.70838 -34.5151 -6.43074e-20)
(1.71897 -34.0207 6.29503e-20)
(0.288476 -8.47261 2.5494e-19)
(2.43748 -24.0423 -2.48377e-19)
(3.74652 -36.9879 0)
(3.99109 -40.8651 -3.84966e-19)
(3.99904 -40.8624 3.63324e-19)
(3.88017 -40.3439 -6.12076e-19)
(3.78291 -39.7839 2.6476e-19)
(3.68955 -39.2745 1.7644e-19)
(3.58674 -38.7683 -7.9351e-19)
(3.48439 -38.2714 4.39413e-19)
(3.40694 -37.8932 -5.10229e-20)
(3.29709 -37.5092 3.73069e-19)
(3.22247 -37.0993 -1.53708e-20)
(3.12208 -36.7118 -3.46197e-19)
(3.03697 -36.2872 -4.04102e-20)
(2.93604 -35.8042 -3.81682e-20)
(2.80702 -35.2986 -3.61026e-20)
(2.74568 -34.7564 0)
(2.58111 -34.3139 -2.50829e-19)
(2.57529 -33.8536 9.48071e-21)
(0.84937 -9.15617 -1.68163e-19)
(3.07281 -25.4328 0)
(5.12051 -37.8563 0)
(5.28698 -40.9998 -1.51775e-19)
(5.233 -40.7667 1.4398e-19)
(5.07164 -40.1388 0)
(4.93056 -39.5514 -1.25807e-19)
(4.79167 -39.001 3.48524e-19)
(4.67271 -38.5099 -3.45485e-19)
(4.54909 -38.1154 4.11708e-19)
(4.42997 -37.6553 -5.02569e-19)
(4.31172 -37.2174 0)
(4.18443 -36.8146 -3.43182e-19)
(4.07384 -36.4083 -3.0903e-19)
(3.94119 -36.0063 5.60063e-19)
(3.85223 -35.5558 -5.75598e-19)
(3.6939 -35.0738 4.98634e-19)
(3.63317 -34.5315 0)
(3.41234 -34.0559 -5.47773e-19)
(3.39093 -33.5527 9.41613e-19)
(1.20886 -9.72182 8.35273e-19)
(4.29535 -26.1234 0)
(6.52689 -38.021 3.19933e-19)
(6.73116 -40.5869 4.42535e-19)
(6.59656 -40.254 -8.57176e-19)
(6.39865 -39.6864 2.62704e-19)
(6.21949 -39.1448 1.25817e-19)
(6.05269 -38.6672 1.25892e-18)
(5.87919 -38.1854 -1.75001e-18)
(5.70074 -37.6691 -1.64051e-19)
(5.55225 -37.31 8.86692e-19)
(5.38809 -36.9151 1.78226e-19)
(5.24928 -36.4972 -8.34172e-19)
(5.09908 -36.1241 8.13748e-19)
(4.96336 -35.7277 2.25033e-19)
(4.80788 -35.2695 -1.39671e-19)
(4.62403 -34.7558 1.99985e-19)
(4.49374 -34.1861 0)
(4.2566 -33.7145 -5.64695e-20)
(4.22712 -33.2498 0)
(1.73426 -10.4394 0)
(5.41791 -27.145 1.29088e-18)
(7.93168 -38.4258 -1.61425e-18)
(8.0264 -40.4481 1.45371e-18)
(7.83581 -39.9739 -1.12631e-18)
(7.58523 -39.3524 -2.62661e-19)
(7.35291 -38.7758 0)
(7.13343 -38.2239 6.55832e-19)
(6.93045 -37.7218 -8.70826e-19)
(6.73838 -37.3347 9.80194e-19)
(6.56165 -36.8824 -7.65266e-19)
(6.37266 -36.475 -1.78221e-19)
(6.19187 -36.0959 8.116e-19)
(6.0151 -35.7035 -1.39701e-18)
(5.82439 -35.2871 8.74727e-19)
(5.65382 -34.8111 -2.87031e-19)
(5.4376 -34.3205 -6.37053e-19)
(5.30904 -33.7926 1.4515e-18)
(5.03625 -33.3524 -8.22421e-19)
(4.99925 -32.8613 -9.62549e-19)
(2.19607 -10.8432 1.27928e-18)
(6.64431 -27.4434 1.26082e-18)
(9.30887 -38.0643 -1.26478e-18)
(9.42552 -39.6976 -2.83492e-19)
(9.15152 -39.2109 2.72437e-19)
(8.87626 -38.6649 9.80854e-19)
(8.59793 -38.1461 -9.63648e-19)
(8.35223 -37.6934 0)
(8.11105 -37.2427 8.0078e-19)
(7.85855 -36.7604 -7.87439e-19)
(7.63834 -36.4092 -7.02803e-19)
(7.41439 -36.0085 6.91414e-19)
(7.20455 -35.5938 0)
(6.99934 -35.2366 0)
(6.81195 -34.8655 1.23458e-18)
(6.60837 -34.4495 -1.20927e-18)
(6.38096 -33.9585 -9.66723e-19)
(6.19453 -33.3992 9.52423e-19)
(5.89562 -32.9323 -8.59994e-19)
(5.85928 -32.4888 1.06534e-18)
(2.76438 -11.3614 -9.27285e-19)
(7.87473 -28.0958 3.41095e-19)
(10.6924 -38.0837 5.97467e-20)
(10.6796 -39.2929 1.43401e-18)
(10.3522 -38.7211 0)
(10.0189 -38.1416 0)
(9.69426 -37.5984 1.76257e-18)
(9.39591 -37.0856 -8.69433e-20)
(9.1085 -36.602 -1.61745e-18)
(8.83915 -36.1994 1.43762e-18)
(8.60079 -35.7893 -1.41405e-18)
(8.34847 -35.4288 0)
(8.11499 -35.0767 1.18096e-18)
(7.88508 -34.7166 -1.16235e-18)
(7.6418 -34.325 0)
(7.40245 -33.8652 0)
(7.13157 -33.3864 0)
(6.93243 -32.869 0)
(6.61062 -32.4525 0)
(6.56727 -32.0013 -1.02177e-19)
(3.30061 -11.6167 8.85817e-19)
(9.08784 -28.0719 -1.5217e-18)
(11.9648 -37.3159 0)
(11.9626 -38.2975 0)
(11.5548 -37.7728 2.18536e-18)
(11.2049 -37.2616 1.24707e-19)
(10.8387 -36.7837 -1.98765e-18)
(10.5101 -36.3589 0)
(10.2046 -35.9431 1.82764e-19)
(9.88558 -35.5322 -1.70484e-19)
(9.60105 -35.1826 0)
(9.31509 -34.8001 1.48679e-19)
(9.0401 -34.4172 -1.25748e-18)
(8.77718 -34.084 2.27844e-18)
(8.53303 -33.7401 -4.96624e-20)
(8.27975 -33.3645 -9.6646e-19)
(8.01502 -32.9166 -1.06908e-19)
(7.7725 -32.402 1.00267e-19)
(7.42727 -31.9674 0)
(7.36777 -31.5326 9.01134e-20)
(3.89948 -11.9385 5.69115e-19)
(10.3259 -28.3289 4.89417e-19)
(13.2747 -36.9557 -1.71579e-18)
(13.1472 -37.6125 5.00282e-19)
(12.6939 -37.0496 2.19012e-19)
(12.2849 -36.5355 1.92152e-18)
(11.8707 -36.0403 -2.67756e-18)
(11.4987 -35.5903 1.94069e-18)
(11.1354 -35.1553 -1.56776e-18)
(10.7868 -34.7426 1.85324e-18)
(10.483 -34.4003 2.98964e-19)
(10.1761 -34.085 1.25472e-18)
(9.88477 -33.7576 -7.07551e-19)
(9.60991 -33.4419 -1.35518e-18)
(9.32285 -33.1057 1.19387e-18)
(9.03317 -32.707 0)
(8.71529 -32.2671 3.0545e-19)
(8.44398 -31.7716 8.55888e-20)
(8.07048 -31.3597 -1.74736e-19)
(7.99933 -30.9224 7.63072e-20)
(4.47125 -12.0526 -1.07689e-18)
(11.4857 -28.031 1.12109e-18)
(14.3757 -35.936 -2.93488e-20)
(14.2765 -36.4557 -9.71749e-19)
(13.7498 -35.9669 -8.98562e-19)
(13.3159 -35.4871 -4.29222e-19)
(12.876 -35.0676 -2.49079e-20)
(12.4662 -34.6887 -3.70341e-19)
(12.099 -34.316 0)
(11.721 -33.9828 -3.20777e-19)
(11.3795 -33.6369 -2.98949e-19)
(11.0371 -33.3092 -2.01224e-20)
(10.7113 -32.9856 9.57957e-19)
(10.395 -32.6877 -4.94633e-19)
(10.0959 -32.3796 -1.0782e-18)
(9.79289 -32.0463 8.38192e-19)
(9.49233 -31.6586 5.44899e-19)
(9.19598 -31.2047 -9.18339e-19)
(8.81475 -30.8062 1.74586e-19)
(8.73413 -30.3802 1.08486e-18)
(5.08171 -12.1891 -2.57671e-18)
(12.6472 -27.8964 2.6297e-18)
(15.565 -35.2153 -2.89357e-18)
(15.3243 -35.4993 2.3566e-18)
(14.7637 -35.007 2.07183e-18)
(14.2874 -34.5715 -1.60679e-18)
(13.7981 -34.1325 -2.12134e-18)
(13.3562 -33.7574 7.83596e-20)
(12.9338 -33.3956 1.27665e-18)
(12.5138 -33.0112 -8.42812e-19)
(12.1475 -32.7451 2.13879e-18)
(11.7908 -32.4614 -1.2807e-18)
(11.438 -32.1658 -2.40852e-19)
(11.1229 -31.9015 6.11356e-19)
(10.7973 -31.6336 -1.60091e-18)
(10.475 -31.3232 7.66175e-19)
(10.1215 -30.9477 0)
(9.78534 -30.5031 -1.26216e-18)
(9.36469 -30.1047 1.24343e-18)
(9.25123 -29.6695 -9.93617e-19)
(5.66469 -12.1672 4.87612e-19)
(13.6974 -27.3716 5.44746e-19)
(16.512 -33.9574 2.36615e-18)
(16.3 -34.2274 2.05225e-18)
(15.6699 -33.8038 -1.24162e-18)
(15.1526 -33.3873 1.74425e-18)
(14.6499 -33.0334 -1.02785e-18)
(14.1661 -32.7142 1.19413e-18)
(13.7389 -32.3994 -2.27854e-18)
(13.3067 -32.1281 8.1079e-19)
(12.9123 -31.8093 0)
(12.5258 -31.5679 0)
(12.1616 -31.3145 0)
(11.8005 -31.0614 -1.51127e-18)
(11.4544 -30.7982 1.48789e-18)
(11.107 -30.5158 0)
(10.7753 -30.2032 0)
(10.4286 -29.8167 -1.35445e-19)
(10.014 -29.4451 0)
(9.90995 -29.046 -1.13664e-18)
(6.24827 -12.1385 -9.18884e-19)
(14.7329 -26.8941 -2.28996e-18)
(17.4959 -32.9707 -1.63823e-18)
(17.1682 -33.0304 -3.02971e-19)
(16.5199 -32.6373 2.15684e-18)
(15.9644 -32.2799 -4.31711e-19)
(15.4231 -31.9153 -7.91149e-20)
(14.9145 -31.6236 -1.42038e-18)
(14.4469 -31.3499 0)
(13.9726 -31.0465 -6.97161e-19)
(13.5488 -30.8403 1.11267e-18)
(13.1436 -30.5828 0)
(12.7354 -30.3456 1.45039e-18)
(12.3843 -30.1446 -1.42772e-18)
(12.0231 -29.9443 1.23847e-18)
(11.681 -29.7261 -2.22713e-18)
(11.3071 -29.4384 1.12746e-18)
(10.9275 -29.0767 1.35439e-19)
(10.4713 -28.7021 -1.07565e-19)
(10.3186 -28.27 8.64383e-19)
(6.79468 -12.0045 -1.20002e-18)
(15.6661 -26.1601 7.72006e-20)
(18.2475 -31.5384 1.07861e-19)
(17.9245 -31.6781 2.84232e-18)
(17.2461 -31.335 2.49965e-19)
(16.6457 -31.0123 -1.51271e-18)
(16.0894 -30.7165 -1.0539e-18)
(15.547 -30.4635 3.33596e-19)
(15.0669 -30.2189 1.16534e-18)
(14.5853 -29.9998 -1.23578e-18)
(14.147 -29.7598 5.95215e-19)
(13.7278 -29.6069 -1.54058e-18)
(13.3271 -29.4085 1.20271e-18)
(12.9317 -29.2186 -1.16149e-18)
(12.5487 -29.0178 1.01692e-18)
(12.1641 -28.7978 8.43081e-19)
(11.8069 -28.5769 -9.65502e-19)
(11.4202 -28.2783 7.31643e-19)
(10.9772 -27.9459 -7.05012e-19)
(10.8372 -27.564 -8.02189e-19)
(7.31762 -11.8279 -1.4765e-18)
(16.5423 -25.3851 -2.7606e-19)
(19.0319 -30.3082 1.4383e-18)
(18.5832 -30.2796 -1.22374e-18)
(17.9072 -29.997 1.20172e-18)
(17.2833 -29.7284 2.80399e-19)
(16.7024 -29.46 0)
(16.1355 -29.2494 -2.03279e-19)
(15.633 -29.0645 5.56692e-19)
(15.1225 -28.8645 -1.96989e-18)
(14.6442 -28.6915 1.38485e-18)
(14.1998 -28.4964 3.0358e-19)
(13.7506 -28.3427 1.51059e-19)
(13.3639 -28.2004 0)
(12.97 -28.0683 2.31886e-20)
(12.6098 -27.926 8.08174e-19)
(12.2268 -27.7416 -6.05699e-20)
(11.8277 -27.4956 1.18973e-19)
(11.3513 -27.1641 -6.55118e-19)
(11.1641 -26.7417 1.44317e-19)
(7.8049 -11.5758 1.31832e-18)
(17.3049 -24.4387 -2.27268e-18)
(19.5968 -28.8259 1.27623e-18)
(19.132 -28.8801 1.07248e-18)
(18.4303 -28.6317 -8.26036e-20)
(17.7653 -28.4071 -7.42528e-19)
(17.1607 -28.1667 1.89811e-19)
(16.5721 -27.9838 2.03274e-19)
(16.0472 -27.8159 0)
(15.5291 -27.6605 0)
(15.0569 -27.5336 -1.06445e-18)
(14.6055 -27.4293 1.75782e-18)
(14.1653 -27.2871 -9.45527e-19)
(13.7482 -27.1834 0)
(13.3376 -27.0598 2.39534e-20)
(12.924 -26.9137 -6.98919e-19)
(12.5442 -26.783 6.81315e-19)
(12.1424 -26.6082 -7.64538e-20)
(11.6915 -26.3552 -4.87709e-19)
(11.5101 -25.9775 3.41959e-19)
(8.25686 -11.267 -1.15461e-18)
(17.9701 -23.4156 1.44697e-18)
(20.1278 -27.3814 0)
(19.5662 -27.3296 0)
(18.8798 -27.1514 1.95537e-19)
(18.2062 -26.9927 -9.47264e-19)
(17.6058 -26.8294 2.92256e-20)
(16.9916 -26.6964 6.48641e-19)
(16.4593 -26.5865 -1.05589e-18)
(15.9236 -26.4743 1.98012e-18)
(15.4027 -26.3357 -9.26415e-19)
(14.9405 -26.256 1.9539e-19)
(14.4614 -26.1602 7.31421e-19)
(14.0336 -26.069 -4.19879e-21)
(13.6166 -26.0124 -4.3673e-19)
(13.2327 -25.932 7.06162e-20)
(12.8429 -25.8545 -4.47932e-19)
(12.4433 -25.7382 3.79779e-19)
(11.9762 -25.5082 2.07925e-20)
(11.7642 -25.1106 2.73263e-19)
(8.68446 -10.9258 0)
(18.5355 -22.327 6.59441e-19)
(20.5026 -25.8608 -7.3646e-19)
(19.9178 -25.8941 0)
(19.2127 -25.7463 -1.95527e-19)
(18.4941 -25.6173 5.92834e-19)
(17.8496 -25.4436 -7.37719e-19)
(17.2309 -25.3417 0)
(16.673 -25.2628 8.04576e-19)
(16.1374 -25.191 -7.91165e-19)
(15.6303 -25.1497 6.60047e-20)
(15.1479 -25.0704 -8.38249e-20)
(14.6805 -25.0218 -7.32456e-20)
(14.2481 -24.9769 -6.36401e-20)
(13.8166 -24.941 -3.66882e-19)
(13.3871 -24.8622 5.61637e-19)
(12.9782 -24.8103 -4.53729e-19)
(12.5911 -24.7806 3.57713e-19)
(12.1679 -24.6795 -1.25749e-19)
(11.9665 -24.3281 2.11468e-20)
(9.08567 -10.4986 0)
(18.9598 -21.1903 -7.35251e-19)
(20.7657 -24.274 4.05814e-19)
(20.0798 -24.2572 4.58906e-19)
(19.4132 -24.1793 -6.85045e-20)
(18.7139 -24.1452 -6.15216e-20)
(18.1058 -24.0796 -4.38663e-19)
(17.4613 -24.0092 0)
(16.8994 -23.9584 0)
(16.3536 -23.9224 0)
(15.8159 -23.86 -6.60024e-20)
(15.3464 -23.8823 0)
(14.8467 -23.8227 -2.46042e-19)
(14.3794 -23.7937 2.24018e-19)
(13.948 -23.7926 -1.0878e-19)
(13.5352 -23.7804 1.64923e-19)
(13.1227 -23.7698 -5.69293e-20)
(12.7107 -23.7681 4.08054e-20)
(12.2861 -23.7227 -9.76146e-20)
(12.0657 -23.3673 7.26538e-20)
(9.44689 -10.0326 0)
(19.3111 -20.0132 0)
(20.9511 -22.7317 1.58139e-19)
(20.2553 -22.8031 1.37654e-19)
(19.5659 -22.7489 0)
(18.8231 -22.7145 3.00835e-19)
(18.1604 -22.6397 -2.95572e-19)
(17.534 -22.6295 0)
(16.9573 -22.6304 2.9488e-19)
(16.4155 -22.6331 -2.89961e-19)
(15.8726 -22.6221 0)
(15.377 -22.6 -6.95997e-20)
(14.8993 -22.6382 7.90542e-20)
(14.4462 -22.607 7.78203e-21)
(13.9958 -22.6326 0)
(13.555 -22.5915 0)
(13.0913 -22.5952 0)
(12.6936 -22.5968 2.20176e-19)
(12.3068 -22.6202 -2.3037e-19)
(12.0216 -22.4055 0)
(0.943205 -32.561 0)
(1.00206 -30.2523 0)
(0.351322 -29.5286 -2.92551e-21)
(0.518466 -28.5305 -2.14676e-21)
(0.268369 -27.7412 0)
(0.288375 -26.966 2.12613e-22)
(0.207391 -26.4215 6.85519e-22)
(0.1467 -25.8909 0)
(0.146171 -25.5609 -2.17684e-22)
(0.115894 -25.227 0)
(0.104269 -25.0366 6.68909e-22)
(0.124643 -24.8236 4.575e-22)
(0.0832193 -24.6897 -4.59932e-22)
(0.172356 -24.4781 -1.13757e-21)
(0.106674 -24.3698 0)
(0.258916 -24.1295 3.39724e-22)
(0.156692 -23.5473 -1.55314e-21)
(0.352983 -20.8478 0)
(0.00334348 -15.0131 0)
(0.199107 -6.09005 -1.5157e-21)
(1.74523 -32.4274 2.63082e-20)
(1.61689 -30.22 0)
(0.885891 -29.547 1.28909e-20)
(0.94369 -28.5688 -7.86668e-21)
(0.598384 -27.7638 0)
(0.546301 -26.992 -3.87025e-21)
(0.415295 -26.4374 1.2856e-21)
(0.311548 -25.9152 0)
(0.289348 -25.5743 -5.00968e-22)
(0.225234 -25.2374 7.22467e-22)
(0.197747 -25.0474 -2.21634e-21)
(0.190891 -24.8277 3.41817e-21)
(0.128767 -24.7027 -2.939e-21)
(0.204862 -24.495 1.03025e-21)
(0.128758 -24.3888 1.18585e-21)
(0.283855 -24.143 -1.36526e-21)
(0.165483 -23.5619 2.51438e-21)
(0.364116 -20.828 3.33868e-21)
(0.010766 -14.9906 1.72234e-21)
(0.199245 -6.05743 1.89277e-21)
(2.31549 -32.1496 -1.42801e-20)
(2.05858 -30.0168 -2.1375e-20)
(1.23333 -29.3789 -1.09058e-20)
(1.19155 -28.459 0)
(0.783051 -27.6665 0)
(0.694491 -26.9258 4.08623e-21)
(0.542139 -26.3736 -1.60598e-21)
(0.413947 -25.8661 -1.26195e-21)
(0.373008 -25.5437 -1.078e-21)
(0.296771 -25.2105 1.55208e-21)
(0.255782 -25.0277 0)
(0.243739 -24.8132 0)
(0.170508 -24.6915 0)
(0.234042 -24.4866 4.65988e-21)
(0.149877 -24.3886 0)
(0.304504 -24.1469 5.40985e-21)
(0.173439 -23.5775 -5.19005e-21)
(0.375586 -20.8222 -1.8966e-21)
(0.0224815 -14.9847 -3.38227e-21)
(0.208553 -6.03888 -6.07897e-21)
(3.12291 -31.9561 3.56587e-20)
(2.66553 -29.9386 -6.66746e-20)
(1.77142 -29.3544 2.86908e-21)
(1.59272 -28.4512 1.86265e-20)
(1.10465 -27.6623 0)
(0.945761 -26.9359 4.38911e-21)
(0.744701 -26.3786 -6.88875e-21)
(0.576405 -25.8788 6.62853e-22)
(0.509125 -25.5483 1.83823e-21)
(0.401469 -25.2141 -2.52898e-21)
(0.345232 -25.0326 -4.06543e-22)
(0.307024 -24.8117 3.87241e-21)
(0.215806 -24.6974 -3.88969e-21)
(0.266935 -24.4981 -2.2531e-21)
(0.172572 -24.4049 -2.4182e-21)
(0.328643 -24.1597 -5.40663e-21)
(0.181306 -23.5944 6.56636e-21)
(0.388922 -20.8195 -2.51545e-21)
(0.0350273 -14.9764 1.33376e-21)
(0.199373 -6.00899 6.06904e-21)
(3.6823 -31.6154 9.50616e-20)
(3.09144 -29.6785 1.51892e-20)
(2.10711 -29.1491 -1.82782e-20)
(1.81648 -28.3053 2.52256e-20)
(1.28904 -27.5492 0)
(1.0931 -26.8561 -2.74922e-21)
(0.873499 -26.3045 1.22051e-21)
(0.67747 -25.8228 0)
(0.597483 -25.5101 1.35936e-22)
(0.474261 -25.1807 0)
(0.406055 -25.006 6.00399e-21)
(0.35998 -24.7893 0)
(0.258783 -24.6801 0)
(0.299354 -24.486 9.64201e-21)
(0.197498 -24.4035 -4.88456e-21)
(0.34736 -24.1642 5.42997e-21)
(0.18646 -23.6136 0)
(0.403757 -20.8213 -1.00795e-21)
(0.0500036 -14.974 1.33909e-21)
(0.199437 -5.99227 0)
(4.44837 -31.351 3.62218e-20)
(3.6747 -29.5568 -2.79716e-20)
(2.64083 -29.0751 4.29423e-20)
(2.19613 -28.255 -4.14637e-20)
(1.60658 -27.5236 8.52462e-21)
(1.33663 -26.8513 2.75779e-21)
(1.07112 -26.2979 -1.67062e-21)
(0.837633 -25.8244 9.31968e-22)
(0.72461 -25.5064 -1.37177e-21)
(0.575816 -25.1768 -5.52059e-21)
(0.488017 -25.005 2.48616e-21)
(0.419484 -24.7821 0)
(0.30321 -24.6802 0)
(0.331777 -24.4923 5.99833e-24)
(0.219209 -24.4158 4.93569e-21)
(0.368324 -24.169 -4.44533e-21)
(0.193747 -23.6337 0)
(0.418192 -20.8348 8.3816e-21)
(0.064544 -14.9743 1.0123e-20)
(0.193508 -5.96622 7.59619e-22)
(4.99085 -30.9248 -9.9164e-20)
(4.06285 -29.2451 9.10212e-20)
(2.96141 -28.832 -1.91649e-20)
(2.40615 -28.0714 0)
(1.7971 -27.3957 -8.56085e-21)
(1.48291 -26.7571 6.24274e-21)
(1.19891 -26.2148 -4.58904e-21)
(0.939218 -25.7605 -9.34598e-22)
(0.814699 -25.4605 0)
(0.6499 -25.1373 0)
(0.551599 -24.9712 -7.15395e-21)
(0.472185 -24.7535 7.1796e-21)
(0.345678 -24.6576 0)
(0.361584 -24.4769 -1.4657e-20)
(0.243333 -24.4119 4.9913e-21)
(0.377334 -24.1701 3.33856e-21)
(0.20187 -23.6535 -4.31888e-21)
(0.425712 -20.8565 -1.0723e-20)
(0.0763233 -14.9784 -6.88472e-21)
(0.194935 -5.95087 -1.52219e-21)
(5.7087 -30.5966 0)
(4.59773 -29.0728 -4.36266e-20)
(3.45941 -28.7138 4.3826e-20)
(2.76979 -27.9846 0)
(2.11 -27.3511 0)
(1.71445 -26.7362 -5.26994e-21)
(1.39002 -26.1968 5.28593e-21)
(1.0969 -25.7517 0)
(0.935372 -25.4487 -4.45363e-21)
(0.748079 -25.1266 1.05174e-20)
(0.626024 -24.9643 -6.06872e-21)
(0.529744 -24.74 -8.49359e-21)
(0.388675 -24.6514 8.51259e-21)
(0.391682 -24.4772 0)
(0.267092 -24.4155 0)
(0.384394 -24.1755 3.35413e-21)
(0.204965 -23.6759 -4.67446e-21)
(0.424525 -20.8844 -5.28303e-23)
(0.0880248 -14.9863 4.41923e-21)
(0.193218 -5.92854 -1.52383e-21)
(6.21733 -30.0811 5.58933e-20)
(4.94883 -28.7143 -5.59542e-20)
(3.74967 -28.4385 -4.44059e-20)
(2.98002 -27.7698 4.7609e-20)
(2.30754 -27.2056 -2.97212e-20)
(1.85882 -26.6264 6.41012e-21)
(1.51807 -26.1068 4.28623e-21)
(1.20114 -25.68 0)
(1.02501 -25.3946 0)
(0.824088 -25.0807 -5.87212e-21)
(0.690561 -24.9236 0)
(0.581678 -24.7068 0)
(0.431557 -24.6229 0)
(0.419772 -24.458 0)
(0.28893 -24.4058 0)
(0.392915 -24.1766 0)
(0.202916 -23.702 3.46701e-21)
(0.429151 -20.922 -4.78998e-21)
(0.0976942 -15.0039 1.52392e-21)
(0.195796 -5.91442 -1.51894e-21)
(6.87597 -29.6945 -6.22448e-20)
(5.44953 -28.4756 -7.43776e-20)
(4.20324 -28.2865 -1.04985e-20)
(3.32411 -27.6578 -1.52066e-21)
(2.60938 -27.1398 1.40351e-20)
(2.07863 -26.5878 1.21433e-20)
(1.70199 -26.0783 -1.18978e-22)
(1.3548 -25.6608 0)
(1.14015 -25.3748 5.85507e-21)
(0.918585 -25.0636 -1.0585e-20)
(0.760237 -24.9105 -7.40427e-21)
(0.637385 -24.6872 -8.70258e-21)
(0.472821 -24.6104 0)
(0.447795 -24.4512 -9.42361e-21)