/*--------------------------------*- C++ -*----------------------------------*\
  =========                 |
  \\      /  F ield         | OpenFOAM: The Open Source CFD Toolbox
   \\    /   O peration     | Website:  https://openfoam.org
    \\  /    A nd           | Version:  9
     \\/     M anipulation  |
\*---------------------------------------------------------------------------*/
FoamFile
{
    format      ascii;
    class       volScalarField;
    location    "6.3";
    object      nut;
}
// * * * * * * * * * * * * * * * * * * * * * * * * * * * * * * * * * * * * * //

dimensions      [0 2 -1 0 0 0 0];

internalField   nonuniform List<scalar> 
46400
(
0.0194162
0.00709101
0.0020301
0.00155279
0.00151895
0.0014758
0.00137791
0.00135184
0.00128432
0.00125504
0.00120496
0.00116678
0.00111709
0.00107702
0.00103744
0.00101979
0.000952815
0.000882146
0.00111757
0.00100345
0.0189554
0.00575314
0.00140283
0.00152953
0.00146348
0.00148092
0.00139798
0.00136432
0.00131983
0.00128657
0.00125184
0.0012236
0.00118954
0.00114758
0.00111115
0.00108522
0.00102907
0.000914678
0.0011073
0.000965436
0.0184617
0.00525422
0.00140134
0.00160408
0.00150401
0.0014903
0.00140352
0.00136054
0.00128915
0.00125278
0.00119957
0.00116323
0.00112514
0.0010866
0.00104714
0.00102527
0.000970269
0.000890975
0.00116523
0.00104674
0.0179117
0.00432892
0.00138756
0.00159178
0.00146036
0.00148111
0.00140315
0.0013768
0.00132132
0.0012842
0.00124764
0.0012062
0.00117342
0.00113382
0.00110582
0.00108997
0.00105041
0.000962645
0.00121094
0.00107315
0.0172372
0.0045527
0.00141225
0.0016075
0.00150551
0.00149666
0.00142348
0.00137546
0.0013181
0.00126633
0.00122302
0.00117921
0.00113683
0.00109229
0.00105135
0.00103002
0.00101039
0.000943909
0.00123314
0.00115147
0.016503
0.00512503
0.00152273
0.00162907
0.0014986
0.00149374
0.00143217
0.00139712
0.00135176
0.00131051
0.00127059
0.00123144
0.00119593
0.00115051
0.00111127
0.00107255
0.00102175
0.000937123
0.00116538
0.00109776
0.0157492
0.00469533
0.00156039
0.00164918
0.0015221
0.00149077
0.00141476
0.00136238
0.00130862
0.00126253
0.00121943
0.00117181
0.00113718
0.00109889
0.00107593
0.00106553
0.00103567
0.000959789
0.00116256
0.00109049
0.0147459
0.00423818
0.00157187
0.00167501
0.00156669
0.0015232
0.00147335
0.00141554
0.00137493
0.00132429
0.00129499
0.00124472
0.0011926
0.00111728
0.00105814
0.00102229
0.000993237
0.000924918
0.00110445
0.00105387
0.0134181
0.00343037
0.00163656
0.00163079
0.00153166
0.00145802
0.00139981
0.0013405
0.0012978
0.00125065
0.00122025
0.00120257
0.00120041
0.00117584
0.00113015
0.00107301
0.00102595
0.000956029
0.00108547
0.00104518
0.011221
0.00278846
0.00164213
0.00162717
0.00159496
0.00151672
0.00146185
0.0013795
0.00133173
0.0012798
0.00123118
0.00117543
0.00115142
0.00113276
0.0011271
0.00110025
0.00105467
0.000999414
0.00110255
0.00101211
0.00917919
0.00235159
0.00162565
0.00156471
0.00153279
0.00146395
0.00143161
0.00135888
0.00128979
0.00123775
0.00121176
0.00115885
0.00113128
0.00110014
0.00109164
0.0010993
0.00107241
0.0010244
0.00116481
0.00109322
0.00725271
0.00202454
0.0016288
0.00154441
0.00154374
0.00148027
0.0014665
0.00142512
0.00137423
0.00128871
0.00125559
0.00119567
0.00113718
0.00108163
0.00102232
0.000994606
0.000969331
0.000904706
0.000981225
0.000986733
0.0059836
0.00181937
0.0016068
0.00148098
0.00146128
0.00138256
0.00134401
0.00131363
0.00132413
0.00126945
0.00124834
0.0012355
0.0012016
0.00116265
0.00111352
0.00105803
0.00102839
0.000971943
0.0010087
0.000972635
0.00493227
0.00174135
0.00169233
0.00159165
0.00155411
0.00150698
0.00144792
0.00132199
0.00130093
0.00123481
0.00117106
0.00113028
0.0011171
0.00109439
0.00107871
0.00104774
0.00101232
0.000976281
0.00101435
0.000963167
0.00435399
0.00164973
0.00165836
0.00148974
0.00141663
0.00138481
0.00144859
0.00138562
0.00135745
0.00132786
0.00128306
0.0012053
0.00114769
0.00110843
0.00107604
0.00104489
0.0010162
0.000966019
0.00102737
0.000999076
0.00433442
0.00165352
0.0016541
0.00160254
0.00149
0.00132684
0.00130204
0.0012731
0.00124453
0.00123208
0.00122991
0.00123408
0.00119482
0.00114771
0.00111507
0.001075
0.00103235
0.000970757
0.000982582
0.000956566
0.00398594
0.00147233
0.00144028
0.00160637
0.00166702
0.00153068
0.00141282
0.0013799
0.00130584
0.00123789
0.00117181
0.00112595
0.0011192
0.00109493
0.00106354
0.00105852
0.00102482
0.000978549
0.000983331
0.000934436
0.00343373
0.00179604
0.0015725
0.00139939
0.00141253
0.00145997
0.0014073
0.00137765
0.00131747
0.00128822
0.00125757
0.00119296
0.00114732
0.00111261
0.00108144
0.00104829
0.00103484
0.000990402
0.00101882
0.000977961
0.001697
0.00171492
0.00178059
0.00158501
0.00150405
0.00146544
0.00144227
0.00136826
0.00131493
0.00128146
0.00123841
0.00122656
0.00117447
0.00112407
0.00108458
0.00103848
0.00100593
0.000947523
0.000979303
0.000945369
0.00136449
0.00174496
0.00169759
0.00157564
0.00149257
0.0013906
0.00140333
0.0013363
0.0013343
0.00125433
0.00122857
0.00117628
0.0011701
0.00113718
0.00110236
0.00107545
0.00103546
0.000975899
0.000993428
0.000938338
0.00136998
0.00778775
0.0126739
0.0116553
0.00631616
0.00182696
4.93848e-05
0.000269716
0.000444842
0.000528669
0.000446449
0.000448839
0.000437341
0.000470133
0.000492569
0.00053742
0.000499586
0.000531376
0.000651621
0.000666626
0.00187397
0.0100589
0.0134595
0.0098405
0.00380377
0.000513872
6.37771e-05
0.000373334
0.000487588
0.000467385
0.000452813
0.000460656
0.000466331
0.00051838
0.00050473
0.000520634
0.000500572
0.000561022
0.000657232
0.000661353
0.00324746
0.0113694
0.0132279
0.0075693
0.00183096
0.000116365
0.000305259
0.00048217
0.000550447
0.000503198
0.000491163
0.000498427
0.000488752
0.000513039
0.0005181
0.000549377
0.00051529
0.000604664
0.00070112
0.000675148
0.00278703
0.0126752
0.0121099
0.0055335
0.000518078
0.000101982
0.00047029
0.000573285
0.000539051
0.000507894
0.000500581
0.000495894
0.000513557
0.000563992
0.000552969
0.000569819
0.000545151
0.000648274
0.000705566
0.000675537
0.00614686
0.0134415
0.0109649
0.00275509
0.000200353
0.000395966
0.000582143
0.000613895
0.000582268
0.000570143
0.000564628
0.000576247
0.000573655
0.000594321
0.000581932
0.000586393
0.00055771
0.000682475
0.000727223
0.000685157
0.00893993
0.0137794
0.00956559
0.00131755
0.000302189
0.000597903
0.000706016
0.000686868
0.000662407
0.000623597
0.000603735
0.000587599
0.00060129
0.000626736
0.000606409
0.000621915
0.000597932
0.00072041
0.000740467
0.000700052
0.0116133
0.0138538
0.00820376
0.000456458
0.000455879
0.000766739
0.000789159
0.000729221
0.000704697
0.000669574
0.000659851
0.000662803
0.000664442
0.000681382
0.000655064
0.000641534
0.000617468
0.000758378
0.000752524
0.000712765
0.0143221
0.0136929
0.00586367
0.00030927
0.000641569
0.000857918
0.000853373
0.000815069
0.000783128
0.000743181
0.000715924
0.00070103
0.000702757
0.000702423
0.000674102
0.000674246
0.000638661
0.000770271
0.000763246
0.00073057
0.016228
0.0135226
0.00398101
0.000155967
0.000889183
0.000981346
0.000906366
0.000874433
0.000832348
0.000779861
0.000760462
0.000747193
0.000750705
0.000757096
0.000719445
0.000696189
0.000670024
0.00080836
0.000762828
0.00073997
0.0174336
0.0131618
0.00269393
0.000314501
0.000989548
0.00102249
0.000982927
0.000934873
0.000896204
0.000847215
0.00081827
0.000808077
0.000796328
0.000783535
0.000752133
0.000720566
0.00067107
0.000811941
0.000771145
0.000742505
0.0184136
0.0126837
0.00181989
0.000546643
0.00111313
0.00110445
0.00104345
0.000995186
0.000952941
0.000894367
0.00085857
0.000836123
0.000837708
0.000832129
0.000795937
0.000764319
0.000719287
0.000849326
0.000781653
0.000769012
0.0189367
0.0122084
0.00135591
0.000706008
0.00119373
0.00112399
0.00110818
0.00104499
0.000997959
0.000944583
0.000912278
0.000895762
0.000876984
0.000868097
0.000840004
0.000786945
0.000736772
0.000863593
0.000788132
0.000797981
0.0196806
0.0118076
0.00112675
0.000943826
0.00126481
0.00119127
0.00115066
0.00109759
0.00105508
0.000996193
0.000950066
0.00092643
0.000913575
0.000897882
0.000872636
0.000826748
0.000765932
0.000861602
0.00076561
0.000821299
0.0199303
0.0112839
0.00184123
0.00103718
0.0013335
0.00121354
0.00120657
0.00114028
0.00108928
0.00103425
0.000988213
0.000964737
0.000942574
0.000929588
0.000902877
0.000839625
0.0007854
0.000852795
0.00070916
0.000802383
0.0203364
0.0108942
0.00188302
0.00119314
0.00136663
0.00127359
0.00123489
0.0011898
0.00114304
0.00109086
0.00103739
0.00100504
0.000979908
0.000960926
0.00094464
0.000886827
0.000838577
0.000867804
0.000691651
0.000818298
0.0203348
0.0105401
0.00255393
0.00121914
0.00143254
0.0012946
0.00128019
0.00122009
0.00117309
0.00112244
0.0010681
0.00103639
0.0010042
0.000986961
0.000962331
0.000900325
0.000875951
0.000867957
0.000628222
0.000816755
0.0204759
0.0102586
0.00245203
0.00132913
0.00144612
0.0013524
0.00129918
0.00127076
0.00121536
0.00117839
0.00112267
0.00108754
0.00105084
0.001031
0.00101426
0.000952217
0.00094138
0.000894524
0.000599674
0.000807158
0.0202625
0.00980547
0.00218751
0.00132474
0.00147408
0.00137318
0.0013355
0.001288
0.00124624
0.00120384
0.00115051
0.00111301
0.00107628
0.00105286
0.00102796
0.000980936
0.000996217
0.000954565
0.000608506
0.000789836
0.0201232
0.00890017
0.00239039
0.00144815
0.0015
0.00142684
0.00135177
0.00133368
0.001275
0.00125596
0.0012092
0.00117894
0.00114407
0.0011263
0.00110569
0.00108296
0.0011034
0.00107308
0.000798989
0.000812724
0.0197599
0.0077015
0.00210533
0.00142915
0.00147517
0.00144065
0.00137593
0.00134499
0.00130342
0.00127487
0.00124218
0.00121951
0.00120255
0.00119398
0.00119527
0.00123325
0.0013001
0.0011883
0.00125199
0.00132322
0.00520057
0.00351636
0.00262877
0.00225248
0.00209647
0.00169201
0.00157488
0.00132366
0.00114913
0.000972902
0.00080196
0.000694049
0.000583121
0.000511011
0.000476373
0.000702139
0.00223663
0.00656878
0.0106748
0.0149022
0.00513257
0.00340692
0.00270218
0.00235365
0.00213382
0.00170173
0.00158247
0.00132831
0.00114387
0.000969984
0.000798923
0.000695253
0.000580642
0.000515135
0.000478524
0.000709769
0.00210309
0.00656582
0.0106296
0.0148684
0.0051643
0.00344171
0.00269641
0.00227307
0.00210689
0.00169528
0.00156499
0.00131597
0.00114596
0.000972897
0.000796666
0.000693647
0.000580942
0.000513881
0.000466683
0.000686226
0.00203316
0.00659294
0.0106653
0.0149139
0.00522994
0.00339502
0.00268515
0.00233193
0.00213615
0.00171448
0.0015763
0.00132584
0.00114708
0.000975857
0.000798557
0.000699059
0.000583125
0.000523442
0.000470125
0.000697855
0.00197143
0.00659385
0.0105526
0.0150431
0.00518614
0.00343258
0.00279156
0.0023177
0.00212433
0.00170088
0.00154895
0.00130689
0.00114421
0.000976536
0.000794816
0.000697196
0.000581857
0.000519809
0.000455722
0.000671975
0.00192266
0.00658657
0.0104881
0.0149876
0.00538572
0.00332026
0.00268504
0.00232932
0.00213806
0.00172292
0.00156149
0.00132117
0.00114933
0.000983597
0.000801375
0.000706563
0.000587541
0.000531136
0.000458824
0.000681091
0.00182888
0.00657429
0.010504
0.0148731
0.00534328
0.00345832
0.00282637
0.0023523
0.00213186
0.00170524
0.00152984
0.00129861
0.00114204
0.000981504
0.000796496
0.000705549
0.00058513
0.00052501
0.000441348
0.000649755
0.00174353
0.00654538
0.0105232
0.0148242
0.00553354
0.00332792
0.00274716
0.00234092
0.00213899
0.00172889
0.00154592
0.00131581
0.00114898
0.000991443
0.00080595
0.000718891
0.000595233
0.000538552
0.000446295
0.000656278
0.00163769
0.00650338
0.0105054
0.0147847
0.00555887
0.00346616
0.00286111
0.00238555
0.00212555
0.00170769
0.00151381
0.00129342
0.00113733
0.00098711
0.000799751
0.000718212
0.000593053
0.00053412
0.000429945
0.000627368
0.00153626
0.00643147
0.0105242
0.0147577
0.00558831
0.00340386
0.00279848
0.00237263
0.00213053
0.00173729
0.00153355
0.00131519
0.00114465
0.000999615
0.000810643
0.000734118
0.000606848
0.000549883
0.000438681
0.000634108
0.00142032
0.00637981
0.0105324
0.0147398
0.005608
0.00343095
0.00289988
0.00242295
0.00210841
0.00171441
0.00150124
0.00129634
0.00112995
0.000993862
0.000803437
0.000732272
0.000605434
0.000546576
0.000426681
0.000608942
0.00130679
0.00631886
0.0105604
0.0147381
0.0057328
0.00340774
0.00284253
0.00235481
0.00210681
0.00174812
0.00152176
0.00132163
0.00113797
0.00100815
0.000816213
0.000748541
0.00062157
0.000563099
0.000439064
0.000619095
0.00118747
0.00626642
0.0105835
0.0147449
0.00583998
0.00344487
0.00292117
0.00239235
0.00205497
0.00172491
0.00149038
0.00130549
0.00112236
0.00100085
0.000809921
0.000745574
0.000620525
0.000562557
0.000425724
0.000592315
0.00106884
0.0062148
0.0106146
0.0147649
0.00592817
0.00345488
0.00287654
0.00237109
0.0020486
0.00175702
0.00151259
0.00133041
0.00113198
0.0010154
0.00082462
0.000762139
0.000637298
0.000583376
0.000443113
0.000601342
0.000952291
0.00615803
0.0106339
0.0147899
0.00593459
0.00346473
0.00290794
0.00240161
0.00199329
0.00173108
0.00148696
0.00131563
0.00111745
0.00100712
0.000819974
0.000759734
0.000637567
0.000588073
0.000437508
0.000557342
0.000840686
0.00610983
0.0106482
0.0148316
0.00602723
0.00345047
0.00284037
0.00240339
0.00199464
0.00175662
0.00150939
0.0013386
0.00112818
0.00102085
0.000835482
0.000776796
0.000654246
0.000612124
0.000464841
0.000586776
0.000733604
0.00605364
0.0106673
0.0148832
0.00605173
0.00348154
0.00281947
0.00239004
0.00193312
0.00173232
0.00148695
0.00132611
0.00111483
0.0010118
0.000831299
0.000774345
0.000654152
0.000616349
0.000464724
0.000543844
0.000614809
0.00597033
0.0106611
0.0149071
0.00593159
0.00344124
0.00275776
0.00241827
0.00194783
0.00175811
0.00150949
0.00135206
0.00112889
0.00102693
0.000848893
0.000793356
0.000670068
0.000639769
0.000497146
0.000598292
0.000476515
0.00602108
0.0107221
0.0149788
0.00551168
0.00352508
0.00267918
0.00236057
0.0018692
0.00172167
0.00148156
0.00134124
0.00111948
0.00101475
0.000843322
0.000787787
0.000667696
0.000634973
0.000480129
0.000515652
0.000399708
0.0058336
0.0108423
0.0150754
0.00527643
0.00342453
0.00259862
0.0023532
0.00188337
0.00173878
0.00149899
0.00136449
0.00113693
0.00102441
0.000857796
0.000802045
0.000677994
0.000655307
0.000524885
0.000575
0.000272215
0.00548708
0.0106289
0.0147571
0.0231539
0.0317019
0.0199918
0.0251057
0.0211497
0.0191398
0.0161388
0.0148749
0.0126453
0.0110846
0.00924308
0.00843687
0.00695224
0.0067997
0.00554492
0.00601997
0.00125263
0.0543819
0.100982
0.136118
0.0288746
0.0213598
0.0206253
0.0173911
0.015781
0.0131237
0.0109179
0.0102325
0.00884403
0.00770693
0.00691772
0.00643701
0.00574513
0.00565124
0.0052224
0.00530012
0.015721
0.0513649
0.0987768
0.135697
0.0138215
0.0144729
0.0139922
0.0117598
0.0108995
0.00981396
0.00917316
0.00835934
0.00774442
0.00726697
0.0068155
0.00658829
0.00622084
0.00566292
0.00575974
0.00517233
0.00849469
0.0489029
0.0974928
0.134834
0.012451
0.00972
0.00911689
0.00902096
0.00847063
0.00776483
0.0072181
0.00684939
0.0064697
0.00618405
0.00571695
0.00526251
0.00492775
0.00443346
0.00406722
0.00343311
0.00939127
0.0454087
0.0974366
0.131864
0.00466683
0.00710574
0.00713571
0.00647081
0.00628481
0.00597188
0.00570857
0.005444
0.00519627
0.00497637
0.00477916
0.00460707
0.00440689
0.00421919
0.00395478
0.00334363
0.00712119
0.0412311
0.0972467
0.131265
0.0054838
0.00527143
0.00458253
0.00450581
0.00442527
0.00465106
0.00468602
0.00466924
0.00456194
0.00448041
0.00435409
0.00421339
0.00410088
0.00382237
0.0035862
0.00273277
0.00637316
0.0371516
0.0973108
0.131026
0.00251393
0.00336283
0.0035385
0.00376582
0.0036959
0.00359252
0.00362522
0.00366061
0.00369791
0.00372342
0.00372618
0.00380208
0.00377013
0.00378371
0.00354339
0.0027681
0.00461985
0.0313238
0.0974645
0.13293
0.00260061
0.00261627
0.00227842
0.00223646
0.0026785
0.0029878
0.00303267
0.00320057
0.00323602
0.00349672
0.00341448
0.00359043
0.00356526
0.00393992
0.00391329
0.0033098
0.00419859
0.0261487
0.0964204
0.137403
0.001559
0.00176634
0.00194301
0.00229983
0.00235934
0.00242406
0.00255888
0.00283258
0.00288925
0.00314859
0.00327116
0.00349556
0.00347009
0.00386744
0.00399081
0.00389351
0.00413845
0.0187592
0.0941188
0.145542
0.00125881
0.00133356
0.0013183
0.00145727
0.00167073
0.00200557
0.00213211
0.00236113
0.0026026
0.00280713
0.0030299
0.00334526
0.00346677
0.00400014
0.0041726
0.00491567
0.00356814
0.013139
0.088363
0.156885
0.00087224
0.00108294
0.00131716
0.00168681
0.00174768
0.00179502
0.00194107
0.00218004
0.00231039
0.00259843
0.00268505
0.00306784
0.00326621
0.00374749
0.00400292
0.00461952
0.00435445
0.00708181
0.0654398
0.170171
0.000856445
0.000881242
0.000935898
0.00111374
0.00124403
0.00158111
0.00162053
0.00187757
0.00197916
0.00225346
0.00252667
0.0028306
0.00313633
0.00335851
0.00372894
0.00394782
0.00506893
0.00673665
0.049913
0.191131
0.000811458
0.000982392
0.00104749
0.00126309
0.00133219
0.00136161
0.00142351
0.00154031
0.00164131
0.00179433
0.00197277
0.00221191
0.00240112
0.00258942
0.00308935
0.00361107
0.00466803
0.0081552
0.0228142
0.147858
0.000729455
0.000734225
0.00077611
0.000816489
0.000924359
0.00116448
0.00112436
0.00129179
0.0012958
0.001536
0.00148859
0.00176761
0.00184297
0.00217948
0.00246891
0.00299509
0.00272366
0.00475773
0.0113353
0.0991918
0.000694274
0.00062243
0.000719548
0.000765903
0.000697777
0.000721665
0.000800246
0.00083317
0.000946926
0.000988757
0.00110619
0.00118039
0.00125752
0.00152305
0.00172279
0.00227085
0.0024511
0.00274527
0.00364467
0.0542069
0.000347505
0.000398074
0.00036163
0.000435894
0.000465065
0.000550663
0.000561438
0.000678118
0.000669809
0.00080188
0.000736895
0.000910511
0.000877869
0.00127004
0.0011236
0.00122111
0.000823801
0.0012844
0.00151449
0.0312168
0.000279686
0.000323893
0.000313668
0.00031163
0.000323851
0.000354608
0.000380717
0.000424052
0.000439662
0.000469113
0.000503835
0.000585458
0.000680079
0.000593396
0.000515722
0.00076877
0.000708371
0.00111924
0.000782418
0.0144755
0.000206011
0.00019077
0.000209073
0.000245778
0.000260153
0.000289196
0.000305816
0.000349424
0.000359626
0.00040381
0.000419708
0.000462841
0.000420962
0.000462913
0.000583529
0.000588049
0.00104498
0.000252756
0.00150285
0.00347078
0.000201958
0.000216392
0.000244234
0.000272333
0.000289923
0.000304557
0.000324935
0.000333016
0.000352676
0.000358207
0.000402511
0.000371138
0.000415472
0.000442999
0.00042002
0.000509281
0.00040382
0.000847692
0.000861977
0.00173517
0.000346147
0.000362847
0.000378451
0.000391272
0.000400863
0.000408038
0.000429035
0.000434154
0.000446781
0.000465966
0.000457193
0.00049325
0.000453185
0.000475757
0.000420249
0.000361047
0.00032674
0.000285045
0.000163157
0.000194778
0.0140426
0.0140363
0.0139148
0.0138486
0.0138873
0.0138507
0.0136285
0.0137416
0.0141731
0.0130306
0.0125692
0.0126414
0.0123552
0.0130664
0.0130998
0.00933494
0.00982177
0.00974732
0.00928003
0.0105168
0.00687226
0.00687589
0.00683871
0.00680251
0.00681122
0.00677896
0.00668928
0.00671947
0.00643207
0.00660212
0.00660504
0.00610001
0.00741787
0.00847836
0.00686025
0.00392178
0.00635186
0.00811381
0.00779782
0.0076023
0.00404196
0.00406957
0.00411021
0.00419537
0.00428676
0.00435251
0.00437694
0.00443872
0.00456128
0.00459752
0.00441855
0.00437505
0.00365602
0.00371752
0.00405287
0.00469426
0.0044071
0.00420763
0.00362403
0.00344774
0.00257764
0.00258649
0.00259035
0.00260384
0.00257827
0.00252969
0.00245378
0.00241599
0.00231451
0.00228762
0.00235078
0.00249232
0.00253283
0.00252138
0.00223639
0.00228707
0.00229498
0.00303123
0.00282495
0.00298966
0.00155794
0.00156525
0.00157127
0.00157863
0.00156222
0.00153583
0.00152965
0.00157115
0.00162732
0.00164432
0.0015507
0.00155911
0.00163816
0.00195495
0.00181052
0.001735
0.00159851
0.00149698
0.00136191
0.00142884
0.00108944
0.00108829
0.00107883
0.00107087
0.00104803
0.00103747
0.0010298
0.00104199
0.00102252
0.00103374
0.00104954
0.00103487
0.0010026
0.000963811
0.000968392
0.00124578
0.0012279
0.00128961
0.00113478
0.00107221
0.000639122
0.000633721
0.000629967
0.00062406
0.00061721
0.000612126
0.000610958
0.000620868
0.000619268
0.000648323
0.000690727
0.000799999
0.00083932
0.000785983
0.000705016
0.000582288
0.000522524
0.000664495
0.000592077
0.000563799
0.000457665
0.000450053
0.000449737
0.000448741
0.000449561
0.000445185
0.000450443
0.000457314
0.000462397
0.000481519
0.000487986
0.000478844
0.000405647
0.000380887
0.000406005
0.000531505
0.000495733
0.00044611
0.00047051
0.00059354
0.000236183
0.000234691
0.000239035
0.000242679
0.000238439
0.000233232
0.000239289
0.000238561
0.00024521
0.000265082
0.000270989
0.000269231
0.000279175
0.000332255
0.000329525
0.000277867
0.000240112
0.000291862
0.000242989
0.000237201
0.00014492
0.00015011
0.000155176
0.000149354
0.000143568
0.000147339
0.00014737
0.000142539
0.000142492
0.000138288
0.000139081
0.000160454
0.000188572
0.00021563
0.000186531
0.000216891
0.000227596
0.000239735
0.000227377
0.000256897
5.76556e-05
5.9392e-05
5.85651e-05
4.78438e-05
4.69299e-05
5.79789e-05
6.1583e-05
7.47034e-05
8.61372e-05
7.94363e-05
7.67405e-05
9.05413e-05
0.000103224
0.000123565
0.000146169
0.000161406
0.000139728
0.000140045
0.000145305
0.000164317
4.55517e-05
5.94548e-05
7.51604e-05
8.50423e-05
8.56078e-05
7.3176e-05
6.50678e-05
7.37225e-05
9.01717e-05
0.000116165
0.000145191
0.000140703
0.000151173
0.000143056
0.00014165
0.000141304
0.000146238
0.000148515
0.000141405
0.000181174
9.82652e-05
9.92866e-05
0.00010157
0.000110547
0.000125378
0.000133326
0.000134213
0.000133062
0.000123933
0.000111524
0.000107702
0.000112533
0.00011305
0.000118309
0.000126608
0.00014167
0.000151996
0.000172649
0.000173003
0.000168037
0.000124773
0.000130984
0.000136472
0.000140818
0.000142608
0.000144757
0.000145872
0.000150158
0.000156494
0.00016716
0.00017143
0.000171514
0.000172027
0.000172142
0.000166465
0.000164021
0.000155721
0.000156012
0.000164114
0.000184738
0.00012057
0.000116204
0.00010868
0.000106095
0.000106973
0.000113438
0.00012186
0.00012643
0.000131288
0.000133675
0.000135687
0.000135736
0.000138976
0.000144136
0.000146159
0.000151376
0.000154328
0.000162379
0.000152055
0.000159459
9.55975e-05
9.50424e-05
9.40905e-05
8.82298e-05
8.21055e-05
7.43917e-05
6.73115e-05
6.48628e-05
6.49062e-05
6.64124e-05
7.1235e-05
7.48563e-05
7.38549e-05
6.81444e-05
7.43706e-05
6.89666e-05
7.3052e-05
7.01023e-05
7.93913e-05
9.57515e-05
4.0183e-05
4.05737e-05
4.12062e-05
4.09761e-05
4.09874e-05
3.97973e-05
3.78872e-05
3.54894e-05
3.30558e-05
3.00537e-05
3.06543e-05
3.13591e-05
3.17083e-05
2.99446e-05
3.11996e-05
2.75001e-05
3.32451e-05
2.33203e-05
4.41201e-05
8.58818e-05
4.68752e-05
4.60837e-05
4.56869e-05
4.54432e-05
4.61219e-05
4.6747e-05
4.81146e-05
4.83244e-05
4.90243e-05
4.78955e-05
4.72997e-05
4.62617e-05
4.65728e-05
3.95714e-05
4.45386e-05
3.4391e-05
3.94909e-05
3.3152e-05
3.47381e-05
5.05451e-05
3.53437e-05
3.52165e-05
3.53474e-05
3.51993e-05
3.71292e-05
3.7373e-05
3.89483e-05
3.86582e-05
4.2588e-05
4.25273e-05
4.55778e-05
4.39102e-05
4.72363e-05
4.69177e-05
4.96051e-05
4.90258e-05
4.82958e-05
4.97722e-05
4.57202e-05
4.47075e-05
6.30765e-05
6.45022e-05
6.57032e-05
6.72358e-05
6.83559e-05
6.95668e-05
7.00873e-05
7.17462e-05
7.20825e-05
7.37259e-05
7.38174e-05
7.55354e-05
7.58071e-05
7.73896e-05
7.75783e-05
7.8981e-05
7.95009e-05
8.06913e-05
8.20275e-05
8.2945e-05
0.00111432
0.00145775
0.00110157
0.00112625
0.00117979
0.0011788
0.00121302
0.001239
0.00126591
0.00130564
0.00137312
0.00139902
0.00146779
0.00150216
0.00160107
0.00161213
0.00166604
0.00178739
0.00630696
0.0213585
0.00108264
0.00123567
0.000929465
0.00101274
0.00109767
0.00115156
0.00117337
0.00120823
0.00127026
0.00131267
0.00136438
0.00139527
0.00146718
0.0014992
0.00158759
0.00156986
0.00169394
0.00142647
0.00525052
0.0208739
0.00108005
0.00132336
0.00100903
0.0010444
0.00112952
0.00114585
0.0011785
0.00122569
0.00125264
0.00131664
0.00136291
0.00139787
0.00146876
0.00149721
0.00159156
0.00157342
0.00169933
0.00139374
0.00452981
0.0203155
0.001128
0.00130422
0.000967922
0.00101797
0.00109719
0.0011281
0.0011546
0.00120219
0.00125818
0.00130029
0.00134238
0.00139575
0.00146282
0.00150346
0.00157984
0.00157132
0.00172067
0.00144933
0.00485566
0.019638
0.00111644
0.00131679
0.000996253
0.00105011
0.00111727
0.00113696
0.00118789
0.00122606
0.00126261
0.00131564
0.0013593
0.00140807
0.001469
0.00150528
0.00158769
0.00158368
0.00176008
0.00153922
0.00542123
0.0189448
0.00113584
0.00130376
0.000996991
0.0010448
0.00111011
0.00114618
0.00116531
0.0012123
0.00125448
0.0013039
0.00135812
0.0014213
0.00148041
0.0015138
0.00158051
0.0016057
0.00175383
0.00155821
0.00541997
0.0182987
0.00112954
0.00128353
0.00100202
0.00106167
0.00112545
0.00115551
0.00119926
0.00124202
0.00128542
0.0013435
0.00137748
0.00142498
0.00144446
0.00149489
0.00157005
0.00159405
0.00175395
0.00157342
0.00493445
0.0172238
0.00116944
0.00129448
0.00101106
0.00109094
0.00114982
0.00117299
0.00119216
0.00123438
0.00126995
0.001306
0.0013381
0.00137108
0.0013983
0.00146728
0.00151742
0.00158273
0.00172439
0.00160261
0.00393791
0.0157927
0.00115162
0.0012427
0.00101037
0.00109675
0.00112888
0.00114534
0.00117128
0.0012044
0.00123151
0.00126842
0.00129922
0.00134081
0.00140623
0.00149925
0.00154299
0.00161099
0.00163795
0.00160151
0.00312323
0.0129647
0.00112813
0.00120902
0.00103105
0.00108192
0.00111617
0.00113272
0.00115698
0.00121691
0.00124908
0.00128192
0.00129318
0.00134231
0.00141502
0.00147168
0.00149948
0.00156154
0.00162949
0.00164761
0.00259396
0.0106169
0.0011095
0.00118515
0.00100967
0.00104495
0.00108035
0.00110734
0.00115632
0.00119074
0.00118158
0.00121172
0.00126891
0.00137224
0.00143801
0.00145374
0.00144948
0.00152986
0.00157537
0.00161828
0.00218312
0.00875436
0.00108392
0.00113095
0.000988693
0.00104734
0.00109846
0.00112592
0.00115762
0.00116722
0.00119572
0.00127735
0.00135069
0.00141533
0.00141388
0.00141366
0.00147554
0.00158657
0.00159003
0.00164604
0.0019574
0.00723805
0.0010656
0.00110077
0.00100538
0.00105864
0.00109013
0.00111138
0.00113499
0.00115345
0.00122437
0.00128132
0.00129442
0.00129132
0.001264
0.00133152
0.00145409
0.0015465
0.0015339
0.00163734
0.00175153
0.00597189
0.001002
0.00104579
0.000967739
0.00100323
0.00104135
0.00106318
0.00110129
0.00114857
0.00120056
0.0012104
0.00122945
0.00129162
0.00137479
0.00152223
0.00156896
0.00154233
0.00153805
0.00165903
0.0017054
0.00517769
0.000999332
0.00104438
0.000979312
0.00102311
0.00106105
0.00108955
0.00112215
0.00116278
0.00119224
0.00123286
0.00130383
0.00135874
0.00139721
0.0014315
0.00138093
0.0014191
0.00150939
0.00169295
0.00169598
0.0046483
0.000976321
0.0010361
0.000985135
0.00103011
0.00106698
0.00109028
0.00112721
0.00116822
0.00121432
0.00126384
0.00129724
0.00131036
0.00132921
0.00134599
0.00135443
0.00151052
0.00160158
0.0016395
0.00169003
0.00468747
0.000985754
0.00103917
0.000980677
0.00103037
0.00105812
0.00108647
0.00112721
0.00115918
0.00118497
0.00121495
0.00122704
0.00126485
0.00132957
0.00137925
0.00148373
0.00153661
0.00149564
0.00159459
0.00173261
0.00434197
0.000955719
0.00101996
0.000979883
0.00103391
0.00106407
0.00109159
0.00111679
0.0011366
0.00116976
0.00119169
0.00124978
0.0013108
0.00138729
0.00142248
0.00146943
0.0014726
0.00156702
0.0017064
0.00170964
0.00394287
0.000919637
0.00100165
0.000951884
0.00101784
0.00105322
0.00108635
0.00112293
0.00116592
0.00121499
0.00125927
0.00133517
0.00135877
0.00141248
0.00145271
0.00148444
0.00153715
0.00156974
0.00141099
0.0014504
0.00316789
0.000927295
0.000980851
0.000943173
0.00100633
0.00102041
0.00106596
0.00107562
0.0011325
0.00114996
0.00121993
0.00121789
0.00127868
0.00128367
0.00133905
0.00143761
0.00149863
0.00153637
0.00153112
0.0018325
0.00252873
0.00098932
0.00113178
0.00123879
0.00122817
0.00118573
0.00109437
0.00106482
0.00105271
0.00109155
0.00114431
0.00112488
0.00116084
0.0012382
0.00129505
0.0012263
0.000723903
0.000137003
0.00968395
0.0149128
0.0158426
0.000969337
0.00109799
0.00122595
0.00119324
0.00116476
0.00110414
0.00112039
0.0011253
0.00109347
0.00110151
0.00114999
0.00118706
0.00124572
0.00133499
0.00129145
0.000892875
0.000325253
0.00847785
0.0150503
0.0172563
0.000978769
0.00109668
0.00124628
0.0012274
0.00118052
0.00109292
0.00108571
0.0011049
0.0011478
0.00116497
0.00117598
0.00121438
0.00125373
0.00133611
0.00138689
0.0011346
0.000698155
0.00651994
0.0150566
0.0185052
0.00097793
0.00108048
0.00123856
0.001217
0.00120886
0.00113596
0.00113059
0.00111671
0.00111215
0.00116266
0.00117742
0.00122782
0.00131608
0.00133457
0.00137609
0.00123678
0.000164172
0.00489844
0.014861
0.0193997
0.000957976
0.00106662
0.00124916
0.00119512
0.00116973
0.00110738
0.00111609
0.00115032
0.00115692
0.00115591
0.00120628
0.00124275
0.00127199
0.00138811
0.00144367
0.00133583
0.00038999
0.00372651
0.0147715
0.0202328
0.000988555
0.00107447
0.00127069
0.00123446
0.0012176
0.00113607
0.00112606
0.00111915
0.0011542
0.00121048
0.00120508
0.00126282
0.00133637
0.00135784
0.00141364
0.00141088
0.0005213
0.0024754
0.0145083
0.0208225
0.000953077
0.00103711
0.00125546
0.00118647
0.00118291
0.00113151
0.00113645
0.0011601
0.00114394
0.00116576
0.00122987
0.00126964
0.0013175
0.00142909
0.00144696
0.00143855
0.000653758
0.00197673
0.0142226
0.0214514
0.000971466
0.00105834
0.00128245
0.00121269
0.00118372
0.00111538
0.00111767
0.00113561
0.00118447
0.00121769
0.00122472
0.00128054
0.001331
0.00138708
0.00144712
0.00151884
0.000942961
0.00120624
0.0139765
0.0220857
0.000975126
0.00103428
0.00126988
0.00119769
0.00119581
0.0011413
0.00114281
0.00115098
0.00115072
0.0012047
0.00125138
0.00129835
0.00136445
0.00144912
0.00144328
0.00150191
0.000983735
0.00125761
0.0135262
0.0224451
0.000963079
0.00103028
0.00128337
0.00118275
0.00115005
0.00110574
0.00112009
0.00115728
0.0011895
0.00120259
0.00124125
0.0012917
0.00133539
0.00142562
0.00148276
0.00158237
0.00121015
0.000923653
0.0132738
0.0229064
0.000973794
0.0010135
0.00127
0.00118597
0.00116678
0.00111957
0.00113278
0.00113886
0.00117336
0.00124092
0.00126688
0.00132173
0.00139361
0.00145948
0.00144373
0.00154488
0.00120656
0.00189053
0.0127626
0.0230663
0.00096948
0.00100921
0.00127185
0.00115082
0.00112653
0.0011091
0.00113292
0.0011707
0.00118818
0.00120501
0.00126547
0.00131155
0.0013679
0.00145847
0.00149794
0.00164285
0.00137714