/*--------------------------------*- C++ -*----------------------------------*\
  =========                 |
  \\      /  F ield         | OpenFOAM: The Open Source CFD Toolbox
   \\    /   O peration     | Website:  https://openfoam.org
    \\  /    A nd           | Version:  9
     \\/     M anipulation  |
\*---------------------------------------------------------------------------*/
FoamFile
{
    format      ascii;
    class       volVectorField;
    location    "6.3";
    object      U;
}
// * * * * * * * * * * * * * * * * * * * * * * * * * * * * * * * * * * * * * //

dimensions      [0 1 -1 0 0 0 0];

internalField   nonuniform List<vector> 
46400
(
(8.37528 -8.17781 6.75917e-20)
(17.1448 -16.4363 -1.60418e-19)
(18.527 -18.6599 -5.38369e-20)
(17.8067 -18.7143 -1.10517e-19)
(17.1933 -18.7374 -4.08669e-20)
(16.5397 -18.808 4.74383e-19)
(15.9794 -18.825 -2.90911e-19)
(15.4273 -18.8849 9.3884e-20)
(14.9293 -18.9487 -9.86426e-20)
(14.4391 -18.9846 1.02715e-19)
(13.9652 -19.0163 -1.06132e-19)
(13.5273 -19.047 0)
(13.1118 -19.1066 7.27519e-19)
(12.7354 -19.1552 -8.25819e-19)
(12.373 -19.2289 -9.87737e-19)
(12.0307 -19.2562 -1.43594e-19)
(11.6881 -19.3121 -2.70285e-20)
(11.3917 -19.288 7.68284e-19)
(11.087 -19.2359 1.02999e-18)
(10.6828 -19.3408 -9.37013e-19)
(8.65129 -7.70697 0)
(17.1919 -15.386 -2.71048e-20)
(18.3086 -17.1438 0)
(17.6373 -17.3219 3.9736e-19)
(17.0634 -17.4035 -3.2637e-19)
(16.4331 -17.502 8.16904e-20)
(15.8792 -17.6157 0)
(15.3338 -17.6995 -9.3881e-20)
(14.824 -17.8034 9.8638e-20)
(14.3341 -17.8864 -1.02708e-19)
(13.8561 -17.9643 1.04757e-18)
(13.3995 -18.0259 3.31998e-20)
(12.9688 -18.1185 -8.32773e-19)
(12.5682 -18.2046 0)
(12.2041 -18.3286 1.15076e-19)
(11.8424 -18.409 1.1647e-19)
(11.4957 -18.5074 0)
(11.1785 -18.5699 -1.0191e-18)
(10.907 -18.6292 -2.57161e-19)
(10.5365 -18.8298 1.04032e-18)
(8.85286 -7.24508 2.00219e-19)
(17.1452 -14.2662 -3.49299e-19)
(18.1209 -15.8184 3.62237e-19)
(17.3692 -15.9831 4.37426e-19)
(16.7701 -16.1062 -4.29443e-19)
(16.1208 -16.2327 0)
(15.5509 -16.3456 -1.13173e-18)
(15.0269 -16.5059 9.81649e-19)
(14.5296 -16.6379 -1.18693e-18)
(14.0646 -16.7601 1.17142e-18)
(13.6092 -16.8777 1.07895e-18)
(13.1709 -16.9441 -1.15727e-19)
(12.7562 -17.0511 -9.27862e-19)
(12.3762 -17.1377 0)
(12.0273 -17.2744 1.10293e-18)
(11.7022 -17.3755 -1.08619e-18)
(11.3716 -17.495 0)
(11.0819 -17.5663 -1.20345e-20)
(10.8007 -17.6481 1.29632e-19)
(10.4309 -17.9038 -1.14502e-18)
(8.97479 -6.75235 -3.04884e-19)
(16.9838 -13.1636 8.90319e-20)
(17.6629 -14.3814 5.11946e-19)
(16.9473 -14.6332 -5.05664e-19)
(16.4106 -14.8372 -4.10224e-19)
(15.806 -15.0218 5.48294e-19)
(15.2454 -15.1874 7.19039e-19)
(14.7165 -15.3445 -1.76733e-18)
(14.236 -15.5552 1.46789e-18)
(13.772 -15.705 -1.40637e-19)
(13.3298 -15.8944 0)
(12.8937 -16.0146 1.43094e-19)
(12.4616 -16.1436 -1.43728e-19)
(12.0637 -16.2566 0)
(11.7086 -16.4246 1.21795e-18)
(11.3769 -16.5752 -1.04211e-18)
(11.056 -16.7522 0)
(10.7624 -16.8928 1.42794e-19)
(10.4807 -17.0117 1.52476e-19)
(10.1073 -17.2917 1.24056e-18)
(9.04836 -6.23396 0)
(16.6606 -11.9509 0)
(17.2261 -13.0905 -6.15674e-19)
(16.5146 -13.3274 4.40065e-19)
(15.9366 -13.5652 -8.00163e-19)
(15.3403 -13.7802 6.40454e-19)
(14.7764 -13.993 0)
(14.2565 -14.1825 6.7437e-19)
(13.7737 -14.409 -8.21074e-19)
(13.334 -14.6022 -1.77032e-19)
(12.9045 -14.8089 -1.76588e-19)
(12.5064 -14.9803 0)
(12.1052 -15.1515 1.34348e-18)
(11.7117 -15.2607 -1.32248e-18)
(11.347 -15.4088 0)
(11.0183 -15.5353 -1.47305e-18)
(10.6849 -15.6821 1.29603e-18)
(10.4139 -15.841 1.29251e-18)
(10.1515 -15.9871 -1.42171e-18)
(9.79917 -16.3156 0)
(9.11701 -5.75446 0)
(16.2125 -10.6812 0)
(16.6413 -11.7534 0)
(15.916 -12.0385 -2.43298e-20)
(15.3858 -12.3467 0)
(14.8127 -12.6076 0)
(14.2685 -12.8627 0)
(13.7572 -13.0922 -1.95983e-19)
(13.2883 -13.3609 0)
(12.858 -13.6029 1.77018e-19)
(12.4418 -13.8567 -1.63743e-20)
(12.042 -14.067 -1.66877e-18)
(11.6646 -14.2977 1.26449e-18)
(11.3026 -14.4931 -1.6377e-18)
(10.9648 -14.7003 1.24257e-18)
(10.6586 -14.9 0)
(10.3303 -15.063 -1.40096e-18)
(10.0238 -15.1982 1.20188e-18)
(9.75047 -15.3217 0)
(9.39214 -15.6053 -1.85697e-19)
(9.19624 -5.24286 7.16881e-19)
(15.6619 -9.48992 2.0756e-19)
(15.9129 -10.4376 8.17801e-19)
(15.2448 -10.7836 -8.30665e-19)
(14.7104 -11.1486 -8.31976e-19)
(14.1793 -11.4567 1.64934e-18)
(13.6452 -11.7565 -1.86345e-18)
(13.1469 -11.9887 1.85789e-19)
(12.6823 -12.2749 5.99032e-19)
(12.2745 -12.517 0)
(11.887 -12.8079 -1.5623e-20)
(11.5211 -13.0265 -1.478e-20)
(11.146 -13.263 1.89509e-19)
(10.7844 -13.4327 1.54223e-18)
(10.4274 -13.631 -1.34615e-18)
(10.1446 -13.8382 -1.70925e-18)
(9.86381 -14.082 1.4916e-18)
(9.61001 -14.2734 -1.08137e-20)
(9.35548 -14.459 -1.86315e-19)
(9.04499 -14.7609 -1.34768e-18)
(9.29855 -4.73397 -2.16538e-19)
(14.9933 -8.33671 2.58526e-20)
(15.119 -9.19274 -2.38059e-19)
(14.4343 -9.54419 -9.42602e-19)
(13.9357 -9.99835 6.65437e-19)
(13.443 -10.3684 0)
(12.95 -10.7489 1.35688e-18)
(12.4786 -11.0574 -6.58922e-19)
(12.0239 -11.3846 4.42222e-19)
(11.615 -11.6812 2.26449e-19)
(11.2381 -12.0021 -4.3484e-19)
(10.8959 -12.3045 1.05887e-18)
(10.5774 -12.6072 2.16766e-19)
(10.2679 -12.8708 -1.24453e-18)
(9.93227 -13.0752 3.47554e-18)
(9.61836 -13.2657 -1.41273e-18)
(9.31836 -13.4562 1.78267e-18)
(9.05243 -13.6485 -1.16791e-18)
(8.8028 -13.8106 3.82312e-19)
(8.5135 -14.1216 1.82456e-18)
(9.39363 -4.28141 1.11006e-18)
(14.2137 -7.24973 -2.36225e-19)
(14.1109 -8.03453 -2.27572e-20)
(13.5275 -8.44754 4.98964e-19)
(13.0093 -8.89899 2.37971e-19)
(12.5765 -9.29758 2.54949e-19)
(12.1158 -9.68798 -1.21028e-18)
(11.6799 -10.002 7.26906e-19)
(11.2629 -10.3421 -2.29415e-19)
(10.8821 -10.6356 -2.26482e-19)
(10.5185 -10.9498 -2.23383e-19)
(10.1864 -11.2326 -2.3305e-19)
(9.86823 -11.5446 -4.45786e-19)
(9.60501 -11.8591 1.53982e-18)
(9.33204 -12.1652 -2.15693e-18)
(9.07801 -12.4335 -2.16858e-19)
(8.8089 -12.681 9.99009e-21)
(8.57111 -12.9107 -1.6226e-18)
(8.32258 -13.1042 1.20716e-18)
(8.03687 -13.3913 -1.90411e-18)
(9.39711 -3.89727 9.84877e-19)
(13.2216 -6.20758 -2.46079e-18)
(13.0183 -6.96323 1.62713e-18)
(12.5316 -7.41457 -2.60027e-19)
(12.0886 -7.97389 -2.75715e-19)
(11.6932 -8.42541 1.07475e-18)
(11.2946 -8.90823 -1.30705e-18)
(10.8965 -9.28169 0)
(10.4959 -9.66194 1.00912e-18)
(10.1401 -9.99839 -9.92304e-19)
(9.80613 -10.3548 -7.24476e-19)
(9.48218 -10.6506 9.46501e-19)
(9.15495 -10.9434 2.29047e-19)
(8.865 -11.2239 -9.20819e-19)
(8.59119 -11.5198 2.24384e-19)
(8.35421 -11.815 1.10626e-18)
(8.09997 -12.0876 -1.94931e-18)
(7.87666 -12.3432 1.28442e-18)
(7.67695 -12.596 -8.41796e-21)
(7.41321 -12.8935 -1.77116e-18)
(9.20718 -3.47518 1.34254e-18)
(12.2089 -5.3082 -8.82906e-19)
(11.9158 -6.02758 5.87847e-19)
(11.4256 -6.4613 5.77506e-21)
(10.9494 -6.98033 -1.15014e-18)
(10.6048 -7.44259 -1.10436e-18)
(10.2516 -7.9396 1.3676e-18)
(9.92224 -8.35736 -8.03929e-19)
(9.5763 -8.77052 1.06248e-18)
(9.24033 -9.10358 0)
(8.94642 -9.4833 1.13152e-20)
(8.69662 -9.82695 2.4498e-19)
(8.41588 -10.1541 2.5043e-19)
(8.16301 -10.4577 -2.45236e-19)
(7.88774 -10.7473 0)
(7.66641 -11.0472 2.3511e-19)
(7.44582 -11.3585 0)
(7.21289 -11.6159 4.43019e-19)
(7.02337 -11.8941 2.16629e-18)
(6.80199 -12.2472 -1.41002e-20)
(8.8015 -3.03585 7.23789e-19)
(10.9954 -4.46156 -1.50885e-19)
(10.6893 -5.19251 -2.17201e-18)
(10.3662 -5.70261 1.21628e-18)
(9.95557 -6.27268 2.91848e-19)
(9.6274 -6.75282 -2.86984e-19)
(9.29859 -7.27823 -1.15427e-18)
(9.00029 -7.73562 8.57552e-19)
(8.72258 -8.22551 0)
(8.42 -8.61578 0)
(8.11301 -8.99864 -1.32376e-18)
(7.85625 -9.36727 1.04568e-18)
(7.58652 -9.70461 -2.50428e-19)
(7.34615 -10.0201 -7.50655e-19)
(7.09425 -10.3094 6.2195e-21)
(6.8513 -10.5643 1.67767e-18)
(6.65657 -10.8505 -9.38994e-19)
(6.46327 -11.0998 6.8728e-19)
(6.27291 -11.3289 -1.1202e-18)
(6.1029 -11.6348 0)
(8.17566 -2.56392 -6.15109e-19)
(9.85502 -3.72189 9.7879e-19)
(9.50599 -4.44034 1.65181e-19)
(9.15522 -4.92356 1.6216e-19)
(8.73351 -5.46512 0)
(8.44417 -5.93592 1.22395e-18)
(8.15065 -6.44023 -1.20247e-18)
(7.85938 -6.85741 1.49409e-19)
(7.61276 -7.33425 0)
(7.40164 -7.77367 1.12402e-18)
(7.15287 -8.18567 -9.65784e-19)
(6.9679 -8.6008 1.07492e-18)
(6.77344 -9.00733 -1.05783e-18)
(6.58671 -9.37894 1.02729e-18)
(6.40935 -9.74752 -8.83976e-19)
(6.21038 -10.0631 -9.81507e-19)
(6.0191 -10.372 1.92626e-18)
(5.85783 -10.6706 -8.26263e-19)
(5.68157 -10.9348 1.16328e-19)
(5.48823 -11.2343 9.73999e-19)
(7.36145 -2.09028 -4.84754e-19)
(8.49365 -3.0492 5.13899e-19)
(8.19188 -3.80606 -1.65165e-19)
(8.04542 -4.42861 -1.6213e-19)
(7.69618 -5.05138 0)
(7.43764 -5.57388 0)
(7.19979 -6.16977 0)
(6.93431 -6.61741 -3.03127e-19)
(6.66167 -7.07516 -1.18356e-18)
(6.44363 -7.50467 2.32033e-18)
(6.18786 -7.8982 -1.27734e-18)
(5.94515 -8.25141 -1.40052e-19)
(5.74441 -8.61942 0)
(5.56059 -8.9696 0)
(5.39232 -9.31858 -2.57935e-19)
(5.23839 -9.65428 0)
(5.07417 -9.96982 9.81035e-19)
(4.92732 -10.2706 -1.20701e-18)
(4.81272 -10.5681 -1.05212e-18)
(4.66906 -10.8847 1.00588e-18)
(6.39253 -1.63431 4.99295e-19)
(7.23605 -2.46156 8.82042e-19)
(6.82096 -3.18703 -4.80892e-22)
(6.56308 -3.74513 -1.54489e-21)
(6.28666 -4.33813 1.66126e-19)
(6.01035 -4.80074 -4.88139e-19)
(5.83913 -5.37835 0)
(5.72354 -5.91856 -4.67025e-19)
(5.51797 -6.41325 1.57319e-19)
(5.39155 -6.90605 5.96184e-19)
(5.26629 -7.38307 5.77985e-19)
(5.12735 -7.81962 -4.28652e-19)
(4.95807 -8.2085 1.10146e-18)
(4.80265 -8.58227 -9.48276e-19)
(4.65853 -8.93745 1.17979e-18)
(4.51301 -9.27833 -2.18728e-18)
(4.38338 -9.60414 1.009e-18)
(4.24119 -9.9146 1.21449e-19)
(4.11187 -10.1953 9.52822e-19)
(3.99898 -10.5456 -1.02481e-18)
(5.30516 -1.2352 1.74008e-19)
(5.73858 -2.02135 -1.78786e-19)
(5.50551 -2.73636 7.09748e-19)
(5.53858 -3.43 -6.9661e-19)
(5.40362 -4.09323 -3.39612e-19)
(5.14932 -4.60556 -8.27591e-19)
(4.84527 -5.06939 3.91917e-21)
(4.67587 -5.56382 6.36311e-19)
(4.48104 -6.0148 -1.53462e-19)
(4.29236 -6.46413 0)
(4.11885 -6.89367 0)
(4.0021 -7.34217 0)
(3.89812 -7.77489 0)
(3.76593 -8.17487 1.72104e-21)
(3.64883 -8.55564 0)
(3.5449 -8.92542 1.29508e-19)
(3.42448 -9.26442 5.06667e-19)
(3.32643 -9.59443 -1.48844e-18)
(3.20792 -9.88092 1.09666e-18)
(3.08781 -10.2024 -1.02685e-18)
(4.0168 -0.937971 0)
(4.41947 -1.72968 -9.22911e-20)
(4.08188 -2.25201 0)
(3.82431 -2.87186 2.6359e-19)
(3.78049 -3.57802 -1.7448e-19)
(3.74911 -4.25899 -6.72262e-19)
(3.62729 -4.8144 4.31089e-21)
(3.53152 -5.3659 6.44939e-19)
(3.38803 -5.87151 -6.24612e-19)
(3.27984 -6.34431 1.22345e-18)
(3.16579 -6.7857 -5.09016e-21)
(3.01173 -7.18471 -5.84573e-19)
(2.92401 -7.58238 5.65063e-19)
(2.84656 -7.97724 -6.93905e-19)
(2.75915 -8.34451 0)
(2.68553 -8.70542 -5.24242e-19)
(2.62823 -9.06283 5.16402e-19)
(2.55189 -9.38881 0)
(2.50878 -9.7073 -1.21835e-19)
(2.41776 -10.0231 0)
(2.37793 -0.539076 9.43442e-20)
(3.16571 -1.4375 8.50226e-20)
(3.05247 -2.16173 0)
(2.7404 -2.74076 3.5499e-19)
(2.53549 -3.2738 -4.36221e-19)
(2.50513 -3.89068 2.53838e-19)
(2.40585 -4.45612 -7.46709e-19)
(2.28969 -4.99733 3.24992e-19)
(2.21806 -5.52362 -7.90008e-20)
(2.14157 -6.00459 0)
(2.08691 -6.49353 -7.50956e-20)
(2.04896 -6.94031 -7.32067e-20)
(1.95685 -7.36107 -7.13686e-20)
(1.86745 -7.75397 0)
(1.81275 -8.14156 -5.39872e-19)
(1.7182 -8.49987 1.12417e-18)
(1.66289 -8.85205 -9.67239e-19)
(1.60909 -9.19588 5.05677e-19)
(1.55853 -9.50811 6.13795e-20)
(1.53979 -9.86445 5.20157e-19)
(1.24389 -0.249921 0)
(1.39559 -0.916423 -1.86498e-19)
(1.3645 -1.76946 5.84518e-22)
(1.40414 -2.4582 4.91008e-19)
(1.33328 -3.1124 -1.31375e-19)
(1.19346 -3.69704 -8.46838e-20)
(1.19269 -4.3003 8.42415e-20)
(1.1337 -4.85174 1.62736e-19)
(1.1033 -5.37358 7.90015e-20)
(1.03943 -5.8655 -3.06869e-19)
(0.973105 -6.34122 3.39444e-19)
(0.931221 -6.78662 7.32038e-20)
(0.918513 -7.24218 3.55508e-19)
(0.899587 -7.6367 -2.72701e-21)
(0.857324 -8.04075 3.1148e-20)
(0.848293 -8.39584 -5.95345e-19)
(0.805691 -8.75622 1.62677e-19)
(0.774393 -9.07691 0)
(0.743307 -9.3892 -3.07671e-20)
(0.695973 -9.71909 -2.59951e-19)
(0.402715 -0.29734 4.75263e-20)
(0.132802 -0.934656 -9.29519e-20)
(-0.0623422 -1.82011 1.82058e-19)
(-0.0776913 -2.39733 -4.50049e-20)
(-0.124224 -3.15275 -4.36216e-20)
(-0.0939298 -3.63662 0)
(-0.152215 -4.28659 -8.24818e-20)
(-0.143552 -4.76107 1.61476e-19)
(-0.114646 -5.33887 -7.9053e-20)
(-0.140971 -5.79368 7.64031e-20)
(-0.101986 -6.29343 -3.76661e-20)
(-0.136383 -6.71325 -7.25622e-20)
(-0.116431 -7.15947 1.42119e-19)
(-0.130929 -7.56152 -1.3852e-19)
(-0.101023 -7.97067 3.40144e-20)
(-0.118417 -8.33586 2.32575e-34)
(-0.102729 -8.71404 -3.16712e-20)
(-0.102994 -9.04103 1.87439e-19)
(-0.103516 -9.36888 -9.26279e-20)
(-0.0918629 -9.6967 -6.53946e-20)
(0.268631 2.53845 3.49793e-20)
(0.614289 -0.946752 7.89511e-21)
(2.55868 -9.70349 0)
(5.66857 -21.4524 0)
(7.31798 -28.7064 1.60025e-20)
(7.94076 -31.6385 1.49661e-20)
(8.06624 -32.4488 0)
(7.97222 -32.5423 1.30361e-20)
(7.8978 -32.4756 0)
(7.73562 -32.2872 0)
(7.61967 -32.149 -1.12519e-20)
(7.50795 -32.058 1.04597e-21)
(7.38247 -31.959 2.09443e-20)
(7.28978 -31.8577 0)
(7.13543 -31.7706 8.707e-21)
(7.05517 -31.595 8.08269e-21)
(6.87121 -31.4984 7.5043e-21)
(6.81177 -31.3564 0)
(6.61985 -31.2323 -1.28733e-20)
(6.52819 -30.9344 1.21469e-20)
(0.431563 1.25262 5.04127e-20)
(0.942659 -3.22783 -8.58097e-20)
(3.89834 -14.4581 0)
(6.65267 -25.213 -8.19356e-20)
(7.98419 -30.5092 7.95608e-20)
(8.31437 -32.0929 -1.34377e-19)
(8.32283 -32.3791 5.5848e-20)
(8.28406 -32.3598 3.62478e-20)
(8.15236 -32.1993 -1.72423e-19)
(8.04318 -32.0387 9.87666e-20)
(7.93013 -31.9183 -1.14471e-20)
(7.82616 -31.7902 8.20645e-20)
(7.69939 -31.6883 -4.331e-21)
(7.59732 -31.5523 -7.52121e-20)
(7.44416 -31.4112 -8.70711e-21)
(7.35875 -31.273 -8.08308e-21)
(7.18421 -31.1686 -7.50455e-21)
(7.1273 -31.0107 0)
(6.92724 -30.8617 -4.76526e-20)
(6.84651 -30.5692 3.18143e-21)
(0.306072 0.00206817 -3.7629e-20)
(1.51158 -5.93008 0)
(5.17996 -18.8802 0)
(7.62507 -27.8225 -3.45246e-20)
(8.55969 -31.3601 3.21817e-20)
(8.74409 -32.2033 0)
(8.71661 -32.2447 -2.63187e-20)
(8.62949 -32.1445 7.48062e-20)
(8.496 -31.9303 -7.84733e-20)
(8.37733 -31.7645 9.19372e-20)
(8.26357 -31.6266 -1.12173e-19)
(8.14455 -31.499 0)
(8.02506 -31.3712 -7.33868e-20)
(7.91812 -31.2489 -6.3361e-20)
(7.77545 -31.1313 1.17724e-19)
(7.68657 -30.9608 -1.14865e-19)
(7.51224 -30.8612 9.99129e-20)
(7.45197 -30.6951 0)
(7.23857 -30.5157 -9.86394e-20)
(7.15803 -30.1985 1.61105e-19)
(0.242688 -1.14057 1.91872e-19)
(2.45704 -9.35656 0)
(6.3072 -22.118 7.55732e-20)
(8.45357 -29.5309 1.00318e-19)
(9.06315 -31.8363 -2.0304e-19)
(9.14418 -32.1465 6.06407e-20)
(9.09338 -32.0902 2.73706e-20)
(8.97042 -31.8601 2.86964e-19)
(8.85683 -31.6541 -4.025e-19)
(8.74998 -31.4998 -3.49236e-20)
(8.64313 -31.3509 1.99462e-19)
(8.53415 -31.2211 3.91442e-20)
(8.4165 -31.1055 -1.77148e-19)
(8.3008 -30.9492 1.71829e-19)
(8.15177 -30.7943 4.5706e-20)
(8.04471 -30.6388 -2.71919e-20)
(7.87106 -30.5203 3.79155e-20)
(7.79874 -30.3345 0)
(7.57097 -30.1396 -9.08232e-21)
(7.49583 -29.8352 0)
(0.36784 -2.42004 0)
(3.45105 -12.3996 3.17105e-19)
(7.38533 -24.8327 -3.89778e-19)
(9.23504 -30.7151 3.60551e-19)
(9.59894 -31.9943 -2.87304e-19)
(9.61146 -32.0456 -6.10928e-20)
(9.52565 -31.8655 0)
(9.40154 -31.6262 1.56354e-19)
(9.28729 -31.4395 -2.07073e-19)
(9.16535 -31.2491 2.24017e-19)
(9.04207 -31.0971 -1.74806e-19)
(8.91026 -30.9336 -3.914e-20)
(8.77797 -30.772 1.71521e-19)
(8.64365 -30.6195 -2.89642e-19)
(8.49332 -30.4567 1.75017e-19)
(8.37877 -30.286 -5.74794e-20)
(8.20791 -30.1801 -1.15549e-19)
(8.12587 -29.9858 2.52169e-19)
(7.89183 -29.7759 -1.40261e-19)
(7.81454 -29.4614 -1.41856e-19)
(0.563813 -3.50061 3.5435e-19)
(4.63266 -15.1981 3.40125e-19)
(8.45818 -26.6901 -3.37506e-19)
(10.0205 -31.264 -7.89274e-20)
(10.206 -31.9699 6.83151e-20)
(10.1678 -31.8822 2.42354e-19)
(10.0232 -31.5986 -2.44987e-19)
(9.89433 -31.35 0)
(9.75151 -31.1022 1.91487e-19)
(9.61341 -30.9142 -1.88284e-19)
(9.48057 -30.7273 -1.58151e-19)
(9.34437 -30.5799 1.55585e-19)
(9.20812 -30.4351 0)
(9.06782 -30.2601 0)
(8.90819 -30.1052 2.37255e-19)
(8.7804 -29.9431 -2.31219e-19)
(8.59988 -29.8126 -1.65915e-19)
(8.50604 -29.6119 1.63434e-19)
(8.25087 -29.3998 -1.28684e-19)
(8.17574 -29.0888 1.54633e-19)
(0.942877 -4.57656 -2.78486e-19)
(5.90803 -17.3578 1.06176e-19)
(9.5766 -28.1294 2.2236e-20)
(10.8273 -31.5886 4.1158e-19)
(10.8633 -31.8069 0)
(10.7393 -31.5766 0)
(10.5653 -31.2763 4.5915e-19)
(10.4125 -31.0219 -3.58734e-20)
(10.2561 -30.8027 -4.08273e-19)
(10.1008 -30.5952 3.38322e-19)
(9.95105 -30.4288 -3.32746e-19)
(9.79029 -30.2414 0)
(9.6342 -30.0685 2.44097e-19)
(9.46271 -29.8909 -2.40254e-19)
(9.29463 -29.7014 0)
(9.14117 -29.5369 0)
(8.96516 -29.4243 0)
(8.84524 -29.2096 0)
(8.58943 -28.9885 0)
(8.50169 -28.6784 -1.3672e-20)
(1.56011 -5.75676 2.92055e-19)
(7.27266 -19.0063 -2.40838e-19)
(10.6965 -28.8594 0)
(11.6154 -31.4356 0)
(11.5784 -31.49 6.11274e-19)
(11.3967 -31.2055 1.81465e-20)
(11.1905 -30.9064 -5.53259e-19)
(11.0041 -30.6316 0)
(10.807 -30.3738 4.64477e-20)
(10.6197 -30.1635 -4.13339e-20)
(10.4365 -29.9616 0)
(10.2564 -29.8008 3.23908e-20)
(10.0761 -29.6237 -2.54689e-19)
(9.89793 -29.4454 4.46338e-19)
(9.70945 -29.2883 -2.21867e-20)
(9.55214 -29.1228 -1.70883e-19)
(9.35594 -28.9985 -1.59085e-20)
(9.23521 -28.8041 1.32823e-20)
(8.95457 -28.5962 0)
(8.8726 -28.2722 8.83814e-21)
(2.4765 -6.82169 0)
(7.97772 -20.2233 1.35058e-19)
(11.8317 -29.4197 -5.68482e-19)
(12.4135 -31.2697 1.58161e-19)
(12.2663 -31.1133 6.88066e-20)
(12.0089 -30.7259 5.53164e-19)
(11.7815 -30.4359 -7.51302e-19)
(11.5525 -30.1642 5.29879e-19)
(11.3336 -29.9154 -3.91259e-19)
(11.1202 -29.7064 4.57558e-19)
(10.9265 -29.5255 6.76018e-20)
(10.7207 -29.3368 2.61153e-19)
(10.529 -29.1745 -1.51436e-19)
(10.3155 -28.9815 -2.4504e-19)
(10.1194 -28.8003 2.10845e-19)
(9.92558 -28.6561 0)
(9.73569 -28.5426 4.16627e-20)
(9.57517 -28.3386 7.27642e-21)
(9.29447 -28.1408 -1.62537e-20)
(9.1902 -27.8352 3.01159e-21)
(2.83777 -7.47063 -7.67883e-20)
(9.32359 -21.0283 3.64807e-19)
(12.8232 -29.3755 -4.7062e-21)
(13.267 -30.7154 -3.12213e-19)
(13.0061 -30.5014 -2.76579e-19)
(12.7339 -30.1836 -1.26542e-19)
(12.4456 -29.885 -6.56693e-21)
(12.1871 -29.606 -9.93341e-20)
(11.9215 -29.3655 0)
(11.6764 -29.154 -7.716e-20)
(11.437 -28.9717 -6.75948e-20)
(11.205 -28.8045 -7.27868e-21)
(10.9716 -28.6217 1.70283e-19)
(10.7466 -28.4576 -9.4569e-20)
(10.5194 -28.291 -1.616e-19)
(10.3177 -28.1374 1.22528e-19)
(10.1068 -28.0389 5.45028e-20)
(9.94564 -27.8673 -9.96183e-20)
(9.64123 -27.6749 1.6254e-20)
(9.53578 -27.3482 4.46841e-20)
(3.52746 -8.34801 -9.39188e-19)
(10.3052 -21.732 9.44893e-19)
(13.8457 -29.2785 -9.9032e-19)
(14.0119 -30.1956 7.9187e-19)
(13.6893 -29.896 6.36955e-19)
(13.3502 -29.5263 -4.94987e-19)
(13.027 -29.2448 -5.86439e-19)
(12.719 -28.9787 4.40358e-20)
(12.4272 -28.7249 3.27751e-19)
(12.1434 -28.5304 -1.85534e-19)
(11.8905 -28.3454 4.52099e-19)
(11.6313 -28.188 -2.57709e-19)
(11.3906 -28.04 -4.3673e-20)
(11.1307 -27.8576 8.13337e-20)
(10.8926 -27.7113 -2.08786e-19)
(10.6557 -27.5894 9.13947e-20)
(10.4383 -27.49 0)
(10.2396 -27.3398 -6.18986e-20)
(9.92945 -27.1751 6.09973e-20)
(9.80242 -26.8482 8.21783e-22)
(4.0219 -8.74433 1.85283e-19)
(11.4571 -21.8648 2.16427e-19)
(14.6954 -28.7066 8.42036e-19)
(14.8157 -29.343 6.66186e-19)
(14.3791 -29.0592 -4.05678e-19)
(14.0344 -28.7664 4.99768e-19)
(13.6569 -28.4934 -2.95768e-19)
(13.3156 -28.245 2.93065e-19)
(12.9839 -28.0308 -5.36105e-19)
(12.6754 -27.8427 1.82751e-19)
(12.3821 -27.6959 0)
(12.0968 -27.5296 0)
(11.8162 -27.379 0)
(11.5439 -27.2274 -1.6283e-19)
(11.2718 -27.0558 1.60319e-19)
(11.021 -26.9339 0)
(10.7895 -26.8703 0)
(10.5782 -26.7479 3.36514e-21)
(10.2575 -26.6138 0)
(10.1186 -26.2756 7.40744e-20)
(4.72525 -9.16424 -3.4723e-19)
(12.4398 -22.054 -8.45081e-19)
(15.5596 -28.1633 -5.50438e-19)
(15.4694 -28.5487 -6.70891e-20)
(15.0026 -28.2471 6.6536e-19)
(14.5845 -27.9319 -1.54701e-19)
(14.1798 -27.6842 -4.91016e-20)
(13.7934 -27.4467 -3.49425e-19)
(13.4307 -27.2235 0)
(13.0796 -27.0556 -1.23798e-19)
(12.7654 -26.9038 1.88604e-19)
(12.4548 -26.7956 0)
(12.1608 -26.6658 1.31967e-19)
(11.861 -26.5351 -1.29896e-19)
(11.5804 -26.4106 3.39143e-20)
(11.302 -26.2797 -2.93348e-20)
(11.0592 -26.2031 -7.7873e-21)
(10.8326 -26.1209 -3.36522e-21)
(10.5214 -26.0095 1.64822e-20)
(10.3759 -25.6848 -1.42381e-19)
(5.24318 -9.32166 -4.42064e-19)
(13.3723 -21.7071 4.83396e-20)
(16.245 -27.2297 7.00683e-20)
(16.1354 -27.4807 9.04594e-19)
(15.5786 -27.2344 4.20569e-20)
(15.1519 -26.9885 -4.14779e-19)
(14.7019 -26.7633 -2.37128e-19)
(14.2839 -26.567 1.02909e-19)
(13.8916 -26.3802 2.20521e-19)
(13.5194 -26.2298 -1.72453e-19)
(13.1774 -26.1088 7.88361e-20)
(12.8441 -25.9791 -9.99885e-20)
(12.5247 -25.8827 8.91019e-20)
(12.2103 -25.7639 1.06069e-20)
(11.9027 -25.6574 -1.65213e-22)
(11.6129 -25.5697 -8.86097e-20)
(11.3606 -25.5191 9.10668e-20)
(11.1178 -25.4644 -1.3422e-19)
(10.8189 -25.411 1.38778e-19)
(10.673 -25.1048 2.47982e-19)
(5.86972 -9.4614 -5.26659e-19)
(14.2393 -21.483 -7.11814e-20)
(16.9382 -26.3494 4.84294e-19)
(16.6414 -26.4564 -3.45445e-19)
(16.0889 -26.2163 3.39161e-19)
(15.5892 -25.9834 7.05884e-20)
(15.123 -25.7916 0)
(14.666 -25.6138 -2.81715e-20)
(14.2422 -25.4509 5.35278e-20)
(13.8331 -25.3254 -1.65459e-19)
(13.463 -25.2352 1.02074e-19)
(13.1081 -25.1608 2.01679e-21)
(12.7649 -25.0626 1.29373e-21)
(12.4315 -24.9737 0)
(12.1065 -24.8814 1.27048e-20)
(11.7897 -24.796 -1.86508e-19)
(11.5187 -24.7532 -3.44237e-20)
(11.2573 -24.7502 -8.7989e-20)
(10.971 -24.7264 2.4135e-19)
(10.8126 -24.4575 -7.36931e-20)
(6.34618 -9.41483 4.43868e-19)
(14.9545 -20.8 -7.32559e-19)
(17.4111 -25.1635 4.00172e-19)
(17.1417 -25.2496 2.63943e-19)
(16.5116 -25.0781 -5.68117e-20)
(16.002 -24.8985 -1.65973e-19)
(15.4967 -24.733 2.06973e-20)
(15.0144 -24.597 2.81696e-20)
(14.5664 -24.4489 0)
(14.1334 -24.3414 0)
(13.7441 -24.2643 8.18511e-20)
(13.3723 -24.2272 -1.86367e-19)
(13.0224 -24.1943 1.3139e-19)
(12.6706 -24.1207 0)
(12.3335 -24.0636 1.37331e-20)
(12.0057 -24.0045 3.26556e-19)
(11.7256 -23.9758 -3.25712e-19)
(11.442 -24.0065 3.44535e-20)
(11.1928 -24.054 4.07071e-19)
(11.0364 -23.8305 -2.70443e-19)
(6.87005 -9.33935 -3.49396e-19)
(15.6639 -20.2645 4.26948e-19)
(17.8885 -24.0528 0)
(17.4365 -24.042 0)
(16.8385 -23.8843 2.42108e-20)
(16.2654 -23.7596 -9.98894e-20)
(15.7625 -23.6435 2.27391e-20)
(15.2508 -23.5501 2.25193e-20)
(14.7827 -23.4544 1.00442e-19)
(14.3248 -23.3678 -2.5956e-19)
(13.8999 -23.3032 1.58157e-19)
(13.5032 -23.2603 -5.95389e-20)
(13.1286 -23.2583 -3.44597e-19)
(12.772 -23.2355 -8.79088e-20)
(12.4071 -23.1964 2.44087e-19)
(12.0615 -23.15 -4.05224e-20)
(11.7513 -23.1248 4.61311e-19)
(11.4494 -23.1827 -4.06247e-19)
(11.2118 -23.258 1.18681e-20)
(11.0708 -23.1183 -4.72475e-19)
(7.26711 -9.13126 0)
(16.1743 -19.3306 1.3153e-19)
(18.1584 -22.6979 -1.75176e-19)
(17.7482 -22.745 0)
(17.1077 -22.6552 -2.42099e-20)
(16.5264 -22.5547 -1.87617e-20)
(15.9802 -22.4604 1.79851e-20)
(15.4543 -22.3974 0)
(14.9641 -22.3288 -2.50903e-19)
(14.4903 -22.2932 2.46719e-19)
(14.0571 -22.27 -5.03013e-20)
(13.6417 -22.2608 3.7974e-20)
(13.2586 -22.2781 4.30434e-20)
(12.8881 -22.2981 4.74668e-20)
(12.5294 -22.3171 5.35966e-19)
(12.1715 -22.3089 -9.84054e-19)
(11.8489 -22.3169 1.02235e-18)
(11.5182 -22.4067 -1.02865e-18)
(11.2891 -22.5432 4.56565e-19)
(11.1533 -22.4753 -6.66391e-20)
(7.68347 -8.90363 0)
(16.6812 -18.498 -9.28783e-20)
(18.4222 -21.4451 6.39142e-20)
(17.8185 -21.4298 -9.37446e-21)
(17.2033 -21.3558 -4.80983e-20)
(16.5768 -21.3446 -4.25271e-20)
(16.0483 -21.3065 1.08193e-19)
(15.4986 -21.2861 0)
(14.9943 -21.2409 0)
(14.5 -21.2077 0)
(14.0389 -21.2116 5.02957e-20)
(13.6043 -21.2143 0)
(13.1895 -21.2541 6.46012e-19)
(12.804 -21.2928 -5.59404e-19)
(12.4115 -21.3375 6.16964e-19)
(12.0344 -21.3458 -1.24292e-18)
(11.6546 -21.3703 6.25805e-19)
(11.2908 -21.4476 7.4352e-19)
(11.0047 -21.606 -1.31191e-18)
(10.8754 -21.6727 6.96544e-19)
(8.04437 -8.52941 0)
(16.9166 -17.4749 0)
(18.4725 -19.9791 1.61251e-21)
(17.9147 -20.0727 -1.17318e-20)
(17.3048 -20.0571 0)
(16.6746 -20.0435 -2.01807e-19)
(16.1158 -20.048 1.98268e-19)
(15.5775 -20.0828 0)
(15.0641 -20.0964 -5.71885e-19)
(14.5558 -20.0851 5.62332e-19)
(14.0816 -20.0996 0)
(13.6303 -20.1269 6.83954e-19)
(13.2018 -20.171 -3.78837e-20)
(12.7918 -20.2282 -7.01669e-19)
(12.3962 -20.295 0)
(11.9885 -20.3233 0)
(11.5685 -20.3602 0)
(11.1195 -20.3673 7.34083e-19)
(10.7707 -20.3021 -8.08479e-19)
(10.3905 -20.5353 0)
(5.63851 -30.1023 0)
(4.83689 -28.6269 0)
(3.89164 -28.4529 1.86655e-22)
(3.41374 -28.064 4.87286e-22)
(2.76314 -27.7236 0)
(2.37346 -27.3428 8.44414e-23)
(1.96255 -27.0157 -1.1056e-21)
(1.63279 -26.6392 0)
(1.36201 -26.3583 -1.49086e-21)
(1.1133 -26.0824 0)
(0.914738 -25.8869 1.67115e-21)
(0.748062 -25.7109 8.81148e-22)
(0.595201 -25.5682 -8.85851e-22)
(0.482743 -25.4464 -1.86734e-21)
(0.352757 -25.3508 0)
(0.274077 -25.1769 4.93527e-22)
(0.20798 -24.4323 -1.73548e-21)
(0.203827 -21.4664 0)
(0.0488242 -15.062 0)
(0.000495818 -6.33392 -2.04443e-21)
(5.91632 -29.7156 4.81318e-21)
(5.15631 -28.3898 0)
(4.21596 -28.3049 -1.66936e-21)
(3.68158 -27.856 1.002e-21)
(2.98912 -27.5337 0)
(2.55506 -27.1852 5.41783e-21)
(2.12091 -26.8804 -2.29401e-21)
(1.76257 -26.5193 0)
(1.4777 -26.2588 -1.60945e-21)
(1.2118 -25.9978 3.11697e-21)
(1.00215 -25.8187 -5.10555e-21)
(0.823167 -25.6525 7.01761e-21)
(0.659982 -25.5217 -5.42484e-21)
(0.538233 -25.409 1.8248e-21)
(0.397223 -25.3197 1.90272e-21)
(0.313295 -25.151 -1.98467e-21)
(0.22212 -24.4211 3.04481e-21)
(0.217456 -21.4418 4.7173e-21)
(0.0481956 -15.0305 2.5921e-21)
(0.000663716 -6.32711 2.55645e-21)
(6.18678 -29.4229 -5.21183e-21)
(5.34719 -28.1113 -2.92442e-21)
(4.33369 -28.0447 1.36741e-21)
(3.77447 -27.6974 0)
(3.08088 -27.4119 0)
(2.62703 -27.084 -6.86166e-21)
(2.18678 -26.7966 -6.34636e-22)
(1.82279 -26.4544 -4.63551e-22)
(1.53166 -26.2042 -4.05303e-22)
(1.25506 -25.9482 6.35449e-21)
(1.04009 -25.7766 0)
(0.855848 -25.6164 0)
(0.689015 -25.4876 0)
(0.56371 -25.3748 7.60526e-21)
(0.420306 -25.2885 0)
(0.336423 -25.1318 7.93115e-21)
(0.233296 -24.4178 -6.93537e-21)
(0.233197 -21.4345 -2.68633e-21)
(0.0652433 -15.0198 -5.02468e-21)
(0.00934901 -6.32579 -8.26399e-21)
(6.46032 -29.0357 2.82781e-21)
(5.59675 -27.8583 -3.90054e-21)
(4.62197 -27.8555 1.02132e-21)
(4.02748 -27.4779 -4.10543e-21)
(3.30455 -27.22 0)
(2.80668 -26.9259 -9.83894e-21)
(2.34577 -26.6638 2.6418e-20)
(1.9532 -26.3356 -1.71987e-20)
(1.64751 -26.1046 1.24042e-20)
(1.35263 -25.863 -6.77373e-21)
(1.1265 -25.7082 -1.80201e-22)
(0.92933 -25.5573 7.30143e-21)
(0.752424 -25.4395 -7.33686e-21)
(0.617485 -25.3357 -3.75665e-21)
(0.463054 -25.2563 -3.86666e-21)
(0.376536 -25.1031 -7.92642e-21)
(0.247244 -24.4113 8.54e-21)
(0.250505 -21.4277 -3.53124e-21)
(0.0650144 -15.0056 1.90444e-21)
(0.0329671 -6.32018 8.18013e-21)
(6.74705 -28.7271 1.43207e-20)
(5.84379 -27.5768 3.52377e-22)
(4.76159 -27.621 4.33188e-21)
(4.11976 -27.3173 -7.63439e-21)
(3.38559 -27.0857 0)
(2.86884 -26.8105 4.82325e-21)
(2.40434 -26.5713 -5.43161e-21)
(2.00728 -26.2635 0)
(1.69676 -26.0435 1.27487e-22)
(1.3918 -25.8073 0)
(1.16106 -25.6606 1.40869e-20)
(0.958714 -25.5163 0)
(0.777471 -25.4017 0)
(0.640209 -25.2979 1.55023e-20)
(0.483665 -25.2233 -7.79336e-21)
(0.400058 -25.08 8.01968e-21)
(0.26338 -24.4081 0)
(0.27044 -21.4277 -1.76995e-21)
(0.0723432 -15.0063 1.87358e-21)
(0.0745066 -6.31481 0)
(7.00395 -28.3552 2.21577e-21)
(6.03346 -27.3079 7.48324e-22)
(5.02996 -27.3743 -1.33219e-20)
(4.35528 -27.0796 1.35938e-20)
(3.60297 -26.8894 -8.97347e-21)
(3.04395 -26.6506 -4.83831e-21)
(2.56197 -26.4408 1.1561e-20)
(2.13621 -26.1459 1.24086e-20)
(1.81133 -25.9437 -6.49578e-21)
(1.48791 -25.7215 -1.40194e-20)
(1.24608 -25.5916 6.97471e-21)
(1.02999 -25.4563 0)
(0.83878 -25.3525 0)
(0.691948 -25.2573 6.35717e-23)
(0.524499 -25.1905 7.85553e-21)
(0.439322 -25.0504 -8.0119e-21)
(0.279144 -24.4061 0)
(0.291018 -21.4323 1.43834e-20)
(0.0807631 -15.0106 1.48037e-20)
(0.102144 -6.30394 9.95331e-22)
(7.31241 -27.9892 -2.80399e-21)
(6.27568 -27.0302 -1.76568e-22)
(5.16399 -27.1683 4.79753e-21)
(4.43971 -26.9108 0)
(3.67309 -26.7436 9.01167e-21)
(3.09893 -26.5216 -2.20399e-20)
(2.61482 -26.34 1.05188e-20)
(2.18421 -26.067 -1.24437e-20)
(1.85607 -25.876 0)
(1.52344 -25.66 0)
(1.27781 -25.5387 -1.47534e-20)
(1.05636 -25.4104 1.48063e-20)
(0.860603 -25.3109 0)
(0.712022 -25.2161 -2.3515e-20)
(0.542483 -25.1565 7.91569e-21)
(0.46213 -25.0247 8.10869e-21)
(0.293901 -24.4059 -6.86165e-21)
(0.312489 -21.4428 -1.87169e-20)
(0.0918622 -15.0262 -1.03011e-20)
(0.125823 -6.29192 -1.98136e-21)
(7.55851 -27.6262 0)
(6.47703 -26.7277 7.81088e-21)
(5.41781 -26.8789 -7.83491e-21)
(4.66151 -26.6596 0)
(3.88379 -26.5459 0)
(3.26938 -26.3615 2.29011e-20)
(2.76967 -26.2107 -2.29696e-20)
(2.30959 -25.9507 0)
(1.96822 -25.7764 -1.4002e-20)
(1.61739 -25.5737 2.85717e-20)
(1.36084 -25.4688 -1.45715e-20)
(1.12553 -25.3491 -1.5348e-20)
(0.919166 -25.2606 1.53943e-20)
(0.760484 -25.1743 0)
(0.580509 -25.1233 0)
(0.496676 -24.9941 8.14061e-21)
(0.307466 -24.4075 -1.0339e-20)
(0.333174 -21.458 -2.34094e-23)
(0.0959762 -15.0442 6.21265e-21)
(0.147653 -6.27781 -1.97774e-21)
(7.86231 -27.2151 -3.31235e-21)
(6.67189 -26.4429 3.32025e-21)
(5.54806 -26.6848 2.16639e-20)
(4.72998 -26.4779 -3.29947e-20)
(3.94602 -26.3859 3.99174e-20)
(3.31775 -26.2193 2.18865e-21)
(2.81849 -26.1015 -2.38544e-20)
(2.35152 -25.8651 0)
(2.00862 -25.7028 0)
(1.64964 -25.5067 -1.47401e-20)
(1.38985 -25.4108 0)
(1.14953 -25.2983 0)
(0.938486 -25.215 0)
(0.778108 -25.1295 0)
(0.595059 -25.088 0)
(0.516634 -24.9657 0)
(0.319913 -24.4106 6.91939e-21)
(0.351003 -21.48 -8.16329e-21)
(0.101308 -15.0714 2.06748e-21)
(0.167231 -6.26341 -1.97343e-21)
(8.12341 -26.8297 -1.32734e-20)
(6.88324 -26.1012 9.84988e-21)
(5.79135 -26.3694 8.99056e-21)
(4.94039 -26.22 1.24204e-20)
(4.15259 -26.1903 -8.10566e-21)
(3.48311 -26.06 -3.46685e-20)
(2.97027 -25.972 -1.31809e-20)
(2.4724 -25.7498 0)
(2.11733 -25.6037 1.47436e-20)
(1.74088 -25.4203 -2.95462e-20)
(1.47006 -25.34 -1.53757e-20)
(1.21666 -25.2356 -1.57625e-20)
(0.994156 -25.1637 0)
(0.823496 -25.0862 -1.62192e-20)
(0.630115 -25.0538 -1.63071e-20)
(0.546311 -24.934 0)
(0.330986 -24.4147 0)