/*--------------------------------*- C++ -*----------------------------------*\
  =========                 |
  \\      /  F ield         | OpenFOAM: The Open Source CFD Toolbox
   \\    /   O peration     | Website:  https://openfoam.org
    \\  /    A nd           | Version:  9
     \\/     M anipulation  |
\*---------------------------------------------------------------------------*/
FoamFile
{
    format      ascii;
    class       volVectorField;
    location    "0.4";
    object      U;
}
// * * * * * * * * * * * * * * * * * * * * * * * * * * * * * * * * * * * * * //

dimensions      [0 1 -1 0 0 0 0];

internalField   nonuniform List<vector> 
46400
(
(8.25728 -8.08479 -3.51157e-19)
(16.9308 -16.1731 3.16929e-19)
(18.2365 -18.2664 -6.1987e-20)
(17.6144 -18.3531 -2.00958e-20)
(17.0484 -18.3628 -4.72068e-20)
(16.4316 -18.3932 -1.82863e-19)
(15.8975 -18.4042 7.36265e-20)
(15.3816 -18.4427 8.74591e-21)
(14.8873 -18.4664 -1.6044e-20)
(14.412 -18.4737 2.24891e-20)
(14 -18.5542 -2.81452e-20)
(13.5949 -18.5855 0)
(13.1988 -18.6464 1.9908e-19)
(12.8262 -18.6681 -2.32909e-19)
(12.4903 -18.751 -3.46427e-19)
(12.1641 -18.7945 -8.05815e-20)
(11.8034 -18.809 -3.20144e-20)
(11.4937 -18.7791 2.97859e-19)
(11.1788 -18.7427 4.45081e-19)
(10.7407 -18.9237 -4.09883e-19)
(8.56236 -7.64295 0)
(17.0492 -15.1878 -3.12637e-20)
(18.1365 -16.8742 0)
(17.4527 -17.0007 -7.43084e-20)
(16.9183 -17.0733 4.11884e-20)
(16.332 -17.1864 -9.07376e-21)
(15.7586 -17.209 0)
(15.2337 -17.2828 -8.74554e-21)
(14.7606 -17.3814 1.60436e-20)
(14.3087 -17.4622 -2.24876e-20)
(13.8483 -17.5281 3.65661e-19)
(13.4215 -17.5816 3.8932e-20)
(13.0345 -17.6732 -3.27604e-19)
(12.6821 -17.7696 0)
(12.3247 -17.8353 4.48898e-20)
(12.015 -17.9245 4.799e-20)
(11.7104 -18.022 0)
(11.4156 -18.0154 -5.14341e-19)
(11.1474 -18.0602 -1.3711e-19)
(10.7865 -18.2538 5.24292e-19)
(8.79439 -7.18849 -6.52719e-20)
(17.0601 -14.158 -2.3405e-20)
(17.9444 -15.5539 -7.69017e-21)
(17.2522 -15.7378 8.49833e-20)
(16.695 -15.8419 -8.3434e-20)
(16.1073 -15.975 0)
(15.5688 -16.0762 -4.17165e-19)
(15.049 -16.1682 3.5561e-19)
(14.5523 -16.2724 -5.15473e-19)
(14.086 -16.3491 5.12052e-19)
(13.6815 -16.4994 5.14352e-19)
(13.2825 -16.5982 -4.24976e-20)
(12.8723 -16.6929 -4.52607e-19)
(12.5162 -16.7886 0)
(12.1944 -16.9409 5.94351e-19)
(11.8635 -17.0157 -5.85342e-19)
(11.5531 -17.1462 0)
(11.274 -17.1982 -1.59033e-20)
(10.9668 -17.2542 6.90724e-20)
(10.5982 -17.5093 -6.5907e-19)
(8.93842 -6.72852 -6.97816e-20)
(16.9624 -13.0979 7.52138e-21)
(17.5983 -14.2241 1.71895e-19)
(16.8792 -14.4273 -1.6985e-19)
(16.3568 -14.5966 -1.69493e-19)
(15.8084 -14.8085 2.35964e-19)
(15.2419 -14.9305 3.43826e-19)
(14.7271 -15.0649 -8.9751e-19)
(14.2656 -15.2447 7.59678e-19)
(13.8161 -15.3734 -6.98355e-20)
(13.3552 -15.4976 0)
(12.9504 -15.6217 7.61116e-20)
(12.5784 -15.7869 -7.84848e-20)
(12.2098 -15.9065 0)
(11.8725 -16.0525 7.37824e-19)
(11.5847 -16.2172 -6.25879e-19)
(11.2884 -16.3701 0)
(11.0385 -16.4976 8.50116e-20)
(10.7649 -16.5938 9.94563e-20)
(10.3725 -16.8429 7.86303e-19)
(9.07107 -6.2371 0)
(16.7095 -11.8942 0)
(17.2213 -12.9468 -2.99494e-19)
(16.5181 -13.1904 2.01556e-19)
(15.9385 -13.3726 -4.27933e-19)
(15.3927 -13.5965 3.50798e-19)
(14.8748 -13.8177 0)
(14.3578 -13.964 4.07614e-19)
(13.866 -14.1514 -4.91048e-19)
(13.4287 -14.3095 -1.16098e-19)
(13.0318 -14.5155 -1.17302e-19)
(12.6298 -14.6542 0)
(12.2254 -14.7935 8.79576e-19)
(11.8868 -14.9529 -8.65817e-19)
(11.5561 -15.1334 0)
(11.229 -15.2606 -9.83291e-19)
(10.9378 -15.4611 8.69375e-19)
(10.6791 -15.599 8.76637e-19)
(10.4371 -15.7895 -9.56404e-19)
(10.0671 -16.072 0)
(9.28882 -5.72909 0)
(16.3252 -10.6825 0)
(16.6723 -11.6082 0)
(15.9518 -11.8929 -3.10181e-20)
(15.4193 -12.1701 0)
(14.9004 -12.4555 0)
(14.3639 -12.7071 0)
(13.8815 -12.9223 -1.37e-19)
(13.4324 -13.1789 0)
(13.002 -13.3792 1.16093e-19)
(12.5694 -13.5845 -2.13398e-20)
(12.2061 -13.7895 -1.17207e-18)
(11.8473 -14.0061 8.79511e-19)
(11.4615 -14.1233 -1.16462e-18)
(11.1555 -14.3426 8.75826e-19)
(10.8675 -14.5225 0)
(10.5586 -14.6921 -1.00658e-18)
(10.3118 -14.8581 8.59497e-19)
(10.0689 -15.0463 0)
(9.74605 -15.386 -1.37303e-19)
(9.53142 -5.31461 4.7578e-19)
(15.7904 -9.47543 1.44484e-19)
(16.015 -10.3527 5.56418e-19)
(15.3473 -10.6868 -5.79406e-19)
(14.7469 -10.9836 -5.87327e-19)
(14.2521 -11.2824 1.17241e-18)
(13.7733 -11.6317 -1.34647e-18)
(13.2866 -11.8599 1.23978e-19)
(12.8088 -12.1268 4.32275e-19)
(12.4093 -12.3722 0)
(12.0258 -12.6485 -2.0588e-20)
(11.6321 -12.8426 -1.96118e-20)
(11.2938 -13.1055 1.37796e-19)
(10.9678 -13.3075 1.15515e-18)
(10.6134 -13.483 -1.01898e-18)
(10.3386 -13.696 -1.2984e-18)
(10.0587 -13.9115 1.13022e-18)
(9.78127 -14.0525 -1.49745e-20)
(9.54842 -14.2435 -1.44555e-19)
(9.22683 -14.5825 -1.0351e-18)
(9.81468 -4.86286 -1.66432e-19)
(15.1597 -8.39761 3.3319e-20)
(15.173 -9.10967 -1.82939e-19)
(14.5631 -9.49532 -7.21105e-19)
(14.0584 -9.90656 4.93985e-19)
(13.5766 -10.2303 0)
(13.0899 -10.5824 1.0434e-18)
(12.6807 -10.8921 -5.01784e-19)
(12.2578 -11.2091 3.43304e-19)
(11.8478 -11.4516 1.80707e-19)
(11.4773 -11.7475 -3.40828e-19)
(11.1328 -11.9832 8.2578e-19)
(10.8011 -12.2643 1.74136e-19)
(10.4889 -12.4966 -9.82579e-19)
(10.1895 -12.7547 2.74892e-18)
(9.88522 -12.9395 -1.12024e-18)
(9.63316 -13.2028 1.41693e-18)
(9.39504 -13.3958 -9.26446e-19)
(9.14348 -13.5779 3.03446e-19)
(8.85597 -13.9234 1.46622e-18)
(9.99589 -4.49219 8.51508e-19)
(14.3226 -7.29727 -1.79415e-19)
(14.2204 -8.02281 -2.92578e-20)
(13.7046 -8.43293 3.97057e-19)
(13.1395 -8.86054 1.85547e-19)
(12.7363 -9.23329 2.09714e-19)
(12.3013 -9.65204 -9.75618e-19)
(11.8722 -9.95151 5.93137e-19)
(11.469 -10.3152 -1.82476e-19)
(11.106 -10.6097 -1.80702e-19)
(10.7621 -10.9507 -1.78713e-19)
(10.3956 -11.1807 -1.94126e-19)
(10.0704 -11.4532 -3.65078e-19)
(9.78546 -11.7052 1.26639e-18)
(9.4915 -11.9537 -1.76931e-18)
(9.23803 -12.2004 -1.80973e-19)
(8.9603 -12.4194 1.38713e-20)
(8.74712 -12.6538 -1.32795e-18)
(8.52549 -12.8624 9.9182e-19)
(8.25392 -13.1864 -1.57708e-18)
(10.0184 -4.16618 7.91238e-19)
(13.4213 -6.29945 -2.03638e-18)
(13.1488 -6.98861 1.34873e-18)
(12.7408 -7.43686 -2.12167e-19)
(12.3057 -7.9556 -2.34767e-19)
(11.8778 -8.33344 9.10413e-19)
(11.4716 -8.76204 -1.10152e-18)
(11.1162 -9.12411 0)
(10.7385 -9.49273 8.52239e-19)
(10.3607 -9.77617 -8.38018e-19)
(10.0748 -10.1596 -6.10144e-19)
(9.81421 -10.4982 7.9489e-19)
(9.49851 -10.7997 1.90914e-19)
(9.21875 -11.0689 -7.80345e-19)
(8.94413 -11.3453 1.87236e-19)
(8.68318 -11.5836 9.34798e-19)
(8.4521 -11.8549 -1.6493e-18)
(8.22273 -12.0636 1.08886e-18)
(8.02479 -12.3084 -1.17538e-20)
(7.78641 -12.6323 -1.51344e-18)
(9.76736 -3.72208 1.12739e-18)
(12.3823 -5.40491 -7.59764e-19)
(12.109 -6.09064 5.08139e-19)
(11.7129 -6.54313 7.38412e-21)
(11.2403 -7.0344 -1.00241e-18)
(10.9384 -7.48787 -9.51052e-19)
(10.574 -7.9589 1.18342e-18)
(10.2196 -8.31223 -6.9584e-19)
(9.91818 -8.75471 9.23894e-19)
(9.56781 -9.04373 0)
(9.19942 -9.36168 1.57995e-20)
(8.91784 -9.66707 2.10415e-19)
(8.67408 -10.0261 2.20765e-19)
(8.43386 -10.3275 -2.16095e-19)
(8.18874 -10.6333 0)
(7.95993 -10.9091 2.06892e-19)
(7.71764 -11.1754 0)
(7.52526 -11.4363 3.84657e-19)
(7.31323 -11.6708 1.87526e-18)
(7.11497 -12.0266 -1.3924e-20)
(9.31648 -3.24305 6.2802e-19)
(11.2988 -4.56636 -1.31843e-19)
(10.9367 -5.22757 -1.93087e-18)
(10.6737 -5.73726 1.08033e-18)
(10.2874 -6.29517 2.56378e-19)
(9.89882 -6.70224 -2.52441e-19)
(9.61302 -7.22978 -1.03005e-18)
(9.2902 -7.6289 7.68373e-19)
(9.00951 -8.09095 0)
(8.75551 -8.49212 0)
(8.48317 -8.86312 -1.17905e-18)
(8.20471 -9.18619 9.3361e-19)
(7.91708 -9.49024 -2.20783e-19)
(7.70353 -9.8183 -6.71778e-19)
(7.47454 -10.1188 6.21959e-21)
(7.27171 -10.4134 1.49629e-18)
(7.06478 -10.6895 -8.35709e-19)
(6.87287 -10.9445 6.12492e-19)
(6.68632 -11.1896 -9.92233e-19)
(6.4722 -11.4977 0)
(8.68358 -2.73258 -5.49327e-19)
(10.2136 -3.81536 8.86664e-19)
(9.85228 -4.5079 1.51887e-19)
(9.53367 -4.99609 1.49256e-19)
(9.1771 -5.55904 0)
(8.9063 -6.04511 1.11581e-18)
(8.59323 -6.54583 -1.09631e-18)
(8.30106 -6.94495 1.37732e-19)
(8.02507 -7.38333 0)
(7.7966 -7.78579 1.02439e-18)
(7.53046 -8.18667 -8.78922e-19)
(7.3318 -8.54923 9.78648e-19)
(7.09939 -8.91937 -9.63125e-19)
(6.87667 -9.21566 9.34007e-19)
(6.68413 -9.57141 -8.02573e-19)
(6.49857 -9.86163 -8.90847e-19)
(6.30514 -10.1835 1.74763e-18)
(6.14405 -10.4477 -7.48345e-19)
(5.97847 -10.739 1.06312e-19)
(5.79549 -11.0519 8.90685e-19)
(7.87011 -2.23821 -4.42578e-19)
(8.89264 -3.1312 4.7757e-19)
(8.48562 -3.80691 -1.51894e-19)
(8.35248 -4.38097 -1.49258e-19)
(8.01751 -4.94813 0)
(7.69166 -5.38621 0)
(7.55194 -5.99708 0)
(7.31303 -6.4551 -2.81924e-19)
(7.05901 -6.91969 -1.1016e-18)
(6.84553 -7.33229 2.15895e-18)
(6.65296 -7.77535 -1.18679e-18)
(6.42066 -8.11923 -1.3111e-19)
(6.23693 -8.5125 0)
(6.04779 -8.83485 0)
(5.84231 -9.15935 -2.3878e-19)
(5.69192 -9.46633 0)
(5.52429 -9.77774 9.06299e-19)
(5.36633 -10.0401 -1.11482e-18)
(5.23223 -10.3285 -9.68297e-19)
(5.07746 -10.6351 9.38158e-19)
(6.95075 -1.76117 4.59861e-19)
(7.85845 -2.53985 8.33087e-19)
(7.45043 -3.23169 1.24188e-22)
(7.23029 -3.79274 -1.15161e-21)
(7.05482 -4.44244 1.5868e-19)
(6.71081 -4.84779 -4.59928e-19)
(6.39606 -5.32991 0)
(6.25431 -5.81296 -4.42251e-19)
(6.05507 -6.30586 1.50042e-19)
(5.84613 -6.7145 5.63084e-19)
(5.6825 -7.17939 5.45306e-19)
(5.54656 -7.59201 -4.05412e-19)
(5.35329 -7.99009 1.0375e-18)
(5.23062 -8.36567 -8.92336e-19)
(5.0671 -8.73715 1.1082e-18)
(4.91271 -9.04638 -2.05586e-18)
(4.7781 -9.4024 9.47422e-19)
(4.64326 -9.67842 1.12993e-19)
(4.50633 -9.98566 8.90822e-19)
(4.38029 -10.305 -9.70556e-19)
(5.83553 -1.33347 1.61721e-19)
(6.25367 -2.0893 -1.70192e-19)
(5.80051 -2.7406 6.84098e-19)
(5.69952 -3.36387 -6.71349e-19)
(5.64681 -4.10876 -3.26477e-19)
(5.5041 -4.67489 -7.95044e-19)
(5.32435 -5.21818 4.32982e-21)
(5.07541 -5.64469 6.11976e-19)
(4.94358 -6.13593 -1.4618e-19)
(4.77107 -6.55006 0)
(4.59435 -6.95618 0)
(4.46215 -7.34796 0)
(4.3443 -7.75033 0)
(4.19967 -8.0894 3.52513e-21)
(4.10331 -8.47478 0)
(3.98019 -8.78473 1.22587e-19)
(3.8637 -9.12874 4.82214e-19)
(3.76517 -9.41595 -1.41549e-18)
(3.65482 -9.71897 1.04322e-18)
(3.54389 -10.0328 -9.86215e-19)
(4.71627 -1.02059 0)
(5.26758 -1.79755 -9.0588e-20)
(4.95295 -2.41054 0)
(4.54862 -2.86955 2.56039e-19)
(4.45182 -3.49626 -1.70784e-19)
(4.35565 -4.07402 -6.54634e-19)
(4.23757 -4.65259 4.29546e-21)
(4.16106 -5.17681 6.27901e-19)
(3.97268 -5.65943 -6.076e-19)
(3.88398 -6.12558 1.18971e-18)
(3.7553 -6.5769 -5.40513e-21)
(3.61476 -6.96827 -5.67822e-19)
(3.51142 -7.38643 5.47845e-19)
(3.40642 -7.75297 -6.71778e-19)
(3.29625 -8.12746 0)
(3.21303 -8.46856 -5.06598e-19)
(3.11175 -8.81675 4.99043e-19)
(3.02155 -9.11343 0)
(2.93863 -9.42688 -1.16578e-19)
(2.84058 -9.74094 0)
(2.93675 -0.578624 9.33192e-20)
(3.45762 -1.54413 9.07825e-20)
(3.33777 -2.29564 0)
(3.23516 -2.81017 3.49874e-19)
(3.05603 -3.39119 -4.31678e-19)
(2.98028 -3.90037 2.50036e-19)
(2.90147 -4.4788 -7.37044e-19)
(2.80289 -4.97343 3.20433e-19)
(2.76943 -5.51546 -7.82584e-20)
(2.6534 -5.94655 0)
(2.59671 -6.43789 -7.42661e-20)
(2.52246 -6.83246 -7.23308e-20)
(2.44138 -7.26266 -7.04433e-20)
(2.37284 -7.62342 0)
(2.31346 -8.01861 -5.28152e-19)
(2.23983 -8.3433 1.09959e-18)
(2.19337 -8.71359 -9.44384e-19)
(2.12517 -9.00552 4.93686e-19)
(2.07428 -9.32921 6.01879e-20)
(2.01356 -9.63948 5.12403e-19)
(1.93845 -0.455149 -1.41566e-19)
(2.09685 -1.07151 -1.86124e-19)
(2.44354 -1.89523 6.41281e-22)
(2.28031 -2.45017 4.90056e-19)
(2.17119 -3.11406 -1.31849e-19)
(2.01099 -3.59032 -8.49309e-20)
(1.90039 -4.19229 8.36427e-20)
(1.825 -4.64581 1.62309e-19)
(1.75788 -5.20383 7.82592e-20)
(1.70397 -5.63642 -3.05497e-19)
(1.65536 -6.13376 3.3727e-19)
(1.58867 -6.5368 7.23269e-20)
(1.55658 -6.98911 3.52521e-19)
(1.48757 -7.35781 -3.00543e-21)
(1.4529 -7.76762 3.07203e-20)
(1.39799 -8.10982 -5.88917e-19)
(1.35885 -8.48421 1.61221e-19)
(1.31614 -8.80027 0)
(1.27697 -9.12694 -2.98289e-20)
(1.23288 -9.46244 -2.59133e-19)
(0.190631 -0.643288 0)
(0.63493 -0.782441 -9.29764e-20)
(0.447923 -1.8621 1.36147e-19)
(0.642683 -2.26789 -4.52257e-20)
(0.557277 -3.13594 -4.43152e-20)
(0.605269 -3.57104 0)
(0.536066 -4.28378 -8.31456e-20)
(0.531238 -4.67905 1.62713e-19)
(0.496908 -5.2933 -7.96239e-20)
(0.510558 -5.66587 7.6808e-20)
(0.471565 -6.21595 -3.80665e-20)
(0.490568 -6.56173 -7.28043e-20)
(0.4462 -7.05582 1.42528e-19)
(0.462622 -7.37487 -1.38781e-19)
(0.429163 -7.81853 3.42436e-20)
(0.43133 -8.11174 2.33754e-34)
(0.410573 -8.5135 -3.17631e-20)
(0.399748 -8.78004 1.87001e-19)
(0.388553 -9.12351 -9.22811e-20)
(0.37234 -9.4139 -6.59701e-20)
(0.165482 1.17539 5.59044e-20)
(0.431437 -2.02574 3.70931e-20)
(2.20488 -9.83029 0)
(4.94412 -20.5344 3.64056e-20)
(6.54764 -27.1872 3.55208e-20)
(7.19439 -29.8359 3.42081e-20)
(7.33313 -30.5609 0)
(7.33756 -30.611 2.97341e-20)
(7.30647 -30.5637 0)
(7.22953 -30.3889 0)
(7.16386 -30.2898 -2.80348e-20)
(7.08723 -30.1029 1.25817e-21)
(7.0048 -29.9943 5.33084e-20)
(6.96332 -29.9175 0)
(6.85067 -29.8298 2.41285e-20)
(6.80888 -29.6415 2.31879e-20)
(6.66728 -29.5589 2.23128e-20)
(6.64689 -29.4384 0)
(6.50795 -29.3665 -4.07027e-20)
(6.44514 -29.1128 3.8292e-20)
(0.39313 0.369202 1.18846e-19)
(0.750324 -3.90864 -1.90544e-19)
(3.42468 -14.1049 0)
(6.00979 -23.9236 -1.81777e-19)
(7.27786 -28.7893 1.77221e-19)
(7.65024 -30.3436 -3.08667e-19)
(7.73284 -30.596 1.26197e-19)
(7.7186 -30.5743 8.31524e-20)
(7.66397 -30.4249 -4.0096e-19)
(7.57824 -30.2471 2.37478e-19)
(7.5047 -30.0598 -2.83076e-20)
(7.44212 -29.9489 2.13196e-19)
(7.36794 -29.8586 -5.1745e-21)
(7.30756 -29.7163 -2.01378e-19)
(7.19599 -29.5876 -2.41285e-20)
(7.16249 -29.4506 -2.31884e-20)
(7.01271 -29.3333 -2.23118e-20)
(7.0002 -29.1758 0)
(6.83356 -29.0803 -1.60293e-19)
(6.80237 -28.8426 3.60818e-21)
(0.300041 -0.660855 -8.06512e-20)
(1.38766 -6.243 0)
(4.7119 -18.1436 0)
(7.02327 -26.4765 -7.4446e-20)
(7.90809 -29.8002 7.13902e-20)
(8.16336 -30.5791 0)
(8.14847 -30.5843 -5.93639e-20)
(8.11162 -30.4617 1.76424e-19)
(8.01386 -30.2168 -1.84571e-19)
(7.94746 -30.0405 2.2882e-19)
(7.88926 -29.9499 -2.8018e-19)
(7.80592 -29.7751 0)
(7.72226 -29.6282 -2.00788e-19)
(7.66035 -29.5191 -1.87116e-19)
(7.5589 -29.4156 3.3257e-19)
(7.4986 -29.2084 -3.53523e-19)
(7.35824 -29.1012 3.05851e-19)
(7.34389 -28.9698 0)
(7.1753 -28.8556 -3.48844e-19)
(7.14577 -28.606 5.85904e-19)
(0.236475 -1.66223 4.04185e-19)
(2.26827 -9.34872 0)
(5.85907 -21.1672 1.56407e-19)
(7.85284 -28.1045 2.19984e-19)
(8.50714 -30.2915 -4.40551e-19)
(8.59685 -30.5674 1.32616e-19)
(8.59185 -30.4944 6.19301e-20)
(8.51135 -30.2615 6.72741e-19)
(8.45437 -30.0829 -9.62831e-19)
(8.38145 -29.9354 -1.00273e-19)
(8.29699 -29.7147 4.99989e-19)
(8.21507 -29.559 1.03661e-19)
(8.14588 -29.4671 -4.92737e-19)
(8.06797 -29.3211 4.81965e-19)
(7.95077 -29.1431 1.36314e-19)
(7.8934 -28.9873 -8.60775e-20)
(7.74728 -28.8833 1.24742e-19)
(7.72992 -28.7111 0)
(7.52618 -28.561 -3.63083e-20)
(7.5152 -28.3241 0)
(0.35527 -2.63071 0)
(3.25458 -12.1461 6.43702e-19)
(6.91115 -23.6363 -7.944e-19)
(8.72043 -29.2755 7.56094e-19)
(9.08654 -30.5188 -5.98889e-19)
(9.1502 -30.58 -1.33631e-19)
(9.08174 -30.376 0)
(8.99608 -30.1296 3.67912e-19)
(8.90292 -29.9037 -4.85346e-19)
(8.80749 -29.6699 5.6035e-19)
(8.73239 -29.5483 -4.38919e-19)
(8.63931 -29.3857 -1.03651e-19)
(8.54158 -29.2134 4.84109e-19)
(8.44829 -29.0616 -8.40776e-19)
(8.34363 -28.935 5.34046e-19)
(8.25677 -28.7309 -1.75355e-19)
(8.11418 -28.6063 -4.01742e-19)
(8.08026 -28.4458 9.24369e-19)
(7.87856 -28.3051 -5.25716e-19)
(7.86669 -28.0669 -6.13237e-19)
(0.624137 -3.61612 6.81507e-19)
(4.36646 -14.7353 6.62508e-19)
(8.03656 -25.5126 -6.57546e-19)
(9.47353 -29.8801 -1.56817e-19)
(9.73223 -30.5489 1.42759e-19)
(9.70031 -30.4482 5.24644e-19)
(9.59393 -30.1374 -5.3217e-19)
(9.50028 -29.8936 0)
(9.40864 -29.6743 4.63585e-19)
(9.31335 -29.517 -4.55809e-19)
(9.20436 -29.2856 -4.16618e-19)
(9.08727 -29.0909 4.0989e-19)
(8.99857 -28.9776 0)
(8.89297 -28.8279 0)
(8.76235 -28.6287 7.66994e-19)
(8.66854 -28.4615 -7.52519e-19)
(8.52214 -28.3491 -6.16278e-19)
(8.47217 -28.1619 6.07078e-19)
(8.2465 -27.994 -5.6067e-19)
(8.22453 -27.7405 6.76558e-19)
(1.03967 -4.52766 -5.182e-19)
(5.53254 -16.6175 1.84697e-19)
(9.13869 -26.7773 2.50929e-20)
(10.3506 -30.1917 8.01684e-19)
(10.4255 -30.455 0)
(10.3552 -30.2455 0)
(10.2002 -29.9315 1.02504e-18)
(10.0859 -29.6794 -4.1613e-20)
(9.9496 -29.4368 -9.49244e-19)
(9.80656 -29.1644 8.60068e-19)
(9.691 -29.0093 -8.45968e-19)
(9.57115 -28.8501 0)
(9.4425 -28.6661 7.2855e-19)
(9.3112 -28.4913 -7.17094e-19)
(9.18285 -28.3483 0)
(9.06054 -28.1517 0)
(8.90306 -28.0165 0)
(8.82966 -27.834 0)
(8.59477 -27.6721 0)
(8.56557 -27.4115 -6.566e-20)
(1.79895 -5.83999 0)
(6.68377 -18.1901 -6.74056e-19)
(10.294 -27.6923 0)
(11.1394 -30.1868 0)
(11.1352 -30.2108 1.24487e-18)
(10.9753 -29.9129 8.10513e-20)
(10.7952 -29.5795 -1.18464e-18)
(10.6362 -29.314 0)
(10.4867 -29.0673 1.11889e-19)
(10.3427 -28.9015 -1.05051e-19)
(10.1921 -28.6747 0)
(10.0266 -28.4614 9.29412e-20)
(9.89941 -28.3301 -7.89496e-19)
(9.75399 -28.1768 1.43677e-18)
(9.59822 -27.9755 -2.56445e-20)
(9.45861 -27.807 -6.17867e-19)
(9.29871 -27.6824 -6.97945e-20)
(9.20004 -27.4862 6.60044e-20)
(8.94789 -27.3066 0)
(8.8912 -27.0287 5.91819e-20)
(2.22944 -6.4414 8.00443e-20)
(7.73088 -19.277 2.61845e-19)
(11.341 -28.0762 -1.02916e-18)
(12.0012 -29.956 3.03328e-19)
(11.8821 -29.8614 1.37261e-19)
(11.6744 -29.5028 1.17692e-18)
(11.4641 -29.2106 -1.64225e-18)
(11.28 -28.9507 1.19708e-18)
(11.0817 -28.7075 -9.72336e-19)
(10.877 -28.4245 1.15309e-18)
(10.7051 -28.255 1.89156e-19)
(10.5406 -28.1015 7.96479e-19)
(10.3659 -27.9204 -4.46525e-19)
(10.1914 -27.7483 -8.70339e-19)
(10.0247 -27.6034 7.6876e-19)
(9.85854 -27.4187 0)
(9.67598 -27.2821 2.00776e-19)
(9.55246 -27.0915 5.74888e-20)
(9.27602 -26.9096 -1.17092e-19)
(9.2033 -26.6195 5.12156e-20)
(2.77649 -7.54405 -6.78346e-19)
(8.90663 -20.2566 6.56082e-19)
(12.3956 -28.2929 -7.43038e-21)
(12.7963 -29.5963 -6.01601e-19)
(12.5808 -29.3672 -5.57296e-19)
(12.3164 -29.0222 -2.66043e-19)
(12.0595 -28.6988 -9.52664e-21)
(11.8224 -28.4291 -2.31081e-19)
(11.6026 -28.18 0)
(11.3972 -28.0174 -2.01919e-19)
(11.193 -27.8039 -1.8913e-19)
(10.9723 -27.5947 -1.00872e-20)
(10.7944 -27.4612 6.22418e-19)
(10.6007 -27.3112 -3.19508e-19)
(10.4047 -27.1276 -7.05081e-19)
(10.2119 -26.9717 5.49285e-19)
(10.0236 -26.8395 3.63125e-19)
(9.85731 -26.6487 -6.10205e-19)
(9.56765 -26.4714 1.17087e-19)
(9.46626 -26.1682 7.27536e-19)
(3.34326 -8.00219 -1.67045e-18)
(9.92029 -20.7963 1.68976e-18)
(13.3293 -28.0577 -1.86963e-18)
(13.596 -29.0068 1.50886e-18)
(13.3034 -28.7601 1.32388e-18)
(13.0196 -28.4184 -1.0381e-18)
(12.7218 -28.1424 -1.36931e-18)
(12.4637 -27.8946 4.97497e-20)
(12.198 -27.6684 8.25346e-19)
(11.9232 -27.3981 -5.45742e-19)
(11.69 -27.2373 1.38994e-18)
(11.4703 -27.0975 -8.32429e-19)
(11.242 -26.9294 -1.56453e-19)
(11.0196 -26.7744 4.03762e-19)
(10.8046 -26.6368 -1.05653e-18)
(10.5874 -26.4672 5.06955e-19)
(10.3693 -26.3348 0)
(10.1763 -26.1498 -8.48172e-19)
(9.85371 -25.9474 8.34562e-19)
(9.73941 -25.6281 -6.64055e-19)
(3.9558 -8.56282 3.2648e-19)
(11.0494 -21.1413 3.62952e-19)
(14.2696 -27.7684 1.57013e-18)
(14.3544 -28.3751 1.35799e-18)
(13.9693 -28.0662 -8.16181e-19)
(13.6289 -27.7511 1.1532e-18)
(13.2824 -27.4533 -6.80774e-19)
(12.9639 -27.2048 7.86843e-19)
(12.6742 -26.975 -1.50152e-18)
(12.4044 -26.8306 5.35859e-19)
(12.1396 -26.6372 0)
(11.865 -26.4545 0)
(11.6342 -26.3388 0)
(11.3925 -26.2035 -1.0048e-18)
(11.1533 -26.0516 9.8926e-19)
(10.9151 -25.9143 0)
(10.6919 -25.7861 0)
(10.4724 -25.6152 -9.13104e-20)
(10.1598 -25.4401 0)
(10.0429 -25.1248 -7.65636e-19)
(4.54346 -8.87438 -6.26142e-19)
(12.0159 -21.1917 -1.55706e-18)
(15.0512 -27.0842 -1.10972e-18)
(15.0399 -27.51 -1.96753e-19)
(14.6052 -27.2499 1.45668e-18)
(14.2451 -26.9565 -2.91409e-19)
(13.8667 -26.7185 -5.54329e-20)
(13.5312 -26.5052 -9.53521e-19)
(13.2022 -26.3142 0)
(12.8592 -26.0753 -4.64609e-19)
(12.5683 -25.9415 7.43352e-19)
(12.2929 -25.8239 0)
(12.013 -25.6819 9.6882e-19)
(11.7457 -25.5579 -9.5362e-19)
(11.484 -25.4432 8.299e-19)
(11.2223 -25.3032 -1.49436e-18)
(10.9733 -25.197 7.57611e-19)
(10.7303 -25.0434 9.13035e-20)
(10.3927 -24.8564 -7.27278e-20)
(10.2564 -24.5529 5.82009e-19)
(5.12115 -9.11267 -8.42426e-19)
(12.9746 -21.068 5.31077e-20)
(15.8173 -26.4426 7.75613e-20)
(15.6948 -26.6495 1.9675e-18)
(15.1893 -26.369 1.65264e-19)
(14.7773 -26.1098 -1.03875e-18)
(14.3589 -25.8588 -7.17002e-19)
(13.9636 -25.6533 2.27671e-19)
(13.6106 -25.4615 7.9021e-19)
(13.2819 -25.3537 -8.32894e-19)
(12.9547 -25.1865 4.02089e-19)
(12.6316 -25.0488 -1.0351e-18)
(12.3508 -24.968 8.08157e-19)
(12.0642 -24.8547 -7.79305e-19)
(11.7834 -24.7465 6.82514e-19)
(11.5041 -24.6389 5.668e-19)
(11.2441 -24.541 -6.49007e-19)
(10.9852 -24.4242 4.94177e-19)
(10.6633 -24.2854 -4.75075e-19)
(10.5227 -23.9841 -5.39348e-19)
(5.68089 -9.20112 -1.05197e-18)
(13.8073 -20.7332 -1.97294e-19)
(16.441 -25.4429 1.0204e-18)
(16.2278 -25.6021 -8.56384e-19)
(15.7047 -25.3899 8.40943e-19)
(15.2532 -25.1541 1.93075e-19)
(14.8139 -24.9687 0)
(14.4071 -24.8102 -1.39467e-19)
(14.0208 -24.6657 3.78609e-19)
(13.6197 -24.4741 -1.3353e-18)
(13.2782 -24.3827 9.37038e-19)
(12.9511 -24.2885 2.03886e-19)
(12.6279 -24.1955 1.01347e-19)
(12.3235 -24.1187 0)
(12.0188 -24.0309 1.62492e-20)
(11.719 -23.9249 5.38263e-19)
(11.4417 -23.8614 -4.06016e-20)
(11.1635 -23.7748 7.92662e-20)
(10.8293 -23.6497 -4.37035e-19)
(10.6753 -23.3709 9.56672e-20)
(6.19946 -9.21504 9.50701e-19)
(14.5816 -20.2603 -1.63601e-18)
(17.0196 -24.5233 9.16282e-19)
(16.7319 -24.5319 7.5809e-19)
(16.1524 -24.3326 -6.41469e-20)
(15.6704 -24.1486 -5.20959e-19)
(15.1956 -23.9578 1.31448e-19)
(14.7369 -23.8132 1.39455e-19)
(14.331 -23.6797 0)
(13.9531 -23.6224 0)
(13.5689 -23.4931 -7.13861e-19)
(13.2029 -23.4062 1.17555e-18)
(12.8753 -23.3593 -6.29899e-19)
(12.5515 -23.2888 0)
(12.238 -23.2436 1.72534e-20)
(11.919 -23.1587 -4.54065e-19)
(11.6188 -23.0872 4.42385e-19)
(11.3334 -23.0512 -5.026e-20)
(11.019 -22.9897 -3.13589e-19)
(10.8564 -22.7195 2.19646e-19)
(6.6806 -9.12112 -8.41795e-19)
(15.2515 -19.6398 1.05664e-18)
(17.4315 -23.3468 0)
(17.0916 -23.3798 0)
(16.5126 -23.2349 1.37945e-19)
(15.976 -23.0745 -6.59953e-19)
(15.4955 -22.9491 2.47368e-20)
(15.0322 -22.8574 4.467e-19)
(14.5961 -22.7622 -7.11388e-19)
(14.1531 -22.635 1.32683e-18)
(13.7725 -22.6004 -6.17021e-19)
(13.4017 -22.5347 1.27442e-19)
(13.046 -22.5025 4.68682e-19)
(12.7102 -22.4682 -9.38576e-21)
(12.3736 -22.4236 -2.77797e-19)
(12.0518 -22.3739 4.51175e-20)
(11.7401 -22.3358 -2.73326e-19)
(11.4303 -22.3018 2.30333e-19)
(11.1226 -22.2843 1.59149e-20)
(10.9602 -22.052 1.62982e-19)
(7.11551 -8.96933 0)
(15.8608 -18.8985 4.85766e-19)
(17.8028 -22.1804 -5.37942e-19)
(17.3899 -22.1505 0)
(16.7969 -22.0396 -1.37937e-19)
(16.2471 -21.9463 4.08725e-19)
(15.7274 -21.8207 -5.08453e-19)
(15.225 -21.7487 0)
(14.7778 -21.6878 5.26789e-19)
(14.3608 -21.6798 -5.17997e-19)
(13.9319 -21.6089 4.00894e-20)
(13.53 -21.5751 -5.35665e-20)
(13.1595 -21.5614 -4.59462e-20)
(12.8111 -21.5541 -3.90838e-20)
(12.4715 -21.5734 -2.01119e-19)
(12.1201 -21.5185 2.93791e-19)
(11.7833 -21.4922 -2.19609e-19)
(11.4621 -21.509 1.55233e-19)
(11.1599 -21.5263 -4.79402e-20)
(10.9968 -21.3423 1.01348e-20)
(7.52488 -8.74366 0)
(16.3417 -18.0487 -5.4381e-19)
(18.0388 -20.9089 2.97398e-19)
(17.5551 -20.933 3.21826e-19)
(16.9735 -20.8598 -5.51835e-20)
(16.3749 -20.7899 -4.89984e-20)
(15.8625 -20.729 -2.94752e-19)
(15.3623 -20.7056 0)
(14.8873 -20.6656 0)
(14.4184 -20.6093 0)
(14.0111 -20.6325 -4.00893e-20)
(13.6099 -20.61 0)
(13.2281 -20.6356 -1.02238e-19)
(12.8596 -20.6261 9.64365e-20)
(12.5071 -20.6477 -1.30738e-20)
(12.1761 -20.6643 -9.9542e-21)
(11.8168 -20.6389 2.24858e-20)
(11.465 -20.6437 9.81353e-20)
(11.1627 -20.6875 -1.89722e-19)
(11.0053 -20.5378 1.14022e-19)
(7.90828 -8.42862 0)
(16.6899 -17.1378 0)
(18.1915 -19.5878 1.1271e-19)
(17.63 -19.6131 9.62374e-20)
(17.0636 -19.5902 0)
(16.4746 -19.5954 1.88107e-19)
(15.9198 -19.537 -1.84812e-19)
(15.3958 -19.5382 0)
(14.9238 -19.5528 1.38728e-19)
(14.4799 -19.5884 -1.36411e-19)
(14.024 -19.586 0)
(13.5955 -19.5937 2.93625e-20)
(13.1974 -19.623 4.96098e-20)
(12.8339 -19.6747 -7.30759e-20)
(12.4645 -19.7126 0)
(12.1 -19.7107 0)
(11.7326 -19.7475 0)
(11.3697 -19.7326 2.26491e-19)
(11.0145 -19.7109 -2.41348e-19)
(10.8054 -19.6455 0)
(5.81185 -28.5737 0)
(5.30263 -27.6585 0)
(4.47323 -27.4642 -2.76341e-21)
(3.97396 -26.9037 -2.45012e-21)
(3.48362 -26.6178 0)
(3.00414 -26.2279 9.28235e-23)
(2.71457 -25.8608 1.76262e-21)
(2.30834 -25.5592 0)
(2.12929 -25.3236 1.2713e-21)
(1.81393 -25.0787 0)
(1.69264 -24.8792 -1.04048e-21)
(1.47247 -24.7214 -4.6323e-22)
(1.38582 -24.5814 4.65708e-22)
(1.24457 -24.4529 7.97605e-22)
(1.15232 -24.3263 0)
(1.10522 -24.2405 -1.76075e-22)
(0.990045 -24.0896 8.67729e-22)
(1.04422 -23.9952 0)
(0.860882 -22.6797 0)
(0.628116 -15.7197 5.89051e-22)
(6.09581 -28.3478 1.70686e-20)
(5.57687 -27.4765 0)
(4.62465 -27.3349 1.29628e-20)
(4.13652 -26.8384 -7.79824e-21)
(3.6152 -26.4922 0)
(3.13358 -26.0811 -8.74174e-21)
(2.82027 -25.7349 3.37668e-21)
(2.39515 -25.4423 0)
(2.20298 -25.2255 1.0845e-21)
(1.87604 -24.9976 -2.36842e-21)
(1.7472 -24.8177 2.97433e-21)
(1.5192 -24.6697 -3.71967e-21)
(1.42681 -24.5407 2.60362e-21)
(1.27994 -24.4168 -8.55173e-22)
(1.18179 -24.3007 -7.69157e-22)
(1.1368 -24.2196 6.80848e-22)
(1.0166 -24.0782 -1.37476e-21)
(1.08517 -23.9796 -1.49808e-21)
(0.877351 -22.6219 -6.92022e-22)
(0.63959 -15.5156 -7.40167e-22)
(6.38088 -28.0797 -5.90285e-21)
(5.76568 -27.2231 -1.5066e-20)
(4.75457 -27.0589 -1.01332e-20)
(4.24324 -26.5892 0)
(3.69326 -26.3402 0)
(3.20175 -25.9902 9.96306e-21)
(2.88935 -25.659 -8.11824e-22)
(2.45851 -25.3814 -6.31219e-22)
(2.26309 -25.1792 -5.65435e-22)
(1.92725 -24.9513 -4.52377e-21)
(1.7924 -24.778 0)
(1.55814 -24.6345 0)
(1.45963 -24.5115 0)
(1.30957 -24.3895 -2.91992e-21)
(1.2066 -24.2815 0)
(1.16394 -24.2013 -2.57747e-21)
(1.0386 -24.07 2.59475e-21)
(1.11854 -23.9638 8.63619e-22)
(0.891799 -22.5638 1.37598e-21)
(0.654337 -15.3094 2.27754e-21)
(6.65978 -27.819 2.62012e-20)
(5.98036 -26.9739 -5.08447e-20)
(4.90294 -26.9234 1.12134e-21)
(4.44281 -26.5256 1.87896e-20)
(3.84731 -26.2179 0)
(3.3406 -25.8499 1.22585e-20)
(2.99973 -25.535 -2.86073e-20)
(2.54731 -25.2641 1.56085e-20)
(2.33635 -25.0787 -9.23715e-21)
(1.98853 -24.8679 3.87731e-21)
(1.84509 -24.714 -2.81483e-22)
(1.60262 -24.5804 -3.23791e-21)
(1.49808 -24.4688 3.25367e-21)
(1.34241 -24.3519 1.51568e-21)
(1.23338 -24.2553 1.41087e-21)
(1.19159 -24.1805 2.5759e-21)
(1.06264 -24.0603 -3.19882e-21)
(1.14892 -23.9477 1.05061e-21)
(0.903244 -22.5069 -5.244e-22)
(0.672879 -15.1019 -2.27449e-21)
(6.91486 -27.5155 6.22083e-20)
(6.17572 -26.7204 1.19939e-20)
(5.05798 -26.6407 -1.83539e-20)
(4.52804 -26.2745 2.6145e-20)
(3.91486 -26.0481 0)
(3.39918 -25.7509 -6.12305e-21)
(3.06124 -25.4518 5.5477e-21)
(2.60427 -25.1989 0)
(2.39129 -25.0294 2.33532e-22)
(2.03542 -24.8197 0)
(1.88655 -24.6721 -7.0456e-21)
(1.63832 -24.5433 0)
(1.52764 -24.438 0)
(1.36843 -24.3229 -5.31789e-21)
(1.25522 -24.2358 2.69116e-21)
(1.2144 -24.1626 -2.35106e-21)
(1.08046 -24.0534 0)
(1.17821 -23.9314 4.72915e-22)
(0.91057 -22.4521 -5.0179e-22)
(0.695536 -14.8938 0)
(7.18385 -27.2091 2.51556e-20)
(6.3353 -26.4215 -2.1883e-20)
(5.19831 -26.4828 4.22319e-20)
(4.7373 -26.2082 -4.24294e-20)
(4.08171 -25.9292 1.28866e-20)
(3.54392 -25.6172 6.14208e-21)
(3.17515 -25.33 -9.9466e-21)
(2.69433 -25.0814 -8.90496e-21)
(2.46385 -24.9267 4.19318e-21)
(2.09528 -24.7341 6.96935e-21)
(1.93693 -24.6056 -3.5666e-21)
(1.68095 -24.4868 0)
(1.56344 -24.393 0)
(1.39847 -24.2838 1.94754e-22)
(1.279 -24.2086 -2.55717e-21)
(1.23829 -24.1408 2.34886e-21)
(1.09895 -24.0456 0)
(1.20593 -23.9146 -3.46563e-21)
(0.913075 -22.4004 -3.63725e-21)
(0.72264 -14.6843 -2.73814e-22)
(7.41593 -26.8618 -7.12849e-20)
(6.5487 -26.164 6.82064e-20)
(5.39569 -26.2027 -1.75374e-20)
(4.81519 -25.9549 0)
(4.14641 -25.7445 -1.29411e-20)
(3.59528 -25.5057 2.09529e-20)
(3.23088 -25.239 -1.10479e-20)
(2.7463 -25.0107 8.93001e-21)
(2.51376 -24.8735 0)
(2.13863 -24.6834 0)
(1.97482 -24.5614 5.9667e-21)
(1.71366 -24.4479 -5.98812e-21)
(1.58992 -24.3602 0)
(1.42089 -24.2532 7.40194e-21)
(1.29742 -24.1876 -2.42113e-21)
(1.25612 -24.1226 -2.22828e-21)
(1.11087 -24.0405 2.2269e-21)
(1.23288 -23.8971 4.30862e-21)
(0.909822 -22.3518 2.41842e-21)
(0.754616 -14.4739 5.39131e-22)
(7.67782 -26.5192 0)
(6.67934 -25.8417 -3.63904e-20)
(5.54303 -26.0303 3.65038e-20)
(5.01448 -25.8682 0)
(4.31931 -25.6278 0)
(3.74079 -25.3762 -1.97466e-20)
(3.34386 -25.1195 1.98057e-20)
(2.83514 -24.8929 0)
(2.58467 -24.7689 6.82769e-21)
(2.19687 -24.5961 -1.30151e-20)
(2.02319 -24.4924 6.18637e-21)
(1.75479 -24.389 5.16395e-21)
(1.6232 -24.3126 -5.17965e-21)
(1.44798 -24.2126 0)
(1.3181 -24.1588 0)
(1.27486 -24.1001 -2.12579e-21)
(1.12225 -24.035 3.14197e-21)
(1.25716 -23.8783 -1.78321e-23)
(0.900258 -22.3072 -1.05347e-21)
(0.791242 -14.2633 5.3166e-22)
(7.90819 -26.1458 4.12409e-20)
(6.91298 -25.574 -4.13553e-20)
(5.78432 -25.7529 -4.32188e-20)
(5.09506 -25.6046 5.34638e-20)
(4.38815 -25.4311 -4.58359e-20)
(3.79201 -25.2519 2.60375e-21)
(3.39733 -25.0203 1.8567e-20)
(2.88461 -24.8171 0)
(2.63128 -24.7115 0)
(2.23722 -24.5425 5.7898e-21)
(2.05791 -24.4458 0)
(1.78524 -24.348 0)
(1.64669 -24.2774 0)
(1.46678 -24.18 0)
(1.33274 -24.1358 0)
(1.28643 -24.0809 0)
(1.12735 -24.0304 -1.79436e-21)
(1.27602 -23.8586 1.6435e-21)
(0.886416 -22.2708 -2.72593e-22)
(0.830917 -14.0526 5.26547e-22)
(8.15929 -25.693 -3.35371e-20)
(7.038 -25.2334 -5.55776e-20)
(5.94948 -25.5528 -1.2006e-20)
(5.2777 -25.4932 -8.54646e-21)
(4.55336 -25.3121 1.34656e-20)
(3.93057 -25.123 2.86877e-20)
(3.50577 -24.9012 7.65806e-21)
(2.97059 -24.6983 0)
(2.70033 -24.6047 -5.82029e-21)
(2.29435 -24.4535 1.1422e-20)
(2.10472 -24.3746 4.91609e-21)
(1.82534 -24.2868 4.3938e-21)
(1.67769 -24.2271 0)
(1.49115 -24.1374 3.78773e-21)
(1.34986 -24.1047 3.89285e-21)
(1.29946 -24.0554 0)
(1.12978 -24.027 0)
(1.28786 -23.838 0)
(0.86856 -22.2409 0)
(0.869208 -13.8422 0)
(8.31479 -25.3681 1.36074e-19)