/*--------------------------------*- C++ -*----------------------------------*\
  =========                 |
  \\      /  F ield         | OpenFOAM: The Open Source CFD Toolbox
   \\    /   O peration     | Website:  https://openfoam.org
    \\  /    A nd           | Version:  9
     \\/     M anipulation  |
\*---------------------------------------------------------------------------*/
FoamFile
{
    format      ascii;
    class       volScalarField;
    location    "1.9";
    object      nut;
}
// * * * * * * * * * * * * * * * * * * * * * * * * * * * * * * * * * * * * * //

dimensions      [0 2 -1 0 0 0 0];

internalField   nonuniform List<scalar> 
46400
(
0.0180269
0.00675546
0.00197646
0.0012691
0.00130659
0.00127229
0.00118481
0.00116146
0.00110588
0.00108412
0.0010225
0.000985156
0.000964199
0.000949877
0.000915346
0.000910879
0.000873768
0.000814921
0.00116738
0.000953395
0.0177344
0.00571994
0.00150343
0.00133089
0.00128124
0.00125952
0.00120428
0.00120075
0.00114107
0.00109407
0.00105263
0.0010157
0.000974815
0.000939911
0.000904002
0.000876676
0.000808677
0.000728817
0.000988501
0.000907129
0.0173908
0.00477225
0.00123355
0.00139368
0.00131559
0.00131348
0.00121507
0.00119848
0.00115336
0.00112659
0.00106693
0.00102847
0.000998966
0.000971278
0.000940768
0.00092632
0.00086267
0.000805641
0.00110514
0.000942615
0.0169825
0.00396067
0.00118652
0.00142958
0.00129709
0.00129632
0.00123578
0.00121816
0.00116271
0.00112384
0.00109102
0.0010462
0.00100827
0.000971691
0.000936337
0.00091702
0.00086897
0.000802769
0.00111749
0.00101031
0.016473
0.00395679
0.00126355
0.00146567
0.0013541
0.00134768
0.00125504
0.0012353
0.00119338
0.0011574
0.00110971
0.0010751
0.00104066
0.00101295
0.000982547
0.00095328
0.000899323
0.000852606
0.00114542
0.00101245
0.015876
0.00478105
0.00133243
0.00150268
0.00135722
0.00134616
0.00127839
0.00124042
0.00119498
0.00115306
0.00112304
0.00108386
0.00105233
0.00101234
0.000994934
0.000978684
0.00092045
0.000862833
0.00117351
0.00107576
0.0153424
0.00444958
0.00142117
0.00153586
0.00141063
0.0013801
0.0013006
0.00125993
0.00121678
0.00117385
0.00113127
0.00109641
0.00107475
0.00103892
0.000996653
0.000983196
0.000935338
0.00085466
0.00113287
0.00105967
0.0142723
0.00396633
0.00141233
0.00153361
0.00140618
0.00137563
0.0013118
0.00125695
0.00121664
0.00116314
0.00113223
0.001089
0.00106784
0.00105907
0.00103961
0.00100555
0.000971701
0.000901743
0.00112437
0.00107956
0.0130148
0.00318256
0.00146072
0.00153417
0.00143901
0.00137783
0.0013318
0.00126621
0.00122658
0.00118179
0.00112991
0.00107913
0.00103422
0.00100223
0.00100155
0.000991377
0.000943774
0.000901856
0.0010746
0.0010076
0.010388
0.00253904
0.00147536
0.0014565
0.00142188
0.00136349
0.00132358
0.00127599
0.00122509
0.00117666
0.00116292
0.00111463
0.00107561
0.00102864
0.000995721
0.000996445
0.000967744
0.000927294
0.00111188
0.00105271
0.00841832
0.0021379
0.00152148
0.00145767
0.00140326
0.00135164
0.00132139
0.00126559
0.00123993
0.00116442
0.00111452
0.00109276
0.00104662
0.00101183
0.000972914
0.000936212
0.000915747
0.000873378
0.00102373
0.00100684
0.00674261
0.0018343
0.0014885
0.00144504
0.00140795
0.00132961
0.00132178
0.00128225
0.00125912
0.00123197
0.00117224
0.00111852
0.00109975
0.00104254
0.00102441
0.000982512
0.000938087
0.000903481
0.0010064
0.000983452
0.00568813
0.00168908
0.00151573
0.0014417
0.00142083
0.00132586
0.0012764
0.00123455
0.0012181
0.00118047
0.00117219
0.00110757
0.00107134
0.00103876
0.000987618
0.000975525
0.000917208
0.000883845
0.000970423
0.000943442
0.00482756
0.00161521
0.00151916
0.00145743
0.00144166
0.00136299
0.00132641
0.00125512
0.00123933
0.00120716
0.00118655
0.00117449
0.00112179
0.00109469
0.00105001
0.00100773
0.000964441
0.00090166
0.000959583
0.000904541
0.0043327
0.0015623
0.00147878
0.00142245
0.00145569
0.00134913
0.00129818
0.00123256
0.00117252
0.00114976
0.00111923
0.00110908
0.00110548
0.00107822
0.00107771
0.00105069
0.00103258
0.000986955
0.00105499
0.000985239
0.00436663
0.00167965
0.00154989
0.00141622
0.00145301
0.00145718
0.00139098
0.00133098
0.00126093
0.00118153
0.00113791
0.00107513
0.00105175
0.00101164
0.000992313
0.000971608
0.000950044
0.000916326
0.000983383
0.000940917
0.00364022
0.0016353
0.00148146
0.0013379
0.00127878
0.00128171
0.0013164
0.00128762
0.00129186
0.00124393
0.00121542
0.00116834
0.00113178
0.00109065
0.00105505
0.00102244
0.000983847
0.000935228
0.000978867
0.000925965
0.00366875
0.001757
0.00170047
0.00154568
0.00141726
0.00128278
0.00125703
0.00120078
0.00118665
0.00115611
0.00113657
0.00110684
0.00108187
0.0010545
0.00102775
0.00100664
0.000974138
0.000927423
0.000973738
0.000913577
0.00269382
0.00134935
0.00152223
0.0015143
0.00153795
0.00143481
0.00137179
0.00130307
0.00125348
0.00120128
0.00116597
0.00112512
0.0010953
0.00105883
0.0010325
0.00100375
0.000974877
0.000919937
0.0009647
0.00090058
0.00071742
0.000695705
0.00125144
0.00120003
0.00135457
0.00127743
0.00131161
0.00124881
0.0012492
0.0011921
0.00117947
0.00112664
0.0011101
0.00106091
0.00104157
0.00100177
0.00097621
0.0009115
0.000960348
0.000883194
0.000687714
0.000254412
0.00378742
0.00831546
0.0107099
0.0080803
0.00393995
0.00139549
0.000389472
6.01964e-05
0.000112936
0.00021745
0.000268557
0.000117993
0.000124588
0.000196688
0.000223199
0.000196319
0.000161527
0.000242432
3.03453e-23
0.00174287
0.00654283
0.0105357
0.00925575
0.00510038
0.00192407
0.000492067
9.78608e-05
0.000136014
0.0002383
0.00027369
0.000186217
0.000184343
0.000222516
0.000240575
0.000201155
0.000217322
0.000239525
0.000291323
0.00020882
0.00409504
0.00908591
0.010742
0.00695844
0.00280836
0.000708783
9.59397e-05
0.000138835
0.000259929
0.000255747
0.000217079
0.00020721
0.00024998
0.000218758
0.000198878
0.000217358
0.000289546
0.000258244
0.000266333
0.000716913
0.00697296
0.0107011
0.00932576
0.00475903
0.00127838
9.76076e-05
0.000112056
0.00027431
0.000322543
0.00027321
0.000256137
0.000246189
0.000239032
0.000224874
0.000271744
0.000297158
0.000290287
0.000240835
0.000310706
0.00244544
0.00879679
0.011305
0.00758221
0.00247513
0.000337995
0.000145415
0.000267025
0.000347172
0.000334707
0.000271867
0.000258329
0.000251202
0.000292665
0.000272944
0.000296216
0.000278111
0.000288693
0.000292794
0.000338768
0.00266616
0.0101317
0.0108924
0.00568969
0.00109681
0.000170105
0.000274888
0.000369923
0.00039468
0.000328831
0.000308933
0.000317177
0.000328973
0.000315606
0.000285059
0.000343406
0.000331713
0.000359196
0.000332851
0.000367601
0.00536235
0.0112433
0.00970945
0.00337208
0.000272609
0.000194487
0.000383081
0.000420844
0.000404832
0.000396025
0.000358312
0.000346268
0.000326572
0.000346048
0.000346793
0.000382912
0.000329887
0.000365472
0.000364949
0.000397328
0.00737108
0.0117608
0.00860391
0.0016408
0.000258834
0.000384127
0.000494535
0.000523772
0.000495849
0.000424323
0.000390868
0.000399182
0.000417301
0.000404017
0.000375228
0.000420765
0.000375907
0.000446419
0.000414861
0.000420904
0.00977634
0.0120012
0.00743674
0.000688627
0.000265673
0.000569834
0.000618555
0.000533526
0.000515187
0.00049428
0.000470502
0.000460819
0.00042912
0.000426216
0.00043505
0.000462331
0.000394056
0.000463454
0.000428955
0.000440925
0.0123287
0.0118197
0.00540279
0.000391909
0.000472432
0.000638639
0.000652887
0.000644154
0.000625487
0.000546236
0.000500725
0.000500114
0.00051165
0.000496786
0.000474442
0.000498777
0.000449309
0.0005369
0.000477966
0.000473243
0.0140745
0.0117988
0.00369508
0.000224353
0.000659424
0.000787067
0.000756531
0.000681737
0.000635575
0.00060425
0.000585131
0.000574885
0.000536461
0.000521473
0.000531483
0.000540308
0.000476327
0.000546103
0.000489677
0.00050684
0.0155362
0.0113171
0.00235777
0.000238214
0.000789939
0.00080739
0.000773347
0.000764345
0.000746877
0.0006687
0.000617581
0.000612221
0.000613467
0.000594274
0.000575728
0.000579772
0.000548969
0.00061979
0.000518477
0.000540383
0.0161787
0.0110074
0.00156255
0.000445759
0.000886378
0.000900346
0.000891351
0.000807358
0.000753046
0.000718059
0.000694868
0.000681137
0.000640737
0.000623533
0.000629955
0.000624401
0.000577609
0.000628336
0.000515136
0.000560377
0.0169549
0.0105494
0.00104157
0.000600833
0.00101829
0.000905588
0.000905835
0.000882882
0.00085897
0.000785828
0.000730831
0.000724434
0.000716134
0.000689149
0.000669228
0.000664369
0.000647939
0.000686653
0.000540102
0.000602151
0.0175167
0.0101856
0.00119462
0.000779202
0.00108408
0.000998682
0.00100085
0.000922805
0.000863258
0.000831671
0.0007993
0.000779426
0.000740769
0.000725202
0.000723108
0.000705293
0.000678271
0.000696175
0.000527
0.000620714
0.0178492
0.0097436
0.001791
0.00091939
0.00115508
0.00101798
0.00101706
0.00099546
0.000960322
0.000892414
0.000836072
0.000829291
0.000813229
0.000779816
0.000755779
0.00074558
0.00074993
0.000747286
0.000546177
0.000664504
0.018191
0.00941137
0.00233747
0.00105407
0.00119129
0.00110555
0.00109051
0.00102515
0.000963736
0.00093883
0.000894346
0.00086696
0.000834564
0.000822236
0.000805566
0.000779032
0.000781977
0.000760579
0.000531105
0.000691783
0.0182548
0.00912433
0.0022545
0.00108877
0.00124851
0.00110334
0.00110049
0.00108972
0.00104203
0.000983027
0.000930877
0.000920848
0.000898804
0.000865135
0.000835852
0.000822934
0.000844586
0.00081482
0.000551565
0.000735077
0.0183284
0.00862888
0.00207967
0.0011492
0.0012804
0.00120114
0.00114955
0.00111003
0.00104906
0.00102904
0.000974872
0.000942522
0.000919868
0.000910864
0.000879698
0.00085727
0.000877161
0.000864636
0.00056933
0.000718943
0.0181917
0.00777586
0.00200493
0.00119785
0.00128159
0.0011934
0.00116232
0.0011628
0.00110848
0.00105875
0.00101543
0.000999723
0.000976491
0.000950577
0.000925258
0.000936676
0.000936358
0.00093676
0.00072614
0.000786134
0.00221152
0.00188385
0.00187913
0.0014917
0.00159465
0.00149794
0.00145305
0.00136985
0.00131873
0.00124887
0.00114214
0.00107648
0.000975375
0.000926669
0.000835198
0.00082436
0.000979697
0.00412436
0.00998846
0.0222683
0.00226118
0.00185143
0.0018816
0.00151764
0.00163449
0.00158621
0.00156282
0.00141561
0.00130567
0.00122669
0.00111715
0.00105238
0.000944668
0.0008903
0.000800575
0.000768614
0.000959183
0.00428396
0.0100148
0.0220142
0.00231349
0.00200613
0.00199889
0.00149892
0.00167127
0.00153036
0.00143941
0.00135259
0.00129747
0.0012368
0.00112554
0.00106375
0.000961799
0.000915491
0.000818243
0.000807922
0.000971545
0.00429236
0.0100582
0.0218784
0.00239723
0.00200233
0.00199208
0.00151706
0.00171016
0.00161447
0.00155307
0.00140889
0.00129073
0.00121585
0.00110194
0.00104208
0.000934026
0.000880326
0.000784901
0.000753404
0.000948787
0.00441166
0.0100762
0.0216229
0.00244274
0.00212163
0.00209892
0.00152979
0.00175028
0.00155265
0.00142855
0.00134295
0.0012797
0.00122541
0.00111175
0.00105357
0.000951209
0.00090658
0.000803815
0.000794268
0.000965041
0.00442098
0.0101259
0.0214905
0.002674
0.00214333
0.00206292
0.0015563
0.00181038
0.00163739
0.00153869
0.00140103
0.0012766
0.00120551
0.00108986
0.00103379
0.000926169
0.000872873
0.000771836
0.000741287
0.000938755
0.00450091
0.0101332
0.0212508
0.00273651
0.00222445
0.00217001
0.00160799
0.00182542
0.00156463
0.0014196
0.00133824
0.00126504
0.00121428
0.00110092
0.00104577
0.0009439
0.00090035
0.000792797
0.000782969
0.000958951
0.00449691
0.0101861
0.0211212
0.003106
0.00226644
0.00210597
0.00164796
0.00190064
0.00165244
0.00152402
0.0013927
0.00126356
0.00119555
0.00108096
0.00102751
0.000921419
0.000868448
0.000762413
0.000731871
0.00092921
0.00455388
0.0101889
0.0209015
0.00328571
0.00234361
0.00223528
0.00174078
0.00188206
0.00157267
0.0014104
0.00133427
0.00125276
0.00120307
0.00109303
0.0010402
0.000939784
0.000897018
0.000786037
0.000773907
0.00095373
0.00453418
0.01024
0.0207745
0.00370825
0.00239536
0.00216158
0.00177168
0.00195018
0.00166137
0.0015074
0.00138373
0.00125273
0.00118554
0.00107495
0.00102302
0.000919724
0.00086741
0.000757902
0.000725167
0.000921607
0.00457271
0.0102408
0.0205749
0.00379735
0.00247529
0.00231715
0.00188281
0.00190657
0.001586
0.00140345
0.0013316
0.00124392
0.00119168
0.00108735
0.00103642
0.000938839
0.000896696
0.000784779
0.000767223
0.000950655
0.00453412
0.0102899
0.0204536
0.00402109
0.00252256
0.00224754
0.00189901
0.00195525
0.00166416
0.00148824
0.00137381
0.00124422
0.00117517
0.00107116
0.0010205
0.000921026
0.000869739
0.000759606
0.00072115
0.00091935
0.00454373
0.0102894
0.0202739
0.0041169
0.0025894
0.00240556
0.00199948
0.00189984
0.00159975
0.00140084
0.00133126
0.00123808
0.0011801
0.00108306
0.00103414
0.000940554
0.000899491
0.000789391
0.000763051
0.000944916
0.00450001
0.0103369
0.0201589
0.00435018
0.00262841
0.00235338
0.00200859
0.0019343
0.00166345
0.00147242
0.00136441
0.00123705
0.00116436
0.00106836
0.00101969
0.000924953
0.000875661
0.000767648
0.000720251
0.000911205
0.00448169
0.0103369
0.0199979
0.00446674
0.00267101
0.00248403
0.00208421
0.00186949
0.00160673
0.00140415
0.00133171
0.00123256
0.00116765
0.00107875
0.00103291
0.00094427
0.000905683
0.000800055
0.000762069
0.000937055
0.00442386
0.0103761
0.0199077
0.00470215
0.0027225
0.00244418
0.00209485
0.00190169
0.00165862
0.00146116
0.00135284
0.00122767
0.00115162
0.0010643
0.00101912
0.000930108
0.000884762
0.00078175
0.000722687
0.00090559
0.00437547
0.010363
0.0197623
0.00491531
0.00277417
0.00254129
0.00214436
0.00183065
0.00161041
0.00141657
0.00133395
0.00122731
0.00115622
0.00107466
0.00103329
0.000949851
0.000916016
0.000816168
0.000765226
0.000930817
0.00433321
0.0104146
0.0196487
0.00505255
0.00279087
0.00248175
0.00216169
0.0018798
0.00166465
0.00146929
0.00135119
0.00122415
0.00114554
0.00106432
0.00102415
0.000940319
0.000901861
0.000805446
0.000734961
0.000899233
0.00426289
0.0104366
0.0196393
0.00498691
0.00288391
0.00249953
0.0021523
0.00177091
0.00157994
0.00140942
0.0013145
0.00120191
0.00113047
0.00105911
0.00102561
0.000950519
0.000924473
0.000838164
0.000766995
0.000945176
0.00418497
0.0104358
0.0194923
0.00582169
0.00316655
0.00252772
0.00215936
0.00183483
0.00166807
0.00150487
0.00136829
0.0012343
0.00115397
0.00107595
0.00103578
0.00095242
0.000920598
0.000827903
0.000746717
0.000896312
0.0039378
0.010156
0.0190017
0.0164486
0.0321301
0.0160059
0.0237942
0.0195263
0.0176533
0.0155608
0.0141514
0.0128224
0.0118381
0.0109222
0.0105239
0.00996257
0.00997177
0.0094537
0.00938721
0.0111942
0.0373954
0.0970326
0.16718
0.0324092
0.023199
0.0203659
0.0182562
0.0164175
0.014555
0.0133031
0.0120672
0.0108851
0.00968529
0.00924065
0.00933448
0.00884982
0.00810579
0.00780171
0.00648913
0.0118087
0.0428594
0.0958261
0.154033
0.0157663
0.0149061
0.0155148
0.0132737
0.0121106
0.0112439
0.0106472
0.00972372
0.00894287
0.00843623
0.00811124
0.00780402
0.0074429
0.00728247
0.00708756
0.00666881
0.0118063
0.0412027
0.095052
0.150276
0.0131041
0.0117794
0.0100995
0.00955811
0.00942008
0.00895118
0.00855932
0.00835228
0.00817031
0.00765952
0.00723708
0.00678377
0.0066497
0.00620218
0.00611953
0.00496542
0.00941359
0.0434886
0.0950379
0.139143
0.00660221
0.00720726
0.00839793
0.00831019
0.00746533
0.00705225
0.00670072
0.00630905
0.00600343
0.00594113
0.0058715
0.00589094
0.00568299
0.00559416
0.00558122
0.0047287
0.0103143
0.0407112
0.0950789
0.137343
0.00580306
0.00648591
0.00586217
0.00526397
0.0051707
0.00534713
0.00545547
0.00558259
0.00558111
0.00546163
0.00522777
0.00502624
0.00500644
0.00484602
0.00472716
0.00383712
0.00748704
0.0380556
0.0957805
0.133173
0.00328285
0.00367705
0.00415585
0.00481285
0.00479502
0.00459019
0.00432607
0.00415409
0.00406984
0.00425221
0.00438475
0.00453698
0.00448192
0.00455276
0.00459246
0.00373433
0.00518042
0.0336114
0.0963612
0.132719
0.00291213
0.00329562
0.00346271
0.00323264
0.0029124
0.00312738
0.00344429
0.00377281
0.00393371
0.0039903
0.00388397
0.00388747
0.00386083
0.00389931
0.00392179
0.00338081
0.00645339
0.027971
0.096196
0.134666
0.00160874
0.0020518
0.00222497
0.00256347
0.00292715
0.00308791
0.00299154
0.00296152
0.00291733
0.00314003
0.00331897
0.0036213
0.00366967
0.00379116
0.00373477
0.00345683
0.00247063
0.0223437
0.0961788
0.139018
0.00161709
0.00173443
0.00187783
0.00190933
0.00172684
0.0018675
0.00219754
0.00258537
0.00282107
0.0029322
0.00290303
0.00302259
0.00311653
0.0034143
0.00342683
0.00354016
0.00335993
0.0153194
0.0931888
0.147117
0.000913518
0.0011504
0.00129519
0.00151026
0.00175553
0.00199974
0.00202824
0.00204971
0.00209166
0.00244055
0.0026811
0.00296735
0.00308501
0.00337713
0.00337695
0.00359405
0.00289387
0.0106599
0.0886352
0.157693
0.000805303
0.000978117
0.00105551
0.00113756
0.00116065
0.00134246
0.00152938
0.0018281
0.00204144
0.00216135
0.00230548
0.00250856
0.00265578
0.00299169
0.00318739
0.0036496
0.00306367
0.00535511
0.0658212
0.168978
0.000574273
0.000729028
0.000870367
0.00105041
0.00115827
0.00134918
0.00150377
0.00156695
0.0016929
0.00190002
0.00206398
0.00234409
0.0025214
0.00271329
0.0029879
0.00327445
0.00360785
0.00408956
0.0539266
0.185384
0.000523797
0.000630196
0.000643748
0.000780978
0.000836726
0.000954225
0.00103042
0.0012943
0.00141428
0.00157852
0.00166962
0.0018928
0.00218502
0.00241825
0.00283987
0.00292411
0.00370172
0.00840001
0.0313059
0.168833
0.000484177
0.000584226
0.000654833
0.000741578
0.000814573
0.000955789
0.000990361
0.00105739
0.00112009
0.00136598
0.00144824
0.0016181
0.00159861
0.00193557
0.00192622
0.00239626
0.00244308
0.00562763
0.0185851
0.123987
0.000372621
0.000449141
0.000484395
0.000555196
0.000603426
0.000676031
0.000765058
0.000901887
0.000927325
0.00104643
0.00109989
0.00133278
0.00138735
0.00165004
0.00161605
0.00209476
0.00186014
0.00360445
0.00674318
0.0791529
0.000357197
0.000399128
0.000431696
0.000482721
0.000516701
0.000550221
0.000583488
0.00066363
0.000697921
0.00078685
0.000796211
0.000932471
0.000923989
0.00112019
0.00107746
0.00137242
0.00120957
0.00221385
0.00419304
0.0481687
0.000259636
0.0002956
0.000321328
0.000363129
0.000393511
0.000485627
0.000543974
0.00058936
0.000641422
0.000713354
0.000778203
0.000864757
0.000909281
0.00103077
0.00104746
0.00119249
0.00108212
0.00129967
0.000912889
0.0258848
0.000207873
0.000226967
0.00023472
0.000251691
0.00027523
0.000300968
0.000326529
0.000386453
0.000423796
0.000476221
0.000508277
0.000565019
0.000593159
0.0006739
0.000646711
0.000619098
0.000828173
0.000969215
0.00114004
0.00966631
0.000122715
0.000156233
0.000186215
0.000229781
0.000283213
0.000325422
0.000382366
0.000432433
0.00047751
0.000535044
0.000580341
0.000649637
0.000695899
0.000772608
0.000764059
0.000885241
0.000937564
0.000644276
0.000842597
0.00563101
0.0138883
0.0138772
0.0138306
0.0137531
0.0137515
0.0136194
0.0134137
0.0138754
0.0132341
0.0133898
0.0124159
0.0122281
0.0123153
0.0110979
0.0112138
0.00990609
0.00968593
0.00915264
0.00921721
0.00789816
0.00700572
0.00700457
0.00694872
0.00695716
0.0068322
0.00678006
0.00681849
0.00660398
0.00665037
0.00653032
0.00638965
0.00771661
0.00715845
0.00673767
0.00611778
0.00668356
0.00662401
0.00656835
0.00676579
0.00749877
0.0043512
0.00436695
0.00438899
0.00442546
0.00444979
0.0045757
0.00446823
0.00461633
0.00452945
0.00454018
0.00467844
0.00428909
0.00404465
0.00412246
0.00409111
0.00425198
0.00379948
0.00395502
0.00348908
0.00381743
0.00278324
0.00277222
0.00276912
0.00275105
0.00275415
0.00271499
0.0026727
0.00263261
0.002619
0.00263722
0.00241718
0.00266185
0.00270405
0.00285341
0.00275174
0.00284445
0.00272323
0.00298927
0.00278211
0.0030418
0.00174897
0.00174704
0.001753
0.00175113
0.00176024
0.00175683
0.00175088
0.00182611
0.00181337
0.00181451
0.00198164
0.00191423
0.00187763
0.00193949
0.0018666
0.00193193
0.00182333
0.00190693
0.00177715
0.00175974
0.00125748
0.00125628
0.00126181
0.00125838
0.00126437
0.00125277
0.00125586
0.00126275
0.00123137
0.0012726
0.00123024
0.00125572
0.00128953
0.00132815
0.00127969
0.00131058
0.00125678
0.00144146
0.00139023
0.00127669
0.000777531
0.000778429
0.000780464
0.000782966
0.000782839
0.000782172
0.000784783
0.000794089
0.000796185
0.000804447
0.000816107
0.000850545
0.000877401
0.00089634
0.000847158
0.000883189
0.000894942
0.000970144
0.000863856
0.00073195
0.000567964
0.000569725
0.000572123
0.000576057
0.000576611
0.000580081
0.000583308
0.000590103
0.000590403
0.000598306
0.000601337
0.000627334
0.000645429
0.000658939
0.000612413
0.000629978
0.000633335
0.000695324
0.000613781
0.000524746
0.000319691
0.000321123
0.000322902
0.000325413
0.000326156
0.000328483
0.000330628
0.000334522
0.000335391
0.000342229
0.000353303
0.000392849
0.000414231
0.000438734
0.000389742
0.000417561
0.000425532
0.000501689
0.000408805
0.000283719
0.000215418
0.00021769
0.000220545
0.000225586
0.000227578
0.000229722
0.000229776
0.000231562
0.00023215
0.000237507
0.00024392
0.000261106
0.000262843
0.000272321
0.000238247
0.000241433
0.000234322
0.000211997
0.000313005
0.000362265
8.13692e-05
8.38385e-05
8.84508e-05
9.67829e-05
0.000103683
0.000106535
0.000109474
0.000114964
0.000123054
0.00013456
0.000148499
0.000173988
0.000182063
0.000211196
0.000172831
0.000179813
0.000175054
0.000221198
0.000155618
9.67703e-05
1.78539e-05
2.51193e-05
3.43729e-05
4.56757e-05
5.18508e-05
5.11807e-05
5.02717e-05
5.7927e-05
7.59585e-05
8.80939e-05
9.96822e-05
0.000103844
0.000101549
9.4665e-05
0.00012501
0.000160837
0.000151246
0.000149545
0.000172337
0.000204532
1.2986e-05
2.57435e-05
3.50778e-05
5.30781e-05
6.18274e-05
5.50256e-05
4.77313e-05
4.78125e-05
4.92877e-05
5.70565e-05
6.46096e-05
6.92429e-05
8.62439e-05
9.52799e-05
6.94605e-05
6.93242e-05
9.20953e-05
0.000100926
0.000115835
0.000113207
5.39183e-05
5.21422e-05
5.25696e-05
3.74673e-05
5.22661e-05
4.4981e-05
6.37111e-05
6.27362e-05
7.60378e-05
7.55199e-05
8.43967e-05
9.20407e-05
9.21281e-05
8.80973e-05
0.000117392
9.51219e-05
9.62228e-05
9.44406e-05
0.000101976
0.000121734
6.33396e-05
6.8489e-05
7.14613e-05
7.55719e-05
7.19984e-05
6.85926e-05
6.6743e-05
6.9209e-05
6.93538e-05
6.98849e-05
6.95632e-05
7.08189e-05
7.44785e-05
7.53662e-05
8.15847e-05
8.81336e-05
9.44333e-05
9.44188e-05
0.000103253
0.000107813
6.48491e-05
6.74836e-05
7.1271e-05
7.3556e-05
7.36453e-05
7.06947e-05
7.36549e-05
7.4165e-05
7.86645e-05
8.1145e-05
8.30035e-05
8.36299e-05
8.20756e-05
7.9211e-05
8.05778e-05
8.01878e-05
8.27588e-05
8.29637e-05
8.77966e-05
9.25451e-05
6.26798e-05
6.13358e-05
6.12111e-05
6.66022e-05
6.40824e-05
5.99512e-05
5.97192e-05
6.09453e-05
6.35324e-05
6.4521e-05
6.69329e-05
6.79469e-05
7.05691e-05
7.01148e-05
7.42406e-05
7.45059e-05
7.77485e-05
7.71033e-05
8.15192e-05
8.35799e-05
4.12369e-05
4.12656e-05
4.29439e-05
5.15291e-05
5.15602e-05
5.00262e-05
5.18765e-05
5.00837e-05
5.26942e-05
5.25392e-05
5.37278e-05
5.13822e-05
5.07654e-05
5.17227e-05
5.28185e-05
5.4491e-05
5.50337e-05
5.73022e-05
5.70743e-05
6.20696e-05
2.88842e-05
2.90543e-05
2.92548e-05
2.67283e-05
2.39891e-05
2.43484e-05
2.51969e-05
2.57606e-05
2.94769e-05
3.28835e-05
3.56003e-05
3.55269e-05
4.10392e-05
4.02004e-05
4.23352e-05
4.28383e-05
4.3832e-05
4.53126e-05
4.42043e-05
4.76534e-05
8.17533e-06
7.5635e-06
8.94231e-06
1.01255e-05
1.17983e-05
1.34203e-05
1.46403e-05
1.59761e-05
1.75577e-05
1.69636e-05
1.84455e-05
1.85363e-05
2.14016e-05
2.10442e-05
2.33419e-05
2.36056e-05
2.43759e-05
2.59539e-05
2.45633e-05
3.09923e-05
0.000952943
0.00116529
0.000816712
0.000874383
0.000912401
0.000916177
0.000948014
0.00096652
0.00098783
0.00102164
0.00107984
0.00110711
0.00116433
0.00117975
0.0012673
0.00130809
0.00127365
0.00197485
0.0067622
0.0180192
0.000911083
0.00098562
0.000729037
0.000808821
0.000876222
0.000902249
0.000937084
0.000970462
0.00100903
0.00104873
0.00109328
0.00114355
0.00119633
0.00119184
0.00124915
0.00127375
0.00132238
0.00149611
0.00567489
0.0177192
0.000937101
0.00109698
0.000804909
0.000858347
0.000922451
0.000938527
0.000968005
0.000998644
0.00102774
0.00106366
0.00112085
0.00115116
0.00119679
0.00120899
0.00130921
0.00132135
0.00140181
0.00124253
0.00479267
0.0173834
0.00101418
0.0011138
0.000803243
0.000868764
0.000918648
0.000937658
0.000971637
0.00100694
0.00104184
0.00108989
0.00112562
0.00116643
0.00121258
0.00122437
0.00129033
0.00128913
0.00141492
0.0011823
0.00392457
0.0169718
0.00100772
0.00113479
0.000849903
0.000895079
0.000948447
0.000977348
0.00100641
0.00103559
0.00107031
0.00110442
0.00115088
0.00118818
0.00122708
0.00124807
0.00134316
0.00136026
0.00147412
0.00127416
0.0039575
0.016456
0.00107421
0.00116536
0.00086381
0.000919737
0.000977841
0.000995473
0.00101178
0.00105239
0.00108178
0.00112439
0.00115545
0.0011935
0.00123284
0.00127271
0.00134613
0.00135458
0.00149333
0.00133298
0.00479715
0.015853
0.00105355
0.00112778
0.000858556
0.000933889
0.000981727
0.000992748
0.00103365
0.00107075
0.00109219
0.00112701
0.00116421
0.00120983
0.00125663
0.00130331
0.00138309
0.00141958
0.00153917
0.00142199
0.00444694
0.0153156
0.00109248
0.00113541
0.000901459
0.000971024
0.00100191
0.00103551
0.00105917
0.00106877
0.00108859
0.00113087
0.00116414
0.00122156
0.00126121
0.00131847
0.00138004
0.00140788
0.00153258
0.00141986
0.00394638
0.0142456
0.00101413
0.00106492
0.000893339
0.000938108
0.000987046
0.00100585
0.00100559
0.00103678
0.00107669
0.00112877
0.00118316
0.00123323
0.00127584
0.00133969
0.00138179
0.00144446
0.00153012
0.00145725
0.00318731
0.013002
0.00105273
0.00110598
0.000930117
0.000973739
0.0010078
0.00100414
0.00102915
0.0010717
0.00110806
0.00116502
0.00118371
0.00123933
0.00128471
0.00132852
0.00136528
0.00142447
0.00146296
0.00148591
0.00253481
0.0104227
0.00102244
0.00103259
0.000883698
0.000924227
0.000938456
0.000965092
0.00100216
0.00104112
0.00109603
0.00113072
0.00118396
0.00126126
0.0012744
0.00132627
0.00135094
0.00140981
0.0014498
0.00150544
0.00213773
0.0084789
0.000992921
0.000997501
0.00089709
0.000927763
0.000968654
0.0010149
0.00104515
0.00111115
0.00114206
0.00119825
0.00125092
0.0012654
0.0012728
0.00131351
0.00132324
0.00140654
0.00143315
0.00149116
0.00185086
0.00685624
0.000939094
0.000944141
0.000875619
0.00090774
0.000974327
0.00099755
0.00105573
0.00109073
0.00112639
0.00117682
0.00117325
0.00120135
0.00121472
0.00126363
0.00131396
0.00140707
0.00142211
0.00152258
0.00171144
0.00581273
0.000912291
0.000972827
0.000923203
0.00098797
0.00103868
0.00107878
0.0011227
0.00114086
0.00118456
0.00118305
0.00120399
0.00122876
0.00124792
0.00132588
0.00136034
0.00144964
0.00147007
0.00154129
0.00163466
0.00498515
0.00102107
0.00107806
0.00101026
0.00105457
0.00106836
0.00108581
0.00108113
0.00109513
0.00109618
0.00109915
0.00113365
0.00114819
0.00122387
0.00129
0.00134963
0.00146266
0.00142833
0.00149722
0.00155916
0.00447287
0.000955491
0.000966961
0.000916434
0.000943675
0.000961543
0.000979204
0.000998233
0.00103733
0.00106771
0.00113126
0.00118479
0.00126826
0.00136354
0.00141893
0.00149556
0.00147889
0.00142068
0.00153273
0.00164535
0.00430955
0.000944189
0.000971801
0.000944309
0.000983684
0.00102701
0.00105763
0.00110211
0.00114358
0.00118918
0.00123514
0.00127201
0.00132108
0.00131748
0.00132535
0.00128503
0.00125829
0.00131916
0.00146765
0.00162151
0.00353477
0.000928297
0.000965285
0.000934639
0.00097555
0.00101187
0.00102978
0.00106147
0.00108344
0.00111175
0.00113406
0.00115984
0.00117704
0.00119271
0.0012299
0.00127781
0.00139299
0.0015867
0.00172627
0.00179233
0.00345355
0.000924258
0.000969212
0.000937924
0.000985639
0.00101393
0.00103959
0.0010676
0.00109916
0.00113313
0.00117079
0.00121416
0.00126145
0.00132902
0.00139312
0.00149712
0.00157221
0.00163799
0.00153931
0.00142397
0.00244982
0.000916317
0.000957595
0.000928502
0.000978277
0.00100802
0.00103743
0.00106676
0.00110441
0.00113781
0.00117905
0.0012162
0.00126165
0.0012989
0.00134668
0.00137097
0.00139339
0.00139339
0.00143034
0.0016134
0.00218678
0.000248624
0.000168546
0.000205334
0.000228907
0.000199152
0.000122917
0.000112524
0.000256037
0.00020032
0.000112029
3.27217e-05
0.00039481
0.00143091
0.00398275
0.00811405
0.0107158
0.00826816
0.00376432
0.000249225
0.000720898
0.000300752
0.000244117
0.000224104
0.000208156
0.000243771
0.000218727
0.000178485
0.000188263
0.000272245
0.000223143
0.000128647
9.59848e-05
0.000505726
0.00196437
0.00511042
0.00929285
0.0105151
0.00657034
0.00181008
6.70217e-23
0.000276269
0.000264614
0.000290834
0.000222678
0.000205419
0.000223813
0.000242844
0.000193468
0.000215185
0.000252056
0.000258232
0.00014149
9.29318e-05
0.000732109
0.00283544
0.00698673
0.0107548
0.0090586
0.00406888
0.000356807
0.000320137
0.000254381
0.000299031
0.00030157
0.000276296
0.000231044
0.000246993
0.000247774
0.000244265
0.000259637
0.000320571
0.000270917
0.000101722
0.000101076
0.00130018
0.00480044
0.0093617
0.0106959
0.00690764
0.000778953
0.000347122
0.000301923
0.000292297
0.000284966
0.000303158
0.00027614
0.000289825
0.00025009
0.000266467
0.000264002
0.000319314
0.000342229
0.000261145
0.00014311
0.000367286
0.00249663
0.00761204
0.0113014
0.0087935
0.00257655
0.000378366
0.000349702
0.000367832
0.000333799
0.000347085
0.000294114
0.00032176
0.000322971
0.000309382
0.000309638
0.000327267
0.000388735
0.000360839
0.000253583
0.000167458
0.00113273
0.00570258
0.010896
0.0101034
0.00256406
0.000402611
0.00037687
0.000373764
0.000336296
0.000387058
0.00034979
0.000350755
0.000329857
0.000346068
0.000342391
0.000381193
0.000408369
0.000419528
0.000375793
0.000206992
0.000285825
0.00334113
0.00973109
0.0112258
0.00530673
0.000427696
0.000430056
0.0004573
0.00037875
0.000423467
0.000383663
0.000409726
0.000414819
0.000402016
0.000397335
0.000416299
0.000484151
0.000521025
0.000485724
0.000373005
0.000258988
0.00170917
0.00859858
0.0117387
0.00731736
0.000442218
0.000440731
0.000476311
0.000402803
0.000464304
0.000436807
0.000432226
0.000429534
0.000453916
0.000457497
0.00048565
0.000517386
0.000532714
0.000607977
0.000559299
0.000294676
0.000671537
0.00745931
0.0119911
0.00975003
0.000478012
0.000489554
0.00054816
0.000453979
0.000500834
0.000482447
0.000503777
0.000512903
0.000505741
0.000504592
0.000534782
0.000615509
0.000646607
0.000646567
0.000626302
0.000451888
0.000387104
0.00535784
0.0118028
0.0122915
0.000506957
0.00050146
0.000560473
0.000486975
0.000541998
0.000532549
0.000527561
0.000536628
0.000569154
0.000578588