/*--------------------------------*- C++ -*----------------------------------*\
  =========                 |
  \\      /  F ield         | OpenFOAM: The Open Source CFD Toolbox
   \\    /   O peration     | Website:  https://openfoam.org
    \\  /    A nd           | Version:  9
     \\/     M anipulation  |
\*---------------------------------------------------------------------------*/
FoamFile
{
    format      ascii;
    class       volScalarField;
    location    "1.9";
    object      p;
}
// * * * * * * * * * * * * * * * * * * * * * * * * * * * * * * * * * * * * * //

dimensions      [0 2 -2 0 0 0 0];

internalField   nonuniform List<scalar> 
46400
(
-36.7952
-30.7188
-18.6172
-9.21641
-0.495028
7.46393
14.5303
21.0621
26.8916
32.2424
37.1056
41.5838
45.703
49.5242
53.1053
56.4879
59.6235
62.8926
66.3013
67.267
-13.5312
-7.51169
3.40952
12.3583
20.3278
27.6799
34.1696
40.0964
45.4199
50.2404
54.5862
58.531
62.1216
65.3842
68.3557
71.0703
73.5146
75.9579
78.2072
78.5744
10.6365
16.699
26.3049
34.5191
41.6347
48.2525
54.0567
59.3767
64.0785
68.3486
72.1735
75.6277
78.7401
81.553
84.0924
86.3621
88.34
90.2841
91.8467
91.3913
35.2253
40.3297
48.6723
56.303
62.7399
68.7033
73.8892
78.5677
82.7199
86.3975
89.6637
92.5545
95.1281
97.3992
99.4192
101.198
102.725
104.221
105.479
104.825
59.0373
63.2253
71.0028
78.0634
83.9068
89.2344
93.8118
97.8919
101.428
104.559
107.291
109.677
111.757
113.558
115.112
116.425
117.499
118.554
119.323
118.324
81.7886
86.3096
93.4254
99.789
104.91
109.504
113.389
116.788
119.732
122.243
124.421
126.269
127.858
129.194
130.331
131.26
131.987
132.701
133.255
132.118
105.353
110.171
116.268
121.672
125.966
129.755
132.927
135.624
137.901
139.815
141.41
142.719
143.779
144.61
145.259
145.72
146.002
146.291
146.471
145.113
128.397
133.571
138.338
142.774
146.206
149.155
151.588
153.592
155.251
156.557
157.616
158.416
159.03
159.443
159.71
159.809
159.753
159.714
159.589
158.086
151.477
156.644
160.116
163.383
165.966
168.043
169.735
171.012
172.001
172.689
173.147
173.383
173.45
173.361
173.152
172.812
172.347
171.902
171.372
169.688
173.292
177.238
179.987
182.238
184.088
185.463
186.527
187.239
187.697
187.884
187.882
187.675
187.322
186.816
186.219
185.498
184.685
183.888
183.008
181.099
193.357
196.248
198.351
199.847
201.014
201.736
202.187
202.302
202.2
201.852
201.339
200.653
199.851
198.922
197.912
196.816
195.639
194.504
193.298
191.258
210.658
212.962
214.584
215.568
216.247
216.496
216.508
216.213
215.718
214.978
214.081
213.011
211.823
210.524
209.138
207.672
206.136
204.627
203.069
200.777
226.601
228.328
229.438
229.875
230.048
229.776
229.293
228.526
227.605
226.486
225.229
223.831
222.33
220.734
219.08
217.353
215.581
213.841
212.088
209.684
240.508
241.775
242.497
242.555
242.364
241.735
240.896
239.782
238.51
237.051
235.475
233.747
231.938
230.018
228.047
226.004
223.916
221.855
219.759
217.194
252.669
253.463
253.783
253.429
252.88
251.904
250.711
249.259
247.673
245.922
244.089
242.143
240.129
238.037
235.888
233.681
231.419
229.174
226.903
224.126
263.714
263.861
263.733
263.002
262.092
260.81
259.338
257.592
255.71
253.671
251.544
249.332
247.066
244.745
242.4
240.016
237.609
235.234
232.904
230.066
271.677
271.541
271.109
270.11
268.94
267.472
265.862
264.018
262.035
259.881
257.63
255.266
252.849
250.364
247.86
245.318
242.759
240.24
237.786
234.88
278.335
278.117
277.458
276.221
274.738
272.967
271.056
268.959
266.765
264.435
262.039
259.551
257.024
254.44
251.845
249.218
246.577
243.977
241.465
238.484
281.586
281.277
280.61
279.576
278.199
276.484
274.542
272.382
270.096
267.668
265.169
262.582
259.958
257.284
254.602
251.899
249.186
246.524
243.973
240.963
286.441
283.273
282.935
281.461
280.052
278.186
276.239
274.015
271.717
269.242
266.718
264.086
261.43
258.716
256.002
253.264
250.521
247.832
245.263
242.22
-137.726
-137.791
-137.355
-137.243
-136.908
-135.289
-133.819
-131.88
-130.026
-128.456
-126.906
-125.007
-123.077
-121.482
-119.826
-117.971
-116.243
-114.646
-113.064
-111.377
-139.166
-138.492
-139.184
-137.563
-137.245
-135.651
-133.433
-130.825
-128.572
-126.532
-124.37
-122.169
-120.156
-118.148
-116.16
-114.164
-112.288
-110.485
-108.75
-106.916
-139.632
-139.406
-139.739
-138.878
-136.47
-134.502
-132.09
-129.64
-127.192
-124.587
-122.117
-119.693
-117.393
-115.077
-112.876
-110.736
-108.659
-106.546
-104.546
-102.583
-140.486
-140.75
-140.195
-140.049
-137.128
-134.111
-131.114
-128.348
-125.349
-122.509
-119.705
-116.969
-114.378
-111.763
-109.328
-106.897
-104.571
-102.312
-100.184
-98.0122
-142.419
-142.544
-141.237
-139.9
-137.192
-133.882
-130.632
-127.09
-123.795
-120.54
-117.421
-114.366
-111.441
-108.556
-105.877
-103.159
-100.663
-98.2289
-95.9437
-93.5976
-145.024
-144.64
-144.435
-141.359
-137.877
-133.884
-129.737
-125.92
-122.091
-118.428
-114.866
-111.426
-108.14
-104.929
-101.925
-98.9255
-96.1909
-93.4613
-90.9757
-88.4294
-149.949
-149.033
-148.07
-143.876
-139.129
-134.378
-129.576
-124.977
-120.547
-116.314
-112.289
-108.423
-104.745
-101.213
-97.9123
-94.6418
-91.693
-88.7288
-86.0896
-83.3245
-157.734
-156.826
-153.377
-147.591
-141.14
-134.87
-129.142
-123.663
-118.499
-113.666
-109.088
-104.756
-100.67
-96.7846
-93.1439
-89.6067
-86.4318
-83.1964
-80.4173
-77.5033
-163.586
-162.823
-156.831
-149.335
-141.626
-134.408
-127.714
-121.548
-115.742
-110.342
-105.298
-100.545
-96.0884
-91.8998
-87.978
-84.2258
-80.8357
-77.4056
-74.5206
-71.4126
-169.489
-167.452
-159.096
-149.974
-141.017
-132.845
-125.211
-118.289
-111.86
-105.915
-100.385
-95.2248
-90.4248
-85.9326
-81.738
-77.7834
-74.2014
-70.6103
-67.6202
-64.3653
-169.711
-167.169
-157.883
-147.516
-137.835
-128.969
-120.82
-113.386
-106.517
-100.199
-94.352
-88.9009
-83.8444
-79.142
-74.7575
-70.6692
-66.9248
-63.2178
-60.2562
-56.7462
-166.505
-164.517
-154.268
-143.172
-132.96
-123.554
-114.878
-107.018
-99.75
-93.0635
-86.8967
-81.1749
-75.8976
-70.993
-66.4397
-62.2257
-58.3335
-54.6111
-51.5163
-47.9623
-162.317
-159.55
-148.615
-136.39
-125.647
-115.913
-106.902
-98.755
-91.2695
-84.408
-78.0994
-72.248
-66.8535
-61.86
-57.2297
-52.9503
-48.9858
-45.2322
-42.0449
-38.4055
-154.861
-151.145
-139.449
-127.432
-116.213
-106.368
-97.1563
-88.8516
-81.2212
-74.2065
-67.7734
-61.825
-56.3655
-51.311
-46.6421
-42.3553
-38.3665
-34.6622
-31.4783
-27.8054
-144.178
-139.791
-128.071
-116.233
-104.846
-94.859
-85.5974
-77.2033
-69.5527
-62.5464
-56.1382
-50.2156
-44.781
-39.7695
-35.1512
-30.9058
-26.9473
-23.3281
-20.1781
-16.4804
-131.571
-126.614
-114.54
-102.709
-91.3279
-81.3847
-72.1841
-63.8803
-56.3086
-49.3576
-43.0164
-37.1725
-31.8235
-26.8883
-22.3593
-18.2118
-14.3341
-10.8672
-7.77561
-4.06658
-115.955
-110.942
-98.4566
-86.7349
-75.7831
-66.1026
-57.1801
-49.051
-41.6925
-34.944
-28.7946
-23.1244
-17.9361
-13.169
-8.80449
-4.79332
-1.05248
2.20683
5.18314
8.85544
-98.8108
-93.3491
-80.705
-69.5642
-58.781
-49.4011
-40.7673
-32.9229
-25.8159
-19.2927
-13.3643
-7.91869
-2.93834
1.63374
5.79599
9.61572
13.1574
16.1562
18.9195
22.431
-79.6033
-73.9513
-60.8831
-50.409
-40.284
-31.283
-23.1407
-15.642
-8.9062
-2.72123
2.90494
8.08421
12.8212
17.1612
21.1266
24.8029
28.1615
30.9248
33.5292
37.4182
-59.0854
-53.1445
-40.4533
-30.4229
-20.8751
-12.3283
-4.622
2.43058
8.80869
14.6595
19.9854
24.8924
29.4184
33.6019
37.4798
41.1343
44.456
47.535
50.8738
54.8609
-104.155
-94.3826
-86.5106
-83.5795
-79.4614
-78.2479
-75.9173
-74.6032
-73.0252
-71.4905
-70.1913
-68.5301
-67.3131
-65.5961
-64.3137
-62.6166
-60.9878
-59.9141
-59.1934
-58.6822
-99.0942
-90.4164
-82.052
-79.3485
-75.1225
-74.0684
-71.913
-70.8668
-69.5783
-68.2762
-67.2203
-65.7726
-64.7802
-63.2656
-62.2009
-60.7017
-59.269
-58.2667
-57.6846
-57.2306
-94.272
-86.0439
-77.3094
-75.0656
-70.8803
-70.1041
-68.1746
-67.2665
-66.1763
-65.0641
-64.2441
-62.9998
-62.2301
-60.9001
-60.0505
-58.6991
-57.4801
-56.6893
-56.1584
-55.7063
-88.9826
-81.713
-72.6807
-70.7782
-66.5572
-65.9579
-64.2337
-63.5911
-62.8096
-61.9185
-61.3359
-60.2969
-59.7477
-58.6168
-57.9811
-56.8244
-55.8058
-55.0737
-54.6982
-54.2923
-83.7301
-77.0454
-67.7703
-66.3993
-62.3313
-62.0176
-60.5741
-60.066
-59.4792
-58.7756
-58.4198
-57.5799
-57.2431
-56.2929
-55.873
-54.8628
-54.0623
-53.5182
-53.1987
-52.8175
-77.7187
-72.2808
-62.9881
-62.0166
-58.0194
-57.8882
-56.6998
-56.4495
-56.1801
-55.6935
-55.5691
-54.9279
-54.8067
-54.0526
-53.8436
-53.0248
-52.4414
-51.9335
-51.8126
-51.4514
-71.8355
-67.2696
-57.9509
-57.5194
-53.821
-53.9602
-53.099
-52.9879
-52.9169
-52.6147
-52.7085
-52.26
-52.3439
-51.766
-51.7736
-51.1026
-50.7509
-50.3987
-50.369
-50.0386
-65.695
-62.0673
-53.0461
-53.014
-49.5101
-49.8461
-49.287
-49.4323
-49.6781
-49.5935
-49.9083
-49.6539
-49.9465
-49.5621
-49.7803
-49.2979
-49.1884
-48.8445
-49.0538
-48.7246
-59.4199
-56.6579
-47.8257
-48.4121
-45.3357
-45.919
-45.73
-46.0247
-46.4759
-46.575
-47.098
-47.0361
-47.5217
-47.3118
-47.7426
-47.4136
-47.5596
-47.3278
-47.6796
-47.3769
-52.6047
-51.0622
-42.7716
-43.7531
-41.0474
-41.8064
-41.9771
-42.5334
-43.2939
-43.6128
-44.3441
-44.4719
-45.1586
-45.14
-45.7765
-45.6417
-46.0658
-45.7907
-46.4315
-46.1185
-45.6965
-45.1342
-37.4708
-38.9821
-36.8973
-37.8714
-38.4481
-39.1765
-40.1468
-40.6548
-41.5828
-41.8976
-42.7686
-42.9216
-43.7636
-43.7948
-44.4859
-44.3214
-45.1335
-44.8372
-38.2785
-38.9448
-32.2539
-34.1718
-32.6203
-33.7717
-34.741
-35.752
-37.0192
-37.7485
-38.8744
-39.3742
-40.436
-40.7758
-41.817
-42.0527
-43.003
-42.8698
-43.9535
-43.6372
-30.5163
-32.5181
-26.7807
-29.2699
-28.4705
-29.8286
-31.2206
-32.4419
-33.9217
-34.8488
-36.1598
-36.8399
-38.0766
-38.5828
-39.8208
-40.2378
-41.4303
-41.4342
-42.7106
-42.4209
-22.0468
-25.9023
-21.3704
-24.3285
-24.2045
-25.7535
-27.5499
-29.0884
-30.8517
-32.0012
-33.4984
-34.3561
-35.7725
-36.4578
-37.886
-38.5214
-39.9563
-40.0562
-41.617
-41.2817
-12.9915
-19.0214
-15.7518
-19.3194
-20.0621
-21.83
-24.0413
-25.8398
-27.8187
-29.1725
-30.843
-31.8709
-33.4508
-34.2941
-35.9085
-36.7457
-38.3962
-38.7056
-40.5474
-40.1166
-3.00826
-11.7499
-10.0798
-14.2081
-15.7582
-17.7509
-20.3575
-22.5235
-24.7825
-26.3638
-28.2135
-29.413
-31.1638
-32.1764
-33.9754
-35.0451
-36.9205
-37.3395
-39.5853
-39.0747
7.08912
-4.40061
-4.2826
-9.02747
-11.52
-13.7708
-16.7657
-19.2536
-21.7441
-23.5391
-25.5589
-26.9207
-28.8287
-29.9865
-31.9603
-33.2289
-35.3323
-35.8522
-38.4684
-37.8994
17.3565
2.55476
1.08417
-4.08332
-7.48771
-10.004
-13.3295
-16.2053
-18.9495
-20.942
-23.1043
-24.6016
-26.6492
-27.9505
-30.0707
-31.6067
-33.8427
-34.5175
-37.5177
-36.7514
32.4834
11.3999
6.91443
0.942202
-3.54995
-6.38017
-10.0012
-13.2722
-16.2565
-18.4515
-20.7545
-22.3813
-24.5683
-26.0088
-28.3019
-30.1913
-32.4975
-33.5
-36.9916
-36.2213
49.8753
23.1914
14.6456
7.56581
2.37656
-0.909324
-4.9869
-8.8532
-12.3034
-14.8734
-17.4831
-19.3929
-21.8098
-23.4255
-26.009
-27.9908
-31.1989
-32.0841
-36.232
-34.6011
73.2329
68.3265
52.6025
44.499
34.8543
28.0549
21.4938
16.3345
10.9596
6.40788
1.86491
-1.51997
-4.80062
-6.82256
-10.0586
-10.4204
-15.7136
-16.0585
-21.9154
-16.0486
109.486
96.9851
78.1984
67.1489
55.0962
46.0017
37.5537
30.9152
25.2091
20.4823
16.3563
12.2372
8.44083
4.80342
1.64563
-1.81257
-4.26155
-6.92706
-8.21709
-8.17814
110.707
98.2595
86.7171
77.1446
68.3982
60.5495
53.5109
46.8838
40.9074
35.757
31.3193
27.6629
24.266
21.5668
18.9908
16.9879
14.8858
13.2321
12.399
12.1307
109.855
101.755
93.6175
84.6853
77.106
69.5156
63.0407
57.0892
51.9109
46.8268
42.2457
37.8067
34.0792
30.2936
27.2967
24.188
21.879
19.5344
18.4914
18.2333
101.427
94.5071
88.4657
82.4747
77.2407
71.8632
66.9533
62.205
57.8352
53.839
50.1082
46.7579
43.6313
40.8295
38.3118
35.895
33.9735
31.8802
30.5785
30.2345
97.7855
93.4076
90.0498
85.1587
80.7951
76.1574
71.883
67.6441
63.6824
59.8464
56.2417
52.7945
49.5873
46.5291
43.7494
41.0809
38.7708
36.546
35.4172
35.1082
91.4215
88.1984
85.0471
81.7247
78.5847
75.4699
72.2971
69.2868
66.214
63.4005
60.5
57.9057
55.2196
52.8093
50.3611
48.0439
45.777
43.4924
41.9058
41.4936
89.8105
87.5799
85.8707
83.2822
80.4275
77.808
75.1541
72.4981
69.8121
67.2245
64.5759
62.1061
59.5251
57.1906
54.7095
52.4977
50.2616
48.0674
46.6021
45.9382
86.2178
84.5462
82.7571
81.1142
79.5666
77.6638
75.667
73.7362
71.6564
69.742
67.6002
65.7162
63.5101
61.638
59.334
57.3834
54.8811
52.8921
50.7575
50.08
85.9842
84.9738
83.8939
82.5423
80.9394
79.3163
77.778
76.164
74.4611
72.812
70.9883
69.3211
67.36
65.6732
63.5105
61.7895
59.2465
57.4541
54.9101
54.2734
84.8435
83.9061
83.0576
82.2572
81.4288
80.4391
79.1856
78.0799
76.7645
75.6173
74.2289
73.0451
71.5324
70.3008
68.5488
67.2341
64.9422
63.7215
60.7326
60.2754
85.2852
84.9102
84.2737
83.5876
82.7085
81.9622
81.1066
80.3125
79.4059
78.5622
77.5816
76.7029
75.5971
74.6927
73.4099
72.4989
70.6963
70.0139
66.1873
66.7034
85.5095
85.2158
84.853
84.5422
84.1206
83.7231
83.1571
82.7239
82.1642
81.7437
81.2445
80.8355
80.4246
80.0354
79.611
79.2745
78.5877
78.6083
78.3095
79.7625
86.2843
86.1578
85.8433
85.6762
85.3711
85.2392
84.9747
84.8696
84.6681
84.627
84.5233
84.5739
84.6889
84.8268
85.2922
85.439
86.5437
86.6541
88.9155
90.3926
87.0376
87.0395
86.9566
86.9527
86.8838
86.9014
86.8694
86.9971
87.0159
87.2829
87.3868
87.9062
88.1582
88.9813
89.5454
90.7226
91.9852
93.3367
96.2225
96.8968
87.7795
87.8561
87.8763
88.0057
88.0949
88.3064
88.4759
88.7873
89.0538
89.55
89.9892
90.7191
91.3347
92.4036
93.2382
94.8499
95.8533
98.3033
99.7577
102.236
88.4857
88.621
88.7402
88.9297
89.1148
89.3851
89.6542
90.068
90.4512
91.0479
91.5392
92.3976
93.0308
94.2645
95.0414
96.8101
97.6592
100.441
101.055
109.691
89.079
89.2777
89.4635
89.7333
90.0125
90.3893
90.7842
91.2699
91.7881
92.4429
93.104
93.9605
94.7544
95.8863
96.7781
98.3308
99.2727
101.428
102.439
105.895
89.4643
89.6588
89.8733
90.1599
90.4632
90.8511
91.251
91.7679
92.2892
92.96
93.6088
94.4609
95.2472
96.3046
97.215
98.4912
99.3982
100.853
101.293
107.481
89.6806
89.9013
90.1474
90.4526
90.7993
91.2068
91.668
92.1963
92.7855
93.4584
94.1852
95.0286
95.8904
96.9388
97.9106
99.2141
100.227
101.876
102.757
104.934
206.893
206.369
205.085
203.436
200.872
198.064
194.226
190.098
185.227
179.872
173.857
167.303
160.251
151.613
144.071
134.98
125.244
116.082
106.895
97.1633
177.558
177.281
176.724
175.907
174.762
173.449
171.696
169.941
167.567
165.337
162.442
159.835
155.587
151.128
147.406
143.98
140.076
136.095
131.727
127.203
140.367
140.267
140.046
139.721
139.288
138.725
138.095
137.302
136.437
135.459
134.329
133.164
131.764
130.474
128.71
127.156
125.185
123.438
121.218
119.534
128
127.951
127.815
127.652
127.358
127.083
126.609
126.195
125.571
124.986
124.22
123.489
122.569
121.724
120.67
119.735
118.528
117.523
116.146
115.215
109.862
109.826
109.776
109.66
109.55
109.361
109.184
108.939
108.687
108.41
108.068
107.772
107.378
107.05
106.57
106.195
105.631
105.214
104.547
104.159
104.015
104.004
103.96
103.915
103.82
103.74
103.595
103.477
103.285
103.106
102.881
102.633
102.333
102.048
101.676
101.361
100.909
100.573
100.048
99.7393
95.6583
95.6422
95.6163
95.5632
95.5054
95.4196
95.3266
95.2152
95.0798
94.947
94.7711
94.6102
94.4029
94.2135
93.9703
93.7539
93.4673
93.2308
92.8971
92.6472
92.7738
92.7679
92.7457
92.7193
92.6718
92.6244
92.5528
92.4837
92.3881
92.2967
92.1762
92.0636
91.9159
91.7838
91.6073
91.4547
91.2501
91.0747
90.8336
90.6507
89.2861
89.2772
89.258
89.2255
89.1834
89.129
89.0628
88.9886
88.8964
88.8049
88.6862
88.5797
88.435
88.3076
88.127
87.9692
87.7524
87.5529
87.2689
86.9681
87.8755
87.8708
87.8574
87.8367
87.8073
87.7716
87.7265
87.6763
87.6151
87.5545
87.4769
87.4092
87.311
87.2302
87.1048
86.9942
86.8653
86.734
86.5883
86.4399
86.9958
86.9883
86.9718
86.9451
86.9103
86.8661
86.8147
86.7558
86.6919
86.6221
86.5443
86.4659
86.3646
86.2626
86.0962
85.942
85.7591
85.5966
85.41
85.2445
86.5403
86.529
86.509
86.482
86.4479
86.4083
86.3699
86.3339
86.2967
86.2541
86.2131
86.1679
86.1161
86.0488
85.9814
85.9061
85.8211
85.7358
85.6281
85.54
86.5845
86.583
86.5774
86.5699
86.5603
86.5508
86.5296
86.4984
86.4624
86.4224
86.3758
86.3269
86.27
86.209
86.1422
86.0663
85.9865
85.9006
85.8114
85.7206
86.9524
86.951
86.947
86.9383
86.9288
86.9137
86.8996
86.8809
86.8617
86.8374
86.8136
86.784
86.755
86.7204
86.6846
86.6444
86.6001
86.5534
86.5039
86.4468
87.3366
87.3373
87.3365
87.3348
87.3308
87.3264
87.3193
87.3119
87.302
87.2913
87.2785
87.2645
87.2489
87.2314
87.2137
87.1931
87.1739
87.1501
87.1287
87.1012
87.8581
87.8592
87.8599
87.8598
87.86
87.8589
87.8584
87.8564
87.8553
87.8522
87.8501
87.846
87.8428
87.8378
87.8332
87.827
87.8212
87.8136
87.8071
87.798
88.3104
88.3128
88.3157
88.3199
88.3247
88.33
88.3361
88.3423
88.3493
88.3563
88.3643
88.372
88.3812
88.3896
88.3997
88.4087
88.4196
88.4292
88.4412
88.4509
88.7074
88.7106
88.7155
88.7213
88.7287
88.7367
88.7469
88.7574
88.771
88.7842
88.8009
88.8173
88.8375
88.8579
88.8796
88.9026
88.9263
88.952
88.9778
89.0059
89.0018
89.0059
89.0124
89.021
89.0321
89.0451
89.0604
89.0773
89.0968
89.1165
89.1381
89.1586
89.1821
89.2038
89.2288
89.2544
89.2822
89.3118
89.3429
89.3766
89.1349
89.1408
89.1492
89.1591
89.171
89.1849
89.2006
89.2179
89.2368
89.2572
89.2807
89.3054
89.3334
89.3618
89.3951
89.4283
89.4658
89.5039
89.5457
89.5887
67.034
66.0774
62.6865
59.4308
56.3094
52.9394
49.3696
45.5626
41.4566
36.997
32.1515
26.8214
21.0094
14.4893
7.44647
-0.487383
-9.18358
-18.5525
-30.6405
-36.7187
78.3842
78.0074
75.7667
73.3293
70.8915
68.1846
65.2211
61.9684
58.3881
54.4508
50.1144
45.3063
39.9928
34.0749
27.6004
20.2714
12.3257
3.3878
-7.49686
-13.4949
91.135
91.591
90.0569
88.1227
86.1594
83.9048
81.3798
78.5841
75.4856
72.053
68.2484
64.002
59.3194
54.0227
48.2514
41.6729
34.5889
26.4193
16.8617
10.7681
104.641
105.293
104.056
102.569
101.051
99.2827
97.274
95.0131
92.4518
89.5708
86.3167
82.6526
78.5134
73.8477
68.6824
62.7439
56.3343
48.7328
40.4264
35.3919
118.059
119.062
118.323
117.28
116.222
114.925
113.385
111.602
109.536
107.171
104.459
101.352
97.8323
93.7802
89.237
83.9522
78.1409
71.131
63.3922
59.2234
131.9
133.057
132.54
131.844
131.135
130.223
129.104
127.784
126.213
124.38
122.218
119.724
116.798
113.421
109.562
104.995
99.8947
93.5553
86.4653
81.9734
144.87
146.252
146.112
145.841
145.575
145.129
144.495
143.678
142.631
141.34
139.762
137.868
135.608
132.937
129.788
126.027
121.749
116.383
110.311
105.51
158.014
159.534
159.659
159.705
159.769
159.679
159.425
159.024
158.425
157.64
156.598
155.311
153.671
151.686
149.265
146.331
142.897
138.482
133.715
128.532
169.639
171.315
171.849
172.299
172.775
173.125
173.348
173.447
173.392
173.169
172.727
172.053
171.072
169.803
168.115
166.038
163.451
160.202
156.708
151.58
181.11
183.023
183.908
184.714
185.537
186.263
186.868
187.38
187.744
187.964
187.98
187.802
187.348
186.638
185.57
184.195
182.335
180.086
177.308
173.404
191.328
193.346
194.546
195.676
196.853
197.95
198.969
199.91
200.73
201.43
201.954
202.303
202.4
202.277
201.818
201.088
199.909
198.41
196.284
193.408
200.852
203.121
204.687
206.201
207.745
209.222
210.625
211.938
213.14
214.211
215.104
215.828
216.31
216.591
216.573
216.321
215.636
214.664
213.036
210.751
209.591
211.97
213.78
215.559
217.36
219.114
220.79
222.396
223.901
225.289
226.536
227.641
228.557
229.324
229.814
230.097
229.938
229.529
228.418
226.717
217.13
219.724
221.866
223.96
226.076
228.137
230.122
232.042
233.852
235.569
237.144
238.593
239.875
240.99
241.845
242.485
242.689
242.655
241.922
240.671
224.37
227.124
229.368
231.592
233.84
236.025
238.159
240.231
242.234
244.164
245.996
247.74
249.337
250.788
251.99
252.962
253.509
253.855
253.503
252.725
230.077
232.84
235.196
237.585
240.006
242.396
244.761
247.089
249.38
251.605
253.763
255.819
257.733
259.487
260.971
262.227
263.121
263.803
263.898
263.682
234.842
237.722
240.23
242.788
245.374
247.939
250.47
252.972
255.411
257.783
260.049
262.189
264.166
265.963
267.548
268.951
270.093
271.023
271.408
271.476
238.451
241.387
243.933
246.553
249.211
251.849
254.463
257.056
259.601
262.099
264.513
266.85
269.062
271.159
273.094
274.854
276.372
277.554
278.195
278.199
240.877
243.869
246.485
249.189
251.927
254.658
257.359
260.056
262.694
265.304
267.813
270.262
272.552
274.733
276.664
278.375
279.694
280.647
281.171
281.279
242.094
245.092
247.712
250.435
253.195
255.948
258.68
261.405
264.084
266.729
269.291
271.785
274.141
276.39
278.412
280.296
281.827
283.238
284.135
284.901
-112.153
-113.77
-115.281
-116.802
-118.448
-120.226
-121.768
-123.268
-125.084
-126.8
-128.296
-129.84
-131.626
-133.496
-134.99
-136.687
-137.098
-137.153
-137.63
-137.63
-107.538
-109.315
-110.994
-112.742
-114.551
-116.484
-118.403
-120.318
-122.252
-124.412
-126.508
-128.501
-130.776
-133.488
-135.804
-137.438
-137.662
-138.942
-138.238
-138.778
-103.173
-105.078
-107.012
-109.061
-111.074
-113.147
-115.279
-117.536
-119.764
-122.119
-124.53
-127.094
-129.531
-131.968
-134.344
-136.241
-138.68
-139.564
-139.073
-139.295
-98.4613
-100.589
-102.672
-104.889
-107.158
-109.539
-111.916
-114.472
-117.004
-119.682
-122.423
-125.2
-128.104
-130.764
-133.657
-136.485
-139.472
-139.596
-140.034
-139.868
-94.0251
-96.3273
-98.566
-100.946
-103.393
-106.062
-108.686
-111.522
-114.387
-117.385
-120.448
-123.637
-126.855
-130.296
-133.487
-136.762
-139.184
-140.358
-141.713
-141.557
-88.7921
-91.2934
-93.7343
-96.426
-99.1074
-102.063
-105.016
-108.174
-111.407
-114.792
-118.293
-121.893
-125.66
-129.43
-133.418
-137.27
-140.817
-143.803
-143.916
-144.373
-83.6925
-86.4077
-88.9977
-91.9213
-94.8212
-98.0442
-101.296
-104.783
-108.406
-112.221
-116.193
-120.36
-124.725
-129.235
-133.979
-138.647
-143.224
-147.329
-148.338
-149.202
-77.8371
-80.6986
-83.4239
-86.6193
-89.7458
-93.2394
-96.8339
-100.673
-104.714
-108.995
-113.52
-118.296
-123.401
-128.823
-134.479
-140.667
-147.112
-152.825
-156.16
-157.078
-71.7157
-74.783
-77.6244
-81.0183
-84.3687
-88.079
-91.9583
-96.1089
-100.52
-105.23
-110.229
-115.575
-121.324
-127.427
-134.059
-141.196
-148.813
-156.197
-162.167
-162.921
-64.6327
-67.8486
-70.7958
-74.3475
-77.8926
-81.8104
-85.9655
-90.4205
-95.1838
-100.302
-105.789
-111.687
-118.066
-124.946
-132.523
-140.642
-149.554
-158.586
-166.911
-168.916
-57.0058
-60.4744
-63.4072
-67.0755
-70.7857
-74.8397
-79.1888
-83.8599
-88.8805
-94.2968
-100.109
-106.384
-113.205
-120.591
-128.685
-137.492
-147.095
-157.379
-166.664
-169.245
-48.1723
-51.6894
-54.76
-58.4533
-62.3158
-66.5042
-71.028
-75.906
-81.1571
-86.8469
-92.9827
-99.6302
-106.856
-114.675
-123.301
-132.65
-142.785
-153.772
-164.135
-166.256
-38.6094
-42.2113
-45.3796
-49.1106
-53.0488
-57.3036
-61.9092
-66.8806
-72.2498
-78.0758
-84.3591
-91.1897
-98.6395
-106.755
-115.735
-125.419
-136.109
-148.321
-159.159
-161.88
-27.9823
-31.6193
-34.7879
-38.4765
-42.4429
-46.7133
-51.3633
-56.4002
-61.8433
-67.7712
-74.1855
-81.1748
-88.7773
-97.0608
-106.242
-116.056
-127.256
-139.211
-150.891
-154.616
-16.6583
-20.3201
-23.4608
-27.0717
-31.0102
-35.2392
-39.8431
-44.8409
-50.2587
-56.1632
-62.5534
-69.5359
-77.1609
-85.5326
-94.7707
-104.729
-116.061
-127.877
-139.557
-143.906
-4.26582
-7.93404
-11.0099
-14.4741
-18.3309
-22.4643
-26.9804
-31.901
-37.2366
-43.0653
-49.3921
-56.3239
-63.8727
-72.1613
-81.3417
-91.2517
-102.608
-114.406
-126.477
-131.422
8.64957
5.01631
2.05663
-1.20531
-4.92854
-8.92447
-13.2792
-18.0363
-23.2121
-28.8675
-35.0033
-41.7317
-49.0708
-57.1849
-66.0864
-75.7374
-86.6507
-98.3373
-110.787
-115.781
22.2017
18.7123
15.9669
12.9687
9.44393
5.63908
1.48773
-3.07035
-8.03699
-13.4694
-19.3839
-25.8891
-32.976
-40.8069
-49.423
-58.7746
-69.5363
-80.6531
-93.2815
-98.7365
37.1891
33.3261
30.7408
27.9807
24.6364
20.9754
17.0209
12.6929
7.9686
2.80547
-2.80665
-8.97244
-15.6914
-23.1795
-31.301
-40.2759
-50.3657
-60.8033
-73.8447
-79.5026
54.5891
50.5998
47.2934
44.2324
40.9252
37.2855
33.4196
29.2496
24.7369
19.84
14.5261
8.69102
2.3279
-4.71333
-12.4051
-20.9262
-30.455
-40.4753
-53.1319
-59.0321
-60.4222
-60.9268
-61.6547
-62.7161
-64.3491
-66.0387
-67.3296
-69.0322
-70.2647
-71.8945
-73.2247
-74.6802
-76.3237
-77.5115
-79.8948
-80.9937
-85.0645
-87.8678
-95.6609
-105.226
-58.9535
-59.3971
-59.9875
-60.975
-62.4116
-63.9062
-64.9769
-66.4779
-67.4787
-68.8914
-69.9781
-71.1975
-72.5524
-73.4673
-75.6628
-76.541
-80.7135
-83.3943
-91.6372
-99.9564
-57.41
-57.8547
-58.3866
-59.1675
-60.3843
-61.7279
-62.5837
-63.8973
-64.6781
-65.8845
-66.7339
-67.7524
-68.9042
-69.664
-71.6714
-72.3306
-76.3964
-78.5133
-87.1861
-95.0493
-55.9754
-56.3685
-56.7505
-57.4707
-58.486
-59.639
-60.2756
-61.393
-61.9472
-62.9457
-63.5578
-64.3521
-65.2106
-65.7068
-67.4751
-67.8865
-72.014
-73.8757
-82.7869
-89.5988
-54.4826
-54.8786
-55.1722
-55.7102
-56.4989
-57.5035
-57.9257
-58.8591
-59.2022
-59.9999
-60.3808
-60.9797
-61.6239
-61.9632
-63.5022
-63.6994
-67.5882
-68.8443
-78.0486
-84.2696
-53.0938
-53.4511
-53.5653
-54.0646
-54.6363
-55.4541
-55.6586
-56.4003
-56.5222
-57.1202
-57.2689
-57.655
-57.998
-58.0823
-59.3289
-59.2813
-63.1348
-64.054
-73.2102
-78.2035
-51.6628
-51.9968
-52.0076
-52.3591
-52.6876
-53.3578
-53.3479
-53.9099
-53.8267
-54.2314
-54.1553
-54.3487
-54.47
-54.3961
-55.3573
-55.1078
-58.5851
-58.9304
-68.1429
-72.4483
-50.3249
-50.6532
-50.43
-50.7702
-50.8574
-51.3439
-51.1173
-51.4906
-51.1928
-51.4042
-51.1033
-51.087
-50.9032
-50.5748
-51.21
-50.7109
-54.0253
-54.0051
-62.8509
-66.2434
-48.9579
-49.2615
-48.8902
-49.1276
-48.9454
-49.2813
-48.843
-49.0397
-48.5479
-48.5673
-48.0506
-47.8449
-47.4301
-46.939
-47.232
-46.5375
-49.3718
-48.7296
-57.3903
-59.9317
-47.675
-47.9897
-47.3287
-47.6063
-47.147
-47.294
-46.6447
-46.6554
-45.9565
-45.7878
-45.056
-44.6407
-43.9188
-43.1743
-43.0905
-42.182
-44.6676
-43.6458
-51.7139
-53.0898
-46.3727
-46.6706
-45.8371
-46.0126
-45.2713
-45.2575
-44.4028
-44.241
-43.356
-43.0015
-42.0646
-41.4588
-40.4987
-39.5764
-39.1017
-38.009
-39.8545
-38.3085
-45.7457
-46.1695
-45.1478
-45.4676
-44.3612
-44.5016
-43.501
-43.2893
-42.2312
-41.8881
-40.8064
-40.2689
-39.127
-38.3095
-37.0432
-35.8549
-34.9772
-33.6754
-35.0043
-33.0578
-39.4891
-38.7451
-43.909
-44.2009
-42.9026
-42.9147
-41.6558
-41.271
-40.0156
-39.506
-38.2469
-37.5304
-36.1942
-35.1816
-33.6705
-32.2761
-30.9826
-29.4846
-30.068
-27.5597
-33.0356
-30.9749
-42.7459
-43.0853
-41.5022
-41.4135
-39.9091
-39.3151
-37.8662
-37.1827
-35.7385
-34.8458
-33.3167
-32.0892
-30.2737
-28.5912
-26.8858
-25.1662
-25.0921
-22.1195
-26.3699
-22.492
-41.5584
-41.9906
-40.1291
-39.8375
-38.101
-37.3172
-35.6813
-34.8403
-33.2294
-32.1674
-30.4567
-29.028
-26.9607
-25.0365
-22.914
-20.9692
-20.0574
-16.4829
-19.4729
-13.4174
-40.4953
-41.0056
-38.7424
-38.3362
-36.368
-35.3643
-33.541
-32.5355
-30.7485
-29.5157
-27.6203
-25.968
-23.5909
-21.3426
-18.8137
-16.6147
-14.9214
-10.788
-12.1627
-3.40155
-39.2976
-39.8649
-37.2355
-36.7304
-34.5176
-33.3314
-31.3323
-30.182
-28.2345
-26.8392
-24.7683
-22.9019
-20.2544
-17.7215
-14.7896
-12.3226
-9.72236
-4.97393
-4.7973
6.71801
-38.1281
-38.8989
-35.881
-35.2167
-32.8545
-31.4224
-29.2759
-27.986
-25.8932
-24.3623
-22.1453
-20.0718
-17.1323
-14.2758
-10.994
-8.226
-4.78045
0.397191
2.18413
16.9921
-37.5771
-38.3559
-34.8453
-33.8494
-31.3912
-29.6363
-27.317
-25.8876
-23.6501
-21.9891
-19.6268
-17.3329
-14.1083
-10.9233
-7.3076
-4.19084
0.233428
6.2612
11.0463
32.1399
-35.9396
-37.5829
-33.4132
-32.5293
-29.1871
-27.3372
-24.7191
-23.1143
-20.645
-18.7026
-16.032
-13.3672
-9.67341
-5.95821
-1.84734
1.69563
6.96662
14.1105
22.867
49.6789
-17.3049
-23.1505
-17.3112
-16.9614
-11.7527
-11.3663
-8.07185
-6.02878
-2.72023
0.676783
5.26985
9.82364
15.1266
20.0782
27.037
33.5847
44.1899
52.0546
67.8139
73.0819
-9.29815
-9.34066
-8.04638
-5.37925
-2.93378
0.585112
3.74376
7.41935
11.2579
15.4215
19.5849
24.3924
30.1548
37.0193
45.5443
54.6181
66.4369
77.813
96.5316
109.133
11.1201
11.3931
12.2247
13.879
15.9853
18.0056
20.5964
23.3232
26.7362
30.4217
34.8845
40.0645
46.0508
52.7186
59.8655
67.7376
76.6604
86.2172
97.8213
110.313
17.3168
17.5782
18.6353
20.9896
23.3262
26.4561
29.4777
33.2876
37.052
41.5244
46.1493
51.2778
56.5305
62.5183
69.0088
76.5915
84.2312
93.2036
101.483
109.603
29.431
29.7794
31.0841
33.1908
35.1223
37.5578
40.092
42.9165
46.0659
49.4443
53.2018
57.234
61.6321
66.4289
71.3743
76.8112
82.0896
88.1319
94.1175
101.152
34.4174
34.7305
35.8601
38.0991
40.4185
43.1041
45.8986
48.9778
52.2044
55.6765
59.3032
63.1683
67.1544
71.416
75.7179
80.3807
84.7758
89.7628
93.2353
97.5719
40.8822
41.2973
42.887
45.1812
47.4605
49.7899
52.2544
54.6818
57.3896
60.0059
62.9338
65.7738
68.8794
71.9225
75.1309
78.287
81.4542
84.7491
87.9462
91.213
45.412
46.0793
47.5474
49.7497
51.9901
54.2143
56.7043
59.0542
61.6472
64.136
66.7988
69.4084
72.1111
74.7885
77.4673
80.0998
82.992
85.6406
87.394
89.6713
49.612
50.2906
52.4308
54.4235
56.9382
58.8957
61.2149
63.1009
65.3256
67.2277
69.3913
71.3288
73.4315
75.3937
77.4097
79.3579
80.919
82.5731
84.3745
86.0749
53.8672
54.5056
57.0524
58.849
61.3967
63.1262
65.2985
66.9951
68.9672
70.6476
72.4844
74.1492
75.8682
77.4998
79.0574
80.6944
82.3226
83.71
84.812
85.8494
59.916
60.3742
63.3666
64.5898
66.8909
68.2131
69.9749
71.2177
72.7429
73.9411
75.3443
76.5092
77.8405
78.9671
80.237
81.2556
82.0995
82.9207
83.7836
84.7387
66.3902
65.8726
69.7012
70.3873
72.1933
73.1102
74.3999
75.3118
76.4272
77.3157
78.3082
79.1637
80.0842
80.8928
81.764
82.5245
83.4206
84.1275
84.7841
85.1855
79.4862
78.0322
78.332
78.3162
79.0049
79.3488
79.7787
80.1774
80.5963
81.0167
81.526
81.9597
82.5319
82.9793
83.5593
83.9763
84.413
84.7388
85.1208
85.4274
90.1396
88.6634
86.4002
86.2917
85.1898
85.0509
84.5915
84.4606
84.3542
84.3111
84.4252
84.4765
84.6895
84.8065
85.0832
85.2262
85.5423
85.7251
86.0503
86.1942
96.6862
96.0159
93.1311
91.7721
90.5074
89.3292
88.7745
87.9551
87.7111
87.1997
87.103
86.8448
86.8355
86.7168
86.7628
86.7541
86.839
86.8534
86.9513
86.9613
102.027
99.5398
98.0966
95.6605
94.6615
93.0532
92.2173
91.1541
90.5418
89.8185
89.3873
88.8977
88.6407
88.3373
88.1769
87.979
87.8986
87.7824
87.7726
87.7088
109.566
100.848
100.215