/*--------------------------------*- C++ -*----------------------------------*\
  =========                 |
  \\      /  F ield         | OpenFOAM: The Open Source CFD Toolbox
   \\    /   O peration     | Website:  https://openfoam.org
    \\  /    A nd           | Version:  9
     \\/     M anipulation  |
\*---------------------------------------------------------------------------*/
FoamFile
{
    format      ascii;
    class       volScalarField;
    location    "3.7";
    object      p;
}
// * * * * * * * * * * * * * * * * * * * * * * * * * * * * * * * * * * * * * //

dimensions      [0 2 -2 0 0 0 0];

internalField   nonuniform List<scalar> 
46400
(
-117.209
-110.188
-95.6191
-83.766
-72.7036
-62.6506
-53.6055
-45.2711
-37.6923
-30.718
-24.3124
-18.3957
-12.907
-7.76801
-2.92893
1.65518
5.94451
10.411
15.0073
16.6823
-89.9383
-82.7262
-69.0044
-58.0541
-47.94
-38.6597
-30.4045
-22.7347
-15.8736
-9.56866
-3.82188
1.45742
6.29458
10.7425
14.8671
18.6734
22.1599
25.6367
28.829
29.8367
-62.1938
-55.1445
-42.7928
-32.4268
-23.2792
-14.7228
-7.16668
-0.215298
6.0802
11.7983
17.0066
21.7484
26.0801
30.039
33.661
36.9537
39.8965
42.7928
45.173
45.1931
-33.52
-26.3359
-15.6002
-6.14623
2.07313
9.70229
16.4209
22.5888
28.0658
33.0453
37.5259
41.5884
45.2546
48.5658
51.5934
54.3199
56.7533
59.1463
61.2075
61.0911
-4.68579
0.788217
10.3778
19.156
26.6177
33.5919
39.6523
45.1665
50.0997
54.4867
58.4252
61.9292
65.0715
67.8521
70.3327
72.517
74.3977
76.2449
77.7014
77.1006
22.6835
27.5762
36.6204
44.7001
51.4359
57.5799
62.8672
67.5811
71.7113
75.3819
78.6197
81.4936
84.0364
86.2797
88.279
90.0191
91.5134
92.9777
94.1848
93.4177
49.1829
54.4995
62.6573
69.9659
75.8525
81.2334
85.7918
89.8127
93.3284
96.3496
98.9973
101.265
103.246
104.92
106.369
107.58
108.558
109.524
110.284
109.236
76.4286
82.1706
89.002
95.1539
100.069
104.441
108.155
111.318
114.047
116.371
118.356
120.038
121.468
122.668
123.676
124.494
125.116
125.74
126.286
125.121
103.084
109.093
114.446
119.507
123.491
126.97
129.887
132.321
134.364
136.006
137.355
138.396
139.222
139.82
140.265
140.535
140.65
140.779
140.805
139.429
129.136
135.022
138.987
142.758
145.798
148.315
150.43
152.093
153.463
154.5
155.288
155.819
156.154
156.301
156.306
156.171
155.901
155.656
155.305
153.681
154.099
158.626
161.83
164.495
166.706
168.403
169.77
170.753
171.465
171.884
172.089
172.066
171.87
171.498
170.997
170.369
169.637
168.943
168.166
166.365
176.524
179.897
182.381
184.271
185.795
186.86
187.627
188.039
188.233
188.167
187.92
187.478
186.893
186.15
185.29
184.291
183.187
182.097
180.918
178.829
196.518
199.229
201.159
202.402
203.323
203.758
203.948
203.794
203.44
202.852
202.112
201.204
200.181
199.044
197.816
196.493
195.062
193.649
192.124
189.848
214.392
216.467
217.882
218.616
219.084
219.087
218.845
218.279
217.525
216.554
215.435
214.168
212.785
211.31
209.762
208.145
206.457
204.8
203.107
200.615
230.499
232.031
232.998
233.22
233.21
232.738
232.063
231.076
229.912
228.557
227.075
225.469
223.766
221.974
220.124
218.216
216.264
214.346
212.433
209.924
244.432
245.449
246.033
245.868
245.507
244.709
243.698
242.412
240.943
239.287
237.509
235.614
233.639
231.583
229.473
227.307
225.089
222.898
220.713
217.992
257.166
257.507
257.609
256.994
256.197
255.04
253.702
252.129
250.405
248.512
246.498
244.38
242.187
239.938
237.65
235.334
232.979
230.673
228.43
225.629
267.638
267.455
267.05
266.143
264.981
263.543
261.885
260.067
258.082
255.99
253.775
251.485
249.113
246.695
244.234
241.752
239.234
236.764
234.374
231.539
274.703
274.7
274.188
273.289
272.049
270.503
268.709
266.7
264.544
262.248
259.869
257.403
254.891
252.328
249.747
247.142
244.517
241.929
239.432
236.508
280.532
280.437
279.705
278.624
277.175
275.493
273.546
271.447
269.162
266.787
264.286
261.737
259.109
256.462
253.774
251.088
248.369
245.704
243.138
240.187
-244.784
-244.414
-244.873
-243.064
-242.734
-240.788
-237.656
-234.399
-231.294
-227.93
-224.634
-221.411
-218.368
-215.278
-212.336
-209.439
-206.6
-203.857
-201.195
-198.46
-244.993
-244.781
-244.974
-244.275
-242.099
-239.307
-235.989
-232.486
-228.839
-225.145
-221.607
-218.113
-214.794
-211.455
-208.275
-205.142
-202.115
-199.118
-196.229
-193.366
-245.685
-245.897
-245.113
-244.886
-241.862
-238.283
-234.352
-230.492
-226.494
-222.577
-218.694
-214.913
-211.31
-207.653
-204.25
-200.829
-197.581
-194.393
-191.337
-188.298
-248.825
-248.798
-247.743
-246.29
-242.695
-238.178
-233.679
-229.006
-224.586
-220.159
-215.903
-211.733
-207.734
-203.777
-200.077
-196.323
-192.854
-189.43
-186.157
-182.942
-251.85
-251.46
-250.817
-247.296
-242.823
-238.023
-232.562
-227.483
-222.476
-217.656
-212.937
-208.381
-204.012
-199.713
-195.689
-191.64
-187.942
-184.216
-180.774
-177.363
-257.582
-256.784
-255.773
-250.813
-244.686
-238.459
-232.382
-226.53
-220.79
-215.294
-210.032
-204.963
-200.118
-195.439
-191.043
-186.68
-182.721
-178.706
-175.114
-171.488
-266.217
-265.101
-261.522
-254.843
-246.879
-239.202
-232.004
-225.094
-218.566
-212.385
-206.499
-200.927
-195.635
-190.565
-185.814
-181.165
-176.962
-172.683
-168.954
-165.177
-274.533
-273.347
-266.294
-257.784
-248.225
-239.128
-230.842
-223.079
-215.747
-208.884
-202.423
-196.314
-190.542
-185.076
-179.939
-174.989
-170.483
-165.927
-162.023
-158.009
-281.407
-279.441
-268.816
-258.399
-247.663
-237.637
-228.254
-219.67
-211.647
-204.15
-197.131
-190.563
-184.392
-178.565
-173.11
-167.898
-163.127
-158.35
-154.275
-149.96
-282.72
-280.211
-269.017
-256.698
-245.029
-234.171
-224.093
-214.823
-206.209
-198.215
-190.761
-183.783
-177.248
-171.122
-165.385
-159.955
-154.948
-149.999
-145.83
-141.303
-281.211
-278.545
-266.186
-252.883
-240.394
-228.8
-218.086
-208.26
-199.145
-190.693
-182.842
-175.539
-168.734
-162.363
-156.417
-150.819
-145.674
-140.606
-136.377
-131.652
-277.079
-274.371
-261.847
-246.839
-233.59
-221.329
-210.058
-199.787
-190.298
-181.546
-173.453
-165.919
-158.913
-152.386
-146.293
-140.613
-135.351
-130.272
-125.97
-121.152
-270.707
-266.789
-252.585
-237.333
-223.588
-211.207
-199.678
-189.218
-179.56
-170.621
-162.361
-154.705
-147.606
-140.982
-134.821
-129.089
-123.746
-118.67
-114.288
-109.399
-259.495
-254.964
-240.691
-225.506
-211.586
-199.091
-187.432
-176.802
-167.034
-158.027
-149.732
-142.037
-134.917
-128.306
-122.174
-116.497
-111.199
-106.227
-101.949
-97.0382
-246.562
-240.897
-226.328
-211.524
-197.19
-184.684
-173.003
-162.4
-152.676
-143.69
-135.423
-127.783
-120.727
-114.164
-108.086
-102.463
-97.2042
-92.3367
-88.0494
-83.1454
-229.769
-223.882
-209.248
-194.549
-180.604
-168.165
-156.701
-146.203
-136.623
-127.796
-119.695
-112.198
-105.285
-98.8848
-92.9782
-87.5267
-82.4198
-77.7573
-73.6332
-68.7294
-211.365
-205.15
-190.024
-175.475
-161.814
-149.749
-138.535
-128.336
-119.015
-110.402
-102.5
-95.2133
-88.4997
-82.2712
-76.5372
-71.2479
-66.3006
-61.8777
-57.8749
-53.1018
-189.928
-183.603
-168.256
-154.562
-141.361
-129.671
-118.936
-109.03
-100.06
-91.7853
-84.2048
-77.2039
-70.7598
-64.816
-59.3584
-54.3115
-49.6038
-45.5319
-41.8208
-37.0667
-167.546
-160.919
-145.268
-132.123
-119.51
-108.272
-97.9841
-88.5522
-79.9539
-72.0145
-64.7324
-58.0188
-51.8292
-46.096
-40.8213
-35.9134
-31.4073
-27.5703
-23.9373
-18.8085
-142.891
-135.813
-120.555
-108.206
-96.3849
-85.7336
-76.0794
-67.1052
-59.0097
-51.5186
-44.6338
-38.2441
-32.3188
-26.8016
-21.6247
-16.7152
-12.2002
-7.95591
-3.33153
1.87938
-185.575
-170.752
-155.755
-149.074
-139.907
-135.514
-129.658
-125.667
-121.528
-117.83
-114.597
-111.265
-108.572
-105.585
-103.259
-100.684
-98.5758
-96.5921
-95.6529
-94.9421
-179.75
-165.717
-150.484
-144.301
-135.126
-130.896
-125.307
-121.653
-117.865
-114.429
-111.478
-108.377
-105.931
-103.165
-101.083
-98.685
-96.7079
-94.8968
-94.0943
-93.4256
-173.861
-160.628
-145.149
-139.286
-130.345
-126.515
-121.229
-117.758
-114.225
-111.018
-108.34
-105.471
-103.273
-100.699
-98.8286
-96.6011
-94.8024
-93.223
-92.4688
-91.8354
-167.787
-155.244
-139.681
-134.387
-125.567
-121.921
-116.926
-113.772
-110.606
-107.654
-105.263
-102.614
-100.655
-98.2929
-96.6671
-94.6091
-92.9608
-91.5227
-90.929
-90.321
-161.538
-149.747
-134.193
-129.285
-120.769
-117.511
-112.895
-109.928
-107.023
-104.287
-102.16
-99.7333
-98.0194
-95.8459
-94.4331
-92.5285
-91.0697
-89.8431
-89.3163
-88.7464
-155.191
-143.988
-128.558
-124.235
-115.987
-112.931
-108.639
-105.97
-103.442
-100.962
-99.114
-96.9085
-95.4221
-93.455
-92.2874
-90.5453
-89.3075
-88.141
-87.7997
-87.2411
-148.594
-138.073
-122.891
-119.029
-111.167
-108.494
-104.639
-102.168
-99.9089
-97.6357
-96.0467
-94.0564
-92.8074
-91.0249
-90.0751
-88.4745
-87.5243
-86.4615
-86.2149
-85.6865
-140.929
-131.846
-117.012
-113.877
-106.356
-103.92
-100.427
-98.242
-96.3645
-94.3482
-93.0294
-91.2593
-90.2279
-88.6496
-87.9408
-86.507
-85.8354
-84.7571
-84.7288
-84.1978
-132.503
-125.55
-111.109
-108.547
-101.529
-99.4456
-96.4524
-94.4709
-92.8717
-91.0626
-89.9937
-88.436
-87.6304
-86.236
-85.7382
-84.4543
-84.0863
-83.0783
-83.1814
-82.6698
-123.824
-118.816
-105.135
-103.175
-96.735
-94.8634
-92.2786
-90.5826
-89.3635
-87.8129
-87.005
-85.6657
-85.0675
-83.8745
-83.6082
-82.5005
-82.4149
-81.4167
-81.7338
-81.2069
-115.684
-111.933
-99.149
-97.6922
-91.8974
-90.3654
-88.3146
-86.8396
-85.9055
-84.568
-84.0009
-82.8718
-82.4863
-81.4748
-81.4112
-80.4624
-80.6588
-79.7808
-80.2215
-79.7135
-107.133
-104.626
-93.0451
-92.1739
-87.0868
-85.7747
-84.169
-82.9941
-82.4346
-81.3577
-81.0414
-80.1285
-79.9397
-79.125
-79.2815
-78.5186
-78.9764
-78.1988
-78.8305
-78.2848
-97.736
-97.185
-86.8755
-86.5651
-82.2251
-81.2571
-80.2032
-79.2737
-79.0059
-78.1518
-78.0675
-77.3632
-77.3729
-76.7356
-77.0841
-76.4901
-77.2153
-76.609
-77.4193
-76.8328
-87.7446
-89.412
-80.6353
-80.9355
-77.3964
-76.6587
-76.0793
-75.4747
-75.5748
-74.9837
-75.1393
-74.6485
-74.843
-74.3953
-74.9495
-74.5496
-75.5236
-75.0728
-76.1506
-75.4469
-76.8491
-81.3978
-74.3391
-75.2591
-72.5424
-72.1546
-72.1272
-71.7957
-72.1925
-71.8336
-72.2108
-71.9255
-72.3019
-72.0245
-72.7564
-72.5332
-73.757
-73.4998
-74.8032
-74.0336
-65.0126
-72.8506
-67.8941
-69.4852
-67.6603
-67.5158
-67.9889
-68.0214
-68.7866
-68.6979
-69.3064
-69.2345
-69.7846
-69.6889
-70.6121
-70.5919
-72.0563
-71.8886
-73.5546
-72.7147
-52.9313
-64.1934
-61.3839
-63.6066
-62.671
-62.886
-63.9193
-64.2764
-65.3622
-65.5255
-66.3529
-66.4891
-67.2108
-67.2769
-68.3637
-68.5233
-70.2488
-70.2616
-72.3436
-71.318
-40.4754
-55.8964
-55.4169
-58.2493
-58.0506
-58.4991
-60.0101
-60.7251
-62.1472
-62.5563
-63.5857
-63.9157
-64.7876
-65.0074
-66.2447
-66.5945
-68.5224
-68.813
-71.3561
-69.9228
-22.8612
-45.5679
-49.2678
-53.1542
-53.6967
-54.4181
-56.3745
-57.4212
-59.1413
-59.7888
-61.0055
-61.5233
-62.5247
-62.8909
-64.266
-64.8435
-66.9257
-67.675
-70.791
-69.0467
-3.8969
-31.3926
-40.0137
-44.9648
-47.3478
-48.2764
-50.8735
-52.5919
-54.8667
-55.9575
-57.4831
-58.3048
-59.5193
-60.1118
-61.7373
-62.5879
-65.3457
-66.1893
-70.0295
-67.2871
28.7264
28.6129
14.0699
6.15299
-6.25555
-11.2174
-18.4524
-22.8204
-27.8923
-31.2816
-34.638
-37.1521
-39.9007
-41.3793
-43.8605
-44.5417
-47.9414
-49.3698
-53.6988
-49.4439
78.5539
66.1978
44.406
33.3907
20.6261
11.6542
3.19375
-2.85591
-8.27686
-13.09
-17.4985
-21.252
-24.6359
-28.0628
-30.7587
-33.7977
-35.8888
-37.9958
-39.2948
-39.2382
88.5771
75.8312
62.0235
51.7667
41.5347
33.0946
25.0269
18.2359
12.192
7.46159
2.95407
-0.632255
-3.87518
-6.30151
-8.70203
-10.4948
-12.2339
-13.8019
-14.412
-14.7658
91.8744
83.2078
72.3992
62.9254
53.8448
46.1316
38.978
32.7417
26.8412
21.3877
16.7278
12.2782
8.45149
4.6531
1.7181
-1.24135
-3.39351
-5.52911
-6.38414
-6.71033
87.6638
79.2537
72.0577
65.1854
58.7911
52.6096
46.927
41.622
36.8044
32.4618
28.4059
24.9334
21.6619
18.9032
16.3361
14.1113
12.2645
10.4564
9.37057
9.06769
86.6138
81.5276
76.2668
70.1466
64.9104
59.4548
54.4664
49.6558
45.129
40.8688
36.8938
33.182
29.7586
26.5867
23.726
21.1548
18.8574
17.0007
15.781
15.3576
82.3839
77.3485
73.6225
69.5805
65.5199
61.6447
57.7376
54.1247
50.4918
47.2227
43.9149
40.9936
38.0509
35.416
32.8692
30.4186
28.2353
25.9891
24.4388
24.2432
81.7579
79.1906
76.1083
72.5519
68.9438
65.6406
62.2851
59.0579
55.7957
52.7573
49.6463
46.8302
43.9038
41.3049
38.6025
36.1845
33.8231
31.5095
30.0334
29.4605
79.6432
76.8817
74.5481
72.2976
69.9344
67.3247
64.6896
62.2127
59.5647
57.1991
54.5878
52.3063
49.7377
47.4843
44.9334
42.5929
40.0282
37.5217
35.6115
34.7868
80.5216
78.8649
76.8546
74.7303
72.3827
70.2656
67.9667
65.941
63.6316
61.5907
59.256
57.2283
54.8107
52.7598
50.1681
47.9706
45.0044
42.5291
39.8137
39.0161
79.7998
78.3123
76.7993
75.4728
73.9149
72.4167
70.6599
69.0431
67.2699
65.6803
63.8534
62.2683
60.3235
58.6736
56.47
54.5986
51.7424
49.5681
45.8734
45.4088
81.1102
80.0715
78.7912
77.4923
76.1373
74.8803
73.5172
72.2879
70.9449
69.7559
68.3843
67.2194
65.7753
64.6206
63.017
61.8637
59.5627
58.8985
54.4323
55.7313
81.4952
80.6762
79.806
79.0293
78.1066
77.2983
76.3567
75.5549
74.6135
73.9041
73.0686
72.4547
71.7623
71.26
70.6451
70.2827
69.5548
69.6516
69.7329
71.6139
82.6727
82.104
81.2915
80.6867
79.9542
79.4063
78.7524
78.3204
77.7753
77.4542
77.1037
76.8943
76.8395
76.7502
77.2058
77.2055
78.4961
78.6198
81.1081
82.3286
83.6031
83.1876
82.6884
82.3101
81.8507
81.5464
81.1582
80.9803
80.729
80.7834
80.653
81.049
81.168
82.1182
82.552
84.2045
85.3353
87.4556
90.3713
91.1701
84.546
84.2323
83.8411
83.5983
83.3291
83.1953
83.0547
83.0703
83.1115
83.3185
83.614
84.1406
84.7028
85.5435
86.4102
87.7813
88.9239
91.3769
93.5368
97.7753
85.337
85.1096
84.8544
84.7038
84.5293
84.5176
84.4319
84.6123
84.6456
85.0489
85.2282
85.8693
86.2701
87.2375
87.9626
89.3332
90.4971
92.3498
93.1942
102.55
86.026
85.8431
85.677
85.5891
85.5513
85.586
85.6964
85.8597
86.0885
86.4285
86.8314
87.4131
87.9553
88.8164
89.4925
90.6782
91.3908
93.0828
93.9532
96.3366
86.4768
86.3385
86.2205
86.1592
86.1354
86.2152
86.273
86.4827
86.7212
87.1021
87.4717
88.0453
88.557
89.3608
89.9692
91.0267
91.6499
92.7942
93.0765
97.8966
86.6522
86.531
86.4403
86.4447
86.4451
86.5212
86.6713
86.8984
87.165
87.5413
87.9776
88.5238
89.1012
89.8358
90.5294
91.4786
92.2155
93.444
94.0566
95.7128
205.32
202.947
199.814
196.302
191.889
187.16
181.408
175.437
168.41
161.135
153.008
143.914
134.923
124.845
114.708
103.722
92.7414
81.0234
69.5913
57.6312
177.133
175.771
173.992
172.12
169.716
167.325
164.34
161.353
157.871
154.254
148.801
143.941
139.809
135.405
130.769
125.843
120.773
115.366
108.982
101.725
140.248
139.238
138.201
136.97
135.686
134.249
132.675
131.065
129.146
127.353
125.034
123.224
120.68
118.425
115.386
111.978
108.496
105.537
102.508
99.8751
127.719
127.052
126.295
125.504
124.604
123.68
122.614
121.543
120.309
119.083
117.73
116.356
114.899
113.393
111.833
109.47
106.89
104.767
102.324
100.573
109.709
109.166
108.586
107.97
107.316
106.622
105.888
105.123
104.296
103.482
102.556
101.698
100.659
99.69
98.4981
97.3142
95.9803
94.6029
92.5698
90.9551
103.603
103.171
102.711
102.239
101.723
101.212
100.635
100.082
99.4419
98.8303
98.1134
97.4306
96.6426
95.9311
95.0679
94.344
93.3942
92.6715
91.3808
89.9642
95.3361
94.9798
94.5944
94.2029
93.7835
93.3602
92.905
92.4563
91.9626
91.497
90.9472
90.4464
89.8266
89.2918
88.57
87.9763
86.9575
85.951
84.7521
83.8375
92.152
91.8579
91.5451
91.2312
90.8936
90.5615
90.1997
89.8517
89.4665
89.1048
88.6933
88.3158
87.8637
87.4507
86.9447
86.4749
85.995
85.2971
84.5569
83.9879
88.7078
88.4463
88.167
87.8845
87.5849
87.2782
86.9577
86.6292
86.2882
85.938
85.5761
85.1895
84.7257
84.2091
83.5556
83.0047
82.3915
81.8441
81.2864
80.7848
87.1725
86.9398
86.6915
86.4507
86.1967
85.94
85.6774
85.4114
85.1373
84.8594
84.5792
84.2845
83.9939
83.6789
83.3676
83.0298
82.6824
82.3449
81.9557
81.6225
86.0713
85.8409
85.5898
85.3446
85.0993
84.8582
84.621
84.3863
84.131
83.8759
83.5942
83.3243
83.0219
82.7312
82.4238
82.1125
81.7938
81.4629
81.1357
80.7868
85.7684
85.6126
85.4508
85.2832
85.1098
84.9302
84.7442
84.5536
84.3558
84.155
83.9447
83.7352
83.5089
83.2822
83.0358
82.8015
82.5484
82.298
82.0365
81.7653
85.6593
85.5061
85.3482
85.1872
85.0215
84.8535
84.6805
84.5066
84.3255
84.1472
83.9566
83.7734
83.5756
83.3767
83.1618
82.9442
82.7101
82.4791
82.2277
81.9805
86.0659
85.9377
85.8093
85.6758
85.5431
85.4042
85.267
85.1226
84.981
84.832
84.6838
84.523
84.3684
84.2081
84.0484
83.8815
83.7132
83.5401
83.362
83.184
86.3409
86.2234
86.1025
85.9829
85.8592
85.7377
85.6116
85.4882
85.3603
85.2339
85.1069
84.9842
84.8554
84.7244
84.5952
84.4641
84.3362
84.2037
84.0768
83.9432
86.883
86.777
86.6726
86.5655
86.4606
86.3525
86.2471
86.1387
86.0325
85.9235
85.8165
85.7073
85.6008
85.4913
85.3804
85.2706
85.1605
85.0511
84.9411
84.8324
87.2471
87.1506
87.0536
86.9584
86.863
86.768
86.6708
86.5791
86.4861
86.3955
86.3044
86.2155
86.1258
86.0394
85.9553
85.8697
85.7868
85.7032
85.6226
85.5405
87.6649
87.5751
87.487
87.3999
87.3139
87.2307
87.1506
87.0678
86.9877
86.9088
86.8315
86.756
86.6816
86.6061
86.5324
86.4602
86.3897
86.321
86.2541
86.1887
87.8843
87.7987
87.7148
87.6327
87.5522
87.4736
87.3967
87.3221
87.2482
87.1754
87.1057
87.0385
86.9741
86.9141
86.8557
86.7999
86.7453
86.6935
86.6428
86.595
88.0317
87.9481
87.8659
87.7857
87.707
87.6302
87.5552
87.482
87.4116
87.3439
87.2772
87.2114
87.1479
87.0862
87.0272
86.9703
86.9159
86.864
86.8142
86.7678
114.365
113.845
111.385
109.178
107.021
104.665
102.144
99.4243
96.4261
93.1371
89.517
85.4725
81.0291
76.0245
70.5337
64.2355
57.3768
49.778
40.0928
35.0704
123.817
124.046
122.615
121.076
119.488
117.67
115.631
113.355
110.808
107.961
104.792
101.223
97.2724
92.7907
87.8361
82.1635
76.0593
69.0004
60.4889
55.3851
134.747
135.521
134.586
133.453
132.255
130.827
129.181
127.325
125.194
122.796
120.081
116.989
113.525
109.565
105.152
100.026
94.5283
87.9244
80.6535
76.0616
146.168
147.116
146.403
145.661
144.852
143.831
142.622
141.211
139.552
137.639
135.414
132.841
129.901
126.478
122.577
118.033
113.042
106.911
100.308
96.6507
157.367
158.542
158.151
157.763
157.332
156.716
155.921
154.947
153.734
152.29
150.553
148.497
146.088
143.235
139.943
136.011
131.596
126.088
119.864
116.073
168.536
169.857
169.774
169.714
169.637
169.4
169.009
168.456
167.696
166.741
165.51
164.014
162.182
159.961
157.302
154.093
150.438
145.752
140.391
136.337
178.719
180.235
180.545
180.859
181.166
181.332
181.364
181.262
180.977
180.512
179.806
178.862
177.606
176.017
174.03
171.57
168.666
164.828
160.596
156.149
188.768
190.533
191.211
191.884
192.559
193.113
193.546
193.856
194.002
193.994
193.771
193.363
192.672
191.726
190.399
188.734
186.622
183.813
180.878
176.354
197.957
199.865
200.858
201.84
202.821
203.707
204.486
205.175
205.74
206.188
206.455
206.55
206.395
206.015
205.29
204.301
202.83
201.004
198.738
195.291
206.54
208.669
210.014
211.338
212.683
213.946
215.129
216.235
217.222
218.096
218.782
219.318
219.621
219.74
219.542
219.1
218.238
217.082
215.372
212.882
214.456
216.727
218.334
219.937
221.543
223.076
224.525
225.896
227.155
228.314
229.339
230.273
230.999
231.552
231.774
231.815
231.411
230.774
229.513
227.611
221.332
223.791
225.694
227.586
229.491
231.334
233.111
234.837
236.477
238.049
239.507
240.855
241.994
242.935
243.574
244.042
244.084
243.928
243.08
241.668
227.99
230.616
232.633
234.682
236.757
238.777
240.754
242.687
244.544
246.326
247.964
249.479
250.783
251.973
252.927
253.745
254.115
254.306
253.771
252.883
233.173
235.8
237.953
240.185
242.454
244.699
246.921
249.115
251.256
253.333
255.311
257.194
258.921
260.553
261.949
263.191
263.967
264.595
264.465
264.215
237.648
240.407
242.78
245.217
247.688
250.125
252.529
254.889
257.183
259.399
261.515
263.519
265.379
267.087
268.55
269.818
270.717
271.464
271.632
271.729
240.664
243.492
245.963
248.51
251.084
253.63
256.155
258.651
261.103
263.505
265.832
268.083
270.211
272.216
274.019
275.628
276.931
278.008
278.579
278.737
243.105
246.003
248.573
251.236
253.92
256.591
259.236
261.869
264.441
266.978
269.404
271.764
273.939
276.004
277.789
279.418
280.687
281.763
282.452
282.455
243.93
246.826
249.469
252.185
254.937
257.651
260.37
263.042
265.7
268.278
270.815
273.235
275.571
277.748
279.774
281.613
283.179
284.582
285.384
286.143
244.004
246.976
249.607
252.352
255.121
257.885
260.624
263.358
266.034
268.681
271.227
273.713
276.042
278.279
280.281
282.16
283.675
285.012
285.563
286.325
242.719
245.708
248.279
250.978
253.714
256.441
259.146
261.847
264.496
267.114
269.645
272.11
274.44
276.653
278.669
280.487
282.023
283.199
283.964
284.09
-35.7331
-36.5401
-37.2568
-38.0391
-38.8439
-39.5673
-40.3703
-41.3859
-42.1138
-42.7091
-43.4354
-44.6839
-46.3899
-47.7481
-49.0983
-49.1304
-49.1895
-48.7305
-49.1831
-49.2063
-31.9054
-32.8565
-33.798
-34.7665
-35.7473
-36.7834
-37.8038
-38.8375
-40.0279
-41.2544
-42.2562
-43.3189
-44.5277
-45.7478
-46.6985
-48.0015
-48.1765
-48.3397
-48.4606
-48.5474
-28.0414
-29.1367
-30.2077
-31.3797
-32.5475
-33.7358
-35.0052
-36.3924
-37.5596
-38.9056
-40.4518
-41.6999
-43.0156
-44.9324
-46.728
-47.2719
-47.3742
-49.3362
-48.3874
-49.6249
-24.1389
-25.4179
-26.6805
-28.0583
-29.4355
-30.8839
-32.3265
-33.8901
-35.4936
-37.0719
-38.6896
-40.512
-42.2002
-43.8629
-45.2612
-46.4345
-48.434
-48.9384
-48.7408
-49.0024
-20.128
-21.6279
-23.0173
-24.5257
-26.0973
-27.7602
-29.4358
-31.2312
-32.9941
-34.9048
-36.8626
-38.8725
-40.9563
-42.7915
-44.8266
-47.1132
-49.4326
-49.4764
-50.1419
-50.0037
-16.0292
-17.704
-19.2739
-20.9992
-22.7456
-24.6726
-26.5762
-28.6248
-30.7436
-32.9155
-35.1755
-37.5443
-39.9301
-42.5024
-44.8779
-47.1912
-48.9369
-50.1078
-51.2068
-51.103
-11.61
-13.4639
-15.1708
-17.0987
-19.042
-21.1774
-23.3488
-25.6666
-28.0614
-30.6007
-33.2322
-35.9595
-38.8516
-41.7104
-44.8436
-47.7558
-50.7408
-53.3642
-53.3182
-53.8623
-7.12576
-9.1006
-10.9373
-13.0646
-15.1768
-17.5514
-19.9815
-22.5852
-25.3433
-28.2457
-31.315
-34.5701
-37.9655
-41.5778
-45.3156
-49.2152
-53.1339
-56.6254
-57.8365
-58.8291
-1.93886
-4.0643
-5.99401
-8.33186
-10.6346
-13.2029
-15.9103
-18.8008
-21.884
-25.1926
-28.7188
-32.4835
-36.5611
-40.9303
-45.5796
-50.6525
-56.1621
-61.1779
-64.8878
-65.9
3.56907
1.29085
-0.724707
-3.21006
-5.68417
-8.42724
-11.3575
-14.4965
-17.8817
-21.5259
-25.4326
-29.6644
-34.2514
-39.1665
-44.5992
-50.4811
-56.985
-63.2706
-69.5517
-70.4642
9.80673
7.41665
5.3965
2.83629
0.218273
-2.64668
-5.77345
-9.13832
-12.7769
-16.7356
-21.0115
-25.6548
-30.72
-36.1893
-42.2631
-48.8501
-56.122
-63.4026
-70.9841
-72.7594
16.9577
14.3776
12.2818
9.6738
6.90683
3.91566
0.635837
-2.9042
-6.74976
-10.9447
-15.4743
-20.4267
-25.845
-31.7089
-38.2236
-45.3275
-52.9798
-61.3512
-69.8461
-71.5923
25.1064
22.3845
20.1968
17.5609
14.6943
11.6215
8.23425
4.55809
0.565732
-3.81515
-8.57557
-13.797
-19.5242
-25.7471
-32.7537
-40.3187
-48.775
-58.4096
-66.9524
-68.9065
33.6115
30.8635
28.7045
26.125
23.2482
20.1619
16.75
13.0357
8.98193
4.52251
-0.312418
-5.64378
-11.4894
-17.8682
-25.0224
-32.7138
-41.5684
-51.0648
-60.7187
-63.6074
43.3413
40.574
38.4067
35.8893
33.0085
29.9275
26.5144
22.7743
18.6922
14.1893
9.27353
3.84215
-2.11301
-8.63611
-15.9903
-23.8521
-33.0454
-42.3914
-51.8644
-55.3965
53.4357
50.6868
48.6065
46.2272
43.4449
40.4513
37.1341
33.4923
29.4973
25.0738
20.2565
14.9046
9.03745
2.53766
-4.72448
-12.5822
-21.7416
-31.1733
-41.0975
-45.1432
64.5264
61.919
59.9386
57.7055
55.0361
52.1423
48.9293
45.3748
41.4675
37.1459
32.4115
27.1556
21.3999
15.0391
7.94053
0.225791
-8.64898
-18.0718
-28.3735
-32.5339
75.9497
73.55
71.6883
69.6296
67.1205
64.3785
61.3366
57.9712
54.2609
50.1381
45.635
40.6086
35.1119
28.9622
22.1529
14.7237
6.03182
-2.80141
-13.4108
-18.0119
89.0416
86.4033
84.6207
82.704
80.3171
77.6811
74.7842
71.573
68.0207
64.1018
59.7991
55.0118
49.7754
43.9286
37.5065
30.3186
22.1578
13.8405
2.80028
-2.02521
104.471
101.568
98.9743
96.7214
94.2481
91.5543
88.6902
85.5994
82.2368
78.5456
74.5309
70.0684
65.1975
59.733
53.7387
47.0115
39.5226
31.6335
21.0847
15.9578
-23.6469
-24.0648
-24.3919
-24.9111
-25.7514
-26.4534
-26.9206
-27.3499
-27.4955
-27.6497
-27.5081
-27.264
-27.0502
-26.1555
-26.1517
-24.4255
-25.1352
-24.8108
-26.9963
-32.5948
-22.3144
-22.6669
-22.8992
-23.3096
-23.9944
-24.4978
-24.7762
-25.0003
-24.9238
-24.8831
-24.5186
-24.0568
-23.5527
-22.4006
-22.3104
-20.5329
-21.4578
-20.6959
-23.5833
-28.3573
-20.9442
-21.2767
-21.4575
-21.6293
-22.1631
-22.4993
-22.5793
-22.6301
-22.35
-22.1253
-21.5464
-20.9281
-20.2846
-19.0333
-18.7447
-16.6397
-17.6503
-16.5621
-20.0991
-23.9861
-19.6628
-19.939
-20.0121
-20.0973
-20.4632
-20.608
-20.4901
-20.343
-19.8485
-19.4377
-18.64
-17.8116
-16.8662
-15.3731
-14.988
-12.7928
-13.9201
-12.349
-16.361
-19.6146
-18.3578
-18.6169
-18.6097
-18.4899
-18.6841
-18.6656
-18.3601
-18.0374
-17.3442
-16.7523
-15.7502
-14.7779
-13.6915
-12.0922
-11.4606
-8.95354
-10.1125
-8.11021
-12.5708
-14.909
-17.138
-17.3559
-17.2055
-17.0326
-17.0366
-16.828
-16.3293
-15.8081
-14.907
-14.1361
-12.9206
-11.7439
-10.3494
-8.53283
-7.77273
-5.15459
-6.31034
-3.81079
-8.55181
-10.1888
-15.9062
-16.1171
-15.8367
-15.5029
-15.3103
-14.9391
-14.2528
-13.5566
-12.4677
-11.5194
-10.1081
-8.79372
-7.25002
-5.31935
-4.2595
-1.37206
-2.46643
0.504938
-4.429
-5.06104
-14.7546
-14.9448
-14.4682
-14.1229
-13.7129
-13.1515
-12.2747
-11.3914
-10.0934
-8.96603
-7.34868
-5.8361
-3.98666
-1.86067
-0.628413
2.37727
1.43858
4.8674
-0.0844454
0.116904
-13.5994
-13.7993
-13.1275
-12.6755
-12.0362
-11.3103
-10.2457
-9.19038
-7.71093
-6.41239
-4.60635
-2.96099
-0.94608
1.30059
2.88036
6.14049
5.29218
9.28237
4.43401
5.64854
-12.5182
-12.7198
-11.7808
-11.3774
-10.4881
-9.56377
-8.31228
-7.07144
-5.38708
-3.91596
-1.91562
-0.0720222
2.24054
4.66205
6.48101
9.84247
9.29127
13.751
9.08275
11.3295
-11.4379
-11.6527
-10.4693
-10
-8.87
-7.76255
-6.32722
-4.91572
-3.05831
-1.41955
0.758942
2.73745
5.2287
7.78183
9.99476
13.5278
13.2807
18.2221
14.0188
17.3459
-10.4243
-10.6699
-9.18845
-8.73142
-7.37522
-6.05218
-4.4348
-2.83467
-0.780334
1.02314
3.38305
5.55757
8.33169
11.0632
13.5734
17.1747
17.3958
22.7683
19.1497
23.4001
-9.41124
-9.65596
-7.94597
-7.3634
-5.81069
-4.28515
-2.48781
-0.715429
1.50322
3.46755
5.99303
8.31075
11.276
14.1553
17.0839
20.8207
21.4886
27.3512
24.5172
30.0167
-8.46061
-8.75721
-6.7222
-6.09506
-4.37404
-2.60587
-0.628887
1.33386
3.73801
5.85816
8.54935
11.0638
14.3023
17.376
20.6432
24.4185
25.691
32.0234
30.0097
36.9545
-7.48279
-7.88097
-5.53694
-4.73447
-2.87823
-0.881199
1.27618
3.40792
5.97086
8.24137
11.0835
13.7522
17.1867
20.4398
24.1276
28.0064
29.8683
36.7046
35.7365
44.5205
-6.64159
-7.1157
-4.3611
-3.45175
-1.41046
0.771772
3.11296
5.43682
8.17639
10.5947
13.5974
16.4588
20.1624
23.6451
27.6811
31.5772
34.1967
41.575
41.7636
52.7657
-5.63651
-6.20368
-3.04047
-2.05014
0.0707157
2.5269
5.04268
7.53806
10.4206
12.9678
16.103
19.1395
23.0508
26.7509
31.1866
35.1923
38.5718
46.4144
48.0018
61.2269
-4.53081
-5.39004
-1.83909
-0.731813
1.32153
4.09093
6.78491
9.46841
12.4917
15.1501
18.4038
21.6317
25.788
29.7496
34.5176
38.5338
42.6287
50.8831
53.6815
69.4311
-4.22696
-4.95181
-1.0546
0.428325
2.26518
5.45717
8.38406
11.2985
14.4654
17.2665
20.6628
24.0763
28.4358
32.7027
37.7766
41.8318
46.8273
56.0992
60.8691
82.1117
-2.74478
-4.33117
0.23285
1.50765
4.43355
7.64709
10.8509
13.8367
17.2688
20.2856
23.9251
27.6225
32.399
37.0325
42.3445
46.4795
53.1533
63.3207
70.9594
97.9399
16.3103
9.02818
16.8675
16.1553
23.1744
24.0668
27.6332
29.6349
33.3885
36.8941
41.6059
46.1634
51.4609
56.545
63.9737
70.258
82.6146
89.3868
106.471
114.624
22.6407
22.5922
24.0071
26.4453
29.4602
32.3754
36.1315
39.5762
43.4122
47.3991
51.8846
57.1728
63.2472
70.3891
78.6558
87.3749
98.3735
108.76
125.123
137.435
39.0941
39.2107
40.3691
41.9818
44.2849
46.3132
49.0073
51.6222
55.0494
58.6223
63.0217
67.9639
73.4396
79.3829
85.6712
92.9296
100.658
109.375
119.285
130.428
43.8017
44.0088
45.1155
47.1228
49.3346
52.0908
54.9869
58.4359
61.9375
66.0753
70.2679
74.9417
79.6462
85.3909
91.1263
97.9013
104.181
111.949
117.738
124.679
52.6101
52.9939
53.9711
55.8301
57.5877
59.7751
62.0955
64.6244
67.4768
70.4865
73.8057
77.3535
81.1048
85.2206
89.1801
93.8422
97.7547
102.946
107.436
113.096
55.2833
55.6252
56.841
58.6286
60.7029
63.0144
65.4679
68.1875
70.9981
74.0483
77.1372
80.4978
83.7871
87.4396
90.8268
94.6621
97.9021
101.678
103.515
106.911
58.9486
59.109
60.3585
62.5199
64.4142
66.5876
68.7349
70.9029
73.2296
75.4705
77.8999
80.244
82.6754
85.1196
87.4181
89.9062
92.0081
94.8807
96.6825
99.1754
60.537
61.093
62.4375
64.6296
66.7873
68.9292
71.1882
73.2881
75.5518
77.6653
79.8727
82.0119
84.1001
86.2382
88.0878
90.3394
92.0612
93.5662
94.285
95.6578
61.7782
62.4471
64.3869
66.6897
69.1239
71.0916
73.2674
74.9769
76.949
78.5146
80.3224
81.7794
83.4114
84.7828
86.1795
87.3432
88.2764
89.669
90.6223
91.6451
63.9388
64.6073
67.2259
69.3788
72.1047
73.8901
76.0319
77.5493
79.3218
80.6711
82.1764
83.3854
84.6729
85.7095
86.8703
87.9304
88.6296
89.3085
89.6493
90.0837
67.8564
68.0339
71.7765
73.3407
75.9425
77.3523
79.0765
80.1788
81.5062
82.4318
83.5133
84.3154
85.2082
85.9114
86.5565
86.8815
87.2428
87.5769
87.9407
88.3187
77.1103
75.2948
79.2819
79.4066
81.3826
82.0191
83.1477
83.7522
84.587
85.1243
85.764
86.2282
86.7097
87.1156
87.4849
87.8841
88.0966
88.2745
88.2411
87.9613
90.714
88.5552
87.8769
87.6422
87.5916
87.6736
87.6216
87.7071
87.7633
87.8314
87.993
88.0457
88.246
88.2924
88.4055
88.3431
88.3132
88.2257
88.081
87.9033
99.3313
98.048
95.2122
94.662
93.1177
92.5765
91.7458
91.2747
90.8462
90.4757
90.2237
89.9258
89.7437
89.4809
89.313
89.0827
88.9302
88.6999
88.488
88.1747
105.941
104.794
101.839
99.4291
98.0412
96.2021
95.4175
94.0338
93.4636
92.5598
92.1758
91.531
91.2084
90.712
90.4165
89.9918
89.6967
89.3023
88.9863
88.5812
111.414
107.151
104.642
102.039
100.522
98.7398
97.6044
96.4396
95.5196
94.5775
93.7887
93.0705
92.4375
91.8591
91.3345
90.8368
90.3769
89.9273
89.5124
89.0844
114.494
104.996
104.208
102.26
101.047
99.4909
98.4428
97.1737
96.3542
95.3562
94.6688
93.8577
93.2589
92.5563