/*--------------------------------*- C++ -*----------------------------------*\
  =========                 |
  \\      /  F ield         | OpenFOAM: The Open Source CFD Toolbox
   \\    /   O peration     | Website:  https://openfoam.org
    \\  /    A nd           | Version:  9
     \\/     M anipulation  |
\*---------------------------------------------------------------------------*/
FoamFile
{
    format      ascii;
    class       surfaceScalarField;
    location    "3.7";
    object      phi;
}
// * * * * * * * * * * * * * * * * * * * * * * * * * * * * * * * * * * * * * //

dimensions      [0 3 -1 0 0 0 0];

internalField   nonuniform List<scalar> 
92080
(
0.00180913
-0.465393
0.463583
-0.015484
-0.958841
0.976135
-0.0500748
-1.06736
1.10195
-0.0866967
-1.05205
1.08867
-0.122464
-1.03513
1.0709
-0.158051
-1.01829
1.05387
-0.193291
-1.00343
1.03867
-0.22767
-0.988962
1.02334
-0.26202
-0.974349
1.0087
-0.296823
-0.961189
0.995991
-0.331289
-0.950045
0.98451
-0.365566
-0.938754
0.973031
-0.399807
-0.929223
0.963464
-0.433962
-0.920064
0.954219
-0.467876
-0.911192
0.945105
-0.501147
-0.902786
0.936057
-0.533809
-0.894709
0.927371
-0.566317
-0.886151
0.918659
-0.597855
-0.87779
0.909328
-0.871958
0.900906
-0.626803
-0.000727246
-0.464665
-0.0212589
-0.93831
-0.0600865
-1.02853
-0.0995729
-1.01256
-0.138173
-0.996531
-0.176156
-0.980302
-0.213525
-0.966061
-0.25063
-0.951857
-0.287059
-0.93792
-0.323023
-0.925225
-0.358843
-0.914224
-0.394361
-0.903237
-0.429671
-0.893913
-0.464066
-0.885668
-0.497872
-0.877386
-0.531342
-0.869316
-0.564014
-0.862037
-0.595258
-0.854908
-0.62459
-0.848458
-0.843001
-0.653547
-0.00291391
-0.461751
-0.0264855
-0.914738
-0.0662959
-0.988721
-0.107029
-0.971829
-0.146786
-0.956774
-0.186408
-0.940681
-0.225537
-0.926933
-0.263507
-0.913887
-0.301457
-0.89997
-0.339792
-0.88689
-0.377753
-0.876263
-0.415504
-0.865486
-0.453316
-0.8561
-0.491051
-0.847933
-0.528127
-0.84031
-0.564561
-0.832882
-0.600628
-0.82597
-0.636461
-0.819075
-0.671681
-0.813238
-0.808234
-0.706448
-0.00464003
-0.457111
-0.0325755
-0.886803
-0.0758764
-0.94542
-0.119423
-0.928282
-0.162041
-0.914156
-0.203617
-0.899105
-0.244847
-0.885703
-0.285477
-0.873257
-0.32453
-0.860917
-0.36314
-0.84828
-0.401893
-0.83751
-0.44021
-0.827169
-0.478643
-0.817668
-0.51651
-0.810066
-0.554106
-0.802713
-0.591675
-0.795313
-0.628712
-0.788933
-0.665178
-0.782609
-0.701309
-0.777106
-0.771809
-0.737734
-0.00643767
-0.450674
-0.0386245
-0.854616
-0.0820413
-0.902003
-0.125627
-0.884696
-0.168899
-0.870883
-0.212133
-0.855871
-0.254854
-0.842983
-0.296757
-0.831354
-0.3385
-0.819173
-0.379731
-0.807049
-0.420598
-0.796642
-0.461166
-0.786601
-0.50188
-0.776954
-0.543131
-0.768816
-0.583279
-0.762565
-0.622801
-0.755791
-0.662533
-0.749202
-0.702157
-0.742985
-0.741156
-0.738107
-0.733345
-0.77962
-0.00471892
-0.445955
-0.0423924
-0.816942
-0.0889869
-0.855409
-0.135831
-0.837852
-0.181678
-0.825036
-0.226494
-0.811055
-0.27143
-0.798047
-0.315647
-0.787137
-0.357971
-0.776849
-0.399752
-0.765268
-0.441427
-0.754968
-0.482428
-0.745601
-0.523209
-0.736172
-0.564256
-0.727769
-0.606204
-0.720617
-0.647294
-0.714701
-0.68751
-0.708985
-0.728063
-0.702433
-0.768845
-0.697324
-0.692639
-0.809552
-0.000979448
-0.444975
-0.0411664
-0.776756
-0.0897105
-0.806865
-0.137887
-0.789675
-0.185881
-0.777042
-0.23311
-0.763826
-0.279499
-0.751658
-0.32567
-0.740966
-0.371522
-0.730997
-0.415664
-0.721126
-0.459334
-0.711297
-0.502422
-0.702513
-0.545072
-0.693523
-0.587752
-0.685088
-0.630034
-0.678335
-0.673305
-0.67143
-0.715819
-0.666471
-0.757334
-0.660918
-0.799319
-0.65534
-0.650818
-0.841139
0.000277913
-0.445253
-0.0428103
-0.733667
-0.095351
-0.754324
-0.146536
-0.73849
-0.196164
-0.727414
-0.244618
-0.715371
-0.293063
-0.703214
-0.34045
-0.693579
-0.386582
-0.684865
-0.432148
-0.675559
-0.476678
-0.666767
-0.520438
-0.658753
-0.563231
-0.65073
-0.606428
-0.641891
-0.649965
-0.634799
-0.692791
-0.628603
-0.736703
-0.622559
-0.779627
-0.617994
-0.822019
-0.612948
-0.607505
-0.865333
0.001013
-0.446266
-0.0443997
-0.688255
-0.0983216
-0.700402
-0.150608
-0.686204
-0.202493
-0.675529
-0.252446
-0.665419
-0.301488
-0.654171
-0.351022
-0.644045
-0.400014
-0.635873
-0.44723
-0.628343
-0.493984
-0.620014
-0.53973
-0.613007
-0.583883
-0.606577
-0.626744
-0.599029
-0.670292
-0.591251
-0.714148
-0.584748
-0.757466
-0.579241
-0.801671
-0.573789
-0.844215
-0.570405
-0.565746
-0.885973
-0.000991878
-0.445274
-0.050366
-0.638881
-0.106567
-0.644201
-0.159922
-0.632849
-0.21215
-0.623301
-0.263274
-0.614295
-0.313216
-0.60423
-0.362171
-0.59509
-0.411426
-0.586619
-0.46045
-0.579318
-0.508165
-0.572299
-0.55615
-0.565021
-0.602926
-0.559802
-0.647761
-0.554195
-0.691091
-0.54792
-0.73481
-0.541029
-0.778821
-0.53523
-0.823096
-0.529514
-0.868489
-0.525011
-0.521478
-0.912757
-0.0080379
-0.437236
-0.0589273
-0.587991
-0.11474
-0.588389
-0.169127
-0.578462
-0.222568
-0.56986
-0.273889
-0.562974
-0.324048
-0.55407
-0.373922
-0.545216
-0.42292
-0.537621
-0.471748
-0.530491
-0.520283
-0.523764
-0.568236
-0.517068
-0.617017
-0.511021
-0.664449
-0.506763
-0.710085
-0.502284
-0.753731
-0.497383
-0.796786
-0.492175
-0.839493
-0.486807
-0.882674
-0.48183
-0.477259
-0.926893
-0.0174241
-0.419812
-0.0698321
-0.535583
-0.125319
-0.532901
-0.178596
-0.525185
-0.23218
-0.516277
-0.285323
-0.509831
-0.336408
-0.502985
-0.386376
-0.495247
-0.436465
-0.487532
-0.485708
-0.481248
-0.534454
-0.475018
-0.582811
-0.468711
-0.631268
-0.462564
-0.680963
-0.457067
-0.729847
-0.453401
-0.777879
-0.44935
-0.82378
-0.446275
-0.868323
-0.442264
-0.911375
-0.438778
-0.434558
-0.954075
-0.0256269
-0.394185
-0.0788563
-0.482354
-0.134739
-0.477019
-0.189417
-0.470507
-0.242433
-0.46326
-0.29472
-0.457545
-0.346415
-0.451291
-0.396453
-0.445209
-0.445631
-0.438354
-0.494884
-0.431995
-0.54313
-0.426771
-0.590643
-0.421199
-0.637524
-0.415683
-0.684828
-0.409764
-0.733482
-0.404747
-0.782395
-0.400438
-0.832124
-0.396546
-0.880761
-0.393626
-0.929147
-0.390392
-0.387949
-0.975756
-0.032309
-0.361876
-0.0863752
-0.428287
-0.141962
-0.421432
-0.19629
-0.416179
-0.25129
-0.408261
-0.305569
-0.403266
-0.358544
-0.398315
-0.41058
-0.393173
-0.461319
-0.387615
-0.511433
-0.381881
-0.561415
-0.37679
-0.610098
-0.372515
-0.657714
-0.368067
-0.703856
-0.363622
-0.749875
-0.358727
-0.79595
-0.354363
-0.842605
-0.349891
-0.890142
-0.346088
-0.937988
-0.342546
-0.339372
-0.986566
-0.0383631
-0.323513
-0.0925367
-0.374114
-0.148606
-0.365363
-0.203233
-0.361551
-0.256036
-0.355458
-0.309482
-0.349819
-0.362721
-0.345077
-0.414477
-0.341417
-0.465267
-0.336825
-0.515051
-0.332097
-0.56487
-0.326971
-0.6148
-0.322585
-0.664195
-0.318671
-0.712788
-0.315029
-0.760026
-0.31149
-0.806551
-0.307838
-0.852033
-0.304409
-0.897307
-0.300814
-0.942167
-0.297686
-0.294283
-0.987255
-0.0426998
-0.280814
-0.0971444
-0.319669
-0.152558
-0.309949
-0.208547
-0.305562
-0.264005
-0.300001
-0.317756
-0.296068
-0.371958
-0.290875
-0.425926
-0.287449
-0.478372
-0.284379
-0.529411
-0.281058
-0.578887
-0.277495
-0.628068
-0.273405
-0.676877
-0.269862
-0.725793
-0.266113
-0.774247
-0.263036
-0.822433
-0.259651
-0.870034
-0.256809
-0.917221
-0.253626
-0.963903
-0.251005
-0.248021
-1.01017
-0.0463187
-0.234495
-0.103643
-0.262345
-0.159483
-0.254109
-0.212979
-0.252066
-0.265831
-0.247149
-0.318673
-0.243225
-0.370326
-0.239222
-0.423182
-0.234593
-0.476117
-0.231443
-0.528958
-0.228217
-0.580633
-0.22582
-0.631251
-0.222786
-0.680817
-0.220296
-0.729658
-0.217273
-0.777871
-0.214823
-0.825568
-0.211955
-0.872752
-0.209624
-0.919521
-0.206857
-0.965908
-0.204619
-0.201902
-1.01203
-0.0527238
-0.181771
-0.113443
-0.201625
-0.170881
-0.196671
-0.227907
-0.195041
-0.282056
-0.193
-0.335063
-0.190218
-0.386704
-0.187581
-0.436818
-0.184479
-0.486929
-0.181332
-0.536948
-0.178199
-0.587135
-0.175633
-0.637045
-0.172875
-0.68668
-0.170661
-0.735801
-0.168151
-0.784526
-0.166097
-0.832691
-0.16379
-0.880467
-0.161848
-0.927575
-0.159749
-0.974314
-0.15788
-0.155971
-1.02024
-0.052709
-0.129062
-0.108673
-0.145661
-0.162389
-0.142955
-0.218629
-0.1388
-0.274823
-0.136806
-0.330901
-0.134141
-0.385855
-0.132626
-0.440097
-0.130237
-0.492491
-0.128938
-0.544183
-0.126507
-0.594778
-0.125038
-0.644852
-0.122801
-0.694243
-0.121271
-0.743105
-0.11929
-0.791467
-0.117735
-0.839293
-0.115964
-0.886756
-0.114385
-0.933731
-0.112774
-0.980401
-0.11121
-0.109702
-1.02667
-0.0518013
-0.0772608
-0.109835
-0.0876274
-0.164034
-0.0887561
-0.218904
-0.0839299
-0.273195
-0.0825158
-0.32737
-0.0799656
-0.380748
-0.0792484
-0.433901
-0.0770837
-0.48658
-0.0762597
-0.538454
-0.074633
-0.590001
-0.0734914
-0.640588
-0.072214
-0.690909
-0.0709491
-0.740368
-0.0698313
-0.789509
-0.0685943
-0.837929
-0.0675437
-0.88595
-0.0663639
-0.93338
-0.0653442
-0.980367
-0.0642227
-1.02686
-0.063207
0.00235235
0.0619842
-0.0643365
0.040048
0.00559594
-0.0432916
0.146773
-0.163249
0.0565242
0.371526
-0.528607
0.303854
0.576528
-0.886137
0.681135
0.701979
-1.09538
0.969933
0.76107
-1.18073
1.12164
0.787807
-1.20613
1.17939
0.802154
-1.21086
1.19651
0.811618
-1.20903
1.19956
0.818005
-1.20427
1.19788
0.824361
-1.19878
1.19242
0.832005
-1.19616
1.18852
0.839363
-1.19254
1.18518
0.845617
-1.19058
1.18433
0.851532
-1.18657
1.18066
0.857876
-1.18541
1.17906
0.864321
-1.18207
1.17563
0.869822
-1.18062
1.17512
-1.17568
0.873657
1.17185
0.0130685
0.0489157
0.0724073
-0.0537429
0.227011
-0.317853
0.439111
-0.740707
0.587614
-1.03464
0.663051
-1.17082
0.694877
-1.21256
0.70983
-1.22108
0.718883
-1.21991
0.725027
-1.21517
0.730555
-1.20979
0.736804
-1.20503
0.742296
-1.20166
0.747629
-1.19787
0.752734
-1.19568
0.757957
-1.19179
0.76289
-1.19034
0.766261
-1.18544
0.769005
-1.18336
-1.17761
0.770927
0.0259833
0.0229325
0.102627
-0.130386
0.287985
-0.503212
0.457493
-0.910215
0.555557
-1.1327
0.596154
-1.21142
0.613391
-1.2298
0.622975
-1.23066
0.629608
-1.22655
0.634192
-1.21976
0.638992
-1.21459
0.64341
-1.20945
0.647983
-1.20623
0.652475
-1.20236
0.656215
-1.19942
0.659613
-1.19519
0.662066
-1.19279
0.664298
-1.18768
0.666234
-1.1853
-1.17789
0.666521
0.0412259
-0.0182934
0.134163
-0.223324
0.312158
-0.681207
0.440936
-1.03899
0.501499
-1.19327
0.526399
-1.23632
0.537801
-1.2412
0.545226
-1.23809
0.548737
-1.23006
0.552461
-1.22348
0.556194
-1.21833
0.56001
-1.21326
0.563177
-1.2094
0.565661
-1.20485
0.567611
-1.20138
0.569295
-1.19688
0.570275
-1.19377
0.571041
-1.18844
0.570678
-1.18493
-1.1756
0.568382
0.0403705
-0.0586639
0.159689
-0.342642
0.310057
-0.831576
0.399479
-1.12841
0.437341
-1.23113
0.451178
-1.25015
0.458535
-1.24855
0.461815
-1.24137
0.464783
-1.23303
0.468127
-1.22682
0.470715
-1.22092
0.472496
-1.21504
0.473847
-1.21075
0.474914
-1.20592
0.475349
-1.20181
0.475329
-1.19686
0.474602
-1.19305
0.473481
-1.18732
0.471052
-1.1825
-1.17243
0.467882
0.0376115
-0.0962754
0.165759
-0.470789
0.283598
-0.949415
0.3471
-1.19192
0.370069
-1.2541
0.379286
-1.25937
0.384757
-1.25403
0.387663
-1.24427
0.390458
-1.23582
0.392106
-1.22847
0.393034
-1.22184
0.393751
-1.21576
0.393924
-1.21092
0.393327
-1.20532
0.392066
-1.20055
0.39042
-1.19521
0.38812
-1.19075
0.385336
-1.18454
0.381008
-1.17818
-1.16777
0.376352
0.0400618
-0.136337
0.155639
-0.586367
0.24979
-1.04357
0.292567
-1.23469
0.306603
-1.26813
0.313666
-1.26644
0.315604
-1.25596
0.316784
-1.24545
0.317205
-1.23624
0.317221
-1.22849
0.316544
-1.22117
0.315064
-1.21428
0.312872
-1.20873
0.310212
-1.20266
0.306996
-1.19733
0.303299
-1.19151
0.298871
-1.18632
0.293846
-1.17951
0.287692
-1.17202
-1.16193
0.281852
0.044709
-0.181046
0.144023
-0.685681
0.214665
-1.11421
0.240995
-1.26102
0.248975
-1.27611
0.251082
-1.26854
0.251427
-1.25631
0.251353
-1.24538
0.250418
-1.23531
0.248467
-1.22654
0.245674
-1.21837
0.242387
-1.21099
0.238602
-1.20494
0.234099
-1.19816
0.228941
-1.19217
0.22335
-1.18592
0.217157
-1.18013
0.210338
-1.17269
0.202706
-1.16439
-1.154
0.19477
0.0506914
-0.231738
0.128959
-0.763948
0.180967
-1.16622
0.195894
-1.27595
0.198936
-1.27915
0.197837
-1.26744
0.195842
-1.25431
0.192717
-1.24225
0.188758
-1.23135
0.184256
-1.22204
0.179151
-1.21327
0.173406
-1.20525
0.166991
-1.19853
0.160117
-1.19128
0.152747
-1.1848
0.144871
-1.17805
0.136307
-1.17156
0.127238
-1.16362
0.11748
-1.15463
-1.14414
0.107624
0.045908
-0.277646
0.109416
-0.827455
0.146361
-1.20316
0.152127
-1.28172
0.150784
-1.27781
0.146181
-1.26284
0.141446
-1.24958
0.136044
-1.23685
0.129982
-1.22528
0.123209
-1.21526
0.115756
-1.20582
0.107758
-1.19725
0.0993267
-1.1901
0.090323
-1.18228
0.080798
-1.17528
0.070919
-1.16817
0.0606507
-1.16129
0.0500142
-1.15299
0.0388748
-1.14349
-1.13268
0.0274102
0.0386226
-0.316268
0.0930983
-0.881931
0.115985
-1.22605
0.115933
-1.28166
0.110159
-1.27204
0.10334
-1.25602
0.0957707
-1.24201
0.087367
-1.22845
0.0782659
-1.21618
0.0685978
-1.20559
0.0584076
-1.19563
0.0477015
-1.18654
0.0364869
-1.17888
0.024921
-1.17071
0.0129561
-1.16331
0.000591001
-1.1558
-0.0121754
-1.14853
-0.0251792
-1.13998
-0.0385139
-1.13016
-1.1192
-0.0519932
0.0313181
-0.347586
0.0714878
-0.922101
0.0852337
-1.23979
0.0799878
-1.27642
0.0708368
-1.26289
0.0610173
-1.2462
0.0503969
-1.23139
0.0391859
-1.21724
0.0273744
-1.20437
0.0151104
-1.19333
0.0023782
-1.18289
-0.010827
-1.17334
-0.02439
-1.16532
-0.0383395
-1.15676
-0.0526558
-1.149
-0.067197
-1.14126
-0.0819777
-1.13375
-0.0968029
-1.12516
-0.111868
-1.11509
-1.10429
-0.126778
0.0304208
-0.378007
0.0633739
-0.955054
0.0661102
-1.24253
0.055332
-1.26564
0.0416838
-1.24924
0.0280494
-1.23257
0.0139501
-1.21729
-0.000560557
-1.20273
-0.0154173
-1.18952
-0.0307476
-1.178
-0.0464499
-1.16719
-0.0625468
-1.15724
-0.0789763
-1.14889
-0.0956373
-1.1401
-0.112588
-1.13205
-0.129813
-1.12404
-0.147263
-1.1163
-0.164643
-1.10778
-0.181945
-1.09779
-1.0869
-0.199329
0.0222696
-0.400277
0.0432664
-0.976051
0.0392491
-1.23851
0.0243761
-1.25077
0.00816913
-1.23303
-0.00822264
-1.21618
-0.0249738
-1.20054
-0.0421994
-1.1855
-0.0599542
-1.17176
-0.077904
-1.16005
-0.096109
-1.14899
-0.11467
-1.13868
-0.133528
-1.13003
-0.152591
-1.12104
-0.171823
-1.11282
-0.191187
-1.10467
-0.210616
-1.09687
-0.229876
-1.08852
-0.248656
-1.07901
-1.06837
-0.267187
0.0193986
-0.419675
0.0343201
-0.990972
0.023786
-1.22798
0.00562278
-1.2326
-0.0139407
-1.21347
-0.0337594
-1.19636
-0.0539285
-1.18037
-0.0742999
-1.16513
-0.0948599
-1.1512
-0.115873
-1.13904
-0.137128
-1.12773
-0.158672
-1.11714
-0.180411
-1.10829
-0.202318
-1.09913
-0.224453
-1.09068
-0.24678
-1.08234
-0.269232
-1.07442
-0.291462
-1.06629
-0.313204
-1.05727
-1.04677
-0.334804
0.0144539
-0.434129
0.02188
-0.998398
0.00471742
-1.21082
-0.0180582
-1.20983
-0.0407287
-1.1908
-0.063641
-1.17344
-0.0865322
-1.15748
-0.109751
-1.14191
-0.133369
-1.12758
-0.15697
-1.11544
-0.180625
-1.10408
-0.204516
-1.09324
-0.228653
-1.08416
-0.252866
-1.07492
-0.277074
-1.06647
-0.301258
-1.05816
-0.325487
-1.05019
-0.349544
-1.04223
-0.372546
-1.03426
-1.02403
-0.395286
0.0122163
-0.446346
0.0148325
-1.00101
-0.00574562
-1.19024
-0.0317033
-1.18387
-0.0577669
-1.16473
-0.0837532
-1.14746
-0.109841
-1.13139
-0.135796
-1.11596
-0.161812
-1.10157
-0.188276
-1.08897
-0.214853
-1.0775
-0.241586
-1.06651
-0.268376
-1.05737
-0.295317
-1.04798
-0.322565
-1.03922
-0.349981
-1.03074
-0.377422
-1.02275
-0.404753
-1.0149
-0.431147
-1.00787
-0.998032
-0.457147
0.00779596
-0.454142
0.00379392
-0.997012
-0.0224212
-1.16402
-0.0512854
-1.15501
-0.0799264
-1.13609
-0.108589
-1.1188
-0.136979
-1.103
-0.165637
-1.0873
-0.194551
-1.07265
-0.223344
-1.06018
-0.2521
-1.04874
-0.281051
-1.03756
-0.310238
-1.02818
-0.339318
-1.0189
-0.368264
-1.01028
-0.397254
-1.00175
-0.426477
-0.993523
-0.455846
-0.985532
-0.484791
-0.978927
-0.96997
-0.512853
0.00630326
-0.460445
-0.00115918
-0.98955
-0.0302481
-1.13493
-0.0621044
-1.12315
-0.0934794
-1.10472
-0.124784
-1.08749
-0.155944
-1.07184
-0.186651
-1.05659
-0.217395
-1.04191
-0.248668
-1.02891
-0.280014
-1.0174
-0.311424
-1.00615
-0.342888
-0.996714
-0.374681
-0.987107
-0.406934
-0.978025
-0.439309
-0.969379
-0.471717
-0.961116
-0.504297
-0.952951
-0.537926
-0.945298
-0.938033
-0.569863
0.00313855
-0.0102768
-0.0432618
-0.0777413
-0.111561
-0.145179
-0.178349
-0.2116
-0.244808
-0.277723
-0.31061
-0.343729
-0.376979
-0.409867
-0.442786
-0.476108
-0.509853
-0.544146
-0.580116
-0.617243
0.785317
-10.2988
10.3871
0.720834
-10.0826
10.1471
0.656939
-10.0551
10.119
0.593116
-9.97001
10.0338
0.537279
-9.94535
10.0012
0.487733
-9.92736
9.97691
0.43991
-9.88215
9.92997
0.394797
-9.87583
9.92095
0.352891
-9.86534
9.90724
0.313135
-9.85444
9.8942
0.276854
-9.83282
9.8691
0.24395
-9.82154
9.85444
0.213949
-9.8133
9.84331
0.186087
-9.7976
9.82546
0.16115
-9.78292
9.80786
0.138619
-9.78037
9.8029
0.119338
-9.68826
9.70754
0.0915421
-9.16201
9.1898
0.0465984
-7.46514
7.51008
-4.07416
4.12076
0.68788
-10.2157
0.624913
-10.0197
0.562921
-9.99309
0.5049
-9.91199
0.454849
-9.8953
0.407592
-9.8801
0.361179
-9.83574
0.319681
-9.83434
0.283488
-9.82914
0.250016
-9.82097
0.220293
-9.8031
0.193984
-9.79523
0.170389
-9.78971
0.149286
-9.77649
0.13151
-9.76514
0.116146
-9.765
0.10336
-9.67547
0.0812964
-9.13994
0.043059
-7.4269
-4.0311
0.585366
-10.1346
0.525259
-9.95955
0.467406
-9.93523
0.414144
-9.85872
0.368674
-9.84983
0.32834
-9.83977
0.291606
-9.799
0.258139
-9.80087
0.228112
-9.79912
0.200034
-9.79289
0.175574
-9.77864
0.154246
-9.7739
0.135755
-9.77122
0.119491
-9.76023
0.106256
-9.75191
0.0954278
-9.75418
0.0881649
-9.66821
0.0731321
-9.12491
0.0409147
-7.39468
-3.99019
0.490644
-10.0568
0.432076
-9.90098
0.376189
-9.87935
0.328506
-9.81104
0.288637
-9.80997
0.250621
-9.80175
0.215013
-9.76339
0.184525
-9.77038
0.159671
-9.77426
0.137683
-9.77091
0.119562
-9.76052
0.104627
-9.75896
0.0924208
-9.75901
0.0827806
-9.75059
0.0765804
-9.74571
0.0729586
-9.75055
0.0722817
-9.66753
0.0631211
-9.11575
0.0375223
-7.36909
-3.95266
0.391952
-9.98089
0.334569
-9.84359
0.282961
-9.82774
0.240226
-9.76831
0.203821
-9.77356
0.171823
-9.76975
0.145853
-9.73742
0.123687
-9.74822
0.105072
-9.75565
0.0884142
-9.75425
0.0754348
-9.74754
0.0654181
-9.74895
0.0582391
-9.75183
0.0534044
-9.74575
0.0516889
-9.74399
0.0524048
-9.75127
0.0570564
-9.67218
0.0549163
-9.11361
0.0354014
-7.34957
-3.91726
0.300215
-9.90475
0.243489
-9.78687
0.19394
-9.77819
0.156163
-9.73053
0.12499
-9.74239
0.095911
-9.74067
0.0713783
-9.71289
0.0519242
-9.72876
0.038043
-9.74177
0.0271958
-9.7434
0.0203303
-9.74068
0.0164882
-9.74511
0.0154378
-9.75078
0.0170587
-9.74737
0.0222089
-9.74914
0.0300952
-9.75916
0.0412713
-9.68336
0.0451233
-9.11746
0.032144
-7.33659
-3.88512
0.206381
-9.82928
0.15049
-9.73098
0.104406
-9.73211
0.0709368
-9.69706
0.0427228
-9.71417
0.0193183
-9.71727
0.0038419
-9.69741
-0.00766494
-9.71725
-0.0154788
-9.73395
-0.0210876
-9.73779
-0.0229661
-9.7388
-0.0219762
-9.7461
-0.0181101
-9.75465
-0.0117872
-9.7537
-0.00226676
-9.75866
0.00982203
-9.77125
0.0261423
-9.69968
0.0369762
-9.1283
0.0300814
-7.3297
-3.85504
0.118483
-9.75299
0.0620852
-9.67458
0.0174673
-9.68749
-0.0114522
-9.66814
-0.0349016
-9.69072
-0.0551493
-9.69702
-0.0687629
-9.6838
-0.0774732
-9.70854
-0.0807508
-9.73067
-0.0807929
-9.73775
-0.0768149
-9.74277
-0.0698787
-9.75303
-0.0601077
-9.76442
-0.047507
-9.7663
-0.0313934
-9.77478
-0.0122052
-9.79043
0.01057
-9.72246
0.0274506
-9.14518
0.0269764
-7.32922
-3.82806
0.027771
-9.67314
-0.0256979
-9.62111
-0.0674545
-9.64573
-0.0940413
-9.64155
-0.114127
-9.67064
-0.128628
-9.68252
-0.133801
-9.67863
-0.135306
-9.70704
-0.132865
-9.73311
-0.127813
-9.7428
-0.119016
-9.75157
-0.107369
-9.76468
-0.0928439
-9.77895
-0.0757138
-9.78343
-0.0554175
-9.79507
-0.0321621
-9.81369
-0.00433447
-9.75028
0.0194446
-9.16896
0.0250068
-7.33478
-3.80305
-0.0556965
-9.59003
-0.111684
-9.56512
-0.15084
-9.60658
-0.174448
-9.61795
-0.189811
-9.65527
-0.20136
-9.67097
-0.204531
-9.67546
-0.202965
-9.7086
-0.196043
-9.74004
-0.185654
-9.75319
-0.171274
-9.76595
-0.153937
-9.78202
-0.133743
-9.79914
-0.110587
-9.80658
-0.0839385
-9.82172
-0.0538241
-9.8438
-0.0196403
-9.78447
0.0101659
-9.19876
0.0220881
-7.34671
-3.78097
-0.140352
-9.50168
-0.194393
-9.51108
-0.23249
-9.56848
-0.253982
-9.59645
-0.26554
-9.64372
-0.271122
-9.66539
-0.266626
-9.67995
-0.258628
-9.7166
-0.246416
-9.75225
-0.231137
-9.76847
-0.212117
-9.78497
-0.190226
-9.80391
-0.165476
-9.82389
-0.138011
-9.83405
-0.107354
-9.85238
-0.0733686
-9.87779
-0.0342481
-9.82359
0.00226252
-9.23527
0.0202413
-7.36468
-3.76072
-0.218294
-9.41016
-0.275452
-9.45392
-0.311841
-9.53209
-0.331254
-9.57704
-0.338757
-9.63621
-0.34173
-9.66242
-0.335164
-9.68652
-0.323795
-9.72797
-0.307153
-9.76889
-0.286772
-9.78885
-0.262456
-9.80929
-0.235145
-9.83122
-0.205003
-9.85403
-0.171806
-9.86725
-0.135108
-9.88908
-0.094552
-9.91834
-0.0492408
-9.8689
-0.00676725
-9.27775
0.0175166
-7.38897
-3.74321
-0.29802
-9.31147
-0.353076
-9.39887
-0.39001
-9.49516
-0.407681
-9.55937
-0.410641
-9.63325
-0.407471
-9.66559
-0.394068
-9.69992
-0.376976
-9.74506
-0.355477
-9.79039
-0.330445
-9.81388
-0.301685
-9.83805
-0.269999
-9.8629
-0.235523
-9.88851
-0.19826
-9.90451
-0.157757
-9.92958
-0.113581
-9.96252
-0.0635466
-9.91893
-0.0144623
-9.32683
0.0157867
-7.41922
-3.72742
-0.372122
-9.20653
-0.429672
-9.34132
-0.46486
-9.45997
-0.481063
-9.54317
-0.480623
-9.63369
-0.475268
-9.67094
-0.459911
-9.71528
-0.439271
-9.7657
-0.413437
-9.81622
-0.383559
-9.84376
-0.349792
-9.87182
-0.312978
-9.89972
-0.273404
-9.92808
-0.230751
-9.94716
-0.184564
-9.97577
-0.13417
-10.0129
-0.0782628
-9.97484
-0.0233262
-9.38177
0.0133126
-7.45586
-3.71411
-0.446818
-9.09452
-0.503186
-9.28495
-0.538505
-9.42465
-0.553502
-9.52817
-0.548753
-9.63844
-0.536932
-9.68276
-0.515457
-9.73675
-0.489779
-9.79138
-0.45947
-9.84653
-0.425187
-9.87804
-0.387181
-9.90982
-0.346185
-9.94071
-0.302506
-9.97176
-0.256022
-9.99365
-0.20626
-10.0255
-0.152572
-10.0666
-0.0922891
-10.0351
-0.0309875
-9.44307
0.0118802
-7.49872
-3.70223
-0.516359
-8.97345
-0.575388
-9.22592
-0.608755
-9.39128
-0.6221
-9.51483
-0.614732
-9.64581
-0.601317
-9.69618
-0.578037
-9.76003
-0.548831
-9.82059
-0.514337
-9.88103
-0.475485
-9.91689
-0.432769
-9.95254
-0.38695
-9.98653
-0.33848
-10.0202
-0.286992
-10.0451
-0.231926
-10.0806
-0.172411
-10.1261
-0.106614
-10.1009
-0.0396371
-9.51005
0.00991152
-7.54827
-3.69232
-0.586909
-8.84368
-0.645279
-9.16755
-0.676951
-9.35961
-0.689111
-9.50267
-0.678399
-9.65652
-0.658527
-9.71605
-0.629891
-9.78867
-0.596381
-9.8541
-0.557762
-9.91965
-0.51476
-9.9599
-0.468033
-9.99926
-0.418249
-10.0363
-0.365912
-10.0726
-0.310827
-10.1002
-0.252467
-10.139
-0.190019
-10.1886
-0.120313
-10.1706
-0.0475123
-9.58285
0.00857213
-7.60436
-3.68374
-0.654792
-8.70175
-0.71544
-9.1069
-0.743811
-9.33124
-0.753418
-9.49306
-0.740649
-9.66929
-0.719827
-9.73687
-0.689255
-9.81924
-0.652223
-9.89113
-0.609538
-9.96233
-0.562176
-10.0073
-0.510995
-10.0504
-0.45666
-10.0907
-0.399821
-10.1294
-0.340115
-10.1599
-0.276833
-10.2022
-0.208975
-10.2564
-0.134058
-10.2455
-0.055642
-9.66126
0.00713011
-7.66713
-3.67661
-0.711681
-8.55993
-0.780886
-9.0377
-0.808293
-9.30383
-0.816188
-9.48516
-0.800416
-9.68506
-0.773479
-9.76381
-0.738232
-9.85449
-0.697423
-9.93194
-0.650818
-10.0089
-0.599455
-10.0586
-0.544408
-10.1055
-0.486249
-10.1488
-0.42569
-10.19
-0.362597
-10.223
-0.296276
-10.2686
-0.225881
-10.3268
-0.147865
-10.3236
-0.063922
-9.74521
0.00648188
-7.73753
-3.67013
-0.764971
-8.4122
-0.839499
-8.96317
-0.864203
-9.27913
-0.869477
-9.47989
-0.854565
-9.69998
-0.827208
-9.79116
-0.790875
-9.89082
-0.747163
-9.97565
-0.697494
-10.0586
-0.642286
-10.1138
-0.583484
-10.1643
-0.521177
-10.2111
-0.456775
-10.2544
-0.389442
-10.2904
-0.319133
-10.3389
-0.243538
-10.4024
-0.161743
-10.4054
-0.0715499
-9.8354
0.0056223
-7.81471
-3.66451
8.82424
-7.8822
-9.35424
8.05085
-8.18977
7.30653
-8.53481
6.60677
-8.78013
5.93265
-9.02586
5.33386
-9.19237
4.80417
-9.36113
4.3298
-9.50128
3.88938
-9.61819
3.47378
-9.69822
3.08617
-9.77669
2.72446
-9.8494
2.37824
-9.90815
2.054
-9.96611
1.73612
-10.021
1.42033
-10.0866
1.09503
-10.0801
0.751945
-9.49231
0.345103
-7.40786
-3.31941
5.37566
-7.70269
-5.55518
5.10804
-7.92215
4.80284
-8.22961
4.48234
-8.45963
4.14853
-8.69205
3.82733
-8.87117
3.50784
-9.04163
3.18787
-9.18132
2.86479
-9.29511
2.56008
-9.39351
2.27313
-9.48974
1.99873
-9.575
1.73893
-9.64835
1.49556
-9.72274
1.26043
-9.78585
1.03941
-9.8656
0.803871
-9.84452
0.539802
-9.22824
0.179243
-7.0473
-3.14016
3.98292
-7.72817
-3.95743
3.96296
-7.9022
3.86923
-8.13588
3.73275
-8.32314
3.54446
-8.50376
3.3399
-8.66662
3.11348
-8.8152
2.87861
-8.94645
2.64278
-9.05928
2.4134
-9.16412
2.18183
-9.25818
1.95102
-9.34419
1.71937
-9.4167
1.48804
-9.49141
1.25572
-9.55354
1.01623
-9.62611
0.774859
-9.60315
0.525806
-8.97919
0.227289
-6.74879
-2.91288
2.69344
-7.82954
-2.59207
2.74484
-7.9536
2.70917
-8.10021
2.64514
-8.25912
2.5521
-8.41071
2.43254
-8.54707
2.28762
-8.67028
2.1262
-8.78503
1.95591
-8.889
1.78046
-8.98867
1.60002
-9.07774
1.42063
-9.16479
1.24546
-9.24153
1.07443
-9.32038
0.907036
-9.38614
0.741017
-9.46009
0.577521
-9.43965
0.404972
-8.80664
0.175236
-6.51905
-2.73764
1.98982
-7.92512
-1.89425
2.0431
-8.00688
2.08025
-8.13736
2.08438
-8.26325
2.04677
-8.37311
1.98081
-8.4811
1.89089
-8.58036
1.78364
-8.67778
1.66304
-8.76839
1.53271
-8.85835
1.39447
-8.9395
1.24953
-9.01986
1.09994
-9.09195
0.945422
-9.16586
0.786723
-9.22744
0.624438
-9.2978
0.461806
-9.27702
0.324373
-8.66921
0.16191
-6.35659
-2.57573
1.42984
-8.00514
-1.34983
1.50146
-8.07849
1.52924
-8.16514
1.51527
-8.24928
1.48058
-8.33842
1.42958
-8.4301
1.36361
-8.51439
1.28345
-8.59762
1.19242
-8.67736
1.09026
-8.75619
0.982284
-8.83152
0.871188
-8.90876
0.758667
-8.97943
0.644937
-9.05213
0.534022
-9.11652
0.425009
-9.18879
0.322929
-9.17494
0.2412
-8.58748
0.133186
-6.24858
-2.44254
1.05467
-8.06058
-0.999228
1.09716
-8.12097
1.1141
-8.18209
1.12721
-8.26238
1.12696
-8.33816
1.10147
-8.40461
1.06059
-8.47352
1.00434
-8.54136
0.935953
-8.60898
0.856583
-8.67682
0.770457
-8.74539
0.673998
-8.81231
0.57296
-8.87839
0.467163
-8.94633
0.359844
-9.00921
0.252779
-9.08173
0.149589
-9.07175
0.0975635
-8.53545
0.0745718
-6.22558
-2.36797
0.804882
-8.10234
-0.763118
0.837087
-8.15318
0.856878
-8.20188
0.853966
-8.25947
0.825767
-8.30996
0.783953
-8.3628
0.734577
-8.42414
0.67913
-8.48592
0.617735
-8.54759
0.547982
-8.60707
0.471232
-8.66864
0.389435
-8.73051
0.305023
-8.79398
0.217911
-8.85922
0.133076
-8.92437
0.0457374
-8.99439
-0.0307859
-8.99523
-0.041511
-8.52473
0.0381498
-6.30524
-2.32982
0.580116
-8.12554
-0.556921
0.590185
-8.16325
0.591927
-8.20362
0.580696
-8.24824
0.563414
-8.29268
0.5424
-8.34179
0.508953
-8.39069
0.459637
-8.4366
0.401613
-8.48956
0.336939
-8.54239
0.26805
-8.59975
0.190318
-8.65278
0.107766
-8.71142
0.0192465
-8.7707
-0.0702347
-8.83489
-0.159314
-8.90531
-0.229948
-8.9246
-0.217628
-8.53705
-0.0371909
-6.48568
-2.36701
0.444405
-8.13522
-0.434728
0.445854
-8.1647
0.44065
-8.19842
0.425937
-8.23353
0.401893
-8.26864
0.363164
-8.30306
0.313195
-8.34073
0.257344
-8.38075
0.195645
-8.42786
0.12668
-8.47343
0.050016
-8.52309
-0.0313321
-8.57143
-0.116171
-8.62658
-0.206995
-8.67988
-0.300307
-8.74158
-0.400399
-8.80522
-0.479139
-8.84586
-0.462307
-8.55388
-0.182178
-6.76581
-2.54919
0.312781
-8.13235
-0.315647
0.303301
-8.15522
0.285802
-8.18092
0.258619
-8.20635
0.224668
-8.23469
0.184418
-8.26281
0.14071
-8.29702
0.0897819
-8.32982
0.0270025
-8.36508
-0.044919
-8.40151
-0.125113
-8.44289
-0.214303
-8.48224
-0.312489
-8.5284
-0.420619
-8.57175
-0.536919
-8.62528
-0.666595
-8.67554
-0.784132
-8.72832
-0.799089
-8.53892
-0.426025
-7.13887
-2.97522
0.228073
-8.12386
-0.23656
0.21339
-8.14053
0.193079
-8.16061
0.166841
-8.18011
0.133357
-8.2012
0.0931437
-8.2226
0.0435495
-8.24742
-0.0162003
-8.27007
-0.0829571
-8.29833
-0.159699
-8.32476
-0.24652
-8.35607
-0.343011
-8.38575
-0.450611
-8.4208
-0.571935
-8.45043
-0.708621
-8.48859
-0.869818
-8.51434
-1.03633
-8.56181
-1.09737
-8.47788
-0.766984
-7.46926
-3.7422
0.165225
-8.10746
-0.181632
0.142864
-8.11817
0.114842
-8.13259
0.0803841
-8.14565
0.0415823
-8.1624
-0.0041786
-8.17683
-0.0553952
-8.19621
-0.112816
-8.21265
-0.178157
-8.23299
-0.252572
-8.25035
-0.335628
-8.27302
-0.431349
-8.29003
-0.537156
-8.31499
-0.655472
-8.33211
-0.79044
-8.35362
-0.945758
-8.35902
-1.13581
-8.37176
-1.28123
-8.33246
-1.05033
-7.70017
-4.79252
0.116915
-8.09006
-0.134306
0.0961676
-8.09742
0.0716884
-8.10811
0.0427829
-8.11675
0.00905855
-8.12868
-0.0296486
-8.13813
-0.0745608
-8.15129
-0.125743
-8.16147
-0.184215
-8.17451
-0.25028
-8.18428
-0.324417
-8.19888
-0.408497
-8.20595
-0.50557
-8.21792
-0.615391
-8.22229
-0.741989
-8.22703
-0.876408
-8.22461
-1.03895
-8.20922
-1.19462
-8.17679
-1.01576
-7.87902
-5.80829
0.0858829
-8.07063
-0.10532
0.0629825
-8.07452
0.0359218
-8.08105
0.00598155
-8.0868
-0.0278584
-8.09484
-0.0649726
-8.10101
-0.10702
-8.10925
-0.153117
-8.11537
-0.201987
-8.12564
-0.258654
-8.12762
-0.321835
-8.1357
-0.390402
-8.13738
-0.462574
-8.14575
-0.542893
-8.14197
-0.628361
-8.14156
-0.723846
-8.12912
-0.824101
-8.10896
-0.926882
-8.07401
-0.841001
-7.96491
-6.64929
0.0624939
-8.05512
-0.078005
0.045252
-8.05728
0.0253935
-8.06119
0.00238455
-8.0638
-0.0235943
-8.06886
-0.0521691
-8.07244
-0.0840098
-8.07741
-0.119776
-8.0796
-0.160565
-8.08486
-0.203327
-8.08485
-0.250517
-8.08851
-0.300368
-8.08753
-0.356691
-8.08942
-0.414777
-8.08388
-0.475792
-8.08054
-0.53619
-8.06872
-0.586066
-8.05909
-0.632271
-8.0278
-0.609562
-7.98761
-7.25885
0.0430031
-8.04024
-0.0578772
0.0271135
-8.04139
0.0094555
-8.04353
-0.0106228
-8.04372
-0.0324848
-8.047
-0.0562607
-8.04866
-0.0816958
-8.05197
-0.108089
-8.05321
-0.136581
-8.05636
-0.165828
-8.05561
-0.196502
-8.05783
-0.226162
-8.05787
-0.25668
-8.05891
-0.285819
-8.05474
-0.313544
-8.05282
-0.337729
-8.04454
-0.355325
-8.04149
-0.353436
-8.02969
-0.328646
-8.0124
-7.5875
0.029681
-8.02966
-0.0402673
0.0189089
-8.03062
0.00687738
-8.0315
-0.00610564
-8.03073
-0.0204882
-8.03261
-0.0360513
-8.0331
-0.0537862
-8.03424