/*--------------------------------*- C++ -*----------------------------------*\
  =========                 |
  \\      /  F ield         | OpenFOAM: The Open Source CFD Toolbox
   \\    /   O peration     | Website:  https://openfoam.org
    \\  /    A nd           | Version:  9
     \\/     M anipulation  |
\*---------------------------------------------------------------------------*/
FoamFile
{
    format      ascii;
    class       volVectorField;
    location    "3.7";
    object      U;
}
// * * * * * * * * * * * * * * * * * * * * * * * * * * * * * * * * * * * * * //

dimensions      [0 1 -1 0 0 0 0];

internalField   nonuniform List<vector> 
46400
(
(8.26893 -8.14885 -5.94987e-19)
(17.5566 -16.6297 6.34231e-19)
(19.2467 -19.0942 -6.83711e-20)
(18.7479 -19.1678 3.20369e-20)
(18.16 -19.1454 -5.30056e-20)
(17.5687 -19.1395 -5.57922e-19)
(17.0683 -19.159 2.81613e-19)
(16.5465 -19.149 -4.0462e-20)
(16.0185 -19.1005 3.13309e-20)
(15.5734 -19.1203 -2.31721e-20)
(15.155 -19.1659 1.59171e-20)
(14.755 -19.1875 0)
(14.3623 -19.2264 -8.70393e-20)
(14.0064 -19.2616 8.92434e-20)
(13.667 -19.3256 -8.78129e-22)
(13.3383 -19.3537 -4.77444e-20)
(12.9913 -19.3927 -3.60728e-20)
(12.6826 -19.3655 4.80475e-20)
(12.3774 -19.3389 1.44268e-19)
(11.93 -19.5523 -1.28586e-19)
(8.62461 -7.83788 0)
(17.8344 -15.6843 -3.31047e-20)
(19.2768 -17.8119 0)
(18.6283 -17.8649 -3.6155e-19)
(18.0688 -17.886 2.66083e-19)
(17.4576 -17.9565 -6.24262e-20)
(16.9226 -17.968 0)
(16.4128 -18.0279 4.04624e-20)
(15.9389 -18.0902 -3.1331e-20)
(15.4628 -18.1017 2.31712e-20)
(15.026 -18.1653 -2.66832e-20)
(14.6139 -18.1948 4.50551e-20)
(14.2435 -18.2851 -3.75378e-20)
(13.898 -18.3416 0)
(13.5378 -18.3896 6.33843e-21)
(13.2288 -18.4425 1.06298e-20)
(12.9261 -18.5232 0)
(12.6712 -18.552 -2.3754e-19)
(12.4175 -18.588 -7.47883e-20)
(12.0578 -18.7875 2.43061e-19)
(8.92839 -7.39043 -2.55601e-19)
(17.9209 -14.7034 1.93295e-19)
(19.1451 -16.4106 -2.53674e-19)
(18.5309 -16.5946 -1.42477e-19)
(17.9727 -16.6487 1.39878e-19)
(17.3733 -16.7416 0)
(16.8637 -16.8526 3.02489e-20)
(16.338 -16.9114 -3.52324e-20)
(15.8019 -16.9517 -1.03549e-19)
(15.3563 -17.0381 1.07979e-19)
(14.9226 -17.1416 1.75337e-19)
(14.5159 -17.2211 5.15504e-21)
(14.1123 -17.3145 -1.70461e-19)
(13.7704 -17.4226 0)
(13.4365 -17.5451 2.99872e-19)
(13.1028 -17.6189 -2.95322e-19)
(12.7716 -17.7171 0)
(12.4885 -17.7646 -1.70028e-20)
(12.2064 -17.8604 3.62933e-20)
(11.8264 -18.1179 -3.90158e-19)
(9.17983 -6.91751 1.06962e-19)
(17.9117 -13.6795 -4.57115e-20)
(18.9228 -15.1053 -5.63665e-20)
(18.1902 -15.2772 5.56617e-20)
(17.6487 -15.4055 -1.14923e-20)
(17.0432 -15.5511 2.89656e-20)
(16.5061 -15.6642 1.00025e-19)
(16.0327 -15.8231 -3.33829e-19)
(15.5547 -15.9553 3.02637e-19)
(15.0634 -16.0066 -2.57918e-20)
(14.6359 -16.1438 0)
(14.2298 -16.2295 3.52542e-20)
(13.855 -16.3706 -3.90758e-20)
(13.5095 -16.4793 0)
(13.1664 -16.6017 4.49825e-19)
(12.8735 -16.724 -3.76687e-19)
(12.5748 -16.8649 0)
(12.3125 -16.9503 5.17278e-20)
(12.0532 -17.0571 6.85037e-20)
(11.676 -17.3361 5.2418e-19)
(9.33289 -6.45649 0)
(17.7985 -12.6216 0)
(18.552 -13.7655 -7.63524e-20)
(17.9041 -14.0308 3.46168e-20)
(17.3636 -14.1869 -1.69049e-19)
(16.792 -14.3718 1.48346e-19)
(16.2736 -14.5655 0)
(15.7605 -14.7001 2.26676e-19)
(15.256 -14.8603 -2.68552e-19)
(14.8178 -15.0086 -7.469e-20)
(14.3677 -15.1568 -7.7525e-20)
(13.9683 -15.2971 0)
(13.5541 -15.4304 5.82414e-19)
(13.2254 -15.6011 -5.73315e-19)
(12.8972 -15.7779 0)
(12.5611 -15.8936 -6.80769e-19)
(12.2497 -16.0538 6.05311e-19)
(11.9783 -16.1688 6.24865e-19)
(11.7175 -16.3213 -6.76909e-19)
(11.3558 -16.6197 0)
(9.47164 -5.96845 0)
(17.5225 -11.4368 0)
(18.1267 -12.5062 0)
(17.3886 -12.7563 -3.24635e-20)
(16.841 -12.9822 0)
(16.252 -13.1888 0)
(15.724 -13.4048 0)
(15.289 -13.6479 -9.36415e-20)
(14.8195 -13.8584 0)
(14.3467 -13.9864 7.46922e-20)
(13.9364 -14.1945 -2.29524e-20)
(13.5432 -14.3385 -8.38758e-19)
(13.1654 -14.5243 6.22741e-19)
(12.8019 -14.6565 -8.56028e-19)
(12.4942 -14.8661 6.37999e-19)
(12.2178 -15.054 0)
(11.9081 -15.2249 -7.60146e-19)
(11.6384 -15.3554 6.461e-19)
(11.3877 -15.5201 0)
(11.0354 -15.8497 -1.07107e-19)
(9.6841 -5.48008 2.52154e-19)
(17.113 -10.2318 8.66253e-20)
(17.5388 -11.16 3.42838e-19)
(16.8829 -11.4971 -3.71116e-19)
(16.3636 -11.7859 -3.94125e-19)
(15.8317 -12.0635 7.98667e-19)
(15.2963 -12.3344 -9.46925e-19)
(14.8075 -12.5489 7.56949e-20)
(14.3633 -12.8373 3.07121e-19)
(13.945 -13.0531 0)
(13.497 -13.2567 -2.24776e-20)
(13.1254 -13.4647 -2.14519e-20)
(12.7247 -13.6469 1.02579e-19)
(12.3931 -13.848 8.91711e-19)
(12.044 -14.0297 -7.93958e-19)
(11.7448 -14.2199 -1.02528e-18)
(11.4748 -14.4537 8.905e-19)
(11.1958 -14.597 -1.66227e-20)
(10.945 -14.7702 -1.17578e-19)
(10.614 -15.115 -8.28579e-19)
(9.90825 -5.03765 -1.15304e-19)
(16.5701 -9.06995 3.54474e-20)
(16.8619 -9.94415 -1.31602e-19)
(16.1579 -10.2879 -5.30447e-19)
(15.6034 -10.6285 3.49547e-19)
(15.0683 -10.9131 0)
(14.573 -11.2418 7.92873e-19)
(14.1627 -11.5455 -3.77303e-19)
(13.7166 -11.8332 2.66565e-19)
(13.3126 -12.0772 1.45146e-19)
(12.931 -12.3514 -2.71816e-19)
(12.5643 -12.561 6.5391e-19)
(12.2114 -12.8031 1.42793e-19)
(11.8516 -12.9688 -7.98333e-19)
(11.5636 -13.2287 2.24025e-18)
(11.2573 -13.4074 -9.16608e-19)
(10.9783 -13.6402 1.1704e-18)
(10.7415 -13.8434 -7.63614e-19)
(10.4794 -14.0054 2.51734e-19)
(10.1522 -14.3561 1.22024e-18)
(10.1727 -4.58743 6.4505e-19)
(15.9079 -7.98088 -1.25452e-19)
(15.9663 -8.69946 -3.24975e-20)
(15.3916 -9.11485 3.04688e-19)
(14.926 -9.55545 1.40232e-19)
(14.4587 -9.90729 1.69599e-19)
(13.9312 -10.2463 -7.78916e-19)
(13.4921 -10.5442 4.78972e-19)
(13.1082 -10.924 -1.45272e-19)
(12.7238 -11.2047 -1.45137e-19)
(12.3253 -11.4945 -1.44647e-19)
(11.9986 -11.7678 -1.6375e-19)
(11.65 -12.0231 -3.04586e-19)
(11.3229 -12.2388 1.06663e-18)
(10.9814 -12.4388 -1.48711e-18)
(10.7267 -12.6857 -1.55126e-19)
(10.4416 -12.9005 1.58553e-20)
(10.2127 -13.1142 -1.12782e-18)
(10.0006 -13.3369 8.44535e-19)
(9.6952 -13.6407 -1.34401e-18)
(10.358 -4.16187 6.55456e-19)
(15.0891 -6.9352 -1.6075e-18)
(15.0495 -7.64095 1.07328e-18)
(14.4675 -8.05133 -1.67546e-19)
(13.9386 -8.49759 -1.96023e-19)
(13.5152 -8.87701 7.61762e-19)
(13.078 -9.28936 -9.17173e-19)
(12.6729 -9.61734 0)
(12.2688 -9.97107 7.20414e-19)
(11.9486 -10.3172 -7.08411e-19)
(11.6003 -10.6501 -5.18736e-19)
(11.28 -10.9389 6.73832e-19)
(11.0002 -11.275 1.61783e-19)
(10.6974 -11.5192 -6.74212e-19)
(10.3979 -11.7762 1.57724e-19)
(10.0916 -11.9643 8.08632e-19)
(9.84698 -12.2365 -1.43643e-18)
(9.59127 -12.4189 9.49544e-19)
(9.3941 -12.6762 -1.36771e-20)
(9.13902 -13.0201 -1.32601e-18)
(10.4191 -3.81835 9.38349e-19)
(14.1518 -5.939 -6.29998e-19)
(13.8999 -6.61341 4.29562e-19)
(13.5071 -7.07827 1.24664e-20)
(13.1097 -7.62265 -8.56141e-19)
(12.7215 -8.02791 -8.09697e-19)
(12.2727 -8.44269 1.01269e-18)
(11.901 -8.79714 -6.00932e-19)
(11.5378 -9.19303 8.00593e-19)
(11.191 -9.50797 0)
(10.8699 -9.87836 1.84593e-20)
(10.5567 -10.1731 1.82482e-19)
(10.2758 -10.5138 1.96495e-19)
(10.044 -10.8334 -1.92828e-19)
(9.77993 -11.1226 0)
(9.53287 -11.3755 1.85442e-19)
(9.25947 -11.6002 0)
(9.04009 -11.8208 3.42866e-19)
(8.80558 -12.019 1.67431e-18)
(8.58924 -12.3597 -9.93243e-21)
(10.2145 -3.41437 5.33956e-19)
(13.1259 -5.07152 -1.09413e-19)
(12.8937 -5.77179 -1.67339e-18)
(12.4243 -6.20292 9.37065e-19)
(11.9731 -6.71444 2.21135e-19)
(11.6706 -7.18029 -2.18898e-19)
(11.3143 -7.65732 -9.09672e-19)
(10.9477 -8.02209 6.80552e-19)
(10.6072 -8.4312 0)
(10.32 -8.79964 0)
(10.0105 -9.16158 -1.0531e-18)
(9.73296 -9.49587 8.35724e-19)
(9.443 -9.82357 -1.96493e-19)
(9.2076 -10.1508 -6.08179e-19)
(8.99516 -10.502 3.94488e-21)
(8.77852 -10.7963 1.35588e-18)
(8.5753 -11.1105 -7.57041e-19)
(8.34783 -11.3267 5.58711e-19)
(8.15037 -11.5824 -9.0058e-19)
(7.89498 -11.8509 0)
(9.78934 -2.9533 -4.80847e-19)
(11.995 -4.26258 7.83235e-19)
(11.6401 -4.93024 1.36376e-19)
(11.3944 -5.45216 1.34513e-19)
(11.029 -6.01534 0)
(10.7024 -6.4506 1.00492e-18)
(10.3837 -6.94802 -9.87317e-19)
(10.0943 -7.35635 1.25567e-19)
(9.76582 -7.76421 0)
(9.48616 -8.12977 9.31705e-19)
(9.22479 -8.5222 -7.98321e-19)
(8.95926 -8.84407 8.93688e-19)
(8.70775 -9.1925 -8.79485e-19)
(8.45501 -9.48039 8.55931e-19)
(8.24881 -9.82579 -7.34507e-19)
(8.0558 -10.1358 -8.18765e-19)
(7.88422 -10.4777 1.60719e-18)
(7.73136 -10.7825 -6.87767e-19)
(7.56807 -11.0765 9.87899e-20)
(7.39993 -11.4386 8.22082e-19)
(9.16176 -2.4693 -3.93497e-19)
(10.867 -3.54049 4.30942e-19)
(10.5599 -4.23874 -1.36387e-19)
(10.1847 -4.71253 -1.34511e-19)
(9.84813 -5.29556 0)
(9.60913 -5.8022 0)
(9.31574 -6.31689 0)
(9.04775 -6.75835 -2.59234e-19)
(8.77598 -7.2095 -1.01557e-18)
(8.51203 -7.59495 1.99251e-18)
(8.27491 -8.00447 -1.09566e-18)
(8.05594 -8.37112 -1.22353e-19)
(7.82287 -8.72403 0)
(7.59756 -9.04034 0)
(7.36186 -9.33729 -2.22317e-19)
(7.15959 -9.63478 0)
(6.95106 -9.92148 8.47239e-19)
(6.78365 -10.2116 -1.04209e-18)
(6.61493 -10.4913 -9.06116e-19)
(6.44763 -10.8574 8.7687e-19)
(8.36877 -1.99874 4.15171e-19)
(9.6057 -2.88579 7.70378e-19)
(9.22964 -3.56481 1.55035e-21)
(9.08827 -4.12538 2.72522e-22)
(8.74423 -4.68969 1.49576e-19)
(8.49204 -5.16963 -4.2715e-19)
(8.27798 -5.71335 0)
(8.0666 -6.17372 -4.14891e-19)
(7.83546 -6.63251 1.40654e-19)
(7.6149 -7.04077 5.27415e-19)
(7.3955 -7.44462 5.12054e-19)
(7.21331 -7.83456 -3.81429e-19)
(7.04013 -8.2211 9.7665e-19)
(6.87559 -8.57802 -8.39121e-19)
(6.70594 -8.92178 1.04503e-18)
(6.53907 -9.22845 -1.94204e-18)
(6.37437 -9.5387 8.95199e-19)
(6.21359 -9.80109 1.06356e-19)
(6.06617 -10.0798 8.44821e-19)
(5.90641 -10.3813 -9.17971e-19)
(7.42644 -1.54948 1.45789e-19)
(8.43613 -2.33797 -1.5745e-19)
(8.09249 -3.02454 6.40487e-19)
(7.81969 -3.55718 -6.2865e-19)
(7.61241 -4.19026 -3.07549e-19)
(7.37734 -4.70343 -7.49018e-19)
(7.13611 -5.2283 2.77929e-21)
(6.96721 -5.7353 5.78418e-19)
(6.7761 -6.21944 -1.37697e-19)
(6.58712 -6.65785 0)
(6.38227 -7.07286 0)
(6.18863 -7.44944 0)
(6.00918 -7.83325 0)
(5.84763 -8.1833 4.84333e-21)
(5.69642 -8.54811 0)
(5.55308 -8.86922 1.1647e-19)
(5.41472 -9.21079 4.61473e-19)
(5.28489 -9.4968 -1.35513e-18)
(5.15949 -9.80179 9.99601e-19)
(5.02961 -10.1165 -9.44561e-19)
(6.3526 -1.13196 0)
(7.06712 -1.88156 -8.66516e-20)
(6.70113 -2.57569 0)
(6.58016 -3.14625 2.44398e-19)
(6.31916 -3.70587 -1.6462e-19)
(6.19008 -4.24443 -6.27083e-19)
(6.00407 -4.75808 3.52529e-21)
(5.84399 -5.23648 6.01952e-19)
(5.72213 -5.74382 -5.83631e-19)
(5.60126 -6.19887 1.14329e-18)
(5.48532 -6.66936 -4.67457e-21)
(5.34914 -7.06723 -5.46453e-19)
(5.2222 -7.48486 5.282e-19)
(5.08287 -7.83362 -6.47075e-19)
(4.95979 -8.21247 0)
(4.83013 -8.52585 -4.89737e-19)
(4.71341 -8.87702 4.82429e-19)
(4.59077 -9.15588 0)
(4.48319 -9.46624 -1.12299e-19)
(4.3568 -9.77493 0)
(5.2119 -0.79626 8.66082e-20)
(5.72013 -1.60584 8.69495e-20)
(5.51415 -2.28795 0)
(5.39167 -2.92075 3.36795e-19)
(5.26924 -3.53147 -4.17501e-19)
(5.07647 -4.05292 2.4154e-19)
(4.93836 -4.59284 -7.1454e-19)
(4.75543 -5.04405 3.10618e-19)
(4.60374 -5.51755 -7.64353e-20)
(4.45826 -5.93582 0)
(4.34471 -6.3845 -7.26534e-20)
(4.23393 -6.77704 -7.08175e-20)
(4.13639 -7.19652 -6.90232e-20)
(4.03963 -7.55616 0)
(3.94922 -7.94282 -5.16051e-19)
(3.8592 -8.26993 1.07512e-18)
(3.77539 -8.62817 -9.23546e-19)
(3.69164 -8.9233 4.8313e-19)
(3.61396 -9.23664 5.92357e-20)
(3.53213 -9.5486 5.01395e-19)
(3.82672 -0.501165 -1.35347e-19)
(4.18029 -1.27961 -1.81919e-19)
(4.03037 -1.87577 4.59035e-22)
(3.96525 -2.50735 4.79447e-19)
(3.88358 -3.12314 -1.29912e-19)
(3.84713 -3.7103 -8.38614e-20)
(3.76338 -4.27885 8.14556e-20)
(3.71483 -4.80086 1.59281e-19)
(3.63065 -5.31337 7.64242e-20)
(3.55246 -5.76101 -3.00322e-19)
(3.46575 -6.22341 3.30985e-19)
(3.37732 -6.62 7.08179e-20)
(3.29753 -7.04181 3.46888e-19)
(3.21234 -7.4005 -2.77377e-21)
(3.13865 -7.78563 3.06641e-20)
(3.06156 -8.11289 -5.80817e-19)
(2.9915 -8.46738 1.59221e-19)
(2.9233 -8.76604 0)
(2.85817 -9.07721 -2.90707e-20)
(2.79455 -9.39184 -2.56175e-19)
(2.58646 -0.284008 4.66651e-20)
(3.00466 -1.10917 -9.28547e-20)
(2.97618 -1.70843 1.82069e-19)
(2.78712 -2.34869 -4.44943e-20)
(2.72525 -2.92842 -4.41095e-20)
(2.58303 -3.5034 0)
(2.54848 -4.0478 -8.24929e-20)
(2.43543 -4.55851 1.61489e-19)
(2.41484 -5.06892 -7.90555e-20)
(2.33418 -5.52862 7.63669e-20)
(2.31143 -5.99585 -3.80473e-20)
(2.25504 -6.41284 -7.24804e-20)
(2.22585 -6.83705 1.41937e-19)
(2.18255 -7.21745 -1.38288e-19)
(2.14897 -7.60323 3.43087e-20)
(2.11089 -7.94996 2.34432e-34)
(2.0747 -8.30496 -3.18876e-20)
(2.03824 -8.61882 1.86728e-19)
(2.00093 -8.93007 -9.19738e-20)
(1.96376 -9.25065 -6.58541e-20)
(-0.180797 1.66673 5.49087e-20)
(0.21295 0.72312 4.00168e-20)
(0.763099 -2.61599 0)
(3.15355 -10.3198 2.33241e-20)
(6.15806 -19.9289 3.71765e-20)
(8.10799 -25.9916 3.64912e-20)
(8.95886 -28.855 0)
(9.20066 -29.7432 3.38557e-20)
(9.25978 -29.9795 0)
(9.23704 -29.9568 0)
(9.16442 -29.8858 -3.034e-20)
(9.08551 -29.703 8.68299e-22)
(9.00637 -29.6467 6.03042e-20)
(8.98024 -29.5794 0)
(8.87994 -29.534 2.7804e-20)
(8.84615 -29.422 2.71228e-20)
(8.7408 -29.3851 2.63385e-20)
(8.71851 -29.3274 0)
(8.61694 -29.3058 -4.77354e-20)
(8.59167 -29.2 4.52159e-20)
(-0.174229 1.43 1.15203e-19)
(0.456142 -0.407405 -1.98363e-19)
(1.64201 -5.45878 0)
(5.07906 -15.8421 -1.83317e-19)
(7.66427 -23.8713 1.86292e-19)
(9.03547 -28.138 -3.29279e-19)
(9.47565 -29.5097 1.39635e-19)
(9.57697 -29.8783 9.37316e-20)
(9.55823 -29.8687 -4.12194e-19)
(9.50571 -29.8024 2.47906e-19)
(9.40967 -29.6442 -3.13574e-20)
(9.36041 -29.5563 2.41296e-19)
(9.27404 -29.4876 -3.65209e-21)
(9.23062 -29.3782 -2.30116e-19)
(9.12857 -29.3329 -2.79447e-20)
(9.09855 -29.247 -2.66804e-20)
(8.9964 -29.2334 -2.52074e-20)
(8.9705 -29.1243 0)
(8.8331 -29.0808 -1.91589e-19)
(8.80685 -28.9429 2.58896e-21)
(0.113079 1.02808 -5.97169e-20)
(0.622986 -2.19295 0)
(3.16947 -10.1004 0)
(6.72884 -20.3655 -7.66902e-20)
(8.80713 -26.7192 7.497e-20)
(9.62251 -29.1129 0)
(9.80985 -29.7792 -6.99423e-20)
(9.82491 -29.8331 1.89253e-19)
(9.7943 -29.7904 -1.81383e-19)
(9.71063 -29.633 2.46464e-19)
(9.64181 -29.5336 -3.1156e-19)
(9.56625 -29.393 0)
(9.48633 -29.3068 -2.29805e-19)
(9.44694 -29.2319 -2.1857e-19)
(9.34307 -29.1845 3.84145e-19)
(9.31731 -29.0796 -4.13166e-19)
(9.19075 -29.0379 3.57146e-19)
(9.1614 -28.9067 0)
(9.02495 -28.868 -4.18111e-19)
(9.00395 -28.7202 6.94134e-19)
(0.403454 0.144606 4.13911e-19)
(1.17183 -4.18335 0)
(4.72883 -14.3478 1.57373e-19)
(8.07154 -23.7263 2.28796e-19)
(9.63314 -28.1501 -4.50068e-19)
(10.094 -29.5598 1.45719e-19)
(10.1933 -29.7881 6.64465e-20)
(10.1808 -29.7672 6.68064e-19)
(10.1107 -29.6157 -1.00481e-18)
(10.0182 -29.4489 -1.16091e-19)
(9.94175 -29.3061 5.55673e-19)
(9.87349 -29.2032 1.17085e-19)
(9.80365 -29.1436 -5.64354e-19)
(9.74003 -29.0366 5.53227e-19)
(9.63458 -28.9602 1.58895e-19)
(9.59667 -28.8587 -1.01334e-19)
(9.46102 -28.8106 1.48195e-19)
(9.43621 -28.6906 0)
(9.28595 -28.6424 -4.31995e-20)
(9.24139 -28.4256 0)
(0.353882 -0.917983 0)
(2.01316 -6.58341 6.47865e-19)
(6.35819 -18.3651 -7.94809e-19)
(9.19886 -26.1027 7.72526e-19)
(10.2396 -29.0819 -6.06137e-19)
(10.5438 -29.7519 -1.38871e-19)
(10.5246 -29.7522 0)
(10.4783 -29.632 3.80888e-19)
(10.3656 -29.405 -5.27216e-19)
(10.2987 -29.2681 6.22206e-19)
(10.2305 -29.1728 -4.8793e-19)
(10.1473 -29.0445 -1.17076e-19)
(10.0604 -28.9347 5.55777e-19)
(9.98947 -28.8326 -9.71732e-19)
(9.8863 -28.7664 6.24092e-19)
(9.83702 -28.6545 -2.04911e-19)
(9.69067 -28.5904 -4.81829e-19)
(9.66562 -28.4474 1.10733e-18)
(9.48053 -28.3713 -6.27108e-19)
(9.44379 -28.1284 -7.45152e-19)
(0.335891 -1.93442 6.80303e-19)
(3.22506 -9.83959 6.6037e-19)
(7.66815 -21.2532 -6.52039e-19)
(10.0988 -27.6116 -1.59929e-19)
(10.8413 -29.5065 1.5294e-19)
(10.9296 -29.7137 5.54484e-19)
(10.9247 -29.6438 -5.34185e-19)
(10.8326 -29.4258 0)
(10.7611 -29.2642 5.10942e-19)
(10.6739 -29.1121 -5.02372e-19)
(10.5808 -28.9381 -4.70197e-19)
(10.4875 -28.8003 4.62599e-19)
(10.4107 -28.7221 0)
(10.3224 -28.609 0)
(10.2141 -28.5072 9.05731e-19)
(10.1427 -28.3899 -8.89702e-19)
(9.99811 -28.3171 -7.4522e-19)
(9.96219 -28.1799 7.28118e-19)
(9.75827 -28.0878 -6.86629e-19)
(9.7182 -27.8315 8.25624e-19)
(0.541553 -2.8458 -5.19098e-19)
(4.4848 -12.5568 1.7922e-19)
(8.88156 -23.6176 1.30734e-20)
(11.0029 -28.6342 8.16778e-19)
(11.3805 -29.6626 0)
(11.4466 -29.6862 0)
(11.3629 -29.4963 1.06627e-18)
(11.2569 -29.2553 -3.20302e-20)
(11.1381 -29.0272 -1.03948e-18)
(11.0374 -28.8461 9.65071e-19)
(10.9429 -28.7229 -9.49204e-19)
(10.8419 -28.5947 0)
(10.7344 -28.469 8.47179e-19)
(10.6279 -28.3405 -8.33868e-19)
(10.5123 -28.2513 0)
(10.4257 -28.1324 0)
(10.268 -28.049 0)
(10.2161 -27.8882 0)
(9.97571 -27.7602 0)
(9.94294 -27.5003 -8.11552e-20)
(0.900542 -3.84543 5.37116e-19)
(5.89242 -15.0071 -8.78525e-19)
(10.1151 -25.2582 0)
(11.7769 -29.1029 0)
(12.0191 -29.6328 1.33768e-18)
(11.9562 -29.5141 1.00473e-19)
(11.8213 -29.2227 -1.27255e-18)
(11.7027 -28.9826 0)
(11.5921 -28.7951 1.25162e-19)
(11.475 -28.634 -1.18929e-19)
(11.3473 -28.4397 0)
(11.2155 -28.2742 1.07791e-19)
(11.1083 -28.1707 -9.26729e-19)
(10.9858 -28.0477 1.69716e-18)
(10.8576 -27.9278 -2.14417e-20)
(10.7415 -27.8008 -7.42898e-19)
(10.5846 -27.702 -8.59684e-20)
(10.5066 -27.545 8.23161e-20)
(10.2619 -27.4202 0)
(10.2253 -27.1754 7.47671e-20)
(1.52336 -4.97065 2.29615e-19)
(7.34591 -16.8118 2.0455e-19)
(11.2699 -26.3755 -1.06165e-18)
(12.6158 -29.2698 3.28751e-19)
(12.6599 -29.4417 1.49956e-19)
(12.5561 -29.2211 1.26183e-18)
(12.3868 -28.9633 -1.80258e-18)
(12.2383 -28.714 1.32618e-18)
(12.0666 -28.4636 -1.09909e-18)
(11.9112 -28.2511 1.30834e-18)
(11.7689 -28.1026 2.1969e-19)
(11.6315 -27.9676 9.36532e-19)
(11.4874 -27.8353 -5.21307e-19)
(11.34 -27.6888 -1.04605e-18)
(11.195 -27.5832 9.2732e-19)
(11.0655 -27.4612 0)
(10.8918 -27.3628 2.49877e-19)
(10.7866 -27.1886 7.42213e-20)
(10.5154 -27.0437 -1.50126e-19)
(10.4654 -26.7689 6.71285e-20)
(2.32301 -5.96125 0)
(8.33216 -18.1133 5.32584e-19)
(12.4652 -27.0327 -1.69275e-21)
(13.3486 -29.1513 -6.41723e-19)
(13.3249 -29.144 -5.92584e-19)
(13.124 -28.8534 -2.8619e-19)
(12.9164 -28.5543 -6.16241e-21)
(12.721 -28.2877 -2.58803e-19)
(12.5493 -28.0833 0)
(12.3809 -27.92 -2.31666e-19)
(12.203 -27.7203 -2.19654e-19)
(12.0217 -27.5447 -8.36987e-21)
(11.8701 -27.4272 7.55443e-19)
(11.7064 -27.3022 -3.83348e-19)
(11.5438 -27.1756 -8.71259e-19)
(11.3812 -27.0449 6.80874e-19)
(11.2024 -26.9269 4.64682e-19)
(11.0702 -26.7655 -7.75748e-19)
(10.8039 -26.6298 1.50131e-19)
(10.7484 -26.3851 9.55135e-19)
(2.80246 -6.93882 -1.79219e-18)
(9.62988 -19.2053 1.2741e-18)
(13.4895 -27.3138 -2.02612e-18)
(14.1561 -28.8257 1.62863e-18)
(13.9934 -28.6997 1.46124e-18)
(13.7514 -28.3635 -1.15714e-18)
(13.523 -28.1246 -1.56103e-18)
(13.3027 -27.8746 4.51263e-20)
(13.065 -27.6219 9.54083e-19)
(12.8456 -27.4018 -6.45901e-19)
(12.6456 -27.2453 1.65787e-18)
(12.4594 -27.1093 -9.98819e-19)
(12.2685 -26.9819 -1.89666e-19)
(12.0749 -26.8312 5.08129e-19)
(11.8896 -26.7232 -1.33037e-18)
(11.7179 -26.607 6.42967e-19)
(11.5227 -26.5087 0)
(11.361 -26.3417 -1.12477e-18)
(11.0707 -26.1945 1.10666e-18)
(10.9912 -25.9087 -9.00677e-19)
(3.55917 -7.53759 3.56345e-19)
(10.5496 -20.0413 3.88802e-19)
(14.5364 -27.3178 1.72845e-18)
(14.8649 -28.3793 1.52342e-18)
(14.6327 -28.1538 -9.10687e-19)
(14.3524 -27.8425 1.33112e-18)
(14.0577 -27.5479 -7.8618e-19)
(13.7811 -27.2782 9.29217e-19)
(13.5385 -27.0758 -1.78428e-18)
(13.3071 -26.9212 6.41962e-19)
(13.0705 -26.731 0)
(12.8334 -26.5618 0)
(12.6305 -26.4484 0)
(12.4225 -26.3346 -1.2893e-18)
(12.2179 -26.2147 1.26934e-18)
(12.0078 -26.0939 0)
(11.8011 -25.9767 0)
(11.6151 -25.8346 -1.2636e-19)
(11.3325 -25.7047 0)
(11.2551 -25.4601 -1.07142e-18)
(4.10515 -8.09537 -6.95963e-19)
(11.818 -20.3201 -1.73937e-18)
(15.418 -26.962 -1.24412e-18)
(15.6589 -27.6817 -2.33887e-19)
(15.2885 -27.4542 1.67794e-18)
(14.9736 -27.1394 -3.25736e-19)
(14.652 -26.9192 -5.32984e-20)
(14.3507 -26.6922 -1.14418e-18)
(14.042 -26.4555 0)
(13.7546 -26.2546 -5.77488e-19)
(13.4943 -26.1116 9.30772e-19)
(13.2535 -25.9883 0)
(13.0117 -25.8788 1.26546e-18)
(12.7699 -25.7409 -1.24561e-18)
(12.5393 -25.6467 1.12152e-18)
(12.3239 -25.5492 -2.03409e-18)
(12.0997 -25.4633 1.04216e-18)
(11.8871 -25.3256 1.26349e-19)
(11.5824 -25.188 -1.07438e-19)
(11.4754 -24.9195 8.52777e-19)
(4.80682 -8.53817 -9.6998e-19)
(12.8072 -20.5941 4.85554e-20)
(16.2205 -26.5222 7.26839e-20)
(16.2762 -26.9622 2.3049e-18)
(15.8504 -26.7034 2.06246e-19)
(15.4993 -26.4342 -1.24963e-18)
(15.1227 -26.1701 -8.82625e-19)
(14.7633 -25.9299 2.66487e-19)
(14.4537 -25.7545 9.9214e-19)
(14.1584 -25.6222 -1.0713e-18)
(13.8616 -25.4585 5.20212e-19)
(13.569 -25.31 -1.38426e-18)
(13.3153 -25.2184 1.07428e-18)
(13.0652 -25.1288 -1.08108e-18)
(12.8152 -25.0315 9.42064e-19)
(12.5654 -24.9315 8.24363e-19)
(12.3266 -24.8346 -9.38506e-19)
(12.0974 -24.7326 7.44574e-19)
(11.8081 -24.6335 -7.19706e-19)
(11.7112 -24.3925 -8.49237e-19)
(5.3436 -8.7423 -1.23683e-18)
(13.7874 -20.3566 -2.48331e-19)
(16.9305 -25.7945 1.15477e-18)
(16.9486 -26.0371 -1.04504e-18)
(16.4331 -25.8179 1.02577e-18)
(16.0426 -25.5529 2.36615e-19)
(15.6519 -25.3684 0)
(15.2719 -25.1815 -1.83696e-19)
(14.8941 -24.9731 5.06667e-19)
(14.5454 -24.8128 -1.79357e-18)
(14.2294 -24.7021 1.26395e-18)
(13.9353 -24.6058 2.83892e-19)
(13.6437 -24.5247 1.40092e-19)
(13.3558 -24.4156 0)
(13.0817 -24.3507 1.55057e-20)
(12.8265 -24.2813 8.35491e-19)
(12.5708 -24.2223 -4.17375e-20)
(12.3135 -24.1318 1.49927e-19)
(12.0046 -24.0369 -7.15185e-19)
(11.8745 -23.7931 1.6415e-19)
(5.98423 -8.89684 1.14964e-18)
(14.672 -20.2018 -1.99424e-18)
(17.6203 -24.9572 1.10164e-18)
(17.4272 -25.1023 9.59222e-19)
(16.9091 -24.875 -6.62594e-20)
(16.4577 -24.6701 -6.64103e-19)
(16.016 -24.4525 1.78803e-19)
(15.5819 -24.2653 1.83682e-19)
(15.2109 -24.1362 0)
(14.8554 -24.0367 0)
(14.5023 -23.916 -1.04998e-18)
(14.1591 -23.8012 1.75278e-18)
(13.8585 -23.7465 -9.53472e-19)
(13.5704 -23.691 0)
(13.2765 -23.6285 1.67536e-20)
(12.9921 -23.5587 -7.94116e-19)
(12.721 -23.494 7.77028e-19)
(12.457 -23.4449 -8.63331e-20)
(12.1709 -23.397 -6.27577e-19)
(12.0554 -23.1724 4.28055e-19)
(6.49603 -8.88546 -1.05526e-18)
(15.427 -19.6512 1.3295e-18)
(18.1528 -23.8918 0)
(17.9236 -23.9811 0)
(17.3482 -23.8224 1.90282e-19)
(16.874 -23.6319 -9.06859e-19)
(16.4265 -23.506 2.90085e-20)
(15.9797 -23.3742 6.35361e-19)
(15.5385 -23.2081 -1.07387e-18)
(15.1398 -23.1041 2.03601e-18)
(14.7774 -23.0412 -9.63949e-19)
(14.4366 -22.9836 2.11474e-19)
(14.1006 -22.9391 8.35853e-19)
(13.7732 -22.8696 2.77074e-20)
(13.4632 -22.8475 -5.12516e-19)
(13.1762 -22.8179 8.30295e-20)
(12.8891 -22.7945 -6.04827e-19)
(12.5934 -22.7578 5.20465e-19)
(12.2984 -22.7336 1.57463e-20)
(12.1529 -22.5175 4.37694e-19)
(7.02728 -8.8431 0)
(16.1504 -19.163 6.59509e-19)
(18.5971 -22.8962 -7.07861e-19)
(18.2394 -22.8797 0)
(17.6612 -22.7305 -1.90257e-19)
(17.1358 -22.608 6.12974e-19)
(16.6473 -22.4529 -7.58135e-19)
(16.1574 -22.3378 0)
(15.7376 -22.2675 8.98e-19)
(15.3305 -22.2068 -8.83021e-19)
(14.9307 -22.142 8.42733e-20)
(14.5472 -22.0722 -9.59864e-20)
(14.2087 -22.0672 -8.72544e-20)
(13.8879 -22.0526 -7.93226e-20)
(13.5529 -22.0282 -5.5505e-19)
(13.2401 -21.9931 9.10308e-19)
(12.938 -21.9731 -8.2028e-19)
(12.6399 -21.9807 7.35407e-19)
(12.3715 -22.0057 -2.94449e-19)
(12.2386 -21.8194 4.49451e-20)
(7.45516 -8.66807 0)
(16.711 -18.349 -7.93498e-19)
(18.8951 -21.6299 4.1788e-19)
(18.5377 -21.6545 4.89684e-19)
(17.9382 -21.5647 -5.98792e-20)
(17.3906 -21.4656 -5.30753e-20)
(16.909 -21.4073 -4.99628e-19)
(16.4125 -21.3354 0)
(15.9177 -21.2223 0)
(15.4846 -21.1789 0)
(15.0863 -21.1716 -8.42693e-20)
(14.7072 -21.1572 0)
(14.3328 -21.1539 -4.75316e-19)
(13.9761 -21.1362 4.22498e-19)
(13.6398 -21.1671 -3.25973e-19)
(13.3257 -21.1777 6.02644e-19)
(12.9993 -21.1957 -2.77398e-19)
(12.67 -21.2053 -2.24082e-19)
(12.365 -21.2467 3.70544e-19)
(12.2238 -21.0705 -1.73048e-19)
(7.89354 -8.4769 0)
(17.2588 -17.5968 0)
(19.1505 -20.452 1.71911e-19)
(18.6426 -20.4338 1.53543e-19)
(18.0628 -20.3631 0)
(17.48 -20.3365 3.98935e-19)
(16.9607 -20.2582 -3.9195e-19)
(16.444 -20.2253 0)
(15.9885 -20.2191 5.1732e-19)
(15.5389 -20.1941 -5.08691e-19)
(15.106 -20.1865 0)
(14.6948 -20.1642 -3.14285e-19)
(14.3275 -20.2084 9.62444e-20)
(13.9758 -20.2248 2.5508e-19)
(13.6026 -20.2271 0)
(13.2632 -20.2256 0)
(12.9168 -20.2616 0)
(12.6004 -20.2837 -2.78375e-20)
(12.2643 -20.2874 4.52048e-20)
(12.0896 -20.2004 0)
(7.8789 -28.7358 0)
(7.52172 -28.0949 0)
(6.75221 -28.0232 -4.21998e-21)
(6.29592 -27.7991 -4.06347e-21)
(5.62586 -27.709 0)
(5.21655 -27.6265 1.73634e-23)
(4.72148 -27.4982 3.72978e-21)
(4.29263 -27.4926 0)
(3.86442 -27.4674 3.40139e-21)
(3.47807 -27.4344 0)
(3.08221 -27.3689 -3.24346e-21)
(2.76014 -27.3308 -1.58678e-21)
(2.41388 -27.2986 1.59558e-21)
(2.15164 -27.2535 3.04645e-21)
(1.82985 -27.2092 0)
(1.62934 -27.197 -7.34535e-22)
(1.34102 -26.9352 3.2413e-21)
(1.20194 -25.4933 0)
(0.725238 -20.8162 0)
(0.24775 -11.3886 2.81494e-21)
(8.05865 -28.4858 2.08205e-20)
(7.68011 -27.9234 0)
(6.83971 -27.8421 2.04826e-20)
(6.35678 -27.5964 -1.22764e-20)
(5.70494 -27.5435 0)
(5.2703 -27.5199 -1.81121e-20)
(4.72785 -27.3956 7.21045e-21)
(4.25569 -27.3679 0)
(3.82388 -27.3354 3.20162e-21)
(3.43527 -27.3073 -6.63732e-21)
(3.04564 -27.2515 9.55753e-21)
(2.72821 -27.2259 -1.25388e-20)
(2.38943 -27.2113 9.25715e-21)
(2.12885 -27.1688 -3.117e-21)
(1.82077 -27.1314 -2.99639e-21)
(1.63166 -27.1287 2.8807e-21)
(1.35567 -26.877 -5.05056e-21)
(1.20579 -25.3946 -6.99468e-21)
(0.714673 -20.6476 -3.45873e-21)
(0.256147 -11.2411 -3.51386e-21)
(8.19364 -28.2505 -4.26546e-21)
(7.77643 -27.7236 -1.9413e-20)
(6.90809 -27.6508 -1.5735e-20)
(6.40149 -27.4392 0)
(5.7449 -27.3991 0)
(5.28168 -27.3401 2.11068e-20)
(4.77848 -27.2156 -4.93359e-22)
(4.33618 -27.2299 -3.96589e-22)
(3.91641 -27.2289 -3.83527e-22)
(3.52184 -27.2087 -1.28825e-20)
(3.1271 -27.1627 0)
(2.8024 -27.1428 0)
(2.45276 -27.1248 0)
(2.1882 -27.0918 -1.16143e-20)
(1.86364 -27.0637 0)
(1.66585 -27.0644 -1.12727e-20)
(1.37096 -26.8188 9.48744e-21)
(1.22258 -25.3298 4.20877e-21)
(0.732301 -20.5662 6.93969e-21)
(0.263401 -11.1271 1.08722e-20)
(8.38111 -27.9756 3.52578e-20)
(7.9452 -27.5269 -6.98379e-20)
(7.00964 -27.4578 5.8441e-22)
(6.4747 -27.2448 3.05005e-20)
(5.8352 -27.2271 0)
(5.34995 -27.2218 2.68312e-20)
(4.80018 -27.1147 -6.5964e-20)
(4.3087 -27.1092 3.88843e-20)
(3.87776 -27.0989 -2.51817e-20)
(3.47887 -27.0817 1.21882e-20)
(3.08994 -27.0456 -3.16058e-22)
(2.76815 -27.0362 -1.17483e-20)
(2.42584 -27.0361 1.18053e-20)
(2.16251 -27.0063 5.9242e-21)
(1.85092 -26.9861 5.71686e-21)
(1.66457 -26.9965 1.12661e-20)
(1.38411 -26.7621 -1.15423e-20)
(1.22573 -25.2382 5.4448e-21)
(0.722547 -20.413 -2.7137e-21)
(0.271525 -10.9847 -1.08551e-20)
(8.54559 -27.7281 7.71094e-20)
(8.04602 -27.3113 1.68736e-20)
(7.0772 -27.2498 -2.98986e-20)
(6.53081 -27.0745 4.35613e-20)
(5.88308 -27.0811 0)
(5.35283 -27.0389 -1.29746e-20)
(4.83849 -26.9293 1.29968e-20)
(4.38386 -26.9653 0)
(3.96865 -26.9899 4.08827e-22)
(3.56501 -26.983 0)
(3.17023 -26.9567 -2.35261e-20)
(2.84131 -26.9538 0)
(2.48796 -26.9503 0)
(2.22073 -26.93 -2.21495e-20)
(1.89367 -26.9188 1.11541e-20)
(1.69834 -26.9327 -1.07791e-20)
(1.39677 -26.7056 0)
(1.23991 -25.1783 2.65513e-21)
(0.737965 -20.338 -2.65875e-21)
(0.279213 -10.8716 0)
(8.74843 -27.4353 3.35071e-20)
(8.20775 -27.0843 -3.13527e-20)
(7.18137 -27.0444 6.98233e-20)
(6.60696 -26.8866 -7.08614e-20)
(5.96554 -26.8986 2.55547e-20)
(5.42086 -26.9082 1.30147e-20)
(4.86876 -26.8302 -2.41873e-20)
(4.36482 -26.8491 -2.37003e-20)
(3.93251 -26.8617 1.20313e-20)
(3.52264 -26.8561 2.2968e-20)
(3.13223 -26.8401 -1.14611e-20)
(2.80564 -26.8462 0)
(2.45886 -26.8603 0)
(2.19284 -26.8437 3.55082e-22)
(1.87787 -26.8413 -1.08822e-20)
(1.6942 -26.8651 1.07691e-20)
(1.40789 -26.6509 0)
(1.24162 -25.0944 -2.0668e-20)
(0.728736 -20.2021 -1.93177e-20)
(0.286973 -10.7347 -1.29766e-21)
(8.93305 -27.1612 -9.74156e-20)
(8.32569 -26.8472 9.56186e-20)
(7.26368 -26.8229 -2.82045e-20)
(6.6735 -26.7044 0)
(6.02192 -26.7488 -2.56627e-20)
(5.42759 -26.7236 4.83312e-20)
(4.90641 -26.642 -2.4236e-20)
(4.4379 -26.7004 2.37668e-20)
(4.0213 -26.7499 0)
(3.60776 -26.7567 0)
(3.2112 -26.7509 2.19418e-20)
(2.87708 -26.7635 -2.20205e-20)
(2.51974 -26.7751 0)
(2.24924 -26.7682 3.20882e-20)
(1.91967 -26.7744 -1.06033e-20)
(1.72602 -26.8021 -1.03417e-20)
(1.41875 -26.5961 8.36132e-21)
(1.25377 -25.0406 2.57271e-20)
(0.742269 -20.1336 1.29148e-20)
(0.295328 -10.6234 2.54066e-21)
(9.15018 -26.8119 0)
(8.47428 -26.5887 -5.60051e-20)
(7.37045 -26.6002 5.617e-20)
(6.74501 -26.519 0)
(6.09228 -26.5545 0)
(5.48755 -26.5826 -4.6544e-20)
(4.93704 -26.5433 4.66837e-20)
(4.42265 -26.5863 0)
(3.98688 -26.6226 2.19154e-20)
(3.56642 -26.6301 -4.35772e-20)
(3.17272 -26.6344 2.16617e-20)
(2.84061 -26.6557 2.10438e-20)
(2.48885 -26.6841 -2.11075e-20)
(2.21946 -26.6813 0)
(1.90136 -26.6968 0)
(1.71864 -26.7351 -1.01135e-20)
(1.42818 -26.5426 1.22184e-20)
(1.25428 -24.9648 -3.25913e-23)
(0.733821 -20.016 -7.47446e-21)
(0.302756 -10.4918 2.48746e-21)
(9.31153 -26.5115 5.2861e-20)
(8.60453 -26.3306 -5.85197e-20)
(7.47196 -26.3644 -7.45002e-20)
(6.81393 -26.3244 9.79242e-20)
(6.15214 -26.3998 -9.38819e-20)
(5.50137 -26.3961 1.16231e-21)
(4.9807 -26.355 4.49535e-20)
(4.49641 -26.435 0)
(4.07372 -26.5085 0)
(3.65033 -26.53 2.06669e-20)
(3.2501 -26.5447 0)
(2.91028 -26.5725 0)
(2.54823 -26.5993 0)
(2.27349 -26.6065 0)
(1.94121 -26.6301 0)
(1.74773 -26.673 0)
(1.43679 -26.49 -7.91065e-21)
(1.26524 -24.918 9.81915e-21)
(0.745845 -19.9543 -2.43129e-21)
(0.311951 -10.3829 2.43191e-21)
(9.52887 -26.1281 -3.99971e-20)
(8.72806 -26.0477 -8.18902e-20)
(7.58451 -26.1262 -2.29584e-20)
(6.87634 -26.1291 -2.11201e-20)
(6.21501 -26.1979 2.35896e-20)
(5.55411 -26.2489 6.54404e-20)
(5.00717 -26.2551 2.08237e-20)
(4.48175 -26.32 0)
(4.04015 -26.3809 -2.07197e-20)
(3.6104 -26.4039 4.03072e-20)
(3.21147 -26.4285 1.98459e-20)
(2.87338 -26.4647 1.95908e-20)
(2.51613 -26.5074 0)
(2.24211 -26.5191 1.92821e-20)
(1.92076 -26.5521 1.9275e-20)
(1.7372 -26.6067 0)
(1.444 -26.4383 0)
(1.26435 -24.8518 0)
(0.73824 -19.8553 0)
(0.31949 -10.2568 0)
(9.69658 -25.8256 2.23049e-19)