/*--------------------------------*- C++ -*----------------------------------*\
  =========                 |
  \\      /  F ield         | OpenFOAM: The Open Source CFD Toolbox
   \\    /   O peration     | Website:  https://openfoam.org
    \\  /    A nd           | Version:  9
     \\/     M anipulation  |
\*---------------------------------------------------------------------------*/
FoamFile
{
    format      ascii;
    class       volScalarField;
    location    "8.9";
    object      nut;
}
// * * * * * * * * * * * * * * * * * * * * * * * * * * * * * * * * * * * * * //

dimensions      [0 2 -1 0 0 0 0];

internalField   nonuniform List<scalar> 
46400
(
0.0215035
0.0070503
0.00201545
0.00168911
0.00165387
0.00160322
0.00149713
0.00147391
0.0013888
0.00136523
0.00133049
0.0012662
0.00121905
0.00121806
0.00120394
0.00117538
0.00112082
0.00109366
0.00146932
0.00113262
0.0210469
0.00549986
0.00144198
0.00166293
0.00156546
0.00159009
0.00151784
0.00149406
0.00139571
0.00135594
0.00132393
0.001278
0.00123397
0.00117143
0.00111761
0.00108832
0.00100732
0.00093174
0.00122255
0.00107802
0.0204819
0.00521095
0.00147687
0.0017086
0.00161391
0.00159797
0.00149826
0.00148373
0.00140984
0.00136584
0.00132883
0.0012747
0.0012194
0.00120581
0.00118076
0.00113751
0.0010496
0.00101003
0.00133009
0.00107821
0.0199004
0.00440387
0.00146368
0.00169962
0.0015562
0.00158279
0.00149997
0.00148578
0.00140674
0.00135059
0.00132002
0.00127297
0.00123092
0.0011622
0.00112337
0.00110157
0.00102456
0.000969797
0.00131937
0.00114855
0.0191299
0.00538302
0.00151611
0.0017373
0.00161549
0.00160631
0.00150947
0.00147672
0.00143155
0.00137767
0.00134432
0.00130196
0.00124493
0.00122096
0.00117552
0.00114355
0.00107142
0.00100885
0.00133045
0.00113904
0.0184512
0.00543942
0.00160776
0.00177237
0.00159077
0.00159616
0.00150871
0.00147138
0.00140205
0.00134603
0.00130405
0.00127628
0.00124626
0.00119504
0.00117048
0.00113984
0.00108195
0.00101498
0.00133542
0.00117396
0.0176149
0.00529921
0.00160001
0.00177027
0.0016315
0.00160803
0.00152275
0.00146168
0.00141846
0.00135856
0.0013253
0.00126647
0.00123198
0.00119051
0.00116419
0.00113558
0.00109008
0.00103717
0.00131332
0.00117282
0.0163176
0.00430571
0.00164308
0.00178851
0.00160344
0.00157704
0.0015283
0.00146502
0.00141027
0.0013405
0.0013038
0.00126354
0.00123139
0.00119042
0.00115767
0.00113156
0.00107229
0.00101728
0.0013126
0.00118767
0.0139526
0.00329337
0.00156854
0.00168951
0.00162612
0.00153996
0.00151025
0.00144718
0.00140384
0.00135
0.00130905
0.00126587
0.00122342
0.00118982
0.00116464
0.00114533
0.00108969
0.0009994
0.00125563
0.00116579
0.0112901
0.00271718
0.00167304
0.00165495
0.00160221
0.00150949
0.00147269
0.00144101
0.00139634
0.00134005
0.001308
0.00126481
0.00123055
0.00117863
0.00115103
0.00113455
0.00109919
0.00101299
0.00119004
0.00112591
0.00916285
0.00228321
0.00163567
0.00157921
0.00155626
0.00149142
0.00143562
0.00138528
0.00135115
0.0012797
0.00125405
0.00122774
0.00121218
0.00117167
0.00113505
0.00111447
0.00110147
0.0010642
0.00121114
0.00111945
0.00766336
0.00204611
0.00161974
0.00155685
0.00156543
0.00146495
0.00140396
0.0013605
0.00137128
0.0013208
0.00125438
0.00119835
0.00117688
0.0011529
0.00111374
0.0010763
0.00102892
0.000994931
0.00114676
0.00109099
0.00645649
0.00191486
0.00167991
0.00152863
0.00151504
0.00150879
0.00142237
0.00130643
0.00127086
0.00125384
0.00123828
0.00117938
0.00113495
0.00111498
0.00109501
0.00106798
0.00102814
0.000967194
0.0010763
0.00103985
0.00557604
0.00180886
0.00165841
0.00153276
0.00150401
0.00150127
0.00152448
0.00141532
0.00132949
0.00126632
0.00124323
0.00121107
0.00116117
0.00111138
0.00108782
0.0010559
0.00102395
0.000973995
0.00104283
0.000982993
0.00491128
0.00170672
0.00162033
0.0015182
0.00141327
0.00132887
0.00141632
0.0014215
0.00138851
0.00130956
0.00125171
0.00121628
0.0011886
0.00114186
0.00110229
0.00107614
0.00103821
0.000996248
0.00107617
0.00101435
0.00460348
0.00170226
0.00175919
0.00170196
0.00161265
0.00143038
0.00133385
0.00132034
0.00130351
0.00129108
0.00124746
0.00119437
0.00115642
0.00112274
0.00108238
0.0010533
0.00101485
0.000964492
0.00101482
0.000958234
0.00405505
0.00158781
0.00161025
0.00153787
0.00160693
0.00153464
0.00144286
0.00137009
0.00131429
0.00128714
0.00124866
0.00123469
0.00118519
0.00115695
0.00111213
0.00108342
0.00104723
0.000991018
0.00105165
0.0009689
0.00362109
0.00156726
0.00152574
0.00151568
0.00151235
0.00151645
0.00148445
0.00142098
0.0013522
0.00129132
0.00122334
0.0011892
0.00114171
0.00111945
0.00107366
0.0010535
0.00100944
0.000963275
0.00100555
0.000947834
0.00399722
0.00172828
0.00153602
0.00152289
0.00140342
0.00138878
0.00131737
0.00130477
0.00129226
0.00126868
0.00124109
0.00120073
0.00116797
0.001129
0.00109958
0.00107128
0.00104067
0.000983938
0.00102175
0.000948085
0.00220445
0.00196658
0.00163717
0.00152242
0.00145331
0.00140857
0.00135967
0.00131027
0.00127761
0.00123719
0.00121726
0.00117591
0.00114774
0.00110199
0.00107287
0.0010362
0.00100872
0.000952733
0.000977229
0.000943143
0.0120124
0.0147429
0.010649
0.00121832
0.000599819
0.00107146
0.00121289
0.00111226
0.00106807
0.00101825
0.000954761
0.000972916
0.00094097
0.000917593
0.00095552
0.00104741
0.00106697
0.00111153
0.0010623
0.000922219
0.014549
0.0149179
0.00971995
0.000262472
0.000633893
0.00114679
0.00118548
0.00112384
0.0010743
0.00103997
0.00104323
0.00100245
0.000984776
0.00100547
0.000987965
0.00101038
0.00105234
0.0011522
0.00109716
0.000946516
0.0173568
0.0150175
0.00863642
0.000279547
0.000835496
0.00122707
0.00127387
0.00117156
0.00112399
0.00107925
0.00100762
0.00103427
0.00102851
0.000970775
0.000968877
0.00108036
0.00113598
0.00118678
0.00106617
0.000926834
0.0181944
0.015075
0.0063022
0.000628717
0.00108457
0.00131745
0.00123215
0.00118311
0.00113113
0.00108684
0.00108458
0.0010389
0.000997655
0.00102583
0.00105193
0.00109337
0.00109265
0.00116446
0.0010681
0.000941393
0.0191262
0.0148142
0.00480604
0.000301403
0.00117284
0.00131967
0.00130399
0.00123866
0.00118322
0.00113853
0.00107645
0.00109169
0.00109815
0.00103907
0.00100711
0.00109637
0.00116271
0.00123683
0.00106958
0.000939761
0.020094
0.0147224
0.00342569
0.000493027
0.00133701
0.00141406
0.00130935
0.00124106
0.00119203
0.00113833
0.00111313
0.00107958
0.00103511
0.00104077
0.00108009
0.00114558
0.00113143
0.00120163
0.00105112
0.000944995
0.020598
0.0143427
0.00247574
0.000464803
0.00133867
0.00135797
0.00133794
0.00128217
0.00123064
0.00118103
0.00113554
0.00113027
0.00112968
0.00108807
0.00104828
0.00109563
0.00114336
0.00124858
0.00104306
0.00092976
0.0214629
0.0141777
0.00172842
0.000741642
0.00146341
0.00144855
0.00137586
0.0012864
0.00124012
0.00118699
0.00113469
0.00111846
0.00108338
0.00105712
0.00108717
0.00116911
0.00116052
0.00123083
0.00104336
0.000954921
0.0219025
0.0137104
0.00127419
0.000877396
0.00144332
0.00138428
0.0013646
0.00131562
0.00126953
0.00121293
0.00117685
0.00115147
0.00113696
0.00111314
0.00107158
0.0010884
0.00112543
0.00125259
0.00100956
0.000918996
0.0224805
0.0134656
0.00102984
0.00106909
0.00154005
0.00147091
0.00142945
0.00132126
0.00127806
0.00122898
0.00115461
0.00115275
0.00112996
0.00107783
0.00108279
0.00115435
0.00116082
0.0012473
0.0010295
0.000960191
0.0227434
0.0129655
0.00164882
0.00116814
0.00151637
0.00141227
0.00138707
0.00134408
0.00129943
0.00124615
0.001205
0.00116127
0.00113903
0.00113315
0.00109684
0.00108916
0.0011083
0.00124414
0.000981244
0.000929189
0.0230643
0.0126493
0.00134393
0.00127182
0.00158773
0.00148825
0.00146469
0.00134738
0.00130575
0.00126258
0.00118062
0.00118121
0.00115765
0.00109098
0.00107093
0.00112099
0.00113945
0.00123254
0.000978564
0.000947689
0.0231746
0.012137
0.00229976
0.00135178
0.00159554
0.00144401
0.0014182
0.00137462
0.00132192
0.00127953
0.00122194
0.00117083
0.00114771
0.00114738
0.00111296
0.00108189
0.00108138
0.00121441
0.000958119
0.000949083
0.0232795
0.0119303
0.00204529
0.00136528
0.0016306
0.00150966
0.00148008
0.0013783
0.00133022
0.00129761
0.00121633
0.00120363
0.00117885
0.00111122
0.00107029
0.00109616
0.00111688
0.00119134
0.00091815
0.000955938
0.0232655
0.0116212
0.00244477
0.00144561
0.00163387
0.001491
0.00144451
0.00139625
0.00133626
0.00130709
0.00123721
0.00118361
0.0011565
0.00115621
0.00111819
0.00106639
0.00105783
0.00116512
0.000909052
0.000965094
0.0231463
0.0112764
0.00227054
0.00142996
0.00163316
0.00153687
0.00150272
0.00142048
0.00135629
0.00133871
0.0012607
0.00122906
0.00120621
0.00114637
0.00109545
0.00109249
0.0011057
0.00114484
0.00086782
0.000982877
0.0229716
0.0108045
0.00210079
0.00154249
0.00165216
0.00153398
0.00146416
0.00141865
0.00134962
0.00133361
0.00126979
0.00121005
0.00117604
0.00117843
0.00113928
0.00108008
0.00106928
0.00112142
0.000837865
0.000995466
0.022665
0.00967408
0.00186055
0.00150098
0.00162109
0.00156298
0.00152294
0.0014626
0.0013777
0.00136935
0.00130294
0.00126075
0.00123513
0.00118803
0.00113481
0.0011129
0.00112704
0.00111984
0.000792457
0.000998186
0.0223723
0.00905724
0.00244477
0.00161983
0.0016707
0.00158017
0.00148706
0.00145524
0.00137619
0.00136508
0.00132181
0.00125807
0.00122162
0.00122604
0.00119713
0.00114447
0.00114622
0.00114935
0.000781726
0.000979618
0.0219449
0.00753705
0.00167591
0.00158538
0.00159027
0.00158712
0.00152923
0.00149204
0.00139729
0.00138327
0.00134158
0.00130427
0.0012828
0.00125094
0.00121363
0.00123168
0.00124377
0.00122379
0.000954631
0.00107436
0.00650298
0.0044547
0.00332136
0.00264686
0.00222916
0.00173686
0.00142277
0.00115722
0.000919903
0.000742991
0.000604359
0.000525211
0.000436705
0.000363164
0.000322769
0.000593431
0.00123667
0.00566442
0.0103281
0.0150038
0.00667613
0.00449514
0.00334959
0.00268489
0.00229021
0.00176469
0.00146455
0.00119275
0.000945315
0.000774866
0.000623554
0.000534575
0.000431812
0.000353883
0.000314618
0.00060363
0.00126638
0.00564599
0.010281
0.0150214
0.00659159
0.00440051
0.00334734
0.00260217
0.00226785
0.00172386
0.00144285
0.00117175
0.000920151
0.0007627
0.00060974
0.000522062
0.000421022
0.000342569
0.000285077
0.000602666
0.00123952
0.00564579
0.0102752
0.0149122
0.00650658
0.00433903
0.0032695
0.00258688
0.00230514
0.0017583
0.00147749
0.00120207
0.000948506
0.000790319
0.000628101
0.000529762
0.000426245
0.000350178
0.000272069
0.000602522
0.00126641
0.00565523
0.0102779
0.0149276
0.00646681
0.00445216
0.00340792
0.00256852
0.00226766
0.00171691
0.00145379
0.00117788
0.000926015
0.000780038
0.000618982
0.000519117
0.000421401
0.000348075
0.000249099
0.0005441
0.00126438
0.00564999
0.0102819
0.0148316
0.00647095
0.00417644
0.00324877
0.00255717
0.00231641
0.00175251
0.00148667
0.00120921
0.000957367
0.000805475
0.000634572
0.000527416
0.000425234
0.00034174
0.0002562
0.000505232
0.00119861
0.00563358
0.0102681
0.0148367
0.00690803
0.00443109
0.0033503
0.00251388
0.00226444
0.00171585
0.00145931
0.00118188
0.000936821
0.000799991
0.000629054
0.000521241
0.000412184
0.000311948
0.000249675
0.000468711
0.00115561
0.00561078
0.0102584
0.0147789
0.00687978
0.00423025
0.00333216
0.00253715
0.00230924
0.00175802
0.00149764
0.00121725
0.000966266
0.000824494
0.000644546
0.000545453
0.000373437
0.000260593
0.000233527
0.000454837
0.00109155
0.0056025
0.0102684
0.0147815
0.0070234
0.00437817
0.00333581
0.002486
0.00224915
0.0017264
0.00146873
0.00119535
0.000949836
0.000822806
0.000642524
0.000552294
0.000367532
0.000234205
0.000213963
0.000434381
0.00102902
0.00560441
0.0102707
0.0147511
0.00690132
0.00435502
0.00338104
0.00251566
0.00229044
0.00177358
0.00150571
0.00123013
0.000977223
0.000848212
0.00066023
0.000587023
0.000303053
0.000222329
0.000171262
0.000416103
0.000973815
0.00560242
0.0102823
0.0147436
0.00705058
0.00440525
0.00340103
0.00246919
0.00222517
0.0017443
0.00147707
0.00121903
0.000964044
0.000848175
0.000657153
0.000597501
0.000300968
0.000269649
0.000138056
0.000391864
0.000907669
0.00558446
0.0102779
0.0147421
0.00700226
0.00437621
0.00339307
0.00247896
0.00225233
0.00179074
0.00150325
0.00124957
0.000990651
0.000872239
0.00067026
0.000619523
0.000374981
0.000316488
0.000115512
0.000359476
0.000825758
0.00553183
0.0102838
0.0147377
0.00700875
0.00439983
0.0034672
0.00245134
0.00219342
0.0017644
0.00147933
0.0012452
0.000980335
0.000871628
0.000672151
0.000623543
0.000450201
0.000347187
7.38383e-05
0.000327835
0.000733145
0.00551251
0.0102832
0.0147521
0.00711863
0.00431901
0.00338356
0.00244836
0.0022077
0.00180071
0.00149482
0.00127117
0.00100834
0.000893691
0.000686717
0.000635801
0.000496787
0.000382359
4.89341e-05
0.000286065
0.000636756
0.00550372
0.0102939
0.0147602
0.00706016
0.00430003
0.00343234
0.00244183
0.00216739
0.00178917
0.00147779
0.00127142
0.00100133
0.000895094
0.000696381
0.000645433
0.000501869
0.000403152
4.85634e-05
0.00025331
0.000531773
0.00547335
0.0103105
0.0147739
0.00718137
0.00416389
0.00330559
0.00245792
0.00215838
0.00181108
0.00148744
0.00129247
0.00102915
0.000916431
0.000710082
0.000659147
0.00051815
0.000424253
5.70814e-05
0.000219136
0.000429394
0.00546159
0.0103421
0.0148103
0.00725223
0.00406203
0.00324094
0.00246966
0.00213898
0.00180685
0.00147287
0.00129083
0.00102313
0.000916024
0.000719322
0.000667962
0.000528928
0.000449167
6.84648e-05
0.00019653
0.000296853
0.00538522
0.0103745
0.0147806
0.00726069
0.00392043
0.00314213
0.00250663
0.00213378
0.00184527
0.00149732
0.00132172
0.00105994
0.000945369
0.000737612
0.000681066
0.000540086
0.000475491
8.39358e-05
0.00016049
0.000180567
0.00546752
0.0104301
0.014833
0.00720042
0.00385895
0.00294408
0.00250499
0.00211412
0.00182996
0.00148217
0.00131119
0.00105381
0.000943889
0.000748753
0.00068822
0.000547919
0.000495901
0.000105021
0.000128612
6.78872e-05
0.00543848
0.0105421
0.0149976
0.00756156
0.00381051
0.00285212
0.00250213
0.00206979
0.0018162
0.00145748
0.00128483
0.00104849
0.000935092
0.000749236
0.00068431
0.000545475
0.000502282
0.000172403
0.000141485
7.35341e-05
0.00511049
0.0103765
0.0145511
0.0139343
0.0378739
0.0292313
0.0277267
0.023014
0.0202448
0.0163321
0.0141343
0.0114056
0.00988519
0.00812399
0.00760948
0.00609829
0.00610207
0.00325076
0.00323492
0.000254517
0.0499487
0.0998178
0.134447
0.0331345
0.0236682
0.021102
0.019196
0.0157202
0.0138334
0.011486
0.00983151
0.00827159
0.00708508
0.00603996
0.0053421
0.00485836
0.00480216
0.00439769
0.00386753
0.0144222
0.0489983
0.0965781
0.135092
0.0162079
0.0155701
0.0150898
0.0119478
0.0108867
0.00939689
0.00848475
0.00773371
0.00711395
0.00665808
0.00602065
0.0055574
0.00511455
0.00508387
0.00483664
0.00431715
0.00735756
0.0505308
0.0954009
0.133427
0.0115856
0.00920866
0.00909112
0.00928489
0.00875905
0.00826939
0.00746373
0.00671467
0.00618229
0.00568333
0.00533244
0.00499494
0.00454833
0.00406737
0.003726
0.0030258
0.0108976
0.0437413
0.0952299
0.130175
0.00318536
0.00797575
0.00813585
0.00674395
0.00622611
0.00578334
0.00563916
0.00533404
0.00497056
0.00481692
0.00451413
0.00423684
0.00402889
0.003995
0.00395041
0.0031901
0.00518306
0.0401394
0.0954986
0.129311
0.00548177
0.00492386
0.00427617
0.00453395
0.00470542
0.00510866
0.00473466
0.00466424
0.00434515
0.00420255
0.00405675
0.00399644
0.00376376
0.00353703
0.00364286
0.00272126
0.00586182
0.0355438
0.0955607
0.129447
0.0016754
0.00359564
0.0041949
0.00420649
0.00393748
0.00362048
0.00349882
0.00355404
0.00364244
0.00363818
0.00349891
0.00349908
0.00324548
0.00332209
0.0032031
0.00276382
0.00384492
0.0286425
0.0960652
0.132738
0.00260964
0.00272731
0.00249269
0.00240182
0.00237577
0.00303525
0.00310159
0.00295874
0.0028498
0.00310694
0.00312419
0.00331474
0.00330449
0.00327639
0.00318472
0.00277467
0.00407845
0.0233736
0.0948534
0.137694
0.00129981
0.00171394
0.00205494
0.00235159
0.00230619
0.00218463
0.00235146
0.00272146
0.00263629
0.00273446
0.00270641
0.00290707
0.00284425
0.00305376
0.00292146
0.00298727
0.00255284
0.0169413
0.0924783
0.146681
0.00123614
0.00134609
0.0014225
0.00149964
0.00151674
0.00182112
0.00179754
0.00195839
0.00212651
0.00240073
0.00247981
0.002737
0.00290351
0.00331194
0.00315817
0.00322229
0.00286807
0.0123102
0.0866361
0.156966
0.000703033
0.000861913
0.00106009
0.00126315
0.00134615
0.0014276
0.00161796
0.00187747
0.0019181
0.00203317
0.00215379
0.00237207
0.00254211
0.00292785
0.00328551
0.0038992
0.00339865
0.00889488
0.063368
0.170188
0.000541673
0.000674195
0.000733675
0.000868405
0.000941987
0.0011032
0.00113996
0.00130728
0.00152841
0.00176603
0.00195061
0.00217018
0.00241331
0.00265201
0.00308601
0.00348242
0.00406071
0.00450688
0.0497532
0.189509
0.000438991
0.000565375
0.000620296
0.000772044
0.000851068
0.000946539
0.00107075
0.0011635
0.00122998
0.00144535
0.00159225
0.00179804
0.00205168
0.00240671
0.00280437
0.00302274
0.00413701
0.00810418
0.0255207
0.150767
0.000411055
0.000498984
0.000542008
0.000641928
0.000712962
0.000804201
0.000827318
0.00103117
0.00116259
0.00134241
0.00143163
0.00166054
0.00178251
0.00202511
0.00224822
0.00280173
0.00271691
0.00514687
0.0136863
0.104195
0.000476044
0.000526762
0.000581249
0.000637164
0.000684227
0.000808497
0.000884886
0.00094575
0.000997837
0.0010666
0.00119195
0.00130393
0.00144444
0.00165741
0.00174978
0.00194896
0.00252596
0.00322886
0.00386873
0.0609389
0.000402278
0.000463201
0.000488393
0.000530968
0.000541031
0.000618863
0.000656926
0.000758808
0.0007957
0.000924426
0.000907299
0.00108414
0.00103123
0.00118773
0.00103177
0.00133521
0.0012118
0.00206381
0.00400865
0.0349465
0.000345801
0.000401414
0.000425776
0.00049683
0.000527021
0.000542902
0.000559756
0.000617374
0.000611427
0.000671812
0.000677158
0.000749469
0.000795447
0.000863703
0.000983438
0.00114059
0.00124997
0.000983852
0.00068985
0.0180688
0.000217989
0.000232815
0.000262929
0.000318895
0.000362923
0.000408185
0.000441883
0.000459415
0.000502272
0.000528647
0.000567257
0.000595218
0.000599315
0.000609431
0.000672638
0.000559821
0.000722959
0.000747818
0.000865862
0.00687752
0.000190132
0.000190532
0.000184725
0.000170174
0.000166848
0.000194206
0.000207692
0.000244684
0.00026923
0.000304071
0.000321711
0.00036411
0.000446945
0.00041639
0.000416938
0.000404027
0.00032495
0.000496754
0.000463971
0.00403692
0.000156493
0.000112428
7.61041e-05
9.32007e-05
0.000104664
0.000120667
0.000122069
0.000159228
0.000176265
0.000208187
0.000237052
0.000279484
0.000313499
0.000335705
0.000349216
0.000344628
0.000251386
0.000265217
0.00026286
0.000363876
0.0140445
0.0141488
0.0141885
0.0141865
0.0141728
0.014363
0.0143446
0.0142556
0.0138454
0.0136566
0.0134835
0.0131313
0.0127968
0.0120451
0.0120793
0.0112258
0.0111847
0.00995601
0.0101114
0.0106299
0.00687358
0.0068873
0.00685852
0.0068395
0.00683498
0.00675456
0.00671444
0.00657222
0.00675092
0.00774719
0.00721935
0.00667795
0.00673316
0.00688921
0.00700328
0.00541168
0.00688368
0.00652592
0.00638228
0.00770646
0.00406849
0.00408637
0.00410753
0.00418887
0.0041935
0.00426361
0.00432419
0.00439614
0.00448651
0.00422836
0.00390064
0.0041936
0.00444184
0.00485654
0.00395352
0.00353998
0.00346166
0.00364369
0.00351626
0.00384526
0.00260806
0.0026091
0.00260604
0.00261313
0.00256811
0.00260021
0.00253317
0.00251664
0.00230163
0.00249743
0.00261841
0.0025181
0.00239944
0.0029432
0.00316336
0.00302198
0.00278933
0.00309968
0.0025883
0.00267123
0.00155754
0.00156343
0.00156375
0.00157556
0.00156709
0.00159909
0.00159841
0.00166625
0.00184383
0.00185369
0.00180012
0.00203948
0.00185003
0.00186829
0.00169205
0.00187578
0.00160783
0.00141656
0.00123989
0.00106278
0.0010898
0.00109875
0.00110477
0.00111326
0.00111086
0.0011206
0.00111155
0.00111597
0.0011123
0.00112702
0.000984931
0.000965105
0.00102913
0.00114892
0.000977011
0.00124654
0.00124515
0.00130276
0.00141229
0.00123993
0.000639712
0.000633365
0.000633271
0.000634282
0.000629294
0.000638859
0.000638464
0.000674154
0.000672286
0.00073994
0.000820633
0.000995075
0.000964918
0.000889347
0.000755038
0.000754764
0.000684229
0.000629376
0.000349757
0.000333659
0.000444646
0.000445465
0.000446013
0.000452399
0.000459445
0.000471472
0.000467899
0.000496377
0.000481439
0.00051086
0.000484107
0.000448931
0.000313058
0.000357228
0.000477838
0.00054396
0.000515774
0.000632481
0.000692922
0.000666345
0.000238462
0.000234231
0.000239574
0.000238875
0.000245876
0.000250505
0.000259103
0.000282352
0.000283624
0.000291135
0.000275873
0.000338256
0.00040894
0.000399322
0.000329764
0.000314382
0.000308042
0.000309969
0.000298696
0.000320797
0.000141916
0.000145173
0.000147552
0.000151166
0.000146921
0.00014616
0.000144493
0.000139291
0.000140982
0.000144939
0.000140181
0.000143215
0.000142773
0.000147278
0.00012474
0.000166901
0.000185588
0.000242946
0.000235583
0.000294933
3.64184e-05
4.14919e-05
4.88122e-05
5.15338e-05
4.95208e-05
5.27724e-05
5.16119e-05
5.52407e-05
6.9042e-05
7.87921e-05
8.82718e-05
9.66819e-05
0.00011624
0.000128157
0.000124567
0.000118318
0.000135726
0.000135317
0.000114655
0.000138264
8.24332e-05
7.37388e-05
6.66237e-05
5.89118e-05
4.87519e-05
4.11249e-05
1.46514e-05
1.52409e-05
2.70372e-05
3.23592e-05
3.39965e-05
3.77725e-05
4.98459e-05
6.59303e-05
7.55597e-05
5.41081e-05
6.89899e-05
4.19949e-05
6.68486e-05
8.37494e-05
9.04082e-05
8.79154e-05
8.91701e-05
8.87034e-05
8.87554e-05
8.60698e-05
8.62087e-05
8.41937e-05
8.40443e-05
8.24182e-05
8.43745e-05
8.01569e-05
8.14723e-05
7.75742e-05
8.39203e-05
7.99682e-05
7.20474e-05
5.05307e-05
5.57912e-05
7.34638e-05
9.083e-05
9.06605e-05
9.02284e-05
8.98762e-05
8.98467e-05
8.85597e-05
8.78727e-05
8.51959e-05
8.65397e-05
8.44525e-05
8.41098e-05
8.06421e-05
8.53921e-05
8.51003e-05
9.52859e-05
8.56778e-05
8.98201e-05
8.29807e-05
9.30626e-05
9.56166e-05
7.79144e-05
7.76612e-05
7.61407e-05
7.48562e-05
7.60198e-05
7.74038e-05
7.99589e-05
8.27639e-05
8.67777e-05
8.90259e-05
9.53901e-05
0.000101196
0.000105366
0.000101837
0.000103734
0.000101871
0.00011007
0.000103649
0.000113889
0.000112578
3.02125e-05
3.06743e-05
3.20741e-05
3.41076e-05
3.73906e-05
4.09729e-05
4.52993e-05
4.98885e-05
5.55382e-05
6.04672e-05
6.63461e-05
6.98274e-05
7.34157e-05
7.48193e-05
8.31708e-05
8.39805e-05
8.73669e-05
8.4838e-05
9.1649e-05
9.38656e-05
5.55836e-05
5.54245e-05
5.50889e-05
5.48399e-05
5.48032e-05
5.53622e-05
5.52075e-05
5.44074e-05
5.42579e-05
5.42144e-05
5.49751e-05
5.60445e-05
5.92032e-05
6.19562e-05
6.3885e-05
6.11762e-05
5.46625e-05
5.80988e-05
4.92107e-05
6.09078e-05
4.99732e-05
5.04702e-05
4.8592e-05
4.72032e-05
4.5685e-05
4.47228e-05
4.50919e-05
4.5162e-05
4.49825e-05
4.46594e-05
4.45554e-05
4.34878e-05
4.46027e-05
5.179e-05
5.4741e-05
5.3201e-05
5.16485e-05
5.04693e-05
5.13967e-05
5.26622e-05
4.75047e-05
4.70962e-05
4.57939e-05
4.63025e-05
4.54821e-05
4.49072e-05
4.32217e-05
4.46742e-05
4.47893e-05
4.50443e-05
4.56502e-05
4.63382e-05
4.53874e-05
4.20036e-05
4.08718e-05
4.23261e-05
4.37846e-05
4.4072e-05
4.43831e-05
4.58798e-05
6.49927e-05
6.35168e-05
6.2839e-05
6.13191e-05
6.04508e-05
5.91521e-05
5.7859e-05
5.66577e-05
5.56343e-05
5.44944e-05
5.35408e-05
5.26778e-05
5.2271e-05
5.12646e-05
4.97348e-05
4.81621e-05
4.64615e-05
4.50197e-05
4.32689e-05
4.22885e-05
0.0010134
0.00113696
0.000892928
0.000912752
0.000984817
0.0010036
0.00104602
0.00109086
0.00113231
0.00117127
0.00121991
0.00126729
0.00133721
0.00137188
0.0014409
0.00146819
0.00150107
0.00190222
0.00673143
0.0190708
0.000923763
0.00102907
0.000837887
0.000978099
0.00104173
0.00108774
0.0011315
0.00116548
0.00120671
0.00123134
0.00126999
0.0012923
0.00134036
0.00136831
0.00144597
0.00146079
0.00155441
0.00140098
0.00550481
0.0186336
0.00103312
0.00114848
0.000872941
0.000942234
0.000995113
0.00101265
0.00104483
0.00109131
0.00113408
0.00117627
0.00122813
0.00127597
0.00134539
0.00138032
0.00144691
0.00144809
0.00154452
0.0013191
0.00479233
0.0181686
0.00103594
0.00115369
0.00092616
0.00102369
0.00106322
0.00108467
0.00112286
0.00116694
0.00120586
0.00123958
0.00127997
0.00131031
0.00136033
0.00138631
0.00145787
0.00147607
0.0015971
0.00139508
0.00432732
0.0176108
0.00111145
0.00120373
0.000924455
0.000977119
0.00100155
0.00102945
0.00107156
0.00111637
0.00115169
0.00119626
0.00124239
0.00128964
0.00134651
0.00137975
0.00145145
0.00146011
0.00156943
0.00141318
0.00472295
0.0169503
0.00107212
0.00114517
0.000912737
0.00100188
0.00106098
0.00110246
0.00114048
0.00117581
0.00121295
0.00125868
0.00129405
0.00133484
0.00138035
0.00142288
0.00149155
0.00151098
0.00162823
0.0015097
0.00495211
0.0162165
0.0010893
0.00114883
0.000945543
0.00103031
0.00106286
0.0010826
0.00110377
0.00113918
0.00117994
0.00121571
0.00125194
0.00129556
0.00134461
0.00139094
0.00146247
0.00150127
0.00165247
0.00156776
0.00471065
0.0154558
0.00102976
0.0010852
0.000929736
0.00099905
0.00103349
0.00106952
0.00110831
0.001166
0.00119946
0.00123391
0.00126435
0.0013212
0.00137493
0.0014385
0.00150748
0.00155467
0.00166183
0.00152949
0.0040364
0.0143322
0.00103798
0.0010969
0.000959515
0.00102637
0.00107161
0.00110542
0.00113326
0.00116062
0.00116538
0.00119665
0.00124133
0.00130991
0.00135166
0.0014205
0.00146708
0.00152591
0.00160785
0.00161951
0.00310922
0.0127744
0.00106045
0.00111578
0.000994761
0.00105372
0.00107816
0.00109368
0.0011032
0.00112524
0.00115184
0.00121607
0.00127532
0.0013279
0.00136293
0.00142362
0.0014451
0.00150916
0.00157044
0.00163571
0.00256737
0.0102396
0.00104777
0.0010667
0.000948306
0.000995825
0.00101111
0.0010257
0.00104442
0.00109597
0.00114967
0.00121787
0.00125061
0.00129126
0.00134096
0.00139999
0.00143349
0.00152624
0.00155158
0.00159969
0.00212308
0.00809303
0.000943647
0.000936384
0.000889796
0.000935101
0.000973478
0.00101809
0.00107195
0.00114724
0.00119285
0.00125402
0.00128143
0.00135276
0.00138892
0.00142596
0.00143542
0.00151004
0.00154158
0.00161963
0.00187181
0.00649802
0.000977458
0.00103368
0.000987521
0.00104086
0.00109503
0.00113635
0.00118923
0.00122502
0.00124302
0.00127049
0.00126991
0.00129606
0.00127975
0.00130792
0.00136485
0.00147899
0.00146623
0.00160339
0.00171675
0.00527009
0.000998404
0.0010302
0.000974041
0.00102064
0.00104895
0.00106344
0.00108678
0.00109211
0.00110447
0.00113166
0.00114278
0.00122021
0.00126408
0.00142252
0.00152412
0.00159007
0.0015974
0.00168024
0.00165939
0.00445301
0.000954791
0.000990427
0.000960023
0.00101119
0.00104383
0.00107233
0.00110515
0.001135
0.00119109
0.00124249
0.00130806
0.00139378
0.00143409
0.00151308
0.00143107
0.00140768
0.00142513
0.00156239
0.00152181
0.00394127
0.00096722
0.000999786
0.000969228
0.00101608
0.00104486
0.00107106
0.00109869
0.00114079
0.00118055
0.0012114
0.00125827
0.00127724
0.00129525
0.00130738
0.00129906
0.00146028
0.00157002
0.00161559
0.00167609
0.00439289
0.000959256
0.00099552
0.000974499
0.0010223
0.00105256
0.00107578
0.00111446
0.00115319
0.00118523
0.00122795
0.00126246
0.00129564
0.00133584
0.00137732
0.00145248
0.00153657
0.00144018
0.00139653
0.00159658
0.00428623
0.00093786
0.000976645
0.000955372
0.00101207
0.00105356
0.00108518
0.00113499
0.0011625
0.00120715
0.00123308
0.00127276
0.0013006
0.00134467
0.00136867
0.00142515
0.00140361
0.00146529
0.00158688
0.0019301
0.0028226
0.000943851
0.000995005
0.000976223
0.0010379
0.00106143
0.00109383
0.00111802
0.00114085
0.00117442
0.00118999
0.00124102
0.00126416
0.00133462
0.00137708
0.00146796
0.0015647
0.00171282
0.00185848
0.00161237
0.00156472
0.000960101
0.000999216
0.000979867
0.00103405
0.00105616
0.00108942
0.00111253
0.00115961
0.00119184
0.00125815
0.00130857
0.00138014
0.00144293
0.00151197
0.001531
0.0015956
0.00158492
0.00153603
0.00144025
0.00130076
0.000570725
0.000505458
0.00041503
0.000432191
0.000459471
0.000415148
0.000434089
0.000405643
0.000375708
0.000371254
0.000463464
0.000394384
0.00021767
5.53308e-05
0.00178086
0.00605533
0.0113044
0.0123769
0.00780654
0.00124763
0.000610435
0.000601046
0.000480264
0.000411298
0.000435041
0.000438736
0.000443662
0.000416784
0.000451354
0.000438722
0.000437342
0.000446115
0.000347177
5.31072e-05
0.000449085
0.00366163
0.00949822
0.0130765
0.00983611
0.00183707
0.000607998
0.000597507
0.000518951
0.000477772
0.000500575
0.000440638
0.000460022
0.000432688
0.000417684
0.000448502
0.000480824
0.000525083
0.000464221
0.000293634
0.000110181
0.00175657
0.00736912
0.0129241
0.0111514
0.00316174
0.000636817
0.000651951
0.00055721
0.000449366
0.000492859
0.000509096
0.000513036
0.000488106
0.000495944
0.00046998
0.000471562
0.000506013
0.000545257
0.000469842
0.000216093
0.000487143
0.00525656
0.011783
0.0124337
0.0026982
0.000645665
0.00066613
0.000617103
0.000528201
0.000541511
0.000480841
0.000514415
0.000518296
0.000518423
0.00055266
0.000570157
0.00057455
0.000605568
0.000565811
0.000391774
0.000208681
0.00270948
0.010706
0.0131617
0.00582067
0.000656516
0.000681331
0.000641106
0.000518587
0.000567232
0.000586278
0.0005819
0.000552767
0.000563348
0.000562631
0.000585515
0.000636865
0.000663441
0.00070201
0.000597524
0.000352284
0.00121955
0.00934707
0.0135345
0.0087198
0.000688231
0.000712739
0.00068399
0.000569395
0.000593261
0.000553031
0.000597836
0.000627366
0.000629325
0.000654239
0.000675466
0.000694816
0.000709112
0.000769298
0.000748885
0.000430375
0.000462074
0.00799132
0.0135537
0.0112801
0.000686924
0.000710567
0.000713727
0.000585063
0.00062909
0.000648338
0.000649106
0.000624981
0.000649356
0.000679313
0.000711526
0.000768568
0.000801002
0.000842631
0.000845597
0.000644851
0.000330484
0.0056267
0.0134247
0.0141395
0.000708486
0.000728873
0.000724978
0.00060043
0.000645343
0.000639414
0.000683463
0.000722831
0.000728749
0.000745825
0.00077533
0.000808175
0.000834784
0.000880237
0.000960553
0.000856093
0.00013202
0.00387165
0.0132221
0.0159573
0.000712043
0.00073557
0.000771916
0.000643835
0.000687864
0.000710745
0.000722956
0.000713971
0.00074742
0.000796014
0.000831955
0.00089218
0.000922077
0.000960856
0.00099329
0.000953495
0.000284256
0.0025383
0.0128748
0.0171936
0.000765135
0.000768161
0.000792989
0.000661069
0.000719899
0.000747033
0.000775369
0.000807547
0.000824884
0.00083963
0.000876833
0.000919018
0.000948316
0.00101955
0.00108723
0.00107779
0.000546583
0.00171707
0.0124479
0.018031
0.000793565
0.000749054
0.000815108
0.000707714
0.000751521
0.000778701
0.000795797
0.000807871
0.000847538
0.000899699
0.000941651