/*--------------------------------*- C++ -*----------------------------------*\
  =========                 |
  \\      /  F ield         | OpenFOAM: The Open Source CFD Toolbox
   \\    /   O peration     | Website:  https://openfoam.org
    \\  /    A nd           | Version:  9
     \\/     M anipulation  |
\*---------------------------------------------------------------------------*/
FoamFile
{
    format      ascii;
    class       volScalarField;
    location    "8.9";
    object      p;
}
// * * * * * * * * * * * * * * * * * * * * * * * * * * * * * * * * * * * * * //

dimensions      [0 2 -2 0 0 0 0];

internalField   nonuniform List<scalar> 
46400
(
-131.499
-121.588
-105.62
-92.0644
-79.7334
-68.2899
-57.971
-48.3741
-39.6718
-31.5266
-24.0239
-17.0314
-10.4812
-4.33439
1.53965
7.14223
12.4584
18.1075
23.675
25.6361
-93.2382
-84.1933
-69.9363
-57.3896
-46.2957
-35.8883
-26.6238
-18.0006
-10.2014
-2.9885
3.64546
9.74162
15.3789
20.6278
25.5004
30.0258
34.233
38.5156
42.3646
43.4972
-55.4315
-47.5544
-34.9699
-23.6671
-13.7151
-4.3731
3.9678
11.6615
18.5926
24.972
30.8294
36.1822
41.1319
45.6507
49.8665
53.7085
57.1942
60.7072
63.4622
63.4038
-18.7638
-12.8587
-1.42105
9.15102
18.1693
26.5974
33.9772
40.7746
46.8234
52.3167
57.2945
61.7979
65.8826
69.6214
73.0265
76.1246
78.919
81.7265
84.0493
83.7525
14.8394
20.569
31.52
41.2108
49.3896
56.9062
63.4508
69.3514
74.5965
79.2766
83.5251
87.29
90.7032
93.7112
96.4582
98.8843
101.006
103.145
104.831
104.056
48.2246
54.9528
64.5572
73.2299
80.2385
86.6904
92.1896
97.1276
101.462
105.282
108.695
111.71
114.388
116.767
118.87
120.728
122.326
123.938
125.233
124.256
82.0228
89.1697
97.1641
104.445
110.32
115.615
120.167
124.119
127.597
130.575
133.209
135.479
137.457
139.155
140.621
141.878
142.884
143.934
144.67
143.414
115.355
122.756
128.734
134.623
139.288
143.443
146.975
149.992
152.603
154.796
156.686
158.262
159.601
160.687
161.597
162.298
162.847
163.368
163.799
162.281
147.107
154.08
158.654
163.034
166.678
169.714
172.349
174.475
176.279
177.698
178.862
179.763
180.459
180.962
181.302
181.502
181.523
181.596
181.646
180.023
177.418
182.423
186.207
189.327
192.024
194.179
195.968
197.344
198.446
199.222
199.781
200.09
200.234
200.192
200.036
199.738
199.322
198.924
198.499
196.68
204.259
208.191
211.22
213.525
215.424
216.771
217.853
218.508
218.945
219.081
219.032
218.787
218.392
217.847
217.183
216.409
215.523
214.663
213.756
211.656
228.72
231.909
234.205
235.739
236.966
237.673
238.087
238.15
237.999
237.581
236.995
236.214
235.329
234.303
233.205
232.001
230.73
229.479
228.219
225.967
250.785
253.172
254.848
255.706
256.339
256.427
256.31
255.809
255.158
254.271
253.248
252.049
250.742
249.32
247.825
246.238
244.579
242.935
241.28
238.813
271.069
272.868
273.993
274.308
274.406
274.018
273.4
272.413
271.226
269.823
268.3
266.628
264.867
263.01
261.099
259.127
257.099
255.092
253.076
250.41
288.075
289.318
290.042
289.946
289.596
288.83
287.867
286.661
285.206
283.567
281.743
279.817
277.773
275.663
273.478
271.251
268.965
266.707
264.483
261.59
304.153
304.875
305.201
304.677
303.857
302.578
301.112
299.401
297.531
295.489
293.316
291.04
288.677
286.257
283.79
281.298
278.768
276.278
273.838
270.89
317.414
317.367
317.306
316.552
315.542
314.115
312.408
310.462
308.345
306.085
303.705
301.228
298.675
296.057
293.399
290.712
287.99
285.307
282.713
279.545
328.11
328.048
327.445
326.507
325.133
323.515
321.535
319.391
317.006
314.527
311.902
309.236
306.482
303.715
300.905
298.103
295.267
292.487
289.84
286.637
336.501
336.448
335.566
334.322
332.755
330.902
328.837
326.533
324.106
321.5
318.813
316.009
313.159
310.246
307.318
304.371
301.408
298.485
295.705
292.427
343.659
343.09
341.962
340.464
338.637
336.583
334.287
331.837
329.222
326.506
323.685
320.8
317.861
314.891
311.904
308.916
305.915
302.952
300.132
296.921
-565.335
-562.973
-548.105
-531.263
-511.43
-492.116
-474.1
-457.008
-440.706
-425.216
-410.463
-396.372
-382.961
-370.087
-357.893
-346.07
-334.975
-324.176
-314.119
-304.489
-566.598
-563.839
-548.118
-528.554
-507.989
-488.036
-469.261
-451.696
-435.016
-419.21
-404.198
-389.868
-376.246
-363.217
-350.852
-338.91
-327.74
-316.896
-306.859
-297.194
-564.484
-561.545
-543.843
-522.83
-501.74
-481.55
-462.462
-444.554
-427.595
-411.558
-396.321
-381.875
-368.152
-355.056
-342.671
-330.751
-319.624
-308.799
-298.876
-289.22
-559.709
-557.526
-540.715
-517.321
-495.477
-474.636
-455.064
-436.727
-419.466
-403.172
-387.79
-373.165
-359.338
-346.195
-333.765
-321.811
-310.681
-299.868
-290.047
-280.38
-555.241
-551.726
-533.142
-508.983
-486.121
-464.828
-445.015
-426.49
-409.044
-392.682
-377.19
-362.584
-348.747
-335.623
-323.212
-311.336
-300.394
-289.644
-280.027
-270.42
-545.37
-541.458
-522.049
-497.639
-475.007
-453.574
-433.67
-415.073
-397.609
-381.183
-365.744
-351.108
-337.331
-324.281
-311.956
-300.186
-289.239
-278.565
-269.036
-259.425
-534.644
-529.569
-509.107
-484.254
-461.227
-439.769
-419.771
-401.23
-383.778
-367.485
-352.123
-337.676
-324.04
-311.172
-299.023
-287.495
-276.782
-266.401
-257.222
-247.748
-519.53
-513.78
-492.569
-467.932
-445.281
-424.067
-404.304
-385.918
-368.696
-352.542
-337.4
-323.096
-309.665
-296.98
-285.028
-273.688
-263.099
-252.871
-243.845
-234.478
-502.639
-495.999
-474.293
-449.621
-426.969
-406.021
-386.4
-368.322
-351.337
-335.51
-320.666
-306.711
-293.6
-281.268
-269.649
-258.666
-248.446
-238.592
-229.977
-220.746
-481.887
-474.643
-452.644
-428.622
-406.497
-386.057
-366.93
-349.192
-332.624
-317.117
-302.617
-288.971
-276.178
-264.129
-252.808
-242.134
-232.139
-222.579
-214.198
-205.195
-459.356
-451.486
-429.382
-405.674
-383.866
-363.893
-345.153
-327.946
-311.829
-296.822
-282.824
-269.659
-257.344
-245.782
-234.911
-224.664
-215.085
-205.934
-197.948
-189.098
-433.531
-425.242
-403.262
-380.399
-359.309
-340.074
-322.009
-305.294
-289.741
-275.203
-261.659
-248.962
-237.079
-225.932
-215.495
-205.712
-196.532
-187.838
-180.232
-171.712
-405.999
-397.461
-375.497
-353.481
-332.798
-314.206
-296.759
-280.738
-265.819
-251.92
-239.025
-226.9
-215.607
-205.017
-195.099
-185.781
-177.042
-168.824
-161.618
-153.343
-375.931
-367.261
-345.278
-324.581
-304.833
-287.018
-270.384
-254.973
-240.709
-227.4
-215.062
-203.54
-192.783
-182.736
-173.359
-164.614
-156.384
-148.7
-141.928
-133.998
-344.463
-335.696
-313.837
-294.033
-275.14
-258.119
-242.287
-227.708
-214.21
-201.618
-189.998
-179.092
-168.976
-159.513
-150.708
-142.468
-134.738
-127.607
-121.265
-113.68
-311.365
-302.374
-281.039
-262.278
-244.382
-228.21
-213.216
-199.338
-186.561
-174.659
-163.68
-153.465
-143.952
-135.099
-126.869
-119.232
-112.035
-105.456
-99.5577
-92.3001
-277.183
-267.793
-247.12
-229.391
-212.534
-197.256
-183.183
-170.154
-158.188
-146.997
-136.724
-127.124
-118.239
-109.966
-102.316
-95.1899
-88.5186
-82.5201
-77.0642
-70.2423
-241.714
-232.395
-212.565
-195.72
-179.851
-165.433
-152.223
-139.997
-128.801
-118.385
-108.798
-99.9172
-91.6666
-84.0049
-76.9293
-70.3801
-64.2486
-58.8356
-53.8996
-47.4924
-205.328
-195.83
-177.001
-161.412
-146.706
-133.262
-121.013
-109.612
-99.2274
-89.4922
-80.5706
-72.2643
-64.5664
-57.4277
-50.8264
-44.6608
-38.9521
-34.054
-29.3816
-22.6654
-168.564
-159.202
-141.575
-126.738
-113.161
-100.603
-89.2777
-78.7475
-69.1308
-60.1699
-51.8773
-44.1727
-36.9613
-30.1822
-23.8104
-17.7628
-12.1615
-6.86368
-1.07919
5.53681
-257.8
-205.838
-159.206
-128.592
-100.318
-80.5208
-62.9902
-49.2161
-38.0806
-28.226
-21.0348
-13.8946
-9.33921
-4.03851
-1.1607
2.61453
5.02713
6.67394
7.90771
8.20527
-250.797
-200.981
-155.308
-125.793
-97.8176
-78.5828
-61.3313
-47.8366
-36.9357
-27.2316
-20.2198
-13.177
-8.77812
-3.51337
-0.847507
2.97589
5.17698
6.89053
8.10878
8.30001
-243.675
-196.06
-150.927
-122.654
-95.2111
-76.5712
-59.6693
-46.4333
-35.7659
-26.2051
-19.3507
-12.4238
-8.16668
-2.96314
-0.498057
3.36818
5.32627
7.22766
8.3387
8.44564
-235.473
-190.398
-146.455
-119.35
-92.4512
-74.3382
-57.8147
-44.8565
-34.4643
-25.0657
-18.4032
-11.5974
-7.48392
-2.37796
-0.116933
3.7788
5.51334
7.61082
8.523
8.57233
-226.939
-184.528
-141.564
-115.744
-89.5399
-72.0261
-55.9457
-43.2531
-33.1347
-23.8909
-17.4015
-10.7319
-6.75016
-1.75689
0.286251
4.23978
5.73579
7.94791
8.72321
8.75368
-217.524
-177.992
-136.496
-111.987
-86.4897
-69.5164
-53.9018
-41.4856
-31.6793
-22.6102
-16.3208
-9.7928
-5.9412
-1.09647
0.73972
4.87068
5.95735
8.3422
8.9043
8.90897
-207.511
-171.164
-131.085
-107.939
-83.2894
-66.9155
-51.8346
-39.691
-30.1938
-21.2917
-15.1878
-8.81388
-5.08958
-0.412609
1.23632
5.67449
6.26298
8.80793
9.03454
9.11278
-196.761
-163.711
-125.428
-103.724
-79.9624
-64.1364
-49.6064
-37.7426
-28.5883
-19.875
-13.9739
-7.76125
-4.16192
0.339703
1.82263
6.55254
6.68534
9.2807
9.19856
9.2949
-185.497
-155.953
-119.51
-99.2548
-76.4899
-61.2634
-47.3498
-35.7685
-26.9513
-18.4199
-12.7113
-6.67241
-3.19879
1.16369
2.53377
7.44969
7.10911
9.74037
9.36005
9.53241
-173.457
-147.632
-113.296
-94.5943
-72.9051
-58.2274
-44.9439
-33.6529
-25.2012
-16.8742
-11.3655
-5.49217
-2.17081
2.09466
3.3845
8.32638
7.48747
10.2114
9.53468
9.74594
-160.837
-139.093
-106.899
-89.7146
-69.182
-55.1028
-42.5062
-31.5138
-23.4186
-15.2921
-9.98456
-4.25809
-1.10099
3.16567
4.31344
9.17857
7.83554
10.7022
9.71835
10.018
-147.398
-130.053
-100.222
-84.6347
-65.3633
-51.8305
-39.9305
-29.2488
-21.532
-13.6285
-8.53146
-2.95436
0.0754423
4.30389
5.31321
10.0163
8.20306
11.1951
9.92658
10.2757
-133.388
-120.816
-93.4174
-79.351
-61.4098
-48.4777
-37.319
-26.9621
-19.6114
-11.9316
-7.04963
-1.63198
1.29979
5.42594
6.34746
10.8391
8.64257
11.679
10.1598
10.5509
-118.548
-111.182
-86.4135
-73.8755
-57.3706
-44.9891
-34.5758
-24.5626
-17.5936
-10.1585
-5.49104
-0.256505
2.56489
6.57083
7.38518
11.6605
9.12418
12.2164
10.4138
10.8251
-103.004
-101.383
-79.4157
-68.2718
-53.2366
-41.4551
-31.8096
-22.1551
-15.5496
-8.36074
-3.90528
1.1405
3.84377
7.71261
8.44105
12.5243
9.62598
12.7891
10.6792
11.1065
-86.4384
-90.9747
-72.2226
-62.4685
-49.0167
-37.8109
-28.9318
-19.6625
-13.4283
-6.50209
-2.25428
2.58839
5.16622
8.88333
9.50475
13.4347
10.1679
13.3125
10.9382
11.3869
-69.5801
-80.3415
-64.7973
-56.2748
-44.4748
-33.9674
-25.902
-17.0657
-11.21
-4.56903
-0.545374
4.09138
6.53015
10.1331
10.6026
14.479
10.7057
13.9035
11.1968
11.593
-52.6049
-70.5059
-58.2009
-50.5526
-40.173
-30.1837
-22.8642
-14.4521
-8.9605
-2.59476
1.2263
5.64175
7.93202
11.4066
11.6802
15.6103
11.2629
14.8771
11.4902
12.1836
-30.1022
-59.2778
-52.7225
-45.9236
-36.7084
-27.1599
-20.4359
-12.3531
-7.08517
-0.915898
2.77351
6.9874
9.15311
12.5249
12.6434
16.5947
11.727
15.0972
11.429
12.1911
-5.43582
-40.6188
-41.6076
-36.8115
-30.3949
-22.2794
-16.5464
-9.1608
-4.36103
1.37174
4.74436
8.70661
10.6854
13.9133
13.887
17.7559
12.5312
15.4595
10.5104
12.9301
48.2635
56.8329
38.0485
32.4146
24.4399
23.2891
20.2452
20.7836
19.8725
21.5108
21.5339
23.8906
23.8099
26.0563
24.9656
27.6944
24.1477
30.0528
15.9894
35.9596
109.024
99.7822
76.878
68.2959
56.6142
51.3253
45.4294
42.6144
39.4863
38.0798
36.4195
35.8992
35.1165
35.3162
34.5451
35.3701
33.9967
35.6717
34.1395
37.0021
129.941
117.32
103.287
93.1319
83.767
76.942
70.854
66.8192
62.8989
60.5185
57.9056
56.394
54.5399
53.8811
52.5459
52.3207
51.441
51.3661
51.1816
51.8421
138.65
128.644
116.922
108.509
99.614
93.2326
86.7497
81.8206
77.2256
73.5459
70.2567
67.6529
65.1252
63.1325
61.3397
59.9923
58.7204
58.1018
57.4982
57.5412
136.434
128.079
121.165
114.238
108.305
102.536
97.6693
93.1703
89.2428
85.8424
82.6414
80.0778
77.5607
75.5977
73.5596
71.9435
70.2722
68.61
67.7705
67.6216
138.3
132.816
126.352
120.848
115.539
110.806
106.069
102.034
98.0072
94.6247
91.3195
88.4811
85.7468
83.2638
81.0525
78.8457
77.168
75.4074
74.4259
73.8863
135.249
130.598
127.257
123.128
119.192
115.353
111.788
108.398
105.186
102.285
99.381
96.8861
94.2881
92.1322
89.7189
87.7269
85.496
83.496
82.0957
81.3843
136.408
133.755
130.145
126.619
123.138
120.101
116.859
114.004
111.015
108.39
105.665
103.319
100.73
98.5775
96.0957
94.0558
91.6
89.5636
87.5523
86.8559
135.691
132.992
130.577
128.345
125.874
123.384
120.93
118.647
116.274
114.197
111.868
109.966
107.713
105.92
103.602
101.822
99.2278
97.451
94.9182
94.2571
136.917
135.312
133.198
131.179
128.893
126.915
124.77
122.889
120.886
119.117
117.22
115.559
113.637
112.088
109.997
108.492
105.844
104.486
101.176
100.815
137.517
135.992
134.375
133.036
131.518
130.079
128.534
127.133
125.607
124.33
122.885
121.742
120.357
119.312
117.917
116.929
115.072
114.598
110.621
112.167
138.849
137.902
136.566
135.339
134.01
132.886
131.644
130.638
129.556
128.681
127.758
127.037
126.277
125.733
125.159
124.854
124.395
124.484
124.984
126.649
140.088
139.247
138.245
137.434
136.499
135.722
134.885
134.205
133.512
133.008
132.561
132.259
132.163
132.056
132.461
132.483
133.724
133.67
136.428
137.399
141.162
140.494
139.694
139.061
138.358
137.841
137.25
136.9
136.46
136.336
136.112
136.318
136.391
137.039
137.502
138.761
139.787
141.886
144.597
145.484
142.473
141.947
141.36
140.908
140.425
140.087
139.736
139.569
139.407
139.489
139.597
139.974
140.376
141.114
141.934
143.261
144.732
146.85
149.139
152.998
143.372
142.968
142.488
142.136
141.757
141.545
141.308
141.28
141.186
141.36
141.411
141.829
142.139
142.917
143.579
144.737
145.698
147.302
148.113
159.372
144.307
143.941
143.562
143.303
143.075
142.962
142.837
142.869
142.853
143.107
143.237
143.781
144.111
144.935
145.514
146.616
147.302
148.942
149.732
152.506
144.85
144.552
144.28
144.08
143.881
143.745
143.663
143.693
143.763
143.968
144.166
144.574
144.815
145.518
145.85
146.777
147.211
148.312
148.537
157.335
145.34
145.058
144.803
144.611
144.435
144.373
144.351
144.43
144.506
144.713
144.909
145.251
145.584
146.098
146.492
147.158
147.456
148.238
148.479
149.619
145.536
145.273
145.049
144.889
144.771
144.71
144.638
144.698
144.766
144.951
145.143
145.467
145.737
146.173
146.514
147.05
147.43
148.116
148.386
154.579
258.949
255.975
252.156
247.9
242.77
237.107
230.616
223.579
215.523
207.261
197.557
187.345
176.749
165.087
153.236
140.249
127.262
113.047
99.2111
84.5184
228.193
226.252
223.995
221.447
218.542
215.39
211.827
208.135
203.818
199.801
194.441
189.199
184.519
179.258
173.781
168.028
162.15
155.103
146.868
137.937
191.769
190.451
189.024
187.497
185.785
184.029
182.028
180.011
177.752
175.466
172.756
170.213
166.947
163.624
159.721
156.395
153.216
149.985
146.292
142.986
179.31
178.351
177.298
176.206
175.002
173.76
172.39
170.985
169.391
167.863
166.061
164.443
162.421
160.686
158.239
155.978
153.857
151.598
149.18
147.02
163.484
162.748
161.947
161.157
160.261
159.431
158.439
157.538
156.452
155.458
154.323
153.234
151.926
150.713
149.122
147.681
145.756
144.112
142.421
141
157.808
157.21
156.595
155.95
155.29
154.596
153.888
153.146
152.383
151.598
150.698
149.907
148.895
148.066
146.941
146.051
144.828
143.606
142.586
141.524
151.227
150.735
150.206
149.688
149.108
148.579
147.958
147.407
146.724
146.137
145.382
144.679
143.772
142.863
141.812
140.922
139.966
139.113
138.255
137.451
148.507
148.1
147.678
147.248
146.8
146.353
145.868
145.41
144.88
144.379
143.841
143.304
142.732
142.144
141.541
140.939
140.32
139.716
139.033
138.438
146.157
145.794
145.417
145.033
144.635
144.223
143.803
143.369
142.868
142.345
141.812
141.314
140.807
140.34
139.85
139.351
138.822
138.313
137.776
137.243
145
144.691
144.371
144.05
143.737
143.415
143.085
142.74
142.391
142.028
141.664
141.29
140.917
140.525
140.144
139.751
139.353
138.946
138.533
138.135
144.642
144.367
144.089
143.806
143.52
143.226
142.935
142.648
142.359
142.062
141.763
141.457
141.15
140.822
140.477
140.121
139.756
139.382
138.999
138.612
144.661
144.431
144.196
143.956
143.71
143.464
143.203
142.933
142.666
142.395
142.124
141.85
141.577
141.3
141.024
140.744
140.467
140.183
139.904
139.616
144.978
144.782
144.583
144.381
144.177
143.969
143.76
143.547
143.331
143.11
142.888
142.66
142.431
142.197
141.963
141.723
141.485
141.238
140.998
140.746
145.367
145.181
144.995
144.807
144.619
144.43
144.24
144.049
143.859
143.667
143.476
143.281
143.089
142.892
142.698
142.498
142.302
142.098
141.901
141.693
145.963
145.817
145.671
145.523
145.373
145.22
145.066
144.91
144.752
144.592
144.43
144.264
144.099
143.93
143.761
143.587
143.419
143.245
143.079
142.904
146.437
146.284
146.131
145.978
145.825
145.673
145.522
145.371
145.222
145.073
144.928
144.783
144.642
144.501
144.365
144.227
144.094
143.96
143.832
143.7
146.877
146.744
146.613
146.483
146.355
146.228
146.103
145.979
145.857
145.736
145.616
145.498
145.381
145.265
145.151
145.039
144.928
144.814
144.703
144.588
147.212
147.085
146.96
146.836
146.713
146.592
146.472
146.354
146.237
146.123
146.01
145.899
145.79
145.682
145.577
145.474
145.373
145.274
145.178
145.083
147.511
147.391
147.273
147.157
147.042
146.93
146.818
146.71
146.602
146.497
146.393
146.291
146.192
146.094
145.999
145.905
145.813
145.724
145.637
145.552
147.615
147.497
147.382
147.269
147.157
147.047
146.939
146.833
146.729
146.627
146.527
146.43
146.334
146.241
146.15
146.061
145.975
145.891
145.809
145.73
157.593
156.329
152.178
148.131
144.507
140.717
136.765
132.598
128.119
123.25
117.947
112.1
105.705
98.583
90.8047
82.055
72.4501
61.8425
48.8224
41.7433
167.803
167.559
165.312
162.898
160.278
157.368
154.149
150.592
146.667
142.336
137.583
132.321
126.561
120.128
113.108
105.156
96.6178
86.8013
75.4971
68.0246
180.488
180.834
179.008
176.982
174.883
172.472
169.813
166.89
163.65
160.061
156.074
151.624
146.688
141.123
134.984
127.994
120.371
111.592
101.631
95.145
193.191
193.895
192.695
191.369
189.939
188.231
186.258
183.999
181.409
178.451
175.092
171.279
166.989
162.103
156.677
150.428
143.677
135.697
126.919
121.767
206.465
207.39
206.484
205.52
204.481
203.202
201.693
199.949
197.914
195.584
192.895
189.812
186.288
182.217
177.613
172.236
166.246
159.096
150.849
146.578
218.693
219.889
219.449
219.027
218.557
217.879
216.996
215.892
214.51
212.836
210.808
208.399
205.546
202.174
198.28
193.616
188.413
181.987
174.359
170.034
231.061
232.472
232.42
232.388
232.3
232.027
231.568
230.932
230.048
228.937
227.515
225.794
223.682
221.142
218.116
214.427
210.211
204.787
198.39
193.259
241.842
243.517
243.957
244.408
244.832
245.103
245.224
245.183
244.932
244.468
243.718
242.703
241.304
239.549
237.3
234.505
231.202
226.794
222.136
216.446
252.514
254.454
255.296
256.138
256.95
257.624
258.158
258.547
258.76
258.799
258.622
258.22
257.511
256.501
255.05
253.217
250.813
247.791
244.249
239.215
261.924
264.108
265.35
266.611
267.838
268.967
269.964
270.875
271.622
272.255
272.657
272.881
272.779
272.43
271.669
270.598
269.009
266.975
264.321
260.71
271.228
273.539
274.952
276.441
277.939
279.359
280.709
281.983
283.143
284.175
285.027
285.709
286.139
286.352
286.214
285.803
284.901
283.644
281.707
278.954
278.463
280.862
282.745
284.655
286.569
288.441
290.238
291.984
293.601
295.126
296.454
297.656
298.57
299.318
299.666
299.822
299.425
298.761
297.385
295.238
284.94
287.732
289.971
292.222
294.466
296.64
298.738
300.747
302.639
304.409
306.018
307.486
308.742
309.847
310.666
311.259
311.387
311.263
310.378
308.884
291.101
293.973
296.281
298.669
301.063
303.412
305.705
307.957
310.119
312.231
314.209
316.127
317.836
319.456
320.723
321.836
322.364
322.734
322.237
321.329
295.454
298.422
300.96
303.587
306.231
308.843
311.418
313.959
316.429
318.835
321.118
323.286
325.237
327.004
328.428
329.706
330.547
331.268
331.184
331.121
299.022
302.12
304.779
307.537
310.313
313.053
315.77
318.45
321.073
323.63
326.078
328.422
330.594
332.621
334.421
336.044
337.335
338.373
338.821
338.952
301.104
304.252
307.026
309.921
312.844
315.743
318.632
321.486
324.296
327.03
329.675
332.2
334.569
336.776
338.727
340.446
341.732
342.811
343.211
343.099
302.224
305.443
308.246
311.198
314.179
317.147
320.102
323.032
325.922
328.742
331.499
334.132
336.666
339.014
341.213
343.141
344.885
346.176
347.389
348.084
301.583
304.838
307.724
310.749
313.795
316.833
319.853
322.863
325.824
328.753
331.595
334.372
337.01
339.533
341.834
343.948
345.715
347.101
347.999
348.435
299.949
303.209
306.112
309.147
312.211
315.259
318.308
321.333
324.338
327.277
330.167
332.932
335.591
338.035
340.288
342.222
343.841
345.015
345.785
345.936
-26.8399
-29.9644
-33.227
-36.569
-39.9629
-43.5441
-47.0704
-50.8041
-54.482
-58.3414
-62.1852
-66.2054
-70.1658
-73.8618
-77.5848
-80.9488
-83.5728
-82.6136
-82.8146
-82.997
-23.4021
-26.6771
-30.1764
-33.8052
-37.4095
-41.292
-45.1068
-49.1582
-53.2149
-57.3755
-61.6308
-66.0188
-70.3317
-74.7997
-78.7114
-82.6276
-85.6094
-86.0752
-86.8088
-86.7059
-19.9943
-23.526
-27.1745
-31.0779
-34.9262
-39.0804
-43.2091
-47.5936
-52.0042
-56.6196
-61.2977
-66.0621
-71.0276
-75.8521
-80.958
-85.6954
-89.4914
-92.1495
-92.0329
-92.4981
-16.4252
-20.153
-24.0142
-28.1898
-32.3218
-36.8169
-41.3203
-46.0961
-51.0016
-56.0726
-61.3442
-66.7834
-72.3817
-78.1285
-84.0755
-89.6548
-95.0902
-99.6938
-99.8609
-100.576
-12.6929
-16.6516
-20.6701
-25.1212
-29.5075
-34.3005
-39.1639
-44.3545
-49.71
-55.3627
-61.2454
-67.3867
-73.857
-80.6518
-87.5869
-94.9822
-102.44
-108.667
-110.76
-111.402
-8.50173
-12.6586
-16.8475
-21.5463
-26.2137
-31.3278
-36.5706
-42.1529
-48.0247
-54.1952
-60.7419
-67.6389
-74.9879
-82.7639
-90.9709
-99.801
-109.216
-117.614
-122.934
-124.025
-3.81569
-8.16836
-12.4826
-17.3992
-22.2898
-27.6536
-33.2186
-39.1811
-45.4605
-52.1542
-59.2622
-66.8402
-74.9843
-83.6641
-93.1232
-103.338
-114.407
-124.726
-134.022
-135.158
1.4203
-3.05688
-7.43921
-12.5111
-17.5862
-23.1626
-28.995
-35.2359
-41.8992
-48.9971
-56.6113
-64.7447
-73.5145
-82.9283
-93.1798
-104.166
-116.051
-127.958
-140.467
-142.32
7.37038
2.84941
-1.49679
-6.66542
-11.8124
-17.5202
-23.5583
-30.0469
-36.9777
-44.4232
-52.4214
-61.023
-70.3647
-80.4641
-91.4294
-103.423
-116.431
-130.5
-142.094
-145.202
14.7199
10.0571
5.67769
0.441363
-4.85492
-10.6583
-16.846
-23.4875
-30.6291
-38.3122
-46.5891
-55.5039
-65.2064
-75.6311
-87.0589
-99.5691
-113.16
-127.566
-141.194
-145.161
23.573
18.6055
14.1665
8.8664
3.44579
-2.41347
-8.69998
-15.4526
-22.7083
-30.5278
-38.9808
-48.1363
-58.1013
-68.9017
-80.7979
-93.7461
-107.701
-123.494
-137.219
-140.392
33.012
27.8878
23.4727
18.2198
12.8095
6.99211
0.727084
-6.00764
-13.2547
-21.1053
-29.5743
-38.755
-48.767
-59.5802
-71.5642
-84.474
-98.9497
-114.752
-129.844
-134.319
42.7705
37.7019
33.4986
28.4697
23.1911
17.5445
11.4097
4.80443
-2.335
-10.0772
-18.471
-27.6175
-37.5894
-48.4403
-60.4058
-73.3336
-87.6083
-103.292
-118.364
-123.241
53.9349
48.9087
44.8736
40.1008
34.9764
29.5332
23.5914
17.1578
10.2061
2.62677
-5.58085
-14.5416
-24.3181
-34.966
-46.7669
-59.4342
-73.9154
-89.273
-104.75
-110.584
65.3989
60.3558
56.6542
52.2881
47.4287
42.3071
36.6659
30.5467
23.8941
16.6303
8.7167
0.0415896
-9.43362
-19.8164
-31.243
-43.6749
-57.6043
-72.4283
-87.7609
-93.7064
78.2307
73.3523
69.9583
66.0602
61.4976
56.7073
51.4147
45.608
39.2821
32.3339
24.7597
16.4309
7.33265
-2.65142
-13.7061
-25.6448
-39.2855
-53.7204
-69.4197
-75.7887
90.8925
86.2374
83.4421
80.2032
76.0488
71.6497
66.7565
61.3433
55.4036
48.8664
41.699
33.806
25.181
15.666
5.25116
-6.15289
-18.9656
-32.3163
-48.1456
-54.6323
103.879
99.9884
97.8965
95.3878
91.8009
87.8352
83.4015
78.4138
72.9064
66.7942
60.084
52.655
44.5183
35.5092
25.5847
14.6909
2.40472
-10.668
-26.172
-32.748
121.771
117.8
115.372
112.887
109.527
105.675
101.408
96.6572
91.4039
85.6075
79.245
72.23
64.5785
56.1101
46.8929
36.6987
25.3225
13.4065
-1.61428
-8.74544
148.408
144.021
138.228
134.237
129.998
125.462
120.796
115.875
110.646
105.014
98.966
92.3684
85.2209
77.319
68.7177
59.1082
48.5887
37.0872
23.048
16.1869
87.3074
87.5857
86.9637
86.354
85.7829
83.5983
82.7174
80.4432
78.762
76.0019
73.2213
69.7562
65.115
60.6079
52.9356
46.7204
34.6255
24.7796
5.84898
-11.0758
87.5818
87.8827
87.3649
86.7376
86.469
84.2649
83.5541
81.387
79.8527
77.2074
74.6052
71.305
66.8942
62.6379
55.1842
49.2843
37.2938
27.9587
9.40492
-6.96004
87.9142
88.287
87.8691
87.1046
87.0776
84.9351
84.3781
82.326
80.9405
78.4199
75.9947
72.8353
68.6145
64.5858
57.3885
51.9498
40.2866
31.6982
12.9754
-2.86502
88.1976
88.5836
88.3575
87.4791
87.7135
85.5797
85.2372
83.2979
82.0573
79.6514
77.4135
74.4096
70.4356
66.6585
59.6864
54.604
43.074
34.95
16.486
1.43716
88.5602
89.0021
88.8463
87.9007
88.3681
86.2624
86.0711
84.268
83.1732
80.8904
78.8377
75.962
72.2062
68.6427
61.9246
57.2906
46.0444
38.7179
20.3302
5.72949
88.8744
89.3423
89.238
88.3131
89.0435
87.0464
86.9711
85.2715
84.3177
82.1488
80.2918
77.5597
74.0728
70.7313
64.3079
60.0291
49.001
42.2182
24.0326
10.3522
89.2128
89.6203
89.6381
88.7207
89.7198
87.8239
87.8391
86.272
85.4626
83.4153
81.75
79.1392
75.8959
72.7364
66.6187
62.6953
52.0359
45.9566
28.0065
15.2956
89.5287
89.9407
90.0361
89.0833
90.3798
88.5807
88.7869
87.3019
86.6349
84.7017
83.237
80.7594
77.8037
74.8468
69.0756
65.5005
55.1997
49.6993
31.9797
20.4629
89.8414
90.2533
90.4608
89.4006
91.0523
89.0942
89.6828
88.3264
87.8064
85.9968
84.7273
82.3673
79.6775
76.8844
71.4667
68.2791
58.3514
54.246
36.3319
25.8354
90.1511
90.5191
90.8947
89.7459
91.7615
89.647
90.6311
89.3892
89.0042
87.3124
86.2437
84.0107
81.6226
79.0127
73.9903
71.3487
61.6795
59.072
40.9557
33.2619
90.4523
90.7464
91.3528
90.1013
92.5245
90.3202
91.5255
90.4526
90.2004
88.6367
87.7625
85.6473
83.5431
81.0808
76.4412
74.2071
64.9961
63.4714
46.1914
41.8874
90.7503
90.958
91.7951
90.4461
93.3068
91.1254
92.4973
91.5581
91.4221
89.9811
89.3036
87.3141
85.5198
83.2141
79.0062
77.0072
68.4754
67.7351
51.2806
49.1905
91.0436
91.168
92.1768
90.8358
94.1173
91.8778
93.4247
92.6604
92.6406
91.3334
90.8461
88.9791
87.4799
85.3065
81.5268
79.7576
71.9282
71.8139
56.6643
56.6955
91.337
91.3699
92.5262
91.2619
94.9529
92.7186
94.4242
93.8053
93.8837
92.7059
92.4082
90.6717
89.4842
87.4525
84.1218
82.6164
75.567
76.0168
62.2427
64.9082
91.6244
91.5325
92.8842
91.6747
95.808
93.5381
95.384
94.9431
95.119
94.0827
93.9675
92.3625
91.4713
89.5622
86.6741
85.3927
79.1693
80.2961
68.0944
73.9184
91.9071
91.6509
93.1584
92.0552
96.6792
94.418
96.4012
96.1168
96.3718
95.4725
95.5362
94.0705
93.4833
91.7024
89.2733
88.2302
82.9435
84.6564
74.3663
83.6772
92.1252
91.7161
93.4713
92.4116
97.5804
95.3274
97.412
97.2973
97.6383
96.888
97.1287
95.8139
95.5316
93.8948
91.9465
91.1692
86.848
89.1429
80.9614
93.8249
92.6648
91.86
94.126
92.7615
98.5678
96.2887
98.467
98.5156
98.9158
98.3208
98.7341
97.5756
97.5774
96.0448
94.5028
93.9751
90.5723
93.3101
86.651
102.562
92.7026
91.5909
93.8796
93.1451
99.4198
97.1141
99.3297
99.6043
100.026
99.6011
100.153
99.1351
99.3455
97.8287
96.5372
96.3249
93.7825
97.7143
94.2767
116.49
93.3983
90.2626
93.8598
94.0861
100.368
98.3053
100.546
100.86
101.421
101.083
101.805
100.976
101.592
100.427
100.118
100.267
99.5417
103.642
106.94
135.086
114.461
93.9549
108.851
106.236
109.132
108.538
110.693
110.456
112.705
113.112
115.52
116.312
119.914
121.535
128.724
130.399
140.932
140.635
164.443
162.248
111.905
109.931
111.877
111.314
113.485
113.522
115.554
116.498
118.797
120.665
123.823
127.06
131.893
135.866
142.352
148.199
158.313
166.161
181.46
193.81
120.697
120.373
120.746
121.546
122.471
123.69
125.151
126.718
128.799
130.81
133.819
136.513
140.308
143.811
149.063
154.041
161
167.249
176.599
186.087
123.04
123.244
123.574
124.703
125.832
127.15
128.951
130.873
133.327
135.94
138.873
141.98
145.69
149.629
154.235
159.105
164.374
170.752
176.17
182.012
126.465
126.622
127.136
128.669
129.743
131.438
132.966
134.786
136.712
138.735
141.045
143.466
146.191
149.021
152.117
155.307
158.672
162.059
165.372
170.455
127.58
127.788
128.786
130.048
131.526
133.288
135.138
136.995
139.116
141.158
143.484
145.733
148.228
150.713
153.27
155.985
158.338
161.308
163.007
164.606
127.954
128.423
129.666
131.358
133.291
135.018
136.865
138.498
140.297
141.908
143.682
145.312
147.067
148.703
150.389
151.994
153.42
155.068
156.28
157.964
127.918
128.983
130.462
132.628
134.765
136.553
138.533
140.063
141.891
143.302
144.986
146.333
147.857
149.144
150.443
151.613
152.6
153.628
153.957
154.48
129.817
130.361
132.756
134.634
137.061
138.589
140.438
141.67
143.17
144.219
145.473
146.385
147.453
148.236
149.127
149.775
150.437
150.826
150.921
151.343
132.749
133.098
136.206
137.492
140.003
141.166
142.873
143.773
145.071
145.805
146.813
147.423
148.19
148.678
149.201
149.537
149.802
149.945
149.977
149.801
139.259
138.102
142.454
142.787
144.642
145.24
146.303
146.747
147.482
147.81
148.346
148.568
148.962
149.073
149.302
149.305
149.445
149.261
149.068
148.801
151.003
148.963
149.37
148.786
149.551
149.312
149.745
149.625
149.886
149.797
149.958
149.868
149.941
149.795
149.775
149.566
149.464
149.173
148.979
148.523
160.942
159.323
156.81
156.506
155.092
154.663
153.836
153.378
152.916
152.462
152.169
151.735
151.502
151.1
150.864
150.436
150.079
149.557
149.062
148.482
166.349
165.644
162.356
160.477
158.99
157.514
156.645
155.447
154.859
153.954
153.496
152.758
152.355
151.713
151.31
150.695
150.309
149.753
149.34
148.777
172.019
168.486
166.524
163.845
162.324
160.255
159.279
157.875
156.978
155.91
155.177
154.331
153.714
152.984
152.43
151.781
151.234
150.573
150.007
149.314
178.169
167.007
166.051
163.536
162.648
160.854
159.861
158.467
157.714
156.579
155.892
154.923
154.275
153.44
152.825
152.069
151.463
150.753
150.188
149.534
170.729
167.891
167.34
163.8
163.092
161.279
160.557
159.164
158.371
157.26
156.497
155.576
154.857
154.025
153.371
152.615
152.015
151.317
150.726
150.056
171.791
165.393
165.977
163.426
163.072
161.037
160.493
159.212
158.536
157.467
156.762
155.822
155.137
154.317
153.637
152.899
152.237
151.548
150.921
150.284
165.189
164.222
164.083
162.56
162.135
161.017
160.359
159.355
158.611
157.7
156.938
156.105
155.356
154.587
153.876
153.158
152.493
151.818
151.191
150.559
167.699
165.457
166.077
162.339
161.958
160.905
160.283
159.332
158.611
157.729
156.986
156.162
155.431
154.663
153.958
153.242
152.569
151.901