/*--------------------------------*- C++ -*----------------------------------*\
  =========                 |
  \\      /  F ield         | OpenFOAM: The Open Source CFD Toolbox
   \\    /   O peration     | Website:  https://openfoam.org
    \\  /    A nd           | Version:  9
     \\/     M anipulation  |
\*---------------------------------------------------------------------------*/
FoamFile
{
    format      ascii;
    class       volVectorField;
    location    "8.9";
    object      U;
}
// * * * * * * * * * * * * * * * * * * * * * * * * * * * * * * * * * * * * * //

dimensions      [0 1 -1 0 0 0 0];

internalField   nonuniform List<vector> 
46400
(
(9.47843 -9.18513 -5.55365e-19)
(18.8213 -18.1208 5.43431e-19)
(20.2121 -20.3438 -6.46617e-20)
(19.4407 -20.4148 2.4811e-20)
(18.7494 -20.3736 -5.04962e-20)
(18.0158 -20.3927 -5.17904e-19)
(17.4183 -20.4104 2.58807e-19)
(16.8078 -20.4425 -3.34194e-20)
(16.2636 -20.4931 2.4686e-20)
(15.7505 -20.5403 -1.6799e-20)
(15.2428 -20.5872 9.75572e-21)
(14.7512 -20.5859 0)
(14.335 -20.6807 -5.72707e-20)
(13.9163 -20.7192 5.41377e-20)
(13.4686 -20.7162 -4.32952e-20)
(13.0712 -20.7372 -5.50893e-20)
(12.6816 -20.7771 -3.82261e-20)
(12.3195 -20.7327 8.0617e-20)
(11.9522 -20.7137 1.88341e-19)
(11.4819 -20.9627 -1.69032e-19)
(9.74121 -8.67188 0)
(18.9187 -16.9817 -3.51073e-20)
(19.9298 -18.6512 0)
(19.1741 -18.8407 -3.05227e-19)
(18.588 -18.9287 2.20291e-19)
(17.918 -19.0559 -5.43255e-20)
(17.3168 -19.1221 0)
(16.6901 -19.1697 3.34186e-20)
(16.133 -19.2397 -2.46859e-20)
(15.6484 -19.3583 1.67994e-20)
(15.1301 -19.4041 4.14515e-20)
(14.6717 -19.4923 4.42185e-20)
(14.2051 -19.5356 -9.08284e-20)
(13.7956 -19.6213 0)
(13.4154 -19.7014 1.21488e-20)
(13.0431 -19.7558 1.64463e-20)
(12.6915 -19.8243 0)
(12.3606 -19.8137 -2.96131e-19)
(12.0603 -19.8422 -8.81315e-20)
(11.6423 -20.0539 3.00149e-19)
(9.93077 -8.1398 -1.81995e-19)
(18.8976 -15.7454 1.22148e-19)
(19.8397 -17.282 -1.80836e-19)
(19.0424 -17.4466 -8.09346e-20)
(18.3789 -17.5139 7.94566e-20)
(17.672 -17.6277 0)
(17.0802 -17.7483 -8.34068e-20)
(16.4945 -17.8697 6.28633e-20)
(15.9325 -17.9814 -2.04812e-19)
(15.4429 -18.1215 2.07179e-19)
(14.9485 -18.2457 2.56592e-19)
(14.4627 -18.3125 -7.32435e-21)
(14.0531 -18.4703 -2.37052e-19)
(13.6464 -18.5642 0)
(13.2232 -18.6607 3.72212e-19)
(12.8451 -18.7447 -3.66576e-19)
(12.4933 -18.8797 0)
(12.1674 -18.9144 -1.85543e-20)
(11.8269 -19.0011 4.3788e-20)
(11.4321 -19.284 -4.61373e-19)
(10.0691 -7.58565 3.79489e-20)
(18.7626 -14.5376 -2.95404e-20)
(19.3382 -15.6886 1.68516e-20)
(18.5802 -15.9717 -1.66508e-20)
(18.006 -16.1497 -5.91544e-20)
(17.3564 -16.3425 9.33271e-20)
(16.7627 -16.4969 1.72592e-19)
(16.1601 -16.6103 -5.0328e-19)
(15.5992 -16.7588 4.39281e-19)
(15.1353 -16.939 -3.76192e-20)
(14.6636 -17.1127 0)
(14.209 -17.2423 4.6151e-20)
(13.7598 -17.3661 -4.96068e-20)
(13.3681 -17.5111 0)
(13.0115 -17.6598 5.36074e-19)
(12.6398 -17.7676 -4.50507e-19)
(12.3162 -17.9195 0)
(12.0178 -18.0225 6.11635e-20)
(11.7053 -18.1125 7.85619e-20)
(11.2848 -18.4072 6.05264e-19)
(10.2119 -7.02253 0)
(18.4573 -13.1336 0)
(19.0345 -14.3266 -1.59088e-19)
(18.2428 -14.5641 9.53735e-20)
(17.6047 -14.7626 -2.61566e-19)
(16.9392 -14.9655 2.21666e-19)
(16.3647 -15.1998 0)
(15.8108 -15.391 2.89878e-19)
(15.2287 -15.5397 -3.45062e-19)
(14.7503 -15.747 -8.98269e-20)
(14.2861 -15.9513 -9.20212e-20)
(13.8348 -16.1286 0)
(13.426 -16.3267 6.83822e-19)
(13.0404 -16.5009 -6.73129e-19)
(12.6508 -16.6751 0)
(12.2846 -16.8065 -7.84941e-19)
(11.9444 -16.9894 6.96977e-19)
(11.6498 -17.1183 7.14415e-19)
(11.3502 -17.2698 -7.73648e-19)
(10.9478 -17.5718 0)
(10.4654 -6.44963 0)
(18.0442 -11.8093 0)
(18.3477 -12.7628 0)
(17.5962 -13.1356 -3.41936e-20)
(17.0252 -13.4315 0)
(16.4033 -13.6919 0)
(15.8294 -13.9576 0)
(15.3014 -14.1938 -1.114e-19)
(14.7413 -14.3991 0)
(14.2717 -14.5958 8.98333e-20)
(13.841 -14.8585 -2.3787e-20)
(13.4051 -15.0241 -9.68396e-19)
(12.9926 -15.2541 7.21681e-19)
(12.6089 -15.4252 -9.76913e-19)
(12.2977 -15.6937 7.30304e-19)
(11.9396 -15.8482 0)
(11.6076 -16.0469 -8.58671e-19)
(11.3347 -16.2192 7.30908e-19)
(11.0538 -16.3964 0)
(10.6682 -16.7278 -1.19143e-19)
(10.7537 -5.99583 3.58348e-19)
(17.4859 -10.4841 1.1715e-19)
(17.7115 -11.3961 4.42068e-19)
(16.9725 -11.7477 -4.69218e-19)
(16.3897 -12.1205 -4.79779e-19)
(15.7965 -12.4274 9.62993e-19)
(15.2274 -12.749 -1.12062e-18)
(14.7471 -13.0466 9.64344e-20)
(14.2158 -13.3087 3.59667e-19)
(13.7353 -13.534 0)
(13.313 -13.8189 -2.29759e-20)
(12.8931 -14.0467 -2.19275e-20)
(12.4969 -14.2756 1.16744e-19)
(12.1195 -14.4895 1.00125e-18)
(11.7577 -14.6937 -8.88969e-19)
(11.4552 -14.9377 -1.14253e-18)
(11.1204 -15.125 9.92908e-19)
(10.829 -15.3212 -1.69306e-20)
(10.5794 -15.5279 -1.29442e-19)
(10.2225 -15.887 -9.135e-19)
(11.0562 -5.48502 -1.42436e-19)
(16.8284 -9.32258 3.60747e-20)
(16.7664 -10.0245 -1.58166e-19)
(16.0884 -10.4723 -6.24097e-19)
(15.5329 -10.8942 4.19239e-19)
(15.0041 -11.2393 0)
(14.4696 -11.6146 9.09035e-19)
(14.0123 -11.9445 -4.34718e-19)
(13.5254 -12.2672 3.01492e-19)
(13.0604 -12.5069 1.61844e-19)
(12.6592 -12.8129 -3.03704e-19)
(12.2857 -13.0775 7.31781e-19)
(11.9132 -13.3494 1.57639e-19)
(11.5615 -13.5853 -8.83769e-19)
(11.2496 -13.8537 2.47657e-18)
(10.9295 -14.0727 -1.01191e-18)
(10.62 -14.3018 1.28759e-18)
(10.3422 -14.4923 -8.40528e-19)
(10.0829 -14.7021 2.756e-19)
(9.75626 -15.0827 1.32689e-18)
(11.294 -5.08658 7.44115e-19)
(15.9481 -8.10545 -1.54219e-19)
(15.7934 -8.79682 -3.16497e-20)
(15.2222 -9.20248 3.51535e-19)
(14.7368 -9.74393 1.62456e-19)
(14.2397 -10.1133 1.89772e-19)
(13.6968 -10.4868 -8.7439e-19)
(13.2914 -10.8705 5.35155e-19)
(12.8664 -11.247 -1.62798e-19)
(12.4364 -11.5456 -1.61844e-19)
(12.0297 -11.8624 -1.60652e-19)
(11.6513 -12.1433 -1.7893e-19)
(11.2945 -12.4401 -3.34118e-19)
(10.942 -12.6843 1.16655e-18)
(10.6119 -12.9548 -1.62744e-18)
(10.3579 -13.2378 -1.68683e-19)
(10.069 -13.508 1.58984e-20)
(9.76792 -13.6923 -1.2326e-18)
(9.52516 -13.9089 9.22427e-19)
(9.20261 -14.2698 -1.4599e-18)
(11.2941 -4.72536 7.17811e-19)
(15.0814 -7.05754 -1.84243e-18)
(14.762 -7.75502 1.22098e-18)
(14.1828 -8.16734 -1.90566e-19)
(13.658 -8.67201 -2.16354e-19)
(13.2914 -9.14366 8.38451e-19)
(12.7973 -9.54714 -1.01167e-18)
(12.3644 -9.91048 0)
(11.9773 -10.3306 7.87403e-19)
(11.5698 -10.6462 -7.74285e-19)
(11.2126 -11.0096 -5.65284e-19)
(10.8749 -11.3244 7.35059e-19)
(10.5596 -11.6576 1.76479e-19)
(10.246 -11.9412 -7.3054e-19)
(9.92084 -12.2044 1.72147e-19)
(9.62367 -12.4595 8.76236e-19)
(9.40212 -12.7677 -1.55465e-18)
(9.17917 -13.0304 1.02714e-18)
(8.91542 -13.2276 -1.35861e-20)
(8.6555 -13.5906 -1.4261e-18)
(11.0333 -4.22172 1.04702e-18)
(13.9681 -6.06808 -7.02398e-19)
(13.5917 -6.7417 4.71669e-19)
(13.1418 -7.19653 9.09839e-21)
(12.7059 -7.74327 -9.35037e-19)
(12.34 -8.20037 -8.8408e-19)
(11.9076 -8.65828 1.10293e-18)
(11.5144 -9.02019 -6.5124e-19)
(11.1725 -9.46253 8.66277e-19)
(10.8289 -9.80176 0)
(10.4624 -10.1444 1.78195e-20)
(10.1367 -10.4532 1.9733e-19)
(9.83772 -10.7978 2.10342e-19)
(9.57035 -11.1123 -2.06334e-19)
(9.29374 -11.4204 0)
(9.02016 -11.686 1.98414e-19)
(8.74631 -11.9637 0)
(8.54133 -12.2486 3.68311e-19)
(8.35158 -12.5345 1.80134e-18)
(8.06699 -12.8685 -9.13893e-21)
(10.5374 -3.67829 5.93096e-19)
(12.8871 -5.18128 -1.23065e-19)
(12.5063 -5.8779 -1.81773e-18)
(12.052 -6.30701 1.01681e-18)
(11.5693 -6.85638 2.40251e-19)
(11.2867 -7.35963 -2.37042e-19)
(10.9403 -7.85958 -9.76248e-19)
(10.5381 -8.22404 7.29409e-19)
(10.2206 -8.67673 0)
(9.92586 -9.08713 0)
(9.61997 -9.48083 -1.12473e-18)
(9.29769 -9.80199 8.91758e-19)
(8.99504 -10.1315 -2.10357e-19)
(8.74076 -10.4569 -6.47077e-19)
(8.47955 -10.7725 4.13571e-21)
(8.23051 -11.0553 1.44411e-18)
(7.98609 -11.3358 -8.06854e-19)
(7.75056 -11.5766 5.95521e-19)
(7.56426 -11.8501 -9.6171e-19)
(7.38356 -12.2181 0)
(9.82772 -3.09907 -5.26965e-19)
(11.6497 -4.34731 8.44508e-19)
(11.2817 -5.08996 1.45707e-19)
(10.9373 -5.60384 1.43355e-19)
(10.4821 -6.1345 0)
(10.2192 -6.64821 1.06977e-18)
(9.9386 -7.22438 -1.05106e-18)
(9.60124 -7.60969 1.33029e-19)
(9.22637 -8.0185 0)
(8.95805 -8.38943 9.88396e-19)
(8.71975 -8.82733 -8.47274e-19)
(8.4816 -9.18315 9.47562e-19)
(8.20531 -9.53812 -9.32514e-19)
(7.96333 -9.84336 9.07599e-19)
(7.76112 -10.2013 -7.79248e-19)
(7.55086 -10.4936 -8.68825e-19)
(7.34632 -10.8154 1.70595e-18)
(7.1446 -11.0711 -7.30598e-19)
(6.93768 -11.3341 1.04605e-19)
(6.72249 -11.65 8.65727e-19)
(8.9162 -2.51915 -4.28124e-19)
(10.307 -3.58867 4.60421e-19)
(9.95084 -4.33018 -1.45717e-19)
(9.71149 -4.87233 -1.43358e-19)
(9.30387 -5.44838 0)
(8.94431 -5.88747 0)
(8.79042 -6.53908 0)
(8.5807 -7.0305 -2.73777e-19)
(8.32435 -7.53061 -1.0715e-18)
(8.02116 -7.89388 2.10164e-18)
(7.74518 -8.31691 -1.15564e-18)
(7.53685 -8.68618 -1.28723e-19)
(7.31035 -9.08899 0)
(7.07515 -9.39376 0)
(6.83848 -9.74036 -2.34459e-19)
(6.64924 -10.0342 0)
(6.45346 -10.3621 8.93141e-19)
(6.29344 -10.6334 -1.09897e-18)
(6.13677 -10.9308 -9.56979e-19)
(5.97421 -11.2385 9.16997e-19)
(7.9054 -1.95452 4.4875e-19)
(9.03957 -2.87901 8.1367e-19)
(8.77813 -3.61752 6.95002e-22)
(8.59967 -4.19277 -4.81683e-22)
(8.29328 -4.80411 1.56442e-19)
(7.9402 -5.20442 -4.49293e-19)
(7.62907 -5.72225 0)
(7.45481 -6.23606 -4.35209e-19)
(7.25083 -6.77052 1.47304e-19)
(7.06573 -7.23291 5.53778e-19)
(6.84156 -7.67865 5.37806e-19)
(6.62302 -8.06703 -4.00405e-19)
(6.44126 -8.48354 1.02636e-18)
(6.27251 -8.85274 -8.82095e-19)
(6.09789 -9.22241 1.09922e-18)
(5.92521 -9.54808 -2.04278e-18)
(5.75558 -9.88755 9.41979e-19)
(5.5926 -10.1779 1.12053e-19)
(5.43493 -10.4807 8.90557e-19)
(5.27095 -10.8133 -9.58097e-19)
(6.8365 -1.44405 1.57107e-19)
(7.61769 -2.28214 -1.66284e-19)
(7.32622 -3.03215 6.72097e-19)
(7.17472 -3.72059 -6.59648e-19)
(7.04185 -4.43118 -3.22031e-19)
(6.78791 -4.98968 -7.84099e-19)
(6.48915 -5.48019 3.25607e-21)
(6.26686 -5.94642 6.0496e-19)
(6.08049 -6.44089 -1.44265e-19)
(5.92556 -6.89267 0)
(5.75321 -7.36361 0)
(5.60671 -7.76742 0)
(5.41467 -8.1768 0)
(5.26141 -8.53654 4.65397e-21)
(5.09123 -8.91291 0)
(4.9551 -9.23678 1.22267e-19)
(4.81331 -9.58745 4.83946e-19)
(4.68696 -9.8771 -1.42197e-18)
(4.56957 -10.1885 1.04914e-18)
(4.43926 -10.501 -9.83195e-19)
(5.77801 -1.0234 0)
(6.26558 -1.74105 -9.0512e-20)
(5.93997 -2.45418 0)
(5.75192 -3.04436 2.54957e-19)
(5.66205 -3.72041 -1.71205e-19)
(5.5789 -4.36319 -6.53542e-19)
(5.4452 -4.94668 3.74256e-21)
(5.2456 -5.46819 6.27414e-19)
(5.0729 -5.96592 -6.0843e-19)
(4.89974 -6.4306 1.19203e-18)
(4.74835 -6.89578 -4.65148e-21)
(4.62385 -7.32436 -5.6999e-19)
(4.50427 -7.77065 5.51474e-19)
(4.39322 -8.15014 -6.75724e-19)
(4.27567 -8.56234 0)
(4.15791 -8.89497 -5.12192e-19)
(4.0389 -9.27381 5.04544e-19)
(3.93299 -9.57268 0)
(3.81629 -9.9024 -1.17775e-19)
(3.71636 -10.2318 0)
(4.75181 -0.808428 9.23296e-20)
(4.82575 -1.53968 9.05725e-20)
(4.65559 -2.18258 0)
(4.52418 -2.82701 3.50138e-19)
(4.32489 -3.43341 -4.3345e-19)
(4.1833 -4.04854 2.51117e-19)
(4.06413 -4.64463 -7.42282e-19)
(3.96159 -5.21713 3.22772e-19)
(3.87389 -5.74377 -7.93505e-20)
(3.75806 -6.24197 0)
(3.65525 -6.70005 -7.55088e-20)
(3.52417 -7.12898 -7.36463e-20)
(3.42392 -7.54576 -7.18269e-20)
(3.31609 -7.93039 0)
(3.22827 -8.31932 -5.38372e-19)
(3.14661 -8.66382 1.12207e-18)
(3.06009 -9.02676 -9.64807e-19)
(2.98965 -9.33228 5.04918e-19)
(2.9091 -9.65474 6.19597e-20)
(2.83471 -9.9769 5.19657e-19)
(3.03612 -0.525242 -1.42499e-19)
(3.54032 -1.43646 -1.88225e-19)
(3.25661 -2.05396 5.85689e-22)
(3.10994 -2.7269 4.96689e-19)
(3.0038 -3.32653 -1.34394e-19)
(2.94974 -3.88467 -8.67475e-20)
(2.83688 -4.4501 8.44608e-20)
(2.78102 -4.93113 1.65062e-19)
(2.69978 -5.47001 7.9361e-20)
(2.6593 -5.9255 -3.11753e-19)
(2.60685 -6.43114 3.4368e-19)
(2.56181 -6.84982 7.36441e-20)
(2.50914 -7.30983 3.6087e-19)
(2.4489 -7.68938 -2.66566e-21)
(2.40048 -8.10802 3.21421e-20)
(2.33319 -8.45376 -6.05443e-19)
(2.285 -8.84045 1.6596e-19)
(2.21646 -9.15396 0)
(2.16455 -9.49172 -3.04347e-20)
(2.09746 -9.8189 -2.65089e-19)
(1.57718 -0.311235 4.68613e-20)
(1.80365 -1.25639 -9.61515e-20)
(1.91397 -2.04206 1.884e-19)
(1.81416 -2.66086 -4.60813e-20)
(1.82905 -3.31462 -4.56037e-20)
(1.71566 -3.85623 0)
(1.74468 -4.45291 -8.53566e-20)
(1.65597 -4.93968 1.67131e-19)
(1.61261 -5.47495 -8.1834e-20)
(1.52752 -5.92115 7.91451e-20)
(1.48841 -6.40924 -3.93834e-20)
(1.41912 -6.82687 -7.52293e-20)
(1.38623 -7.26965 1.47382e-19)
(1.33914 -7.65451 -1.43723e-19)
(1.30702 -8.05135 3.56357e-20)
(1.27527 -8.40454 2.44154e-34)
(1.24282 -8.7644 -3.32651e-20)
(1.22087 -9.0887 1.94909e-19)
(1.19423 -9.40166 -9.59831e-20)
(1.17613 -9.73185 -6.80788e-20)
(-0.157283 -5.20804 1.42768e-19)
(1.73228 -18.8585 4.19198e-20)
(2.6229 -31.813 0)
(3.34459 -37.6383 7.13963e-20)
(3.39912 -38.4442 6.60917e-20)
(3.37003 -38.2258 6.20984e-20)
(3.2993 -37.6867 0)
(3.24844 -37.1987 5.72176e-20)
(3.19402 -36.8156 0)
(3.12803 -36.3995 0)
(3.07904 -36.0854 -4.7839e-20)
(3.00871 -35.7598 3.23979e-21)
(2.94636 -35.4184 9.03397e-20)
(2.89725 -35.1182 0)
(2.82551 -34.8192 3.98025e-20)
(2.7836 -34.4297 3.78761e-20)
(2.66209 -34.0379 3.60908e-20)
(2.64667 -33.5765 0)
(2.49207 -33.1662 -6.54181e-20)
(2.49973 -32.7365 6.36471e-20)
(0.381524 -6.44804 0)
(2.29431 -20.5434 -2.28817e-19)
(3.87713 -33.2851 0)
(4.42152 -38.0398 -3.51335e-19)
(4.47749 -38.3821 3.3164e-19)
(4.40517 -38.0369 -5.62168e-19)
(4.31792 -37.5245 2.45366e-19)
(4.24867 -37.1016 1.66129e-19)
(4.1697 -36.6595 -7.49375e-19)
(4.09808 -36.3155 4.15954e-19)
(4.01564 -35.9167 -4.87669e-20)
(3.94316 -35.5551 3.60962e-19)
(3.85813 -35.221 -1.2357e-20)
(3.77861 -34.8767 -3.37452e-19)
(3.66819 -34.5251 -3.98008e-20)
(3.61172 -34.1804 -3.78776e-20)
(3.48038 -33.828 -3.6092e-20)
(3.44834 -33.3763 0)
(3.25903 -32.9404 -2.55507e-19)
(3.25653 -32.5193 7.83554e-21)
(0.52613 -7.32988 -1.52947e-19)
(3.28177 -21.9673 0)
(5.10665 -34.246 0)
(5.63125 -38.1125 -1.40455e-19)
(5.63459 -38.2677 1.31933e-19)
(5.52459 -37.8425 0)
(5.38832 -37.3279 -1.17564e-19)
(5.26753 -36.8217 3.28343e-19)
(5.15696 -36.4433 -3.25091e-19)
(5.03256 -36.0129 3.93375e-19)
(4.92906 -35.689 -4.80791e-19)
(4.81367 -35.3649 0)
(4.70498 -34.9869 -3.35301e-19)
(4.60105 -34.6539 -3.0679e-19)
(4.50005 -34.3636 5.50985e-19)
(4.41234 -33.9991 -5.75406e-19)
(4.25416 -33.5904 4.98033e-19)
(4.18463 -33.0923 0)
(3.97857 -32.6806 -5.59814e-19)
(3.97357 -32.2698 9.6067e-19)
(1.11938 -8.31272 7.60128e-19)
(3.93527 -23.5074 0)
(6.43 -35.2375 2.9218e-19)
(6.74056 -38.2539 4.05012e-19)
(6.71258 -38.0843 -7.83919e-19)
(6.54201 -37.5397 2.43644e-19)
(6.39818 -37.0229 1.17565e-19)
(6.2649 -36.5963 1.19095e-18)
(6.12927 -36.1401 -1.66265e-18)
(6.00122 -35.7851 -1.62895e-19)
(5.87192 -35.3903 8.5145e-19)
(5.74127 -35.0227 1.73315e-19)
(5.61003 -34.7036 -8.18372e-19)
(5.4874 -34.3822 7.9949e-19)
(5.33485 -34.0259 2.23532e-19)
(5.21805 -33.6393 -1.40032e-19)
(5.03984 -33.2561 2.01762e-19)
(4.962 -32.8078 0)
(4.72383 -32.3982 -5.82926e-20)
(4.71194 -31.9892 0)
(1.45379 -8.85873 0)
(5.11539 -24.3043 1.18491e-18)
(7.67645 -35.4378 -1.47658e-18)
(8.0418 -37.858 1.33885e-18)
(7.90175 -37.6568 -1.0393e-18)
(7.712 -37.1467 -2.44732e-19)
(7.51724 -36.6785 0)
(7.32271 -36.1729 6.24299e-19)
(7.14407 -35.7896 -8.2741e-19)
(6.95858 -35.3694 9.43404e-19)
(6.79326 -35.0293 -7.37357e-19)
(6.62382 -34.7012 -1.733e-19)
(6.46317 -34.313 7.98656e-19)
(6.29171 -33.9665 -1.38145e-18)
(6.14632 -33.6659 8.71906e-19)
(6.00309 -33.3289 -2.86116e-19)
(5.81316 -32.9333 -6.472e-19)
(5.68005 -32.4413 1.48443e-18)
(5.42592 -32.0362 -8.43349e-19)
(5.39604 -31.6407 -1.00142e-18)
(1.99895 -9.68126 1.17824e-18)
(6.23852 -25.357 1.16202e-18)
(9.03416 -35.8535 -1.16253e-18)
(9.2148 -37.7044 -2.63486e-19)
(9.02411 -37.278 2.53276e-19)
(8.76065 -36.7212 9.2567e-19)
(8.52187 -36.1957 -9.09419e-19)
(8.31195 -35.7622 0)
(8.10493 -35.3191 7.7122e-19)
(7.90602 -34.9534 -7.58354e-19)
(7.71996 -34.5797 -6.86567e-19)
(7.53173 -34.2305 6.75463e-19)
(7.34562 -33.9154 0)
(7.18198 -33.6044 0)
(6.98986 -33.2753 1.24265e-18)
(6.81748 -32.8872 -1.21834e-18)
(6.59211 -32.493 -9.89493e-19)
(6.46746 -32.045 9.74839e-19)
(6.17793 -31.6546 -8.94243e-19)
(6.16294 -31.258 1.1032e-18)
(2.47249 -10.1423 -8.63813e-19)
(7.40412 -25.7681 3.13046e-19)
(10.2534 -35.5365 4.95952e-20)
(10.4338 -36.9673 1.33299e-18)
(10.1578 -36.5916 0)
(9.89043 -36.0979 0)
(9.61352 -35.6637 1.68302e-18)
(9.34428 -35.1955 -7.25155e-20)
(9.09621 -34.8088 -1.55466e-18)
(8.84575 -34.4218 1.40136e-18)
(8.61964 -34.0818 -1.37834e-18)
(8.38897 -33.7552 0)
(8.17623 -33.3929 1.17787e-18)
(7.94196 -33.063 -1.15942e-18)
(7.74683 -32.7533 0)
(7.54461 -32.4461 0)
(7.32402 -32.0875 0)
(7.13451 -31.6331 0)
(6.83212 -31.2419 0)
(6.79514 -30.8596 -1.06936e-19)
(3.03831 -10.6612 8.28683e-19)
(8.60773 -26.3489 -1.41528e-18)
(11.5577 -35.4923 0)
(11.5964 -36.5437 0)
(11.2533 -36.0215 2.07133e-18)
(10.9167 -35.5092 1.30973e-19)
(10.5814 -35.0085 -1.90059e-18)
(10.29 -34.5806 0)
(10.0124 -34.1772 1.78235e-19)
(9.73998 -33.8122 -1.67479e-19)
(9.49321 -33.4691 0)
(9.25065 -33.1559 1.48347e-19)
(9.00599 -32.8414 -1.26482e-18)
(8.79254 -32.5422 2.30162e-18)
(8.56141 -32.2578 -4.1855e-20)
(8.33877 -31.8926 -9.88573e-19)
(8.06972 -31.5092 -1.11425e-19)
(7.87909 -31.0878 1.05467e-19)
(7.54501 -30.7293 0)
(7.49946 -30.3456 9.60596e-20)
(3.58923 -10.9684 5.37457e-19)
(9.76315 -26.4041 4.69129e-19)
(12.6905 -34.7882 -1.62016e-18)
(12.6961 -35.5579 4.74521e-19)
(12.2923 -35.1291 2.10641e-19)
(11.9505 -34.6726 1.85012e-18)
(11.5961 -34.2844 -2.58285e-18)
(11.2529 -33.879 1.88173e-18)
(10.9361 -33.5009 -1.53842e-18)
(10.6204 -33.164 1.82268e-18)
(10.335 -32.8453 2.98432e-19)
(10.0456 -32.5358 1.26345e-18)
(9.78234 -32.2243 -7.0922e-19)
(9.49938 -31.927 -1.38633e-18)
(9.25077 -31.6311 1.22473e-18)
(9.00185 -31.3586 0)
(8.74916 -31.0299 3.20817e-19)
(8.51312 -30.6101 9.2469e-20)
(8.16615 -30.2321 -1.87776e-19)
(8.12269 -29.8639 8.40775e-20)
(4.17707 -11.2644 -1.02045e-18)
(10.9408 -26.5589 1.0559e-18)
(13.8882 -34.3329 -2.46135e-20)
(13.7993 -34.8855 -9.27099e-19)
(13.3199 -34.3743 -8.6243e-19)
(12.9134 -33.919 -4.13093e-19)
(12.49 -33.461 -2.11345e-20)
(12.1162 -33.0595 -3.61324e-19)
(11.7743 -32.7137 0)
(11.4293 -32.3623 -3.17699e-19)
(11.1237 -32.0647 -2.9844e-19)
(10.8266 -31.8023 -1.74544e-20)
(10.5252 -31.4962 9.85122e-19)
(10.2536 -31.2217 -5.04695e-19)
(9.98538 -30.9864 -1.12414e-18)
(9.71274 -30.6846 8.75792e-19)
(9.40602 -30.356 5.83082e-19)
(9.14798 -29.9824 -9.78655e-19)
(8.77857 -29.6477 1.87711e-19)
(8.7014 -29.2711 1.18921e-18)
(4.75782 -11.4039 -2.46047e-18)
(12.0323 -26.3111 2.50135e-18)
(14.8895 -33.3658 -2.76922e-18)
(14.736 -33.6969 2.25926e-18)
(14.226 -33.2917 2.00857e-18)
(13.801 -32.8862 -1.56019e-18)
(13.3814 -32.5606 -2.08649e-18)
(12.9682 -32.2336 6.71326e-20)
(12.5881 -31.8848 1.26693e-18)
(12.2123 -31.6103 -8.50268e-19)
(11.8695 -31.3179 2.16838e-18)
(11.5308 -31.0507 -1.30423e-18)
(11.2205 -30.8085 -2.47318e-19)
(10.9005 -30.541 6.44719e-19)
(10.5996 -30.269 -1.68972e-18)
(10.3123 -30.0192 8.13294e-19)
(10.0255 -29.7298 0)
(9.74571 -29.3756 -1.38697e-18)
(9.36181 -29.0305 1.36252e-18)
(9.30056 -28.6847 -1.11067e-18)
(5.34515 -11.5109 4.67967e-19)
(13.1104 -26.0723 5.16764e-19)
(15.9261 -32.5713 2.27349e-18)
(15.7249 -32.8156 1.99774e-18)
(15.1389 -32.3705 -1.2039e-18)
(14.6646 -31.974 1.72246e-18)
(14.1696 -31.5706 -1.01519e-18)
(13.7194 -31.2237 1.19863e-18)
(13.3225 -30.9475 -2.29707e-18)
(12.9103 -30.6295 8.21645e-19)
(12.5507 -30.3967 0)
(12.2027 -30.1797 0)
(11.8494 -29.9124 0)
(11.5244 -29.6988 -1.61152e-18)
(11.2232 -29.517 1.58663e-18)
(10.9152 -29.2963 0)
(10.5838 -29.0232 0)
(10.2769 -28.7025 -1.53097e-19)
(9.88366 -28.3933 0)
(9.79177 -28.0324 -1.30328e-18)
(5.92034 -11.4947 -8.87765e-19)
(14.0835 -25.5697 -2.21103e-18)
(16.7644 -31.3848 -1.59799e-18)
(16.4874 -31.4697 -3.04532e-19)
(15.8762 -31.1318 2.12622e-18)
(15.3697 -30.8014 -4.16429e-19)
(14.8969 -30.5379 -6.86056e-20)
(14.4183 -30.2866 -1.43307e-18)
(13.9851 -29.9922 0)
(13.5572 -29.7805 -7.22654e-19)
(13.1616 -29.5205 1.15772e-18)
(12.7848 -29.3208 0)
(12.4343 -29.1299 1.55999e-18)
(12.0791 -28.8976 -1.53551e-18)
(11.7322 -28.6814 1.36896e-18)
(11.4082 -28.4719 -2.47735e-18)
(11.0924 -28.2606 1.26487e-18)
(10.7751 -28.0056 1.53109e-19)
(10.3665 -27.7086 -1.27697e-19)
(10.2691 -27.3675 1.02775e-18)
(6.47053 -11.4345 -1.17471e-18)
(15.0196 -25.0016 6.70945e-20)
(17.6091 -30.3271 9.35801e-20)
(17.314 -30.3947 2.81132e-18)
(16.657 -30.031 2.58786e-19)
(16.1033 -29.711 -1.51897e-18)
(15.5587 -29.3793 -1.07676e-18)
(15.042 -29.1141 3.2953e-19)
(14.5969 -28.9148 1.20675e-18)
(14.1294 -28.6609 -1.3037e-18)
(13.7186 -28.5025 6.30035e-19)
(13.3275 -28.3364 -1.67384e-18)
(12.9313 -28.1456 1.30214e-18)
(12.5656 -27.9846 -1.30001e-18)
(12.2308 -27.8445 1.13438e-18)
(11.9012 -27.7004 9.81181e-19)
(11.5464 -27.4669 -1.11905e-18)
(11.2064 -27.2301 8.79577e-19)
(10.8017 -26.979 -8.49128e-19)
(10.69 -26.6375 -1.00446e-18)
(6.99563 -11.2978 -1.45901e-18)
(15.8731 -24.2913 -2.82548e-19)
(18.2445 -28.9856 1.42314e-18)
(17.8427 -28.9703 -1.23122e-18)
(17.1871 -28.7136 1.20902e-18)
(16.5987 -28.4663 2.84293e-19)
(16.0814 -28.2587 0)
(15.5486 -28.0699 -2.15037e-19)
(15.0761 -27.8518 5.98239e-19)
(14.6044 -27.6918 -2.12596e-18)
(14.1631 -27.4803 1.50012e-18)
(13.7562 -27.3608 3.369e-19)
(13.3725 -27.224 1.67699e-19)
(12.987 -27.0676 0)
(12.6064 -26.9218 2.0886e-20)
(12.2554 -26.7788 9.81252e-19)
(11.9236 -26.6607 -5.18138e-20)
(11.5799 -26.4858 1.72412e-19)
(11.1644 -26.2567 -8.34793e-19)
(11.0283 -25.914 1.92596e-19)
(7.47364 -11.0903 1.31717e-18)
(16.6305 -23.4313 -2.27409e-18)
(18.8808 -27.685 1.27791e-18)
(18.4731 -27.689 1.09611e-18)
(17.7968 -27.4287 -7.2371e-20)
(17.1795 -27.214 -7.64006e-19)
(16.5956 -26.9706 2.03087e-19)
(16.0269 -26.8027 2.15024e-19)
(15.541 -26.6795 0)
(15.0374 -26.5168 0)
(14.5768 -26.4119 -1.2148e-18)
(14.1525 -26.3024 2.02721e-18)
(13.7236 -26.1941 -1.10301e-18)
(13.3223 -26.0715 0)
(12.9511 -25.9888 2.17415e-20)
(12.602 -25.9126 -9.13498e-19)
(12.224 -25.7497 8.93705e-19)
(11.8647 -25.6317 -1.00068e-19)
(11.4621 -25.4594 -7.16701e-19)
(11.312 -25.1243 4.95205e-19)
(7.93846 -10.8408 -1.1704e-18)
(17.3197 -22.5203 1.45719e-18)
(19.3529 -26.3141 0)
(18.7987 -26.2638 0)
(18.1225 -26.0804 2.08337e-19)
(17.4623 -25.9166 -1.01552e-18)
(16.9084 -25.7616 2.43021e-20)
(16.3287 -25.6265 7.11741e-19)
(15.829 -25.5064 -1.20866e-18)
(15.3232 -25.3994 2.29338e-18)
(14.8438 -25.2656 -1.08679e-18)
(14.4094 -25.22 2.39119e-19)
(14.0018 -25.152 9.4367e-19)
(13.5946 -25.0825 3.03747e-20)
(13.185 -24.9908 -5.7953e-19)
(12.8142 -24.9283 9.48698e-20)
(12.4665 -24.8797 -6.83771e-19)
(12.1018 -24.7917 5.87594e-19)
(11.7056 -24.6775 1.90805e-20)
(11.5344 -24.3456 4.94984e-19)
(8.36033 -10.4768 0)
(17.8272 -21.4683 6.85204e-19)
(19.6985 -24.7883 -7.61322e-19)
(19.1674 -24.7999 0)
(18.5033 -24.6576 -2.08346e-19)
(17.8479 -24.5706 6.62659e-19)
(17.2431 -24.4319 -8.22867e-19)
(16.6367 -24.3475 0)
(16.1166 -24.2864 9.78916e-19)
(15.6008 -24.2285 -9.62577e-19)
(15.0915 -24.1438 9.0657e-20)
(14.6443 -24.1077 -1.06939e-19)
(14.1942 -24.0811 -9.72954e-20)
(13.7644 -24.0088 -8.85034e-20)
(13.3625 -23.9928 -6.1002e-19)
(12.9931 -23.9668 9.98008e-19)
(12.599 -23.9055 -8.9855e-19)
(12.224 -23.8826 8.10171e-19)
(11.8423 -23.8316 -3.21872e-19)
(11.6636 -23.5278 4.988e-20)
(8.76859 -10.1411 0)
(18.3009 -20.4014 -7.77472e-19)
(20.0264 -23.4058 4.28552e-19)
(19.3488 -23.3889 5.10609e-19)
(18.6565 -23.2718 -5.97917e-20)
(17.9396 -23.1957 -5.35985e-20)
(17.3551 -23.1131 -5.21164e-19)
(16.7426 -23.0495 0)
(16.219 -23.0295 0)
(15.6967 -22.9961 0)
(15.1888 -22.9547 -9.06559e-20)
(14.7154 -22.9306 0)
(14.2934 -22.9553 -4.99505e-19)
(13.8728 -22.97 4.45346e-19)
(13.4307 -22.9314 -3.43209e-19)
(13.0374 -22.9376 6.33972e-19)
(12.6575 -22.9395 -2.91532e-19)
(12.267 -22.9499 -2.34217e-19)
(11.9011 -22.9779 3.85417e-19)
(11.7093 -22.6816 -1.78336e-19)
(9.12693 -9.66078 0)
(18.5978 -19.3 0)
(20.0591 -21.7414 1.74448e-19)
(19.3879 -21.8183 1.55846e-19)
(18.7681 -21.7946 0)
(18.0943 -21.8289 3.96126e-19)
(17.487 -21.7967 -3.89173e-19)
(16.8577 -21.774 0)
(16.309 -21.7665 5.12088e-19)
(15.8017 -21.8081 -5.03542e-19)
(15.2654 -21.7651 0)
(14.7999 -21.7925 -3.0577e-19)
(14.324 -21.7912 9.89361e-20)
(13.8773 -21.7909 2.45124e-19)
(13.456 -21.8255 0)
(13.0555 -21.8388 0)
(12.6283 -21.8647 0)
(12.218 -21.854 -9.76184e-21)
(11.823 -21.8724 2.69362e-20)
(11.5875 -21.7191 0)
(1.83263 -31.5835 0)
(1.83981 -29.4328 0)
(1.1379 -28.7514 -3.6662e-21)
(1.18026 -27.8536 -2.98085e-21)
(0.926781 -27.2084 0)
(0.835179 -26.5366 1.84797e-22)
(0.738726 -26.1037 1.70802e-21)
(0.619242 -25.6527 0)
(0.545287 -25.3434 9.02312e-22)
(0.490214 -25.0894 0)
(0.401995 -24.8942 -5.01475e-22)
(0.406869 -24.6825 -1.41936e-22)
(0.362155 -24.5334 1.42693e-22)
(0.410581 -24.2941 9.32728e-23)
(0.350334 -24.2203 0)
(0.446233 -23.9811 2.38489e-23)
(0.304301 -23.5692 -1.51971e-22)
(0.385083 -21.1499 0)
(0.0861138 -15.4729 0)
(0.168471 -6.28308 -2.09531e-22)
(2.44345 -31.3298 2.69817e-20)
(2.27425 -29.4766 0)
(1.54557 -28.8245 1.67845e-20)
(1.5178 -27.9046 -1.02007e-20)
(1.2094 -27.2091 0)
(1.05534 -26.5438 -8.8761e-21)
(0.919025 -26.1023 3.33197e-21)
(0.758724 -25.6466 0)
(0.663852 -25.3439 6.41341e-22)
(0.57663 -25.0839 -1.55197e-21)
(0.46757 -24.8966 1.31348e-21)
(0.456449 -24.6874 -1.35271e-21)
(0.390902 -24.5402 6.90255e-22)
(0.43701 -24.2998 -1.91168e-22)
(0.373036 -24.2272 -5.4113e-23)
(0.473248 -23.9785 -1.01772e-22)
(0.319363 -23.562 2.30262e-22)
(0.407847 -21.125 4.36834e-22)
(0.0907834 -15.436 1.74716e-22)
(0.162035 -6.24492 2.60806e-22)
(3.05445 -31.201 -1.1983e-20)
(2.79808 -29.1888 -2.29215e-20)
(1.90937 -28.5606 -1.38985e-20)
(1.7548 -27.7629 0)
(1.38064 -27.1001 0)
(1.18767 -26.463 1.0144e-20)
(1.0239 -26.0332 -1.43692e-21)
(0.843324 -25.5897 -1.1454e-21)
(0.740453 -25.2964 -9.74222e-22)
(0.642378 -25.0414 -2.9994e-21)
(0.527076 -24.8598 0)
(0.506725 -24.6685 0)
(0.425703 -24.5261 0)
(0.462311 -24.296 -2.63727e-22)
(0.39609 -24.228 0)
(0.492944 -23.9713 3.56655e-22)
(0.332706 -23.5583 -5.4358e-22)
(0.425061 -21.1012 -2.43013e-22)
(0.0901959 -15.4228 -3.10307e-22)
(0.182918 -6.2206 -8.60577e-22)
(3.6287 -30.8787 3.94984e-20)
(3.15367 -29.1729 -7.52045e-20)
(2.29013 -28.5773 2.52129e-21)
(2.08206 -27.7707 2.50267e-20)
(1.65692 -27.0829 0)
(1.4006 -26.454 1.25617e-20)
(1.20135 -26.0188 -2.78604e-20)
(0.981153 -25.5761 1.36588e-20)
(0.854082 -25.2915 -7.08363e-21)
(0.72631 -25.0314 2.10577e-21)
(0.592654 -24.8588 -3.72915e-22)
(0.556171 -24.6668 -9.33248e-22)
(0.453978 -24.5264 9.37155e-22)
(0.488488 -24.2999 2.02096e-22)
(0.413565 -24.2334 6.1872e-23)
(0.516463 -23.9693 -3.55579e-22)
(0.348742 -23.5545 7.07546e-22)
(0.443301 -21.0859 -3.31304e-22)
(0.093868 -15.4023 1.69125e-22)
(0.180556 -6.18488 8.61349e-22)
(4.25793 -30.669 9.91152e-20)
(3.68526 -28.8585 1.75387e-20)
(2.63698 -28.3153 -2.466e-20)
(2.29487 -27.6093 3.50559e-20)
(1.81965 -26.9554 0)
(1.53033 -26.359 -6.7441e-21)
(1.30277 -25.9419 5.44459e-21)
(1.06652 -25.5118 0)
(0.932196 -25.2361 1.34526e-22)
(0.79239 -24.981 0)
(0.65563 -24.8152 -3.38759e-21)
(0.603062 -24.6406 0)
(0.489783 -24.508 0)
(0.517369 -24.2948 -2.13125e-22)
(0.433488 -24.2343 7.28509e-23)
(0.532724 -23.9646 4.24433e-22)
(0.367302 -23.554 0)
(0.462473 -21.0722 -1.82331e-22)
(0.0990949 -15.3937 1.83533e-22)
(0.198538 -6.16301 0)
(4.80314 -30.319 3.98019e-20)
(4.05404 -28.7696 -3.28292e-20)
(3.03392 -28.2573 5.90621e-20)
(2.61593 -27.5763 -5.79161e-20)
(2.08434 -26.9252 1.61625e-20)
(1.73393 -26.336 6.76517e-21)
(1.47589 -25.9157 -1.01485e-20)
(1.2006 -25.4922 -7.82299e-21)
(1.04034 -25.2258 3.13585e-21)
(0.874286 -24.9671 3.78222e-21)
(0.721358 -24.8095 -2.1528e-21)
(0.650627 -24.6314 0)
(0.520722 -24.5035 0)
(0.547705 -24.2953 9.43889e-24)
(0.44925 -24.2361 -1.76089e-23)
(0.545877 -23.961 -3.25676e-22)
(0.380374 -23.5574 0)
(0.483556 -21.062 1.12736e-21)
(0.101489 -15.385 1.42976e-21)
(0.197416 -6.12935 1.12151e-22)
(5.39684 -29.9825 -1.11439e-19)
(4.47165 -28.4366 1.04596e-19)
(3.31428 -27.9927 -2.53961e-20)
(2.80697 -27.3862 0)
(2.24704 -26.7774 -1.62313e-20)
(1.86034 -26.2288 2.27884e-20)
(1.57577 -25.8318 -1.2688e-20)
(1.28716 -25.4201 7.84511e-21)
(1.12083 -25.1629 0)
(0.940302 -24.9106 0)
(0.783827 -24.7596 2.34442e-21)
(0.691668 -24.5985 -2.35283e-21)
(0.557584 -24.4829 0)
(0.572816 -24.2881 1.07901e-22)
(0.472449 -24.2331 4.08076e-23)
(0.555975 -23.9572 3.50172e-22)
(0.391603 -23.5612 -4.09455e-22)
(0.502177 -21.0569 -1.26754e-21)
(0.103179 -15.383 -1.00437e-21)
(0.210535 -6.11017 -2.27769e-22)
(5.94349 -29.6019 0)
(4.91755 -28.2647 -5.50436e-20)
(3.71694 -27.8803 5.52204e-20)
(3.10934 -27.3298 0)
(2.49905 -26.7374 0)
(2.0545 -26.1911 -2.19249e-20)
(1.74245 -25.7949 2.19911e-20)
(1.4155 -25.3958 0)
(1.223 -25.1467 4.71327e-21)
(1.02066 -24.8921 -8.02927e-21)
(0.847796 -24.7471 3.31182e-21)
(0.73755 -24.5817 1.16991e-21)
(0.588271 -24.4737 -1.17156e-21)
(0.594046 -24.2847 0)
(0.489904 -24.2295 0)
(0.562868 -23.955 4.09495e-22)
(0.398084 -23.5701 -5.85709e-22)
(0.516739 -21.0585 -3.93878e-23)
(0.103953 -15.3825 6.53773e-22)
(0.212536 -6.08095 -2.3101e-22)
(6.47832 -29.1768 6.5427e-20)
(5.2451 -27.909 -6.55031e-20)
(3.96498 -27.5853 -6.44617e-20)
(3.28696 -27.1053 7.60703e-20)
(2.66197 -26.5718 -6.05921e-20)
(2.17955 -26.0738 5.6461e-21)
(1.84657 -25.7045 2.10939e-20)
(1.50507 -25.3159 0)
(1.30513 -25.0777 0)
(1.0866 -24.8308 3.4513e-21)
(0.906619 -24.6913 0)
(0.778459 -24.5429 0)
(0.623818 -24.449 0)
(0.613179 -24.2747 0)
(0.505466 -24.2217 0)
(0.570019 -23.9522 0)
(0.401293 -23.5833 5.50391e-22)
(0.530183 -21.0646 -6.18491e-22)
(0.100186 -15.3894 2.35081e-22)
(0.224751 -6.06408 -2.34177e-22)
(6.98579 -28.721 -6.17797e-20)
(5.68197 -27.6588 -8.98729e-20)
(4.33399 -27.4338 -1.77402e-20)
(3.5711 -27.03 -1.00513e-20)
(2.90407 -26.5221 2.08948e-20)
(2.36594 -26.022 3.65974e-20)
(2.00576 -25.6582 8.53436e-21)
(1.62803 -25.2862 0)
(1.40146 -25.0548 -3.47962e-21)
(1.16408 -24.8066 7.94627e-21)
(0.967996 -24.6717 2.09697e-21)
(0.828319 -24.5186 9.56919e-22)
(0.655145 -24.4332 0)
(0.633042 -24.2651 -4.79791e-22)
(0.5152 -24.2155 -5.66313e-22)
(0.577126 -23.95 0)
(0.403871 -23.5989 0)