/*--------------------------------*- C++ -*----------------------------------*\
  =========                 |
  \\      /  F ield         | OpenFOAM: The Open Source CFD Toolbox
   \\    /   O peration     | Website:  https://openfoam.org
    \\  /    A nd           | Version:  9
     \\/     M anipulation  |
\*---------------------------------------------------------------------------*/
FoamFile
{
    format      ascii;
    class       volScalarField;
    location    "4.3";
    object      nut;
}
// * * * * * * * * * * * * * * * * * * * * * * * * * * * * * * * * * * * * * //

dimensions      [0 2 -1 0 0 0 0];

internalField   nonuniform List<scalar> 
46400
(
0.0208837
0.00498798
0.00139653
0.00171598
0.00156243
0.00158043
0.00147262
0.00146562
0.00140175
0.00136274
0.00132846
0.00126449
0.00123384
0.00120544
0.00118059
0.00119407
0.00112291
0.00110087
0.00147221
0.0010997
0.0203157
0.00434277
0.0013619
0.00171847
0.00155879
0.00157975
0.00150264
0.00147526
0.00141162
0.00135471
0.00131216
0.00126234
0.00122895
0.00118673
0.00113938
0.00109543
0.00101206
0.000934842
0.00124515
0.00107936
0.0196104
0.00497021
0.00145483
0.00173224
0.00157346
0.0015854
0.00148815
0.00146683
0.00140848
0.0013473
0.00131356
0.0012632
0.00121524
0.00117629
0.001146
0.00113535
0.00104788
0.00101222
0.00133646
0.00107196
0.0189341
0.00546347
0.00152645
0.00176012
0.00156826
0.00156956
0.00148511
0.00146252
0.00142097
0.00136331
0.00130793
0.00124557
0.00120876
0.00116273
0.00112298
0.00108808
0.00100903
0.000962869
0.00130547
0.00110541
0.0182718
0.00556843
0.00156787
0.00175081
0.00158799
0.00157537
0.00149958
0.00144857
0.0014139
0.00135878
0.00132477
0.00128095
0.0012412
0.00118977
0.00114978
0.00113072
0.00105812
0.000996657
0.00130705
0.00109761
0.0172085
0.00483584
0.0015701
0.00174459
0.00158782
0.0015484
0.00147154
0.00141315
0.00136898
0.00132603
0.00129329
0.0012351
0.00120028
0.00117599
0.00114282
0.00111412
0.00106466
0.00100891
0.00132125
0.00113911
0.015189
0.00383119
0.00158437
0.00170859
0.00158383
0.00152245
0.00148291
0.00143127
0.00138218
0.00132382
0.00129276
0.00125414
0.00121265
0.00117095
0.00114045
0.00110894
0.00105501
0.000995174
0.00128665
0.00112143
0.012233
0.00294339
0.00159675
0.00161187
0.00156909
0.00149604
0.00143645
0.00139937
0.00135265
0.00129439
0.00126857
0.00123317
0.00119462
0.00116361
0.00115367
0.00112891
0.00107515
0.00100491
0.00128405
0.00115657
0.0101195
0.00241143
0.00155747
0.00162537
0.00159589
0.00152344
0.00144508
0.00139154
0.00137486
0.00129998
0.00124726
0.00120801
0.00117917
0.001127
0.00109569
0.0010927
0.00105356
0.000977921
0.00120473
0.00111938
0.00853688
0.00210999
0.00156856
0.00152719
0.00151267
0.00148535
0.00142552
0.00132588
0.00131473
0.00128455
0.00125305
0.0012165
0.00118701
0.0011415
0.00110718
0.00108278
0.00105057
0.000993423
0.00116705
0.00108391
0.00725649
0.00199889
0.00164847
0.0014818
0.00147214
0.00144802
0.00145124
0.00136181
0.00128772
0.00123393
0.0011906
0.00115126
0.00114612
0.00112118
0.00107473
0.00104905
0.00101703
0.000975993
0.00114234
0.00107822
0.00614031
0.00184582
0.00164343
0.00151835
0.00146032
0.00135712
0.00140445
0.00139076
0.00135247
0.00128754
0.00123052
0.0011672
0.00112255
0.00110581
0.00107911
0.00104231
0.000992652
0.000935731
0.00105991
0.0010327
0.00535535
0.00174172
0.0016636
0.00157654
0.00152354
0.00135545
0.00129809
0.00126947
0.00129226
0.00127721
0.00125009
0.00120365
0.00113866
0.00110095
0.00108306
0.00105877
0.00102792
0.000972803
0.00104514
0.00101478
0.00447691
0.00157085
0.00158012
0.00153183
0.00167344
0.00160274
0.00148359
0.00137052
0.00128193
0.00124407
0.00120695
0.00119074
0.00115398
0.001099
0.00106109
0.00104292
0.00100614
0.000976686
0.00103869
0.000999177
0.00401582
0.00148201
0.00154433
0.00141822
0.00146981
0.00147921
0.00147495
0.00145616
0.00137137
0.00132218
0.00125306
0.00121133
0.00117943
0.001147
0.00110044
0.00106082
0.00102723
0.000977295
0.00103298
0.00100682
0.00431923
0.00165211
0.00170048
0.00156869
0.00146011
0.00138323
0.0013387
0.00132471
0.00128236
0.00125581
0.00120692
0.00117555
0.0011201
0.00109987
0.00106687
0.00104065
0.00100852
0.000965076
0.0010016
0.000962273
0.0042788
0.00168708
0.00152376
0.00148482
0.00146746
0.00138286
0.00136484
0.0012873
0.00127956
0.00124827
0.00123206
0.00120534
0.00117901
0.00113642
0.00110154
0.00106401
0.00102503
0.000967257
0.00100079
0.000950494
0.00338809
0.001963
0.00169988
0.00162089
0.00148963
0.00138002
0.00138072
0.00128334
0.00127128
0.0012047
0.00117676
0.00114159
0.00110844
0.00109099
0.00105455
0.00104589
0.00100752
0.000982661
0.000993982
0.000976272
0.00237665
0.0016475
0.00156518
0.00153858
0.00147051
0.00142701
0.00136449
0.00132103
0.00128698
0.00124373
0.00121273
0.0011782
0.0011399
0.0011168
0.00107773
0.00106536
0.00102725
0.000996743
0.00101549
0.000973385
0.00137498
0.00164698
0.00151851
0.00144604
0.00140521
0.00144267
0.00136747
0.00135998
0.00130603
0.00127999
0.00124127
0.00119845
0.00117011
0.00112893
0.00110269
0.00106275
0.00103474
0.000974197
0.000984622
0.000949396
0.0181704
0.0150709
0.00675408
0.00079806
0.0011868
0.00138994
0.00133102
0.00132984
0.00128999
0.00122368
0.00120277
0.0011944
0.00116669
0.00120237
0.00127673
0.00135568
0.0013294
0.0012778
0.00115749
0.00101825
0.0195738
0.0150275
0.00524462
0.000757949
0.00129325
0.00148549
0.00139698
0.00131157
0.00126464
0.00122044
0.00118095
0.00120519
0.00122265
0.00125149
0.0012899
0.00135749
0.00131693
0.00125194
0.00112444
0.0010146
0.0202979
0.0148614
0.00401099
0.000530765
0.00141892
0.00149153
0.00138243
0.00132839
0.00129868
0.00123638
0.00123028
0.00124048
0.0012049
0.0012155
0.00127572
0.00136171
0.00132292
0.00127126
0.00112971
0.00101914
0.0208868
0.0146527
0.00293627
0.000454128
0.00143659
0.00147965
0.00142179
0.0013597
0.00130812
0.00126256
0.00121198
0.00120281
0.00120353
0.00124247
0.00130481
0.00137555
0.00132011
0.00126987
0.00110825
0.00101082
0.0214309
0.0144812
0.00202366
0.000657812
0.00150883
0.00152702
0.00143451
0.00132444
0.00128996
0.00124122
0.0012163
0.00123923
0.00122834
0.0012384
0.00128021
0.00134713
0.00130514
0.00125489
0.00107834
0.00100321
0.0218832
0.0141177
0.00146008
0.000814734
0.00151958
0.00148247
0.00143666
0.00137892
0.00132812
0.001279
0.00124703
0.00122794
0.00119698
0.00121521
0.00127868
0.00136122
0.00131885
0.0012813
0.00109438
0.00102097
0.0223957
0.0138839
0.00099954
0.000980017
0.00155776
0.00152503
0.0014816
0.00135694
0.00130446
0.00126603
0.00121335
0.00121658
0.00121128
0.00122597
0.00127148
0.00133139
0.00130143
0.00127573
0.00105315
0.000993075
0.0227419
0.0134982
0.000940265
0.00111126
0.00156673
0.00149885
0.00145021
0.00137012
0.00131546
0.00126421
0.00124005
0.00123851
0.00119799
0.00119194
0.00123287
0.00130983
0.00129568
0.00127875
0.00106414
0.0010093
0.0230373
0.0131317
0.00111499
0.00119384
0.00157722
0.00150132
0.00149944
0.0013997
0.00132791
0.00129134
0.0012344
0.00121199
0.00118884
0.00119017
0.00123617
0.00130083
0.00129356
0.00128403
0.00103523
0.000994043
0.0232566
0.0127658
0.00125181
0.0013046
0.00160918
0.00150474
0.00147519
0.00137849
0.00131297
0.00126039
0.00121574
0.00122453
0.00119375
0.001175
0.00119372
0.0012556
0.00128035
0.00129119
0.00103575
0.00100121
0.0233798
0.0123464
0.00192577
0.00133378
0.00161774
0.00148356
0.00148266
0.00141686
0.00133389
0.00129213
0.00124505
0.00121836
0.00117518
0.00115081
0.00116884
0.00122447
0.00126244
0.00128651
0.00100075
0.000980196
0.023455
0.0121387
0.00181058
0.00138422
0.00164541
0.0015114
0.00148934
0.00141557
0.00133747
0.00128803
0.00121671
0.00120912
0.00118798
0.00116314
0.00116417
0.00119276
0.00124326
0.00129145
0.00100796
0.000992326
0.0234401
0.0118803
0.00257371
0.001408
0.0016382
0.00150578
0.00146987
0.00141776
0.00134052
0.00129104
0.00124339
0.00122417
0.0011766
0.00114046
0.00112893
0.00114754
0.00120991
0.00127695
0.000970753
0.000973366
0.0233519
0.0115955
0.00234203
0.00144295
0.00164371
0.0015256
0.00148881
0.00144717
0.00136037
0.00132077
0.001246
0.00121456
0.00118522
0.00115058
0.00113872
0.0011319
0.00118315
0.00126242
0.000962469
0.000977108
0.0231668
0.0112267
0.00213546
0.00148946
0.00163924
0.00154195
0.00147999
0.00143716
0.00136464
0.00131376
0.00125038
0.00123612
0.0012015
0.00115963
0.00113171
0.00110254
0.00114709
0.00123899
0.000940426
0.000975733
0.0229186
0.0101639
0.00192289
0.00151696
0.00163004
0.00155378
0.00148728
0.0014604
0.00137594
0.00134249
0.00128336
0.00124152
0.0012077
0.00116648
0.00114136
0.00110955
0.00112994
0.00121141
0.000915782
0.000977172
0.0226138
0.00926155
0.00176928
0.00156568
0.00162842
0.00157382
0.00149999
0.00147479
0.00139796
0.00135713
0.00128147
0.00125198
0.0012321
0.00119181
0.00116473
0.00111573
0.00111193
0.0011614
0.000875056
0.000983939
0.0222489
0.00812624
0.00163629
0.0016093
0.0016085
0.00158404
0.00149324
0.00147444
0.00139591
0.00136177
0.00131836
0.00127775
0.00125029
0.00120924
0.00117481
0.00114249
0.00113861
0.00115912
0.000844238
0.000993666
0.0218268
0.00707555
0.00167115
0.0016438
0.00159864
0.00158692
0.00149616
0.00148885
0.00141781
0.00138447
0.00132494
0.00127191
0.00126183
0.00123479
0.00121116
0.0011908
0.00117817
0.0011742
0.000814984
0.000966753
0.0213689
0.00604124
0.00163107
0.00169378
0.00158268
0.00159765
0.00150109
0.00148281
0.00141014
0.00137309
0.00133445
0.00130011
0.00128264
0.001261
0.00123248
0.00124095
0.00123908
0.00122934
0.000987916
0.00108448
0.00721562
0.00490255
0.00376655
0.0030164
0.00250458
0.00211602
0.00173681
0.00139962
0.00108711
0.000843432
0.000706575
0.000572587
0.000471076
0.000369752
0.000385524
0.000517862
0.00121257
0.00486704
0.00944287
0.0150129
0.00723895
0.00483271
0.00378549
0.00300496
0.00256308
0.00214079
0.00175801
0.00140297
0.00110092
0.000857465
0.000702498
0.000548946
0.000443958
0.000351739
0.000367749
0.000532669
0.00124936
0.0049402
0.00949727
0.0149287
0.00723884
0.00482808
0.00376584
0.00287237
0.00248003
0.00202409
0.00167474
0.00132674
0.00103806
0.000798102
0.000643243
0.000493257
0.000396727
0.000333737
0.000366721
0.000561386
0.00128304
0.00495291
0.00952799
0.0149254
0.0072683
0.00471832
0.00372605
0.0028126
0.00250608
0.00203545
0.00168455
0.00133479
0.00104274
0.000798207
0.000634796
0.000481572
0.000395216
0.000326552
0.000377061
0.000566671
0.00130317
0.00498699
0.00959794
0.0149089
0.00693925
0.00472147
0.0037192
0.00269684
0.00241336
0.00192929
0.00160519
0.0012669
0.000978758
0.00074972
0.000587046
0.000454258
0.000373252
0.000318466
0.000382862
0.00057654
0.00131553
0.00499561
0.00960783
0.0149777
0.00705881
0.00457884
0.00365707
0.00262858
0.00241841
0.00194833
0.00161243
0.00128279
0.000977816
0.000764862
0.000597024
0.000456919
0.00035949
0.00031191
0.000380756
0.000593446
0.00131406
0.00492859
0.00952213
0.0149529
0.007348
0.00458651
0.00364651
0.00254799
0.00234248
0.0018754
0.00154746
0.0012422
0.000939464
0.000739358
0.000566676
0.000437523
0.000328296
0.000298247
0.000372405
0.000594998
0.00130239
0.00493495
0.00961621
0.0148842
0.00730251
0.00455566
0.00361722
0.00248806
0.00233149
0.00190164
0.00155101
0.00126235
0.000957263
0.000756514
0.000568728
0.000437154
0.000318714
0.000292664
0.000359012
0.000585181
0.0012886
0.00496805
0.00966494
0.0145688
0.00729818
0.00457173
0.00360936
0.00245926
0.00228095
0.00184842
0.0014901
0.00122477
0.000924488
0.000731978
0.000541196
0.000427248
0.000300994
0.000291573
0.000347235
0.000578468
0.00126624
0.0049654
0.00967478
0.0144798
0.00722486
0.00453715
0.003567
0.00240218
0.00225858
0.00188099
0.00149906
0.00123615
0.000934019
0.000745555
0.000545324
0.000435471
0.000289016
0.000287749
0.000326243
0.000551487
0.00119498
0.00495065
0.00969567
0.0144367
0.00720741
0.00449183
0.00355035
0.00240664
0.00221491
0.0018355
0.00145254
0.00121209
0.000904143
0.000737411
0.000531587
0.000430843
0.000273115
0.000271711
0.000296386
0.00049898
0.00116159
0.00493204
0.00972213
0.0144042
0.00713491
0.00441394
0.0035031
0.00235293
0.00218236
0.00186761
0.00146312
0.00117541
0.000923727
0.000753932
0.000542216
0.000434312
0.00026833
0.00026238
0.000258467
0.000497067
0.00111533
0.00491476
0.00974939
0.0143672
0.00710804
0.00432928
0.00346221
0.00236178
0.0021515
0.00182251
0.00142353
0.00120979
0.00090605
0.000750778
0.000534874
0.000437845
0.000265251
0.000255416
0.000227864
0.000461226
0.00102387
0.00490944
0.00978725
0.0143266
0.00702439
0.00422597
0.00341173
0.00235623
0.00225181
0.00184613
0.00141839
0.00121611
0.000918422
0.000767129
0.000541408
0.000444361
0.000269689
0.000243186
0.000230347
0.000422438
0.000976229
0.00490032
0.00980157
0.0142868
0.00700307
0.0041022
0.003317
0.0023691
0.00211135
0.00180836
0.00139963
0.00120973
0.000910498
0.000773748
0.000546954
0.000448098
0.000278317
0.000233413
0.000193459
0.000383177
0.000896163
0.00485189
0.00981619
0.0142451
0.00696346
0.00398303
0.00323921
0.00235981
0.00210325
0.00181202
0.00138773
0.00121201
0.000917169
0.000784392
0.00055455
0.000455179
0.000260465
0.000183035
0.000141217
0.000310488
0.000772107
0.0048878
0.00985674
0.0141729
0.00699597
0.00384959
0.00312384
0.00237342
0.002072
0.00178629
0.00137633
0.00120463
0.000912951
0.000785312
0.000562346
0.000466392
0.000227672
0.000202641
0.000100153
0.000260072
0.000633316
0.00478716
0.00987836
0.0141611
0.00698971
0.00373922
0.00304942
0.00239186
0.00205851
0.00180591
0.00138596
0.00122136
0.000934428
0.00080723
0.00058023
0.000487467
0.000276823
0.000228452
5.13639e-05
0.00021609
0.000488982
0.00489349
0.00990048
0.014254
0.00691514
0.00367441
0.00285736
0.00237201
0.00202029
0.00177491
0.00137663
0.00121921
0.000935971
0.000816569
0.000594837
0.000497196
0.00032186
0.000267655
4.1138e-05
0.000186703
0.00033048
0.00489999
0.00997867
0.0143075
0.00730368
0.00369127
0.00278858
0.00239772
0.00197426
0.00170002
0.00130227
0.00114721
0.000881103
0.00076599
0.000571461
0.000481197
0.000319628
0.000269406
8.54098e-06
0.000136718
0.000192325
0.00461469
0.00984742
0.0140987
0.0141066
0.0359469
0.0273864
0.0257199
0.0218202
0.0189459
0.0145202
0.0126793
0.00954756
0.00821897
0.00622447
0.00535652
0.0037105
0.00357807
0.00108882
0.00172886
0
0.0458647
0.0939067
0.129622
0.0315409
0.0219027
0.0194607
0.0174267
0.0148519
0.0123641
0.0102396
0.00812352
0.00656212
0.00530828
0.0043474
0.00370161
0.0032148
0.00285877
0.00236272
0.00159968
0.00568261
0.0492404
0.0935404
0.127676
0.0168526
0.0150932
0.0136121
0.0108358
0.00944716
0.00833416
0.0074164
0.00629046
0.00538834
0.00471057
0.00416429
0.00377448
0.00347257
0.0033328
0.00307629
0.00237922
0.0063155
0.0513716
0.0918059
0.126206
0.0114053
0.00913134
0.00791879
0.008313
0.00745328
0.00691484
0.00623156
0.00569026
0.0050777
0.00438925
0.00412161
0.0035717
0.00321266
0.0027424
0.00237054
0.00139588
0.00569656
0.0510777
0.0916103
0.122318
0.0040347
0.0070516
0.00772685
0.00666775
0.00536242
0.00467143
0.00439302
0.00423762
0.00396897
0.00362116
0.00339925
0.00326988
0.00314261
0.00302633
0.0027718
0.00141077
0.00478796
0.0504219
0.0923976
0.120845
0.00538565
0.00494592
0.00385979
0.00383045
0.00409515
0.00420716
0.00387866
0.00370915
0.00371887
0.00334095
0.00323369
0.00303939
0.00288547
0.00280118
0.00262122
0.00105655
0.00385491
0.0476546
0.0932436
0.11956
0.00297565
0.00321822
0.00357306
0.00380622
0.00332035
0.00322234
0.00296854
0.00294766
0.00293488
0.00311359
0.00280023
0.00287682
0.0029243
0.00287117
0.00268059
0.00101957
0.00305474
0.0431409
0.0945324
0.120339
0.00254911
0.00255656
0.00237453
0.00225358
0.00221652
0.00252094
0.00259407
0.0025181
0.00244708
0.002537
0.00283649
0.00262623
0.00278662
0.00294054
0.00280446
0.00138816
0.00173631
0.0382921
0.0953963
0.122204
0.00129896
0.00142037
0.00158583
0.00179461
0.00198126
0.0019908
0.00205842
0.00237585
0.0023191
0.00239779
0.00222019
0.00262489
0.00251466
0.0026644
0.00274967
0.00174086
0.000795574
0.0308469
0.0961766
0.128266
0.00111692
0.00110938
0.00123042
0.00134774
0.00143778
0.00161742
0.00148396
0.00154888
0.00181693
0.00203822
0.00222249
0.00229806
0.00253511
0.00287895
0.00283292
0.0021783
0.00132146
0.0238309
0.0952039
0.136234
0.000471064
0.00060578
0.00074102
0.000920777
0.0010553
0.00127592
0.00149005
0.00171945
0.00166441
0.0019181
0.00202283
0.00238877
0.00225062
0.00250696
0.00260813
0.00265561
0.00120211
0.0173549
0.0923898
0.146363
0.000319552
0.000437985
0.000543631
0.000720519
0.000826726
0.000975369
0.0010189
0.0012469
0.0014871
0.00167459
0.00173366
0.00201469
0.00231523
0.00273545
0.00283459
0.00304723
0.00245509
0.0102483
0.0849989
0.158896
0.000269184
0.000437313
0.000498036
0.000645501
0.000726336
0.00089709
0.00105297
0.00122433
0.00127038
0.00156066
0.00176078
0.00200428
0.00215242
0.00252961
0.00278842
0.00331457
0.00275748
0.00633427
0.0643226
0.172718
0.000378911
0.000465484
0.000514734
0.000631993
0.000709067
0.000822237
0.000881514
0.00111416
0.00132105
0.00147793
0.00168546
0.00195265
0.00214572
0.00234843
0.002738
0.00298945
0.00372689
0.00313265
0.0480795
0.193571
0.000516407
0.000575592
0.000606032
0.000716748
0.000761971
0.000926518
0.00099899
0.00106731
0.00109726
0.00133633
0.00140489
0.00168072
0.0018597
0.0021983
0.00251597
0.00289591
0.00343001
0.00794537
0.0249815
0.145193
0.00066962
0.00071771
0.000707468
0.000751774
0.000788022
0.000871714
0.000929317
0.00111223
0.00115412
0.00131479
0.00140037
0.00165712
0.0017329
0.00209875
0.00205438
0.00258817
0.00260622
0.00514493
0.0129854
0.0966967
0.000422154
0.000499867
0.000562029
0.000667301
0.000715214
0.000808675
0.000858421
0.000990069
0.00106638
0.00119428
0.00124019
0.00132299
0.00138897
0.00158606
0.00184315
0.00225329
0.00241569
0.002693
0.00225823
0.0535097
0.00026687
0.000380348
0.000445368
0.000490068
0.000548604
0.000637037
0.000674627
0.000702562
0.000774244
0.000845471
0.000934579
0.00109929
0.00112226
0.00127807
0.00125618
0.00136002
0.0011751
0.00145588
0.00258623
0.0264982
0.00021711
0.000210273
0.000223726
0.000252299
0.000291061
0.000301057
0.000398718
0.000510394
0.000458998
0.000579442
0.000603105
0.000681083
0.000730334
0.000797741
0.000926907
0.00111316
0.00109251
0.00108133
0.000749477
0.0101081
5.68148e-05
0.00012783
0.000118461
0.000127588
0.000104669
0.000195449
0.000262238
0.000260303
0.000377026
0.000440213
0.000497291
0.000585554
0.000653301
0.00072177
0.000821462
0.000887025
0.000981511
0.000804999
0.00136687
0.00259793
0.0140102
0.0140316
0.0139563
0.0139826
0.0138905
0.013862
0.0137956
0.013631
0.0136053
0.0130461
0.012736
0.0125725
0.0121289
0.0116243
0.0115103
0.0109421
0.0114006
0.0102313
0.00968432
0.010603
0.00692565
0.0068907
0.00686929
0.00679728
0.00679926
0.00676697
0.00671908
0.00666583
0.00645296
0.00688352
0.0070517
0.00655944
0.00680193
0.00681655
0.00706141
0.00714582
0.00671507
0.00660365
0.00628158
0.00749067
0.00412125
0.0041258
0.00412865
0.00419041
0.00421825
0.00427266
0.00430032
0.00427954
0.0042675
0.0042604
0.00404734
0.00410929
0.003822
0.00393871
0.00378129
0.0035638
0.00336886
0.0036212
0.00329817
0.00401029
0.00263375
0.00262854
0.00260051
0.00259613
0.0025348
0.00253675
0.00247912
0.00241673
0.00232452
0.00236211
0.00239308
0.0025087
0.00252458
0.00247922
0.00239765
0.00268004
0.00267876
0.00296319
0.00259526
0.00279678
0.00160323
0.00159545
0.00159027
0.00158652
0.0015784
0.00158464
0.00160014
0.001687
0.00176876
0.00170839
0.0016699
0.00161455
0.00162811
0.00174579
0.00168118
0.00158788
0.00142091
0.00139499
0.00124509
0.00139491
0.00113244
0.00112307
0.00112599
0.00112247
0.00112343
0.00112581
0.00112097
0.00111079
0.00105413
0.00102507
0.000974955
0.00102033
0.00100891
0.000962914
0.0009836
0.00103267
0.0010513
0.00121641
0.00128504
0.00127335
0.000693162
0.000685867
0.000681196
0.00067761
0.000674984
0.000674332
0.000672852
0.000670534
0.00068421
0.000691916
0.000764533
0.000786292
0.000711355
0.000759951
0.000719969
0.000777002
0.00072258
0.000614061
0.000520658
0.000577168
0.000504802
0.00049895
0.000489969
0.000488631
0.000482283
0.000482053
0.00047861
0.000479284
0.000475774
0.000475313
0.000457155
0.000407515
0.000415049
0.000427019
0.000426888
0.00044005
0.000460567
0.000625004
0.000611993
0.000577431
0.000260546
0.000258485
0.000253377
0.000253823
0.000252625
0.000252534
0.000253008
0.000253834
0.000257169
0.000261548
0.000288476
0.000333935
0.000370628
0.000312989
0.000318516
0.000328839
0.00033656
0.000312867
0.000277837
0.00027651
0.000132481
0.000132758
0.000132113
0.000132831
0.000135657
0.000138891
0.000141695
0.000153647
0.000151889
0.000182089
0.000164814
0.000158952
0.00013825
0.000138717
0.00014341
0.000150971
0.000135636
0.00013485
0.000142249
0.000189075
9.16718e-05
8.47294e-05
7.75926e-05
6.8936e-05
6.21143e-05
5.56367e-05
4.55527e-05
3.88665e-05
3.28773e-05
2.95768e-05
2.73178e-05
2.6679e-05
2.43005e-05
2.67998e-05
2.87054e-05
4.27973e-05
5.41855e-05
9.33565e-05
9.24346e-05
0.000139362
0.000112697
0.000104597
9.48985e-05
8.24548e-05
7.51594e-05
7.20176e-05
6.12229e-05
5.21351e-05
4.25657e-05
3.1897e-05
1.90004e-05
1.01675e-05
1.0792e-05
8.7325e-06
2.01499e-05
2.10306e-05
2.996e-05
2.99164e-05
4.28612e-05
4.56184e-05
0.000118792
0.000116188
0.000117271
0.000117588
0.000116043
0.000102476
9.39635e-05
8.20013e-05
7.57156e-05
6.86313e-05
9.05277e-05
0.000106203
9.01599e-05
6.467e-05
6.61968e-05
5.64576e-05
6.74602e-05
4.90238e-05
6.72376e-05
6.45669e-05
0.000149756
0.000147698
0.000138804
0.0001276
0.000125887
0.00012432
0.000122743
0.000119477
0.000117848
0.000114181
0.000109501
0.000101707
9.33397e-05
8.24684e-05
8.72076e-05
8.4142e-05
8.60113e-05
7.66323e-05
9.20068e-05
9.20359e-05
0.000150314
0.000142826
0.000132956
0.000126484
0.000116527
9.89502e-05
9.24965e-05
9.51311e-05
0.000100415
0.000103575
0.00011179
0.000113554
0.000118322
0.000120462
0.000130921
0.000124847
0.000133735
0.000124709
0.000131554
0.000124792
7.74283e-05
8.51312e-05
9.55717e-05
9.45778e-05
7.97381e-05
7.67551e-05
9.04491e-05
0.000106755
0.000119109
0.000131078
0.000141978
0.00013504
0.000137911
0.000140373
0.000146231
0.0001438
0.000158731
0.000160592
0.000162607
0.000158003
5.43335e-05
5.61341e-05
5.86838e-05
5.90833e-05
6.20226e-05
6.61868e-05
7.04727e-05
7.35867e-05
7.39136e-05
7.52154e-05
7.58196e-05
7.74523e-05
7.97897e-05
8.04887e-05
8.52996e-05
8.80349e-05
9.23426e-05
8.67436e-05
8.96584e-05
9.28741e-05
3.28789e-05
3.48091e-05
3.6954e-05
3.91665e-05
4.09078e-05
4.28182e-05
4.26702e-05
4.12974e-05
3.92553e-05
3.80579e-05
3.65686e-05
3.51834e-05
3.33751e-05
3.25587e-05
3.2482e-05
3.28472e-05
3.14453e-05
3.05036e-05
2.97252e-05
3.41767e-05
1.97237e-05
2.10954e-05
2.19164e-05
2.3152e-05
2.4119e-05
2.53903e-05
2.6432e-05
2.79789e-05
2.98627e-05
3.16846e-05
3.39635e-05
3.59847e-05
3.97332e-05
4.42291e-05
5.42704e-05
5.50801e-05
5.45842e-05
5.42143e-05
5.6165e-05
5.62205e-05
7.15157e-05
6.95948e-05
6.76994e-05
6.57306e-05
6.39604e-05
6.20737e-05
6.01265e-05
5.80832e-05
5.62225e-05
5.44273e-05
5.00945e-05
4.57801e-05
4.12622e-05
3.70372e-05
3.26129e-05
2.85712e-05
2.45726e-05
2.13022e-05
1.77268e-05
1.38646e-05
0.000987439
0.00108223
0.000835262
0.000909257
0.000961196
0.000956736
0.00102031
0.00107372
0.00112984
0.00117361
0.00121824
0.00123419
0.00127201
0.00129919
0.00139695
0.00146399
0.00141188
0.0023574
0.00788896
0.0192346
0.000959674
0.00104774
0.000855013
0.00100327
0.0010316
0.0010807
0.00113515
0.00114875
0.00116572
0.0011988
0.00125247
0.00128237
0.00131726
0.00135945
0.00141726
0.00145713
0.0014367
0.00192554
0.00705064
0.01886
0.00104846
0.00112648
0.000845771
0.000931597
0.000979135
0.00100109
0.00103792
0.00107583
0.00113036
0.00117911
0.00121838
0.0012343
0.00129084
0.00132535
0.00143457
0.00146238
0.00150957
0.00143004
0.0060635
0.018469
0.00102568
0.00114931
0.000918202
0.00102105
0.00105816
0.00107916
0.00113178
0.00115244
0.00118392
0.00122221
0.00126744
0.00130378
0.00133868
0.00137923
0.0014493
0.0014513
0.00151692
0.00136905
0.00512731
0.0180068
0.00116347
0.00122621
0.000946304
0.0010216
0.00103304
0.00106792
0.00107918
0.00109936
0.00115107
0.00118932
0.00122035
0.00123705
0.00130155
0.00134894
0.00144348
0.00144933
0.00155135
0.00136609
0.00449398
0.0174865
0.00110815
0.00116413
0.000932362
0.00100607
0.00104625
0.0010695
0.00109773
0.00114569
0.00118352
0.00122416
0.0012679
0.00131932
0.00136003
0.00139799
0.00145775
0.00146248
0.00155106
0.00140605
0.00436097
0.0168687
0.00108613
0.00113613
0.000939065
0.00102556
0.00104662
0.00105821
0.00108556
0.00112666
0.00117148
0.00120706
0.00124362
0.00126929
0.00133087
0.00138578
0.00146861
0.00148589
0.00158086
0.00148679
0.00502836
0.0161396
0.00107662
0.00112599
0.000945707
0.00099674
0.00100492
0.00105054
0.00111653
0.00116471
0.00118461
0.00122447
0.00127128
0.00133227
0.00137725
0.00141758
0.00148113
0.00148992
0.00161071
0.0015565
0.00455257
0.0154082
0.001004
0.0010346
0.000896139
0.000953879
0.00102255
0.0010951
0.00112433
0.00112958
0.00115517
0.0012241
0.00127669
0.00131494
0.00135729
0.00142147
0.00148305
0.00152222
0.00165354
0.00155641
0.00399571
0.014421
0.00100286
0.00106352
0.000950389
0.00104566
0.00109975
0.00112226
0.00111861
0.00114609
0.00121237
0.00129338
0.00130406
0.00133725
0.00136955
0.00142171
0.00147559
0.00152771
0.00163388
0.00159029
0.00325621
0.0129553
0.00103019
0.00107405
0.000997111
0.00104694
0.00105485
0.00107324
0.00108146
0.00115368
0.00123509
0.00123799
0.00123021
0.00127809
0.00132403
0.00141024
0.00144365
0.00152643
0.00159175
0.00161161
0.00267901
0.0108497
0.000981676
0.00104006
0.000955608
0.000992961
0.00103802
0.00106346
0.00111075
0.00119653
0.00118588
0.00118167
0.00122039
0.00129422
0.00135014
0.00139608
0.0014443
0.00154302
0.00157211
0.00163873
0.00223721
0.00870994
0.0010124
0.0010496
0.000964724
0.0010268
0.00104239
0.00107211
0.00111749
0.00112962
0.0011209
0.00118004
0.00123138
0.00131876
0.001334
0.00139825
0.00145766
0.00151216
0.0015223
0.00159863
0.00192623
0.00680217
0.00097303
0.000995085
0.000939054
0.000983402
0.00100637
0.00105332
0.00107069
0.00110871
0.00115737
0.00121835
0.00127778
0.0013279
0.00131538
0.00141348
0.00143642
0.0015125
0.00154073
0.00161775
0.00173156
0.00551085
0.000906544
0.000956137
0.000949066
0.00100236
0.00106762
0.00109768
0.00114285
0.00119091
0.00121804
0.0012596
0.00129094
0.00127905
0.00132055
0.00141876
0.00142762
0.00151835
0.00145756
0.0015423
0.00163609
0.0046155
0.0009938
0.00106729
0.00101092
0.00107561
0.0010761
0.0011001
0.00111206
0.00111891
0.00112781
0.00116306
0.00117222
0.0012267
0.00133702
0.00140047
0.00144505
0.00145822
0.00143419
0.00165586
0.00169032
0.00435677
0.00097703
0.000989705
0.000949553
0.000994699
0.00099865
0.00103939
0.00104312
0.00109333
0.00113869
0.00120738
0.00126669
0.0013682
0.00140612
0.00142743
0.00138065
0.00135511
0.00144883
0.00152974
0.00159841
0.00424199
0.000939475
0.000963117
0.000960114
0.000995676
0.00104084
0.00106741
0.00110707
0.00117133
0.00121148
0.0012673
0.00129073
0.00131256
0.00128906
0.00128947
0.00126681
0.00138433
0.00148298
0.00155862
0.00172793
0.00429659
0.000906816
0.000967885
0.000935306
0.000990108
0.00102904
0.00105276
0.00110434
0.00113523
0.00116936
0.00119361
0.00121451
0.00124342
0.00128844
0.00134191
0.00144128
0.00159772
0.00166623
0.00163117
0.00175012
0.0027256
0.000915006
0.000963033
0.00094636
0.00101087
0.00104293
0.0010849
0.00112651
0.00116281
0.00120713
0.00124765
0.00130527
0.00136821
0.00142602
0.001504
0.0015765
0.00162939
0.00165052
0.00169158
0.00149909
0.00147882
0.000453278
0.000375496
0.000398678
0.000367831
0.000343118
0.000398692
0.000410688
0.000317244
0.000399474
0.000426112
0.000274283
0.000116718
0.00116137
0.00358141
0.0080053
0.0121758
0.0109888
0.00570817
0.00125038
0.000146006
0.000490113
0.000392556
0.000361633
0.00039287
0.000387982
0.000332969
0.000371747
0.000406692
0.000401647
0.000378284
0.000366556
0.000192818
7.23395e-05
0.00163207
0.00498669
0.00990613
0.0126693
0.00887905
0.00315704
3.29917e-23
0.000519106
0.000462099
0.000428933
0.000371432
0.000380882
0.000388485
0.000368008
0.000327197
0.000410052
0.00045225
0.000406377
0.000315675
9.42788e-05
0.000385699
0.0025939
0.00718686
0.0120958
0.0113472
0.00576216
0.000918503
0.000538609
0.000459391
0.000416838
0.000424799
0.000416732
0.000368066
0.000416647
0.000373954
0.000347704
0.000371766
0.000483675
0.000425558
0.000262475
4.99998e-05
0.0010479
0.00480998
0.0102076
0.0127007
0.00881277
0.00134668
0.000582758
0.00054981
0.000462323
0.000395425
0.000428599
0.000399903
0.000415959
0.000409197
0.000430315
0.000400089
0.000393042
0.00045813
0.000381584
0.000202111
0.000133967
0.00241675
0.00810876
0.0129671
0.0102505
0.00331167
0.000578013
0.000550115
0.000507958
0.000462156
0.00047441
0.000410065
0.000438265
0.000410847
0.000416956
0.000457516
0.000484603
0.000467948
0.000434302
0.000329123
2.35736e-05
0.000862075
0.00603097
0.0121317
0.0119108
0.00281682
0.000603907
0.000601344
0.000538389
0.000439726
0.0004931
0.000472198
0.000488016
0.000478519
0.000466439
0.000445173
0.000480877
0.000526513
0.000543726
0.000488883
0.000240704
0.000237899
0.00335021
0.0107898
0.0127887
0.00573002
0.000601414
0.000596449
0.000582919
0.000507586
0.000533571
0.000474561
0.000501653
0.000514614
0.000534479
0.000553409
0.000558553
0.000566476
0.000553314
0.000573293
0.000502191
0.000214863
0.00146996
0.00946041
0.0133069
0.00833479
0.000612083
0.000644352
0.000627793
0.000510127
0.000574621
0.000563922
0.000568789
0.000555538
0.000555172
0.000564979
0.000617711
0.000678908
0.000660716
0.00068958
0.000638208
0.00031151
0.000651527
0.00817
0.0133318
0.0110295
0.00064829
0.000629117
0.000650647
0.00056016
0.000609068
0.000570292
0.000596241
0.00063762
0.000653741
0.000654321
0.00066792
0.000703912
0.000714261
0.000756834
0.000792013
0.000606835
0.000389303
0.00573325
0.013215
0.013784
0.000636779
0.000649891
0.000716505
0.000586339
0.000646744
0.000651708
0.000653985
0.000648086
0.000669071
0.000702678
0.000753471
0.000813244
0.000798791
0.000811256
0.000870278
0.000768821
0.000389862
0.00404917
0.0129343
0.0157587
0.000670057
0.000609864
0.000699887
0.00061812
0.000681684
0.000677174
0.000693724
0.000745387
0.000760213
0.000753125
0.000784762
0.000843366
0.000862629
0.000911149
0.000952048
0.000928699
0.000329297