/*--------------------------------*- C++ -*----------------------------------*\
  =========                 |
  \\      /  F ield         | OpenFOAM: The Open Source CFD Toolbox
   \\    /   O peration     | Website:  https://openfoam.org
    \\  /    A nd           | Version:  9
     \\/     M anipulation  |
\*---------------------------------------------------------------------------*/
FoamFile
{
    format      ascii;
    class       surfaceScalarField;
    location    "4.3";
    object      phi;
}
// * * * * * * * * * * * * * * * * * * * * * * * * * * * * * * * * * * * * * //

dimensions      [0 3 -1 0 0 0 0];

internalField   nonuniform List<scalar> 
92080
(
-0.00836015
-0.515484
0.523844
-0.0398977
-0.99012
1.02166
-0.0873831
-1.0503
1.09778
-0.134965
-1.02929
1.07687
-0.181789
-1.01257
1.0594
-0.227833
-0.99674
1.04278
-0.272701
-0.981896
1.02676
-0.316589
-0.967158
1.01105
-0.360027
-0.952102
0.99554
-0.403031
-0.939322
0.982327
-0.445789
-0.925921
0.968679
-0.488693
-0.91423
0.957134
-0.530349
-0.905325
0.94698
-0.57092
-0.893927
0.934499
-0.611432
-0.883747
0.924259
-0.651063
-0.873637
0.913268
-0.689849
-0.863456
0.902243
-0.728692
-0.852874
0.891716
-0.766903
-0.842927
0.881139
-0.836754
0.870927
-0.801077
-0.00939919
-0.506085
-0.0461007
-0.953419
-0.0930112
-1.00339
-0.139965
-0.982334
-0.187703
-0.964836
-0.234981
-0.949461
-0.282051
-0.934826
-0.327939
-0.92127
-0.373161
-0.90688
-0.417466
-0.895017
-0.46066
-0.882727
-0.504614
-0.870276
-0.548116
-0.861823
-0.589915
-0.852128
-0.630893
-0.842769
-0.67053
-0.834
-0.708778
-0.825208
-0.745186
-0.816466
-0.779315
-0.808798
-0.802149
-0.813919
-0.00636914
-0.499716
-0.0476846
-0.912103
-0.0973172
-0.953753
-0.145522
-0.934129
-0.193988
-0.916371
-0.242597
-0.900853
-0.290488
-0.886935
-0.337653
-0.874105
-0.383962
-0.860571
-0.429658
-0.849322
-0.473624
-0.838762
-0.517725
-0.826175
-0.561961
-0.817588
-0.605187
-0.808901
-0.647846
-0.80011
-0.690032
-0.791814
-0.731264
-0.783976
-0.772374
-0.775356
-0.812607
-0.768564
-0.763154
-0.851603
-0.00103559
-0.49868
-0.0464372
-0.866702
-0.0992103
-0.90098
-0.15021
-0.883129
-0.199474
-0.867106
-0.24859
-0.851737
-0.297285
-0.83824
-0.345633
-0.825757
-0.393637
-0.812567
-0.441658
-0.8013
-0.487652
-0.792768
-0.532351
-0.781475
-0.577482
-0.772457
-0.621538
-0.764845
-0.66458
-0.757067
-0.707134
-0.749261
-0.748298
-0.742811
-0.788512
-0.735142
-0.829046
-0.72803
-0.722246
-0.869954
0.00150227
-0.500183
-0.0445949
-0.820605
-0.0996452
-0.84593
-0.152747
-0.830027
-0.204178
-0.815675
-0.25477
-0.801145
-0.304884
-0.788126
-0.353668
-0.776973
-0.401763
-0.764472
-0.450577
-0.752486
-0.498763
-0.744583
-0.545422
-0.734816
-0.592417
-0.725462
-0.639008
-0.718255
-0.684443
-0.711632
-0.729638
-0.704066
-0.774462
-0.697987
-0.817669
-0.691935
-0.859882
-0.685818
-0.680083
-0.902045
0.00295394
-0.503136
-0.0451211
-0.77253
-0.102477
-0.788574
-0.157459
-0.775045
-0.210831
-0.762304
-0.262493
-0.749483
-0.313443
-0.737176
-0.363303
-0.727113
-0.411217
-0.716557
-0.459448
-0.704255
-0.50801
-0.696021
-0.554692
-0.688135
-0.600909
-0.679245
-0.647805
-0.671359
-0.693822
-0.665615
-0.738978
-0.65891
-0.784562
-0.652404
-0.82978
-0.646717
-0.874101
-0.641496
-0.635971
-0.918214
0.000780492
-0.503917
-0.0508977
-0.720851
-0.110355
-0.729117
-0.166584
-0.718815
-0.220511
-0.708377
-0.272815
-0.697179
-0.324506
-0.685485
-0.376085
-0.675534
-0.425629
-0.667014
-0.474222
-0.655661
-0.523663
-0.64658
-0.57236
-0.639438
-0.619695
-0.631909
-0.667148
-0.623906
-0.714762
-0.618
-0.76101
-0.612662
-0.806644
-0.606769
-0.852316
-0.601046
-0.897577
-0.596235
-0.591261
-0.942286
-0.00785946
-0.496057
-0.0581781
-0.670533
-0.115487
-0.671808
-0.171497
-0.662804
-0.226037
-0.653838
-0.278789
-0.644427
-0.329925
-0.634349
-0.381641
-0.623818
-0.431939
-0.616715
-0.480264
-0.607336
-0.529026
-0.597818
-0.577974
-0.59049
-0.625811
-0.584072
-0.673059
-0.576658
-0.721197
-0.569863
-0.769039
-0.56482
-0.815913
-0.559895
-0.862395
-0.554564
-0.908804
-0.549826
-0.54513
-0.954935
-0.0168817
-0.479176
-0.0669715
-0.620443
-0.121842
-0.616938
-0.178778
-0.605868
-0.235489
-0.597126
-0.290735
-0.589181
-0.343054
-0.58203
-0.394898
-0.571975
-0.447242
-0.564371
-0.497147
-0.557432
-0.545875
-0.54909
-0.594657
-0.541708
-0.643001
-0.535728
-0.689932
-0.529728
-0.73674
-0.523054
-0.784216
-0.517344
-0.83129
-0.512822
-0.877549
-0.508304
-0.923452
-0.503923
-0.499435
-0.969147
-0.0243225
-0.454853
-0.0762906
-0.568475
-0.131031
-0.562198
-0.185513
-0.551386
-0.239884
-0.542756
-0.295516
-0.533549
-0.348942
-0.528604
-0.399395
-0.521522
-0.450496
-0.51327
-0.501461
-0.506467
-0.551427
-0.499124
-0.601103
-0.492032
-0.650753
-0.486078
-0.699201
-0.48128
-0.74663
-0.475625
-0.793938
-0.470035
-0.841644
-0.465116
-0.88901
-0.460938
-0.935414
-0.457518
-0.453766
-0.981084
-0.0328063
-0.422047
-0.0909043
-0.510377
-0.149123
-0.503979
-0.203148
-0.497361
-0.25641
-0.489494
-0.310924
-0.479034
-0.366588
-0.47294
-0.419799
-0.468311
-0.470335
-0.462734
-0.520008
-0.456795
-0.568827
-0.450305
-0.617128
-0.44373
-0.666138
-0.437068
-0.715101
-0.432317
-0.762899
-0.427827
-0.809939
-0.422995
-0.856779
-0.418277
-0.904131
-0.413586
-0.951809
-0.409841
-0.406909
-0.998666
-0.0392413
-0.382806
-0.0983242
-0.451294
-0.156747
-0.445557
-0.213371
-0.440737
-0.26637
-0.436494
-0.317455
-0.427949
-0.37117
-0.419225
-0.426211
-0.413269
-0.480388
-0.408557
-0.532781
-0.404402
-0.583343
-0.399743
-0.632061
-0.395012
-0.680096
-0.389033
-0.728665
-0.383748
-0.776878
-0.379614
-0.82416
-0.375713
-0.870542
-0.371895
-0.915948
-0.36818
-0.961725
-0.364063
-0.360731
-1.0079
-0.0417502
-0.341055
-0.100521
-0.392523
-0.159465
-0.386612
-0.218703
-0.381499
-0.275239
-0.379958
-0.326928
-0.376261
-0.376565
-0.369588
-0.427029
-0.362805
-0.479236
-0.356351
-0.532121
-0.351517
-0.584812
-0.347052
-0.63642
-0.343405
-0.685931
-0.339522
-0.734861
-0.334818
-0.784146
-0.330329
-0.833031
-0.326828
-0.881743
-0.323184
-0.929708
-0.320214
-0.976436
-0.317336
-0.314188
-1.02298
-0.0428661
-0.298189
-0.0983672
-0.337022
-0.154145
-0.330835
-0.211641
-0.324003
-0.27399
-0.317609
-0.335663
-0.314588
-0.393054
-0.312197
-0.447292
-0.308567
-0.499202
-0.30444
-0.550725
-0.299993
-0.601856
-0.295921
-0.653305
-0.291956
-0.704273
-0.288554
-0.753588
-0.285504
-0.802124
-0.281793
-0.850629
-0.278323
-0.898663
-0.27515
-0.946863
-0.272014
-0.994787
-0.269412
-0.267069
-1.04191
-0.0428906
-0.255299
-0.0961674
-0.283745
-0.151022
-0.27598
-0.204435
-0.27059
-0.259233
-0.262811
-0.317077
-0.256743
-0.375272
-0.254002
-0.433952
-0.249887
-0.490102
-0.248291
-0.545258
-0.244837
-0.598665
-0.242514
-0.651115
-0.239506
-0.703287
-0.236381
-0.754993
-0.233798
-0.805701
-0.231084
-0.855373
-0.228651
-0.904665
-0.225858
-0.953057
-0.223622
-1.00143
-0.221043
-0.21885
-1.04965
-0.0573386
-0.19796
-0.117435
-0.223649
-0.179787
-0.213628
-0.239221
-0.211156
-0.295454
-0.206578
-0.349843
-0.202355
-0.403479
-0.200365
-0.457512
-0.195854
-0.511063
-0.19474
-0.564306
-0.191594
-0.616632
-0.190188
-0.668463
-0.187675
-0.718922
-0.185923
-0.769262
-0.183457
-0.819042
-0.181304
-0.868449
-0.179244
-0.917328
-0.176979
-0.965807
-0.175143
-1.01378
-0.173068
-0.171389
-1.06124
-0.0596766
-0.138284
-0.121036
-0.16229
-0.17635
-0.158315
-0.233243
-0.154263
-0.289441
-0.150379
-0.344615
-0.147181
-0.399371
-0.14561
-0.452614
-0.142611
-0.505987
-0.141367
-0.559186
-0.138394
-0.61243
-0.136944
-0.66541
-0.134696
-0.718224
-0.133108
-0.770016
-0.131666
-0.821351
-0.129969
-0.871633
-0.128962
-0.921378
-0.127234
-0.970057
-0.126464
-1.01841
-0.12471
-0.124016
-1.06579
-0.05223
-0.0860535
-0.122162
-0.0923576
-0.185672
-0.0948041
-0.246855
-0.0930802
-0.304586
-0.0926488
-0.359225
-0.092541
-0.41482
-0.0900151
-0.467858
-0.0895733
-0.521257
-0.0879675
-0.573018
-0.0866337
-0.624553
-0.0854089
-0.675453
-0.0837955
-0.725919
-0.0826423
-0.776304
-0.0812809
-0.826137
-0.0801362
-0.876051
-0.0790482
-0.925333
-0.0779522
-0.974786
-0.0770109
-1.02355
-0.0759466
-0.0750584
-1.07251
-0.0572841
-0.0287694
-0.116554
-0.0330874
-0.175584
-0.0357744
-0.233857
-0.0348073
-0.291181
-0.0353245
-0.347464
-0.0362579
-0.402513
-0.0349667
-0.456828
-0.0352584
-0.510641
-0.0341541
-0.563786
-0.0334894
-0.616455
-0.0327396
-0.66871
-0.0315401
-0.720166
-0.0311868
-0.771578
-0.029869
-0.822088
-0.0296258
-0.87282
-0.0283159
-0.92264
-0.028133
-0.972754
-0.026897
-1.02204
-0.0266608
-0.0255395
-1.07156
-0.0565195
0.02775
-0.116652
0.0270449
-0.17352
0.021094
-0.228195
0.0198673
-0.282959
0.0194393
-0.339758
0.0205414
-0.394884
0.0201594
-0.450724
0.0205815
-0.50529
0.0204121
-0.559878
0.0210982
-0.613733
0.0211153
-0.666797
0.0215242
-0.719579
0.0215956
-0.771424
0.0219759
-0.823135
0.0220845
-0.873739
0.0222885
-0.924123
0.0222512
-0.973364
0.0223439
-1.02229
0.0222679
-1.0703
0.0224723
0.0264497
-0.361228
0.334778
0.0715369
-0.986299
0.941212
0.101777
-1.46445
1.43421
0.104836
-1.58112
1.57806
0.101105
-1.57144
1.57517
0.0957339
-1.54698
1.55235
0.0911076
-1.52511
1.52974
0.0855064
-1.50427
1.50987
0.0801827
-1.4848
1.49013
0.074239
-1.46627
1.47221
0.0684182
-1.44956
1.45538
0.0632224
-1.43254
1.43774
0.0583546
-1.41509
1.41996
0.0530827
-1.39767
1.40294
0.047115
-1.37848
1.38445
0.0404973
-1.35686
1.36348
0.0337606
-1.33448
1.34122
0.0270697
-1.31297
1.31966
0.0208666
-1.29541
1.30161
-1.27851
0.0151796
1.2842
0.0246463
-0.385874
0.0638998
-1.02555
0.0859663
-1.48651
0.0859619
-1.58112
0.0806456
-1.56612
0.0744447
-1.54078
0.0668512
-1.51752
0.059658
-1.49707
0.0525935
-1.47774
0.0457367
-1.45941
0.0388324
-1.44265
0.0315156
-1.42523
0.023661
-1.40724
0.0155408
-1.38955
0.00746952
-1.37041
-0.000425458
-1.34897
-0.00850019
-1.32641
-0.0162063
-1.30526
-0.0236011
-1.28801
-1.27129
-0.0308252
0.0242978
-0.410172
0.0582528
-1.05951
0.0717081
-1.49997
0.0662752
-1.57568
0.0570169
-1.55686
0.0480015
-1.53177
0.0397916
-1.50931
0.0312351
-1.48852
0.0222571
-1.46876
0.0130809
-1.45024
0.00345659
-1.43303
-0.00605679
-1.41571
-0.0151591
-1.39813
-0.0236821
-1.38102
-0.0321871
-1.36191
-0.0407834
-1.34037
-0.0495669
-1.31762
-0.0583103
-1.29652
-0.0672047
-1.27912
-1.26252
-0.0759784
0.0215589
-0.431731
0.0522002
-1.09015
0.0613558
-1.50912
0.0531861
-1.56751
0.042182
-1.54586
0.0312334
-1.52082
0.0193516
-1.49743
0.00732131
-1.47649
-0.00381488
-1.45763
-0.0149545
-1.4391
-0.0257122
-1.42227
-0.0360256
-1.4054
-0.0463108
-1.38785
-0.056972
-1.37036
-0.0677249
-1.35115
-0.0783754
-1.32972
-0.0887899
-1.30721
-0.0990274
-1.28628
-0.108803
-1.26934
-1.25289
-0.118426
0.0188505
-0.450581
0.0438911
-1.11519
0.045749
-1.51098
0.033941
-1.5557
0.0204816
-1.5324
0.00744573
-1.50778
-0.00540546
-1.48457
-0.0179844
-1.46391
-0.0309985
-1.44461
-0.0436269
-1.42647
-0.0565199
-1.40938
-0.069729
-1.39219
-0.0828719
-1.37471
-0.0954672
-1.35777
-0.107545
-1.33908
-0.119098
-1.31817
-0.130609
-1.2957
-0.141931
-1.27496
-0.153125
-1.25815
-1.24177
-0.164246
0.0173699
-0.467951
0.0382734
-1.13609
0.0353577
-1.50807
0.0205073
-1.54085
0.0045432
-1.51644
-0.0109678
-1.49227
-0.0262388
-1.4693
-0.0420008
-1.44815
-0.0571732
-1.42944
-0.0724246
-1.41122
-0.0875393
-1.39426
-0.102014
-1.37772
-0.115934
-1.36079
-0.129439
-1.34426
-0.142667
-1.32585
-0.155674
-1.30516
-0.168559
-1.28281
-0.181596
-1.26193
-0.194967
-1.24477
-1.22865
-0.208089
0.0148191
-0.48277
0.0315457
-1.15282
0.0247108
-1.50123
0.00763411
-1.52378
-0.0100892
-1.49871
-0.0277164
-1.47464
-0.0457662
-1.45125
-0.0634605
-1.43045
-0.0809324
-1.41197
-0.0977926
-1.39436
-0.114239
-1.37782
-0.130559
-1.3614
-0.146848
-1.3445
-0.162867
-1.32824
-0.178254
-1.31046
-0.19286
-1.29056
-0.206979
-1.26869
-0.221071
-1.24783
-0.235133
-1.23071
-1.21432
-0.249461
0.0134573
-0.496228
0.025441
-1.1648
0.0124773
-1.48827
-0.00836022
-1.50294
-0.029093
-1.47798
-0.0489692
-1.45477
-0.0679383
-1.43228
-0.0871101
-1.41128
-0.106411
-1.39267
-0.12546
-1.37531
-0.144552
-1.35872
-0.163425
-1.34252
-0.181729
-1.32619
-0.199351
-1.31062
-0.216185
-1.29363
-0.232368
-1.27437
-0.248249
-1.25281
-0.263934
-1.23215
-0.279626
-1.21502
-1.19855
-0.295398
0.0114769
-0.507705
0.0194407
-1.17277
0.00431381
-1.47314
-0.0180382
-1.48059
-0.0405357
-1.45548
-0.0629252
-1.43238
-0.0853191
-1.40989
-0.107696
-1.3889
-0.129503
-1.37086
-0.151056
-1.35376
-0.171944
-1.33784
-0.192097
-1.32237
-0.211943
-1.30635
-0.231326
-1.29124
-0.250094
-1.27486
-0.26796
-1.25651
-0.285306
-1.23547
-0.302829
-1.21463
-0.3205
-1.19735
-1.18109
-0.337961
0.00986909
-0.517574
0.0136143
-1.17651
-0.00668145
-1.45284
-0.0322
-1.45507
-0.0573694
-1.43031
-0.0817631
-1.40799
-0.105493
-1.38616
-0.128768
-1.36563
-0.152367
-1.34726
-0.175351
-1.33077
-0.198147
-1.31504
-0.220883
-1.29964
-0.243336
-1.28389
-0.265316
-1.26926
-0.286175
-1.254
-0.305795
-1.23689
-0.324536
-1.21673
-0.343422
-1.19574
-0.362692
-1.17808
-1.16192
-0.381863
0.00815762
-0.525731
0.00784073
-1.1762
-0.0155882
-1.42942
-0.0432526
-1.42741
-0.0707874
-1.40278
-0.0979027
-1.38087
-0.124133
-1.35993
-0.150412
-1.33935
-0.176375
-1.3213
-0.202328
-1.30482
-0.227846
-1.28952
-0.252455
-1.27503
-0.276458
-1.25989
-0.30002
-1.24569
-0.32298
-1.23104
-0.344748
-1.21512
-0.365322
-1.19615
-0.385494
-1.17557
-0.405922
-1.15765
-1.14167
-0.426171
0.00642492
-0.532156
0.00254917
-1.17232
-0.0240525
-1.40281
-0.0541046
-1.39735
-0.0835306
-1.37335
-0.112788
-1.35161
-0.141701
-1.33102
-0.169824
-1.31123
-0.197862
-1.29326
-0.2256
-1.27708
-0.252897
-1.26222
-0.279737
-1.24819
-0.306051
-1.23358
-0.331856
-1.21989
-0.357059
-1.20584
-0.381106
-1.19107
-0.40377
-1.17349
-0.426042
-1.1533
-0.448578
-1.13512
-1.1193
-0.470947
0.00487342
-0.53703
-0.00277288
-1.16467
-0.0329262
-1.37266
-0.066087
-1.36419
-0.0984294
-1.34101
-0.130027
-1.32001
-0.160681
-1.30036
-0.190785
-1.28112
-0.220765
-1.26328
-0.25036
-1.24749
-0.280065
-1.23252
-0.309466
-1.21878
-0.338268
-1.20478
-0.366285
-1.19187
-0.393356
-1.17877
-0.419377
-1.16505
-0.443801
-1.14906
-0.467488
-1.12961
-0.491302
-1.1113
-1.09575
-0.514856
0.00297327
-0.540003
-0.00876519
-1.15294
-0.0402879
-1.34114
-0.074888
-1.32959
-0.108905
-1.30699
-0.143013
-1.28591
-0.176655
-1.26672
-0.209736
-1.24804
-0.242226
-1.23079
-0.274663
-1.21505
-0.306386
-1.2008
-0.337503
-1.18767
-0.368392
-1.17389
-0.398915
-1.16135
-0.428838
-1.14885
-0.457658
-1.13623
-0.484547
-1.12218
-0.510084
-1.10407
-0.535617
-1.08577
-1.07033
-0.561037
0.00117606
-0.541179
-0.0138259
-1.13793
-0.0491879
-1.30578
-0.0867203
-1.29206
-0.123023
-1.27069
-0.158759
-1.25017
-0.194285
-1.23119
-0.228959
-1.21337
-0.263374
-1.19637
-0.297244
-1.18118
-0.331032
-1.16701
-0.364452
-1.15425
-0.397475
-1.14086
-0.430189
-1.12864
-0.46226
-1.11678
-0.49354
-1.10495
-0.522905
-1.09281
-0.550486
-1.07649
-0.577766
-1.05849
-1.04325
-0.60484
-0.000650118
-0.540529
-0.0189027
-1.11968
-0.0557225
-1.26896
-0.0949046
-1.25288
-0.133281
-1.23231
-0.171149
-1.2123
-0.208469
-1.19388
-0.245521
-1.17631
-0.282047
-1.15985
-0.318437
-1.14479
-0.354813
-1.13063
-0.390537
-1.11852
-0.425767
-1.10563
-0.460706
-1.0937
-0.49518
-1.0823
-0.529491
-1.07064
-0.562188
-1.06011
-0.592388
-1.04629
-0.621297
-1.02958
-1.0145
-0.650048
-0.00208737
-0.538441
-0.0229306
-1.09884
-0.0624149
-1.22947
-0.103576
-1.21172
-0.143964
-1.19193
-0.183902
-1.17236
-0.223778
-1.154
-0.263211
-1.13688
-0.302036
-1.12102
-0.34034
-1.10649
-0.378174
-1.0928
-0.41581
-1.08089
-0.453099
-1.06834
-0.490249
-1.05655
-0.526783
-1.04577
-0.56308
-1.03434
-0.598511
-1.02468
-0.631444
-1.01336
-0.662366
-0.998659
-0.983874
-0.692994
-0.00376091
-0.534681
-0.0270117
-1.07559
-0.0693048
-1.18718
-0.112882
-1.16814
-0.15501
-1.1498
-0.196214
-1.13116
-0.23682
-1.11339
-0.277268
-1.09643
-0.317732
-1.08056
-0.35766
-1.06656
-0.397847
-1.05261
-0.437533
-1.0412
-0.476721
-1.02916
-0.516001
-1.01727
-0.55468
-1.00709
-0.593381
-0.995641
-0.632169
-0.985895
-0.669242
-0.976285
-0.703559
-0.964342
-0.950365
-0.737068
-0.00485656
-0.529824
-0.0306568
-1.04979
-0.0740266
-1.14381
-0.118949
-1.12322
-0.163379
-1.10537
-0.206595
-1.08794
-0.249115
-1.07087
-0.291248
-1.0543
-0.333227
-1.03858
-0.37492
-1.02487
-0.416459
-1.01107
-0.457682
-0.99998
-0.498261
-0.988577
-0.539307
-0.976221
-0.580298
-0.966097
-0.621172
-0.954766
-0.662615
-0.944452
-0.703763
-0.935137
-0.742626
-0.925479
-0.913829
-0.779162
-0.00597965
-0.0341081
-0.0801355
-0.126483
-0.172452
-0.217612
-0.261723
-0.304976
-0.348016
-0.390556
-0.432947
-0.475793
-0.51739
-0.559112
-0.60095
-0.642449
-0.684658
-0.728079
-0.772419
-0.815322
-0.0355158
-11.0345
11.0852
-0.0685939
-10.3044
10.3375
-0.0907758
-10.0369
10.0591
-0.0955458
-9.56958
9.57435
-0.0943952
-9.39229
9.39114
-0.0862128
-9.05108
9.0429
-0.0768126
-8.88729
8.87789
-0.0642638
-8.6662
8.65365
-0.0526571
-8.54357
8.53196
-0.0390318
-8.43583
8.42221
-0.0254515
-8.35403
8.34045
-0.0113156
-8.28713
8.27299
0.00390033
-8.23478
8.21957
0.0164402
-8.19386
8.18132
0.0283716
-8.13626
8.12433
0.0363031
-8.05957
8.05164
0.0395726
-7.907
7.90373
0.0414308
-7.28631
7.28445
0.0231292
-5.43238
5.45068
-2.36946
2.39258
-0.0897217
-10.9756
-0.125026
-10.2691
-0.146591
-10.0153
-0.150259
-9.56592
-0.148136
-9.39441
-0.138101
-9.06112
-0.126569
-8.89882
-0.11149
-8.68128
-0.0971358
-8.55792
-0.080589
-8.45238
-0.0638798
-8.37074
-0.0469613
-8.30404
-0.0286237
-8.25312
-0.0124348
-8.21005
0.00369393
-8.15239
0.017031
-8.07291
0.0268724
-7.91685
0.0348378
-7.29427
0.0216417
-5.41918
-2.34781
-0.140979
-10.9106
-0.183971
-10.2261
-0.208227
-9.99108
-0.210507
-9.56364
-0.206295
-9.39863
-0.193827
-9.07358
-0.179741
-8.91291
-0.161432
-8.69959
-0.143369
-8.57598
-0.1239
-8.47185
-0.103617
-8.39102
-0.0833894
-8.32427
-0.0617425
-8.27477
-0.0413507
-8.23045
-0.0209267
-8.17282
-0.00200451
-8.09183
0.0143059
-7.93316
0.0285559
-7.30852
0.0208017
-5.41143
-2.32701
-0.19587
-10.8332
-0.242252
-10.1797
-0.266581
-9.96675
-0.267281
-9.56294
-0.261515
-9.40439
-0.247304
-9.0878
-0.230732
-8.92948
-0.209704
-8.72062
-0.18853
-8.59716
-0.165985
-8.49439
-0.142542
-8.41447
-0.119205
-8.34761
-0.0941776
-8.2998
-0.0699035
-8.25472
-0.0450164
-8.1977
-0.020625
-8.11622
0.00199214
-7.95577
0.0211635
-7.3277
0.0188278
-5.40909
-2.30818
-0.247183
-10.7503
-0.299127
-10.1278
-0.3262
-9.93968
-0.326358
-9.56278
-0.318891
-9.41186
-0.302759
-9.10393
-0.283659
-8.94858
-0.259517
-8.74476
-0.234812
-8.62186
-0.209444
-8.51976
-0.182443
-8.44147
-0.155135
-8.37492
-0.126523
-8.32841
-0.0980311
-8.28321
-0.0684796
-8.22725
-0.0387826
-8.14592
-0.0100022
-7.98455
0.0135457
-7.35124
0.0168113
-5.41236
-2.29137
-0.301105
-10.6572
-0.357444
-10.0715
-0.386189
-9.91093
-0.38517
-9.5638
-0.375596
-9.42143
-0.357397
-9.12213
-0.335433
-8.97054
-0.308474
-8.77172
-0.280353
-8.64998
-0.251597
-8.54852
-0.221241
-8.47182
-0.190389
-8.40577
-0.158231
-8.36056
-0.125731
-8.31571
-0.0912698
-8.26172
-0.0564566
-8.18073
-0.0220772
-8.01893
0.00451811
-7.37784
0.0135715
-5.42141
-2.2778
-0.351849
-10.5548
-0.413305
-10.01
-0.444181
-9.88005
-0.442948
-9.56503
-0.432058
-9.43232
-0.412149
-9.14204
-0.387601
-8.99509
-0.357859
-8.80146
-0.326352
-8.68149
-0.294299
-8.58057
-0.260407
-8.50571
-0.225759
-8.44042
-0.190025
-8.3963
-0.15332
-8.35242
-0.113753
-8.30128
-0.0738346
-8.22065
-0.034241
-8.05853
-0.00546992
-7.40661
0.00963664
-5.43652
-2.26816
-0.404231
-10.446
-0.47085
-9.94339
-0.50469
-9.84621
-0.502748
-9.56697
-0.489192
-9.44588
-0.466868
-9.16436
-0.439146
-9.02281
-0.406261
-8.83434
-0.371234
-8.71652
-0.335783
-8.61602
-0.298614
-8.54288
-0.260586
-8.47845
-0.221311
-8.43557
-0.18068
-8.39305
-0.136293
-8.34567
-0.0913324
-8.26561
-0.046231
-8.10363
-0.013278
-7.43956
0.00761059
-5.45741
-2.26055
-0.453995
-10.33
-0.523896
-9.87349
-0.55975
-9.81036
-0.558671
-9.56805
-0.544376
-9.46018
-0.520446
-9.18829
-0.490107
-9.05315
-0.454403
-8.87005
-0.416232
-8.75469
-0.377577
-8.65468
-0.336992
-8.58347
-0.295172
-8.52027
-0.252189
-8.47856
-0.207765
-8.43747
-0.159021
-8.39441
-0.109229
-8.3154
-0.0583288
-8.15453
-0.0207314
-7.47716
0.00614174
-5.48428
-2.25441
-0.50614
-10.2057
-0.579841
-9.79979
-0.61901
-9.77119
-0.617799
-9.56926
-0.600892
-9.47708
-0.574672
-9.21451
-0.541133
-9.08669
-0.501959
-8.90922
-0.460303
-8.79635
-0.418405
-8.69657
-0.374439
-8.62743
-0.329178
-8.56553
-0.282418
-8.52532
-0.234395
-8.48549
-0.181596
-8.44721
-0.127507
-8.36949
-0.0708788
-8.21116
-0.0285004
-7.51954
0.00432301
-5.5171
-2.25009
-0.555871
-10.076
-0.631239
-9.72442
-0.67124
-9.73119
-0.671512
-9.56899
-0.654339
-9.49426
-0.626374
-9.24247
-0.590509
-9.12255
-0.548856
-8.95087
-0.504251
-8.84095
-0.459047
-8.74178
-0.411564
-8.67492
-0.362744
-8.61435
-0.312282
-8.57578
-0.260608
-8.53717
-0.203949
-8.50387
-0.145994
-8.42745
-0.0837906
-8.27336
-0.0365578
-7.56677
0.00225242
-5.55591
-2.24784
-0.607085
-9.93986
-0.684877
-9.64663
-0.727721
-9.68835
-0.728909
-9.5678
-0.709833
-9.51333
-0.679448
-9.27286
-0.640304
-9.1617
-0.595234
-8.99594
-0.547121
-8.88907
-0.498616
-8.79028
-0.447862
-8.72567
-0.395778
-8.66643
-0.341713
-8.62984
-0.286343
-8.59254
-0.226253
-8.56396
-0.164327
-8.48937
-0.0965636
-8.34112
-0.0444774
-7.61886
0.000167809
-5.60056
-2.24767
-0.656681
-9.79804
-0.734715
-9.56859
-0.777269
-9.64579
-0.7803
-9.56477
-0.760844
-9.53279
-0.728723
-9.30498
-0.687673
-9.20275
-0.640336
-9.04328
-0.589363
-8.94004
-0.537601
-8.84205
-0.483508
-8.77976
-0.42816
-8.72178
-0.370488
-8.68751
-0.311404
-8.65162
-0.248529
-8.62684
-0.182937
-8.55496
-0.109269
-8.41479
-0.0520796
-7.67605
-0.00174934
-5.65089
-2.24942
-0.706913
-9.65216
-0.78613
-9.48938
-0.830883
-9.60104
-0.835661
-9.55999
-0.814903
-9.55354
-0.780281
-9.3396
-0.735787
-9.24724
-0.684878
-9.09419
-0.630625
-8.99429
-0.57568
-8.89699
-0.51837
-8.83707
-0.459781
-8.78037
-0.398691
-8.7486
-0.335833
-8.71448
-0.269401
-8.69327
-0.200852
-8.62351
-0.121946
-8.4937
-0.0589114
-7.73908
-0.00346862
-5.70633
-2.25289
-0.756265
-9.50074
-0.834408
-9.41123
-0.876919
-9.55853
-0.883499
-9.55341
-0.863211
-9.57383
-0.827158
-9.37566
-0.781127
-9.29327
-0.728024
-9.14729
-0.67095
-9.05137
-0.61283
-8.95511
-0.55238
-8.89752
-0.490593
-8.84216
-0.426158
-8.81304
-0.359634
-8.781
-0.290131
-8.76277
-0.218803
-8.69484
-0.134278
-8.57822
-0.0648872
-7.80847
-0.00465488
-5.76656
-2.25754
-0.805712
-9.34507
-0.884897
-9.33205
-0.928243
-9.51518
-0.93637
-9.54529
-0.915176
-9.59503
-0.876468
-9.41436
-0.826943
-9.3428
-0.770425
-9.20381
-0.710202
-9.11159
-0.648927
-9.01639
-0.585515
-8.96094
-0.520526
-8.90714
-0.452916
-8.88065
-0.383113
-8.85081
-0.310106
-8.83578
-0.235881
-8.76906
-0.147118
-8.66699
-0.0715004
-7.88409
-0.00593602
-5.83213
-2.26348
-0.854074
-9.18399
-0.93071
-9.25541
-0.970876
-9.47502
-0.98029
-9.53587
-0.959979
-9.61534
-0.92055
-9.45379
-0.86975
-9.3936
-0.8112
-9.26236
-0.748323
-9.17447
-0.684026
-9.08068
-0.617629
-9.02733
-0.549698
-8.97508
-0.479352
-8.951
-0.406536
-8.92362
-0.330051
-8.91226
-0.252859
-8.84626
-0.159254
-8.76059
-0.0772944
-7.96605
-0.00768888
-5.90173
-2.27117
-0.906142
-9.01492
-0.982638
-9.17892
-1.02095
-9.43671
-1.03069
-9.52613
-1.00899
-9.63704
-0.96665
-9.49613
-0.912634
-9.44761
-0.851042
-9.32395
-0.785285
-9.24022
-0.717915
-9.14805
-0.648608
-9.09664
-0.57792
-9.04576
-0.505145
-9.02377
-0.429428
-8.99934
-0.34962
-8.99207
-0.269612
-8.92627
-0.1721
-8.8581
-0.0841268
-8.05402
-0.0104732
-5.97539
-2.28164
-0.947505
-8.84658
-1.02951
-9.09692
-1.06492
-9.40129
-1.07429
-9.51676
-1.05283
-9.6585
-1.00985
-9.53911
-0.954286
-9.50317
-0.890362
-9.38788
-0.821633
-9.30895
-0.751167
-9.21852
-0.678962
-9.16884
-0.605283
-9.11944
-0.529715
-9.09934
-0.451478
-9.07758
-0.368804
-9.07474
-0.286032
-9.00904
-0.185002
-8.95913
-0.0921516
-8.14687
-0.0146135
-6.05292
-2.29625
-0.985637
-8.67626
-1.06946
-9.01309
-1.10364
-9.36711
-1.11398
-9.50642
-1.09407
-9.67842
-1.04986
-9.58332
-0.993049
-9.55998
-0.926759
-9.45417
-0.855838
-9.37987
-0.782401
-9.29196
-0.707737
-9.24351
-0.631081
-9.1961
-0.552986
-9.17743
-0.472224
-9.15834
-0.387822
-9.15915
-0.3019
-9.09496
-0.19718
-9.06385
-0.0981791
-8.24588
-0.0176946
-6.13341
-2.31395
6.78315
-7.92716
-7.53225
5.88156
-8.11149
5.0194
-8.50495
4.20342
-8.69044
3.41955
-8.89455
2.77375
-8.93751
2.24029
-9.02653
1.80711
-9.02098
1.46141
-9.03417
1.18396
-9.0145
0.958002
-9.01755
0.779041
-9.01714
0.637731
-9.03612
0.523696
-9.04431
0.433619
-9.06907
0.382833
-9.04417
0.352142
-9.03316
0.282704
-8.17644
0.14113
-5.99184
-2.17282
3.678
-7.6499
-3.95527
3.40636
-7.83985
3.04976
-8.14835
2.68018
-8.32086
2.27761
-8.49198
1.93297
-8.59287
1.61375
-8.70732
1.35376
-8.76099
1.13034
-8.81076
0.950749
-8.83491
0.800845
-8.86765
0.676843
-8.89314
0.566155
-8.92543
0.472404
-8.95055
0.385606
-8.98227
0.337195
-8.99576
0.26168
-8.95765
0.185098
-8.09985
-0.0577543
-5.74898
-2.23057
2.36168
-7.63632
-2.37525
2.35136
-7.82954
2.22145
-8.01843
2.06377
-8.16319
1.87008
-8.29828
1.68336
-8.40615
1.485
-8.50895
1.30408
-8.58007
1.13575
-8.64243
0.989438
-8.68859
0.854748
-8.73296
0.735429
-8.77382
0.620716
-8.81072
0.516437
-8.84627
0.415207
-8.88104
0.333549
-8.91411
0.243305
-8.8674
0.163679
-8.02023
0.0254266
-5.61073
-2.20515
1.36735
-7.73548
-1.26819
1.39849
-7.86068
1.35066
-7.9706
1.2979
-8.11044
1.22032
-8.2207
1.12537
-8.31121
1.00728
-8.39086
0.88665
-8.45944
0.77094
-8.52672
0.667654
-8.58531
0.568242
-8.63355
0.485409
-8.69098
0.409886
-8.7352
0.348198
-8.78459
0.296064
-8.82891
0.246864
-8.86491
0.179146
-8.79968
0.132525
-7.97361
0.0747751
-5.55298
-2.13037
0.690868
-7.83489
-0.591454
0.759675
-7.92949
0.811893
-8.02282
0.825002
-8.12355
0.804813
-8.20051
0.765224
-8.27162
0.712731
-8.33837
0.649105
-8.39581
0.584021
-8.46164
0.518141
-8.51943
0.453301
-8.5687
0.388339
-8.62602
0.322326
-8.66919
0.261994
-8.72426
0.203731
-8.77064
0.15426
-8.81544
0.0985951
-8.74402
0.0847404
-7.95975
0.0593544
-5.52759
-2.07102
0.334141
-7.93928
-0.229757
0.411943
-8.00729
0.447196
-8.05807
0.445231
-8.12158
0.423255
-8.17854
0.397072
-8.24544
0.364143
-8.30544
0.329982
-8.36165
0.285615
-8.41727
0.243994
-8.47781
0.204914
-8.52962
0.159966
-8.58107
0.122949
-8.63217
0.0837225
-8.68503
0.0512104
-8.73813
0.0175424
-8.78177
-0.00939149
-8.71708
0.018033
-7.98718
0.0512723
-5.56083
-2.01974
0.0403783
-8.00543
0.025772
0.0855616
-8.05248
0.118786
-8.0913
0.149831
-8.15263
0.167507
-8.19621
0.170385
-8.24831
0.161792
-8.29685
0.147802
-8.34766
0.121319
-8.39079
0.0852666
-8.44175
0.0482379
-8.4926
0.013215
-8.54605
-0.0258949
-8.59306
-0.0569001
-8.65402
-0.0876693
-8.70736
-0.116827
-8.75261
-0.132556
-8.70135
-0.0782521
-8.04148
0.0241333
-5.66322
-1.99561
-0.115476
-8.06526
0.175312
-0.0694926
-8.09846
-0.0339841
-8.1268
-0.0244626
-8.16215
-0.0231544
-8.19752
-0.0337874
-8.23768
-0.0496458
-8.28099
-0.0701854
-8.32713
-0.0844711
-8.3765
-0.107119
-8.41911
-0.129569
-8.47015
-0.158435
-8.51718
-0.184297
-8.5672
-0.218434
-8.61989
-0.253931
-8.67187
-0.282909
-8.72363
-0.293392
-8.69087
-0.209624
-8.12525
-0.025195
-5.84765
-2.02081
-0.231661
-8.09434
0.260734
-0.212255
-8.11787
-0.198871
-8.14019
-0.190197
-8.17082
-0.185024
-8.20269
-0.180346
-8.24236
-0.183982
-8.27735
-0.197013
-8.31409
-0.217089
-8.35642
-0.239321
-8.39688
-0.268249
-8.44122
-0.304682
-8.48075
-0.338129
-8.53375
-0.378316
-8.5797
-0.41296
-8.63722
-0.448127
-8.68846
-0.466925
-8.67207
-0.37283
-8.21935
-0.0999103
-6.12057
-2.12072
-0.296835
-8.11384
0.316336
-0.28253
-8.13217
-0.269194
-8.15352
-0.261421
-8.1786
-0.258318
-8.2058
-0.264995
-8.23568
-0.274163
-8.26819
-0.291478
-8.29678
-0.317039
-8.33086
-0.349826
-8.36409
-0.385571
-8.40547
-0.418804
-8.44752
-0.459128
-8.49343
-0.500747
-8.53808
-0.549153
-8.58881
-0.599247
-8.63837
-0.623608
-8.64771
-0.541528
-8.30142
-0.201455
-6.46064
-2.32217
-0.31492
-8.12098
0.32206
-0.311792
-8.1353
-0.311729
-8.15359
-0.316912
-8.17341
-0.326417
-8.19629
-0.343362
-8.21874
-0.367437
-8.24411
-0.392929
-8.27129
-0.420835
-8.30296
-0.450533
-8.33439
-0.486543
-8.36946
-0.531779
-8.40228
-0.578974
-8.44623
-0.633539
-8.48352
-0.689183
-8.53317
-0.745773
-8.58178
-0.786877
-8.60661
-0.719543
-8.36876
-0.341173
-6.83901
-2.66334
-0.315257
-8.11924
0.313524
-0.318451
-8.13211
-0.324374
-8.14766
-0.335155
-8.16263
-0.350911
-8.18054
-0.371535
-8.19811
-0.395794
-8.21985
-0.425795
-8.24129
-0.462305
-8.26645
-0.505015
-8.29168
-0.553301
-8.32118
-0.604194
-8.35139
-0.664403
-8.38602
-0.726462
-8.42146
-0.795948
-8.46368
-0.875281
-8.50245
-0.94568
-8.53621
-0.920842
-8.3936
-0.549788
-7.21007
-3.21313
-0.272766
-8.1093
0.262825
-0.286913
-8.11796
-0.304591
-8.12999
-0.325559
-8.14166
-0.349965
-8.15613
-0.37715
-8.17093
-0.409291
-8.18771
-0.445489
-8.20509
-0.486357
-8.22558
-0.532711
-8.24532
-0.585069
-8.26882
-0.643567
-8.29289
-0.713033
-8.31656
-0.792081
-8.34241
-0.886607
-8.36916
-0.986511
-8.40254
-1.09064
-8.43208
-1.10903
-8.37521
-0.805686
-7.51341
-4.01882
-0.220593
-8.09616
0.207451
-0.236206
-8.10235
-0.255006
-8.11119
-0.276603
-8.12007
-0.301611
-8.13112
-0.329936
-8.1426
-0.361504
-8.15614
-0.399933
-8.16666
-0.445849
-8.17966
-0.497032
-8.19414
-0.557011
-8.20884
-0.625564
-8.22434
-0.701062
-8.24106
-0.782595
-8.26088
-0.876934
-8.27482
-0.981133
-8.29834
-1.1128
-8.30041
-1.2014
-8.28661
-0.984365
-7.73044
-5.00318
-0.163079
-8.07885
0.145765
-0.181576
-8.08385
-0.202495
-8.09027
-0.226557
-8.096
-0.253905
-8.10377
-0.286089
-8.11042
-0.322372
-8.11986
-0.359264
-8.12977
-0.398983
-8.13994
-0.445494
-8.14763
-0.496207
-8.15813
-0.555183
-8.16536
-0.621522
-8.17472
-0.699434
-8.18296
-0.786091
-8.18816
-0.888767
-8.19567
-0.997112
-8.19207
-1.10276
-8.18096
-0.945804
-7.88739
-5.94899
-0.0839102
-8.05737
0.0624299
-0.106784
-8.06098
-0.130675
-8.06638
-0.155699
-8.07098
-0.182667
-8.07681
-0.211059
-8.08203
-0.243316
-8.0876
-0.281784
-8.0913
-0.322733
-8.09899
-0.366705
-8.10366
-0.414246
-8.11059
-0.46746
-8.11215
-0.526404
-8.11578
-0.595161
-8.11421
-0.666485
-8.11684
-0.750175
-8.11198
-0.834497
-8.10775
-0.920318
-8.09514
-0.815344
-7.99237
-6.76433
-0.024282
-8.0429
0.00981132
-0.040887
-8.04437
-0.0600016
-8.04726