/*--------------------------------*- C++ -*----------------------------------*\
  =========                 |
  \\      /  F ield         | OpenFOAM: The Open Source CFD Toolbox
   \\    /   O peration     | Website:  https://openfoam.org
    \\  /    A nd           | Version:  9
     \\/     M anipulation  |
\*---------------------------------------------------------------------------*/
FoamFile
{
    format      ascii;
    class       volVectorField;
    location    "4.3";
    object      U;
}
// * * * * * * * * * * * * * * * * * * * * * * * * * * * * * * * * * * * * * //

dimensions      [0 1 -1 0 0 0 0];

internalField   nonuniform List<vector> 
46400
(
(9.37902 -8.99847 -4.07258e-19)
(18.02 -17.5751 3.84565e-19)
(18.8507 -19.1166 -5.56726e-20)
(18.0254 -19.2393 7.11777e-21)
(17.4089 -19.2758 -4.35302e-20)
(16.7429 -19.3772 -3.67808e-19)
(16.1548 -19.4529 1.7772e-19)
(15.5809 -19.5044 -1.5824e-20)
(15.0024 -19.5464 8.48385e-21)
(14.4999 -19.5979 -1.94777e-21)
(13.9751 -19.6448 -3.89004e-21)
(13.5196 -19.7016 0)
(13.0965 -19.8112 2.09247e-20)
(12.6612 -19.8258 -3.41252e-20)
(12.2519 -19.8849 -1.27415e-19)
(11.8559 -19.9071 -5.80076e-20)
(11.4381 -19.936 -3.27817e-20)
(11.088 -19.8888 1.33543e-19)
(10.7048 -19.9 2.41145e-19)
(10.2547 -20.1489 -2.18317e-19)
(9.56864 -8.45404 0)
(18.0282 -16.3623 -3.23802e-20)
(18.6824 -17.6546 0)
(17.8533 -17.7705 -1.86904e-19)
(17.2231 -17.8473 1.28615e-19)
(16.5839 -17.9887 -3.34587e-20)
(15.98 -18.1072 0)
(15.4078 -18.2079 1.58236e-20)
(14.8359 -18.3008 -8.4838e-21)
(14.334 -18.3947 1.94781e-21)
(13.8262 -18.4788 1.58973e-19)
(13.3676 -18.5524 3.73866e-20)
(12.952 -18.6981 -1.73206e-19)
(12.5354 -18.7708 0)
(12.1317 -18.849 2.17483e-20)
(11.7645 -18.9172 2.52157e-20)
(11.406 -18.9888 0)
(11.0893 -19.0042 -3.52041e-19)
(10.7761 -19.0245 -9.63002e-20)
(10.3469 -19.2324 3.52917e-19)
(9.76013 -7.89391 -1.12173e-19)
(17.8924 -15.001 4.00802e-20)
(18.4076 -16.1772 -8.16598e-20)
(17.5913 -16.3611 8.16812e-21)
(16.9321 -16.4426 -8.01937e-21)
(16.2893 -16.6163 0)
(15.6925 -16.7755 -2.41762e-19)
(15.1538 -16.9314 2.00994e-19)
(14.5852 -17.065 -3.38794e-19)
(14.107 -17.2042 3.379e-19)
(13.6164 -17.3415 3.56473e-19)
(13.1364 -17.4058 -2.57501e-20)
(12.7264 -17.5729 -3.16434e-19)
(12.339 -17.692 0)
(11.9508 -17.8167 4.41753e-19)
(11.5916 -17.9206 -4.3505e-19)
(11.216 -18.0304 0)
(10.9016 -18.0745 -1.80937e-20)
(10.5813 -18.21 5.01823e-20)
(10.1799 -18.4743 -5.08945e-19)
(10.0615 -7.34101 -3.05175e-20)
(17.6138 -13.6164 -7.3796e-21)
(17.9922 -14.6687 1.10143e-19)
(17.2054 -14.9345 -1.08853e-19)
(16.5496 -15.0892 -1.18644e-19)
(15.9239 -15.2727 1.71865e-19)
(15.3397 -15.4893 2.57777e-19)
(14.8063 -15.6587 -6.92945e-19)
(14.2543 -15.8553 5.89897e-19)
(13.7773 -16.0219 -5.13572e-20)
(13.3168 -16.2407 0)
(12.8641 -16.346 5.76533e-20)
(12.453 -16.5302 -6.0119e-20)
(12.0783 -16.6789 0)
(11.695 -16.8247 6.0128e-19)
(11.3484 -16.9463 -5.07376e-19)
(11.0149 -17.1006 0)
(10.7005 -17.1572 6.77528e-20)
(10.3852 -17.2688 8.37996e-20)
(9.98917 -17.562 6.47752e-19)
(10.3886 -6.91985 0)
(17.1827 -12.2107 0)
(17.4391 -13.1913 -2.53168e-19)
(16.7064 -13.4994 1.66216e-19)
(16.0702 -13.7586 -3.60037e-19)
(15.4588 -13.9703 2.98279e-19)
(14.8634 -14.2282 0)
(14.3508 -14.4357 3.48518e-19)
(13.7935 -14.6428 -4.16967e-19)
(13.3192 -14.825 -1.01835e-19)
(12.8936 -15.0988 -1.02906e-19)
(12.4544 -15.259 0)
(12.0289 -15.4583 7.56514e-19)
(11.6783 -15.6603 -7.44696e-19)
(11.3252 -15.8678 0)
(10.9879 -16.026 -8.45875e-19)
(10.6646 -16.2318 7.49752e-19)
(10.3752 -16.3568 7.57364e-19)
(10.0681 -16.505 -8.20049e-19)
(9.68243 -16.8044 0)
(10.7494 -6.44447 0)
(16.6706 -10.9535 0)
(16.7507 -11.7598 0)
(16.0681 -12.1397 -3.29227e-20)
(15.4537 -12.468 0)
(14.8731 -12.7349 0)
(14.3136 -13.0378 0)
(13.8425 -13.3016 -1.24722e-19)
(13.3356 -13.5651 0)
(12.8529 -13.739 1.01843e-19)
(12.4313 -14.0228 -2.26913e-20)
(12.0367 -14.2319 -1.04875e-18)
(11.6261 -14.4412 7.84107e-19)
(11.2744 -14.6401 -1.04228e-18)
(10.9309 -14.8763 7.81179e-19)
(10.595 -15.0407 0)
(10.2713 -15.2509 -9.00916e-19)
(9.99867 -15.4183 7.67936e-19)
(9.71335 -15.6004 0)
(9.33182 -15.9228 -1.22962e-19)
(11.0916 -6.04398 4.40689e-19)
(15.9365 -9.7037 1.41648e-19)
(15.8641 -10.4387 5.29226e-19)
(15.2692 -10.8572 -5.50871e-19)
(14.6879 -11.2604 -5.47421e-19)
(14.1655 -11.5709 1.08986e-18)
(13.6157 -11.9004 -1.24728e-18)
(13.1546 -12.1958 1.14317e-19)
(12.6841 -12.5177 3.97023e-19)
(12.2128 -12.7239 0)
(11.7999 -13.0158 -2.16718e-20)
(11.444 -13.2791 -2.0713e-20)
(11.0522 -13.5315 1.24704e-19)
(10.6968 -13.7346 1.05365e-18)
(10.3918 -14.0111 -9.3309e-19)
(10.1022 -14.23 -1.18819e-18)
(9.78365 -14.4497 1.03312e-18)
(9.5154 -14.6239 -1.61283e-20)
(9.2575 -14.833 -1.32946e-19)
(8.91174 -15.1716 -9.38348e-19)
(11.1926 -5.70943 -1.50879e-19)
(15.1773 -8.5249 3.16608e-20)
(14.9216 -9.19915 -1.75908e-19)
(14.446 -9.64507 -6.85943e-19)
(13.9428 -10.1113 4.68858e-19)
(13.4494 -10.4682 0)
(12.9446 -10.826 9.79137e-19)
(12.4977 -11.1333 -4.70006e-19)
(12.0893 -11.5083 3.20817e-19)
(11.6556 -11.7558 1.69698e-19)
(11.2283 -12.0329 -3.17626e-19)
(10.8745 -12.3039 7.68326e-19)
(10.5285 -12.5958 1.63164e-19)
(10.1851 -12.8189 -9.1451e-19)
(9.85172 -13.0752 2.55901e-18)
(9.57103 -13.3252 -1.04355e-18)
(9.28361 -13.5817 1.31965e-18)
(9.01496 -13.779 -8.62234e-19)
(8.76083 -13.9889 2.81699e-19)
(8.42731 -14.3478 1.35144e-18)
(11.0715 -5.22097 8.09406e-19)
(14.2941 -7.47291 -1.73685e-19)
(13.9749 -8.06791 -2.80434e-20)
(13.4869 -8.50961 3.79509e-19)
(12.9912 -9.01742 1.76325e-19)
(12.5592 -9.43914 1.99833e-19)
(12.0986 -9.86759 -9.23744e-19)
(11.645 -10.1696 5.62963e-19)
(11.2584 -10.5747 -1.71585e-19)
(10.8788 -10.8925 -1.69699e-19)
(10.4789 -11.1932 -1.67654e-19)
(10.1416 -11.4744 -1.83761e-19)
(9.82282 -11.7831 -3.43859e-19)
(9.50765 -12.0381 1.19422e-18)
(9.20027 -12.2924 -1.66698e-18)
(8.94144 -12.5476 -1.71347e-19)
(8.68274 -12.8213 1.48136e-20)
(8.43956 -13.041 -1.25143e-18)
(8.20956 -13.2602 9.36043e-19)
(7.9165 -13.6097 -1.47542e-18)
(10.7572 -4.66781 7.75697e-19)
(13.4252 -6.50114 -1.9633e-18)
(13.0009 -7.10177 1.29734e-18)
(12.4944 -7.49846 -2.0311e-19)
(12.0399 -8.0029 -2.25107e-19)
(11.6446 -8.42648 8.69944e-19)
(11.2789 -8.93307 -1.05177e-18)
(10.8821 -9.27291 0)
(10.4901 -9.64595 8.10776e-19)
(10.1738 -10.0066 -7.97232e-19)
(9.81539 -10.3531 -5.7909e-19)
(9.4786 -10.6512 7.53969e-19)
(9.17297 -10.9822 1.80684e-19)
(8.9026 -11.2812 -7.41566e-19)
(8.59824 -11.5583 1.76983e-19)
(8.31275 -11.8026 8.87921e-19)
(8.06685 -12.0848 -1.56861e-18)
(7.84654 -12.3331 1.03594e-18)
(7.62508 -12.5732 -1.27011e-20)
(7.35648 -12.9093 -1.42913e-18)
(10.2332 -4.06089 1.10897e-18)
(12.3225 -5.58741 -7.35648e-19)
(11.8758 -6.27572 4.89034e-19)
(11.452 -6.71703 5.39795e-21)
(11.0254 -7.22132 -9.64728e-19)
(10.5837 -7.61786 -9.11353e-19)
(10.261 -8.13145 1.13447e-18)
(9.95028 -8.57763 -6.65976e-19)
(9.58204 -8.96457 8.85012e-19)
(9.24047 -9.3053 0)
(8.91435 -9.65173 1.63916e-20)
(8.61511 -9.96146 2.00707e-19)
(8.32815 -10.2813 2.11923e-19)
(8.08174 -10.6007 -2.07517e-19)
(7.83656 -10.9087 0)
(7.60367 -11.1837 1.98914e-19)
(7.35329 -11.4546 0)
(7.14081 -11.7028 3.69139e-19)
(6.96486 -11.9735 1.80311e-18)
(6.74332 -12.3254 -1.11612e-20)
(9.49408 -3.42556 6.18981e-19)
(11.0763 -4.69518 -1.29971e-19)
(10.6697 -5.39144 -1.86721e-18)
(10.385 -5.9132 1.04369e-18)
(9.99776 -6.47406 2.46789e-19)
(9.59478 -6.85632 -2.42751e-19)
(9.23437 -7.31082 -9.91433e-19)
(8.96042 -7.77889 7.40015e-19)
(8.71341 -8.25408 0)
(8.45801 -8.67669 0)
(8.17142 -9.05886 -1.13376e-18)
(7.88285 -9.39805 8.98196e-19)
(7.58492 -9.70629 -2.11931e-19)
(7.34588 -10.021 -6.47585e-19)
(7.12164 -10.3413 5.45058e-21)
(6.89183 -10.6262 1.44305e-18)
(6.68553 -10.915 -8.05985e-19)
(6.46845 -11.1566 5.92602e-19)
(6.2597 -11.3902 -9.58488e-19)
(6.07203 -11.7266 0)
(8.61773 -2.79024 -5.43467e-19)
(9.87594 -3.87208 8.62027e-19)
(9.52589 -4.57794 1.47394e-19)
(9.20958 -5.12511 1.44738e-19)
(8.98084 -5.7745 0)
(8.6582 -6.24409 1.07948e-18)
(8.2774 -6.66007 -1.0606e-18)
(7.95592 -7.05877 1.3341e-19)
(7.66307 -7.47648 0)
(7.41939 -7.90886 9.90805e-19)
(7.19791 -8.3277 -8.49832e-19)
(6.9929 -8.73567 9.47162e-19)
(6.75757 -9.09589 -9.32146e-19)
(6.51063 -9.41789 9.04853e-19)
(6.30457 -9.74923 -7.7725e-19)
(6.1298 -10.0756 -8.64172e-19)
(5.94069 -10.3842 1.69588e-18)
(5.78602 -10.6842 -7.26176e-19)
(5.61565 -10.951 1.03579e-19)
(5.41363 -11.2691 8.57849e-19)
(7.67944 -2.21367 -4.37715e-19)
(8.53316 -3.09645 4.65029e-19)
(8.19117 -3.74756 -1.47424e-19)
(7.92857 -4.30099 -1.44741e-19)
(7.71543 -4.9328 0)
(7.52386 -5.60713 0)
(7.29149 -6.14837 0)
(7.00737 -6.6614 -2.7369e-19)
(6.73493 -7.07553 -1.06887e-18)
(6.48664 -7.51088 2.09514e-18)
(6.25311 -7.89465 -1.15165e-18)
(6.04177 -8.29866 -1.27691e-19)
(5.86857 -8.67803 0)
(5.67751 -9.04697 0)
(5.47015 -9.35861 -2.32446e-19)
(5.27923 -9.68643 0)
(5.10742 -9.98711 8.83712e-19)
(4.93925 -10.2853 -1.0872e-18)
(4.80488 -10.5692 -9.4581e-19)
(4.65929 -10.9069 9.06136e-19)
(6.72514 -1.72674 4.56842e-19)
(7.48569 -2.47978 8.14306e-19)
(7.19295 -3.13439 -8.68027e-23)
(6.842 -3.67792 -1.11377e-21)
(6.45251 -4.16724 1.54917e-19)
(6.18068 -4.75634 -4.48197e-19)
(6.02183 -5.30146 0)
(5.8493 -5.89003 -4.31773e-19)
(5.68382 -6.39595 1.46433e-19)
(5.47873 -6.88485 5.49398e-19)
(5.30179 -7.32948 5.32415e-19)
(5.10992 -7.75051 -3.96142e-19)
(4.92191 -8.14301 1.01409e-18)
(4.77216 -8.53792 -8.71887e-19)
(4.62575 -8.90434 1.08442e-18)
(4.47602 -9.25242 -2.01356e-18)
(4.33478 -9.57876 9.28217e-19)
(4.1947 -9.89506 1.10546e-19)
(4.06036 -10.1774 8.7549e-19)
(3.92047 -10.5205 -9.42634e-19)
(5.62323 -1.37251 1.61467e-19)
(6.00316 -2.15739 -1.66339e-19)
(5.64725 -2.84495 6.67259e-19)
(5.48216 -3.5392 -6.54959e-19)
(5.27519 -4.1162 -3.18976e-19)
(5.01718 -4.67483 -7.76146e-19)
(4.83863 -5.1685 3.81121e-21)
(4.58898 -5.67376 5.97735e-19)
(4.48171 -6.1515 -1.42772e-19)
(4.32118 -6.6265 0)
(4.20609 -7.06341 0)
(4.07665 -7.49269 0)
(3.94928 -7.88749 0)
(3.81507 -8.26102 4.0133e-21)
(3.67763 -8.62483 0)
(3.56584 -8.96849 1.20287e-19)
(3.43257 -9.30253 4.74734e-19)
(3.3331 -9.61644 -1.39426e-18)
(3.21963 -9.91471 1.02824e-18)
(3.11655 -10.2419 -9.6295e-19)
(4.08342 -0.941986 0)
(4.74467 -1.77785 -8.89551e-20)
(4.35962 -2.46942 0)
(4.19979 -3.00577 2.51046e-19)
(3.96536 -3.67265 -1.68071e-19)
(3.83469 -4.17897 -6.42347e-19)
(3.73136 -4.77724 4.01275e-21)
(3.59403 -5.24778 6.16249e-19)
(3.48322 -5.76325 -5.96975e-19)
(3.33655 -6.20728 1.16926e-18)
(3.23368 -6.68356 -4.83403e-21)
(3.10056 -7.10015 -5.58676e-19)
(3.00594 -7.54323 5.3999e-19)
(2.89442 -7.92859 -6.61897e-19)
(2.80223 -8.32812 0)
(2.69975 -8.67634 -5.00838e-19)
(2.60866 -9.03809 4.93363e-19)
(2.51561 -9.34928 0)
(2.42694 -9.66234 -1.15229e-19)
(2.33716 -9.98514 0)
(2.65871 -0.441036 9.25729e-20)
(2.99307 -1.41455 8.92403e-20)
(3.01656 -2.19612 0)
(2.83618 -2.86696 3.43955e-19)
(2.72951 -3.53668 -4.24974e-19)
(2.58292 -4.07531 2.46029e-19)
(2.47896 -4.63427 -7.26145e-19)
(2.35283 -5.15571 3.157e-19)
(2.28946 -5.62489 -7.73656e-20)
(2.17795 -6.12112 0)
(2.1063 -6.52247 -7.35543e-20)
(2.02325 -6.98564 -7.1712e-20)
(1.94344 -7.34642 -6.9915e-20)
(1.88625 -7.77461 0)
(1.8058 -8.11094 -5.24459e-19)
(1.76978 -8.50355 1.0927e-18)
(1.69284 -8.82357 -9.39304e-19)
(1.66825 -9.18021 4.91393e-19)
(1.59726 -9.47476 6.01523e-20)
(1.57405 -9.82827 5.05659e-19)
(1.64229 -0.407522 -1.39972e-19)
(1.48 -1.19981 -1.83824e-19)
(1.45838 -1.84662 5.78677e-22)
(1.43524 -2.55007 4.84016e-19)
(1.41006 -3.14854 -1.30505e-19)
(1.45121 -3.77473 -8.42028e-20)
(1.33539 -4.30816 8.24597e-20)
(1.34979 -4.86031 1.60643e-19)
(1.25404 -5.34249 7.73607e-20)
(1.21777 -5.84586 -3.03129e-19)
(1.16058 -6.28194 3.34381e-19)
(1.08965 -6.74395 7.17067e-20)
(1.05164 -7.14134 3.50699e-19)
(0.974517 -7.56183 -2.67069e-21)
(0.942294 -7.93005 3.10672e-20)
(0.864064 -8.31105 -5.87782e-19)
(0.83389 -8.65918 1.61026e-19)
(0.757309 -9.00342 0)
(0.727263 -9.32091 -2.96345e-20)
(0.65281 -9.6665 -2.56932e-19)
(-0.289712 -0.305957 3.36288e-20)
(0.0479866 -1.1163 -8.43331e-20)
(0.16529 -1.75269 1.82557e-19)
(0.0925685 -2.42295 -4.47562e-20)
(0.105278 -2.96933 -4.40897e-20)
(0.0669259 -3.58814 0)
(0.0789854 -4.14514 -8.27091e-20)
(0.0396865 -4.68411 1.61932e-19)
(0.0417558 -5.21618 -7.92827e-20)
(0.00768317 -5.69552 7.66505e-20)
(-0.0088763 -6.19032 -3.80763e-20)
(-0.0332126 -6.62485 -7.2833e-20)
(-0.0461836 -7.07291 1.42674e-19)
(-0.068152 -7.4728 -1.39104e-19)
(-0.0787444 -7.87793 3.44345e-20)
(-0.0969067 -8.24702 2.35733e-34)
(-0.10437 -8.61243 -3.21171e-20)
(-0.118032 -8.95157 1.88464e-19)
(-0.125365 -9.26609 -9.28522e-20)
(-0.138728 -9.60171 -6.57749e-20)
(0.0786079 -8.71811 1.72133e-19)
(1.09807 -24.0932 7.16199e-20)
(2.04923 -36.2427 0)
(2.03773 -39.4663 7.79058e-20)
(1.99525 -39.2932 7.28987e-20)
(1.88547 -38.6958 6.93728e-20)
(1.80757 -38.2 0)
(1.71984 -37.6825 6.21176e-20)
(1.63364 -37.1635 0)
(1.54942 -36.7075 0)
(1.46446 -36.2767 -5.17391e-20)
(1.38454 -35.849 3.75937e-21)
(1.31619 -35.423 9.72057e-20)
(1.25141 -35.0216 0)
(1.17084 -34.5451 4.24513e-20)
(1.10779 -34.0125 4.03379e-20)
(0.992193 -33.4513 3.84004e-20)
(0.963084 -32.9079 0)
(0.820658 -32.4549 -6.96699e-20)
(0.832773 -32.0295 6.86547e-20)
(0.455984 -9.32714 2.53526e-19)
(2.02543 -25.1125 -4.27928e-19)
(3.36277 -36.8097 0)
(3.36331 -39.4283 -3.8149e-19)
(3.29977 -39.1281 3.6574e-19)
(3.16434 -38.5096 -6.23766e-19)
(3.03581 -37.9224 2.66373e-19)
(2.90881 -37.404 1.78952e-19)
(2.79231 -36.9587 -8.07024e-19)
(2.67916 -36.4955 4.47767e-19)
(2.57716 -36.0991 -5.2495e-20)
(2.47349 -35.6833 3.85758e-19)
(2.35868 -35.2447 -1.39444e-20)
(2.25624 -34.7804 -3.59857e-19)
(2.128 -34.3051 -4.24501e-20)
(2.04321 -33.7606 -4.03383e-20)
(1.89363 -33.2135 -3.84021e-20)
(1.84357 -32.6828 0)
(1.67245 -32.2689 -2.7089e-19)
(1.67912 -31.8483 8.54122e-21)
(0.864991 -9.93921 -1.65452e-19)
(3.12064 -25.9271 0)
(4.69724 -37.1192 0)
(4.70637 -39.248 -1.50548e-19)
(4.55565 -38.8099 1.44648e-19)
(4.36655 -38.1844 0)
(4.20056 -37.6241 -1.25691e-19)
(4.05666 -37.1402 3.52239e-19)
(3.90514 -36.6357 -3.47967e-19)
(3.75379 -36.2 4.19468e-19)
(3.61715 -35.7735 -5.12091e-19)
(3.46376 -35.3345 0)
(3.32986 -34.8886 -3.55373e-19)
(3.19974 -34.4834 -3.23988e-19)
(3.07475 -34.0185 5.83238e-19)
(2.95103 -33.5044 -6.07287e-19)
(2.79427 -32.9429 5.25993e-19)
(2.71256 -32.4237 0)
(2.52016 -32.0012 -5.89999e-19)
(2.5092 -31.5836 1.02354e-18)
(1.29643 -10.4469 8.19354e-19)
(4.21536 -26.5437 0)
(6.06402 -37.1203 3.13118e-19)
(6.06239 -38.8025 4.39789e-19)
(5.86833 -38.3355 -8.47153e-19)
(5.65135 -37.7451 2.59676e-19)
(5.43623 -37.222 1.25686e-19)
(5.22568 -36.7006 1.26235e-18)
(5.03236 -36.252 -1.76083e-18)
(4.85145 -35.7953 -1.69978e-19)
(4.67751 -35.3924 8.99774e-19)
(4.52119 -34.997 1.81981e-19)
(4.35871 -34.5942 -8.59924e-19)
(4.21203 -34.1716 8.39851e-19)
(4.03421 -33.7106 2.34361e-19)
(3.88552 -33.1731 -1.46387e-19)
(3.68306 -32.6316 2.11275e-19)
(3.58376 -32.1103 0)
(3.35262 -31.7061 -6.0531e-20)
(3.35327 -31.289 0)
(1.77466 -10.9191 0)
(5.36303 -27.1207 1.25796e-18)
(7.38874 -37.1435 -1.57412e-18)
(7.34766 -38.4269 1.42831e-18)
(7.0856 -37.873 -1.10383e-18)
(6.82424 -37.2733 -2.59655e-19)
(6.56052 -36.6877 0)
(6.33641 -36.2177 6.5507e-19)
(6.12379 -35.7758 -8.6974e-19)
(5.90291 -35.3577 9.8999e-19)
(5.71684 -34.9662 -7.73015e-19)
(5.50689 -34.5653 -1.81975e-19)
(5.30885 -34.1362 8.34911e-19)
(5.11357 -33.7269 -1.44265e-18)
(4.92369 -33.2733 9.09502e-19)
(4.7397 -32.7778 -2.98499e-19)
(4.53025 -32.2452 -6.74719e-19)
(4.39362 -31.7439 1.54695e-18)
(4.152 -31.366 -8.78557e-19)
(4.13503 -30.9532 -1.05205e-18)
(2.27126 -11.2585 1.23761e-18)
(6.52559 -27.3795 1.21996e-18)
(8.68102 -36.6982 -1.22301e-18)
(8.62413 -37.7082 -2.75437e-19)
(8.29988 -37.1856 2.67365e-19)
(8.00874 -36.6387 9.64384e-19)
(7.71407 -36.1513 -9.47454e-19)
(7.44001 -35.6682 0)
(7.17559 -35.2208 8.01238e-19)
(6.92802 -34.8079 -7.87871e-19)
(6.68789 -34.4124 -7.11969e-19)
(6.46157 -34.0236 7.00439e-19)
(6.2416 -33.6442 0)
(6.04414 -33.2683 0)
(5.82822 -32.8499 1.28542e-18)
(5.62363 -32.3572 -1.2602e-18)
(5.37941 -31.8339 -1.02311e-18)
(5.219 -31.3373 1.00813e-18)
(4.94095 -30.9601 -9.25366e-19)
(4.90757 -30.5481 1.15188e-18)
(2.80111 -11.5704 -8.93298e-19)
(7.69318 -27.6106 3.26635e-19)
(9.98156 -36.3528 5.35186e-20)
(9.88234 -37.073 1.38539e-18)
(9.50253 -36.5134 0)
(9.17117 -35.9687 0)
(8.8169 -35.4326 1.73492e-18)
(8.49684 -34.969 -7.5465e-20)
(8.21726 -34.5858 -1.60209e-18)
(7.92793 -34.1908 1.4426e-18)
(7.67913 -33.8325 -1.4189e-18)
(7.42757 -33.4861 0)
(7.18002 -33.108 1.21062e-18)
(6.93914 -32.7401 -1.19153e-18)
(6.69289 -32.3231 0)
(6.45252 -31.8593 0)
(6.19251 -31.3553 0)
(5.99731 -30.8634 0)
(5.70361 -30.4974 0)
(5.67113 -30.0963 -1.11028e-19)
(3.34639 -11.7851 8.45504e-19)
(8.85854 -27.6179 -1.45443e-18)
(11.1713 -35.6799 0)
(11.0192 -36.1983 0)
(10.5804 -35.6847 2.12041e-18)
(10.2089 -35.1767 1.32187e-19)
(9.83611 -34.7013 -1.93834e-18)
(9.49678 -34.2715 0)
(9.17709 -33.8629 1.80941e-19)
(8.86511 -33.5124 -1.69998e-19)
(8.5784 -33.1624 0)
(8.28611 -32.8083 1.50529e-19)
(8.00538 -32.4564 -1.28804e-18)
(7.74894 -32.1192 2.34413e-18)
(7.48532 -31.7556 -4.25975e-20)
(7.22921 -31.3247 -1.00699e-18)
(6.94164 -30.8468 -1.13092e-19)
(6.7173 -30.3729 1.07151e-19)
(6.40182 -30.0203 0)
(6.34776 -29.594 9.84624e-20)
(3.90672 -11.9376 5.43315e-19)
(9.98012 -27.491 4.66347e-19)
(12.3325 -34.9157 -1.64018e-18)
(12.1632 -35.272 4.77295e-19)
(11.6775 -34.7751 2.09332e-19)
(11.2799 -34.3134 1.8645e-18)
(10.8596 -33.8658 -2.60875e-18)
(10.4574 -33.4324 1.89845e-18)
(10.1078 -33.0804 -1.55498e-18)
(9.75955 -32.7342 1.84054e-18)
(9.4384 -32.4098 3.00102e-19)
(9.13917 -32.1057 1.27433e-18)
(8.84227 -31.7875 -7.16899e-19)
(8.56585 -31.4806 -1.39984e-18)
(8.27776 -31.131 1.23596e-18)
(7.99107 -30.7269 0)
(7.68514 -30.265 3.23923e-19)
(7.42642 -29.8101 9.23911e-20)
(7.08973 -29.4755 -1.89587e-19)
(7.02559 -29.0744 8.46115e-20)
(4.47605 -12.0275 -1.01914e-18)
(11.0803 -27.2394 1.05962e-18)
(13.4348 -34.0912 -3.02406e-20)
(13.1994 -34.2815 -9.25608e-19)
(12.651 -33.8224 -8.61284e-19)
(12.2063 -33.3647 -4.1496e-19)
(11.7587 -32.9334 -2.50454e-20)
(11.3397 -32.5505 -3.63114e-19)
(10.9702 -32.2062 0)
(10.597 -31.9058 -3.19428e-19)
(10.2699 -31.6212 -3.00116e-19)
(9.9343 -31.3346 -2.00219e-20)
(9.60385 -31.0297 9.84299e-19)
(9.29639 -30.7459 -5.05366e-19)
(8.9868 -30.4424 -1.1276e-18)
(8.68583 -30.0845 8.77779e-19)
(8.36074 -29.6571 5.8466e-19)
(8.06989 -29.2034 -9.83351e-19)
(7.7129 -28.8719 1.89399e-19)
(7.6256 -28.4619 1.2036e-18)
(5.03699 -12.039 -2.43436e-18)
(12.1126 -26.8229 2.47813e-18)
(14.3979 -32.9994 -2.73437e-18)
(14.1505 -33.1307 2.23137e-18)
(13.5637 -32.7177 1.98607e-18)
(13.0905 -32.347 -1.54107e-18)
(12.6263 -31.9758 -2.0636e-18)
(12.1615 -31.6154 6.56773e-20)
(11.7501 -31.2894 1.2539e-18)
(11.3532 -31.0183 -8.43927e-19)
(10.9751 -30.744 2.14872e-18)
(10.6201 -30.4837 -1.29404e-18)
(10.2729 -30.2178 -2.46521e-19)
(9.95689 -29.9686 6.38697e-19)
(9.63437 -29.7092 -1.67719e-18)
(9.31582 -29.3983 8.07424e-19)
(8.97452 -29.0114 0)
(8.65504 -28.5827 -1.38114e-18)
(8.28431 -28.2611 1.35924e-18)
(8.19413 -27.8696 -1.11666e-18)
(5.59111 -12.0007 4.56873e-19)
(13.1026 -26.3054 5.06929e-19)
(15.347 -31.9828 2.2214e-18)
(15.0443 -31.9977 1.94872e-18)
(14.423 -31.6141 -1.1777e-18)
(13.898 -31.2384 1.68137e-18)
(13.3993 -30.9003 -9.90007e-19)
(12.9007 -30.5703 1.1728e-18)
(12.4729 -30.2889 -2.24845e-18)
(12.0444 -30.0324 8.02888e-19)
(11.6616 -29.8147 0)
(11.2977 -29.6084 0)
(10.9255 -29.3726 0)
(10.584 -29.1432 -1.58382e-18)
(10.236 -28.9046 1.55929e-18)
(9.90182 -28.6395 0)
(9.54808 -28.3022 0)
(9.19907 -27.9058 -1.50273e-19)
(8.80661 -27.5927 0)
(8.68837 -27.2006 -1.29712e-18)
(6.11708 -11.8949 -8.60453e-19)
(14.0339 -25.6541 -2.13943e-18)
(16.1259 -30.6985 -1.53846e-18)
(15.7765 -30.7057 -2.98311e-19)
(15.1414 -30.3831 2.05164e-18)
(14.5851 -30.0908 -4.03115e-19)
(14.0741 -29.7885 -6.54261e-20)
(13.5623 -29.5243 -1.38398e-18)
(13.1018 -29.2511 0)
(12.6606 -29.0439 -7.01847e-19)
(12.249 -28.8338 1.1207e-18)
(11.8485 -28.6419 0)
(11.4595 -28.4462 1.51525e-18)
(11.1025 -28.2637 -1.49153e-18)
(10.7487 -28.0717 1.33218e-18)
(10.4065 -27.8532 -2.41278e-18)
(10.0466 -27.5676 1.23208e-18)
(9.67367 -27.1984 1.50283e-19)
(9.26762 -26.8985 -1.24377e-19)
(9.14551 -26.5244 1.01338e-18)
(6.62229 -11.7389 -1.11928e-18)
(14.8869 -24.8852 6.81704e-20)
(16.8803 -29.4719 9.08039e-20)
(16.4664 -29.4086 2.67484e-18)
(15.8222 -29.1191 2.49245e-19)
(15.2241 -28.8549 -1.44502e-18)
(14.6931 -28.6145 -1.02685e-18)
(14.1386 -28.3733 3.15426e-19)
(13.653 -28.1533 1.15035e-18)
(13.184 -27.9658 -1.24661e-18)
(12.7415 -27.7958 6.00881e-19)
(12.3447 -27.6476 -1.60217e-18)
(11.9368 -27.4869 1.24848e-18)
(11.5674 -27.3374 -1.24788e-18)
(11.1928 -27.1865 1.08979e-18)
(10.835 -27.0114 9.42924e-19)
(10.4688 -26.7878 -1.07645e-18)
(10.0795 -26.4695 8.49707e-19)
(9.66078 -26.183 -8.20392e-19)
(9.51702 -25.8152 -9.78264e-19)
(7.1037 -11.5185 -1.37599e-18)
(15.651 -24.0084 -2.53789e-19)
(17.4915 -28.1083 1.33599e-18)
(17.0022 -28.0467 -1.15627e-18)
(16.3503 -27.8068 1.13528e-18)
(15.7224 -27.5858 2.69054e-19)
(15.1677 -27.3669 0)
(14.6123 -27.1926 -2.00533e-19)
(14.1101 -27.0072 5.61495e-19)
(13.6266 -26.8549 -2.00035e-18)
(13.1845 -26.732 1.41287e-18)
(12.7625 -26.6122 3.17793e-19)
(12.3355 -26.4766 1.59571e-19)
(11.9473 -26.3552 0)
(11.5607 -26.2395 2.19318e-20)
(11.2005 -26.1147 9.29691e-19)
(10.8368 -25.9614 -4.77262e-20)
(10.4389 -25.7002 1.65329e-19)
(10.007 -25.4347 -7.95548e-19)
(9.85086 -25.08 1.84572e-19)
(7.56338 -11.2175 1.22429e-18)
(16.2996 -23.0642 -2.01682e-18)
(18.0064 -26.6857 1.18166e-18)
(17.4555 -26.6179 1.01227e-18)
(16.8146 -26.4358 -6.68454e-20)
(16.1626 -26.2793 -7.07474e-19)
(15.5995 -26.1041 1.85749e-19)
(15.021 -25.9654 2.00528e-19)
(14.4946 -25.8161 0)
(14.0011 -25.7087 0)
(13.5184 -25.5974 -1.12402e-18)
(13.0849 -25.5219 1.87614e-18)
(12.6503 -25.4286 -1.02111e-18)
(12.2476 -25.3436 0)
(11.8554 -25.2671 2.25864e-20)
(11.476 -25.1756 -8.47505e-19)
(11.1105 -25.0865 8.29283e-19)
(10.7069 -24.9021 -9.42135e-20)
(10.2708 -24.6654 -6.69304e-19)
(10.0999 -24.3211 4.64138e-19)
(7.99959 -10.8752 -1.06871e-18)
(16.8562 -22.0412 1.24302e-18)
(18.439 -25.2567 0)
(17.8106 -25.1879 0)
(17.1595 -25.0385 1.86539e-19)
(16.4841 -24.9222 -9.20566e-19)
(15.8981 -24.7938 1.83943e-20)
(15.3053 -24.6977 6.43076e-19)
(14.7639 -24.6054 -1.09069e-18)
(14.2487 -24.515 2.0692e-18)
(13.7618 -24.4555 -9.80351e-19)
(13.3303 -24.4117 2.15757e-19)
(12.8761 -24.3539 8.49125e-19)
(12.4637 -24.2936 2.59767e-20)
(12.0516 -24.2501 -5.22331e-19)
(11.6642 -24.178 8.69611e-20)
(11.2996 -24.147 -6.18721e-19)
(10.9148 -24.0498 5.3059e-19)
(10.491 -23.8784 1.96224e-20)
(10.3072 -23.5483 4.54294e-19)
(8.40125 -10.4706 0)
(17.3118 -20.9809 5.58758e-19)
(18.7139 -23.7263 -6.78851e-19)
(18.0136 -23.7118 0)
(17.3828 -23.6119 -1.86539e-19)
(16.6955 -23.5573 5.83151e-19)
(16.0987 -23.449 -7.26356e-19)
(15.5064 -23.3892 0)
(14.9562 -23.3325 8.55604e-19)
(14.4503 -23.3023 -8.41341e-19)
(13.9494 -23.2701 7.69774e-20)
(13.4923 -23.2563 -9.48623e-20)
(13.0377 -23.2327 -8.61983e-20)
(12.609 -23.2055 -7.83475e-20)
(12.2026 -23.209 -5.2679e-19)
(11.8062 -23.173 8.57724e-19)
(11.429 -23.1752 -7.70631e-19)
(11.0462 -23.1576 6.93363e-19)
(10.6282 -23.0594 -2.73923e-19)
(10.4325 -22.7554 4.41128e-20)
(8.78235 -10.0117 0)
(17.6581 -19.8726 -6.14644e-19)
(18.8987 -22.2034 3.70712e-19)
(18.1476 -22.2047 4.38409e-19)
(17.5232 -22.1705 -5.3337e-20)
(16.837 -22.1734 -4.80033e-20)
(16.2389 -22.1346 -4.40046e-19)
(15.6352 -22.1025 0)
(15.063 -22.0745 0)
(14.5411 -22.0635 0)
(14.018 -22.0527 -7.69764e-20)
(13.575 -22.0865 0)
(13.1171 -22.0981 -3.9747e-19)
(12.6754 -22.0882 3.56463e-19)
(12.2571 -22.1218 -2.67563e-19)
(11.8385 -22.1033 4.90552e-19)
(11.4404 -22.1251 -2.23653e-19)
(11.0608 -22.1699 -1.70046e-19)
(10.6714 -22.1838 2.79119e-19)
(10.473 -21.8967 -1.25964e-19)
(9.12166 -9.51476 0)
(17.8965 -18.7313 0)
(18.9639 -20.6685 1.46935e-19)
(18.1444 -20.718 1.30215e-19)
(17.5152 -20.6971 0)
(16.8362 -20.7699 3.13404e-19)
(16.2218 -20.7669 -3.07912e-19)
(15.6234 -20.7797 0)
(15.0534 -20.792 3.84156e-19)
(14.5413 -20.8229 -3.77751e-19)
(14.0284 -20.8501 0)
(13.568 -20.8936 -2.06833e-19)
(13.1098 -20.9487 8.05402e-20)
(12.6563 -20.94 1.55848e-19)
(12.2291 -20.9925 0)
(11.8187 -20.9982 0)
(11.3914 -21.0308 0)
(11.0002 -21.0557 4.01764e-20)
(10.6006 -21.084 -2.96305e-20)
(10.3443 -20.9323 0)
(0.194478 -30.7277 0)
(0.2058 -28.6405 0)
(-0.426379 -27.8591 -3.87964e-21)
(-0.364894 -26.5239 -3.15118e-21)
(-0.549485 -26.0374 0)
(-0.45461 -25.0887 2.09924e-22)
(-0.453179 -24.6434 1.74726e-21)
(-0.355181 -24.0311 0)
(-0.278175 -23.6976 8.2115e-22)
(-0.191395 -23.3997 0)
(-0.0781572 -23.1765 -3.3663e-22)
(0.0226818 -22.9942 -3.24471e-23)
(0.137345 -22.8478 3.26202e-23)
(0.276379 -22.7409 -1.56942e-22)
(0.328979 -22.5814 0)
(0.468197 -22.3733 9.94453e-23)
(0.44003 -21.9552 -5.33718e-22)
(0.478368 -20.2332 0)
(0.431212 -15.1242 0)
(0.0552769 -6.6176 -5.3116e-22)
(0.865262 -30.5575 2.86199e-20)
(0.74565 -28.5899 0)
(0.0174705 -27.8821 1.77289e-20)
(0.00458831 -26.6224 -1.07655e-20)
(-0.239934 -26.1241 0)
(-0.217122 -25.1774 -9.14085e-21)
(-0.2488 -24.7133 3.40912e-21)
(-0.206113 -24.0978 0)
(-0.147589 -23.7505 5.31258e-22)
(-0.101424 -23.4503 -1.35974e-21)
(0.000610031 -23.2195 8.01344e-22)
(0.0694835 -23.0304 -5.86949e-22)
(0.167733 -22.8868 3.51569e-23)
(0.285066 -22.7674 3.55347e-23)
(0.330043 -22.6074 2.08279e-22)
(0.460101 -22.3899 -3.91119e-22)
(0.445398 -21.9606 8.26728e-22)
(0.492276 -20.2353 1.18146e-21)
(0.437062 -15.0513 5.85989e-22)
(0.0650062 -6.54348 6.61438e-22)
(1.58043 -30.356 -1.26365e-20)
(1.27124 -28.4011 -2.41441e-20)
(0.395806 -27.6965 -1.46221e-20)
(0.299888 -26.4614 0)
(0.0134746 -26.0053 0)
(-0.0256662 -25.1028 1.04204e-20)
(-0.0838543 -24.6656 -1.60946e-21)
(-0.0910477 -24.0741 -1.31896e-21)
(-0.0406665 -23.7371 -1.13398e-21)
(-0.0252025 -23.4518 -2.64452e-21)
(0.0571731 -23.2302 0)
(0.11217 -23.0494 0)
(0.186888 -22.9105 0)
(0.293414 -22.7912 6.40422e-22)
(0.330604 -22.6314 0)
(0.45385 -22.4085 1.39927e-21)
(0.453368 -21.9715 -1.67385e-21)
(0.506075 -20.2431 -6.91235e-22)
(0.450732 -15.0229 -9.48979e-22)
(0.0806935 -6.48362 -2.01774e-21)
(2.23268 -30.1107 4.1497e-20)
(1.77076 -28.2706 -7.9014e-20)
(0.813221 -27.6632 2.64505e-21)
(0.637863 -26.5293 2.63063e-20)
(0.314299 -26.0697 0)
(0.193835 -25.1697 1.28706e-20)
(0.108341 -24.7164 -2.82321e-20)
(0.0470388 -24.1254 1.3476e-20)
(0.0806623 -23.7781 -6.66127e-21)
(0.0602715 -23.4864 1.62995e-21)
(0.129264 -23.2609 -4.3887e-22)
(0.154914 -23.0724 -1.8696e-22)
(0.217148 -22.9379 1.87865e-22)
(0.303195 -22.8129 -2.25379e-22)
(0.33607 -22.6539 -4.16998e-22)
(0.452694 -22.4291 -1.39842e-21)
(0.46375 -21.9874 2.10642e-21)
(0.523075 -20.2544 -9.11713e-22)
(0.435964 -14.9663 4.53182e-22)
(0.0997808 -6.41137 2.01441e-21)
(2.90417 -29.823 1.03359e-19)
(2.2736 -28.04 1.84206e-20)
(1.19842 -27.4597 -2.5924e-20)
(0.923584 -26.3569 3.68181e-20)
(0.566199 -25.9346 0)
(0.377672 -25.0824 -6.9814e-21)
(0.267524 -24.6588 5.5176e-21)
(0.15938 -24.094 0)
(0.182365 -23.7589 1.08726e-22)
(0.132726 -23.4819 0)
(0.18027 -23.266 -2.3369e-21)
(0.194877 -23.0849 0)
(0.244564 -22.9553 0)
(0.314995 -22.8318 1.51512e-21)
(0.346026 -22.6758 -8.42299e-22)
(0.458184 -22.4513 1.39062e-21)
(0.475724 -22.0064 0)
(0.543298 -20.2678 -4.41301e-22)
(0.414614 -14.9464 3.9772e-22)
(0.125418 -6.35113 0)
(3.52892 -29.502 4.11926e-20)
(2.743 -27.8429 -3.42005e-20)
(1.59103 -27.3685 6.18228e-20)
(1.22756 -26.3885 -6.07172e-20)
(0.848019 -25.9752 1.69636e-20)
(0.578076 -25.1252 7.0033e-21)
(0.445934 -24.6909 -1.03318e-20)
(0.28709 -24.1297 -7.75688e-21)
(0.29214 -23.7873 2.91083e-21)
(0.213457 -23.5004 2.96853e-21)
(0.246962 -23.2852 -1.84248e-21)
(0.237787 -23.0996 0)
(0.278818 -22.9737 0)
(0.329313 -22.849 -1.2243e-22)
(0.359117 -22.697 8.56651e-22)
(0.47187 -22.4745 -1.38926e-21)
(0.487987 -22.0295 0)
(0.560748 -20.2776 3.07775e-21)
(0.365227 -14.9071 3.28993e-21)
(0.153275 -6.28669 2.3918e-22)
(4.15942 -29.1426 -1.15426e-19)
(3.20693 -27.5674 1.08526e-19)
(1.96588 -27.1413 -2.65503e-20)
(1.5039 -26.204 0)
(1.09219 -25.8271 -1.70355e-20)
(0.75493 -25.027 2.34566e-20)
(0.599102 -24.6253 -1.31756e-20)
(0.399236 -24.0908 7.77888e-21)
(0.38497 -23.7638 0)
(0.285773 -23.4915 0)
(0.300066 -23.2853 1.34451e-21)
(0.278984 -23.1073 -1.34934e-21)
(0.306453 -22.985 0)
(0.343604 -22.8638 -2.27998e-21)
(0.370866 -22.7193 8.76017e-22)
(0.490441 -22.4986 1.49352e-21)
(0.499075 -22.0544 -1.49855e-21)
(0.576437 -20.2823 -3.81455e-21)
(0.298469 -14.8961 -9.97941e-22)
(0.185593 -6.2355 -4.71629e-22)
(4.74373 -28.735 0)
(3.64113 -27.3068 -5.71763e-20)
(2.33134 -26.9956 5.74121e-20)
(1.77904 -26.1987 0)
(1.35557 -25.8429 0)
(0.943424 -25.0456 -2.26172e-20)
(0.766254 -24.6401 2.26875e-20)
(0.523583 -24.1101 0)
(0.491222 -23.7797 4.28661e-21)
(0.366003 -23.4975 -6.92214e-21)
(0.364415 -23.2939 2.63051e-21)
(0.321683 -23.1141 8.57633e-24)
(0.33687 -22.9954 -8.60218e-24)
(0.359491 -22.877 0)
(0.381036 -22.7421 0)
(0.50636 -22.5235 1.49358e-21)
(0.507896 -22.0801 -2.32537e-21)
(0.595624 -20.2843 -6.41519e-23)
(0.268338 -14.8797 1.14027e-21)
(0.218547 -6.1863 -4.57733e-22)
(5.31917 -28.319 6.71512e-20)
(4.07297 -26.9827 -6.71922e-20)
(2.70322 -26.7399 -6.72757e-20)
(2.05161 -25.9998 7.96458e-20)
(1.58922 -25.685 -6.35517e-20)
(1.11537 -24.9388 6.20431e-21)
(0.91342 -24.5681 2.18208e-20)
(0.637236 -24.0655 0)
(0.582791 -23.7525 0)
(0.438165 -23.4841 3.00941e-21)
(0.416375 -23.2883 0)
(0.362339 -23.1157 0)
(0.365386 -23.0006 0)
(0.378011 -22.8875 0)
(0.388394 -22.7643 0)
(0.517343 -22.5488 0)
(0.51087 -22.1091 1.64597e-21)
(0.616291 -20.2868 -1.42489e-21)
(0.243425 -14.8784 4.06521e-22)
(0.257596 -6.1421 -4.52174e-22)
(5.83115 -27.8471 -6.11642e-20)
(4.46542 -26.6718 -9.19041e-20)
(3.044 -26.5427 -1.85319e-20)
(2.30947 -25.9532 -1.0738e-20)
(1.83882 -25.6743 2.19995e-20)
(1.29433 -24.9339 3.83895e-20)
(1.06782 -24.5671 8.79941e-21)
(0.756235 -24.07 0)
(0.68484 -23.7556 -3.04066e-21)
(0.513802 -23.4784 7.36921e-21)
(0.475247 -23.2872 1.44846e-21)