/*--------------------------------*- C++ -*----------------------------------*\
  =========                 |
  \\      /  F ield         | OpenFOAM: The Open Source CFD Toolbox
   \\    /   O peration     | Website:  https://openfoam.org
    \\  /    A nd           | Version:  9
     \\/     M anipulation  |
\*---------------------------------------------------------------------------*/
FoamFile
{
    format      ascii;
    class       volScalarField;
    location    "9.8";
    object      p;
}
// * * * * * * * * * * * * * * * * * * * * * * * * * * * * * * * * * * * * * //

dimensions      [0 2 -2 0 0 0 0];

internalField   nonuniform List<scalar> 
46400
(
27.0123
34.531
48.8168
60.6752
71.3633
81.1776
89.9442
97.9818
105.257
111.901
117.971
123.545
128.669
133.424
137.904
142.176
146.208
150.456
155.129
157.159
54.8996
62.9163
75.6594
86.4759
96.1128
104.976
112.851
120.09
126.588
132.546
137.942
142.91
147.45
151.602
155.404
158.892
162.01
165.001
167.754
168.246
83.8709
91.0896
102.333
112.171
120.706
128.631
135.604
141.967
147.648
152.78
157.391
161.554
165.313
168.697
171.763
174.537
176.981
179.334
181.466
181.311
112.335
118.458
128.334
137.176
144.79
151.799
157.942
163.506
168.437
172.862
176.793
180.308
183.446
186.214
188.659
190.793
192.595
194.267
195.761
195.065
139.805
144.678
153.686
161.703
168.428
174.584
179.878
184.611
188.741
192.391
195.595
198.4
200.873
203.024
204.902
206.53
207.879
209.142
210.265
209.379
165.005
169.604
178.077
185.253
191.236
196.581
201.141
205.131
208.579
211.543
214.105
216.281
218.153
219.726
221.047
222.141
222.994
223.776
224.561
223.501
190.048
195.222
202.579
208.836
213.759
218.168
221.794
224.908
227.525
229.72
231.562
233.07
234.311
235.298
236.077
236.66
237.038
237.373
237.698
236.451
214.517
220.297
226.083
231.327
235.372
238.85
241.728
244.065
246.001
247.51
248.713
249.603
250.252
250.677
250.915
250.985
250.88
250.751
250.604
249.083
238.996
244.79
248.956
252.805
255.778
258.207
260.153
261.64
262.778
263.577
264.113
264.395
264.476
264.362
264.099
263.678
263.117
262.528
261.926
260.174
262.241
266.736
270.094
272.762
274.962
276.538
277.78
278.565
279.07
279.224
279.16
278.847
278.377
277.729
276.968
276.07
275.063
274.039
273.006
270.975
282.907
286.223
288.649
290.42
291.753
292.614
293.116
293.27
293.165
292.8
292.241
291.477
290.552
289.485
288.302
287.019
285.628
284.248
282.857
280.627
301.237
303.833
305.629
306.677
307.429
307.605
307.567
307.102
306.448
305.513
304.431
303.165
301.784
300.272
298.679
296.989
295.216
293.432
291.642
289.177
316.658
318.577
319.828
320.312
320.532
320.262
319.726
318.88
317.819
316.531
315.074
313.456
311.722
309.873
307.956
305.964
303.907
301.849
299.813
297.131
330.658
331.989
332.735
332.667
332.385
331.573
330.577
329.227
327.728
326.004
324.165
322.182
320.11
317.942
315.712
313.432
311.095
308.778
306.497
303.701
341.913
342.579
342.95
342.43
341.786
340.63
339.362
337.759
336.012
334.038
331.947
329.715
327.408
325.006
322.556
320.046
317.499
314.959
312.494
309.51
352.306
352.237
352.075
351.12
349.95
348.383
346.608
344.625
342.477
340.202
337.795
335.312
332.753
330.15
327.5
324.826
322.107
319.415
316.805
313.769
358.104
358.002
357.603
356.61
355.432
353.845
352.026
349.901
347.626
345.156
342.595
339.9
337.162
334.357
331.539
328.689
325.822
322.966
320.21
317.077
363.074
362.966
362.321
361.057
359.483
357.597
355.465
353.133
350.635
348.006
345.284
342.47
339.598
336.673
333.732
330.768
327.791
324.826
321.966
318.749
365.681
365.304
364.252
363.045
361.35
359.347
357.142
354.679
352.108
349.353
346.564
343.65
340.73
337.727
334.734
331.702
328.674
325.654
322.771
319.486
366.187
365.456
364.57
362.989
361.294
359.164
356.949
354.45
351.847
349.061
346.202
343.246
340.25
337.21
334.157
331.102
328.041
325.023
322.158
318.911
-113.622
-113.375
-113.164
-113.493
-110.218
-105.663
-100.667
-95.4181
-90.2024
-84.9199
-79.8703
-74.8561
-70.0343
-65.2115
-60.6968
-56.1174
-51.84
-47.5674
-43.4641
-39.5771
-118.622
-118.431
-118.122
-116.258
-112.288
-107.094
-101.443
-95.8425
-90.1761
-84.652
-79.1887
-73.8428
-68.697
-63.5852
-58.7481
-53.8907
-49.3604
-44.8173
-40.504
-36.4097
-126.896
-126.234
-126.285
-121.852
-116.127
-109.993
-103.442
-97.1168
-90.7965
-84.6466
-78.6884
-72.8778
-67.2744
-61.7622
-56.5879
-51.4039
-46.6161
-41.7865
-37.3014
-32.9827
-136.702
-136.019
-134.712
-128.678
-121.188
-113.514
-106.042
-98.7078
-91.6482
-84.8546
-78.2666
-71.9249
-65.8557
-59.9634
-54.4007
-48.8895
-43.8077
-38.6899
-34.0007
-29.4519
-150.185
-149.531
-145.117
-136.81
-127.187
-117.773
-109.065
-100.567
-92.515
-84.8808
-77.6014
-70.6694
-64.06
-57.7033
-51.7392
-45.8894
-40.5217
-35.1262
-30.2728
-25.492
-163.83
-163.047
-154.975
-143.91
-132.223
-121.218
-111.001
-101.545
-92.5737
-84.1873
-76.2511
-68.7433
-61.6458
-54.8993
-48.5596
-42.402
-36.7625
-31.109
-26.0789
-21.0765
-173.103
-172.832
-161.713
-148.418
-135.18
-122.998
-111.645
-101.197
-91.4676
-82.3745
-73.8434
-65.8567
-58.3258
-51.2082
-44.5375
-38.1173
-32.2348
-26.3663
-21.2018
-15.995
-180.097
-177.397
-164.526
-149.691
-135.435
-122.327
-110.201
-99.0612
-88.6892
-79.0932
-70.1107
-61.7042
-53.8396
-46.4538
-39.5397
-32.9556
-26.941
-20.9424
-15.7569
-10.4638
-181.55
-177.379
-164.229
-148.208
-133.126
-119.274
-106.62
-94.9436
-84.1347
-74.125
-64.7919
-56.129
-48.0301
-40.4553
-33.3818
-26.6823
-20.5537
-14.5122
-9.39314
-4.02056
-178.993
-175.151
-159.394
-143.247
-127.946
-113.716
-100.655
-88.7049
-77.584
-67.3406
-57.8187
-48.95
-40.7135
-33.0314
-25.8939
-19.1932
-13.0618
-7.0557
-2.00987
3.36123
-173.339
-169.56
-154.416
-136.592
-120.761
-106.159
-92.6967
-80.4549
-69.12
-58.6834
-49.0246
-40.081
-31.7684
-24.0579
-16.8773
-10.1678
-3.99556
1.97839
6.94978
12.4053
-165.772
-160.531
-143.822
-126.33
-110.12
-95.548
-82.0596
-69.8237
-58.5004
-48.0862
-38.4597
-29.5189
-21.2432
-13.5286
-6.37943
0.286428
6.4652
12.4364
17.4564
23.194
-152.766
-147.359
-130.733
-113.206
-97.2901
-82.8286
-69.4236
-57.246
-46.0259
-35.7034
-26.1875
-17.3951
-9.26749
-1.74362
5.25205
11.7516
17.7928
23.5653
28.4589
34.1568
-138.257
-131.902
-114.834
-97.6589
-81.779
-67.6194
-54.468
-42.5323
-31.5644
-21.4866
-12.2226
-3.65247
4.23638
11.5593
18.295
24.5105
30.2883
35.7228
40.2872
45.7746
-119.672
-113.128
-96.1749
-79.6062
-64.1566
-50.4275
-37.6812
-26.1042
-15.4811
-5.72082
3.23735
11.5022
19.0871
26.0861
32.5527
38.4927
44.0287
49.1532
53.4912
58.8538
-99.3846
-92.5793
-75.3592
-59.5968
-44.6106
-31.3276
-19.088
-7.91442
2.26093
11.6119
20.1502
28.0177
35.226
41.8703
47.9323
53.4697
58.6244
63.2587
67.195
72.3729
-76.8205
-69.8894
-52.5424
-37.5898
-23.3524
-10.6796
0.97839
11.5963
21.3037
30.2072
38.3507
45.8353
52.664
58.9383
64.672
69.8874
74.743
78.9026
82.5269
87.4212
-52.7146
-45.3684
-28.4945
-14.2985
-0.875048
11.177
22.1647
32.2489
41.3663
49.7567
57.3792
64.3821
70.7759
76.6202
81.9088
86.7196
91.1496
94.7013
97.8632
102.523
-27.2847
-19.8724
-3.60877
9.957
22.661
34.0591
44.4352
53.9256
62.5635
70.4837
77.7329
84.3871
90.4622
96.0278
101.091
105.733
109.898
113.169
116.34
121.309
-0.396797
7.21466
22.6836
35.1751
46.8546
57.4613
67.0083
75.8453
83.8301
91.2267
98.0068
104.341
110.252
115.82
121.11
126.243
131.087
135.716
141.62
146.624
-20.2869
1.10768
23.14
35.1798
49.4249
56.7355
65.7244
70.9552
76.4447
80.4751
83.7987
87.0152
89.0212
91.6248
92.7514
95.0555
96.1357
96.854
97.3777
97.2744
-16.1776
4.48326
26.3284
37.7601
51.9406
58.9264
67.7272
72.7012
77.9757
81.8554
84.9943
88.0926
89.945
92.4492
93.3796
95.6767
96.4918
97.2479
97.6526
97.4921
-12.0313
7.84234
29.8453
40.635
54.5243
61.0804
69.6564
74.3924
79.4843
83.2119
86.1809
89.1715
90.8649
93.2639
94.0091
96.3396
96.8535
97.7483
97.9649
97.7629
-7.74706
11.0972
33.2746
43.4525
57.2094
63.3232
71.7008
76.1969
81.0446
84.6355
87.4111
90.2832
91.8272
94.1171
94.7053
97.026
97.1936
98.1755
98.2442
97.9993
-3.21803
14.9039
36.9594
46.2779
59.859
65.5141
73.652
77.9622
82.579
86.0385
88.634
91.3994
92.786
94.9591
95.375
97.6759
97.5397
98.5736
98.6255
98.2754
1.56635
18.6064
40.6282
49.3135
62.5896
67.8861
75.7178
79.8254
84.1719
87.5042
89.8978
92.5474
93.7871
95.8464
96.0395
98.3665
97.8792
98.9609
98.9176
98.5383
6.80945
22.6048
44.3854
52.3673
65.2605
70.1968
77.7065
81.6554
85.7412
88.9524
91.1586
93.702
94.7864
96.7157
96.7834
99.0512
98.2217
99.3434
99.1898
98.8498
12.3931
26.9099
48.1448
55.62
68.0576
72.6691
79.8011
83.5734
87.367
90.4576
92.4568
94.8876
95.8269
97.6684
97.6314
99.7215
98.5586
99.7192
99.4309
99.1225
18.1666
31.4737
52.0091
58.8484
70.8068
75.0844
81.8342
85.4645
88.9728
91.9477
93.7562
96.0788
96.859
98.5882
98.2916
100.396
98.89
100.118
99.7015
99.4058
24.2305
36.1568
55.8116
62.225
73.6768
77.6476
83.9574
87.4336
90.6317
93.488
95.0893
97.3003
97.9364
99.5811
99.032
101.082
99.2581
100.581
99.9853
99.6808
32.8072
41.2825
60.8238
65.6854
76.5331
80.1713
86.0346
89.3807
92.2751
95.0149
96.4269
98.5252
99.0046
100.529
99.6306
101.813
99.6186
101.089
100.229
99.9581
42.3329
47.0461
66.1655
69.2856
79.489
82.8256
88.1856
91.3935
93.9671
96.5842
97.7942
99.7798
100.123
101.533
100.258
102.59
99.9522
101.522
100.468
100.231
50.2527
52.7043
70.7752
72.9188
82.4141
85.449
90.3048
93.3877
95.6485
98.1413
99.1682
101.036
101.238
102.488
100.992
103.387
100.302
101.936
100.722
100.508
58.9185
58.7104
75.4221
76.7196
85.3951
88.1749
92.4884
95.4372
97.3759
99.7347
100.569
102.322
102.407
103.523
101.872
104.221
100.663
102.36
100.949
100.78
68.3815
64.9313
79.7041
80.4735
88.2859
90.8577
94.6407
97.4626
99.0928
101.313
101.973
103.605
103.567
104.527
102.711
105.071
101.061
102.76
101.123
101.037
78.8412
71.5919
84.2758
84.4095
91.2688
93.6194
96.8412
99.5226
100.842
102.913
103.394
104.913
104.775
105.595
103.638
105.95
101.466
103.098
101.256
101.293
89.323
78.558
88.9433
88.4716
94.3501
96.4571
99.1027
101.619
102.625
104.531
104.846
106.236
105.985
106.661
104.582
106.861
101.872
103.467
101.317
101.499
99.7311
84.6242
93.2984
92.3073
97.3159
99.2116
101.34
103.719
104.441
106.174
106.306
107.586
107.248
107.789
105.599
107.794
102.292
104.305
101.421
102.032
116.248
92.2512
97.3124
95.3698
99.6977
101.446
103.197
105.492
106.014
107.594
107.595
108.782
108.381
108.773
106.493
108.646
102.633
104.318
101.135
102.053
135.139
105.541
103.794
101.617
103.842
105.198
105.924
107.8
107.907
109.27
109.168
110.194
109.663
109.968
107.708
109.671
103.54
104.405
99.8339
102.742
162.611
167.386
150.029
147.161
136.58
135.153
128.937
127.675
124.406
123.818
121.697
121.29
119.545
119.688
118.083
118.679
115.961
118.55
103.772
124.496
201.348
190.692
174.883
166.814
156.471
150.997
144.676
140.519
136.083
132.925
129.995
128.2
126.131
125.168
123.33
123.267
121.165
122.031
119.869
122.073
198.395
187.98
178.759
172.076
164.861
159.794
154.578
151.143
147.289
144.726
141.669
139.787
137.683
136.304
134.754
133.844
132.702
132.24
131.794
132.194
196.099
189.842
183.442
177.152
171.384
166.542
161.629
157.689
153.844
150.751
147.736
145.123
142.59
140.675
138.787
137.503
136.22
135.429
134.836
134.721
185.662
180.385
176.816
172.93
169.322
165.818
162.56
159.548
156.707
154.19
151.791
149.733
147.707
145.874
144.184
142.484
141.102
139.481
138.838
138.753
181
178.965
176.587
173.462
170.738
167.902
165.053
162.507
159.791
157.512
155.03
152.966
150.727
148.85
146.884
145.102
143.469
141.892
140.802
140.491
174.967
172.774
171.329
169.669
167.885
166.064
164.199
162.38
160.502
158.756
156.89
155.223
153.357
151.713
149.818
148.107
146.176
144.312
143.023
142.394
172.069
171.489
170.591
169.186
167.971
166.646
165.131
163.763
162.081
160.689
158.91
157.482
155.618
154.116
152.133
150.471
148.264
146.434
144.471
143.853
169.153
168.502
168.044
167.582
166.733
165.995
164.95
164.087
162.91
161.948
160.629
159.575
158.05
156.877
155.044
153.655
151.259
149.664
147.061
146.536
167.959
167.848
167.517
167.242
166.831
166.393
165.731
165.184
164.327
163.682
162.652
161.897
160.68
159.814
158.26
157.185
154.914
153.775
150.733
150.498
167.111
167.307
167.299
167.379
167.079
167.014
166.615
166.493
166
165.77
165.186
164.899
164.13
163.765
162.774
162.302
160.668
160.488
156.689
158.026
166.814
167.222
167.23
167.557
167.451
167.583
167.535
167.616
167.501
167.562
167.415
167.523
167.363
167.455
167.291
167.525
167.234
167.651
168.259
169.868
167.177
167.583
167.925
168.31
168.515
168.825
169.087
169.403
169.621
169.988
170.26
170.669
171.093
171.675
172.426
172.98
174.354
174.651
177.591
178.334
167.511
168.042
168.231
168.675
168.936
169.205
169.865
170.172
170.702
171.253
171.774
172.59
173.189
174.364
175.183
176.692
178.139
180.329
183.13
184.223
167.956
168.518
169.004
169.655
169.934
171.058
171.311
172.102
172.558
173.367
173.986
174.986
175.778
177.192
178.182
180.277
181.692
184.224
186.291
190.306
168.257
168.842
169.227
169.915
170.304
171.109
171.507
172.351
172.788
173.749
174.237
175.419
176
177.442
178.174
179.971
180.773
183.771
184.495
195.767
168.924
169.539
169.992
170.645
171.112
171.861
172.367
173.2
173.75
174.686
175.312
176.408
177.006
178.452
178.958
181.197
181.728
185.276
185.462
188.396
169.08
169.661
170.141
170.762
171.282
171.972
172.495
173.248
173.777
174.64
175.149
176.162
176.682
177.843
178.239
179.468
179.757
186.124
184.59
189.61
169.402
169.967
170.427
171.075
171.562
172.258
172.792
173.542
174.117
174.924
175.516
176.38
176.95
177.876
178.349
179.312
179.596
181.295
181.457
181.861
169.477
169.998
170.523
171.097
171.654
172.281
172.867
173.546
174.152
174.89
175.499
176.302
176.888
177.738
178.267
179.188
179.549
186.263
183.407
188.175
280.21
281.38
281.792
281.644
280.668
279.275
276.934
274.236
270.644
266.452
261.888
256.232
250.47
243.106
235.372
227.364
216.345
207.03
197.647
188.57
248.893
249.782
250.311
250.62
250.518
250.262
249.533
248.744
247.432
246.004
244.365
242.031
240.559
237.772
233.576
230.397
226.901
224.088
220.474
216.831
211.949
212.709
213.307
213.849
214.187
214.513
214.591
214.703
214.498
214.445
213.965
213.674
212.912
212.189
211.191
210.358
209.074
208.084
206.428
205.448
199.55
200.188
200.72
201.239
201.628
202.022
202.258
202.497
202.592
202.624
202.548
202.458
202.213
202.174
201.771
201.482
200.863
200.526
199.655
199.253
183.302
183.794
184.258
184.691
185.065
185.443
185.73
186.061
186.263
186.56
186.727
186.955
187.016
187.178
187.203
187.326
187.265
187.355
187.175
187.328
177.688
178.127
178.524
178.916
179.267
179.614
179.918
180.216
180.476
180.715
180.88
181.073
181.218
181.378
181.41
181.524
181.47
181.573
181.434
181.538
171.029
171.376
171.715
172.032
172.33
172.618
172.874
173.136
173.353
173.586
173.774
173.99
174.144
174.343
174.488
174.669
174.775
174.951
174.993
175.155
168.354
168.663
168.958
169.244
169.518
169.781
170.032
170.27
170.497
170.712
170.913
171.1
171.275
171.432
171.549
171.683
171.768
171.892
171.936
172.106
165.917
166.172
166.417
166.65
166.869
167.082
167.276
167.468
167.638
167.809
167.952
168.103
168.229
168.365
168.474
168.608
168.72
168.846
168.932
169.054
164.743
164.974
165.198
165.418
165.63
165.836
166.036
166.229
166.416
166.595
166.769
166.937
167.091
167.239
167.374
167.495
167.584
167.687
167.754
167.852
164.362
164.556
164.739
164.913
165.08
165.248
165.417
165.588
165.756
165.91
166.043
166.177
166.294
166.418
166.52
166.63
166.716
166.81
166.881
166.967
164.3
164.474
164.643
164.808
164.968
165.122
165.272
165.415
165.555
165.69
165.821
165.945
166.064
166.18
166.284
166.372
166.458
166.542
166.607
166.682
164.616
164.766
164.915
165.059
165.201
165.341
165.476
165.609
165.738
165.865
165.986
166.107
166.22
166.332
166.44
166.561
166.662
166.767
166.862
166.96
164.987
165.127
165.264
165.399
165.533
165.665
165.795
165.923
166.049
166.174
166.296
166.417
166.534
166.652
166.765
166.88
166.988
167.096
167.19
167.295
165.502
165.624
165.745
165.864
165.981
166.097
166.213
166.327
166.441
166.559
166.674
166.788
166.898
167.01
167.12
167.232
167.337
167.453
167.558
167.673
165.98
166.094
166.207
166.321
166.435
166.548
166.659
166.77
166.878
166.983
167.087
167.192
167.296
167.401
167.502
167.606
167.707
167.811
167.908
168.02
166.435
166.546
166.658
166.771
166.884
166.998
167.113
167.23
167.347
167.463
167.578
167.695
167.81
167.924
168.04
168.159
168.287
168.42
168.575
168.718
166.714
166.813
166.913
167.015
167.118
167.222
167.328
167.434
167.542
167.651
167.761
167.872
167.984
168.099
168.212
168.328
168.443
168.562
168.673
168.798
167.045
167.146
167.247
167.348
167.45
167.552
167.656
167.76
167.867
167.973
168.083
168.192
168.304
168.415
168.529
168.643
168.758
168.876
168.99
169.111
167.125
167.219
167.315
167.412
167.511
167.612
167.714
167.818
167.923
168.029
168.137
168.247
168.357
168.47
168.583
168.698
168.814
168.931
169.05
169.169
67.4437
65.8418
60.875
55.9779
51.348
46.4493
41.3038
35.9071
30.1709
23.9914
17.3752
10.1715
2.41273
-6.19307
-15.4043
-25.7504
-36.7886
-49.1912
-63.5721
-72.4384
84.4859
83.6505
80.274
76.5644
72.904
68.9453
64.6815
60.1096
55.1451
49.7665
43.9219
37.5482
30.5985
22.9068
14.6059
5.29103
-4.66466
-15.8731
-28.6308
-36.9969
102.758
103.019
100.677
97.7114
94.767
91.502
87.9037
84.0103
79.7465
75.0775
69.9928
64.3753
58.2449
51.3899
43.9901
35.574
26.6799
16.3286
5.12813
-1.47295
121.993
122.521
120.615
118.297
115.979
113.374
110.487
107.329
103.801
99.9357
95.6306
90.8575
85.5322
79.5522
72.9746
65.4494
57.3081
47.7321
37.2221
31.7782
140.651
141.634
140.351
138.674
137.003
135.066
132.85
130.368
127.546
124.39
120.81
116.776
112.231
107.086
101.365
94.7133
87.5258
78.8065
69.082
63.4519
159.53
160.798
159.938
158.788
157.644
156.243
154.612
152.728
150.544
148.058
145.2
141.968
138.272
134.064
129.295
123.735
117.588
109.959
101.52
95.1661
177.852
179.305
178.728
178.069
177.382
176.513
175.418
174.141
172.594
170.82
168.712
166.302
163.464
160.184
156.356
151.824
146.764
140.375
133.578
126.894
195.32
196.926
196.855
196.638
196.475
196.11
195.598
194.904
194.003
192.888
191.488
189.815
187.745
185.303
182.349
178.918
174.899
169.976
164.853
157.902
211.549
213.38
213.656
213.907
214.151
214.264
214.221
214.052
213.71
213.216
212.473
211.508
210.183
208.566
206.509
204.071
201.101
197.586
193.657
187.911
226.948
228.892
229.533
230.196
230.899
231.5
232
232.412
232.689
232.81
232.71
232.373
231.721
230.805
229.495
227.874
225.756
223.216
219.991
215.703
241.139
243.312
244.409
245.51
246.633
247.676
248.612
249.472
250.161
250.71
251.035
251.199
251.092
250.779
250.121
249.214
247.791
245.999
243.498
240.074
253.801
256.187
257.695
259.196
260.735
262.196
263.582
264.882
266.057
267.115
268.009
268.767
269.294
269.639
269.646
269.382
268.584
267.409
265.484
262.777
266.161
268.721
270.534
272.351
274.186
275.954
277.649
279.28
280.807
282.254
283.561
284.746
285.696
286.479
286.876
287.026
286.575
285.908
284.483
282.417
276.403
279.112
281.266
283.418
285.604
287.747
289.853
291.91
293.908
295.813
297.607
299.234
300.663
301.844
302.702
303.266
303.43
303.376
302.571
301.102
286.401
289.341
291.764
294.197
296.647
299.046
301.392
303.681
305.873
307.972
309.919
311.742
313.348
314.821
315.989
317.044
317.695
318.245
317.91
317.197
294.703
297.794
300.342
302.964
305.603
308.222
310.805
313.355
315.852
318.276
320.622
322.847
324.97
326.907
328.672
330.205
331.399
332.306
332.473
332.401
302.47
305.687
308.351
311.125
313.932
316.72
319.472
322.2
324.856
327.453
329.937
332.315
334.536
336.569
338.407
339.963
341.207
342.105
342.511
342.579
308.577
311.8
314.495
317.336
320.23
323.107
325.982
328.837
331.664
334.44
337.158
339.783
342.295
344.648
346.807
348.69
350.247
351.356
352.028
352.037
313.409
316.746
319.528
322.48
325.486
328.479
331.47
334.448
337.386
340.28
343.084
345.797
348.351
350.763
352.913
354.802
356.334
357.501
358.369
358.469
316.832
320.15
322.946
325.93
328.949
331.981
334.989
338.013
340.974
343.916
346.749
349.523
352.134
354.638
356.936
359
360.799
362.215
363.3
363.695
-241.188
-249.116
-257.418
-266.257
-275.273
-284.838
-294.626
-304.967
-315.615
-326.747
-338.397
-350.49
-363.138
-376.447
-390.34
-404.839
-419.757
-431.624
-438.112
-439.543
-233.839
-241.874
-250.199
-259.187
-268.353
-278.131
-288.16
-298.74
-309.699
-321.201
-333.201
-345.758
-358.959
-372.932
-387.339
-403.114
-419.235
-432.91
-443.6
-445.511
-226.369
-234.439
-242.726
-251.731
-260.901
-270.71
-280.826
-291.539
-302.681
-314.377
-326.714
-339.626
-353.305
-367.645
-382.947
-399.255
-416.284
-431.698
-444.619
-447.35
-217.572
-225.708
-233.966
-243.059
-252.355
-262.317
-272.606
-283.514
-294.897
-306.9
-319.518
-332.82
-346.853
-361.704
-377.577
-394.436
-411.769
-428.851
-444.158
-446.552
-208.601
-216.774
-224.96
-233.997
-243.242
-253.194
-263.532
-274.486
-285.98
-298.098
-310.955
-324.491
-338.893
-354.176
-370.588
-387.949
-406.328
-425.822
-440.616
-442.405
-198.239
-206.425
-214.444
-223.529
-232.768
-242.737
-253.118
-264.163
-275.758
-288.048
-301.055
-314.844
-329.528
-345.204
-361.973
-380.019
-399.271
-419.806
-435.943
-439.291
-187.346
-195.481
-203.379
-212.363
-221.531
-231.374
-241.715
-252.677
-264.249
-276.51
-289.557
-303.377
-318.157
-333.875
-350.834
-369.066
-388.575
-409.46
-426.536
-430.057
-175.159
-183.231
-190.977
-199.782
-208.861
-218.581
-228.795
-239.715
-251.222
-263.469
-276.496
-290.36
-305.198
-321.054
-338.163
-356.57
-376.147
-397.521
-415.412
-419.876
-162.092
-170.087
-177.617
-186.232
-195.126
-204.658
-214.733
-225.432
-236.768
-248.842
-261.702
-275.411
-290.108
-305.772
-322.847
-341.068
-360.868
-382.393
-401.304
-406.722
-147.966
-155.813
-163.125
-171.476
-180.163
-189.422
-199.224
-209.725
-220.83
-232.684
-245.341
-258.853
-273.333
-288.848
-305.66
-323.569
-342.847
-364.107
-383.603
-389.516
-132.751
-140.434
-147.449
-155.494
-163.887
-172.863
-182.405
-192.58
-203.38
-214.954
-227.284
-240.516
-254.721
-269.937
-286.569
-304.213
-323.964
-344.573
-363.827
-370.928
-116.747
-124.197
-130.921
-138.591
-146.672
-155.254
-164.4
-174.211
-184.628
-195.776
-207.722
-220.518
-234.249
-249.033
-265.082
-282.303
-300.991
-321.572
-341.292
-348.363
-99.3969
-106.611
-112.984
-120.251
-127.942
-136.145
-144.917
-154.319
-164.312
-175.089
-186.572
-198.97
-212.28
-226.597
-242.273
-258.82
-277.457
-297.231
-316.741
-324.539
-81.5117
-88.4364
-94.4695
-101.279
-108.574
-116.307
-124.604
-133.519
-143.025
-153.229
-164.199
-176.008
-188.67
-202.412
-217.304
-233.33
-251.068
-269.797
-289.593
-297.287
-62.2626
-68.876
-74.5027
-80.8235
-87.6479
-94.9253
-102.753
-111.191
-120.179
-129.929
-140.335
-151.62
-163.749
-176.886
-191.213
-206.489
-223.709
-241.612
-261.34
-269.434
-42.4391
-48.7688
-54.0568
-59.9011
-66.3035
-73.0978
-80.4291
-88.3248
-96.7805
-105.892
-115.714
-126.346
-137.732
-150.17
-163.601
-178.151
-194.243
-210.943
-230.543
-238.923
-21.651
-27.5918
-32.4353
-37.7306
-43.617
-49.9131
-56.7164
-64.0912
-71.9843
-80.5843
-89.795
-99.8104
-110.583
-122.364
-135.141
-148.979
-164.405
-180.699
-199.5
-207.804
-0.39626
-5.97192
-10.4284
-15.2286
-20.7024
-26.5468
-32.8746
-39.7185
-47.0774
-55.0295
-63.6059
-72.9282
-82.9245
-93.9105
-105.735
-118.676
-132.958
-147.803
-166.172
-175.028
22.7388
16.8439
12.6806
8.39153
3.34491
-2.10792
-7.95958
-14.2915
-21.095
-28.5088
-36.4743
-45.1482
-54.4757
-64.7622
-75.8197
-88.037
-101.353
-115.709
-132.88
-141.377
48.8077
42.9265
37.8088
33.1473
28.1874
22.8262
17.1787
11.181
4.77202
-2.10591
-9.4796
-17.4626
-26.0401
-35.4867
-45.6372
-56.8964
-69.1245
-82.3298
-98.4341
-107.13
37.1821
36.6367
35.6281
34.4268
31.9882
28.7698
25.6567
20.7907
16.2932
9.52718
2.67227
-6.64431
-17.1015
-30.107
-46.1294
-64.5117
-89.8923
-116.887
-158.241
-202.303
37.2333
36.7876
35.8805
34.5844
32.3695
29.1853
26.2392
21.4011
17.0947
10.4201
3.78013
-5.38185
-15.5567
-28.2488
-43.9057
-61.7539
-86.5568
-112.401
-152.632
-195.128
37.4848
36.9855
36.1871
34.7789
32.794
29.5949
26.8373
22.0454
17.901
11.3429
4.88398
-4.08713
-13.9934
-26.3991
-41.6192
-58.8782
-83.092
-107.934
-147.56
-187.968
37.6126
37.2356
36.5076
34.9703
33.2502
30.0332
27.5058
22.7649
18.7993
12.3669
6.11271
-2.68284
-12.2717
-24.3692
-39.1502
-55.8629
-79.3756
-103.022
-141.471
-179.81
37.849
37.4637
37.0124
35.2424
33.7481
30.5178
28.2168
23.5262
19.715
13.4094
7.35301
-1.24857
-10.5346
-22.3432
-36.613
-52.7663
-75.4959
-98.1013
-135.511
-171.479
38.0783
37.7593
37.4834
35.545
34.2605
31.0366
28.9426
24.3611
20.7157
14.5455
8.71154
0.292296
-8.64729
-20.1467
-33.9074
-49.5269
-71.3959
-92.8291
-128.862
-162.313
38.343
38.0867
37.9193
35.8863
34.8451
31.602
29.7027
25.2334
21.7384
15.7041
10.0815
1.86316
-6.74712
-17.9465
-31.136
-46.194
-67.1357
-87.4493
-121.892
-152.79
38.6222
38.4356
38.3506
36.2964
35.6133
32.2214
30.4738
26.1757
22.8363
16.9514
11.562
3.53745
-4.70754
-15.5877
-28.2181
-42.7382
-62.6628
-81.7911
-114.493
-142.711
38.8992
38.7615
38.8039
36.7602
36.3797
32.9292
31.3015
27.1549
23.9615
18.2239
13.053
5.24054
-2.65644
-13.2191
-25.23
-39.1659
-58.0276
-75.951
-106.605
-131.985
39.1859
39.0991
39.2795
37.2484
37.1635
33.6614
32.1743
28.2003
25.1539
19.578
14.6459
7.04329
-0.47838
-10.7038
-22.1206
-35.4915
-53.1914
-69.8889
-98.4532
-120.857
39.4408
39.4135
39.7171
37.6777
37.9397
34.4621
33.0946
29.2846
26.3771
20.9587
16.2487
8.87285
1.7106
-8.17744
-18.9384
-31.6795
-48.2109
-63.604
-89.8121
-108.847
39.6917
39.7027
40.1416
38.1687
38.6787
35.2872
34.0442
30.4299
27.656
22.4131
17.9439
10.7965
4.01242
-5.5166
-15.6494
-27.7919
-43.024
-57.1483
-80.9779
-96.4717
39.9306
39.9633
40.583
38.6569
39.4459
36.1741
35.0614
31.609
28.9685
23.8947
19.6489
12.7449
6.32572
-2.84433
-12.2897
-23.756
-37.7261
-50.4771
-71.6978
-83.1828
40.1456
40.1896
41.0388
39.1573
40.2856
37.101
36.1048
32.8373
30.3274
25.4424
21.4388
14.7834
8.74036
-0.0452544
-8.82545
-19.6635
-32.215
-43.6744
-62.259
-69.4408
40.355
40.4147
41.5354
39.6215
41.1626
38.0846
37.1865
34.0982
31.7199
27.0147
23.2342
16.8368
11.1563
2.7547
-5.31996
-15.4528
-26.6549
-36.7594
-52.4694
-54.77
40.5689
40.634
42.0086
40.1131
42.091
39.1178
38.3094
35.3822
33.1422
28.6349
25.0959
18.9641
13.6498
5.66349
-1.73321
-11.1839
-20.8889
-29.685
-42.301
-39.2962
40.7618
40.8095
42.5597
40.6836
43.1056
40.1691
39.5023
36.7173
34.6314
30.3188
27.0122
21.1666
16.2326
8.68224
2.00782
-6.63274
-14.8863
-22.3469
-31.8072
-23.3715
41.253
40.9917
43.4574
41.2743
44.1713
41.1447
40.7342
38.0796
36.1477
32.0346
28.9769
23.4005
18.8221
11.7033
5.68273
-2.27447
-9.1737
-15.6374
-21.9881
-7.66421
41.1358
40.7611
43.6348
41.7555
45.1061
42.0305
41.8136
39.2645
37.4895
33.5483
30.6715
25.3109
20.965
14.195
8.71649
1.50907
-4.21186
-9.52491
-10.8482
13.7112
41.9781
39.7006
43.973
42.4142
46.3291
43.2391
43.2298
40.6983
39.1657
35.4925
32.8946
27.9961
24.1609
18.0178
13.396
7.75322
4.10912
1.28739
5.66727
37.7429
65.2636
45.0182
58.8231
53.1382
57.0557
54.0595
55.497
53.3671
53.5752
51.4691
51.8375
50.2134
51.9155
51.3307
55.3316
57.0302
64.4957
72.2055
87.4659
85.6113
64.3523
61.2069
63.3358
61.6021
63.2406
62.7258
63.6795
63.8905
65.0595
65.8656
67.8781
69.4969
72.9546
76.0452
82.1941
87.4754
98.9802
107.717
129.811
140.727
78.7321
78.1959
78.6787
78.7714
79.9441
80.0305
81.5712
82.2316
84.1408
85.551
88.3581
90.7516
94.869
98.7266
104.936
111.523
120.653
130.608
143.986
156.305
83.7532
83.7882
84.3904
85.183
86.3372
87.8333
89.6599
91.6776
94.2934
97.0273
100.354
103.965
108.55
113.43
119.779
125.91
134.54
142.581
153.563
163.4
93.1605
93.3034
94.1784
95.7499
97.6625
99.2574
101.402
103.371
105.903
108.38
111.594
114.867
118.742
123.015
127.72
133.175
138.794
145.347
151.721
160.024
98.8591
99.3668
100.399
102.249
103.857
106.099
108.288
110.715
113.442
116.253
119.428
122.714
126.601
130.476
135.017
139.506
144.546
149.798
155.578
160.725
105.68
106.358
107.812
109.783
112.057
114.022
116.424
118.544
121.106
123.466
126.323
129.079
132.166
135.324
138.679
142.284
145.823
149.809
152.675
157.52
110.757
111.455
113.493
115.521
117.973
119.991
122.417
124.503
127.001
129.267
131.849
134.319
137.126
139.846
142.833
145.713
148.959
152.25
155.374
157.79
117.633
118.273
120.854
122.566
125.155
126.875
129.144
130.853
133.035
134.841
137.051
139.007
141.269
143.346
145.663
147.935
150.119
152.144
154.346
156.861
124.387
124.686
127.915
129.106
131.675
133.083
135.068
136.52
138.33
139.864
141.626
143.269
145.068
146.839
148.784
150.601
152.661
154.471
156.282
157.718
135.142
133.51
137.402
137.799
139.576
140.461
141.779
142.733
144.028
145.064
146.42
147.564
148.984
150.243
151.606
152.909
154.203
155.442
156.904
158.251
149.393
147.714
147.091
146.947
147.245
147.532
147.968
148.463
149.088
149.728
150.521
151.275
152.222
153.079
154.193
155.148
156.346
157.37
158.421
159.254
159.665
158.748
155.82
155.863
154.498
154.371
153.902
153.902
153.927
154.122
154.485
154.886
155.477
156.042
156.756
157.41
158.201
158.886
159.745
160.444
167.3
166.26
163.54
161.58
160.376
159.219
158.62
157.981
157.812
157.564
157.669
157.707
158.029
158.279
158.747
159.148
159.726
160.231
160.894
161.433
174.789
170.846
168.19
166.186
164.7
163.291
162.429
161.575
161.118
160.697
160.554
160.399
160.468
160.545
160.799
161.03
161.404
161.738
162.203
162.596
180.345
169.494
168.905
166.928
166.082
164.706
164.149
163.276
162.945
162.401
162.267
162.035
162.058
162.008
162.156
162.279
162.548
162.792
163.15
163.474
173.638
171.63
171.08
168.172
167.983
166.124
165.963
164.891
164.702
164.078
163.861
163.589
163.507
163.418
163.432
163.469
163.607
163.772
164.018
164.27
175.17
171.112
171.633
168.201
167.824
166.781
166.482
165.741
165.397
164.982
164.721
164.445
164.288
164.195
164.205
164.243
164.361
164.482
164.663
164.868
170.265
169.622
169.223
168.401
168.138
167.431
166.988
166.484
166.061
165.701
165.414
165.18
165.02
164.858
164.835
164.787
164.832
164.932
165.12
165.303
173.28
169.559
169.376
168.574
168.136
167.509
167.108
166.575
166.27
165.871
165.635
165.376
165.228
165.103
165.051
165.061
165.132
165.21
165.335
165.501
119.196
132.878
145.687
158.789
170.904
182.895
194.031
204.702
214.777
224.332
232.841
240.616
247.854
254.162
260.063