/*--------------------------------*- C++ -*----------------------------------*\
  =========                 |
  \\      /  F ield         | OpenFOAM: The Open Source CFD Toolbox
   \\    /   O peration     | Website:  https://openfoam.org
    \\  /    A nd           | Version:  9
     \\/     M anipulation  |
\*---------------------------------------------------------------------------*/
FoamFile
{
    format      ascii;
    class       volVectorField;
    location    "9.8";
    object      U;
}
// * * * * * * * * * * * * * * * * * * * * * * * * * * * * * * * * * * * * * //

dimensions      [0 1 -1 0 0 0 0];

internalField   nonuniform List<vector> 
46400
(
(8.54626 -8.34057 1.17148e-19)
(17.5446 -16.845 -2.21744e-19)
(18.9398 -19.0382 -5.72936e-20)
(18.3071 -19.1648 -1.28377e-19)
(17.6847 -19.1775 -4.35606e-20)
(17.0638 -19.2537 5.78046e-19)
(16.4746 -19.2628 -3.50694e-19)
(15.9104 -19.3002 1.09816e-19)
(15.3666 -19.3093 -1.14773e-19)
(14.8506 -19.3343 1.18995e-19)
(14.3968 -19.4016 -1.22537e-19)
(13.9683 -19.4684 0)
(13.5529 -19.5089 8.44013e-19)
(13.1499 -19.5518 -9.56831e-19)
(12.7887 -19.6012 -1.13856e-18)
(12.4301 -19.6266 -1.62627e-19)
(12.0965 -19.6794 -2.8872e-20)
(11.7694 -19.6381 8.83738e-19)
(11.4626 -19.557 1.18169e-18)
(11.0278 -19.6523 -1.0812e-18)
(8.84618 -7.89306 0)
(17.6522 -15.747 -2.82312e-20)
(18.9053 -17.6744 0)
(18.142 -17.7622 4.74542e-19)
(17.5226 -17.8076 -3.87794e-19)
(16.8647 -17.9019 9.70919e-20)
(16.3158 -17.9903 0)
(15.7502 -18.0802 -1.09819e-19)
(15.241 -18.1671 1.14776e-19)
(14.7353 -18.229 -1.18996e-19)
(14.2736 -18.3322 1.19826e-18)
(13.8247 -18.4019 3.58381e-20)
(13.385 -18.4932 -9.48785e-19)
(12.9896 -18.5714 0)
(12.6143 -18.6912 1.31785e-19)
(12.2488 -18.7411 1.33219e-19)
(11.8873 -18.8272 0)
(11.5851 -18.8885 -1.15567e-18)
(11.3025 -18.9373 -2.92926e-19)
(10.9257 -19.1363 1.18298e-18)
(9.05807 -7.42152 2.41446e-19)
(17.624 -14.6552 -4.05461e-19)
(18.5579 -16.1617 4.23818e-19)
(17.884 -16.4017 5.03842e-19)
(17.2829 -16.5172 -4.94642e-19)
(16.6643 -16.6675 0)
(16.0732 -16.7626 -1.28822e-18)
(15.527 -16.8819 1.11816e-18)
(14.9964 -16.9969 -1.34622e-18)
(14.4839 -17.0751 1.32845e-18)
(14.0254 -17.1982 1.22171e-18)
(13.6083 -17.3175 -1.3119e-19)
(13.1982 -17.424 -1.0506e-18)
(12.7971 -17.5126 0)
(12.4587 -17.6491 1.24484e-18)
(12.1301 -17.7689 -1.22597e-18)
(11.7955 -17.8553 0)
(11.4856 -17.9132 -1.25694e-20)
(11.1927 -17.9594 1.46382e-19)
(10.7971 -18.1991 -1.28776e-18)
(9.196 -6.93097 -3.483e-19)
(17.4776 -13.4886 1.02921e-19)
(18.2945 -14.8484 5.81567e-19)
(17.4989 -15.018 -5.74415e-19)
(16.9081 -15.1832 -4.63641e-19)
(16.2891 -15.3765 6.18732e-19)
(15.7472 -15.5538 8.09275e-19)
(15.1934 -15.7006 -1.98476e-18)
(14.7035 -15.8751 1.64791e-18)
(14.2165 -16.0149 -1.58524e-19)
(13.7566 -16.1651 0)
(13.3338 -16.3158 1.61045e-19)
(12.9158 -16.4656 -1.61681e-19)
(12.5156 -16.5854 0)
(12.1439 -16.7441 1.36388e-18)
(11.8192 -16.9052 -1.16738e-18)
(11.5011 -17.0973 0)
(11.2112 -17.2219 1.60445e-19)
(10.931 -17.334 1.70655e-19)
(10.5336 -17.5917 1.3928e-18)
(9.28562 -6.41776 0)
(17.196 -12.3147 0)
(17.7005 -13.4057 -6.90425e-19)
(17.045 -13.7242 4.94672e-19)
(16.4575 -13.9309 -8.94941e-19)
(15.8651 -14.165 7.15577e-19)
(15.3036 -14.3694 0)
(14.7811 -14.5688 7.52031e-19)
(14.2651 -14.7615 -9.16101e-19)
(13.7772 -14.9179 -1.96633e-19)
(13.3189 -15.1021 -1.96173e-19)
(12.9099 -15.2677 0)
(12.5226 -15.4623 1.49799e-18)
(12.1237 -15.5816 -1.47454e-18)
(11.7631 -15.7559 0)
(11.4219 -15.8921 -1.64277e-18)
(11.1006 -16.0812 1.44504e-18)
(10.8267 -16.2541 1.4408e-18)
(10.5551 -16.4107 -1.58256e-18)
(10.1897 -16.7288 0)
(9.36259 -5.92013 0)
(16.7625 -11.0152 0)
(17.2687 -12.1389 0)
(16.4948 -12.377 -2.54928e-20)
(15.9173 -12.6589 0)
(15.3348 -12.925 0)
(14.8014 -13.1973 0)
(14.2767 -13.4162 -2.1656e-19)
(13.8112 -13.685 0)
(13.3514 -13.8931 1.96633e-19)
(12.9084 -14.1155 -1.72214e-20)
(12.4988 -14.3174 -1.84887e-18)
(12.1221 -14.5522 1.40142e-18)
(11.7411 -14.7271 -1.81677e-18)
(11.3765 -14.9148 1.37894e-18)
(11.0541 -15.1047 0)
(10.7163 -15.2781 -1.5579e-18)
(10.4283 -15.4545 1.3368e-18)
(10.1691 -15.6179 0)
(9.80426 -15.9429 -2.06382e-19)
(9.47757 -5.38637 8.13537e-19)
(16.2257 -9.81036 2.28153e-19)
(16.4474 -10.7351 9.02783e-19)
(15.7915 -11.1421 -9.14887e-19)
(15.2271 -11.4595 -9.17421e-19)
(14.6764 -11.7782 1.81889e-18)
(14.159 -12.0921 -2.05483e-18)
(13.6719 -12.3569 2.05013e-19)
(13.1858 -12.6322 6.61472e-19)
(12.7438 -12.8694 0)
(12.3068 -13.1182 -1.65711e-20)
(11.9025 -13.318 -1.56976e-20)
(11.5514 -13.5871 2.09766e-19)
(11.1979 -13.7862 1.70678e-18)
(10.8384 -13.9939 -1.48898e-18)
(10.5242 -14.1847 -1.89265e-18)
(10.2206 -14.4124 1.65184e-18)
(9.9427 -14.5894 -1.15843e-20)
(9.68787 -14.7798 -2.06598e-19)
(9.36857 -15.0998 -1.49746e-18)
(9.63508 -4.86326 -2.4516e-19)
(15.5581 -8.62544 2.74754e-20)
(15.723 -9.46263 -2.60752e-19)
(15.0352 -9.82942 -1.03335e-18)
(14.507 -10.2624 7.30421e-19)
(13.979 -10.6116 0)
(13.4788 -10.998 1.49029e-18)
(13.0035 -11.2958 -7.23841e-19)
(12.564 -11.6434 4.86273e-19)
(12.1459 -11.9186 2.48788e-19)
(11.7538 -12.2371 -4.7887e-19)
(11.3532 -12.4702 1.16633e-18)
(10.9945 -12.752 2.38621e-19)
(10.6701 -13.0027 -1.37436e-18)
(10.3288 -13.2356 3.83845e-18)
(10.011 -13.4429 -1.56092e-18)
(9.69519 -13.6512 1.97329e-18)
(9.43036 -13.8632 -1.29334e-18)
(9.17512 -14.0448 4.23463e-19)
(8.88189 -14.3784 2.02705e-18)
(9.81153 -4.41694 1.24293e-18)
(14.7829 -7.52888 -2.58954e-19)
(14.6806 -8.28134 -2.42311e-20)
(14.0951 -8.73955 5.46062e-19)
(13.5427 -9.16794 2.60811e-19)
(13.0798 -9.55515 2.78905e-19)
(12.6375 -9.98228 -1.32669e-18)
(12.2131 -10.3192 7.96423e-19)
(11.7871 -10.6734 -2.51882e-19)
(11.3839 -10.9652 -2.48811e-19)
(11.0088 -11.2782 -2.45566e-19)
(10.6523 -11.5456 -2.55933e-19)
(10.3195 -11.8276 -4.90325e-19)
(10.0283 -12.1086 1.69434e-18)
(9.72525 -12.3682 -2.37419e-18)
(9.45493 -12.6231 -2.38847e-19)
(9.16322 -12.851 1.05416e-20)
(8.90737 -13.0697 -1.79189e-18)
(8.66748 -13.2765 1.33215e-18)
(8.3919 -13.584 -2.10738e-18)
(9.85597 -4.05997 1.07864e-18)
(13.7886 -6.43718 -2.68573e-18)
(13.5676 -7.17154 1.77636e-18)
(13.1203 -7.63422 -2.84256e-19)
(12.6806 -8.20455 -3.00935e-19)
(12.2099 -8.58862 1.17436e-18)
(11.777 -9.05265 -1.42866e-18)
(11.3837 -9.43323 0)
(11.0021 -9.84854 1.1055e-18)
(10.6517 -10.2009 -1.08708e-18)
(10.3118 -10.5802 -7.95129e-19)
(9.96682 -10.8708 1.03875e-18)
(9.61796 -11.1668 2.51681e-19)
(9.33302 -11.446 -1.01261e-18)
(9.03563 -11.7238 2.4611e-19)
(8.76921 -11.9689 1.21782e-18)
(8.50246 -12.2253 -2.14959e-18)
(8.26024 -12.4406 1.41647e-18)
(8.03719 -12.667 -8.85819e-21)
(7.79195 -12.9665 -1.95798e-18)
(9.70255 -3.6485 1.45546e-18)
(12.8143 -5.53259 -9.61831e-19)
(12.5131 -6.25361 6.40839e-19)
(12.0079 -6.69184 6.72073e-21)
(11.552 -7.2242 -1.25393e-18)
(11.192 -7.68978 -1.20588e-18)
(10.8099 -8.15778 1.49325e-18)
(10.4455 -8.54249 -8.79049e-19)
(10.0855 -8.95138 1.16139e-18)
(9.7259 -9.27649 0)
(9.43817 -9.6781 1.21011e-20)
(9.1778 -10.0353 2.68685e-19)
(8.88862 -10.3722 2.74621e-19)
(8.63466 -10.6929 -2.69147e-19)
(8.38903 -11.0103 0)
(8.15837 -11.3083 2.58435e-19)
(7.91306 -11.5818 0)
(7.68346 -11.8349 4.87878e-19)
(7.46584 -12.0726 2.38604e-18)
(7.23739 -12.3919 -1.29338e-20)
(9.31909 -3.20119 7.839e-19)
(11.563 -4.6547 -1.63936e-19)
(11.2078 -5.3773 -2.36531e-18)
(10.9242 -5.92792 1.32482e-18)
(10.5139 -6.49085 3.18215e-19)
(10.1544 -6.94946 -3.1307e-19)
(9.82797 -7.4887 -1.25992e-18)
(9.5165 -7.91937 9.35856e-19)
(9.2211 -8.39866 0)
(8.90486 -8.76399 0)
(8.56302 -9.12124 -1.44956e-18)
(8.30429 -9.48488 1.14505e-18)
(8.00955 -9.80757 -2.74639e-19)
(7.76458 -10.1313 -8.2429e-19)
(7.50791 -10.4284 5.90201e-21)
(7.3074 -10.7409 1.84429e-18)
(7.09959 -11.0357 -1.03265e-18)
(6.89392 -11.2964 7.57061e-19)
(6.69526 -11.5461 -1.23362e-18)
(6.49099 -11.8476 0)
(8.7052 -2.72225 -6.65685e-19)
(10.4491 -3.89322 1.06486e-18)
(10.0656 -4.57737 1.79821e-19)
(9.71905 -5.06011 1.76616e-19)
(9.38861 -5.69408 0)
(9.0282 -6.14227 1.33537e-18)
(8.73061 -6.67054 -1.31194e-18)
(8.41519 -7.09599 1.63206e-19)
(8.16049 -7.57446 0)
(7.93524 -8.02411 1.22994e-18)
(7.67541 -8.42385 -1.05672e-18)
(7.46843 -8.83553 1.17814e-18)
(7.25014 -9.20591 -1.15944e-18)
(7.03876 -9.5623 1.1279e-18)
(6.82983 -9.89019 -9.70403e-19)
(6.61498 -10.1992 -1.07957e-18)
(6.44476 -10.5221 2.11968e-18)
(6.26195 -10.8112 -9.09544e-19)
(6.08506 -11.0822 1.283e-19)
(5.88725 -11.3984 1.07593e-18)
(7.89779 -2.23817 -5.24354e-19)
(9.13598 -3.20891 5.58696e-19)
(8.78208 -3.94636 -1.79815e-19)
(8.51683 -4.50592 -1.76615e-19)
(8.174 -5.09413 0)
(7.95882 -5.64153 0)
(7.68852 -6.19263 0)
(7.45223 -6.6771 -3.31175e-19)
(7.14963 -7.11042 -1.2947e-18)
(6.94297 -7.56466 2.53928e-18)
(6.6634 -7.95033 -1.39845e-18)
(6.45445 -8.35343 -1.53564e-19)
(6.24487 -8.73392 0)
(6.06109 -9.1028 0)
(5.87937 -9.45109 -2.83537e-19)
(5.69346 -9.77008 0)
(5.5226 -10.085 1.08092e-18)
(5.36871 -10.3848 -1.33006e-18)
(5.22314 -10.6673 -1.16136e-18)
(5.054 -10.9794 1.11023e-18)
(6.92749 -1.77174 5.39971e-19)
(7.89057 -2.61753 9.60062e-19)
(7.45724 -3.33693 -1.61439e-22)
(7.26219 -3.9007 -1.25888e-21)
(7.01273 -4.51521 1.81815e-19)
(6.65708 -4.95893 -5.32328e-19)
(6.47325 -5.50584 0)
(6.29175 -6.02462 -5.10734e-19)
(6.10068 -6.51031 1.71645e-19)
(5.9317 -6.98768 6.52424e-19)
(5.75238 -7.43079 6.33697e-19)
(5.55726 -7.83691 -4.69897e-19)
(5.39763 -8.24849 1.20993e-18)
(5.24007 -8.6305 -1.04148e-18)
(5.10796 -9.01749 1.2984e-18)
(4.95388 -9.35842 -2.40872e-18)
(4.81358 -9.70116 1.11169e-18)
(4.67056 -10.0084 1.33946e-19)
(4.54692 -10.3111 1.05302e-18)
(4.40599 -10.6399 -1.13236e-18)
(5.75849 -1.32842 1.87114e-19)
(6.39607 -2.14639 -1.94624e-19)
(6.10602 -2.89845 7.75042e-19)
(5.96156 -3.52442 -7.60687e-19)
(5.82996 -4.23964 -3.70978e-19)
(5.679 -4.82155 -9.04829e-19)
(5.36496 -5.29199 3.8514e-21)
(5.18382 -5.80829 6.9638e-19)
(4.97014 -6.23927 -1.67986e-19)
(4.81096 -6.71054 0)
(4.65611 -7.12443 0)
(4.48738 -7.53191 0)
(4.33224 -7.9106 0)
(4.18178 -8.28305 2.13397e-21)
(4.07406 -8.65519 0)
(3.9554 -9.01041 1.42693e-19)
(3.84449 -9.3498 5.59328e-19)
(3.72958 -9.67378 -1.64414e-18)
(3.62731 -9.97171 1.21193e-18)
(3.51599 -10.3077 -1.13784e-18)
(4.55652 -1.00524 0)
(5.02605 -1.78229 -1.01003e-19)
(4.74528 -2.36573 0)
(4.51658 -2.94477 2.88201e-19)
(4.34932 -3.50142 -1.90871e-19)
(4.32325 -4.16514 -7.3637e-19)
(4.22148 -4.73732 4.04233e-21)
(4.1121 -5.30234 7.07011e-19)
(3.9798 -5.8152 -6.85978e-19)
(3.83983 -6.30555 1.34416e-18)
(3.75432 -6.79322 -5.03327e-21)
(3.61184 -7.22227 -6.43101e-19)
(3.50766 -7.6431 6.22726e-19)
(3.3618 -8.02127 -7.64639e-19)
(3.25658 -8.39067 0)
(3.1599 -8.75753 -5.79314e-19)
(3.06851 -9.09914 5.70655e-19)
(2.97505 -9.43432 0)
(2.89373 -9.73557 -1.3481e-19)
(2.80035 -10.0721 0)
(2.90527 -0.579868 1.03138e-19)
(3.73755 -1.4334 1.00999e-19)
(3.64888 -2.19508 0)
(3.49383 -2.85545 3.88945e-19)
(3.28348 -3.41512 -4.7847e-19)
(3.04999 -3.9973 2.78488e-19)
(2.90304 -4.54617 -8.19954e-19)
(2.78156 -5.06179 3.56914e-19)
(2.69612 -5.58445 -8.69908e-20)
(2.55724 -6.02778 0)
(2.51281 -6.52158 -8.28262e-20)
(2.4423 -6.95708 -8.08139e-20)
(2.37926 -7.39391 -7.88589e-20)
(2.30987 -7.79402 0)
(2.22286 -8.17188 -5.97233e-19)
(2.14746 -8.53429 1.24436e-18)
(2.09179 -8.89112 -1.07164e-18)
(2.01972 -9.2292 5.60611e-19)
(1.97032 -9.54462 6.82207e-20)
(1.90655 -9.89111 5.78455e-19)
(1.92333 -0.340943 -1.01525e-19)
(2.00172 -1.09372 -1.23644e-19)
(1.87084 -1.78404 6.22324e-22)
(1.92016 -2.54543 5.39554e-19)
(1.84997 -3.23722 -1.4462e-19)
(1.81275 -3.82576 -9.3378e-20)
(1.82733 -4.44162 9.24982e-20)
(1.75438 -4.94038 1.7926e-19)
(1.73527 -5.51179 8.69889e-20)
(1.63701 -5.94136 -3.38854e-19)
(1.55318 -6.416 3.74657e-19)
(1.5053 -6.82281 8.08216e-20)
(1.45403 -7.2593 3.93452e-19)
(1.41116 -7.64504 -2.7369e-21)
(1.36772 -8.04879 3.48659e-20)
(1.30518 -8.40174 -6.60494e-19)
(1.25008 -8.7643 1.80558e-19)
(1.2033 -9.09756 0)
(1.15124 -9.41065 -3.41013e-20)
(1.11293 -9.75387 -2.89799e-19)
(0.566336 -0.439381 0)
(0.868154 -1.03184 -1.02515e-19)
(0.578933 -1.91397 2.00854e-19)
(0.487474 -2.37463 -4.95449e-20)
(0.539295 -3.13795 -4.82031e-20)
(0.434816 -3.57406 0)
(0.448737 -4.24801 -9.11487e-20)
(0.355761 -4.73393 1.78504e-19)
(0.406307 -5.31737 -8.74193e-20)
(0.415992 -5.80629 8.462e-20)
(0.424333 -6.30464 -4.17664e-20)
(0.39336 -6.75309 -8.05041e-20)
(0.37203 -7.19722 1.57751e-19)
(0.335176 -7.60553 -1.53901e-19)
(0.310761 -8.00419 3.78512e-20)
(0.301696 -8.37571 2.59444e-34)
(0.281625 -8.73512 -3.53898e-20)
(0.266611 -9.066 2.09125e-19)
(0.257227 -9.3787 -1.03257e-19)
(0.221545 -9.70352 -7.30802e-20)
(0.462554 1.74449 3.23654e-20)
(0.782471 -2.43902 1.58451e-20)
(3.0716 -12.9851 0)
(5.69765 -24.3854 1.52264e-20)
(6.96856 -30.5579 1.46002e-20)
(7.39235 -32.676 1.38176e-20)
(7.42458 -33.1182 0)
(7.38792 -33.1204 1.08102e-20)
(7.29021 -32.9639 0)
(7.1731 -32.7569 0)
(7.0694 -32.5764 -9.01274e-21)
(6.97556 -32.4206 1.15971e-21)
(6.8775 -32.3043 1.68113e-20)
(6.81245 -32.1975 0)
(6.68674 -32.1025 6.71371e-21)
(6.63258 -31.9158 6.08867e-21)
(6.46702 -31.8086 5.517e-21)
(6.43395 -31.6497 0)
(6.25137 -31.5045 -8.78888e-21)
(6.19361 -31.2134 8.31378e-21)
(0.341091 0.395989 5.04308e-20)
(1.14332 -5.06379 -8.05173e-20)
(4.22755 -17.6881 0)
(6.60152 -27.5863 -7.61088e-20)
(7.59599 -31.8516 7.33348e-20)
(7.8369 -32.9729 -1.25653e-19)
(7.81626 -33.0665 5.06948e-20)
(7.75861 -32.9545 3.28299e-20)
(7.63125 -32.6959 -1.54219e-19)
(7.5457 -32.515 8.52195e-20)
(7.45469 -32.3694 -9.53149e-21)
(7.38013 -32.2473 6.72298e-20)
(7.27633 -32.1333 -4.7601e-21)
(7.19273 -31.9622 -6.04205e-20)
(7.04973 -31.782 -6.71346e-21)
(6.99594 -31.645 -6.08898e-21)
(6.84005 -31.5492 -5.51717e-21)
(6.80999 -31.3662 0)
(6.61723 -31.199 -3.25617e-20)
(6.56229 -30.9024 3.28346e-21)
(0.221832 -0.685402 -3.70728e-20)
(1.87342 -8.16276 0)
(5.36162 -21.3617 0)
(7.46081 -29.5604 -3.34667e-20)
(8.15844 -32.4592 3.02811e-20)
(8.28505 -32.9669 0)
(8.26074 -32.9294 -2.49553e-20)
(8.1648 -32.6948 6.80835e-20)
(8.07675 -32.505 -7.07326e-20)
(7.98579 -32.3295 7.96181e-20)
(7.89403 -32.1684 -9.71108e-20)
(7.78424 -31.9859 0)
(7.67536 -31.8114 -5.98828e-20)
(7.58212 -31.6608 -4.918e-20)
(7.46506 -31.5638 9.39719e-20)
(7.39606 -31.3978 -8.68149e-20)
(7.23526 -31.2823 7.56458e-20)
(7.18652 -31.0763 0)
(6.97282 -30.8764 -6.70526e-20)
(6.91658 -30.5654 1.07113e-19)
(0.245892 -1.95459 1.89707e-19)
(2.78104 -11.4347 0)
(6.39653 -24.2572 7.55198e-20)
(8.28626 -31.0736 9.64893e-20)
(8.73963 -32.8164 -1.98818e-19)
(8.79694 -32.9601 5.81056e-20)
(8.73376 -32.8006 2.58559e-20)
(8.62721 -32.5268 2.66923e-19)
(8.52227 -32.2852 -3.63709e-19)
(8.42229 -32.0856 -2.83169e-20)
(8.31262 -31.8825 1.75208e-19)
(8.22041 -31.7327 3.36226e-20)
(8.12294 -31.616 -1.46927e-19)
(8.02464 -31.4547 1.41808e-19)
(7.88659 -31.2569 3.63374e-20)
(7.80416 -31.0984 -2.09824e-20)
(7.64062 -30.964 2.82457e-20)
(7.58311 -30.736 0)
(7.36648 -30.5319 -6.05777e-21)
(7.31893 -30.2429 0)
(0.402908 -3.07005 0)
(3.76839 -14.3473 3.21571e-19)
(7.45826 -26.5565 -3.94566e-19)
(9.05774 -31.8788 3.55822e-19)
(9.34628 -32.8818 -2.74749e-19)
(9.3458 -32.8421 -5.71992e-20)
(9.24433 -32.5527 0)
(9.13948 -32.2612 1.44494e-19)
(9.03519 -32.0484 -1.91423e-19)
(8.93063 -31.8334 1.99754e-19)
(8.83015 -31.6756 -1.55779e-19)
(8.70923 -31.4947 -3.36173e-20)
(8.57836 -31.2846 1.43142e-19)
(8.45183 -31.0946 -2.38076e-19)
(8.31999 -30.971 1.39829e-19)
(8.22627 -30.7975 -4.59377e-20)
(8.05919 -30.6648 -8.43759e-20)
(7.99093 -30.4353 1.77392e-19)
(7.74968 -30.2219 -9.71415e-20)
(7.68978 -29.8851 -8.58831e-20)
(0.723237 -4.12781 3.62627e-19)
(4.90481 -16.7487 3.47482e-19)
(8.57132 -28.1915 -3.4494e-19)
(9.91881 -32.4046 -7.88825e-20)
(10.0568 -32.8637 6.72224e-20)
(10.0008 -32.6838 2.36307e-19)
(9.84822 -32.3284 -2.38169e-19)
(9.73498 -32.065 0)
(9.59675 -31.785 1.75219e-19)
(9.46342 -31.5707 -1.72284e-19)
(9.32086 -31.3195 -1.38997e-19)
(9.1833 -31.1223 1.36751e-19)
(9.06464 -30.9793 0)
(8.93261 -30.8126 0)
(8.7916 -30.6233 1.86162e-19)
(8.66881 -30.4657 -1.80658e-19)
(8.49349 -30.3056 -1.18403e-19)
(8.39034 -30.0427 1.16635e-19)
(8.14533 -29.8097 -7.98583e-20)
(8.08634 -29.5257 9.51419e-20)
(1.20974 -5.14485 -2.8385e-19)
(6.11756 -18.6125 1.08285e-19)
(9.75749 -29.3432 2.65465e-20)
(10.7939 -32.4937 4.14282e-19)
(10.8116 -32.6522 0)
(10.6746 -32.3546 0)
(10.4936 -32.0086 4.3676e-19)
(10.3332 -31.6799 -4.06892e-20)
(10.1717 -31.4369 -3.8194e-19)
(10.0169 -31.1813 3.04523e-19)
(9.87274 -31.0125 -2.99514e-19)
(9.7256 -30.8344 0)
(9.5601 -30.6132 2.03294e-19)
(9.39916 -30.4143 -2.00103e-19)
(9.23586 -30.2605 0)
(9.1047 -30.0648 0)
(8.91931 -29.9206 0)
(8.81646 -29.6884 0)
(8.5495 -29.4751 0)
(8.47357 -29.1216 -7.69397e-21)
(1.93881 -6.49185 2.02283e-19)
(7.3094 -19.9492 -3.3656e-19)
(10.9119 -29.9681 0)
(11.7026 -32.3754 0)
(11.6114 -32.3274 6.04251e-19)
(11.4061 -31.965 1.02702e-20)
(11.1917 -31.616 -5.3272e-19)
(11.002 -31.3346 0)
(10.8066 -31.0357 4.2815e-20)
(10.6172 -30.8244 -3.73228e-20)
(10.4276 -30.5564 0)
(10.229 -30.3414 2.77746e-20)
(10.0667 -30.1794 -2.09777e-19)
(9.8851 -29.9972 3.60175e-19)
(9.72361 -29.8367 -2.42759e-20)
(9.55776 -29.6952 -1.28405e-19)
(9.36315 -29.5136 -1.0354e-20)
(9.21299 -29.2428 7.61391e-21)
(8.93816 -29.0051 0)
(8.85682 -28.7211 3.02248e-21)
(2.57461 -7.2065 0)
(8.30906 -21.1189 1.48701e-19)
(12.038 -30.3316 -5.70231e-19)
(12.5656 -32.0218 1.55807e-19)
(12.3777 -31.8461 6.65946e-20)
(12.1211 -31.4654 5.30338e-19)
(11.867 -31.1333 -7.15103e-19)
(11.6304 -30.8011 4.98958e-19)
(11.3936 -30.5474 -3.56492e-19)
(11.1755 -30.2755 4.14695e-19)
(10.9702 -30.1028 5.87519e-20)
(10.7784 -29.921 2.18207e-19)
(10.5689 -29.7159 -1.28514e-19)
(10.3667 -29.5317 -1.8828e-19)
(10.1614 -29.36 1.59449e-19)
(9.97858 -29.1684 0)
(9.77124 -29.0388 2.50119e-20)
(9.62265 -28.8177 1.64962e-21)
(9.3272 -28.6185 -4.82645e-21)
(9.23281 -28.2723 -2.76212e-21)
(2.95599 -8.25003 -3.82143e-19)
(9.6691 -21.7687 3.07442e-19)
(13.0388 -30.2421 -5.37459e-21)
(13.4358 -31.5114 -3.06656e-19)
(13.1554 -31.2533 -2.68668e-19)
(12.8577 -30.8889 -1.21611e-19)
(12.5561 -30.5515 -7.13971e-21)
(12.2882 -30.2726 -9.25483e-20)
(12.0247 -29.9855 0)
(11.7692 -29.788 -6.89094e-20)
(11.5263 -29.5293 -5.87421e-20)
(11.2668 -29.3312 -7.56421e-21)
(11.0512 -29.1561 1.29321e-19)
(10.8153 -28.9693 -7.51025e-20)
(10.6197 -28.8451 -1.07753e-19)
(10.4122 -28.7221 7.98664e-20)
(10.1867 -28.544 2.04541e-20)
(9.98936 -28.305 -4.385e-20)
(9.67588 -28.0844 4.82649e-21)
(9.5737 -27.7915 -3.765e-20)
(3.6787 -8.68433 -9.34629e-19)
(10.5311 -22.5144 9.41213e-19)
(14.102 -30.0449 -9.73975e-19)
(14.222 -30.8741 7.77894e-19)
(13.8889 -30.5693 6.11501e-19)
(13.5673 -30.2169 -4.73823e-19)
(13.2195 -29.8988 -5.43929e-19)
(12.9048 -29.5897 4.75256e-20)
(12.5945 -29.3339 2.96422e-19)
(12.3033 -29.0796 -1.57897e-19)
(12.0348 -28.9146 3.77266e-19)
(11.7823 -28.7358 -2.10006e-19)
(11.5258 -28.5751 -3.36184e-20)
(11.2729 -28.4089 4.87239e-20)
(11.0175 -28.2321 -1.22288e-19)
(10.7812 -28.0743 4.79171e-20)
(10.5486 -27.9726 0)
(10.345 -27.7808 3.06357e-20)
(10.0189 -27.6023 -3.01905e-20)
(9.89187 -27.2633 8.36369e-20)
(4.20535 -9.13718 1.83763e-19)
(11.7454 -22.4842 2.17038e-19)
(14.9912 -29.4759 8.31765e-19)
(15.0775 -30.0738 6.40218e-19)
(14.6231 -29.7606 -3.91418e-19)
(14.2465 -29.4289 4.63898e-19)
(13.8538 -29.1229 -2.74712e-19)
(13.5009 -28.8677 2.5869e-19)
(13.1687 -28.615 -4.65534e-19)
(12.8447 -28.4325 1.55703e-19)
(12.5429 -28.2048 0)
(12.2302 -28.0347 0)
(11.9517 -27.8641 0)
(11.6669 -27.6992 -7.27769e-20)
(11.4255 -27.6066 7.16543e-20)
(11.1724 -27.4975 0)
(10.9111 -27.3479 0)
(10.6688 -27.1708 1.54615e-20)
(10.3207 -26.983 0)
(10.1853 -26.6617 1.86775e-19)
(4.87384 -9.47966 -3.41133e-19)
(12.74 -22.6672 -8.27909e-19)
(15.8754 -28.7978 -5.35545e-19)
(15.7516 -29.1505 -5.72433e-20)
(15.2759 -28.8506 6.25031e-19)
(14.8727 -28.5649 -1.51254e-19)
(14.4457 -28.2916 -5.24671e-20)
(14.0476 -28.0338 -3.056e-19)
(13.6691 -27.8013 0)
(13.3084 -27.5958 -9.27639e-20)
(12.9823 -27.4489 1.37037e-19)
(12.667 -27.2847 0)
(12.3736 -27.1761 4.09265e-20)
(12.07 -27.0324 -4.02836e-20)
(11.7699 -26.863 -6.10769e-20)
(11.4921 -26.7532 1.48663e-19)
(11.2397 -26.6776 -1.02994e-19)
(10.9929 -26.5358 -1.5463e-20)
(10.6643 -26.3993 2.90156e-20)
(10.5222 -26.0693 -2.43964e-19)
(5.42887 -9.6267 -4.26633e-19)
(13.6713 -22.2891 5.13675e-20)
(16.6023 -27.9207 7.51407e-20)
(16.4451 -28.1439 8.48732e-19)
(15.8911 -27.8755 3.12865e-20)
(15.4327 -27.596 -3.73478e-19)
(14.9679 -27.3414 -1.9896e-19)
(14.5393 -27.1321 9.64245e-20)
(14.1436 -26.9294 1.70141e-19)
(13.7577 -26.7761 -1.06811e-19)
(13.4022 -26.6132 4.62345e-20)
(13.0415 -26.4806 5.82017e-21)
(12.7022 -26.3268 8.72826e-21)
(12.3842 -26.2198 1.08959e-19)
(12.0988 -26.157 -8.44265e-20)
(11.8067 -26.0566 -1.77935e-19)
(11.5253 -25.9648 1.91072e-19)
(11.2622 -25.8726 -2.2468e-19)
(10.9187 -25.7543 2.27989e-19)
(10.7653 -25.429 3.67497e-19)
(6.00807 -9.71846 -5.02801e-19)
(14.5615 -21.9719 -6.14233e-20)
(17.2802 -26.8996 4.59136e-19)
(17.001 -27.0054 -3.11217e-19)
(16.4128 -26.7719 3.056e-19)
(15.934 -26.5684 6.15894e-20)
(15.4453 -26.358 0)
(14.9735 -26.1711 -1.71358e-20)
(14.5367 -25.9808 1.87539e-20)
(14.114 -25.8304 -3.78725e-20)
(13.7363 -25.7121 9.61114e-21)
(13.3686 -25.5964 -2.23216e-20)
(13.0395 -25.5402 -1.08154e-20)
(12.686 -25.4239 0)
(12.3486 -25.3053 1.33188e-20)
(12.0334 -25.25 -2.92133e-19)
(11.7512 -25.1906 -3.71845e-20)
(11.4669 -25.1255 -1.17262e-19)
(11.1564 -25.0896 3.46875e-19)
(10.9947 -24.8026 -1.00894e-19)
(6.53508 -9.67374 4.14582e-19)
(15.3001 -21.3641 -6.77946e-19)
(17.8153 -25.8154 3.68312e-19)
(17.4784 -25.8428 2.25552e-19)
(16.8625 -25.6425 -6.00775e-20)
(16.3179 -25.4437 -1.36631e-19)
(15.8064 -25.2574 9.28174e-21)
(15.3134 -25.1178 1.71351e-20)
(14.8671 -24.9867 0)
(14.4297 -24.8779 0)
(14.0305 -24.7888 1.84462e-19)
(13.6271 -24.6943 -3.66376e-19)
(13.2389 -24.5773 2.34529e-19)
(12.8987 -24.5396 0)
(12.5681 -24.4971 1.44344e-20)
(12.2419 -24.4286 4.51432e-19)
(11.9446 -24.4105 -4.4903e-19)
(11.6509 -24.3848 4.82841e-20)
(11.3306 -24.3605 5.36035e-19)
(11.1735 -24.0969 -3.55243e-19)
(7.00536 -9.55421 -3.16905e-19)
(15.9968 -20.6642 3.85846e-19)
(18.2541 -24.5293 0)
(17.865 -24.5565 0)
(17.2278 -24.4026 1.28689e-20)
(16.6798 -24.2927 -4.22289e-20)
(16.1434 -24.1515 2.4531e-20)
(15.6167 -24.0378 -2.52705e-20)
(15.1306 -23.9112 2.0393e-19)
(14.6583 -23.8272 -4.67471e-19)
(14.233 -23.7514 2.62565e-19)
(13.8293 -23.7193 -8.67258e-20)
(13.4621 -23.7082 -4.71132e-19)
(13.0651 -23.6242 -1.05714e-19)
(12.7023 -23.5857 3.27831e-19)
(12.3445 -23.5502 -5.45889e-20)
(12.0259 -23.513 5.93893e-19)
(11.7042 -23.5547 -5.2617e-19)
(11.4333 -23.6119 1.29417e-20)
(11.2631 -23.4297 -5.92158e-19)
(7.45538 -9.37098 0)
(16.5864 -19.8618 9.86298e-20)
(18.6161 -23.305 -1.44337e-19)
(18.106 -23.2836 0)
(17.4742 -23.1578 -1.28676e-20)
(16.8601 -23.0542 -6.94989e-20)
(16.3204 -22.9517 8.01412e-20)
(15.7806 -22.8886 0)
(15.2976 -22.8267 -3.60835e-19)
(14.824 -22.776 3.54816e-19)
(14.3878 -22.7485 -6.4699e-20)
(13.9463 -22.6921 5.19248e-20)
(13.5312 -22.6688 5.72306e-20)
(13.1686 -22.6927 6.18662e-20)
(12.7947 -22.6778 6.72e-19)
(12.4456 -22.6714 -1.22656e-18)
(12.1074 -22.6781 1.26822e-18)
(11.7579 -22.6947 -1.28584e-18)
(11.4781 -22.7842 5.69545e-19)
(11.3163 -22.6622 -8.21035e-20)
(7.83805 -9.06159 0)
(17.0031 -18.8723 -5.10422e-20)
(18.8224 -21.8741 4.4422e-20)
(18.306 -21.9132 -4.60728e-20)
(17.6578 -21.8374 -5.1213e-20)
(17.0613 -21.8208 -4.54372e-20)
(16.4883 -21.7506 1.60831e-19)
(15.927 -21.7172 0)
(15.4032 -21.6683 0)
(14.8976 -21.6505 0)
(14.4366 -21.63 6.46945e-20)
(14.0004 -21.645 0)
(13.5898 -21.6612 7.84625e-19)
(13.1705 -21.6603 -6.80731e-19)
(12.7861 -21.7021 7.43319e-19)
(12.3856 -21.677 -1.4952e-18)
(12.0258 -21.7206 7.51729e-19)
(11.6521 -21.7906 8.88775e-19)
(11.3468 -21.8865 -1.57056e-18)
(11.1955 -21.8709 8.31428e-19)
(8.21868 -8.7715 0)
(17.3761 -17.8894 0)
(18.9939 -20.5504 -1.04418e-20)
(18.3434 -20.5561 -2.44054e-20)
(17.709 -20.5088 0)
(17.0506 -20.502 -2.59624e-19)
(16.4993 -20.4858 2.55075e-19)
(15.9296 -20.4899 0)
(15.4216 -20.4978 -6.93226e-19)
(14.9282 -20.5211 6.81656e-19)
(14.4702 -20.5667 0)
(13.9998 -20.5463 8.08607e-19)
(13.5531 -20.5745 -5.04688e-20)
(13.1491 -20.6055 -8.25171e-19)
(12.7449 -20.6506 0)
(12.3501 -20.6677 0)
(11.9172 -20.6626 0)
(11.4908 -20.6746 8.45514e-19)
(11.1224 -20.605 -9.35326e-19)
(10.7426 -20.7305 0)
(5.36187 -30.4675 0)
(4.73477 -29.0355 0)
(3.73923 -28.7337 5.76768e-22)
(3.30905 -28.2283 8.54809e-22)
(2.59878 -27.7893 0)
(2.2738 -27.3693 8.05739e-23)
(1.8711 -27.0116 -1.45767e-21)
(1.59541 -26.6683 0)
(1.31736 -26.3463 -1.85727e-21)
(1.10892 -26.0932 0)
(0.917407 -25.8896 2.05121e-21)
(0.784939 -25.7042 1.07556e-21)
(0.635633 -25.5563 -1.0813e-21)
(0.555466 -25.4056 -2.27344e-21)
(0.431776 -25.2901 0)
(0.434912 -25.0935 5.87899e-22)
(0.294662 -24.4011 -2.86157e-21)
(0.330674 -21.6244 0)
(0.108666 -15.4466 0)
(0.116166 -6.2344 -2.47238e-21)
(5.67966 -30.1317 3.16377e-21)
(4.99887 -28.843 0)
(4.01537 -28.6457 -3.56865e-21)
(3.56396 -28.138 2.15133e-21)
(2.8385 -27.6765 0)
(2.47097 -27.264 7.21521e-21)
(2.0428 -26.9063 -3.01658e-21)
(1.7305 -26.5669 0)
(1.43749 -26.2603 -1.98813e-21)
(1.20744 -26.0208 3.86611e-21)
(1.00025 -25.8242 -6.25914e-21)
(0.852711 -25.6544 8.58217e-21)
(0.688644 -25.5162 -6.61523e-21)
(0.598258 -25.3742 2.23091e-21)
(0.474073 -25.2681 2.30717e-21)
(0.467236 -25.0709 -2.32597e-21)
(0.307455 -24.3865 4.35097e-21)
(0.34375 -21.5982 5.93385e-21)
(0.109185 -15.4109 3.09172e-21)
(0.104037 -6.20202 3.09001e-21)
(5.9752 -29.8435 -5.31279e-21)
(5.18446 -28.5343 -1.25963e-21)
(4.1486 -28.3224 2.94425e-21)
(3.65217 -27.866 0)
(2.90854 -27.4892 0)
(2.53188 -27.1356 -9.0503e-21)
(2.1046 -26.8123 -6.34587e-22)
(1.78383 -26.4968 -4.70974e-22)
(1.48729 -26.2025 -4.24698e-22)
(1.24861 -25.9722 7.87526e-21)
(1.0404 -25.7899 0)
(0.886071 -25.6199 0)
(0.718999 -25.4835 0)
(0.620989 -25.3503 9.25595e-21)
(0.495349 -25.2516 0)
(0.495874 -25.052 8.93536e-21)
(0.320953 -24.3747 -8.48348e-21)
(0.356491 -21.5857 -3.38729e-21)
(0.115549 -15.3992 -6.17376e-21)
(0.104232 -6.18198 -9.92456e-21)
(6.29282 -29.4761 -3.11446e-22)
(5.53592 -28.3194 2.41052e-21)
(4.45554 -28.2312 9.39814e-22)
(3.9082 -27.7754 -7.22596e-21)
(3.15031 -27.3746 0)
(2.72554 -27.0294 -1.28367e-20)
(2.27337 -26.7039 3.39657e-20)
(1.91586 -26.3922 -2.17396e-20)
(1.60473 -26.1143 1.54707e-20)
(1.34496 -25.8971 -8.33515e-21)
(1.12086 -25.7228 -1.94615e-22)
(0.951097 -25.5684 8.90797e-21)
(0.769737 -25.4401 -8.9512e-21)
(0.663433 -25.3162 -4.59193e-21)
(0.52611 -25.229 -4.44083e-21)
(0.522344 -25.0308 -9.11437e-21)
(0.333298 -24.3628 1.0349e-20)
(0.369121 -21.5746 -4.3091e-21)
(0.112445 -15.3754 2.47599e-21)
(0.100287 -6.15647 9.9083e-21)
(6.59146 -29.1876 8.6477e-21)
(5.67426 -27.9972 -1.21757e-21)
(4.56785 -27.8763 7.4823e-21)
(3.98627 -27.4935 -1.23782e-20)
(3.21749 -27.1805 0)
(2.78139 -26.8939 6.35683e-21)
(2.33189 -26.6053 -6.95677e-21)
(1.96589 -26.3167 0)
(1.65137 -26.0526 1.51046e-22)
(1.38315 -25.8437 0)
(1.15661 -25.6831 1.72761e-20)
(0.981443 -25.5281 0)
(0.796034 -25.4037 0)
(0.685515 -25.2895 1.88096e-20)
(0.539892 -25.2114 -9.19766e-21)
(0.548878 -25.0114 9.10363e-21)
(0.344695 -24.3525 0)
(0.384274 -21.5689 -2.1236e-21)
(0.111347 -15.3672 2.39389e-21)
(0.103718 -6.14137 0)
(6.92519 -28.7708 -7.85411e-22)
(5.99496 -27.7664 3.87764e-21)
(4.88928 -27.7766 -2.13552e-20)
(4.23372 -27.3937 2.15914e-20)
(3.46005 -27.0617 -1.21731e-20)
(2.9706 -26.779 -6.37666e-21)
(2.49734 -26.4934 1.47264e-20)
(2.09474 -26.2088 1.55626e-20)
(1.76596 -25.9621 -8.06778e-21)
(1.47706 -25.7657 -1.7236e-20)
(1.23512 -25.6144 8.59812e-21)
(1.0443 -25.4752 0)
(0.84574 -25.3576 0)
(0.731991 -25.2511 1.20075e-22)
(0.568927 -25.1909 9.18738e-21)
(0.573244 -24.99 -9.02234e-21)
(0.354888 -24.3438 0)
(0.403224 -21.567 1.70502e-20)
(0.105872 -15.358 1.70291e-20)
(0.106623 -6.12295 1.22973e-21)
(7.2078 -28.4739 6.33112e-21)
(6.17119 -27.4317 -9.46562e-21)
(5.0097 -27.407 8.07171e-21)
(4.31009 -27.1004 0)
(3.527 -26.8667 1.22249e-20)
(3.02347 -26.6359 -2.83862e-20)
(2.55258 -26.3901 1.37115e-20)
(2.14195 -26.128 -1.56065e-20)
(1.80977 -25.8961 0)
(1.51286 -25.7075 0)
(1.26708 -25.5688 -1.80586e-20)
(1.07175 -25.4291 1.81233e-20)
(0.867653 -25.3192 0)
(0.752545 -25.222 -2.85262e-20)
(0.584497 -25.1661 8.69839e-21)
(0.596156 -24.9693 9.06709e-21)
(0.363199 -24.3375 -8.29419e-21)
(0.423507 -21.5695 -2.12668e-20)
(0.0999973 -15.3553 -1.10859e-20)
(0.116611 -6.11185 -2.41362e-21)
(7.54813 -28.002 0)
(6.44211 -27.1762 1.42949e-20)
(5.31395 -27.2914 -1.43389e-20)
(4.54799 -26.976 0)
(3.76566 -26.7358 0)
(3.2084 -26.5126 2.93927e-20)
(2.71423 -26.2742 -2.94802e-20)
(2.26758 -26.0175 0)
(1.92134 -25.8032 -1.72948e-20)
(1.60417 -25.6268 3.51901e-20)
(1.34364 -25.4986 -1.78971e-20)
(1.1324 -25.3747 -1.87162e-20)
(0.91573 -25.2708 1.87729e-20)
(0.795423 -25.1792 0)
(0.600024 -25.1458 0)
(0.617205 -24.9481 9.23624e-21)
(0.369574 -24.3339 -1.2477e-20)
(0.444151 -21.5763 -1.8668e-23)
(0.0918849 -15.3567 6.72758e-21)
(0.12865 -6.10038 -2.38152e-21)
(7.82376 -27.6977 -9.50502e-21)
(6.64427 -26.8183 9.52686e-21)
(5.45672 -26.9133 3.16625e-20)
(4.62385 -26.6848 -4.6381e-20)
(3.8329 -26.5411 5.3263e-20)
(3.2597 -26.3621 2.13687e-21)
(2.76719 -26.1654 -3.04762e-20)
(2.31231 -25.9314 0)
(1.96269 -25.7328 0)
(1.63781 -25.5638 -1.81351e-20)
(1.37234 -25.447 0)
(1.15711 -25.323 0)
(0.933136 -25.2302 0)
(0.811854 -25.1451 0)
(0.61702 -25.121 0)
(0.635837 -24.9268 0)
(0.374044 -24.3329 8.32745e-21)
(0.464284 -21.5869 -8.67845e-21)
(0.0816031 -15.3629 2.32823e-21)
(0.14497 -6.09211 -2.36749e-21)
(8.14133 -27.1991 -1.24897e-20)
(6.8597 -26.5514 1.9189e-20)
(5.73749 -26.7783 1.22326e-20)
(4.85262 -26.5287 1.58953e-20)
(4.06414 -26.3957 -1.1614e-20)
(3.43916 -26.2297 -4.48718e-20)
(2.92479 -26.045 -1.65924e-20)
(2.43438 -25.8185 0)
(2.07105 -25.6376 1.81468e-20)
(1.72642 -25.4804 -3.64158e-20)
(1.44682 -25.3754 -1.88134e-20)
(1.21564 -25.2666 -1.9267e-20)
(0.9793 -25.1787 0)
(0.850293 -25.0993 -1.97046e-20)
(0.635107 -25.0956 -1.66355e-20)
(0.652568 -24.9051 0)
(0.37669 -24.3337 0)
(0.485025 -21.6013 0)