/*--------------------------------*- C++ -*----------------------------------*\
  =========                 |
  \\      /  F ield         | OpenFOAM: The Open Source CFD Toolbox
   \\    /   O peration     | Website:  https://openfoam.org
    \\  /    A nd           | Version:  9
     \\/     M anipulation  |
\*---------------------------------------------------------------------------*/
FoamFile
{
    format      ascii;
    class       volScalarField;
    location    "0.2";
    object      p;
}
// * * * * * * * * * * * * * * * * * * * * * * * * * * * * * * * * * * * * * //

dimensions      [0 2 -2 0 0 0 0];

internalField   nonuniform List<scalar> 
46400
(
-97.6694
-89.4841
-76.0088
-64.7337
-54.4594
-45.0062
-36.5589
-28.7347
-21.676
-15.1464
-9.19913
-3.68341
1.41192
6.16828
10.6542
14.8989
18.8783
23.0146
27.4025
29.1236
-67.6769
-60.1815
-48.1707
-37.7515
-28.5677
-19.9704
-12.362
-5.33526
1.00329
6.81284
12.1155
16.9642
21.4281
25.5025
29.2786
32.7402
35.8755
38.9988
41.7662
42.3425
-37.4673
-30.6145
-20.069
-10.7291
-2.54941
5.05623
11.7748
17.9354
23.4475
28.4754
33.0065
37.1228
40.8667
44.2587
47.3587
50.1686
52.6524
55.0831
57.1721
56.8991
-8.00448
-3.0719
6.33567
15.0073
22.3408
29.1982
35.1465
40.5684
45.3735
49.6934
53.5729
57.0276
60.147
62.9055
65.3947
67.6086
69.522
71.3825
73.0187
72.4771
19.0562
23.7307
32.7634
40.6337
47.2526
53.2573
58.4214
63.022
67.0539
70.6149
73.7681
76.5326
78.9859
81.1215
82.9879
84.6017
85.9362
87.2254
88.2807
87.2985
45.4297
50.4742
58.5352
65.6289
71.2716
76.476
80.8393
84.6918
88.0234
90.8993
93.4205
95.5732
97.4553
99.0566
100.436
101.588
102.515
103.393
104.114
102.955
72.2233
77.9984
84.6151
90.5918
95.2833
99.4416
102.959
105.936
108.496
110.619
112.435
113.925
115.169
116.174
116.988
117.613
118.052
118.455
118.781
117.432
98.3342
104.566
109.457
114.178
117.863
121.077
123.77
126
127.874
129.37
130.594
131.532
132.26
132.773
133.135
133.329
133.374
133.389
133.437
131.937
124.322
129.678
133.476
136.843
139.607
141.825
143.679
145.1
146.24
147.055
147.638
147.978
148.133
148.107
147.957
147.675
147.269
146.872
146.474
144.845
148.154
152.06
155.083
157.46
159.43
160.91
162.085
162.879
163.432
163.693
163.762
163.604
163.291
162.798
162.196
161.468
160.631
159.799
158.974
157.055
169.287
172.399
174.671
176.314
177.576
178.364
178.883
179.056
179.026
178.746
178.315
177.707
176.974
176.094
175.118
174.035
172.851
171.668
170.478
168.387
188.337
190.831
192.542
193.577
194.29
194.53
194.509
194.155
193.605
192.813
191.873
190.781
189.593
188.293
186.918
185.459
183.922
182.384
180.844
178.548
204.905
206.793
208.032
208.564
208.819
208.591
208.136
207.347
206.399
205.243
203.958
202.519
200.993
199.37
197.69
195.94
194.126
192.317
190.53
188.074
220.153
221.573
222.372
222.451
222.239
221.585
220.71
219.493
218.089
216.488
214.78
212.95
211.052
209.085
207.083
205.045
202.968
200.913
198.906
196.347
232.577
233.422
233.891
233.624
233.081
232.099
230.953
229.566
228
226.224
224.31
222.254
220.107
217.872
215.59
213.262
210.903
208.558
206.269
203.489
244.782
244.747
244.719
243.983
243.004
241.556
239.921
238.072
236.109
234.009
231.826
229.557
227.228
224.842
222.422
219.974
217.496
215.043
212.679
209.803
252.913
252.727
252.151
251.246
250.152
248.798
247.127
245.229
243.121
240.872
238.493
236.027
233.493
230.906
228.288
225.648
222.986
220.354
217.828
214.857
260.263
259.943
258.881
257.461
255.865
254.094
252.101
249.967
247.675
245.276
242.783
240.212
237.597
234.928
232.25
229.537
226.818
224.109
221.53
218.474
264.513
264.104
263.035
261.944
260.215
258.435
256.276
254.062
251.609
249.101
246.451
243.763
240.998
238.219
235.41
232.61
229.786
227.012
224.38
221.278
266.078
265.237
264.866
263.513
262.125
260.175
258.092
255.712
253.257
250.626
247.961
245.188
242.413
239.569
236.75
233.9
231.069
228.263
225.655
222.459
-341.164
-340.626
-338.316
-330.403
-320.644
-310.587
-300.833
-291.357
-282.175
-273.271
-264.687
-256.376
-248.409
-240.662
-233.343
-226.114
-219.332
-212.61
-206.341
-200.355
-353.736
-353.198
-348.134
-337.801
-325.924
-314.243
-303.36
-292.744
-282.654
-273.047
-263.808
-254.987
-246.534
-238.397
-230.686
-223.17
-216.166
-209.265
-202.875
-196.722
-365.402
-364.598
-356.256
-343.426
-329.555
-316.395
-304.186
-292.672
-281.734
-271.408
-261.616
-252.284
-243.426
-234.958
-226.997
-219.238
-212.014
-204.896
-198.401
-192.118
-372.86
-372.479
-361.214
-346.545
-331.468
-317.381
-304.186
-291.912
-280.342
-269.457
-259.144
-249.418
-240.187
-231.411
-223.152
-215.178
-207.816
-200.558
-193.987
-187.545
-378.884
-376.227
-362.853
-346.902
-330.921
-316.119
-302.234
-289.306
-277.175
-265.8
-255.089
-244.977
-235.435
-226.411
-217.942
-209.783
-202.234
-194.822
-188.16
-181.613
-380.142
-376.162
-362.034
-344.886
-328.34
-312.862
-298.577
-285.244
-272.747
-261.076
-250.089
-239.782
-230.061
-220.886
-212.277
-204.042
-196.47
-188.95
-182.349
-175.646
-377.798
-374.221
-358.05
-340.34
-323.595
-307.74
-293.042
-279.378
-266.56
-254.602
-243.391
-232.863
-222.974
-213.683
-204.982
-196.709
-189.037
-181.53
-174.993
-168.306
-372.719
-369.285
-353.83
-334.386
-316.994
-300.752
-285.694
-271.807
-258.821
-246.764
-235.476
-224.931
-215.037
-205.74
-197.043
-188.797
-181.183
-173.719
-167.24
-160.515
-366.474
-361.829
-344.509
-325.251
-307.428
-291.112
-275.974
-262.016
-248.997
-236.907
-225.621
-215.067
-205.204
-195.979
-187.356
-179.228
-171.676
-164.326
-157.979
-151.292
-354.585
-349.683
-332.372
-313.035
-295.638
-279.477
-264.421
-250.611
-237.695
-225.717
-214.564
-204.164
-194.451
-185.354
-176.879
-168.929
-161.569
-154.423
-148.334
-141.753
-342.129
-336.058
-318.296
-299.311
-281.548
-265.555
-250.602
-236.903
-224.194
-212.403
-201.452
-191.255
-181.778
-172.941
-164.708
-157.023
-149.876
-143.017
-137.207
-130.829
-324.782
-318.59
-300.749
-282.118
-265.107
-249.551
-235.036
-221.717
-209.314
-197.823
-187.153
-177.215
-167.972
-159.34
-151.329
-143.871
-136.933
-130.311
-124.708
-118.307
-306.739
-299.882
-281.969
-263.742
-246.802
-231.662
-217.473
-204.499
-192.505
-181.371
-171.072
-161.491
-152.607
-144.315
-136.585
-129.387
-122.628
-116.205
-110.58
-104.179
-284.827
-277.948
-260.027
-242.823
-226.592
-212.037
-198.479
-186.02
-174.495
-163.829
-153.96
-144.794
-136.318
-128.432
-121.141
-114.396
-108.107
-102.2
-97.1431
-91.0938
-262.175
-255.032
-237.088
-220.61
-204.894
-190.875
-177.851
-165.906
-154.917
-144.717
-135.324
-126.592
-118.537
-111.045
-104.102
-97.6944
-91.6827
-86.1383
-81.252
-75.4949
-237.16
-229.967
-212.162
-196.608
-181.765
-168.455
-156.141
-144.824
-134.423
-124.814
-115.959
-107.761
-100.207
-93.2084
-86.7704
-80.8528
-75.3284
-70.2987
-65.9225
-60.3397
-211.359
-203.717
-186.441
-171.643
-157.571
-144.906
-133.274
-122.547
-112.744
-103.643
-95.3063
-87.5693
-80.4696
-73.8951
-67.8516
-62.3152
-57.1306
-52.6019
-48.5153
-43.346
-184.142
-176.529
-159.879
-145.856
-132.616
-120.705
-109.793
-99.7688
-90.6157
-82.1755
-74.4206
-67.2607
-60.6672
-54.5914
-49.0341
-43.9288
-39.1711
-35.1531
-31.5021
-26.454
-155.754
-147.908
-132.014
-119.014
-106.712
-95.5516
-85.4456
-76.0635
-67.5497
-59.6436
-52.43
-45.7402
-39.6041
-33.9354
-28.7408
-23.9478
-19.5429
-15.9831
-12.5519
-7.38444
-127.074
-119.376
-104.578
-92.25
-80.9411
-70.5512
-61.1941
-52.5548
-44.683
-37.4049
-30.6853
-24.4384
-18.6026
-13.1531
-8.00529
-3.08516
1.49319
5.8238
10.7606
15.9977
-171.022
-140.558
-110.956
-93.6585
-74.4402
-63.9901
-51.8511
-44.7213
-37.3776
-32.3097
-27.85
-24.2477
-21.5792
-19.184
-17.5916
-16.3143
-15.2947
-15.0365
-14.3642
-14.7059
-167.111
-137.352
-107.836
-91.2269
-72.2282
-62.1726
-50.284
-43.3401
-36.1977
-31.2066
-26.9245
-23.3621
-20.8121
-18.4544
-16.943
-15.7113
-14.7382
-14.5697
-13.9281
-14.329
-162.209
-133.805
-104.551
-88.8564
-69.9841
-60.3962
-48.7405
-41.9644
-35.0392
-30.1337
-25.9856
-22.4736
-20.0309
-17.7072
-16.2592
-15.0935
-14.1679
-14.0888
-13.4557
-13.961
-157.56
-130.115
-100.992
-86.1408
-67.6244
-58.3968
-47.0708
-40.4567
-33.773
-28.9449
-24.9659
-21.5155
-19.1896
-16.9053
-15.5523
-14.4422
-13.5599
-13.5909
-12.9558
-13.5987
-151.748
-126.124
-97.4087
-83.3947
-65.3047
-56.4186
-45.4198
-38.9611
-32.5259
-27.783
-23.9505
-20.5581
-18.3344
-16.0967
-14.8225
-13.7627
-12.9345
-13.0678
-12.4556
-13.243
-146.04
-121.831
-93.5356
-80.3644
-62.7784
-54.242
-43.6454
-37.3356
-31.1748
-26.5146
-22.8511
-19.5354
-17.418
-15.2468
-14.0447
-13.0592
-12.2694
-12.4982
-11.9498
-12.8995
-139.179
-117.34
-89.6537
-77.3276
-60.2794
-52.0806
-41.889
-35.73
-29.8407
-25.2593
-21.767
-18.5087
-16.4981
-14.392
-13.2591
-12.3228
-11.5844
-11.8944
-11.4357
-12.5767
-132.431
-112.209
-85.4564
-73.989
-57.5878
-49.7305
-40.0103
-33.9967
-28.4014
-23.9202
-20.6044
-17.4248
-15.5229
-13.4746
-12.42
-11.5576
-10.8737
-11.2859
-10.8993
-12.2691
-124.742
-106.835
-81.2266
-70.6427
-54.9181
-47.3941
-38.1538
-32.2908
-26.984
-22.6101
-19.4496
-16.338
-14.5399
-12.5569
-11.5778
-10.7712
-10.147
-10.6594
-10.3418
-11.9613
-117.192
-100.98
-76.6796
-67.0023
-52.0647
-44.8766
-36.1744
-30.4635
-25.4673
-21.1973
-18.2185
-15.2024
-13.508
-11.5885
-10.6879
-9.93945
-9.37282
-10.007
-9.76535
-11.6614
-108.781
-94.9024
-72.0651
-63.3497
-49.2282
-42.3755
-34.2204
-28.6684
-23.9683
-19.8127
-17.0005
-14.0588
-12.4711
-10.6107
-9.78593
-9.0986
-8.58911
-9.32026
-9.17774
-11.3887
-97.4516
-88.1238
-67.0862
-59.4069
-46.2163
-39.7012
-32.1438
-26.7619
-22.3794
-18.3449
-15.7098
-12.8769
-11.388
-9.59759
-8.84409
-8.21014
-7.76491
-8.59594
-8.57794
-11.1847
-87.8944
-81.5248
-62.1363
-55.4492
-43.2186
-37.0471
-30.093
-24.8905
-20.8034
-16.9033
-14.4305
-11.6832
-10.3024
-8.57169
-7.88596
-7.31045
-6.92571
-7.82039
-7.9332
-11.1161
-77.5857
-74.2026
-56.7962
-51.2196
-40.0462
-34.2253
-27.9175
-22.9187
-19.1427
-15.3856
-13.0886
-10.4583
-9.17358
-7.51924
-6.89598
-6.364
-6.0458
-6.97592
-7.20322
-11.2135
-66.658
-67.0164
-51.5645
-47.0216
-36.9059
-31.4389
-25.772
-20.9879
-17.4986
-13.8942
-11.7539
-9.22178
-8.04192
-6.45255
-5.89084
-5.40714
-5.14974
-6.22399
-6.37676
-11.4592
-54.551
-59.0571
-46.0678
-42.5748
-33.6132
-28.5122
-23.5207
-18.9877
-15.792
-12.3461
-10.3783
-7.96844
-6.88134
-5.36688
-4.86563
-4.41245
-4.22423
-5.45032
-5.53138
-11.8423
-42.6051
-51.0791
-40.4436
-37.974
-30.2069
-25.5245
-21.2187
-16.967
-14.0602
-10.7872
-8.98047
-6.68516
-5.70326
-4.255
-3.81605
-3.39969
-3.26883
-4.52199
-4.5618
-12.4963
-30.4122
-43.5881
-35.1044
-33.4793
-26.7743
-22.4535
-18.8225
-14.8793
-12.2574
-9.16345
-7.53339
-5.36928
-4.48543
-3.11333
-2.73637
-2.34106
-2.26535
-3.4729
-3.33215
-13.4144
-13.0831
-35.0032
-30.1703
-29.7009
-23.9571
-19.8903
-16.8575
-13.2028
-10.77
-7.79061
-6.26271
-4.19133
-3.39008
-2.06611
-1.73255
-1.35353
-1.30638
-2.45233
-2.30711
-13.8934
6.92045
-21.0466
-22.2658
-23.2109
-19.5712
-16.2639
-14.1195
-10.9387
-8.84766
-6.10054
-4.77002
-2.87934
-2.16769
-0.901688
-0.647894
-0.311922
-0.300101
-1.32207
-1.09351
-12.091
41.5494
43.3013
28.7749
24.3144
16.5713
14.9372
11.7452
11.1114
9.1814
9.09039
8.15125
8.52716
7.85169
8.09477
7.56127
7.61548
7.2034
6.76118
6.79198
6.1792
85.3889
74.8064
56.8746
49.2179
39.02
34.2241
28.6941
25.8386
22.6069
20.8147
18.5269
17.5672
16.1404
15.9198
14.8847
14.9001
14.0534
14.1807
13.5455
13.8805
91.9648
80.9702
70.5142
63.0721
55.4003
49.89
44.5033
41.1752
37.4928
35.4601
33.1041
31.7179
29.7778
29.0043
27.6629
27.3432
26.4192
26.3688
25.7544
26.178
92.8958
86.8752
77.135
71.3777
63.8983
59.8008
54.2938
51.0675
46.9089
44.5983
41.391
39.8713
37.4843
36.369
34.438
33.8449
32.478
32.4357
31.4674
32.2013
86.9881
80.9545
76.569
71.7454
66.8997
63.4047
59.1065
56.486
52.946
51.1101
48.2915
46.9715
44.9039
44.1027
42.6171
42.0629
41.2257
40.7684
40.7442
40.316
85.1561
81.8322
77.8395
74.0052
69.8892
67.0249
63.3442
61.2551
57.9715
56.3078
53.5659
52.336
50.0353
49.0904
47.397
46.603
45.5605
44.9201
44.6291
44.0462
80.5241
77.7089
75.6014
73.4912
70.8469
68.9773
65.8135
64.3781
61.591
60.3865
57.8984
57.0451
55.1576
54.3766
52.9639
52.2414
51.2372
50.6971
50.0737
49.3733
79.5693
77.7396
75.8975
73.878
70.8393
69.5589
67.1724
66.1335
63.8285
62.9467
61.0253
60.0856
58.4554
57.7202
56.4626
55.9126
54.815
54.4365
53.411
52.8925
76.563
75.3246
73.9417
73.0387
72.0726
70.9897
69.0038
68.2324
66.3073
65.5731
63.9109
63.2301
61.8193
61.2028
60.0197
59.5753
58.6564
58.295
57.4031
57.5145
76.5704
75.7853
74.7501
73.9806
72.3049
71.7966
70.2458
69.569
68.0258
67.4204
66.044
65.4509
64.244
63.703
62.6455
62.212
61.2148
61.0116
60.0129
60.1612
75.881
74.8667
74.3148
73.3461
72.8871
71.9869
71.2581
70.6573
69.7011
69.2573
68.2514
67.9178
66.8237
66.6792
65.4253
65.4678
63.9826
64.3147
62.3707
62.9494
77.3442
75.7249
75.6039
73.8649
73.7022
73.0401
72.4206
72.0622
71.1969
71.0045
70.0288
69.8942
68.4746
68.7843
67.274
67.7418
66.0302
67.528
64.9658
66.7509
77.4291
74.0766
74.193
73.7447
73.5337
73.7095
72.8984
73.4235
72.2483
72.8025
71.5551
72.7448
70.9443
72.5737
69.926
72.3371
69.5143
71.1505
69.2895
71.1714
74.0097
75.9193
74.4628
76.2589
75.0957
75.882
74.9372
75.1755
73.7355
74.9992
72.692
74.5546
71.9729
73.8289
71.329
72.9971
70.8463
72.3404
70.5176
71.2933
77.309
77.2011
77.0088
77.0162
75.8346
76.5963
75.3371
77.0039
75.1826
78.0134
74.5213
77.0036
73.638
75.8561
73.1455
73.3687
71.4671
71.0593
69.4841
67.4647
77.0246
77.678
77.0054
78.1809
77.2362
78.9271
76.6244
79.4964
76.4457
79.2717
76.083
80.2397
75.5799
80.5565
74.3225
78.3311
72.0573
70.5109
67.5135
63.1736
76.9485
78.4975
77.1857
78.9131
77.6886
79.3753
78.2103
79.9502
78.3393
81.9164
78.6262
83.249
78.5082
83.5622
78.65
84.0855
78.2258
84.0484
72.2077
75.8034
79.7043
80.1367
80.0957
80.4979
80.4705
81.2369
80.1169
82.9738
80.9677
84.575
81.6625
87.7356
83.4735
90.1027
86.1414
91.1586
87.2591
91.3127
92.8537
95.741
79.547
80.1385
79.7395
80.4976
80.5601
81.8224
80.871
83.2075
81.9734
85.8939
84.011
90.2545
85.4114
93.5646
88.2293
98.369
91.8538
101.364
98.0082
102.957
79.896
80.4805
80.5103
81.1675
81.0469
81.801
81.8654
82.34
82.2538
83.9991
83.1881
102.943
91.0259
108.579
98.9614
120.075
111.178
140.793
115.266
173.264
186.461
185.835
184.65
182.796
180.281
177.289
173.352
169.233
163.933
158.586
151.904
145.303
137.391
129.425
120.575
109.876
100.528
90.3035
80.0214
69.2346
157.748
157.462
156.871
155.999
154.833
153.392
151.651
149.691
147.353
144.922
142.15
139.315
134.685
130.742
127.252
123.657
119.44
115.413
110.639
104.927
122.659
122.533
122.311
121.943
121.491
120.902
120.204
119.404
118.498
117.5
116.339
115.147
113.68
112.383
110.491
109.03
106.875
105.114
102.71
100.739
111.289
111.22
111.113
110.901
110.68
110.316
109.966
109.452
108.921
108.278
107.57
106.797
105.931
105.02
104.013
103.027
101.877
100.855
99.6466
98.4795
95.7519
95.7109
95.6537
95.5348
95.4172
95.2277
95.0478
94.7952
94.5534
94.2525
93.9407
93.5989
93.2102
92.8203
92.3373
91.9134
91.329
90.8856
90.1726
89.6836
90.5509
90.5208
90.4911
90.4029
90.3408
90.2005
90.1005
89.9168
89.7698
89.5496
89.3485
89.0904
88.8282
88.5398
88.2222
87.8983
87.5209
87.1625
86.7299
86.3923
84.5506
84.5264
84.5113
84.4374
84.404
84.2866
84.2299
84.073
83.988
83.8005
83.6758
83.4697
83.3002
83.0817
82.8656
82.6349
82.3704
82.1238
81.813
81.5426
82.1479
82.1266
82.1191
82.0543
82.0334
81.9325
81.8933
81.7689
81.7068
81.5644
81.4799
81.3297
81.2141
81.0685
80.9168
80.7731
80.5978
80.4454
80.2624
80.0624
79.3106
79.2717
79.293
79.1972
79.2234
79.1005
79.1268
78.9964
78.9902
78.8676
78.8248
78.7004
78.621
78.4959
78.3578
78.2156
78.0107
77.7904
77.4321
77.0603
78.2664
78.2409
78.2643
78.1772
78.2387
78.1365
78.2124
78.0744
78.1415
77.9991
78.0312
77.8959
77.8643
77.7523
77.6827
77.568
77.482
77.3597
77.2396
77.0372
77.6562
77.6524
77.6782
77.6557
77.725
77.5578
77.5802
77.372
77.425
77.1509
77.1259
76.9281
76.8931
76.7227
76.6786
76.5127
76.4634
76.3102
76.2154
76.0848
77.5607
77.5642
77.5879
77.6022
77.6582
77.6673
77.7493
77.7256
77.8321
77.8145
77.8366
77.7137
77.6418
77.5008
77.4673
77.2611
77.2482
76.8121
76.9672
76.6489
76.3884
76.4264
76.4373
76.4398
76.4413
76.3747
76.3438
76.2593
76.1747
76.1257
76.1243
76.1504
76.2731
76.2584
76.4484
76.3804
76.6429
76.4785
76.8705
76.9969
76.6195
76.6147
76.6215
76.603
76.5743
76.45
76.3957
76.2151
76.1315
75.9238
75.8299
75.6053
75.4966
75.2817
75.1764
74.983
74.8776
74.6838
74.5529
74.3556
77.1215
77.0891
77.0672
76.9986
76.9927
76.9542
76.9822
76.9276
76.9427
76.8607
76.871
76.8042
76.8273
76.8083
76.8568
76.8533
76.8818
76.8213
76.8875
77.0804
77.4855
77.4644
77.464
77.4299
77.4232
77.3945
77.4023
77.4143
77.4003
77.4443
77.4117
77.4286
77.3323
77.3351
77.1672
77.2717
77.1224
77.2726
77.1313
77.1354
78.1903
78.1456
78.1999
78.1381
78.1699
78.1082
78.0936
78.0501
78.021
77.9948
77.9316
77.9625
77.8408
77.9368
77.7042
77.8726
77.5882
77.8055
77.5245
77.7307
78.4165
78.3919
78.443
78.4235
78.4851
78.5046
78.5778
78.6255
78.6815
78.764
78.8184
78.9882
79.0856
79.2692
79.4007
79.5421
79.4969
79.6427
79.3015
79.6449
78.738
78.7471
78.7744
78.7814
78.8407
78.836
78.8619
78.8607
78.8808
78.9024
78.9287
78.9809
79.0366
79.1095
79.1558
79.2382
79.275
79.4302
79.4126
79.556
79.0501
79.0458
79.0757
79.0551
79.086
79.0859
79.1283
79.158
79.2037
79.2456
79.2971
79.349
79.4033
79.4648
79.5118
79.5924
79.6158
79.7435
79.686
79.8758
29.1062
27.3843
22.9956
18.8586
14.8785
10.633
6.14614
1.38883
-3.70754
-9.22442
-15.1729
-21.7038
-28.764
-36.5897
-45.0385
-54.4934
-64.7694
-76.0462
-89.5237
-97.7091
42.325
41.7483
38.9803
35.8565
32.7204
29.258
25.4809
21.4055
16.9405
12.0906
6.78677
0.975948
-5.3639
-12.3921
-20.002
-28.601
-37.7867
-48.2073
-60.2213
-67.7176
56.8827
57.1551
55.0651
52.6337
50.1491
47.3383
44.2375
40.8445
37.0995
32.982
28.4497
23.4206
17.9071
11.7452
5.02509
-2.58216
-10.7634
-20.1047
-30.6523
-37.508
72.4619
73.0029
71.3658
69.5045
67.5903
65.3755
62.8854
60.1258
57.0054
53.5495
49.6689
45.3477
40.5412
35.1179
29.1681
22.309
14.9739
6.30076
-3.10786
-8.04163
87.2832
88.265
87.2092
85.9194
84.5843
82.9697
81.1026
78.966
76.5119
73.7462
70.5918
67.0294
62.9959
58.3937
53.2278
47.2212
40.6004
32.7283
23.6937
19.0195
102.942
104.101
103.379
102.5
101.572
100.42
99.0394
97.4371
95.554
93.4001
90.8775
88
84.6667
80.8125
76.4473
71.2409
65.5963
58.5004
50.4367
45.3924
117.42
118.768
118.442
118.038
117.599
116.973
116.158
115.153
113.908
112.416
110.599
108.474
105.914
102.934
99.415
95.2544
90.5604
84.5809
77.961
72.1853
131.927
133.428
133.379
133.363
133.318
133.124
132.761
132.246
131.518
130.578
129.353
127.855
125.98
123.747
121.053
117.836
114.148
109.424
104.529
98.2978
144.838
146.467
146.864
147.261
147.666
147.948
148.097
148.123
147.966
147.625
147.041
146.225
145.083
143.66
141.804
139.583
136.817
133.447
129.648
124.285
157.051
158.97
159.794
160.626
161.462
162.19
162.791
163.283
163.595
163.752
163.682
163.419
162.864
162.069
160.891
159.409
157.437
155.058
152.034
148.123
168.386
170.476
171.665
172.848
174.032
175.114
176.09
176.969
177.701
178.308
178.738
179.016
179.046
178.871
178.35
177.561
176.296
174.652
172.378
169.263
178.548
180.845
182.384
183.923
185.459
186.918
188.293
189.592
190.78
191.871
192.81
193.6
194.149
194.501
194.519
194.278
193.562
192.526
190.813
188.318
188.077
190.534
192.321
194.13
195.943
197.693
199.373
200.995
202.521
203.959
205.243
206.397
207.344
208.131
208.584
208.81
208.552
208.019
206.777
204.891
196.351
198.91
200.918
202.973
205.051
207.089
209.092
211.059
212.957
214.785
216.494
218.091
219.495
220.708
221.581
222.232
222.439
222.358
221.553
220.14
203.496
206.276
208.567
210.912
213.272
215.601
217.883
220.118
222.265
224.321
226.234
228.008
229.573
230.956
232.101
233.077
233.615
233.879
233.4
232.563
209.811
212.687
215.053
217.506
219.987
222.435
224.857
227.243
229.574
231.842
234.026
236.123
238.086
239.93
241.562
243
243.973
244.697
244.704
244.733
214.865
217.837
220.365
222.998
225.662
228.303
230.924
233.511
236.047
238.515
240.895
243.144
245.253
247.149
248.819
250.163
251.259
252.145
252.712
252.875
218.482
221.539
224.12
226.83
229.551
232.265
234.946
237.616
240.234
242.807
245.303
247.704
249.998
252.131
254.126
255.891
257.484
258.88
259.928
260.146
221.282
224.384
227.019
229.795
232.619
235.422
238.232
241.016
243.78
246.477
249.122
251.649
254.086
256.337
258.457
260.301
261.951
263.147
264.035
264.289
222.462
225.657
228.266
231.073
233.906
236.756
239.578
242.421
245.203
247.974
250.652
253.275
255.755
258.119
260.247
262.172
263.689
264.866
265.494
265.736
-200.364
-206.349
-212.618
-219.338
-226.12
-233.348
-240.666
-248.412
-256.378
-264.687
-273.27
-282.172
-291.353
-300.827
-310.581
-320.636
-330.393
-338.305
-340.614
-341.151
-196.732
-202.885
-209.275
-216.174
-223.178
-230.692
-238.403
-246.538
-254.99
-263.81
-273.047
-282.654
-292.742
-303.357
-314.239
-325.918
-337.795
-348.125
-353.185
-353.722
-192.129
-198.412
-204.907
-212.024
-219.247
-227.005
-234.965
-243.432
-252.289
-261.62
-271.41
-281.736
-292.672
-304.184
-316.391
-329.549
-343.418
-356.244
-364.583
-365.388
-187.558
-194
-200.569
-207.827
-215.188
-223.162
-231.42
-240.195
-249.424
-259.149
-269.462
-280.345
-291.914
-304.187
-317.38
-331.465
-346.54
-361.204
-372.471
-372.854
-181.627
-188.174
-194.835
-202.246
-209.795
-217.953
-226.421
-235.445
-244.986
-255.097
-265.808
-277.181
-289.311
-302.238
-316.121
-330.921
-346.899
-362.847
-376.226
-378.88
-175.661
-182.364
-188.963
-196.482
-204.054
-212.289
-220.897
-230.072
-239.793
-250.098
-261.086
-272.755
-285.251
-298.584
-312.869
-328.345
-344.892
-362.042
-376.163
-380.14
-168.32
-175.007
-181.544
-189.052
-196.723
-204.996
-213.696
-222.988
-232.876
-243.403
-254.614
-266.572
-279.388
-293.052
-307.749
-323.603
-340.348
-358.055
-374.227
-377.804
-160.53
-167.254
-173.734
-181.198
-188.812
-197.059
-205.755
-215.052
-224.946
-235.49
-246.778
-258.835
-271.82
-285.707
-300.765
-317.006
-334.396
-353.841
-369.293
-372.724
-151.307
-157.995
-164.342
-171.693
-179.245
-187.373
-195.996
-205.22
-215.083
-225.638
-236.923
-249.013
-262.032
-275.989
-291.127
-307.442
-325.265
-344.523
-361.842
-366.487
-141.771
-148.352
-154.441
-161.587
-168.947
-176.898
-185.372
-194.469
-204.183
-214.582
-225.735
-237.713
-250.629
-264.439
-279.494
-295.655
-313.052
-332.389
-349.699
-354.6
-130.847
-137.225
-143.035
-149.895
-157.042
-164.726
-172.96
-181.797
-191.274
-201.471
-212.422
-224.214
-236.922
-250.622
-265.575
-281.568
-299.332
-318.315
-336.076
-342.148
-118.324
-124.725
-130.329
-136.951
-143.89
-151.348
-159.359
-167.992
-177.235
-187.173
-197.845
-209.336
-221.739
-235.058
-249.573
-265.13
-282.141
-300.773
-318.613
-324.804
-104.194
-110.596
-116.222
-122.646
-129.405
-136.604
-144.335
-152.627
-161.512
-171.093
-181.393
-192.527
-204.522
-217.497
-231.686
-246.826
-263.767
-281.995
-299.909
-306.765
-91.1101
-97.1601
-102.218
-108.125
-114.415
-121.16
-128.452
-136.339
-144.816
-153.982
-163.852
-174.519
-186.044
-198.505
-212.063
-226.619
-242.851
-260.055
-277.976
-284.855
-75.5096
-81.2675
-86.1548
-91.7001
-97.7126
-104.121
-111.065
-118.558
-126.614
-135.347
-144.741
-154.941
-165.931
-177.877
-190.902
-204.922
-220.639
-237.119
-255.063
-262.206
-60.3556
-65.9388
-70.3159
-75.3463
-80.8716
-86.79
-93.2289
-100.229
-107.783
-115.983
-124.839
-134.449
-144.85
-156.168
-168.483
-181.794
-196.639
-212.194
-230
-237.192
-43.3609
-48.5308
-52.6184
-57.1481
-62.3337
-67.871
-73.9156
-80.4912
-87.592
-95.3303
-103.668
-112.771
-122.575
-133.303
-144.936
-157.602
-171.676
-186.476
-203.752
-211.394
-26.4699
-31.5185
-35.1704
-39.1893
-43.9481
-49.0543
-54.6126
-60.6894
-67.2841
-74.445
-82.201
-90.6425
-99.7967
-109.822
-120.736
-132.648
-145.89
-159.914
-176.566
-184.18
-7.40037
-12.5681
-16.0003
-19.5613
-23.9671
-28.7611
-33.9568
-39.6266
-45.7638
-52.4549
-59.6698
-67.5772
-76.0924
-85.4759
-95.5834
-106.746
-119.049
-132.051
-147.947
-155.793
15.9817
10.7437
5.80596
1.47453
-3.10483
-8.02597
-13.1749
-18.6254
-24.4624
-30.7104
-37.4312
-44.7106
-52.5836
-61.2243
-70.5829
-80.9745
-92.2854
-104.615
-119.415
-127.114
-14.7511
-14.4051
-15.0815
-15.3348
-16.3598
-17.633
-19.2227
-21.6243
-24.2831
-27.8916
-32.3463
-37.4141
-44.7554
-51.8822
-64.0178
-74.4634
-93.6802
-110.973
-140.574
-171.033
-14.3736
-13.9683
-14.6142
-14.7767
-15.7555
-16.9827
-18.4927
-20.8584
-23.3962
-26.965
-31.2424
-36.234
-43.3728
-50.3141
-62.2
-72.2512
-91.2489
-107.853
-137.366
-167.123
-14.0046
-13.4944
-14.1333
-14.2049
-15.1381
-16.293
-17.7442
-20.0767
-22.5058
-26.0254
-30.1685
-35.0749
-41.9972
-48.7705
-60.4228
-70.0054
-88.8786
-104.568
-133.82
-162.221
-13.6414
-12.9932
-13.6358
-13.5974
-14.4875
-15.5855
-16.9401
-19.2366
-21.5471
-25.0049
-28.9789
-33.8081
-40.4884
-47.0996
-58.4232
-67.6463
-86.1621
-101.008
-130.129
-157.572
-13.2847
-12.4926
-13.1103
-12.9695
-13.8083
-14.8569
-16.1329
-18.3799
-20.5873
-23.9892
-27.8164
-32.5605
-38.9929
-45.4485
-56.4441
-65.3263
-83.4151
-97.4249
-126.138
-151.761
-12.9401
-11.9853
-12.5376
-12.2987
-13.104
-14.0765
-15.2826
-17.4644
-19.563
-22.8902
-26.5467
-31.2086
-37.3665
-43.6728
-54.2673
-62.8001
-80.384
-93.5516
-121.844
-146.053
-12.6164
-11.47
-11.9336
-11.6044
-12.367
-13.2879
-14.4273
-16.5437
-18.5344
-21.8063
-25.2943
-29.8739
-35.7611
-41.9161
-52.1051
-60.3003
-77.3465
-89.6697
-117.353
-139.193
-12.3077
-10.933
-11.3267
-10.8951
-11.5988
-12.448
-13.5143
-15.5654
-17.4503
-20.6415
-23.9526
-28.4356
-34.027
-40.0364
-49.7547
-57.6087
-74.0074
-85.4723
-112.221
-132.444
-11.9988
-10.3743
-10.6999
-10.1736
-10.8111
-11.6043
-12.5967
-14.5807
-16.3633
-19.4864
-22.6412
-27.0163
-32.3212
-38.1794
-47.4176
-54.938
-70.6605
-81.2423
-106.847
-124.756
-11.6978
-9.7967
-10.0469
-9.40232
-9.97894
-10.713
-11.6298
-13.5457
-15.2275
-18.2545
-21.2288
-25.4993
-30.4934
-36.199
-44.8997
-52.0842
-67.0196
-76.6952
-100.991
-117.207
-11.4239
-9.20784
-9.35896
-8.61819
-9.13679
-9.81201
-10.6539
-12.5045
-14.0848
-17.0354
-19.8437
-23.9995
-28.6984
-34.2443
-42.3979
-49.2468
-63.3665
-72.0802
-94.9135
-108.796
-11.2182
-8.60696
-8.63575
-7.79298
-8.24842
-8.8691
-9.63772
-11.4192
-12.9044
-15.7444
-18.3755
-22.41
-26.7913
-32.1668
-39.7232
-46.2344
-59.4231
-67.101
-88.1341
-97.4641
-11.1476
-7.96165
-7.85903
-6.95278
-7.34851
-7.91192
-8.61243
-10.3305
-11.7117
-14.4641
-16.934
-20.8336
-24.9202
-30.1151
-37.0685
-43.2357
-55.4649
-62.1505
-81.5348
-87.9075
-11.2432
-7.23176
-7.01367
-6.07329
-6.40082
-6.91989
-7.55564
-9.20059
-10.4891
-13.1218
-15.4155
-19.173
-22.9474
-27.9388
-34.2463
-40.0626
-51.2349
-56.8112
-74.2117
-77.5997
-11.4879
-6.40598
-6.25572
-5.17686
-5.44303
-5.91488
-6.48999
-8.06653
-9.25347
-11.7863
-13.9243
-17.5289
-21.0167
-25.7923
-31.4591
-36.9215
-47.0364
-51.5787
-67.025
-66.6724
-11.8707
-5.55759
-5.48421
-4.25188
-4.44549
-4.88782
-5.40021
-6.90466
-8.00313
-10.4103
-12.376
-15.8225
-19.0153
-23.5398
-28.5319
-33.628
-42.5891
-46.0807
-59.0647
-54.5662
-12.5227
-4.58745
-4.56044
-3.2965
-3.43223
-3.83898
-4.28928
-5.72521
-6.72073
-9.01194
-10.8173
-14.0905
-16.9943
-21.237
-25.5433
-30.221
-37.9878
-40.4551
-51.0859
-42.6206
-13.4396
-3.35949
-3.50854
-2.29381
-2.36908
-2.75767
-3.14178
-4.50599
-5.40793
-7.56479
-9.19334
-12.2882
-14.9055
-18.8392
-22.4715
-26.7875
-33.4924
-35.114
-43.5932
-30.4285
-13.916
-2.33393
-2.48919
-1.33572
-1.3774
-1.75192
-2.08977
-3.40963
-4.23342
-6.29415
-7.82117
-10.8014
-13.2281
-16.8723
-19.9067
-23.9687
-29.7121
-30.1765
-35.0065
-13.0996
-12.1137
-1.12238
-1.35731
-0.328085
-0.344333
-0.673154
-0.936355
-2.18797
-2.92468
-4.79979
-6.12878
-8.87821
-10.9616
-14.1346
-16.2811
-19.5829
-23.2222
-22.2718
-21.053
6.90329
6.14135
6.74794
6.72496
7.16611
7.56718
7.52212
8.04931
7.81766
8.51533
8.12934
9.07144
9.16469
11.0903
11.7209
14.9133
16.5487
24.2897
28.7501
43.2725
41.5285
13.8515
13.5238
14.1509
14.033
14.8769
14.8629
15.9013
16.1107
17.5434
18.4997
20.7968
22.5861
25.8213
28.6775
34.2087
39.0056
49.2015
56.8587
74.7908
85.3776
26.1563
25.7294
26.346
26.3956
27.3151
27.6452
28.9691
29.7663
31.6961
33.0906
35.4384
37.4734
41.1587
44.4866
49.8744
55.3854
63.0579
70.5012
80.9582
91.9554
32.1794
31.445
32.416
32.4577
33.8296
34.4178
36.3596
37.4704
39.8522
41.3743
44.5833
46.8957
51.0528
54.2805
59.7878
63.8862
71.3669
77.1241
86.8668
92.8872
40.3019
40.7293
40.7568
41.208
42.0473
42.599
44.0848
44.88
46.9559
48.2728
51.0963
52.9285
56.4722
59.0918
63.3921
66.8875
71.734
76.5589
80.9454
86.9805
44.0278
44.6106
44.8973
45.5455
46.5815
47.3799
49.0734
50.0218
52.3204
53.5536
56.2925
57.9588
61.2416
63.3309
67.0123
69.8805
73.9978
77.8331
81.8258
85.152
49.3545
50.0547
50.6807
51.2129
52.2307
52.9465
54.3641
55.1407
57.0319
57.8822
60.3748
61.5781
64.3675
65.8024
68.9687
70.8364
73.4814
75.5924
77.7011
80.517
52.8794
53.3994
54.4265
54.8064
55.9035
56.4505
57.7095
58.4437
60.0751
61.0148
62.9361
63.8178
66.1231
67.1637
69.5494
70.8275
73.8669
75.8885
77.7333
79.5647
57.5003
57.3888
58.2793
58.6427
59.5577
60.0059
61.188
61.8064
63.2166
63.899
65.5607
66.2964
68.2218
68.9936
70.9807
72.0658
73.0332
73.9372
75.3183
76.5578
60.1497
60.0009
60.9991
61.2027
62.1999
62.6336
63.6914
64.2325
65.4397
66.0327
67.4096
68.0155
69.5589
70.2359
71.7885
72.2968
73.9714
74.743
75.7777
76.5652
62.9345
62.3565
64.3008
63.969
65.4542
65.4129
66.6663
66.8122
67.9055
68.2408
69.2451
69.6909
70.6462
71.2492
71.9752
72.8795
73.3366
74.309
74.8607
75.8759
66.7369
64.9519
67.5154
66.0182
67.7306
67.2645
68.7739
68.4687
69.8824
70.015
70.9916
71.1863
72.0488
72.4104
73.0229
73.6894
73.8499
75.5994
75.7204
77.34
71.1554
69.2746
71.1351
69.5009
72.3216
69.9122
72.5585
70.927
72.7297
71.552
72.7912
72.2425
73.4139
72.8961
73.7007
73.5356
73.7355
74.2031
74.0705
77.4246
71.2779
70.5039
72.3258
70.8331
72.9825
71.319
73.8155
71.9635
74.5403
72.6829
74.984
73.7324
75.1646
74.9318
75.8601
75.0984
76.2842
74.4631
75.923
74.0049
67.4468
69.468
71.0403
71.4513
73.3484
73.1322
75.8394
73.6299
76.9967
74.5169
78.0129
75.1847
77.0104
75.3369
76.6266
75.8253
77.0066
77.0052
77.1968
77.3051
63.1537
67.4978
70.4944
72.0425
78.3184
74.3087
80.5417