/*--------------------------------*- C++ -*----------------------------------*\
  =========                 |
  \\      /  F ield         | OpenFOAM: The Open Source CFD Toolbox
   \\    /   O peration     | Website:  https://openfoam.org
    \\  /    A nd           | Version:  9
     \\/     M anipulation  |
\*---------------------------------------------------------------------------*/
FoamFile
{
    format      ascii;
    class       surfaceScalarField;
    location    "0.2";
    object      phi;
}
// * * * * * * * * * * * * * * * * * * * * * * * * * * * * * * * * * * * * * //

dimensions      [0 3 -1 0 0 0 0];

internalField   nonuniform List<scalar> 
92080
(
-0.00408521
-0.477029
0.481114
-0.0301397
-0.943679
0.969733
-0.0734492
-1.02608
1.06939
-0.117159
-1.00948
1.05319
-0.159731
-0.993648
1.03622
-0.201497
-0.976775
1.01854
-0.242436
-0.961387
1.00233
-0.283236
-0.946263
0.987063
-0.323513
-0.933065
0.973341
-0.363186
-0.920199
0.959873
-0.402429
-0.908709
0.947952
-0.440907
-0.89825
0.936728
-0.478573
-0.888177
0.925843
-0.515687
-0.878472
0.915586
-0.551589
-0.868901
0.904804
-0.586844
-0.858452
0.893706
-0.62059
-0.849604
0.88335
-0.652684
-0.838767
0.870862
-0.683873
-0.828305
0.859493
-0.822093
0.850357
-0.712137
-0.00629668
-0.470732
-0.0343123
-0.915663
-0.0776975
-0.982694
-0.122065
-0.96511
-0.165195
-0.950518
-0.207619
-0.93435
-0.249429
-0.919577
-0.290547
-0.905145
-0.331541
-0.892071
-0.372282
-0.879458
-0.413004
-0.867987
-0.453391
-0.857864
-0.49322
-0.848347
-0.53207
-0.839623
-0.569569
-0.831403
-0.606242
-0.821778
-0.641785
-0.814061
-0.675272
-0.805281
-0.707777
-0.7958
-0.790251
-0.739619
-0.00775781
-0.462974
-0.0394943
-0.883927
-0.085184
-0.937004
-0.131258
-0.919036
-0.176759
-0.905017
-0.221251
-0.889859
-0.264787
-0.876041
-0.307614
-0.862319
-0.34973
-0.849954
-0.39128
-0.837908
-0.432659
-0.826608
-0.473695
-0.816829
-0.51421
-0.807832
-0.554657
-0.799176
-0.593648
-0.792411
-0.631966
-0.783461
-0.669956
-0.776071
-0.70543
-0.769807
-0.740266
-0.760964
-0.7544
-0.776116
-0.00895332
-0.454021
-0.0450247
-0.847855
-0.0910202
-0.891009
-0.137511
-0.872545
-0.183315
-0.859213
-0.228485
-0.844689
-0.272868
-0.831658
-0.316464
-0.818722
-0.359524
-0.806895
-0.401843
-0.795589
-0.444105
-0.784346
-0.48663
-0.774303
-0.528699
-0.765763
-0.570859
-0.757016
-0.612193
-0.751076
-0.651841
-0.743813
-0.69238
-0.735531
-0.731933
-0.730254
-0.768786
-0.724111
-0.717118
-0.806068
-0.00689316
-0.447128
-0.0470847
-0.807664
-0.0945446
-0.843549
-0.14291
-0.82418
-0.191241
-0.810882
-0.238965
-0.796965
-0.28591
-0.784713
-0.331718
-0.772914
-0.376803
-0.761809
-0.420684
-0.751707
-0.463597
-0.741434
-0.506547
-0.731353
-0.549103
-0.723207
-0.592041
-0.714078
-0.635405
-0.707712
-0.676516
-0.702703
-0.716956
-0.695091
-0.758507
-0.688702
-0.798619
-0.684
-0.678208
-0.837529
-0.00365416
-0.443473
-0.0456811
-0.765637
-0.0963822
-0.792848
-0.146314
-0.774248
-0.195528
-0.761669
-0.244
-0.748492
-0.292024
-0.73669
-0.339175
-0.725762
-0.385749
-0.715236
-0.431464
-0.705993
-0.475817
-0.697081
-0.520057
-0.687113
-0.56361
-0.679654
-0.606631
-0.671057
-0.65154
-0.662803
-0.696206
-0.658038
-0.738817
-0.65248
-0.781557
-0.645962
-0.82418
-0.641377
-0.636227
-0.866161
-0.00153408
-0.441939
-0.0463708
-0.7208
-0.099131
-0.740087
-0.151275
-0.722104
-0.202571
-0.710373
-0.25274
-0.698323
-0.302339
-0.68709
-0.350988
-0.677114
-0.398992
-0.667232
-0.446496
-0.65849
-0.492203
-0.651374
-0.537218
-0.642097
-0.582319
-0.634553
-0.625383
-0.627992
-0.668609
-0.619578
-0.713247
-0.613399
-0.756994
-0.608732
-0.800143
-0.602814
-0.843423
-0.598097
-0.593529
-0.88612
-0.000362736
-0.441577
-0.0482083
-0.672955
-0.103643
-0.684653
-0.156462
-0.669284
-0.208467
-0.658368
-0.258893
-0.647897
-0.308851
-0.637132
-0.358015
-0.62795
-0.406525
-0.618721
-0.455413
-0.609602
-0.503186
-0.603601
-0.549121
-0.596162
-0.595496
-0.588178
-0.640974
-0.582515
-0.684921
-0.575631
-0.729798
-0.568523
-0.77483
-0.5637
-0.819089
-0.558555
-0.863346
-0.55384
-0.549619
-0.907257
-0.0050972
-0.436479
-0.0563681
-0.621684
-0.11344
-0.627582
-0.167279
-0.615444
-0.220605
-0.605043
-0.272145
-0.596358
-0.322751
-0.586526
-0.372805
-0.577896
-0.421219
-0.570307
-0.469814
-0.561006
-0.518667
-0.554748
-0.56526
-0.549569
-0.611176
-0.542262
-0.65709
-0.536601
-0.701113
-0.531607
-0.744501
-0.525135
-0.788507
-0.519694
-0.832208
-0.514854
-0.875832
-0.510216
-0.506297
-0.919154
-0.0127746
-0.423705
-0.0649619
-0.569497
-0.120944
-0.571599
-0.174582
-0.561806
-0.227338
-0.552287
-0.27884
-0.544855
-0.329047
-0.536319
-0.379536
-0.527406
-0.428791
-0.521053
-0.477441
-0.512356
-0.52799
-0.504199
-0.57793
-0.499629
-0.626012
-0.49418
-0.674286
-0.488327
-0.721676
-0.484217
-0.767107
-0.479704
-0.811955
-0.474846
-0.856361
-0.470448
-0.900451
-0.466126
-0.462438
-0.94431
-0.0209
-0.402805
-0.0754037
-0.514993
-0.132438
-0.514565
-0.186824
-0.50742
-0.240667
-0.498445
-0.293391
-0.492131
-0.343984
-0.485727
-0.394415
-0.476975
-0.443999
-0.471468
-0.490488
-0.465867
-0.537419
-0.457268
-0.586178
-0.45087
-0.634236
-0.446122
-0.681685
-0.440878
-0.729846
-0.436056
-0.777316
-0.432234
-0.823833
-0.428329
-0.86957
-0.42471
-0.91466
-0.421037
-0.417692
-0.959405
-0.0279527
-0.374852
-0.0829927
-0.459953
-0.139668
-0.457889
-0.193591
-0.453496
-0.247318
-0.444718
-0.300942
-0.438507
-0.352255
-0.434414
-0.402854
-0.426377
-0.455245
-0.419077
-0.505702
-0.415411
-0.552874
-0.410096
-0.6001
-0.403644
-0.648043
-0.398179
-0.695207
-0.393714
-0.742055
-0.389208
-0.789157
-0.385133
-0.836039
-0.381447
-0.882616
-0.378133
-0.928631
-0.375022
-0.372039
-0.974284
-0.0324152
-0.342437
-0.0877536
-0.404615
-0.14574
-0.399903
-0.202032
-0.397204
-0.256655
-0.390096
-0.312549
-0.382612
-0.366526
-0.380437
-0.415827
-0.377075
-0.465114
-0.36979
-0.516018
-0.364506
-0.565687
-0.360427
-0.613318
-0.356013
-0.660636
-0.350862
-0.708266
-0.346085
-0.755589
-0.341884
-0.802714
-0.338008
-0.849748
-0.334412
-0.896731
-0.33115
-0.943475
-0.328278
-0.325629
-0.989886
-0.0372939
-0.305143
-0.0922623
-0.349646
-0.149779
-0.342386
-0.206308
-0.340675
-0.259592
-0.336812
-0.314259
-0.327946
-0.372551
-0.322145
-0.42853
-0.321097
-0.480405
-0.317915
-0.530948
-0.313963
-0.581171
-0.310204
-0.630256
-0.306928
-0.677522
-0.303595
-0.723832
-0.299774
-0.769904
-0.295812
-0.815619
-0.292294
-0.861182
-0.288849
-0.90674
-0.285592
-0.952434
-0.282583
-0.279723
-0.99834
-0.0389154
-0.266228
-0.0938987
-0.294663
-0.152155
-0.28413
-0.211261
-0.281569
-0.265393
-0.28268
-0.314321
-0.279018
-0.365923
-0.270542
-0.420742
-0.266278
-0.475526
-0.263131
-0.529564
-0.259925
-0.582716
-0.257051
-0.63554
-0.254104
-0.68743
-0.251706
-0.737907
-0.249297
-0.787065
-0.246654
-0.835487
-0.243872
-0.882876
-0.24146
-0.929724
-0.238743
-0.975792
-0.236516
-0.233712
-1.0218
-0.0437909
-0.222437
-0.0995092
-0.238944
-0.155256
-0.228383
-0.217609
-0.219215
-0.280968
-0.219322
-0.338291
-0.221694
-0.389655
-0.219179
-0.440314
-0.215619
-0.4907
-0.212744
-0.540939
-0.209686
-0.591157
-0.206834
-0.641092
-0.204169
-0.690929
-0.201869
-0.740634
-0.199592
-0.789549
-0.19774
-0.838162
-0.195259
-0.886287
-0.193335
-0.934036
-0.190994
-0.981317
-0.189235
-0.187038
-1.02799
-0.0602814
-0.162155
-0.114854
-0.184372
-0.161038
-0.182199
-0.209368
-0.170885
-0.263952
-0.164738
-0.322896
-0.16275
-0.380081
-0.161994
-0.435627
-0.160072
-0.490263
-0.158109
-0.543391
-0.156558
-0.595387
-0.154838
-0.646849
-0.152707
-0.697562
-0.151156
-0.747916
-0.149238
-0.797518
-0.148137
-0.846296
-0.146481
-0.894534
-0.145097
-0.942181
-0.143347
-0.989484
-0.141932
-0.140165
-1.03636
-0.0705243
-0.091631
-0.14291
-0.111987
-0.203891
-0.121218
-0.255384
-0.119392
-0.302837
-0.117285
-0.353302
-0.112285
-0.404072
-0.111224
-0.45531
-0.108834
-0.505927
-0.107492
-0.556889
-0.105596
-0.607164
-0.104562
-0.65703
-0.102841
-0.706409
-0.101778
-0.755707
-0.0999405
-0.804821
-0.0990226
-0.85377
-0.0975329
-0.902017
-0.0968495
-0.949886
-0.0954782
-0.997125
-0.0946924
-0.0934114
-1.04388
-0.0531782
-0.0384528
-0.11004
-0.0551247
-0.17135
-0.0599085
-0.230735
-0.0600059
-0.286884
-0.0611364
-0.341449
-0.0577203
-0.39511
-0.0575633
-0.448852
-0.0550918
-0.501556
-0.0547886
-0.554004
-0.0531483
-0.605979
-0.0525867
-0.657147
-0.0516729
-0.707783
-0.0511419
-0.757412
-0.0503115
-0.806814
-0.0496202
-0.855553
-0.0487941
-0.904114
-0.0482883
-0.951931
-0.0476614
-0.999459
-0.0471646
-0.0465385
-1.04633
-0.0423308
0.00387797
-0.0974427
-1.27643e-05
-0.157148
-0.000203241
-0.216228
-0.000925699
-0.277139
-0.000225288
-0.334425
-0.000434471
-0.391854
-0.000134531
-0.446704
-0.00024135
-0.50141
-8.33307e-05
-0.554416
-0.000141552
-0.60695
-5.33799e-05
-0.658535
-8.70821e-05
-0.70964
-3.71446e-05
-0.759895
-5.64431e-05
-0.809488
-2.77034e-05
-0.858244
-3.80067e-05
-0.906511
-2.10342e-05
-0.954145
-2.78413e-05
-1.00129
-1.89793e-05
-1.0478
-2.60801e-05
0.0397914
-0.104938
0.0651469
0.15347
-0.529958
0.416279
0.259225
-1.04453
0.938779
0.314919
-1.3123
1.2566
0.333545
-1.37558
1.35695
0.341091
-1.3785
1.37095
0.343894
-1.36967
1.36687
0.345068
-1.35683
1.35565
0.34605
-1.34593
1.34495
0.346011
-1.33559
1.33563
0.345241
-1.32563
1.32639
0.344195
-1.31609
1.31714
0.342571
-1.30645
1.30807
0.340259
-1.29571
1.29802
0.337362
-1.28605
1.28895
0.334843
-1.2765
1.27902
0.331561
-1.26715
1.27043
0.327435
-1.25381
1.25794
0.322598
-1.23987
1.24471
-1.22565
0.318272
1.22998
0.039721
-0.144659
0.141645
-0.631883
0.228276
-1.13116
0.26757
-1.35159
0.280268
-1.38827
0.286506
-1.38474
0.288051
-1.37122
0.289677
-1.35845
0.290322
-1.34658
0.29031
-1.33557
0.28947
-1.32479
0.287692
-1.31431
0.285132
-1.30389
0.281834
-1.29241
0.27794
-1.28215
0.273366
-1.27193
0.268373
-1.26215
0.26277
-1.24821
0.256566
-1.23367
-1.21974
0.250648
0.0422613
-0.186921
0.129955
-0.719576
0.198747
-1.19996
0.225177
-1.37802
0.232533
-1.39563
0.234553
-1.38676
0.234428
-1.37109
0.233661
-1.35769
0.232024
-1.34494
0.229539
-1.33309
0.226483
-1.32173
0.22288
-1.31071
0.218714
-1.29972
0.21438
-1.28808
0.209925
-1.2777
0.205194
-1.2672
0.199424
-1.25638
0.193052
-1.24184
0.186667
-1.22728
-1.21351
0.180437
0.0471969
-0.234117
0.119561
-0.79194
0.171894
-1.25229
0.186916
-1.39304
0.189533
-1.39825
0.187938
-1.38516
0.185842
-1.369
0.183348
-1.35519
0.180321
-1.34191
0.176646
-1.32941
0.172267
-1.31735
0.16744
-1.30588
0.162044
-1.29433
0.155804
-1.28184
0.148909
-1.2708
0.142062
-1.26035
0.13528
-1.2496
0.12822
-1.23478
0.120476
-1.21954
-1.20589
0.112861
0.0452395
-0.279357
0.107238
-0.853939
0.146621
-1.29167
0.154004
-1.40043
0.153135
-1.39738
0.148915
-1.38094
0.144959
-1.36504
0.140182
-1.35042
0.134663
-1.33639
0.12868
-1.32343
0.122247
-1.31092
0.115215
-1.29885
0.107915
-1.28703
0.10051
-1.27443
0.0928653
-1.26316
0.0845203
-1.252
0.075446
-1.24053
0.0662139
-1.22554
0.0572961
-1.21062
-1.19703
0.0484309
0.0374139
-0.316771
0.0896882
-0.906213
0.117006
-1.31899
0.118183
-1.4016
0.113097
-1.39229
0.106672
-1.37452
0.099826
-1.35819
0.0926471
-1.34324
0.0851881
-1.32893
0.0772237
-1.31547
0.0688658
-1.30256
0.0603512
-1.29033
0.0515474
-1.27822
0.0423588
-1.26524
0.0329012
-1.2537
0.0238247
-1.24293
0.0148027
-1.2315
0.00546174
-1.2162
-0.00464894
-1.20051
-1.18684
-0.0148315
0.0338847
-0.350655
0.0799051
-0.952234
0.0974799
-1.33657
0.0941405
-1.39826
0.0861926
-1.38434
0.0777434
-1.36607
0.0688842
-1.34933
0.0595101
-1.33386
0.0495813
-1.31901
0.0393625
-1.30525
0.028768
-1.29196
0.0177044
-1.27927
0.00647016
-1.26699
-0.00503233
-1.25374
-0.0168966
-1.24184
-0.0291722
-1.23065
-0.0414126
-1.21926
-0.0531501
-1.20447
-0.0646908
-1.18897
-1.1751
-0.0764299
0.0237905
-0.374446
0.0575129
-0.985956
0.06784
-1.34689
0.0605983
-1.39102
0.0499142
-1.37366
0.0388278
-1.35498
0.0273075
-1.33781
0.0155611
-1.32212
0.00364712
-1.30709
-0.00864888
-1.29295
-0.0211615
-1.27945
-0.0336766
-1.26676
-0.0460115
-1.25465
-0.0583213
-1.24143
-0.0709291
-1.22923
-0.0835645
-1.21802
-0.0963043
-1.20652
-0.109007
-1.19176
-0.122052
-1.17592
-1.16203
-0.135121
0.0268614
-0.401307
0.056626
-1.01572
0.0582343
-1.3485
0.0468536
-1.37964
0.0327412
-1.35955
0.0186533
-1.3409
0.00413245
-1.32329
-0.0107527
-1.30723
-0.0258465
-1.292
-0.0409426
-1.27785
-0.0562868
-1.26411
-0.0721396
-1.2509
-0.0881913
-1.2386
-0.104076
-1.22555
-0.11978
-1.21352
-0.135374
-1.20242
-0.15058
-1.19132
-0.165294
-1.17705
-0.180058
-1.16116
-1.14721
-0.194882
0.0189766
-0.420284
0.0389839
-1.03573
0.0341388
-1.34366
0.0179753
-1.36348
0.00120147
-1.34277
-0.0157815
-1.32391
-0.0325923
-1.30648
-0.0492786
-1.29054
-0.0660372
-1.27524
-0.0830203
-1.26087
-0.0998763
-1.24725
-0.116516
-1.23426
-0.132974
-1.22214
-0.149705
-1.20881
-0.16689
-1.19634
-0.183962
-1.18535
-0.200495
-1.17478
-0.216206
-1.16134
-0.231709
-1.14566
-1.13164
-0.247278
0.0186793
-0.438963
0.0339866
-1.05104
0.0240317
-1.3337
0.00588111
-1.34533
-0.0136824
-1.32321
-0.0332606
-1.30433
-0.0533833
-1.28636
-0.0737672
-1.27016
-0.0939893
-1.25502
-0.114062
-1.2408
-0.13441
-1.2269
-0.155139
-1.21353
-0.175551
-1.20173
-0.195091
-1.18927
-0.214531
-1.1769
-0.234317
-1.16556
-0.253891
-1.15521
-0.272559
-1.14267
-0.290964
-1.12725
-1.11326
-0.309347
0.0134609
-0.452424
0.0221108
-1.05969
0.00651356
-1.3181
-0.0159254
-1.32289
-0.0381993
-1.30094
-0.0606404
-1.28189
-0.0827572
-1.26424
-0.10476
-1.24816
-0.126841
-1.23294
-0.14882
-1.21882
-0.170285
-1.20544
-0.191848
-1.19197
-0.213827
-1.17975
-0.235915
-1.16719
-0.257688
-1.15513
-0.279208
-1.14404
-0.300463
-1.13395
-0.320912
-1.12222
-0.341147
-1.10702
-1.09255
-0.361854
0.0123705
-0.464795
0.0158294
-1.06314
-0.00415802
-1.29812
-0.0289988
-1.29805
-0.0541394
-1.2758
-0.0792227
-1.25681
-0.104612
-1.23885
-0.130035
-1.22273
-0.155116
-1.20786
-0.180142
-1.19379
-0.205172
-1.18041
-0.229866
-1.16728
-0.25424
-1.15538
-0.27835
-1.14308
-0.302747
-1.13073
-0.327363
-1.11943
-0.351665
-1.10965
-0.374721
-1.09917
-0.397084
-1.08465
-1.07021
-0.419427
0.00839143
-0.473186
0.00730867
-1.06206
-0.0160817
-1.27473
-0.0437807
-1.27035
-0.0711148
-1.24846
-0.0985698
-1.22935
-0.12574
-1.21168
-0.152972
-1.1955
-0.180309
-1.18052
-0.207298
-1.1668
-0.233857
-1.15385
-0.260586
-1.14055
-0.287169
-1.1288
-0.31316
-1.11709
-0.338618
-1.10527
-0.364076
-1.09397
-0.389474
-1.08425
-0.413599
-1.07504
-0.435885
-1.06237
-1.04801
-0.458087
0.00665165
-0.479838
0.000606792
-1.05602
-0.0278246
-1.2463
-0.0585193
-1.23965
-0.0887921
-1.21819
-0.118888
-1.19926
-0.1491
-1.18147
-0.179065
-1.16554
-0.208656
-1.15093
-0.238395
-1.13707
-0.267706
-1.12454
-0.296686
-1.11157
-0.326063
-1.09942
-0.355264
-1.08788
-0.384154
-1.07638
-0.412918
-1.06521
-0.441841
-1.05533
-0.470011
-1.04687
-0.496381
-1.036
-1.02164
-0.52275
0.00390558
-0.483743
-0.00550777
-1.0466
-0.0352103
-1.21659
-0.0679608
-1.2069
-0.0999577
-1.18619
-0.131937
-1.16728
-0.163568
-1.14984
-0.195578
-1.13353
-0.227579
-1.11893
-0.259206
-1.10544
-0.290596
-1.09315
-0.321338
-1.08083
-0.351724
-1.06903
-0.382275
-1.05733
-0.412604
-1.04605
-0.442772
-1.03504
-0.473132
-1.02497
-0.502826
-1.01718
-0.529616
-1.00921
-0.995829
-0.555425
0.00156348
-0.485307
-0.0135565
-1.03148
-0.0474736
-1.18268
-0.0830785
-1.1713
-0.117926
-1.15134
-0.152533
-1.13267
-0.186982
-1.11539
-0.22088
-1.09963
-0.254765
-1.08504
-0.288903
-1.0713
-0.322777
-1.05928
-0.356518
-1.04708
-0.389896
-1.03566
-0.422738
-1.02449
-0.455669
-1.01312
-0.488557
-1.00215
-0.522049
-0.991481
-0.556272
-0.982953
-0.588531
-0.976948
-0.965329
-0.61903
0.000519215
-0.485826
-0.0170606
-1.0139
-0.0519033
-1.14783
-0.0889091
-1.13429
-0.125094
-1.11516
-0.161112
-1.09666
-0.196926
-1.07958
-0.232951
-1.06361
-0.268508
-1.04948
-0.303898
-1.03591
-0.339199
-1.02397
-0.373975
-1.01231
-0.408846
-1.00078
-0.443642
-0.989696
-0.477993
-0.978771
-0.51225
-0.967893
-0.546476
-0.957255
-0.581752
-0.947676
-0.61668
-0.94202
-0.933197
-0.648813
-0.00162666
-0.4842
-0.0226317
-0.992898
-0.0618662
-1.1086
-0.102066
-1.09409
-0.141167
-1.07606
-0.179808
-1.05801
-0.217862
-1.04152
-0.255669
-1.0258
-0.293537
-1.01162
-0.331356
-0.998091
-0.369078
-0.986253
-0.406454
-0.974933
-0.44313
-0.964107
-0.479635
-0.95319
-0.516384
-0.942022
-0.553194
-0.931084
-0.590379
-0.92007
-0.629143
-0.908913
-0.670096
-0.901067
-0.894327
-0.708965
-0.00308579
-0.0262505
-0.0654603
-0.106365
-0.146204
-0.185676
-0.224873
-0.26361
-0.301885
-0.340103
-0.378403
-0.416608
-0.454872
-0.492476
-0.529695
-0.567072
-0.603792
-0.641843
-0.683417
-0.727387
0.240667
-10.5623
10.64
0.193604
-9.89165
9.93871
0.159766
-9.72905
9.76289
0.132205
-9.55089
9.57845
0.109147
-9.29479
9.31785
0.0922531
-9.18115
9.19804
0.0772487
-8.9925
9.0075
0.0634942
-8.87049
8.88424
0.0523066
-8.71146
8.72265
0.0441087
-8.62741
8.63561
0.0367915
-8.52949
8.53681
0.0303393
-8.47474
8.48119
0.0259675
-8.40694
8.41132
0.0229359
-8.36168
8.36472
0.0206635
-8.31729
8.31956
0.0191094
-8.29441
8.29597
0.017633
-8.26437
8.26585
0.0187458
-8.23757
8.23646
0.0201265
-8.16612
8.16474
-7.58559
7.60572
0.175914
-10.4876
0.131038
-9.84677
0.0982996
-9.69631
0.0728775
-9.52547
0.0523607
-9.27428
0.0380101
-9.1668
0.0254408
-8.97993
0.0143739
-8.85942
0.00677734
-8.70387
0.00208586
-8.62272
-0.00138507
-8.52602
-0.00388478
-8.47224
-0.00421242
-8.40662
-0.0032163
-8.36268
-0.00144129
-8.31907
0.00126595
-8.29712
0.00414019
-8.26725
0.0101013
-8.24353
0.0160931
-8.17211
-7.5695
0.100536
-10.4077
0.0546859
-9.80092
0.0215293
-9.66316
-0.000838866
-9.5031
-0.0180996
-9.25702
-0.027745
-9.15715
-0.0358392
-8.97183
-0.0423626
-8.8529
-0.0448328
-8.7014
-0.0442449
-8.62331
-0.0427185
-8.52755
-0.0406449
-8.47431
-0.0364357
-8.41083
-0.0308096
-8.36831
-0.0244177
-8.32546
-0.0170925
-8.30444
-0.00936808
-8.27497
0.00132096
-8.25422
0.0118435
-8.18264
-7.55765
0.0354386
-10.3303
-0.00826397
-9.75722
-0.039619
-9.6318
-0.0606118
-9.48211
-0.0745349
-9.24309
-0.0821233
-9.14956
-0.0877247
-8.96623
-0.0914046
-8.84922
-0.0900933
-8.70271
-0.0862371
-8.62717
-0.0808585
-8.53292
-0.0748044
-8.48036
-0.0666171
-8.41901
-0.0569524
-8.37797
-0.0463533
-8.33606
-0.0346542
-8.31614
-0.0226675
-8.28696
-0.00746123
-8.26943
0.00753047
-8.19763
-7.55012
-0.0362097
-10.2456
-0.0828229
-9.7106
-0.11501
-9.59961
-0.134344
-9.46277
-0.144306
-9.23313
-0.147472
-9.1464
-0.148651
-8.96505
-0.147674
-8.85019
-0.141254
-8.70913
-0.13233
-8.63609
-0.121985
-8.54327
-0.111394
-8.49096
-0.0986547
-8.43175
-0.0842397
-8.39239
-0.0690885
-8.35121
-0.052736
-8.33249
-0.0359889
-8.30371
-0.0162397
-8.28918
0.00319426
-8.21706
-7.54693
-0.0986485
-10.1618
-0.145434
-9.66382
-0.17513
-9.56992
-0.1925
-9.4454
-0.200299
-9.22533
-0.201483
-9.14521
-0.200169
-8.96637
-0.196103
-8.85426
-0.185991
-8.71924
-0.173864
-8.64822
-0.159688
-8.55745
-0.145005
-8.50564
-0.128513
-8.44825
-0.110403
-8.4105
-0.090876
-8.37074
-0.0701184
-8.35325
-0.0492345
-8.32459
-0.0248852
-8.31353
-0.0011483
-8.2408
-7.54808
-0.167625
-10.0706
-0.218165
-9.61328
-0.249615
-9.53847
-0.265042
-9.42998
-0.268997
-9.22138
-0.265875
-9.14833
-0.260055
-8.97219
-0.251303
-8.86301
-0.236364
-8.73418
-0.219412
-8.66517
-0.200321
-8.57654
-0.181051
-8.52491
-0.159873
-8.46942
-0.137063
-8.43331
-0.113171
-8.39463
-0.0879444
-8.37848
-0.0625485
-8.34999
-0.0335988
-8.34248
-0.00550993
-8.26889
-7.55359
-0.227303
-9.97845
-0.278491
-9.56209
-0.308072
-9.50889
-0.322173
-9.41588
-0.32416
-9.21939
-0.319134
-9.15336
-0.310588
-8.98073
-0.298614
-8.87499
-0.280337
-8.75245
-0.260216
-8.68529
-0.23737
-8.59938
-0.214182
-8.5481
-0.189227
-8.49438
-0.162595
-8.45994
-0.134635
-8.42259
-0.105306
-8.40781
-0.0756763
-8.37961
-0.0422667
-8.37589
-0.00996123
-8.30119
-7.56355
-0.294021
-9.87931
-0.349374
-9.50674
-0.381021
-9.47724
-0.392975
-9.40392
-0.391182
-9.22118
-0.381962
-9.16258
-0.368843
-8.99385
-0.352333
-8.8915
-0.329468
-8.77532
-0.304643
-8.71012
-0.277091
-8.62694
-0.249274
-8.57591
-0.219782
-8.52387
-0.188657
-8.49106
-0.15631
-8.45494
-0.122688
-8.44143
-0.088655
-8.41365
-0.0509181
-8.41362
-0.0144497
-8.33766
-7.578
-0.350729
-9.77586
-0.40643
-9.45104
-0.437268
-9.4464
-0.44864
-9.39255
-0.445125
-9.2247
-0.434098
-9.17361
-0.417969
-9.00998
-0.398225
-8.91124
-0.372315
-8.80123
-0.344357
-8.73807
-0.313357
-8.65794
-0.281747
-8.60752
-0.248378
-8.55724
-0.213409
-8.52603
-0.177243
-8.4911
-0.139783
-8.47889
-0.101524
-8.45191
-0.0595756
-8.45557
-0.0189292
-8.37831
-7.59693
-0.415862
-9.66935
-0.475215
-9.39168
-0.507747
-9.41387
-0.516988
-9.38331
-0.50984
-9.23185
-0.494929
-9.18852
-0.474262
-9.03065
-0.45014
-8.93536
-0.419967
-8.8314
-0.387364
-8.77068
-0.351705
-8.69359
-0.31566
-8.64357
-0.278033
-8.59486
-0.238665
-8.5654
-0.198222
-8.53155
-0.156669
-8.52044
-0.114226
-8.49435
-0.0682702
-8.50153
-0.0233862
-8.42319
-7.62031
-0.467176
-9.56403
-0.528118
-9.33074
-0.561451
-9.38054
-0.570947
-9.37381
-0.562151
-9.24064
-0.545451
-9.20522
-0.521727
-9.05437
-0.494519
-8.96257
-0.461472
-8.86445
-0.425897
-8.80625
-0.386976
-8.73252
-0.347085
-8.68346
-0.305674
-8.63628
-0.262627
-8.60845
-0.218518
-8.57565
-0.173239
-8.56572
-0.126788
-8.5408
-0.077021
-8.55129
-0.0277943
-8.47242
-7.64811
-0.539745
-9.44371
-0.596194
-9.27429
-0.628596
-9.34814
-0.6363
-9.36611
-0.624177
-9.25276
-0.603891
-9.2255
-0.57582
-9.08244
-0.544287
-8.9941
-0.507086
-8.90165
-0.466957
-8.84638
-0.423673
-8.7758
-0.379736
-8.7274
-0.334225
-8.68179
-0.286892
-8.65578
-0.238757
-8.62379
-0.189705
-8.61477
-0.139309
-8.5912
-0.0858388
-8.60476
-0.0320814
-8.52618
-7.68019
-0.583121
-9.31867
-0.646462
-9.21095
-0.679659
-9.31494
-0.688103
-9.35766
-0.674574
-9.26629
-0.652443
-9.24763
-0.62145
-9.11344
-0.58699
-9.02856
-0.547052
-8.94159
-0.504132
-8.8893
-0.457648
-8.82228
-0.409865
-8.77518
-0.360714
-8.73094
-0.309854
-8.70664
-0.258134
-8.67551
-0.205478
-8.66743
-0.15147
-8.64521
-0.0946787
-8.66155
-0.0362147
-8.58464
-7.7164
-0.652489
-9.18894
-0.711202
-9.15224
-0.743547
-9.28259
-0.750079
-9.35113
-0.733611
-9.28276
-0.70813
-9.27312
-0.672953
-9.14861
-0.634247
-9.06727
-0.590268
-8.98556
-0.543013
-8.93656
-0.49249
-8.87281
-0.440932
-8.82674
-0.387916
-8.78396
-0.333148
-8.76141
-0.277575
-8.73108
-0.221171
-8.72383
-0.163496
-8.70288
-0.10356
-8.72149
-0.0404547
-8.64775
-7.75686
-0.694748
-9.04961
-0.759652
-9.08733
-0.792076
-9.25017
-0.799456
-9.34375
-0.78187
-9.30035
-0.754498
-9.30049
-0.716601
-9.18651
-0.675077
-9.10879
-0.62844
-9.0322
-0.578539
-8.98646
-0.524943
-8.9264
-0.469681
-8.882
-0.413141
-8.8405
-0.354921
-8.81963
-0.295859
-8.79014
-0.23615
-8.78354
-0.175143
-8.76389
-0.112372
-8.78426
-0.0448101
-8.71531
-7.80167
-0.759882
-8.90876
-0.82067
-9.02655
-0.851733
-9.21911
-0.857253
-9.33823
-0.837485
-9.32011
-0.807006
-9.33097
-0.765095
-9.22842
-0.719476
-9.15441
-0.669005
-9.08267
-0.615092
-9.04037
-0.557799
-8.98369
-0.498953
-8.94084
-0.438782
-8.90067
-0.377049
-8.88136
-0.314388
-8.85281
-0.251136
-8.84679
-0.186858
-8.82817
-0.121571
-8.84955
-0.0497104
-8.78717
-7.85138
-0.804638
-8.75294
-0.869126
-8.96206
-0.898424
-9.18981
-0.904139
-9.33252
-0.883163
-9.34109
-0.851011
-9.36312
-0.806577
-9.27285
-0.758135
-9.20286
-0.705053
-9.13575
-0.648613
-9.09681
-0.588393
-9.04391
-0.526002
-9.00324
-0.462464
-8.9642
-0.397504
-8.94632
-0.331578
-8.91873
-0.265203
-8.91317
-0.197856
-8.89551
-0.130379
-8.91703
-0.0545789
-8.86297
-7.90596
-0.858987
-8.60291
-0.927847
-8.8932
-0.955927
-9.16173
-0.959705
-9.32874
-0.93648
-9.36432
-0.901167
-9.39843
-0.852797
-9.32122
-0.800185
-9.25547
-0.743255
-9.19268
-0.683009
-9.15706
-0.61932
-9.1076
-0.55356
-9.06899
-0.486534
-9.03123
-0.418248
-9.01461
-0.348908
-8.98807
-0.279091
-8.98299
-0.208501
-8.9661
-0.1387
-8.98683
-0.0589735
-8.94269
-7.96493
-0.89474
-8.43556
-0.968063
-8.81988
-0.995415
-9.13438
-0.999902
-9.32425
-0.977473
-9.38675
-0.941514
-9.43439
-0.891545
-9.37119
-0.836104
-9.31091
-0.776871
-9.25192
-0.714093
-9.21984
-0.647816
-9.17388
-0.578679
-9.13813
-0.508604
-9.10131
-0.437239
-9.08597
-0.364959
-9.06035
-0.29221
-9.05574
-0.218579
-9.03973
-0.147076
-9.05833
-0.0644282
-9.02534
-8.02936
7.25096
-7.77712
-7.90939
6.43872
-8.00764
5.63868
-8.33433
4.86482
-8.55039
4.18485
-8.70677
3.55665
-8.8062
3.00721
-8.82175
2.53733
-8.84103
2.14308
-8.85767
1.80381
-8.88057
1.51005
-8.88012
1.26025
-8.88833
1.04613
-8.88719
0.856055
-8.89589
0.68886
-8.89316
0.529042
-8.89592
0.382923
-8.89362
0.225359
-8.90077
0.0915638
-8.89155
-7.93779
4.25996
-7.53442
-4.50267
3.96766
-7.71534
3.6313
-7.99797
3.27526
-8.19436
2.91624
-8.34775
2.55332
-8.44328
2.22802
-8.49644
1.93446
-8.54747
1.67847
-8.60168
1.44895
-8.65105
1.24768
-8.67885
1.07019
-8.71084
0.910374
-8.72738
0.75754
-8.74306
0.614676
-8.75029
0.47343
-8.75467
0.338072
-8.75826
0.195246
-8.75794
0.0394109
-8.73571
-7.89838
2.9975
-7.54088
-2.99104
2.96685
-7.68469
2.85855
-7.88967
2.69407
-8.02987
2.48998
-8.14366
2.27246
-8.22575
2.0725
-8.29648
1.87749
-8.35246
1.69205
-8.41625
1.50971
-8.46871
1.33442
-8.50356
1.16013
-8.53655
0.991592
-8.55884
0.82353
-8.575
0.660207
-8.58697
0.502625
-8.59709
0.34572
-8.60135
0.18593
-8.59815
0.044553
-8.59433
-7.85383
1.89787
-7.63624
-1.80251
1.91771
-7.70454
1.88388
-7.85584
1.82465
-7.97064
1.72269
-8.04171
1.60894
-8.112
1.49172
-8.17926
1.37518
-8.23592
1.25904
-8.30011
1.13644
-8.3461
1.01816
-8.38528
0.895638
-8.41403
0.777017
-8.44022
0.66053
-8.45851
0.547527
-8.47397
0.431701
-8.48126
0.32118
-8.49083
0.203758
-8.48073
0.0640077
-8.45458
-7.78982
1.31759
-7.71035
-1.24348
1.36285
-7.7498
1.38395
-7.87694
1.36147
-7.94816
1.33032
-8.01056
1.28357
-8.06525
1.22245
-8.11814
1.14873
-8.1622
1.07261
-8.22398
0.985879
-8.25938
0.900234
-8.29963
0.813158
-8.32695
0.724774
-8.35184
0.630906
-8.36464
0.537195
-8.38025
0.436497
-8.38057
0.334545
-8.38888
0.22091
-8.36709
0.118018
-8.35169
-7.6718
0.945344
-7.8115
-0.844194
1.00838
-7.81284
1.05179
-7.92034
1.04738
-7.94375
1.04108
-8.00426
1.01788
-8.04205
0.980396
-8.08066
0.930216
-8.11202
0.878447
-8.17221
0.817091
-8.19802
0.754769
-8.23731
0.684001
-8.25618
0.616447
-8.28428
0.544612
-8.29281
0.474357
-8.31
0.40119
-8.3074
0.327898
-8.31559
0.248016
-8.28721
0.177573
-8.28125
-7.49423
0.624874
-7.88283
-0.553538
0.657063
-7.84503
0.694825
-7.9581
0.720767
-7.9697
0.724895
-8.00839
0.710665
-8.02782
0.701489
-8.07149
0.694181
-8.10471
0.679183
-8.15721
0.649878
-8.16872
0.621069
-8.2085
0.578682
-8.21379
0.538422
-8.24402
0.490036
-8.24442
0.444892
-8.26485
0.392225
-8.25473
0.346242
-8.2696
0.300739
-8.24171
0.255988
-8.2365
-7.23824
0.482092
-7.94526
-0.41966
0.522647
-7.88559
0.548658
-7.98411
0.555558
-7.9766
0.558574
-8.0114
0.551785
-8.02103
0.55805
-8.07775
0.560168
-8.10683
0.553622
-8.15067
0.535039
-8.15013
0.517829
-8.19129
0.490295
-8.18626
0.467717
-8.22144
0.433868
-8.21057
0.409057
-8.24004
0.382896
-8.22857
0.364835
-8.25154
0.348844
-8.22572
0.323323
-8.21098
-6.91492
0.331336
-8.00231
-0.274295
0.364902
-7.91915
0.387707
-8.00692
0.39918
-7.98807
0.419045
-8.03127
0.428607
-8.03059
0.445655
-8.0948
0.449203
-8.11038
0.44837
-8.14983
0.443651
-8.14542
0.439723
-8.18736
0.423831
-8.17037
0.416416
-8.21403
0.398906
-8.19306
0.390518
-8.23165
0.382314
-8.22037
0.377942
-8.24717
0.377876
-8.22565
0.377494
-8.21059
-6.53743
0.273111
-8.07129
-0.204123
0.312485
-7.95853
0.340076
-8.03451
0.347928
-7.99592
0.355063
-8.0384
0.36514
-8.04067
0.377935
-8.1076
0.378721
-8.11117
0.3785
-8.14961
0.371334
-8.13825
0.37068
-8.18671
0.361966
-8.16166
0.365884
-8.21795
0.356101
-8.18328
0.357492
-8.23305
0.369501
-8.23238
0.381825
-8.25949
0.406627
-8.25045
0.432509
-8.23648
-6.10492
0.21385
-8.20115
-0.083994
0.233549
-7.97823
0.274731
-8.07569
0.29156
-8.01275
0.309795
-8.05664
0.337495
-8.06837
0.339276
-8.10938
0.334541
-8.10643
0.319539
-8.13461
0.300016
-8.11873
0.29673
-8.18342
0.288549
-8.15347
0.302476
-8.23187
0.290051
-8.17086
0.297269
-8.24026
0.348921
-8.28403
0.388601
-8.29917
0.447922
-8.30978
0.502976
-8.29153
-5.60194
0.172809
-8.44698
0.0730245
0.181649
-7.98707
0.253834
-8.14788
0.26551
-8.02443
0.275586
-8.06671
0.290715
-8.0835
0.26851
-8.08717
0.271302
-8.10922
0.233084
-8.09639
0.201715
-8.08736
0.189057
-8.17077
0.181999
-8.14642
0.212059
-8.26193
0.168309
-8.12711
0.181575
-8.25353
0.308393
-8.41085
0.382167
-8.37295
0.481732
-8.40934
0.551146
-8.36094
-5.0508
0.0691527
-8.69256
0.176423
0.072083
-7.99
0.154745
-8.23054
0.178427
-8.04811
0.184044
-8.07233
0.190505
-8.08996
0.152629
-8.0493
0.180021
-8.13661
0.110986
-8.02736
0.0642964
-8.04067
0.0506303
-8.1571
0.053213
-8.149
0.103401
-8.31212
0.032933
-8.05664
0.0451341
-8.26573
0.266014
-8.63173
0.363479
-8.47041
0.483605
-8.52947
0.523426
-8.40077
-4.52737
-0.00293852
-8.82192
0.1323
-0.0110034
-7.98193
0.036193
-8.27774
0.0504447
-8.06236
0.0672784
-8.08916
0.0778815
-8.10056
0.0353768
-8.00679
0.0845727
-8.18581
0.0106268
-7.95341
-0.0548445
-7.9752
-0.0487153
-8.16323
-0.0317521
-8.16596
0.0217412
-8.36562
-0.0131305
-8.02177
0.0154408
-8.2943
0.230354
-8.84664
0.328633
-8.56869
0.473302
-8.67413
0.462464
-8.38993
-4.06491
-0.0308859
-8.79607
0.00503466
-0.0473927
-7.96542
-0.0551881
-8.26994
-0.0677956
-8.04975
-0.0557505
-8.10121
-0.0408882
-8.11542
-0.0605436
-7.98714
-0.0243537
-8.222
-0.0609393
-7.91683
-0.116898
-7.91924
-0.0992116
-8.18092
-0.0779448
-8.18723
-0.0486627
-8.3949
-0.0214499
-8.04898
0.0450743
-8.36083
0.145475
-8.94704
0.23482
-8.65804
0.36756
-8.80687
0.297227
-8.31959
-3.76768
-0.0428106
-8.57325
-0.180011
-0.0534673
-7.95477
-0.125081
-8.19833
-0.140833
-8.034
-0.144264
-8.09778
-0.142166
-8.11752
-0.139895
-7.98941
-0.146744
-8.21515
-0.142469
-7.9211
-0.161433
-7.90027
-0.159241
-8.18311
-0.143881
-8.20259
-0.156068
-8.38271
-0.076348
-8.1287
-0.0154536
-8.42172
-0.0572898
-8.90521
0.0337703
-8.7491
0.0801441
-8.85325
-0.0611423
-8.17831
-3.82882
-0.0433734
-8.25771
-0.272163
-0.0426458
-7.9555
-0.136711
-8.10426
-0.151911
-8.0188
-0.160886
-8.0888
-0.186739
-8.09167
-0.17586
-8.00029
-0.235497
-8.15551
-0.181669
-7.97493
-0.159347
-7.9226
-0.201506
-8.14095
-0.197768
-8.20633
-0.286779
-8.2937
-0.222566
-8.19291
-0.256808
-8.38748