/*--------------------------------*- C++ -*----------------------------------*\
  =========                 |
  \\      /  F ield         | OpenFOAM: The Open Source CFD Toolbox
   \\    /   O peration     | Website:  https://openfoam.org
    \\  /    A nd           | Version:  9
     \\/     M anipulation  |
\*---------------------------------------------------------------------------*/
FoamFile
{
    format      ascii;
    class       volScalarField;
    location    "4.7";
    object      nut;
}
// * * * * * * * * * * * * * * * * * * * * * * * * * * * * * * * * * * * * * //

dimensions      [0 2 -1 0 0 0 0];

internalField   nonuniform List<scalar> 
46400
(
0.016422
0.00348024
0.00116081
0.00138748
0.00126529
0.00127931
0.00120341
0.00118333
0.00112907
0.0010949
0.00105754
0.00101065
0.000973569
0.000950456
0.000931391
0.000927844
0.000905813
0.000814044
0.0010948
0.000913632
0.015877
0.00392763
0.00121083
0.00141946
0.00132302
0.00133368
0.00125476
0.0012199
0.00117924
0.00114587
0.00110683
0.0010669
0.00103794
0.00099969
0.000954659
0.000927513
0.000879922
0.000823984
0.00103859
0.000893861
0.0152421
0.00478675
0.00134395
0.00145179
0.00131188
0.00131026
0.00124103
0.00120707
0.00115752
0.00111496
0.00107686
0.00101951
0.000974281
0.000950211
0.000923011
0.000887934
0.000844025
0.000795351
0.00107875
0.000949349
0.0146572
0.00443754
0.00141913
0.00151374
0.00138325
0.00136158
0.00128953
0.0012428
0.0012095
0.00116304
0.00113147
0.00108919
0.00103614
0.000991359
0.000991041
0.000977341
0.000917095
0.00081177
0.00104088
0.000945489
0.0138205
0.00398245
0.0014182
0.00151111
0.00136658
0.00131724
0.00125695
0.00119647
0.00116782
0.00112692
0.00109878
0.00107383
0.00103578
0.000958976
0.000909921
0.000901518
0.000887613
0.000819748
0.00107538
0.00100678
0.0118129
0.00289953
0.00145753
0.00151
0.00144013
0.00136919
0.00131372
0.00123475
0.00119485
0.00114712
0.0010989
0.00107888
0.00110271
0.00108054
0.00100163
0.000941453
0.000898111
0.000811172
0.00100321
0.000942811
0.00918967
0.0022791
0.00144121
0.00141848
0.00138872
0.00132396
0.00127848
0.00119657
0.00115655
0.00113069
0.00108762
0.0010001
0.000980134
0.000987934
0.000996037
0.000974381
0.000937564
0.000865351
0.00104364
0.00100581
0.00747119
0.00191474
0.00145832
0.00142804
0.00142196
0.001376
0.00136053
0.00127258
0.0012025
0.00117813
0.0011953
0.0011347
0.00104367
0.000972343
0.000931025
0.000911202
0.000873246
0.000805665
0.000938847
0.000913348
0.00606348
0.00171141
0.00139709
0.00133457
0.0013455
0.00129017
0.00131396
0.00129506
0.0011972
0.0010931
0.00108271
0.00109185
0.00109423
0.0010631
0.00103656
0.00100159
0.000975684
0.000903714
0.00100256
0.000981839
0.00521128
0.00169744
0.00157194
0.0013942
0.00135102
0.00127065
0.00124453
0.00128502
0.00131863
0.0012032
0.0011068
0.00103532
0.00101149
0.000976749
0.000960616
0.000950623
0.000923164
0.000886887
0.000958568
0.000932578
0.00446014
0.00160132
0.00152935
0.00140211
0.00135258
0.00124288
0.00113895
0.00106446
0.00113448
0.00115153
0.00116104
0.00110228
0.00105973
0.00103716
0.000992417
0.000981451
0.000967537
0.000920202
0.00102336
0.000998415
0.00408947
0.00166332
0.00165417
0.00151419
0.00151956
0.00149852
0.00139785
0.00121978
0.00114399
0.00108788
0.0010692
0.00107049
0.00101642
0.00098438
0.000952238
0.000903034
0.000898221
0.000851538
0.000914489
0.000931847
0.00331478
0.00135516
0.00142122
0.0013352
0.001308
0.00135826
0.00142874
0.00138592
0.00131989
0.00127371
0.00119133
0.00115165
0.00113369
0.00107573
0.00106173
0.00101182
0.000967679
0.000917924
0.000956219
0.000948537
0.0033192
0.0013475
0.00144116
0.00156978
0.00147001
0.0013423
0.00133641
0.00132822
0.0012757
0.00122994
0.00119578
0.00112504
0.00110458
0.0010669
0.00103107
0.0010138
0.000969972
0.000921629
0.000942873
0.00091352
0.00365395
0.00169895
0.00151012
0.00141926
0.00142853
0.00127129
0.00122837
0.00118549
0.00117153
0.00114641
0.00113213
0.00111179
0.00107634
0.00105747
0.00103423
0.00100649
0.000996651
0.000937496
0.000967281
0.000954887
0.00185969
0.00177402
0.00170034
0.00138076
0.00143401
0.00134826
0.00132966
0.00125519
0.00125308
0.00119044
0.00117496
0.00112385
0.00110184
0.00105325
0.00103075
0.000997804
0.000972467
0.000929682
0.00094441
0.000935709
0.000601469
0.0015743
0.00150106
0.0015461
0.00147689
0.00145751
0.00142294
0.00135304
0.00130251
0.00125815
0.00121437
0.00118468
0.00114347
0.00112005
0.00107182
0.00105588
0.001009
0.000965185
0.000973605
0.000943183
0.00171078
0.00177652
0.00157224
0.00156061
0.00153221
0.00147101
0.00137819
0.00135957
0.00129212
0.00124008
0.00119837
0.00114992
0.00111851
0.00108081
0.0010534
0.00102232
0.00100032
0.00094405
0.00095445
0.00093501
0.00299559
0.00161749
0.00151494
0.00157134
0.00146643
0.00143956
0.00140569
0.00136047
0.00132609
0.00129329
0.0012594
0.00122139
0.00117292
0.00113925
0.00108612
0.00106249
0.00101389
0.000965396
0.000977329
0.000935505
0.00323374
0.0017263
0.00163902
0.00154628
0.00146452
0.0014205
0.00139278
0.00134741
0.00128663
0.00127707
0.00120467
0.0011738
0.00113278
0.00110299
0.00107072
0.00104229
0.00101644
0.000968815
0.000994067
0.000956816
0.00100047
0.00418265
0.0088724
0.00971683
0.0057887
0.00204854
0.000337808
0.000156649
0.0002855
0.000357852
0.000291498
0.00025469
0.000297021
0.000312401
0.000277522
0.000221404
0.000155757
0.0001704
0.000199077
0.00036527
0.000937652
0.0070227
0.0101352
0.00816405
0.0038213
0.000769111
0.000161481
0.000263161
0.000366889
0.000345625
0.000297833
0.000315538
0.000287418
0.000308267
0.000302516
0.000205278
0.000103437
0.000152777
0.000248638
0.000448607
0.0026426
0.00890727
0.0103936
0.00644773
0.00179735
0.000123336
0.00019715
0.000361742
0.000404209
0.000370684
0.000329959
0.000291433
0.000317833
0.000362634
0.000267161
0.000148598
0.000147322
0.000243073
0.000427125
0.000569361
0.00511444
0.0098652
0.00987226
0.00487172
0.000564302
0.000149777
0.00035407
0.000445734
0.000449233
0.000359712
0.00032387
0.000352831
0.000360825
0.000342359
0.000251656
0.000211261
0.000213524
0.000340212
0.000542294
0.00061987
0.00710211
0.0108497
0.00875577
0.00239686
0.000193226
0.000293335
0.000451366
0.000507686
0.000436491
0.000402281
0.000386425
0.000362059
0.000366914
0.000379249
0.000283373
0.000235571
0.000232834
0.00043641
0.000662911
0.000680025
0.00880854
0.0111739
0.00772112
0.000989216
0.000194708
0.000455458
0.000555006
0.000556296
0.000523479
0.000451692
0.000408145
0.000421181
0.000437505
0.000403101
0.000286638
0.000299577
0.000339088
0.000604533
0.000721149
0.00061363
0.0108745
0.0114429
0.00613973
0.000365252
0.000366502
0.00060943
0.000633037
0.000603403
0.000560026
0.000491899
0.000475899
0.000460801
0.000451325
0.000430005
0.000365284
0.000349404
0.000388779
0.000630225
0.000686312
0.000621613
0.0136231
0.0111982
0.00423033
0.000218152
0.00054884
0.000663987
0.000680531
0.000669868
0.000625676
0.000564265
0.000516301
0.000513843
0.000524281
0.000489216
0.000379031
0.000384413
0.00046005
0.0007159
0.000764655
0.000664116
0.0144674
0.0110286
0.00252691
5.42252e-05
0.000717778
0.000780851
0.00072875
0.000717277
0.000677937
0.000601372
0.000578731
0.000562419
0.000543659
0.000500096
0.000447682
0.000445275
0.000494718
0.000716749
0.000703979
0.000650435
0.0152421
0.0105956
0.00171468
0.000257654
0.000837141
0.000791979
0.000796447
0.000782594
0.000734887
0.000673552
0.000617642
0.000597543
0.000594182
0.000565035
0.000473892
0.000467804
0.000528682
0.000775569
0.000805743
0.000708193
0.0161153
0.0102931
0.00101075
0.000550096
0.000918564
0.000884847
0.000837377
0.000811281
0.000785901
0.000705171
0.000665643
0.000645414
0.000620303
0.00057348
0.000546459
0.000554347
0.000590689
0.00078006
0.000732512
0.000671726
0.0166
0.00977585
0.00109876
0.00067074
0.000989728
0.000885421
0.000907833
0.000873209
0.000827452
0.00077429
0.000709015
0.000676751
0.000669874
0.000662621
0.000605194
0.000595871
0.000633732
0.000831365
0.000807233
0.000721804
0.0171675
0.00945327
0.000867774
0.000881313
0.00107185
0.000952497
0.000926799
0.000897283
0.000877839
0.000805688
0.000755848
0.000735004
0.000707614
0.000675645
0.000675303
0.000676158
0.00067805
0.000803141
0.00068814
0.000672608
0.0174258
0.00917176
0.00186214
0.000939645
0.00111746
0.000985351
0.000994592
0.000960115
0.00091428
0.000881202
0.000812551
0.000775936
0.000765916
0.000764989
0.000729523
0.000705471
0.000711569
0.00081345
0.00069342
0.000681991
0.0176124
0.00896289
0.00182394
0.0010387
0.0012027
0.00105796
0.00102123
0.00100374
0.000981443
0.000924407
0.000872191
0.000843466
0.00080586
0.000778148
0.000785212
0.000759246
0.000735856
0.000778388
0.000585542
0.00066174
0.0176842
0.00846663
0.0015899
0.00107719
0.00121537
0.00110459
0.0010634
0.00104421
0.00100003
0.000989883
0.000925242
0.000887715
0.000866927
0.000848246
0.000814533
0.000766952
0.000767217
0.00078463
0.000576847
0.000669763
0.0175849
0.00730329
0.00139485
0.00114456
0.00124341
0.00116736
0.00109939
0.00109334
0.00106482
0.00102506
0.000980486
0.000945715
0.000905812
0.000875942
0.000867315
0.000817281
0.000832804
0.00082094
0.000564199
0.000714222
0.0174367
0.00638447
0.00161177
0.0012396
0.00125401
0.00121403
0.00112775
0.00110655
0.00106447
0.00106154
0.00100797
0.000970939
0.000946702
0.000923271
0.00088743
0.000837864
0.000853669
0.000879537
0.000618571
0.000735142
0.017154
0.00516697
0.0013047
0.00128743
0.00125757
0.00124536
0.00115836
0.00114863
0.00110401
0.00107332
0.00103554
0.000998686
0.000964875
0.000946765
0.000943902
0.000929109
0.000930193
0.000951419
0.000713818
0.000757557
0.0168044
0.00439809
0.00120284
0.00137334
0.00127439
0.00128898
0.00119264
0.00116385
0.00112262
0.00110923
0.00106635
0.00103184
0.0010162
0.000998545
0.000977966
0.000999549
0.00102136
0.00101
0.00091202
0.000922026
0.00397617
0.00238644
0.00165513
0.00136076
0.00121524
0.000987886
0.000830383
0.000671705
0.000674911
0.000669471
0.000649055
0.000607103
0.000553895
0.000619903
0.000434343
0.000829295
0.00132783
0.00588516
0.0100532
0.0145659
0.00432411
0.00237222
0.0016894
0.00134383
0.00121255
0.00099744
0.000871192
0.00073695
0.000722802
0.000686587
0.00065349
0.000597107
0.000525638
0.000589247
0.000422934
0.000817015
0.00121562
0.00591653
0.00999844
0.0144857
0.00434325
0.00230186
0.001785
0.00140814
0.00121324
0.00100192
0.000859396
0.000706342
0.000711959
0.000696544
0.000669358
0.000624973
0.000546594
0.000599834
0.000451235
0.000813286
0.00109871
0.00589354
0.0100468
0.0144158
0.00430461
0.00236892
0.00178997
0.00138829
0.00122983
0.00101399
0.000903228
0.000784695
0.000758134
0.000710074
0.000673435
0.000615115
0.00051491
0.000568366
0.000444697
0.000788661
0.000974736
0.00591688
0.0100069
0.0143562
0.0043198
0.00225323
0.00188724
0.00145568
0.00123581
0.00104581
0.00089612
0.000753465
0.000758066
0.000724754
0.000691021
0.00063175
0.000529684
0.000591742
0.000480867
0.000778724
0.000848217
0.00589954
0.0100457
0.0142927
0.00426672
0.00240801
0.00190479
0.00140917
0.00124241
0.00105754
0.000938313
0.000831632
0.000807182
0.000739997
0.000689032
0.000617014
0.00050548
0.000574464
0.000470132
0.000743353
0.00075873
0.00590321
0.0100165
0.0142495
0.00436877
0.00228981
0.00196183
0.00150064
0.00128003
0.00109425
0.00091622
0.000815845
0.000826533
0.000756953
0.000704663
0.000629795
0.000522443
0.000607242
0.000497715
0.000734298
0.000636993
0.00588409
0.0100452
0.0141855
0.00441922
0.00237813
0.00202927
0.0014425
0.00124053
0.00112908
0.000969925
0.000872437
0.000867213
0.000766419
0.000697394
0.000620483
0.000506191
0.000591434
0.000465618
0.000698633
0.000512618
0.00586789
0.0100302
0.0141577
0.00466638
0.00234913
0.00199144
0.00152687
0.00130649
0.00113341
0.000927798
0.000876664
0.000899032
0.000777897
0.00071756
0.000641485
0.000520982
0.000620144
0.000471493
0.00066135
0.000381255
0.00584868
0.0100371
0.0141169
0.00463829
0.00239663
0.00211849
0.00150943
0.00123839
0.0012123
0.000968829
0.000897689
0.000931838
0.000780042
0.000709474
0.000627636
0.000506936
0.000603944
0.000435558
0.000589886
0.000250096
0.00583907
0.0100485
0.0140789
0.0047735
0.00242298
0.00202058
0.0016001
0.00130156
0.00118663
0.000923883
0.000909732
0.000961858
0.000793204
0.000734875
0.000625243
0.000517681
0.000615397
0.000452756
0.000591315
0.000144359
0.00581208
0.0100683
0.0140613
0.00466746
0.00239004
0.00214781
0.00165281
0.00127329
0.00125346
0.000939608
0.000916184
0.000974308
0.000785926
0.000721484
0.000626849
0.000508358
0.000580847
0.00042932
0.000572159
6.37092e-05
0.00579136
0.0100698
0.0140429
0.00486887
0.00241901
0.0020366
0.00170321
0.00129142
0.00121779
0.000928589
0.00093221
0.00098144
0.000801224
0.000748934
0.000629135
0.000519634
0.000586602
0.000449577
0.000580066
0.00017245
0.00579112
0.0100638
0.0140522
0.00474948
0.0024268
0.00217375
0.00180468
0.00132264
0.00126806
0.000940886
0.00094019
0.000968842
0.000779233
0.000739384
0.000639484
0.000516485
0.000576091
0.000440134
0.000539341
0.000346161
0.00579857
0.0100737
0.0140498
0.00505416
0.00247666
0.00205198
0.00180538
0.00131043
0.00122748
0.000942518
0.000956103
0.000958118
0.000795062
0.000770887
0.000654592
0.000533192
0.00058606
0.000472285
0.000535962
0.000459976
0.00583229
0.0101107
0.0140426
0.00500768
0.00255263
0.00216276
0.00187754
0.00137336
0.00128216
0.000961827
0.000965125
0.000919111
0.000763611
0.000757666
0.000669642
0.000541169
0.000576869
0.000471626
0.000514673
0.000473001
0.00583995
0.0101688
0.0140603
0.0053311
0.00262818
0.00205085
0.00184812
0.00135923
0.00122887
0.000966249
0.000976605
0.000898377
0.00078333
0.000789603
0.000686087
0.000554849
0.000588472
0.00050158
0.000512929
0.000476079
0.00578094
0.0101018
0.0140876
0.00530233
0.00249643
0.00199921
0.00184128
0.00141762
0.0013164
0.00102925
0.000991801
0.000872019
0.000764223
0.000760492
0.000698497
0.000590754
0.0005864
0.000515492
0.000510578
0.000474422
0.0059135
0.0101926
0.0140682
0.00513846
0.00220066
0.00176718
0.00180122
0.00139846
0.00124052
0.00100215
0.000983073
0.000844288
0.000758805
0.000749946
0.000674773
0.000620715
0.000594415
0.000560605
0.000497976
0.000427252
0.00584887
0.0102474
0.0143455
0.00521394
0.00210361
0.00165698
0.00180274
0.00146382
0.00131881
0.00111407
0.0010042
0.000835745
0.000766136
0.000725903
0.000701898
0.000663465
0.000609352
0.000563637
0.000492209
0.000415832
0.00541601
0.0101233
0.0138513
0.0198817
0.0261783
0.010458
0.0189601
0.0142076
0.0141595
0.0117779
0.0111144
0.00896067
0.00842087
0.0076354
0.00718222
0.00736852
0.00659895
0.0061907
0.0047737
0.00513537
0.0531385
0.0955112
0.126892
0.0248936
0.01949
0.0180053
0.014071
0.0134678
0.0111107
0.0102485
0.00886077
0.00757474
0.00732617
0.0056448
0.00632347
0.00449038
0.00524244
0.00409239
0.00205736
0.0158269
0.0515475
0.0951141
0.124695
0.0100658
0.0140649
0.0129909
0.0109405
0.00897434
0.00828295
0.00779587
0.00682995
0.00649495
0.00600481
0.00575369
0.00541965
0.00510606
0.00497354
0.00468642
0.00429911
0.00568683
0.0540126
0.0928983
0.122154
0.0110958
0.0102385
0.00833711
0.00744581
0.00711767
0.00647248
0.00617307
0.00587573
0.00551884
0.00502681
0.00487818
0.004575
0.00431776
0.00392712
0.00381039
0.00267488
0.00876385
0.0532157
0.0929195
0.117886
0.00598561
0.00645882
0.00616869
0.00623926
0.00563302
0.00527526
0.00479156
0.00456986
0.00456509
0.00430193
0.00418047
0.00387141
0.00394852
0.0036443
0.00355918
0.00229326
0.00602897
0.0527716
0.0931864
0.115192
0.00519282
0.00495032
0.00456113
0.00425223
0.0038695
0.00408173
0.00392327
0.0037113
0.00374423
0.00379099
0.00371197
0.0037602
0.00372334
0.0036705
0.0033446
0.00139916
0.00458829
0.0518164
0.0938897
0.113936
0.00309278
0.00305703
0.00311006
0.00349341
0.00343581
0.0033367
0.00334653
0.00334141
0.0033911
0.00339216
0.00342025
0.00331798
0.00331898
0.00332476
0.00342231
0.00163327
0.00352332
0.0463273
0.0951555
0.113835
0.00248516
0.00235672
0.00266525
0.0027172
0.00238372
0.00248722
0.00252908
0.00259802
0.00278466
0.00305326
0.00312629
0.00331981
0.00353317
0.00366249
0.00348159
0.00190427
0.000731202
0.0415744
0.0961552
0.113682
0.00144354
0.00146898
0.00155778
0.00176704
0.00183456
0.00213124
0.00226338
0.00242507
0.00248935
0.00264575
0.00274719
0.00301667
0.00302964
0.00351539
0.00385368
0.00258659
0.00115387
0.0323903
0.0966323
0.118467
0.00101831
0.00111576
0.00127416
0.00134848
0.00129734
0.00138582
0.00147393
0.00174719
0.00196276
0.00226567
0.00243348
0.00282502
0.00299337
0.00350816
0.00388513
0.00369125
0.00243434
0.0220544
0.0953139
0.134886
0.000460218
0.000548277
0.000617456
0.000735032
0.00090152
0.00121414
0.00130234
0.00150845
0.00164318
0.0019333
0.00204673
0.00239288
0.0024897
0.00292033
0.00296435
0.00393994
0.00317061
0.0154773
0.0933637
0.149527
0.000234103
0.000342404
0.00043645
0.000581922
0.000593032
0.000622815
0.000826261
0.00112841
0.00115994
0.0014569
0.00164997
0.00197924
0.00215954
0.00264048
0.00275219
0.00336026
0.00352586
0.00767088
0.0696507
0.164337
3.16358e-05
0.000153185
0.000239165
0.000392996
0.000611926
0.000694594
0.000719937
0.000899453
0.0010698
0.00117888
0.00134444
0.00157068
0.00179401
0.00206791
0.00264324
0.0027149
0.00353202
0.00164873
0.0496575
0.186558
0.000254643
0.000282596
0.000235927
0.000261244
0.000294145
0.000471055
0.000564452
0.00062056
0.000773911
0.000965575
0.0011155
0.00132339
0.00155979
0.00180841
0.00209838
0.00250486
0.00326054
0.0080894
0.024104
0.149422
0.000418005
0.000385962
0.000328494
0.000396482
0.00042619
0.00047228
0.000483191
0.000586748
0.000582441
0.000767179
0.000805619
0.00104171
0.00114888
0.00153205
0.00174234
0.00213266
0.0021465
0.00371153
0.0131084
0.103903
0.000495756
0.000515261
0.000561084
0.000594187
0.000647149
0.000653711
0.000697188
0.000724967
0.000739373
0.000861
0.000945617
0.00109698
0.00113389
0.00128826
0.00126022
0.00170593
0.00213296
0.00252433
0.00353615
0.0628477
0.000580534
0.00057986
0.000534343
0.000583712
0.000668756
0.000674363
0.000661761
0.000715312
0.000678292
0.000776814
0.000758968
0.000844132
0.000905009
0.000962568
0.000963442
0.00112187
0.000962158
0.00195933
0.00297303
0.0384055
0.000591027
0.000602307
0.000645348
0.000715311
0.000699035
0.000750045
0.000752223
0.000804972
0.000790264
0.00086634
0.000813102
0.00089653
0.000892861
0.000906642
0.000860758
0.000843956
0.000817576
0.000720146
0.00112622
0.022609
0.000554368
0.000543209
0.000523593
0.000629711
0.00059975
0.000684863
0.000625238
0.00071123
0.000702208
0.000711266
0.000752244
0.000763116
0.000664078
0.00061067
0.000746709
0.000752804
0.000663381
0.000723341
0.000523751
0.00886187
0.000407374
0.000437032
0.000457431
0.000510738
0.000516455
0.000574445
0.000561642
0.000641463
0.000652511
0.000688589
0.000713298
0.000739399
0.000734334
0.000793458
0.000853263
0.000792435
0.000781272
0.000715421
0.000684471
0.00528291
0.0143477
0.0142228
0.0140563
0.0140008
0.0137698
0.0137178
0.0134345
0.0133907
0.0129979
0.0127565
0.0125445
0.0116778
0.0108596
0.0110212
0.0100187
0.0105332
0.00909535
0.00926495
0.00779055
0.00769701
0.00706623
0.00705285
0.00699602
0.00695898
0.00688385
0.00682349
0.00672202
0.00672453
0.00649445
0.00644946
0.00619908
0.00611242
0.0061597
0.00615118
0.00614159
0.00609984
0.00571936
0.00605872
0.00598052
0.00695415
0.0043188
0.00428781
0.00425871
0.00423953
0.00424637
0.00425464
0.00428071
0.00429947
0.00426373
0.00417641
0.00410463
0.00414158
0.00403153
0.00414409
0.00397021
0.00412739
0.00380376
0.00366477
0.0030479
0.00321173
0.00285742
0.00281275
0.00277195
0.00271615
0.00265406
0.00259877
0.00253174
0.00248632
0.00242567
0.00239592
0.00239723
0.00241015
0.00234888
0.00234527
0.00222535
0.00219002
0.00225179
0.00267732
0.00242099
0.0025762
0.00172209
0.00170994
0.001704
0.00168506
0.00167012
0.00165534
0.00164218
0.00167901
0.00176308
0.00181233
0.00176021
0.00173433
0.00167284
0.00167153
0.00165916
0.0017206
0.00158006
0.00148733
0.00142777
0.00146859
0.00125043
0.00123461
0.00122878
0.00121354
0.00120021
0.00118779
0.00117449
0.00114094
0.0011032
0.00104088
0.00104481
0.0010388
0.00100368
0.00100889
0.00100102
0.00102796
0.00103846
0.00116603
0.00103166
0.00105632
0.000718865
0.000710409
0.000711317
0.000709813
0.000704488
0.000699459
0.00069731
0.000695784
0.000694925
0.000699842
0.000737811
0.000801193
0.000784121
0.000786612
0.000771193
0.000761413
0.000735458
0.00072516
0.000725903
0.000728265
0.000524295
0.000508142
0.000500217
0.000501258
0.000498845
0.000491535
0.000487336
0.00048576
0.000485662
0.000486511
0.000481946
0.000451668
0.000445806
0.000451427
0.000457918
0.000472763
0.000477003
0.000495459
0.00047376
0.000474637
0.00030749
0.000293797
0.000280463
0.000286012
0.000279124
0.000272014
0.000265593
0.000263251
0.000261869
0.000262096
0.000261845
0.000262431
0.000263069
0.00026841
0.000267069
0.000272489
0.000272119
0.000280781
0.000277141
0.000302512
0.000233565
0.000232204
0.000223175
0.000213996
0.000206191
0.000196186
0.000187692
0.000183741
0.000181748
0.000180452
0.000179028
0.000174405
0.000169751
0.000168577
0.00017249
0.000180132
0.000180227
0.000192459
0.00019793
0.000214309
0.000172883
0.000165668
0.000157686
0.000149922
0.000137686
0.00012629
0.000118179
0.000111547
0.000105199
0.000102308
0.000105205
0.000106592
9.71752e-05
8.84663e-05
8.46369e-05
8.26235e-05
8.26943e-05
8.92906e-05
9.28665e-05
9.99155e-05
0.000132692
0.000123129
0.00011494
0.000106535
0.000100678
9.59504e-05
0.00010343
0.000100702
9.10578e-05
7.6958e-05
6.39487e-05
6.2822e-05
6.07125e-05
5.82141e-05
5.33466e-05
4.64014e-05
4.13401e-05
3.75811e-05
3.93157e-05
4.03004e-05
0.000129903
0.00012228
0.000116636
0.000113056
0.000111454
0.000110274
0.000101635
8.51417e-05
7.71798e-05
7.3134e-05
7.36613e-05
7.43758e-05
7.21709e-05
6.56428e-05
5.75609e-05
4.90222e-05
4.57761e-05
3.07584e-05
1.58797e-05
4.83438e-06
0.000163042
0.000159079
0.000155987
0.000152697
0.000150452
0.00014207
0.000126803
0.000113431
0.000108958
0.000106069
0.000102866
9.86052e-05
9.75194e-05
9.40801e-05
8.9525e-05
8.45595e-05
8.12865e-05
7.36185e-05
6.48025e-05
5.82916e-05
0.000146102
0.000142559
0.000138838
0.000133295
0.000127863
0.000123035
0.000121083
0.000125029
0.000129185
0.000125963
0.000123126
0.000118445
0.000117037
0.00011743
0.000130376
0.000129489
0.00012234
0.000106278
0.000104915
9.98039e-05
0.000143328
0.000143499
0.00014296
0.000141991
0.000138548
0.000137008
0.000146872
0.000156594
0.000154446
0.000149849
0.00014394
0.000136521
0.000133077
0.000122587
0.000106084
9.55889e-05
0.000105878
0.000111835
0.000130148
0.000130162
0.000144104
0.000142988
0.000142852
0.000144681
0.000150775
0.000157094
0.000146028
0.000126212
0.000119363
0.000124122
0.000134654
0.000143858
0.000145156
0.000145492
0.000155256
0.00015752
0.000151032
0.000140248
0.000142468
0.000140064
0.000136002
0.000136061
0.000135021
0.000133333
0.000128537
0.00011886
0.000118109
0.000132601
0.000143798
0.000143751
0.000138884
0.000135149
0.000135928
0.000136974
0.000138464
0.000137832
0.000143842
0.000145762
0.000141117
0.000133294
0.000117896
0.000118933
0.000119183
0.000119627
0.00012318
0.000134573
0.000140178
0.000133894
0.000128148
0.000125069
0.000121724
0.000116874
0.000118355
0.000123285
0.000125683
0.000127773
0.000125264
0.000130643
0.000147109
0.000143783
7.64285e-05
7.73652e-05
7.84244e-05
8.05073e-05
8.09247e-05
7.96306e-05
7.42088e-05
8.12207e-05
8.04811e-05
8.39274e-05
8.49375e-05
8.83593e-05
8.94605e-05
8.99662e-05
9.12438e-05
9.28813e-05
9.39503e-05
9.65991e-05
8.61726e-05
9.11552e-05
0.00124158
0.0015333
0.00115618
0.00121728
0.00129676
0.00127448
0.00130026
0.00135078
0.0013819
0.00140991
0.00147639
0.00151954
0.00159171
0.00164545
0.00171103
0.00177877
0.00172269
0.00299199
0.00981114
0.023649
0.00120274
0.00131697
0.000991423
0.00111307
0.00118584
0.00123786
0.00130244
0.00133137
0.00139294
0.00143508
0.00148147
0.00152243
0.0015894
0.00162885
0.00170343
0.00174528
0.00173201
0.00248208
0.00883709
0.0231218
0.00119572
0.00140891
0.00107562
0.00114621
0.00124751
0.00125314
0.00127493
0.00132359
0.00136815
0.00140187
0.00146618
0.00151562
0.00158852
0.00163568
0.00171054
0.00174922
0.00175457
0.00238776
0.00812339
0.0226317
0.00125464
0.00140663
0.00103311
0.00112985
0.00118148
0.00121314
0.00127884
0.00132313
0.00137413
0.00141166
0.00147083
0.00151335
0.0015795
0.0016132
0.00169051
0.00170679
0.00177203
0.00162183
0.00700707
0.0221189
0.00124824
0.00142572
0.00109744
0.00115396
0.00123632
0.00126605
0.00129103
0.00132891
0.00136467
0.00140944
0.00146817
0.00150726
0.00157452
0.0016113
0.00169044
0.00170901
0.00178534
0.00160355
0.00624826
0.0215332
0.00124197
0.00140467
0.00107576
0.00114689
0.00120541
0.00122704
0.00126933
0.00131131
0.00136353
0.00140234
0.00145154
0.00150081
0.00156562
0.00159691
0.00167475
0.00167853
0.00180293
0.0015394
0.00526574
0.020917
0.00126598
0.00140911
0.00111142
0.00118477
0.0012393
0.00126696
0.00129637
0.00134274
0.00137378
0.00140836
0.00146562
0.0015022
0.00155745
0.00159429
0.00167865
0.00169902
0.00181283
0.00158359
0.00500044
0.0202162
0.00129028
0.00140407
0.00110154
0.00117474
0.00122256
0.00123328
0.0012815
0.0013145
0.00134255
0.00139688
0.00144049
0.0014954
0.00156904
0.00160905
0.00168878
0.00169042
0.00182438
0.00163339
0.00568602
0.0194284
0.00124399
0.00135916
0.00110566
0.00118056
0.00122794
0.00126892
0.00130459
0.00132047
0.00136322
0.00140669
0.00145254
0.00151008
0.001553
0.00159169
0.00168353
0.0017077
0.0018578
0.00167453
0.00536669
0.0186592
0.00126313
0.0013284
0.00110337
0.00116595
0.00120198
0.00122417
0.00122129
0.00127048
0.00132888
0.00137712
0.00143593
0.00149306
0.00154654
0.00161289
0.0016754
0.00167968
0.00183716
0.00167724
0.00478303
0.0178218
0.00116846
0.00123592
0.00107229
0.00113022
0.00118439
0.00120618
0.00125881
0.0013347
0.00136447
0.00140625
0.00145186
0.00149391
0.0015432
0.00159349
0.00164126
0.00170632
0.00185224
0.00169643
0.00409251
0.0160681
0.00118132
0.0012456
0.00109289
0.0011578
0.00120098
0.00122902
0.00126968
0.00129592
0.00131478
0.00137026
0.00140943
0.00145995
0.00148756
0.00153386
0.00157519
0.00164624
0.00173517
0.00171706
0.00331682
0.0141103
0.0011294
0.00118933
0.00108431
0.00114194
0.00117213
0.00120449
0.00123689
0.00127002
0.00130008
0.00134923
0.00137953
0.00141374
0.00145753
0.00153671
0.00159804
0.00169071
0.00175538
0.00177478
0.00292113
0.0117198
0.00111477
0.00116215
0.00107174
0.00110227
0.00114483
0.00118217
0.00120822
0.00122974
0.00127301
0.00132716
0.0013389
0.0014014
0.00144662
0.00151509
0.00153589
0.001615
0.00168525
0.00174757
0.00226524
0.00926624
0.0010701
0.00111787
0.00104511
0.00108901
0.00114165
0.00116672
0.00118965
0.00123679
0.00130262
0.0013263
0.00137468
0.00145477
0.0014932
0.00153489
0.00156246
0.00170007
0.001689
0.00168189
0.00205429
0.00761568
0.00107136
0.00112809
0.0010756
0.00112416
0.00115545
0.00116115
0.00119929
0.00125904
0.00127871
0.00129881
0.00134813
0.00137476
0.00137675
0.00144149
0.00153986
0.00159014
0.00154833
0.00168445
0.00175445
0.00610057
0.00101693
0.00107885
0.00102934
0.00106542
0.00109642
0.00112763
0.00119007
0.00121272
0.0012234
0.00127213
0.00133182
0.00138316
0.0014418
0.0015689
0.00156877
0.00157214
0.00157151
0.00164798
0.00176072
0.00539653
0.0010234
0.00107028
0.00102998
0.00108218
0.00112356
0.00116033
0.00119074
0.00120672
0.00124936
0.0013265
0.00135242
0.00137169
0.00142637
0.00143413
0.00138792
0.00144886
0.00148868
0.00166991
0.00172454
0.00431633
0.000988749
0.00103089
0.00101122
0.0010554
0.00108756
0.00110154
0.0011296
0.00115881
0.00121783
0.00123806
0.00123757
0.0012919
0.0013282
0.00135573
0.0014383
0.00160496
0.00164292
0.00166931
0.0017595
0.00392735
0.000995217
0.00103386
0.00101201
0.00106186
0.00108181
0.00111111
0.00114013
0.00117465
0.00120418
0.00121453
0.00127109
0.00132953
0.00136654
0.0014225
0.001525
0.00151408
0.00155966
0.00162613
0.00159217
0.00352021
0.000972022
0.0011997
0.00127803
0.00115675
0.00101306
0.000914202
0.000948063
0.00092089
0.000916749
0.000931849
0.000947058
0.000955012
0.00104124
0.000995596
0.000512071
0.000183909
0.0044599
0.0135553
0.0157614
0.00729625
0.000978063
0.00115981
0.00122231
0.00114219
0.0010769
0.000965473
0.000927787
0.000937393
0.000950887
0.000955674
0.00097798
0.00103562
0.00109952
0.00108997
0.000841387
0.000361546
0.00236753
0.0124487
0.0163032
0.010147
0.000978023
0.00119957
0.00133462
0.00122236
0.00110436
0.00100392
0.00102602
0.000996764
0.000997453
0.00103203
0.00105044
0.00106587
0.00111174
0.00123614
0.00113311
0.000664377
0.000927647
0.0114159
0.0166076
0.0129612
0.000970512
0.00113797
0.00128369
0.00122633
0.00116319
0.00103544
0.00099504
0.00101841
0.00103425
0.00103764
0.00107513
0.00114218
0.00118639
0.00125053
0.00121594
0.000741938
0.000376545
0.010415
0.0166273
0.0156534
0.00099118
0.00119347
0.00137509
0.00126982
0.00117569
0.00108272
0.00109281
0.00106659
0.00107654
0.00112517
0.00114237
0.00116467
0.00123404
0.00134589
0.00135017
0.00101742
0.000589852
0.00865973
0.0165871
0.0182542
0.000991996
0.00114776
0.00133473
0.00127416
0.00121619
0.00109039
0.00105789
0.00109331
0.00110855
0.00111024
0.00115729
0.00123013
0.00127541
0.00131393
0.0013823
0.0011928
0.00019805
0.00648302
0.0165717
0.0195761
0.00101135
0.00117459
0.00139164
0.00129059
0.00121186
0.00114394
0.0011453
0.00111877
0.00113925
0.00120001
0.0012175
0.00124901
0.0013243
0.00140778
0.00146853
0.00133431
0.000159604
0.00490255
0.0161907
0.0213732
0.00100987
0.00114434
0.00137562
0.00130228
0.00124093
0.00112604
0.0011081
0.00116228
0.0011799
0.00117577
0.00122755
0.00130446
0.00135009
0.00140676
0.00145745
0.00138497
0.000466753
0.00352837
0.0160159
0.0216708
0.00102966
0.00117091
0.00140984
0.00128901
0.00121644
0.00118323
0.00119194
0.0011628
0.00118635
0.00126106
0.00128695
0.00132832
0.00140357
0.00147628
0.00152574
0.00154672
0.000652731
0.00259943
0.0156794
0.0226245
0.00104564
0.00114478
0.00139085
0.00129956
0.00124446
0.00115385
0.00114599
0.00121779
0.00124499
0.0012337
0.00128659
0.00136486
0.00140938
0.00148111
0.00150897
0.00153113
0.000842614
0.00195089
0.0152444
0.0232935
0.00104571
0.00115741
0.00142431
0.00127997
0.00120264
0.00120273
0.00123418
0.00120158
0.00121806
0.00130797
0.00134989
0.00139053
0.00146271
0.00153247
0.00156827