/*--------------------------------*- C++ -*----------------------------------*\
  =========                 |
  \\      /  F ield         | OpenFOAM: The Open Source CFD Toolbox
   \\    /   O peration     | Website:  https://openfoam.org
    \\  /    A nd           | Version:  9
     \\/     M anipulation  |
\*---------------------------------------------------------------------------*/
FoamFile
{
    format      ascii;
    class       surfaceScalarField;
    location    "4.7";
    object      phi;
}
// * * * * * * * * * * * * * * * * * * * * * * * * * * * * * * * * * * * * * //

dimensions      [0 3 -1 0 0 0 0];

internalField   nonuniform List<scalar> 
92080
(
-0.00620633
-0.407545
0.413751
-0.0355427
-0.772337
0.801674
-0.0767872
-0.811873
0.853117
-0.117774
-0.797382
0.838369
-0.157791
-0.785712
0.825729
-0.197672
-0.771892
0.811772
-0.237493
-0.760283
0.800104
-0.276985
-0.750301
0.789793
-0.316323
-0.741747
0.781085
-0.354775
-0.733018
0.77147
-0.392158
-0.724218
0.761601
-0.42935
-0.715329
0.75252
-0.466425
-0.707981
0.745055
-0.503702
-0.700611
0.737888
-0.54059
-0.695393
0.732281
-0.57685
-0.68906
0.72532
-0.614251
-0.683215
0.720617
-0.649639
-0.680254
0.715642
-0.679995
-0.674639
0.704995
-0.668295
0.698055
-0.709755
-0.0057426
-0.401802
-0.0411097
-0.73697
-0.0828427
-0.77014
-0.125466
-0.754759
-0.167641
-0.743537
-0.20905
-0.730482
-0.25085
-0.718483
-0.293089
-0.708061
-0.334765
-0.700072
-0.375548
-0.692234
-0.415635
-0.684131
-0.45487
-0.676094
-0.493594
-0.669256
-0.532338
-0.661867
-0.570758
-0.656973
-0.608134
-0.651684
-0.645842
-0.645506
-0.684715
-0.641382
-0.720587
-0.638767
-0.635379
-0.753504
-0.00150416
-0.400298
-0.0406061
-0.697868
-0.0869083
-0.723838
-0.131947
-0.70972
-0.17584
-0.699645
-0.218863
-0.68746
-0.260989
-0.676357
-0.303007
-0.666044
-0.345445
-0.657634
-0.387019
-0.65066
-0.427358
-0.643792
-0.466963
-0.636489
-0.505522
-0.630697
-0.544034
-0.623355
-0.582469
-0.618538
-0.619074
-0.615078
-0.654743
-0.609838
-0.691161
-0.604963
-0.7291
-0.600829
-0.597656
-0.766822
0.00112289
-0.401421
-0.0405279
-0.656217
-0.0903174
-0.674048
-0.139286
-0.660751
-0.186358
-0.652573
-0.231518
-0.6423
-0.276374
-0.6315
-0.320698
-0.62172
-0.364869
-0.613462
-0.408857
-0.606673
-0.452273
-0.600376
-0.494884
-0.593878
-0.535841
-0.58974
-0.576011
-0.583185
-0.618304
-0.576245
-0.660744
-0.572638
-0.701472
-0.56911
-0.740575
-0.565861
-0.778381
-0.563022
-0.559949
-0.816089
0.0024438
-0.403864
-0.0408982
-0.612875
-0.0929614
-0.621985
-0.143087
-0.610625
-0.192112
-0.603548
-0.238611
-0.595801
-0.283189
-0.586922
-0.326967
-0.577942
-0.371131
-0.569298
-0.414904
-0.5629
-0.457948
-0.557331
-0.501809
-0.550018
-0.544854
-0.546695
-0.584121
-0.543918
-0.62184
-0.538527
-0.661045
-0.533433
-0.700788
-0.529366
-0.741176
-0.525473
-0.781561
-0.522637
-0.519742
-0.821769
-0.00190261
-0.401962
-0.0495828
-0.565195
-0.103016
-0.568552
-0.15505
-0.558591
-0.206444
-0.552154
-0.255934
-0.546312
-0.304036
-0.538819
-0.349862
-0.532116
-0.394751
-0.52441
-0.439985
-0.517666
-0.483516
-0.5138
-0.526982
-0.506551
-0.573429
-0.500248
-0.620127
-0.49722
-0.663985
-0.494669
-0.705524
-0.491894
-0.74622
-0.488669
-0.786144
-0.485549
-0.825988
-0.482792
-0.48082
-0.86491
-0.00898348
-0.392978
-0.0561142
-0.518064
-0.107871
-0.516796
-0.158238
-0.508224
-0.209012
-0.50138
-0.258552
-0.496772
-0.306374
-0.490997
-0.352773
-0.485717
-0.397842
-0.479341
-0.443421
-0.472087
-0.487977
-0.469245
-0.529219
-0.465309
-0.570014
-0.459453
-0.612792
-0.454441
-0.656998
-0.450463
-0.701068
-0.447824
-0.744258
-0.44548
-0.787053
-0.442754
-0.829496
-0.440349
-0.43834
-0.871976
-0.0206714
-0.372307
-0.0702212
-0.468515
-0.121995
-0.465022
-0.173275
-0.456944
-0.224928
-0.449726
-0.276707
-0.444993
-0.328485
-0.439219
-0.37794
-0.436262
-0.42482
-0.432461
-0.472546
-0.42436
-0.522175
-0.419616
-0.57036
-0.417124
-0.615603
-0.41421
-0.658841
-0.411203
-0.701123
-0.408181
-0.74341
-0.405537
-0.785066
-0.403824
-0.82594
-0.40188
-0.866623
-0.399666
-0.398171
-0.906792
-0.0261739
-0.346133
-0.0749132
-0.419775
-0.125101
-0.414834
-0.174133
-0.407913
-0.224106
-0.399753
-0.273582
-0.395517
-0.324199
-0.388602
-0.376147
-0.384314
-0.424086
-0.384523
-0.468249
-0.380197
-0.513231
-0.374635
-0.560016
-0.370338
-0.607338
-0.366889
-0.65444
-0.364101
-0.701101
-0.36152
-0.74712
-0.359518
-0.792976
-0.357968
-0.837852
-0.357003
-0.881751
-0.355767
-0.354406
-0.925517
-0.0373512
-0.308782
-0.0932119
-0.363915
-0.149613
-0.358433
-0.201608
-0.355919
-0.251914
-0.349447
-0.301332
-0.346099
-0.349588
-0.340345
-0.401171
-0.332731
-0.454807
-0.330887
-0.505082
-0.329923
-0.551845
-0.327871
-0.596772
-0.325411
-0.641564
-0.322097
-0.685829
-0.319837
-0.730103
-0.317246
-0.774621
-0.315
-0.81883
-0.313759
-0.863286
-0.312548
-0.906934
-0.312119
-0.311748
-0.949592
-0.0398071
-0.268975
-0.0946048
-0.309117
-0.150163
-0.302875
-0.203788
-0.302293
-0.255152
-0.298084
-0.304308
-0.296943
-0.349388
-0.295265
-0.39312
-0.288999
-0.440056
-0.283951
-0.488963
-0.281016
-0.538662
-0.278172
-0.587026
-0.277046
-0.634211
-0.274912
-0.681378
-0.272671
-0.727306
-0.271318
-0.773513
-0.268793
-0.819781
-0.267491
-0.865865
-0.266464
-0.912639
-0.265345
-0.265476
-0.958911
-0.0459178
-0.223057
-0.105787
-0.249248
-0.165167
-0.243495
-0.222369
-0.245091
-0.279588
-0.240864
-0.338065
-0.238466
-0.393411
-0.239918
-0.443032
-0.239378
-0.490707
-0.236276
-0.537261
-0.234462
-0.583831
-0.231603
-0.631459
-0.229418
-0.677635
-0.228736
-0.72339
-0.226916
-0.768543
-0.226165
-0.812339
-0.224997
-0.856598
-0.223232
-0.900438
-0.222624
-0.944426
-0.221357
-0.221056
-0.988846
-0.0416044
-0.181453
-0.0913679
-0.199485
-0.143159
-0.191704
-0.19414
-0.19411
-0.243295
-0.191709
-0.29633
-0.185431
-0.352561
-0.183688
-0.408556
-0.183383
-0.462457
-0.182375
-0.515913
-0.181005
-0.566748
-0.180768
-0.61721
-0.178957
-0.667607
-0.178338
-0.716674
-0.177849
-0.765844
-0.176995
-0.813744
-0.177097
-0.860607
-0.176369
-0.907215
-0.176016
-0.952849
-0.175722
-0.175173
-0.998732
-0.052754
-0.128699
-0.101727
-0.150511
-0.155405
-0.138026
-0.214628
-0.134886
-0.27125
-0.135087
-0.324446
-0.132235
-0.378092
-0.130042
-0.432352
-0.129123
-0.485575
-0.129153
-0.537818
-0.128762
-0.589689
-0.128896
-0.639601
-0.129045
-0.689471
-0.128468
-0.738636
-0.128684
-0.787051
-0.12858
-0.835441
-0.128706
-0.882724
-0.129086
-0.929591
-0.12915
-0.97579
-0.129523
-0.129922
-1.02104
-0.0686749
-0.0600237
-0.129675
-0.0895107
-0.185854
-0.0818474
-0.240064
-0.0806768
-0.295642
-0.0795086
-0.346587
-0.0812903
-0.396792
-0.0798371
-0.446192
-0.079722
-0.495885
-0.07946
-0.545398
-0.0792487
-0.595051
-0.0792425
-0.644712
-0.0793845
-0.693687
-0.0794936
-0.742611
-0.07976
-0.79136
-0.0798313
-0.83949
-0.0805763
-0.88796
-0.0806157
-0.935385
-0.0817249
-0.982944
-0.0819647
-0.083066
-1.0298
-0.0578166
-0.00220704
-0.124108
-0.0232191
-0.185726
-0.0202296
-0.240719
-0.0256836
-0.295033
-0.0251948
-0.349675
-0.0266485
-0.402671
-0.026841
-0.455225
-0.0271676
-0.5075
-0.0271852
-0.559012
-0.0277365
-0.610181
-0.0280734
-0.660544
-0.0290215
-0.710536
-0.0295018
-0.759564
-0.0307319
-0.808279
-0.0311171
-0.85639
-0.0324647
-0.90401
-0.0329958
-0.951469
-0.0342658
-0.998382
-0.0350522
-0.0362127
-1.04523
-0.0421685
0.0399615
-0.100271
0.0348839
-0.155999
0.0354977
-0.214848
0.0331651
-0.271927
0.0318842
-0.329238
0.0306634
-0.386504
0.0304249
-0.441707
0.0280347
-0.496337
0.0274452
-0.549768
0.0256947
-0.60263
0.0247887
-0.6549
0.0232484
-0.706469
0.0220675
-0.757762
0.0205603
-0.807968
0.0190894
-0.858106
0.0176734
-0.907048
0.0159466
-0.955864
0.0145499
-1.00373
0.0128119
0.011443
-1.05138
-0.0508193
0.0907807
-0.115044
0.0991086
-0.174581
0.0950351
-0.233136
0.0917199
-0.292181
0.0909286
-0.350045
0.0885278
-0.405285
0.0856651
-0.460966
0.0837152
-0.51481
0.0812892
-0.567851
0.078736
-0.619924
0.0768613
-0.671099
0.0744241
-0.721774
0.0727417
-0.771634
0.0704208
-0.821305
0.0687601
-0.870073
0.0664415
-0.918849
0.0647223
-0.966613
0.0623141
-1.01432
0.0605193
0.0581447
-1.06102
-0.0506827
0.141463
-0.108529
0.156955
-0.164994
0.151501
-0.224083
0.150809
-0.281007
0.147853
-0.337354
0.144874
-0.393823
0.142134
-0.449172
0.139065
-0.504484
0.1366
-0.558885
0.133137
-0.613317
0.131293
-0.666612
0.127719
-0.719239
0.125369
-0.770997
0.122178
-0.821716
0.119479
-0.871916
0.116642
-0.920989
0.113795
-0.969724
0.11105
-1.01757
0.108366
0.105644
-1.06507
-0.0597133
0.201177
-0.121957
0.219198
-0.182979
0.212523
-0.241165
0.208995
-0.29739
0.204078
-0.352905
0.200389
-0.408577
0.197806
-0.463138
0.193625
-0.516564
0.190026
-0.570556
0.18713
-0.622566
0.183303
-0.674308
0.179461
-0.725068
0.176128
-0.775531
0.172642
-0.825311
0.169258
-0.874659
0.165991
-0.923475
0.162611
-0.972085
0.15966
-1.02026
0.156545
-1.06826
0.153638
0.000278984
-0.0196863
0.0194073
0.0530097
-0.126965
0.074234
0.19742
-0.386441
0.242031
0.373555
-0.748281
0.572146
0.481252
-0.968573
0.860876
0.531116
-1.05764
1.00778
0.551913
-1.08216
1.06136
0.561452
-1.08544
1.0759
0.566696
-1.08262
1.07737
0.569457
-1.07662
1.07386
0.573328
-1.07292
1.06905
0.577714
-1.07004
1.06565
0.580936
-1.06742
1.0642
0.583582
-1.06417
1.06152
0.586479
-1.06067
1.05778
0.590194
-1.05921
1.0555
0.594342
-1.06002
1.05587
0.598812
-1.06255
1.05808
0.602307
-1.06329
1.0598
-1.06041
0.604073
1.05865
0.0159085
-0.0355948
0.0844179
-0.195474
0.248414
-0.550436
0.378626
-0.878493
0.44659
-1.03654
0.473231
-1.08428
0.483638
-1.09257
0.489077
-1.09088
0.491627
-1.08517
0.494298
-1.07929
0.497138
-1.07576
0.499417
-1.07232
0.502011
-1.07002
0.504061
-1.06622
0.505872
-1.06248
0.508525
-1.06187
0.512999
-1.06449
0.51672
-1.06627
0.519083
-1.06566
-1.05828
0.51695
0.03212
-0.0677148
0.12028
-0.283635
0.26503
-0.695186
0.357719
-0.971182
0.396796
-1.07561
0.410532
-1.09802
0.416574
-1.09861
0.419597
-1.0939
0.420661
-1.08623
0.42215
-1.08078
0.423452
-1.07706
0.425095
-1.07396
0.425953
-1.07087
0.426164
-1.06643
0.427027
-1.06335
0.428918
-1.06376
0.431015
-1.06659
0.431146
-1.06641
0.429062
-1.06357
-1.05154
0.422321
0.0280431
-0.095758
0.138696
-0.394287
0.255932
-0.812423
0.318496
-1.03375
0.340458
-1.09758
0.347293
-1.10486
0.350684
-1.102
0.350822
-1.09404
0.350996
-1.0864
0.351263
-1.08105
0.35156
-1.07736
0.351338
-1.07374
0.350598
-1.07013
0.349857
-1.06569
0.349468
-1.06296
0.349011
-1.0633
0.347854
-1.06543
0.345342
-1.06389
0.339923
-1.05815
-1.04334
0.331726
0.0281075
-0.123865
0.134571
-0.500751
0.223493
-0.901345
0.266386
-1.07664
0.27916
-1.11035
0.284113
-1.10981
0.285336
-1.10322
0.285312
-1.09401
0.285028
-1.08612
0.284145
-1.08017
0.282521
-1.07573
0.280618
-1.07184
0.278336
-1.06785
0.275573
-1.06292
0.272914
-1.0603
0.270542
-1.06093
0.26742
-1.06231
0.262298
-1.05877
0.253053
-1.04891
-1.03368
0.243391
0.0376702
-0.161536
0.129017
-0.592098
0.197248
-0.969576
0.221993
-1.10138
0.228053
-1.11641
0.229409
-1.11117
0.227833
-1.10165
0.226154
-1.09233
0.223363
-1.08333
0.220019
-1.07682
0.216421
-1.07214
0.21223
-1.06765
0.207419
-1.06304
0.202558
-1.05806
0.197832
-1.05557
0.192526
-1.05562
0.186202
-1.05599
0.177592
-1.05016
0.167164
-1.03848
-1.02492
0.158405
0.0440759
-0.205612
0.118835
-0.666857
0.16684
-1.01758
0.179152
-1.11369
0.180262
-1.11752
0.177347
-1.10825
0.174094
-1.09839
0.169946
-1.08819
0.165283
-1.07867
0.160011
-1.07155
0.154005
-1.06613
0.147602
-1.06124
0.14083
-1.05627
0.133807
-1.05104
0.126483
-1.04825
0.118935
-1.04808
0.110823
-1.04787
0.100984
-1.04032
0.0907571
-1.02825
-1.01434
0.080168
0.0399661
-0.245578
0.101869
-0.72876
0.135731
-1.05144
0.139831
-1.11779
0.136889
-1.11458
0.131204
-1.10257
0.125128
-1.09232
0.118594
-1.08165
0.111283
-1.07136
0.103321
-1.06359
0.0949086
-1.05772
0.0860364
-1.05237
0.076751
-1.04698
0.067197
-1.04149
0.0577512
-1.0388
0.0480762
-1.0384
0.0376367
-1.03743
0.0263689
-1.02906
0.0147194
-1.0166
-1.00276
0.00314333
0.0350126
-0.28059
0.0832103
-0.776958
0.104052
-1.07228
0.102523
-1.11627
0.095949
-1.10801
0.088348
-1.09496
0.0803235
-1.08429
0.07148
-1.07281
0.062021
-1.0619
0.0518825
-1.05345
0.0411539
-1.04699
0.0300293
-1.04125
0.0188325
-1.03579
0.00765533
-1.03031
-0.00399476
-1.02715
-0.0160495
-1.02635
-0.02825
-1.02523
-0.0405398
-1.01677
-0.0532465
-1.0039
-0.989001
-0.0670045
0.0328359
-0.313426
0.0713261
-0.815448
0.0800613
-1.08102
0.0729253
-1.10913
0.0620234
-1.0971
0.0509636
-1.0839
0.0393678
-1.0727
0.0277604
-1.0612
0.0156298
-1.04977
0.00287626
-1.0407
-0.0102816
-1.03383
-0.023662
-1.02787
-0.0373035
-1.02215
-0.0511428
-1.01647
-0.0649553
-1.01334
-0.0793338
-1.01197
-0.0943551
-1.01021
-0.109421
-1.0017
-0.124834
-0.988483
-0.973232
-0.140603
0.0262916
-0.339718
0.0546841
-0.84384
0.05532
-1.08165
0.0434678
-1.09728
0.0301301
-1.08377
0.0165948
-1.07037
0.00269005
-1.05879
-0.0115651
-1.04695
-0.0260668
-1.03526
-0.041042
-1.02572
-0.0564638
-1.01841
-0.0721854
-1.01214
-0.0878698
-1.00646
-0.103866
-1.00047
-0.120866
-0.996337
-0.138531
-0.994302
-0.156489
-0.992256
-0.174202
-0.983986
-0.191907
-0.970778
-0.955755
-0.209384
0.0226187
-0.362337
0.0420782
-0.8633
0.0358971
-1.07547
0.0204014
-1.08178
0.00303395
-1.0664
-0.0142546
-1.05308
-0.0316429
-1.0414
-0.0488777
-1.02971
-0.0663494
-1.01779
-0.0844064
-1.00766
-0.102686
-1.00013
-0.121182
-0.993649
-0.139914
-0.98773
-0.158817
-0.98157
-0.178404
-0.97675
-0.199488
-0.973218
-0.221094
-0.970649
-0.241914
-0.963166
-0.261887
-0.950804
-0.936209
-0.281434
0.0179328
-0.380269
0.029745
-0.875112
0.0167833
-1.06251
-0.00265489
-1.06234
-0.0225286
-1.04652
-0.0425536
-1.03306
-0.0627862
-1.02117
-0.0830106
-1.00949
-0.103182
-0.997622
-0.123673
-0.987172
-0.144788
-0.979015
-0.166055
-0.972382
-0.187396
-0.966389
-0.209144
-0.959823
-0.231603
-0.954292
-0.254906
-0.949915
-0.278862
-0.946694
-0.301911
-0.940116
-0.323066
-0.929649
-0.916467
-0.342808
0.0142635
-0.394533
0.0185526
-0.879401
-0.000300633
-1.04366
-0.0234098
-1.03923
-0.0468362
-1.0231
-0.0703153
-1.00958
-0.0936028
-0.997883
-0.116759
-0.986331
-0.140001
-0.974379
-0.16376
-0.963414
-0.187727
-0.955048
-0.212198
-0.947911
-0.236637
-0.94195
-0.260938
-0.935522
-0.286024
-0.929205
-0.31245
-0.923489
-0.338941
-0.920203
-0.364011
-0.915046
-0.386886
-0.906775
-0.894919
-0.408434
0.0108687
-0.405402
0.0103516
-0.878884
-0.0119008
-1.02141
-0.0383228
-1.01281
-0.0647692
-0.996652
-0.0916236
-0.982723
-0.118608
-0.970899
-0.14529
-0.959649
-0.171601
-0.948068
-0.198188
-0.936827
-0.225385
-0.92785
-0.252515
-0.920782
-0.27986
-0.914605
-0.307027
-0.908355
-0.333708
-0.902524
-0.361115
-0.896082
-0.389478
-0.89184
-0.416578
-0.887946
-0.440882
-0.88247
-0.872367
-0.463435
0.00711301
-0.412515
0.00107542
-0.872846
-0.0277124
-0.992618
-0.0577466
-0.982778
-0.0871968
-0.967202
-0.116627
-0.953293
-0.145656
-0.94187
-0.174624
-0.930681
-0.20352
-0.919172
-0.232602
-0.907745
-0.262175
-0.898277
-0.292439
-0.890518
-0.322383
-0.884661
-0.352103
-0.878635
-0.381657
-0.87297
-0.411043
-0.866696
-0.440649
-0.862234
-0.469852
-0.858743
-0.497192
-0.85513
-0.846883
-0.522675
0.00404942
-0.416564
-0.00737517
-0.861422
-0.0371455
-0.962848
-0.0693507
-0.950573
-0.10114
-0.935412
-0.133415
-0.921018
-0.16598
-0.909305
-0.197878
-0.898783
-0.22909
-0.88796
-0.260519
-0.876316
-0.292289
-0.866507
-0.32436
-0.858447
-0.357111
-0.85191
-0.38948
-0.846266
-0.420761
-0.841689
-0.451978
-0.835479
-0.484247
-0.829965
-0.516578
-0.826412
-0.547578
-0.82413
-0.818143
-0.576319
0.00140267
-0.417967
-0.0143524
-0.845667
-0.0487619
-0.928438
-0.0840707
-0.915264
-0.118486
-0.900997
-0.15277
-0.886734
-0.186745
-0.87533
-0.220841
-0.864687
-0.254334
-0.854466
-0.287271
-0.84338
-0.320814
-0.832964
-0.354791
-0.82447
-0.388751
-0.817949
-0.423466
-0.811551
-0.457886
-0.80727
-0.49069
-0.802674
-0.523594
-0.797062
-0.559045
-0.790961
-0.594997
-0.788178
-0.784744
-0.628396
-0.00128344
-0.416683
-0.0214163
-0.825534
-0.0576268
-0.892228
-0.0949846
-0.877907
-0.131501
-0.86448
-0.168136
-0.850099
-0.204987
-0.838479
-0.241088
-0.828587
-0.276522
-0.819032
-0.311509
-0.808392
-0.346152
-0.798321
-0.381505
-0.789116
-0.417419
-0.782036
-0.4536
-0.77537
-0.490911
-0.76996
-0.528818
-0.764767
-0.564961
-0.760919
-0.602117
-0.753805
-0.643434
-0.746861
-0.744964
-0.683214
-0.00293246
-0.0267927
-0.0659032
-0.105441
-0.144192
-0.182518
-0.220893
-0.259687
-0.297635
-0.334556
-0.371277
-0.407873
-0.444853
-0.482335
-0.520014
-0.559461
-0.599763
-0.637926
-0.679792
-0.726701
0.502121
-9.15929
9.26124
0.427424
-8.72405
8.79874
0.376734
-8.82642
8.87711
0.331187
-8.66093
8.70648
0.294493
-8.69984
8.73653
0.260773
-8.57329
8.60701
0.234257
-8.65029
8.6768
0.211385
-8.59144
8.61431
0.189485
-8.66284
8.68474
0.166991
-8.61939
8.64189
0.145902
-8.68262
8.70371
0.125865
-8.63985
8.65989
0.1083
-8.7251
8.74267
0.0880116
-8.66334
8.68363
0.0757762
-8.75203
8.76427
0.0560969
-8.6504
8.67008
0.0506931
-8.48653
8.49193
0.0356984
-7.54801
7.563
0.0182208
-5.35653
5.374
-2.2674
2.28562
0.410533
-9.05287
0.341688
-8.6552
0.293697
-8.77843
0.253509
-8.62074
0.222013
-8.66834
0.193262
-8.54454
0.17027
-8.6273
0.150302
-8.57147
0.131711
-8.64425
0.113755
-8.60144
0.0974911
-8.66636
0.0829541
-8.62531
0.0713902
-8.71354
0.0573685
-8.64932
0.0507046
-8.74537
0.0363425
-8.63603
0.0370244
-8.48721
0.0277352
-7.53872
0.0156461
-5.34444
-2.25175
0.326226
-8.95678
0.261947
-8.59092
0.215222
-8.7317
0.17743
-8.58295
0.150724
-8.64163
0.126909
-8.52072
0.108796
-8.60918
0.0946261
-8.5573
0.0811096
-8.63073
0.0678774
-8.58821
0.0559709
-8.65445
0.0456309
-8.61497
0.03841
-8.70632
0.0291903
-8.6401
0.0264129
-8.74259
0.0167765
-8.6264
0.0236823
-8.49412
0.0210564
-7.53609
0.0142366
-5.33762
-2.23751
0.239799
-8.86485
0.176457
-8.52758
0.133705
-8.68895
0.101659
-8.55091
0.0795126
-8.61949
0.0603591
-8.50157
0.0453243
-8.59415
0.0335909
-8.54557
0.0233997
-8.62054
0.0147972
-8.5796
0.00764507
-8.6473
0.00280259
-8.61013
0.00156258
-8.70508
-0.00135926
-8.63718
0.00103612
-8.74499
-0.0029148
-8.62245
0.00994362
-8.50698
0.0130919
-7.53924
0.0117166
-5.33624
-2.2258
0.157959
-8.77942
0.101758
-8.47138
0.0595376
-8.64673
0.0290637
-8.52043
0.0107482
-8.60117
-0.00466213
-8.48616
-0.0152506
-8.58356
-0.0212033
-8.53961
-0.0267373
-8.61501
-0.030816
-8.57552
-0.0336982
-8.64441
-0.034004
-8.60982
-0.030775
-8.70831
-0.0293484
-8.63861
-0.0234349
-8.7509
-0.0223216
-8.62356
-0.00335615
-8.52594
0.00608526
-7.54868
0.0100618
-5.34022
-2.21573
0.07708
-8.69809
0.0184664
-8.41277
-0.0211314
-8.60713
-0.0453614
-8.4962
-0.059367
-8.58717
-0.0704759
-8.47505
-0.0778679
-8.57617
-0.0815108
-8.53597
-0.0839027
-8.61262
-0.083512
-8.57591
-0.0814808
-8.64645
-0.0762609
-8.61504
-0.0673451
-8.71722
-0.0602312
-8.64572
-0.0489912
-8.76214
-0.0414891
-8.63106
-0.0166851
-8.55075
-0.00174947
-7.56362
0.00764389
-5.34961
-2.20809
-0.00181932
-8.6161
-0.0524033
-8.36218
-0.0904264
-8.56911
-0.114678
-8.47195
-0.125986
-8.57586
-0.133776
-8.46726
-0.136183
-8.57376
-0.134768
-8.53739
-0.133243
-8.61414
-0.128523
-8.58064
-0.12222
-8.65275
-0.112491
-8.62477
-0.0991795
-8.73054
-0.088184
-8.65672
-0.073058
-8.77727
-0.0600359
-8.64408
-0.0295763
-8.58121
-0.00891375
-7.58428
0.00588289
-5.36441
-2.20221
-0.0778247
-8.53514
-0.132581
-8.30742
-0.168861
-8.53283
-0.187911
-8.4529
-0.194223
-8.56955
-0.19867
-8.46281
-0.198583
-8.57385
-0.194255
-8.54171
-0.189432
-8.61896
-0.18024
-8.58983
-0.169005
-8.66398
-0.154088
-8.63969
-0.135361
-8.74926
-0.118898
-8.67318
-0.097724
-8.79844
-0.0782388
-8.66357
-0.0426634
-8.61678
-0.0165606
-7.61038
0.00354823
-5.38452
-2.19866
-0.151922
-8.45022
-0.20459
-8.25476
-0.23706
-8.50036
-0.255384
-8.43458
-0.259915
-8.56502
-0.26006
-8.46267
-0.254215
-8.57969
-0.245666
-8.55026
-0.237468
-8.62716
-0.223957
-8.60334
-0.208778
-8.67916
-0.189837
-8.65863
-0.166703
-8.7724
-0.14644
-8.69344
-0.120712
-8.82417
-0.0957267
-8.68856
-0.0554467
-8.65706
-0.0237252
-7.6421
0.00171017
-5.40995
-2.19695
-0.226417
-8.36441
-0.278854
-8.20232
-0.312028
-8.46718
-0.327094
-8.41951
-0.326209
-8.5659
-0.324734
-8.46414
-0.316103
-8.58832
-0.303512
-8.56285
-0.292004
-8.63867
-0.274068
-8.62127
-0.254079
-8.69915
-0.230414
-8.6823
-0.202009
-8.8008
-0.176464
-8.71899
-0.144763
-8.85587
-0.113502
-8.71982
-0.0685327
-8.70203
-0.0311135
-7.67952
-0.00022088
-5.44084
-2.19717
-0.29724
-8.27655
-0.349854
-8.14971
-0.378435
-8.4386
-0.393035
-8.40491
-0.390305
-8.56863
-0.383447
-8.471
-0.369262
-8.60251
-0.352817
-8.5793
-0.338039
-8.65345
-0.316124
-8.64319
-0.292634
-8.72264
-0.265273
-8.70966
-0.232518
-8.83356
-0.202901
-8.7486
-0.167119
-8.89165
-0.131424
-8.75551
-0.0815489
-8.75191
-0.0381185
-7.72295
-0.00204426
-5.47692
-2.19921
-0.369118
-8.18887
-0.418228
-8.10059
-0.448436
-8.4084
-0.462099
-8.39125
-0.45585
-8.57488
-0.447437
-8.47941
-0.429679
-8.62027
-0.408721
-8.60026
-0.39023
-8.67194
-0.363884
-8.66953
-0.335599
-8.75093
-0.303946
-8.74131
-0.266247
-8.87126
-0.231045
-8.78381
-0.189687
-8.93301
-0.149332
-8.79587
-0.094688
-8.80655
-0.0452584
-7.77238
-0.00397651
-5.5182
-2.20319
-0.43664
-8.09503
-0.487553
-8.04968
-0.512992
-8.38296
-0.525822
-8.37842
-0.516309
-8.58439
-0.502634
-8.49309
-0.481
-8.6419
-0.456315
-8.62494
-0.433871
-8.69438
-0.404037
-8.69937
-0.372532
-8.78243
-0.33739
-8.77645
-0.295583
-8.91306
-0.256424
-8.82297
-0.211158
-8.97828
-0.167032
-8.83999
-0.107804
-8.86578
-0.052755
-7.82743
-0.00637372
-5.56458
-2.20956
-0.500273
-8.00319
-0.549271
-8.00068
-0.576624
-8.3556
-0.590529
-8.36451
-0.579872
-8.59505
-0.564208
-8.50875
-0.538919
-8.66719
-0.510058
-8.6538
-0.483208
-8.72123
-0.448772
-8.7338
-0.412782
-8.81842
-0.373689
-8.81554
-0.327385
-8.95937
-0.283772
-8.86658
-0.233514
-9.02853
-0.184412
-8.88909
-0.120743
-8.92945
-0.0600975
-7.88808
-0.00843369
-5.61625
-2.218
-0.566518
-7.90011
-0.617653
-7.94955
-0.639164
-8.33409
-0.651156
-8.35252
-0.636997
-8.60921
-0.616785
-8.52896
-0.588208
-8.69577
-0.555753
-8.68626
-0.524465
-8.75252
-0.486824
-8.77144
-0.44796
-8.85729
-0.405289
-8.85821
-0.355284
-9.00937
-0.30818
-8.91368
-0.254584
-9.08213
-0.201698
-8.94198
-0.133714
-8.99743
-0.0673311
-7.95446
-0.00985681
-5.67372
-2.22786
-0.623533
-7.79925
-0.675786
-7.8973
-0.698386
-8.31149
-0.711233
-8.33967
-0.696907
-8.62354
-0.674985
-8.55089
-0.643281
-8.72747
-0.607053
-8.72248
-0.570789
-8.78879
-0.528283
-8.81395
-0.485332
-8.90024
-0.438983
-8.90456
-0.385041
-9.06331
-0.33375
-8.96497
-0.275661
-9.14022
-0.218573
-8.99907
-0.146327
-9.06968
-0.0738964
-8.02689
-0.0109086
-5.73671
-2.23876
-0.688797
-7.68677
-0.742551
-7.84354
-0.757654
-8.29639
-0.767642
-8.32969
-0.750883
-8.6403
-0.724948
-8.57682
-0.690139
-8.76228
-0.650284
-8.76234
-0.609712
-8.82936
-0.563968
-8.85969
-0.518534
-8.94567
-0.469333
-8.95377
-0.41167
-9.12098
-0.357146
-9.0195
-0.295737
-9.20163
-0.235021
-9.05978
-0.158518
-9.14618
-0.0809425
-8.10447
-0.012826
-5.80482
-2.25159
-0.745359
-7.56981
-0.803138
-7.78576
-0.81558
-8.28395
-0.824195
-8.32107
-0.805737
-8.65875
-0.779136
-8.60342
-0.742473
-8.79894
-0.698859
-8.80595
-0.653484
-8.87474
-0.60267
-8.91051
-0.552115
-8.99623
-0.500524
-9.00536
-0.439623
-9.18188
-0.381622
-9.0775
-0.316278
-9.26697
-0.251294
-9.12477
-0.170356
-9.22712
-0.0866556
-8.18817
-0.0128558
-5.87862
-2.26445
-0.79758
-7.45545
-0.861298
-7.72205
-0.869521
-8.27572
-0.87834
-8.31225
-0.857789
-8.6793
-0.827992
-8.63322
-0.787793
-8.83914
-0.741187
-8.85256
-0.691566
-8.92436
-0.637787
-8.96429
-0.582666
-9.05135
-0.528251
-9.05977
-0.464671
-9.24546
-0.403677
-9.13849
-0.33555
-9.3351
-0.267473
-9.19284
-0.181023
-9.31357
-0.0934291
-8.27576
-0.0155656
-5.95649
-2.28001
-0.839054
-7.34309
-0.911135
-7.64996
-0.920087
-8.26677
-0.925249
-8.30709
-0.905062
-8.69949
-0.874831
-8.66345
-0.834463
-8.87951
-0.784633
-8.90239
-0.730717
-8.97827
-0.672755
-9.02225
-0.612973
-9.11113
-0.555117
-9.11763
-0.490155
-9.31042
-0.425477
-9.20317
-0.354799
-9.40578
-0.28249
-9.26515
-0.192295
-9.40376
-0.099442
-8.36861
-0.0145999
-6.04133
-2.29461
5.41857
-7.0715
-5.69016
5.02863
-7.26003
4.53502
-7.77317
4.11758
-7.88965
3.62033
-8.20224
3.24113
-8.28424
2.86489
-8.50327
2.52392
-8.56142
2.23573
-8.69009
1.97425
-8.76077
1.7228
-8.85968
1.52353
-8.91835
1.24288
-9.02977
1.06986
-9.03015
0.813107
-9.14902
0.691334
-9.14338
0.482639
-9.19507
0.305404
-8.19138
0.182782
-5.91871
-2.11183
2.78685
-7.08633
-2.77201
2.79974
-7.27291
2.63939
-7.61283
2.52943
-7.77968
2.3289
-8.00171
2.16451
-8.11985
1.96008
-8.29885
1.78855
-8.38989
1.62523
-8.52676
1.4655
-8.60104
1.31204
-8.70622
1.16359
-8.7699
0.981992
-8.84818
0.857681
-8.90584
0.691302
-8.98264
0.58371
-9.03579
0.381843
-8.9932
0.252644
-8.06218
-0.0139534
-5.65211
-2.12578
1.66883
-7.24795
-1.50722
1.81653
-7.4206
1.83734
-7.63364
1.85247
-7.79482
1.79344
-7.94268
1.73138
-8.05779
1.61802
-8.18548
1.51455
-8.28642
1.38153
-8.39375
1.2546
-8.47412
1.10967
-8.56129
0.973569
-8.63381
0.834938
-8.70954
0.707872
-8.77877
0.571426
-8.8462
0.437942
-8.9023
0.333964
-8.88922
0.224657
-7.95287
0.0502189
-5.47767
-2.07556
0.795647
-7.47913
-0.564466
0.978384
-7.60334
1.06031
-7.71557
1.09851
-7.83301
1.09868
-7.94285
1.09185
-8.05096
1.05129
-8.14492
0.999263
-8.2344
0.932225
-8.32671
0.864641
-8.40653
0.789317
-8.48596
0.715541
-8.56003
0.6348
-8.6288
0.55302
-8.69699
0.461533
-8.75471
0.371878
-8.81265
0.264019
-8.78136
0.18099
-7.86984
0.0983152
-5.395
-1.97725
0.397008
-7.65441
-0.221731
0.533954
-7.74029
0.625235
-7.80685
0.697884
-7.90566
0.735954
-7.98092
0.750276
-8.06528
0.753002
-8.14765
0.733225
-8.21462
0.694804
-8.28829
0.645878
-8.35761
0.587835
-8.42792
0.519739
-8.49193
0.447276
-8.55634
0.375902
-8.62562
0.307209
-8.68602
0.24209
-8.74753
0.158721
-8.69799
0.121506
-7.83263
0.0791634
-5.35266
-1.89808
0.0723735
-7.8036
0.0768222
0.195098
-7.86301
0.284485
-7.89624
0.343469
-7.96464
0.380639
-8.01809
0.394623
-8.07927
0.392521
-8.14554
0.383927
-8.20602
0.361581
-8.26594
0.334508
-8.33053
0.299134
-8.39255
0.264133
-8.45693
0.226828
-8.51904
0.185578
-8.58437
0.147336
-8.64777
0.107984
-8.70818
0.0483439
-8.63835
0.058773
-7.84306
0.0672525
-5.36114
-1.83083
-0.0959635
-7.90393
0.196287
-0.0178241
-7.94115
0.0475755
-7.96164
0.0973759
-8.01444
0.141869
-8.06258
0.166716
-8.10411
0.175989
-8.15482
0.171233
-8.20127
0.15773
-8.25244
0.134393
-8.3072
0.106782
-8.36493
0.0724494
-8.4226
0.0345494
-8.48114
-0.00518723
-8.54463
-0.0451989
-8.60776
-0.0872497
-8.66613
-0.110655
-8.61495
-0.0540563
-7.89966
0.0301017
-5.44529
-1.80073
-0.260865
-7.97708
0.334016
-0.200788
-8.00123
-0.144511
-8.01792
-0.106408
-8.05255
-0.0831969
-8.08579
-0.0718609
-8.11545
-0.0684954
-8.15818
-0.0745991
-8.19516
-0.0872139
-8.23982
-0.107566
-8.28684
-0.13499
-8.33751
-0.166287
-8.3913
-0.19904
-8.44838
-0.234204
-8.50947
-0.265346
-8.57662
-0.292368
-8.63911
-0.301128
-8.60619
-0.209149
-7.99163
-0.0186863
-5.63576
-1.81942
-0.369982
-8.02026
0.413164
-0.335097
-8.03611
-0.302366
-8.05065
-0.281384
-8.07353
-0.268558
-8.09862
-0.259367
-8.12464
-0.260584
-8.15697
-0.266771
-8.18898
-0.277032
-8.22956
-0.296471
-8.26741
-0.321212
-8.31277
-0.35514
-8.35737
-0.393431
-8.41009
-0.444765
-8.45813
-0.497268
-8.52412
-0.547478
-8.5889
-0.579116
-8.57455
-0.460054
-8.1107
-0.131487
-5.96432
-1.9509
-0.441593
-8.04832
0.469655
-0.418569
-8.05914
-0.3967
-8.07252
-0.3821
-8.08813
-0.375118
-8.1056
-0.374503
-8.12525
-0.382884
-8.14858
-0.398316
-8.17355
-0.424121
-8.20376
-0.456826
-8.2347
-0.496346
-8.27325
-0.545296
-8.30842
-0.600817
-8.35457
-0.667138
-8.39181
-0.747523
-8.44373
-0.844406
-8.49201
-0.902534
-8.51642
-0.818776
-8.19445
-0.341101
-6.442
-2.292
-0.483221
-8.06012
0.495021
-0.475374
-8.06698
-0.470864
-8.07703
-0.472137
-8.08685
-0.476233
-8.1015
-0.48794
-8.11355
-0.504798
-8.13173
-0.52496
-8.15338
-0.552614
-8.1761
-0.588541
-8.19877
-0.633603
-8.22819
-0.687346
-8.25468
-0.753828
-8.28809
-0.831667
-8.31397
-0.919389
-8.35601
-1.03115
-8.38025
-1.12745
-8.42012
-1.09593
-8.22598
-0.596641
-6.94129
-2.88865
-0.501276
-8.06434
0.505497
-0.499862
-8.0684
-0.502717
-8.07417
-0.508586
-8.08099
-0.517239
-8.09285
-0.527863
-8.10292
-0.544234
-8.11536
-0.569745
-8.12787
-0.600957
-8.14489
-0.639875
-8.15986
-0.688426
-8.17964
-0.746155
-8.19695
-0.815526
-8.21872
-0.892592
-8.23691
-0.986082
-8.26252
-1.09166
-8.27467
-1.21851
-8.29327
-1.2286
-8.21589
-0.853731
-7.31616
-3.74238
-0.505676
-8.06259
0.50392
-0.510746
-8.06333
-0.518605
-8.06631
-0.530165
-8.06943
-0.547413
-8.0756
-0.566668
-8.08367
-0.588295
-8.09373
-0.616661
-8.09951
-0.649789
-8.11176
-0.68697
-8.12267
-0.732031
-8.13458
-0.784778
-8.14421
-0.847194
-8.1563
-0.919928
-8.16417
-1.0141
-8.16835
-1.1102
-8.17857
-1.23168
-8.17179
-1.30983
-8.13774
-1.04424
-7.58175
-4.78662
-0.486543
-8.05567
0.479623
-0.495156
-8.05472
-0.503993
-8.05747
-0.512394
-8.06102
-0.522835
-8.06516
-0.539058
-8.06745
-0.55933
-8.07346
-0.581153
-8.07768
-0.608681
-8.08423
-0.642552
-8.0888
-0.681834
-8.09529
-0.727854
-8.09819
-0.781404
-8.10275
-0.843392
-8.10218
-0.913553
-8.09819
-0.997588
-8.09454
-1.08763
-8.08174
-1.16402
-8.06135
-0.97024
-7.77553
-5.75686
-0.446011
-8.04787
0.438217
-0.453328
-8.0474
-0.462187
-8.04862
-0.474461
-8.04875
-0.487986
-8.05164
-0.502207
-8.05323
-0.518478
-8.05719
-0.536424
-8.05974
-0.555964
-8.06469
-0.579332
-8.06544
-0.605749
-8.06888
-0.636236
-8.0677
-0.671766
-8.06722
-0.712046
-8.0619
-0.755902
-8.05433
-0.807813
-8.04263
-0.86366
-8.02589
-0.915754
-8.00926
-0.79211
-7.89918
-6.54897
-0.381969
-8.03898
0.373076
-0.390056
-8.03931
-0.398285
-8.04039
-0.406908
-8.04013
-0.417101
-8.04144
-0.427992
-8.04234
-0.441136
-8.04404
-0.455523
-8.04535
-0.472486
-8.04773
-0.490588
-8.04733
-0.511668
-8.0478
-0.533776
-8.04559
-0.55626
-8.04474
-0.578703
-8.03946
-0.597095
-8.03594
-0.612125
-8.0276
-0.623302
-8.01472
-0.641339
-7.99122
-0.579995
-7.96052
-7.12896
-0.299217
-8.03086
0.291094
-0.307983
-8.03055
-0.317074
-8.0313
-0.324838
-8.03236
-0.331969
-8.03431
-0.339857
-8.03445
-0.348389
-8.03551
-0.358485
-8.03525
-0.369806
-8.03641
-0.381364
-8.03578
-0.392597
-8.03656