/*--------------------------------*- C++ -*----------------------------------*\
  =========                 |
  \\      /  F ield         | OpenFOAM: The Open Source CFD Toolbox
   \\    /   O peration     | Website:  https://openfoam.org
    \\  /    A nd           | Version:  9
     \\/     M anipulation  |
\*---------------------------------------------------------------------------*/
FoamFile
{
    format      ascii;
    class       volScalarField;
    location    "3.3";
    object      nut;
}
// * * * * * * * * * * * * * * * * * * * * * * * * * * * * * * * * * * * * * //

dimensions      [0 2 -1 0 0 0 0];

internalField   nonuniform List<scalar> 
46400
(
0.0177375
0.00640553
0.00185708
0.00123801
0.00125404
0.00123615
0.0011647
0.00114656
0.00107914
0.00105772
0.0010188
0.000985414
0.000953251
0.000928699
0.000905911
0.000899194
0.000859387
0.000811317
0.00114806
0.000937645
0.0174778
0.00557685
0.00151246
0.00133298
0.00128752
0.00125731
0.00120038
0.00118777
0.00111053
0.00107799
0.00103873
0.000994323
0.000961891
0.000922913
0.000884088
0.000862129
0.000793655
0.000717105
0.000972457
0.000893753
0.0171034
0.00439079
0.00117006
0.00136575
0.00126488
0.00127928
0.00119801
0.00118881
0.00112449
0.00109414
0.00106081
0.0010256
0.000992195
0.000961018
0.000930247
0.000912303
0.000848819
0.00079091
0.00108485
0.000933012
0.0166977
0.00388819
0.00119014
0.00143436
0.00130797
0.00129356
0.00123298
0.001215
0.00115001
0.00110431
0.00107079
0.00102734
0.000995154
0.000961513
0.000927136
0.000913096
0.000873364
0.000796965
0.00110419
0.00101306
0.0161865
0.00412551
0.00125167
0.00143978
0.0013176
0.00131546
0.00123577
0.00122431
0.00116917
0.00112805
0.0010925
0.00105969
0.00102373
0.000991942
0.000961645
0.000930445
0.000882587
0.000839626
0.00112618
0.00100519
0.0156291
0.0046773
0.00134471
0.00150551
0.00136859
0.00134548
0.00127365
0.00124105
0.00119377
0.00113915
0.00110625
0.00106533
0.00103854
0.0010071
0.000989976
0.000972323
0.000908155
0.000847378
0.00115506
0.00106725
0.0150526
0.00447247
0.00139547
0.00150724
0.00137926
0.00135452
0.0012842
0.00124817
0.00120518
0.00115928
0.0011136
0.00107949
0.00104152
0.00100257
0.000977032
0.000966977
0.000927406
0.000841685
0.00111958
0.00106749
0.0139195
0.00381807
0.00142159
0.00153811
0.00141087
0.00136342
0.00129981
0.00124807
0.0012146
0.00116903
0.00113572
0.00108679
0.00107742
0.00103637
0.0010062
0.000986657
0.000943969
0.000881829
0.00108731
0.0010478
0.0122449
0.00293041
0.00143004
0.00148109
0.00141592
0.00135765
0.00131394
0.00124513
0.00120365
0.00116635
0.00113231
0.00107334
0.00103027
0.00101281
0.000984588
0.000977005
0.000948313
0.000898317
0.00109222
0.00102391
0.00979339
0.00241596
0.00150349
0.00146113
0.00142056
0.00135418
0.00131967
0.00126464
0.00120376
0.00116554
0.00117515
0.00113913
0.00108822
0.00102735
0.000993058
0.000953309
0.000925474
0.000885365
0.00106016
0.00103874
0.00786793
0.00200641
0.00146776
0.00141704
0.00139128
0.0013374
0.00131424
0.00126846
0.00120644
0.00110834
0.00108759
0.00109595
0.00109168
0.00107138
0.00103147
0.00099413
0.000929812
0.000879685
0.000999284
0.000971259
0.00648869
0.00181502
0.00152521
0.00143076
0.00140075
0.00132585
0.00130965
0.00130395
0.00129548
0.00120494
0.0011032
0.00105366
0.00104176
0.00103066
0.00103734
0.00102194
0.00099617
0.000943909
0.00104967
0.000991722
0.00528403
0.00161514
0.00149552
0.00142354
0.00139622
0.00131882
0.0012577
0.00121438
0.00124204
0.00122419
0.0011759
0.00108311
0.00103196
0.000983353
0.000961995
0.00095947
0.00093886
0.000920427
0.00103139
0.00101018
0.00468045
0.00158478
0.00152897
0.00145515
0.00142512
0.00136322
0.00134125
0.00124501
0.00123401
0.00122588
0.00121711
0.00117849
0.00111113
0.00105658
0.000987813
0.000948159
0.000896202
0.000849988
0.000913348
0.000895582
0.00420699
0.00155219
0.00152173
0.00144945
0.00141169
0.00128201
0.0012579
0.00119908
0.00114993
0.00114165
0.00113876
0.0011498
0.00114096
0.0011202
0.00109501
0.0010561
0.0010183
0.00096128
0.00100911
0.00095648
0.00428702
0.0015668
0.00146435
0.00147948
0.00157364
0.00148661
0.0013976
0.00131279
0.00121757
0.00114411
0.00108741
0.00105017
0.00102998
0.00101039
0.000998061
0.000985413
0.000962548
0.000927242
0.000988604
0.000939473
0.00365999
0.00164429
0.00138297
0.00121981
0.00125781
0.00133419
0.00134569
0.00134811
0.00131609
0.00126888
0.00121914
0.00116321
0.00111676
0.00107128
0.00103568
0.00100476
0.000971976
0.000921287
0.000967753
0.000923743
0.00346958
0.0018684
0.00173569
0.00150465
0.00132748
0.00126141
0.00122754
0.00119884
0.00119201
0.00116003
0.00114982
0.00111384
0.00109554
0.00105664
0.00103309
0.0010016
0.000973033
0.000923011
0.000961986
0.000912472
0.00239167
0.00132597
0.00154332
0.00157743
0.0015295
0.0014186
0.00136849
0.00128924
0.00125557
0.00120277
0.00117059
0.00113135
0.00110284
0.00106936
0.00104197
0.00101602
0.000984875
0.000934579
0.000977616
0.000914122
0.000549128
0.000457546
0.0015003
0.00130773
0.00142353
0.00132651
0.00134415
0.00126789
0.00125848
0.00119299
0.0011722
0.00111866
0.00109532
0.00105007
0.00102768
0.000990952
0.000965447
0.000898011
0.000949504
0.000869248
0.000828404
0.000279113
0.00358784
0.00785959
0.0105234
0.00816973
0.0040618
0.00149663
0.000405989
4.24269e-05
0.000112388
0.000191249
0.000261052
0.00010581
0.000110257
0.000176531
0.000192442
0.000179687
0.000150824
0.000214509
6.63705e-23
0.00163202
0.0062093
0.010187
0.00924913
0.00519509
0.0019806
0.000492634
9.88481e-05
0.000129662
0.000224312
0.000278413
0.000193018
0.000164375
0.000205922
0.00021891
0.000180635
0.000194406
0.000206847
0.00025953
0.000328867
0.00386974
0.00872271
0.0106103
0.00704533
0.00296457
0.000772327
9.87277e-05
0.000136941
0.000249575
0.000288358
0.000217657
0.000185691
0.000232795
0.000210223
0.000179051
0.000189633
0.000258319
0.000235209
0.000250618
0.00102479
0.00654686
0.0104847
0.0093443
0.00483991
0.00134277
9.81071e-05
9.67633e-05
0.000250354
0.000301583
0.000246938
0.000231122
0.000248878
0.000232994
0.000203336
0.000243066
0.000272547
0.000279981
0.000222312
0.000282074
0.00182909
0.00860004
0.0110713
0.00755096
0.00267357
0.000380471
0.000138471
0.000255509
0.000321739
0.000308604
0.000278411
0.000274188
0.000240854
0.000264289
0.000250096
0.000277537
0.000261979
0.000266341
0.000257465
0.000316707
0.00251678
0.00985607
0.0107771
0.00569724
0.00116403
0.000159864
0.000252565
0.000358025
0.00036851
0.000319543
0.000306292
0.000280786
0.000306073
0.000299665
0.000264249
0.00031468
0.00030578
0.000333644
0.000299617
0.000344383
0.00513801
0.0110105
0.00961167
0.00343099
0.000298871
0.000176381
0.000372751
0.000412426
0.000384781
0.000364897
0.000341707
0.000349512
0.000323429
0.000320046
0.000322033
0.000364615
0.000314837
0.000337637
0.000326574
0.000381566
0.00720386
0.0115554
0.00850103
0.00171797
0.000246765
0.000350704
0.00048599
0.000505456
0.000442548
0.000419716
0.000404147
0.000371542
0.000386446
0.000380382
0.000355361
0.000392165
0.00034534
0.000411327
0.000387176
0.000411142
0.00952763
0.0118044
0.00736737
0.000674675
0.000270338
0.000551302
0.000599216
0.000516587
0.00050023
0.000476154
0.000440107
0.000444686
0.000421797
0.000401583
0.000410658
0.000444005
0.00037687
0.000438951
0.000408931
0.000439222
0.0120449
0.0116326
0.005235
0.000384702
0.000438386
0.000609788
0.000649999
0.000627805
0.000568753
0.000538304
0.000517404
0.000484234
0.000486147
0.000476157
0.000461376
0.000474355
0.000419291
0.00050884
0.000466236
0.00047142
0.0138059
0.0116047
0.00373878
0.000218773
0.000653264
0.000774121
0.000733296
0.0006534
0.000622303
0.000597361
0.000553305
0.000550873
0.000526186
0.000498177
0.00050874
0.000522342
0.000464418
0.000533258
0.000483087
0.000508217
0.0152796
0.0111361
0.00225283
0.00023118
0.000760394
0.000780006
0.000773948
0.00074968
0.000694168
0.000657642
0.000630463
0.0005995
0.000591791
0.000578637
0.000568766
0.000560115
0.000524406
0.000595765
0.00050932
0.00053562
0.0159136
0.0108256
0.00156775
0.000419816
0.000868294
0.000884145
0.000867154
0.000774536
0.000739817
0.000717572
0.000668789
0.000661537
0.000634034
0.000603936
0.000611576
0.000610733
0.000571365
0.000614947
0.000507967
0.000560948
0.0166949
0.0103656
0.00100051
0.000601524
0.00099924
0.000887441
0.000906083
0.000866604
0.000808332
0.00077259
0.00073751
0.000706863
0.000692943
0.000676481
0.000665691
0.000646941
0.000627507
0.000662378
0.000519746
0.000588611
0.0172345
0.0100048
0.00119182
0.000751677
0.00105601
0.000975053
0.000977483
0.000891218
0.000848561
0.000830216
0.000778341
0.000766502
0.000735261
0.000704249
0.000705876
0.000692718
0.00067134
0.000676838
0.000513496
0.000616618
0.0176002
0.00957923
0.00173268
0.000916575
0.00114447
0.00100845
0.00101809
0.000979264
0.00091203
0.000880983
0.000839408
0.000806582
0.000789465
0.000769354
0.000751722
0.000728979
0.000734667
0.000724538
0.000519942
0.000649431
0.0178952
0.00924234
0.00235331
0.00102427
0.00115858
0.00107391
0.00106644
0.000995772
0.000943907
0.000928171
0.00087602
0.000858968
0.000825432
0.000795852
0.000787499
0.000764671
0.00076771
0.000741792
0.000516079
0.00067873
0.0180119
0.00898332
0.00221223
0.00108281
0.00124616
0.00110157
0.00110317
0.00107645
0.000998576
0.0009756
0.000931131
0.000895366
0.000878468
0.000854929
0.000827769
0.000807568
0.000830139
0.000793782
0.000533143
0.00072519
0.0180314
0.00843902
0.00199629
0.00111407
0.00124166
0.00116599
0.00112567
0.00108622
0.00102442
0.00100865
0.000963187
0.000939201
0.000907924
0.000883687
0.000864098
0.000842675
0.000857001
0.000846835
0.00056025
0.0007108
0.0179462
0.00756348
0.00200394
0.00119241
0.00128249
0.00119508
0.00116234
0.00114902
0.00106904
0.00104871
0.00100798
0.000972659
0.000958556
0.000936436
0.000909286
0.000916336
0.000918382
0.000910554
0.000696553
0.000771427
0.00202794
0.00173283
0.00176648
0.00164504
0.0017039
0.00145036
0.00143
0.00135248
0.00132058
0.00125074
0.00115861
0.00109634
0.000999128
0.000937776
0.000837218
0.000827921
0.000954634
0.0040332
0.0099274
0.0223904
0.00226683
0.00179135
0.00180336
0.00159234
0.00164064
0.00152103
0.00155939
0.00142245
0.00132059
0.00123139
0.0011368
0.00107136
0.000966683
0.000891612
0.000799091
0.00077813
0.000938172
0.00414749
0.00994858
0.0221356
0.00227114
0.00186539
0.0019436
0.00167327
0.00167337
0.00142951
0.0014222
0.00135357
0.0013071
0.00123846
0.00114476
0.00108449
0.000984045
0.000921932
0.000819201
0.000812869
0.000963896
0.00417812
0.010004
0.0219921
0.00241486
0.00192236
0.00196858
0.00162811
0.00164472
0.00150806
0.00153993
0.00141899
0.0013061
0.00121989
0.00112359
0.00106037
0.000953134
0.000876285
0.000777321
0.000765316
0.000947609
0.00426107
0.0100211
0.0217444
0.00243089
0.00199064
0.00209162
0.00166673
0.00163113
0.00143445
0.00142592
0.00136086
0.0012937
0.00122729
0.00113227
0.00107411
0.000971371
0.000909932
0.000805252
0.000796507
0.000968271
0.00428209
0.0100733
0.0216101
0.00263734
0.002059
0.00209505
0.00162705
0.00163851
0.00153166
0.00154103
0.00142105
0.00129085
0.00120919
0.00111169
0.00105057
0.00094191
0.000864819
0.000760884
0.000751579
0.00095031
0.00434472
0.0100871
0.0213736
0.00272407
0.00210351
0.00218616
0.00165886
0.00161999
0.00148137
0.00143591
0.00136244
0.00127767
0.00121675
0.00112083
0.00106507
0.000961196
0.000902233
0.000795851
0.000778391
0.000966154
0.00435296
0.0101342
0.021244
0.0030349
0.00221652
0.00218472
0.00160776
0.00163657
0.00158405
0.00155227
0.00142033
0.00127476
0.00119956
0.00110094
0.00104193
0.000933061
0.000858218
0.000751452
0.000735827
0.00094609
0.00439504
0.0101458
0.0210265
0.00317236
0.00222696
0.00224476
0.0016774
0.00165
0.00155526
0.00144509
0.00135354
0.00125942
0.00120607
0.00110995
0.00105723
0.000953132
0.00089943
0.000792247
0.00075897
0.000958509
0.00438784
0.0101868
0.0208964
0.00357289
0.00238452
0.00226028
0.00160786
0.00165325
0.00164925
0.00156076
0.00141233
0.00125979
0.00119071
0.00109106
0.00103436
0.000926732
0.000857862
0.000750224
0.000718507
0.00093659
0.00441274
0.0101955
0.0206924
0.00373547
0.00239005
0.00230491
0.00171468
0.00170467
0.00162618
0.00144709
0.00133759
0.00124174
0.00119503
0.00109916
0.00104965
0.000947558
0.000902198
0.000795104
0.000739372
0.000947091
0.00439035
0.0102364
0.0205591
0.00389258
0.00253898
0.00233191
0.0016535
0.0016987
0.00170239
0.0015538
0.00139555
0.00124619
0.00118162
0.0010815
0.00102762
0.000922724
0.000864299
0.000757752
0.000701329
0.000924397
0.00439478
0.0102415
0.0203694
0.00400964
0.0025529
0.0023703
0.0017701
0.0017685
0.00167094
0.00144127
0.00132341
0.00122805
0.00118421
0.00108871
0.00104219
0.000944471
0.000910043
0.000803226
0.000722539
0.000936211
0.00435873
0.0102869
0.0202357
0.00418843
0.00265384
0.00238964
0.00173823
0.00176297
0.00172865
0.00153143
0.00137472
0.00123406
0.00117191
0.00107241
0.00102157
0.000921164
0.000875597
0.000771035
0.000688927
0.00091353
0.00435131
0.0102893
0.0200646
0.00433066
0.00267283
0.00242621
0.00185861
0.00181937
0.00167961
0.00142826
0.00131576
0.00121889
0.00117249
0.0010786
0.00103485
0.000943231
0.000920399
0.000814857
0.000714008
0.000928143
0.0043026
0.0103251
0.0199526
0.00452171
0.00273813
0.00241871
0.00184741
0.00181187
0.00172788
0.00150355
0.00135756
0.00122234
0.00115897
0.00106279
0.00101502
0.000920755
0.00088852
0.00078833
0.000686123
0.000907355
0.00426254
0.0103145
0.0198014
0.00478894
0.00278942
0.00246929
0.00196842
0.00183538
0.00166593
0.00141873
0.0013188
0.00121455
0.00116023
0.00106985
0.00102872
0.000943987
0.000932199
0.000829405
0.000716915
0.000925764
0.00422816
0.0103621
0.0196658
0.00488716
0.00279983
0.00240991
0.0019586
0.00183178
0.00172054
0.00149423
0.00135974
0.00121952
0.00115038
0.00105809
0.00101387
0.000925778
0.00090571
0.000810812
0.00070095
0.000904356
0.00417683
0.0103864
0.0196405
0.00488024
0.00288342
0.00240514
0.00202182
0.00179348
0.00162246
0.00140024
0.00130674
0.00119281
0.00112997
0.00104918
0.00101461
0.000939751
0.000937982
0.000846268
0.000730754
0.000943436
0.00410402
0.010392
0.0194795
0.00571915
0.00318307
0.00248056
0.00202884
0.00178839
0.00168426
0.00150974
0.0013881
0.00123243
0.00115363
0.00106701
0.00102208
0.000935105
0.000919213
0.000830741
0.000723897
0.000905244
0.00386622
0.0101143
0.0190564
0.0164933
0.0314635
0.0150196
0.0233942
0.0199123
0.0178507
0.0154027
0.0140327
0.0126865
0.0117544
0.0107543
0.0103644
0.00987101
0.0100101
0.00943885
0.00951201
0.0110255
0.0369774
0.0965075
0.167197
0.0320278
0.0228749
0.0203375
0.0183047
0.0165245
0.0144382
0.0131471
0.0120861
0.0110162
0.00966158
0.00896557
0.00925943
0.00876506
0.00806443
0.00775225
0.00648399
0.011548
0.0419832
0.0955812
0.153784
0.01531
0.0148826
0.0153448
0.0131404
0.0117694
0.0108361
0.0104898
0.00978965
0.0089618
0.00837921
0.00803288
0.0074222
0.00734638
0.00715739
0.00693185
0.00646731
0.0117593
0.0412514
0.0946884
0.149791
0.0131097
0.0115762
0.00992643
0.00950574
0.00956432
0.00902024
0.00842814
0.00803269
0.00799152
0.00765362
0.00721722
0.00663538
0.00652808
0.00609835
0.0060006
0.00477454
0.00934699
0.0439928
0.0946116
0.138216
0.00667365
0.00719791
0.00827136
0.00814154
0.00723749
0.00692235
0.0067557
0.00644177
0.00595417
0.00578119
0.00583536
0.00591574
0.00569835
0.00552322
0.00551553
0.00445972
0.00989343
0.0420199
0.0946924
0.136143
0.00592291
0.00636825
0.00578914
0.00532423
0.00527533
0.00536054
0.00534303
0.00543402
0.00554113
0.00549268
0.00525775
0.00495773
0.0049498
0.00479403
0.00470431
0.0036987
0.00665994
0.0402984
0.0954161
0.131524
0.00339219
0.00359847
0.00404918
0.00464634
0.0046148
0.00446639
0.0043809
0.00429787
0.00407542
0.00415021
0.00434854
0.00462116
0.00456874
0.00461173
0.00460699
0.00361646
0.00507079
0.0352245
0.0961349
0.130944
0.00290985
0.003206
0.0033941
0.00333049
0.00309744
0.00314937
0.00326935
0.00354153
0.00380225
0.00398415
0.00386581
0.0037803
0.00383106
0.00395741
0.00397086
0.0033774
0.00671459
0.0293891
0.0961971
0.132917
0.00165608
0.00196857
0.00218794
0.00242027
0.00262559
0.00286959
0.00307083
0.00310163
0.00288646
0.0030158
0.0032618
0.00363132
0.00361783
0.00383927
0.00381496
0.0033877
0.0024874
0.0230245
0.0963941
0.137801
0.0016202
0.00167026
0.00182351
0.00196942
0.00192679
0.00192133
0.00200022
0.00239745
0.0027897
0.00296749
0.00294702
0.00299976
0.00309645
0.00338266
0.00345171
0.00363626
0.00346504
0.0164325
0.0934684
0.14546
0.000630438
0.00109735
0.00120429
0.00141754
0.00161567
0.00187312
0.00202755
0.00214128
0.0021473
0.00236677
0.00261792
0.00303029
0.00308013
0.00336733
0.00332169
0.00352884
0.00293391
0.0109534
0.0889175
0.156742
0.000760623
0.000921074
0.0010276
0.00113589
0.0011591
0.00132782
0.00143706
0.00165784
0.00195294
0.00218518
0.00223686
0.00240047
0.00263049
0.00294104
0.00318638
0.00366787
0.00304419
0.00601656
0.0661028
0.168347
0.000522594
0.00065379
0.000796906
0.000972621
0.00111571
0.00124288
0.0014308
0.00155831
0.00157827
0.00177264
0.00202499
0.00233904
0.00249455
0.00269357
0.00294099
0.00326241
0.00366691
0.00394543
0.0539117
0.185158
0.000464767
0.000592446
0.000626123
0.000733511
0.00079716
0.000959482
0.000996486
0.001215
0.00138221
0.00153441
0.00161129
0.00182548
0.00210552
0.0023792
0.0027976
0.00287012
0.00363907
0.00823816
0.0311226
0.168497
0.000416111
0.00054115
0.000598184
0.000695909
0.000746601
0.000850293
0.000941237
0.00105906
0.00111253
0.00135654
0.00143695
0.00160349
0.00156427
0.00189251
0.00188357
0.00234991
0.00241476
0.00551532
0.0185044
0.123504
0.000375584
0.000434623
0.000465092
0.000540633
0.000581
0.000673825
0.000729622
0.000834814
0.000882612
0.00104526
0.00110596
0.00129802
0.0013836
0.00162307
0.00161259
0.00206656
0.00186772
0.00354112
0.00658214
0.0786874
0.000342119
0.000385166
0.000420815
0.000468489
0.00051179
0.000563374
0.000594416
0.000655041
0.000740409
0.000780866
0.000735191
0.000881628
0.000910787
0.00108353
0.00105183
0.00126994
0.00121572
0.00199181
0.00427205
0.048237
0.000261118
0.000293562
0.000327641
0.000364161
0.000403283
0.000451583
0.00053829
0.000614049
0.000584827
0.000649039
0.000765868
0.000899928
0.000896246
0.00103925
0.00100798
0.0011993
0.00107795
0.00130954
0.000840786
0.0261063
0.000228922
0.000253526
0.000270374
0.000305733
0.000318523
0.000374489
0.000309678
0.000366386
0.000490784
0.000520113
0.000474328
0.000533649
0.000587505
0.000669799
0.000654929
0.000618206
0.00083003
0.00089666
0.00114122
0.00979731
0.000119302
0.00015221
0.000171254
0.000230593
0.000245999
0.000305183
0.000402837
0.000444547
0.000480614
0.000446679
0.00058055
0.000667057
0.00067856
0.000790536
0.000762267
0.000908655
0.000942707
0.000659558
0.000855341
0.00570752
0.0139155
0.0138638
0.0137513
0.0138015
0.0137099
0.0135734
0.0136014
0.0136829
0.0128991
0.0132248
0.0124782
0.0122414
0.0121888
0.0112181
0.0108309
0.0100552
0.0097146
0.00906726
0.00899451
0.00771286
0.00699122
0.0069779
0.00693557
0.00696033
0.00678345
0.00682562
0.00672471
0.00664601
0.0065574
0.00644811
0.00629854
0.00748847
0.00739593
0.00681187
0.00614786
0.00662758
0.00650888
0.00678277
0.00653051
0.00721233
0.00433032
0.00435164
0.0043811
0.00438751
0.00442077
0.00451111
0.00443163
0.00453305
0.00449152
0.00455716
0.00458015
0.00441124
0.00398644
0.00407372
0.00397359
0.00417765
0.00379667
0.00394746
0.00356061
0.00376944
0.002781
0.00277505
0.00276513
0.00274027
0.00274588
0.00270761
0.00268372
0.00267852
0.00263191
0.0025858
0.00243388
0.00251855
0.00272807
0.00288133
0.00279572
0.00289432
0.00266779
0.00296411
0.00269921
0.00295542
0.00174915
0.00174763
0.00175068
0.00174735
0.00175736
0.00175691
0.00175457
0.00180271
0.00178946
0.00180736
0.00194833
0.00204428
0.00191531
0.00191883
0.00185556
0.00187641
0.00180745
0.00187633
0.00174523
0.00176092
0.00126018
0.00125835
0.00126276
0.00126127
0.00127126
0.00126179
0.00126217
0.0012643
0.00124526
0.0012625
0.00125355
0.00124509
0.0012421
0.00130755
0.00127754
0.00131306
0.00125199
0.00136611
0.00127597
0.00125979
0.000782328
0.00078172
0.000783818
0.000786769
0.000789665
0.000783897
0.000783536
0.000789475
0.000793662
0.000798818
0.000811425
0.000843782
0.000856909
0.000891895
0.000857384
0.000863368
0.000839054
0.000905118
0.000842094
0.000778269
0.000572658
0.000573356
0.000575286
0.000579658
0.000579964
0.000576826
0.000580936
0.000587087
0.000588346
0.000591159
0.000598891
0.000625036
0.000641271
0.000666958
0.000637486
0.000636378
0.000618765
0.000667515
0.000599578
0.000553728
0.000326333
0.000326059
0.000326926
0.000328676
0.000326178
0.000324557
0.000330804
0.000335363
0.000335985
0.000337578
0.000346604
0.000374636
0.00039742
0.000430932
0.000409404
0.000408355
0.000399341
0.000447707
0.00037807
0.000299356
0.000223489
0.000222223
0.000222686
0.000223616
0.000221933
0.000227346
0.000235328
0.000239148
0.000236093
0.000237239
0.000240636
0.000258394
0.000266277
0.000289166
0.00026817
0.000263496
0.000237515
0.000234022
0.000231901
0.000294326
8.80093e-05
8.68411e-05
8.74975e-05
8.66119e-05
8.80662e-05
9.64479e-05
0.000109129
0.000114341
0.000112782
0.000116011
0.000124441
0.000151809
0.000168106
0.000204533
0.000191291
0.000193466
0.00014643
0.00016671
0.000159791
0.000153273
3.08117e-05
2.66992e-05
2.0439e-05
1.90648e-05
2.84104e-05
4.38891e-05
5.1685e-05
5.5549e-05
5.55462e-05
6.09043e-05
7.56746e-05
9.28267e-05
0.000101377
0.000103378
0.000124035
0.000126744
0.000110867
0.00011338
0.000158526
0.000192149
2.23234e-05
1.28452e-05
3.46793e-06
8.35636e-06
2.76239e-05
4.005e-05
5.22405e-05
6.1254e-05
5.40187e-05
4.97145e-05
4.2856e-05
5.18413e-05
5.43874e-05
7.15735e-05
7.91821e-05
8.34153e-05
6.3536e-05
7.58839e-05
9.07065e-05
9.35039e-05
5.07767e-05
5.02203e-05
5.29865e-05
4.98404e-05
5.00963e-05
4.90827e-05
5.1109e-05
4.91159e-05
5.28816e-05
6.06317e-05
7.25715e-05
6.11955e-05
7.4132e-05
4.37112e-05
6.97529e-05
9.91628e-05
9.21122e-05
5.74947e-05
6.38627e-05
7.81972e-05
6.57889e-05
6.48858e-05
6.4797e-05
6.35647e-05
6.74563e-05
7.02476e-05
7.34529e-05
6.82377e-05
6.159e-05
6.13685e-05
6.12372e-05
6.34051e-05
7.08468e-05
6.94825e-05
7.34148e-05
7.03172e-05
8.27887e-05
8.726e-05
9.45878e-05
9.99974e-05
6.85725e-05
6.83575e-05
6.608e-05
6.52606e-05
6.408e-05
6.45647e-05
6.72231e-05
7.07141e-05
7.28886e-05
7.50505e-05
7.55014e-05
7.51647e-05
7.77629e-05
8.22452e-05
8.6697e-05
8.1474e-05
8.0024e-05
7.91674e-05
8.50203e-05
8.70499e-05
6.03855e-05
6.05896e-05
6.18232e-05
6.47661e-05
6.82766e-05
6.37266e-05
6.2564e-05
6.16539e-05
6.11524e-05
6.2941e-05
6.66056e-05
6.7654e-05
6.80069e-05
6.44237e-05
6.82295e-05
7.20284e-05
7.3752e-05
7.40078e-05
7.76762e-05
8.0778e-05
4.37221e-05
4.50847e-05
4.60373e-05
5.3531e-05
6.20576e-05
5.59475e-05
5.72012e-05
5.50435e-05
5.62411e-05
5.55456e-05
5.47769e-05
5.37604e-05
5.18983e-05
5.4255e-05
5.51456e-05
5.42721e-05
5.73764e-05
5.59945e-05
6.04185e-05
5.98918e-05
3.17745e-05
3.24574e-05
3.16309e-05
3.37633e-05
2.86424e-05
3.00972e-05
3.11378e-05
3.34322e-05
3.46234e-05
3.65657e-05
3.85912e-05
3.96988e-05
4.41416e-05
4.4686e-05
4.66681e-05
4.75495e-05
4.84115e-05
4.98981e-05
5.14046e-05
5.22114e-05
9.96639e-06
1.08647e-05
1.19203e-05
1.27072e-05
1.31657e-05
1.49184e-05
1.49391e-05
1.64384e-05
1.70872e-05
1.83359e-05
1.92077e-05
2.03588e-05
2.15802e-05
2.19062e-05
2.27817e-05
2.3514e-05
2.46134e-05
2.54297e-05
2.64603e-05
2.76199e-05
0.000961995
0.00117096
0.000822853
0.00087985
0.000913651
0.000915619
0.000948533
0.000971845
0.000995261
0.00103472
0.00109641
0.00111264
0.00115883
0.00117909
0.00128002
0.00131428
0.00127169
0.00203863
0.00698197
0.0181985
0.000911175
0.000992593
0.000735299
0.000816081
0.000884774
0.000911978
0.000949645
0.000980383
0.00101227
0.00105466
0.00110316
0.00114692
0.00119294
0.00119972
0.0012679
0.00129238
0.00131168
0.00163299
0.00595921
0.0179084
0.000950447
0.00110609
0.000809251
0.0008643
0.000924629
0.000940384
0.000969055
0.0010014
0.001034
0.00107567
0.00113138
0.00114724
0.00119209
0.00121555
0.00132712
0.00132718
0.00140074
0.0012654
0.00501281
0.0175865
0.00102521
0.00112222
0.000806689
0.000876125
0.000923474
0.000942709
0.000977381
0.00101139
0.00104344
0.00109323
0.00112808
0.0011669
0.00121438
0.00123867
0.00130928
0.00129238
0.00140844
0.00118911
0.00409198
0.017177
0.00100893
0.00113164
0.000846379
0.000892177
0.000944915
0.000974523
0.00100413
0.00103672
0.00107425
0.0011109
0.00115501
0.00118195
0.00122831
0.00125882
0.0013554
0.00135972
0.00148251
0.00127166
0.0037967
0.0166907
0.00107447
0.00117262
0.000867282
0.000924915
0.000986239
0.00100001
0.00101874
0.0010574
0.00108222
0.00112904
0.00115779
0.00120023
0.00124693
0.00129058
0.00136026
0.00134967
0.00148528
0.00132396
0.00482865
0.0160774
0.00106746
0.0011324
0.000856136
0.000932473
0.000973948
0.000986527
0.0010314
0.00106588
0.00109602
0.0011333
0.00116992
0.00121555
0.00126636
0.00130946
0.00138643
0.00141543
0.00155139
0.00142907
0.0044667
0.0155613
0.00108564
0.00112614
0.000893807
0.000968448
0.00100204
0.00104683
0.00106776
0.00108144
0.00110125
0.00114697
0.00118362
0.00124251
0.00127564
0.00132864
0.0013877
0.00140314
0.00153972
0.00141991
0.00410232
0.0145914
0.00103445
0.00108863
0.000915736
0.000957768
0.00100886
0.00101837
0.00101482
0.00104488
0.00108862
0.00114757
0.0011961
0.00123809
0.00127424
0.00133581
0.00138288
0.00144934
0.00155292
0.00145058
0.00339049
0.0133534
0.00105206
0.00111031
0.000923579
0.00096812
0.000995188
0.000995061
0.00102642
0.00107902
0.00113178
0.00118711
0.00120046
0.00125036
0.00128077
0.00133181
0.00137091
0.0014346
0.0014793
0.00148294
0.00265982
0.0109947
0.00104708
0.00104654
0.000893836
0.000932958
0.000952432
0.000992128
0.00103539
0.00108829
0.00113575
0.00115308
0.00119369
0.00123826
0.00125421
0.00132264
0.00136738
0.00143393
0.00145558
0.00150766
0.00224873
0.00901721
0.000972147
0.000978239
0.000886943
0.00092506
0.000984305
0.00103598
0.00107287
0.00113235
0.00113918
0.00118336
0.0012061
0.00121989
0.00126301
0.00133275
0.00135608
0.00141121
0.00143806
0.00151622
0.00193112
0.00720587
0.000964629
0.00099788
0.000933954
0.000977832
0.00104143
0.00105495
0.0010933
0.00109768
0.0011109
0.00113955
0.00113608
0.00120614
0.00126205
0.00132796
0.00135117
0.0014129
0.00142644
0.00151186
0.00173622
0.00606805
0.000965312
0.00101408
0.000941587
0.0009869
0.00100607
0.0010216
0.00103989
0.00105225
0.00109824
0.00112441
0.00119593
0.00127248
0.00130619
0.00135326
0.00133624
0.00140682
0.00145297
0.0015462
0.00166459
0.00514035
0.000988576
0.00101148
0.000952963
0.000983762
0.00100434
0.00103564
0.00105708
0.00110593
0.00114136
0.00119089
0.00123799
0.00124791
0.00126398
0.00126779
0.00129871
0.00143518
0.00144325
0.00153444
0.00158985
0.00455648
0.000947052
0.000992648
0.000938263
0.000970091
0.00101161
0.00103107
0.00106765
0.00109577
0.00112791
0.00115532
0.00117665
0.00120319
0.00124839
0.00130933
0.00143115
0.00151039
0.00147249
0.00154733
0.00160944
0.00442807
0.000923198
0.00096276
0.000922284
0.00097391
0.00100978
0.0010361
0.00107076
0.00110024
0.00113923
0.00117014
0.0012208
0.00126627
0.00133397
0.00138822
0.0014365
0.00137399
0.00137582
0.00148242
0.00155088
0.00369503
0.000927016
0.000966258
0.00093624
0.000986534
0.00101713
0.00104672
0.00107531
0.00110929
0.00114095
0.00117642
0.0012121
0.00124547
0.00127611
0.00129149
0.00130027
0.0013135
0.00145451
0.0015593
0.00169259
0.00355736
0.000934036
0.000983055
0.000950008
0.000988636
0.00101691
0.00103847
0.00106528
0.00109597
0.00112617
0.00116217
0.00119508
0.00123525
0.00126914
0.00132428
0.00138748
0.00148967
0.00162499
0.00156473
0.00161364
0.00269848
0.000913949
0.000958883
0.00092333
0.000976926
0.00100825
0.00103691
0.00106441
0.00110172
0.00112782
0.00116821
0.00119619
0.0012388
0.00127676
0.00132364
0.00136343
0.0014101
0.00140761
0.00145592
0.00164182
0.00219316
0.000251008
0.000155361
0.000204231
0.000239202
0.000207243
0.000135801
0.000161427
0.000240616
0.000194838
0.000108428
4.92326e-05
0.000431116
0.00163667
0.00432139
0.00842766
0.0107531
0.00799855
0.00352912
0.000234321
0.000489804
0.000292182
0.000223812
0.000192849
0.000186386
0.000233491
0.000221199
0.000191143
0.000205946
0.000281867
0.000229772
0.000130382
0.000101104
0.000562276
0.00213787
0.0055434
0.0095657
0.0103878
0.00629638
0.00173223
5.78979e-23
0.00029191
0.000275176
0.000288335
0.000211623
0.000197038
0.000215347
0.000233608
0.000196485
0.000241284
0.000304699
0.000254911
0.000131617
8.89487e-05
0.000840872
0.00319343
0.0074319
0.0109635
0.00886632
0.00390107
0.000474737
0.00031193
0.00024992
0.000295668
0.000291833
0.000270502
0.000235565
0.00024932
0.000240925
0.000242328
0.000280402
0.000329077
0.000260785
9.4505e-05
0.000118198
0.0014599
0.00509741
0.00969882
0.0107155
0.00666331
0.000870694
0.000352565
0.00029906
0.000293725
0.000271776
0.000283457
0.000265947
0.000293576
0.000259064
0.000269632
0.000280084
0.000331488
0.000344977
0.000255402
0.000140031
0.000435124
0.00301431
0.00792676
0.0114126
0.00861276
0.00226552
0.000375709
0.000347727
0.000363999
0.000336809
0.000343917
0.000279464
0.000311964
0.000317803
0.000307669
0.000324651
0.000337628
0.000384217
0.000354932
0.000248086
0.000157825
0.00130567
0.00598971
0.0111481
0.0100431
0.00258922
0.000404452
0.000369971
0.000368508
0.000326744
0.000380409
0.000346496
0.000351493
0.000333891
0.000337461
0.000349237
0.000393869
0.000415772
0.00041357
0.000351777
0.00013491
0.00033898
0.00383858
0.0099908
0.0112062
0.0048969
0.000426443
0.000429122
0.000452181
0.000375444
0.000415217
0.000363239
0.000395441
0.000415606
0.000401729
0.000405298
0.000426584
0.00048018
0.000519907
0.000480511
0.00034751
0.000240673
0.00181513
0.00888791
0.0118471
0.00714092
0.000443582
0.000437366
0.000475314
0.000398775
0.000470919
0.000440914
0.000428014
0.000429803
0.000444526
0.000459346
0.000499493
0.000527321
0.000529708
0.000586013
0.000540265
0.000174772
0.000827871
0.00767012
0.0120598
0.00957766
0.000472992
0.000485204
0.00054175
0.000442729
0.000489707
0.000465072
0.000490578
0.000516063
0.000506673
0.000508515
0.000541596
0.000613395
0.000645381
0.00064743
0.000623826
0.000450801
0.000415457
0.00565363
0.0119654
0.0121292
0.000507009
0.00049883
0.000566696
0.000485812
0.000550723
0.000537124
0.000518839
0.000534527
0.000561663