/*--------------------------------*- C++ -*----------------------------------*\
  =========                 |
  \\      /  F ield         | OpenFOAM: The Open Source CFD Toolbox
   \\    /   O peration     | Website:  https://openfoam.org
    \\  /    A nd           | Version:  9
     \\/     M anipulation  |
\*---------------------------------------------------------------------------*/
FoamFile
{
    format      ascii;
    class       volScalarField;
    location    "3.3";
    object      p;
}
// * * * * * * * * * * * * * * * * * * * * * * * * * * * * * * * * * * * * * //

dimensions      [0 2 -2 0 0 0 0];

internalField   nonuniform List<scalar> 
46400
(
-33.615
-27.8001
-16.2063
-7.10628
1.26459
8.91241
15.6924
21.9346
27.4904
32.607
37.2408
41.4883
45.4081
49.0204
52.4065
55.5976
58.5521
61.6371
64.8475
65.6883
-10.6168
-4.78042
5.6989
14.2262
21.8017
28.8076
34.9801
40.6202
45.6584
50.2277
54.3552
58.0824
61.4625
64.5327
67.3245
69.8696
72.1572
74.444
76.5304
76.7942
12.8645
18.4941
27.6304
35.6094
42.4334
48.7898
54.3508
59.4237
63.8916
67.9475
71.5714
74.829
77.7646
80.3895
82.7562
84.8634
86.6913
88.4825
89.8979
89.3576
36.7869
41.7495
49.7364
57.0914
63.2552
68.9402
73.8748
78.3134
82.2156
85.6705
88.7498
91.4542
93.8595
95.9792
97.8527
99.5017
100.905
102.271
103.438
102.721
59.902
64.0303
71.485
78.2652
83.8463
88.9162
93.2583
97.1163
100.443
103.365
105.91
108.12
110.035
111.678
113.09
114.277
115.237
116.174
116.886
115.851
82.5403
86.945
93.7594
99.8134
104.656
108.985
112.63
115.802
118.521
120.824
122.823
124.497
125.929
127.116
128.105
128.897
129.494
130.075
130.522
129.308
105.391
110.238
115.933
121.053
125.077
128.605
131.555
134.047
136.138
137.859
139.284
140.433
141.347
142.053
142.587
142.953
143.148
143.344
143.476
142.085
128.431
133.681
137.945
141.996
145.151
147.817
150.02
151.807
153.272
154.397
155.288
155.923
156.372
156.625
156.737
156.694
156.516
156.356
156.122
154.564
150.602
155.498
158.74
161.696
164.075
165.942
167.451
168.569
169.414
169.972
170.312
170.441
170.401
170.208
169.897
169.459
168.901
168.365
167.748
165.989
172.245
175.761
178.323
180.299
181.937
183.11
183.982
184.513
184.806
184.847
184.71
184.372
183.887
183.252
182.52
181.681
180.751
179.85
178.878
176.912
190.887
193.578
195.57
196.954
198.005
198.621
198.966
198.982
198.779
198.339
197.753
197.022
196.174
195.194
194.116
192.932
191.664
190.421
189.117
186.981
208.134
210.274
211.716
212.504
213.028
213.119
212.99
212.549
211.909
211.019
209.991
208.814
207.558
206.198
204.77
203.253
201.658
200.081
198.439
196.082
223.023
224.59
225.632
225.976
226.072
225.734
225.192
224.377
223.412
222.237
220.906
219.429
217.851
216.198
214.49
212.733
210.923
209.149
207.374
204.886
236.846
237.984
238.586
238.5
238.179
237.429
236.472
235.253
233.884
232.345
230.677
228.87
226.978
224.994
222.977
220.907
218.814
216.756
214.716
212.169
248.167
248.752
249.023
248.606
247.982
246.941
245.711
244.235
242.628
240.867
239.013
237.042
234.986
232.84
230.628
228.359
226.032
223.731
221.413
218.654
259.006
259.038
258.819
258.032
257.044
255.667
254.055
252.209
250.222
248.115
245.93
243.677
241.374
239.022
236.646
234.229
231.789
229.372
227.006
224.133
265.882
265.791
265.234
264.281
263.128
261.744
260.158
258.332
256.336
254.152
251.864
249.459
247.003
244.481
241.943
239.372
236.786
234.241
231.775
228.864
272.487
272.237
271.504
270.161
268.623
266.797
264.856
262.721
260.493
258.13
255.699
253.182
250.622
248.014
245.386
242.737
240.066
237.438
234.889
231.925
275.034
274.793
274.237
273.161
271.809
270.065
268.131
265.961
263.675
261.232
258.723
256.11
253.469
250.761
248.057
245.313
242.571
239.858
237.26
234.196
278.701
276.471
276.093
274.735
273.192
271.294
269.264
267.003
264.654
262.158
259.609
256.972
254.309
251.6
248.889
246.163
243.427
240.756
238.215
235.191
-133.366
-133.558
-133.121
-133.243
-132.956
-131.588
-130.215
-128.173
-126.255
-124.682
-123.166
-121.482
-119.692
-118.223
-116.736
-115.036
-113.494
-112.057
-110.628
-109.137
-134.716
-134.374
-134.944
-134.002
-133.786
-131.93
-129.625
-127.221
-125.108
-123.101
-120.997
-118.877
-116.985
-115.14
-113.278
-111.452
-109.742
-108.074
-106.489
-104.845
-134.64
-134.426
-134.758
-133.867
-132.019
-130.367
-128.041
-125.629
-123.349
-120.907
-118.606
-116.362
-114.238
-112.104
-110.058
-108.104
-106.199
-104.274
-102.456
-100.653
-134.821
-134.963
-134.212
-134.292
-131.911
-129.45
-126.832
-124.339
-121.553
-118.9
-116.312
-113.765
-111.342
-108.919
-106.649
-104.393
-102.233
-100.108
-98.136
-96.12
-137.371
-137.378
-136.139
-134.98
-132.546
-129.351
-126.306
-123.023
-119.991
-116.93
-114.006
-111.159
-108.437
-105.741
-103.239
-100.714
-98.3706
-96.0995
-93.9655
-91.7427
-139.777
-139.379
-139.054
-136.211
-132.868
-129.342
-125.474
-121.871
-118.288
-114.866
-111.533
-108.317
-105.242
-102.244
-99.4416
-96.6352
-94.0781
-91.5343
-89.2074
-86.8152
-144.312
-143.541
-142.601
-138.664
-134.264
-129.729
-125.211
-120.935
-116.76
-112.775
-108.987
-105.358
-101.905
-98.5893
-95.4913
-92.4295
-89.6606
-86.8962
-84.4284
-81.8403
-151.67
-150.713
-147.608
-142.174
-136.038
-130.192
-124.775
-119.604
-114.75
-110.184
-105.871
-101.797
-97.9503
-94.3046
-90.8902
-87.5676
-84.595
-81.5762
-78.9743
-76.2463
-157.435
-156.715
-150.968
-143.916
-136.625
-129.751
-123.4
-117.562
-112.063
-106.939
-102.159
-97.6674
-93.4559
-89.5028
-85.802
-82.2677
-79.0825
-75.857
-73.1553
-70.2417
-163.252
-161.292
-153.298
-144.597
-136
-128.232
-120.949
-114.36
-108.256
-102.601
-97.3616
-92.4766
-87.9309
-83.6931
-79.7331
-76.0043
-72.634
-69.2516
-66.4535
-63.3983
-163.499
-161.071
-152.103
-142.208
-132.971
-124.485
-116.706
-109.618
-103.077
-97.0428
-91.4717
-86.2917
-81.4885
-77.0277
-72.8694
-69.0027
-65.4627
-61.9643
-59.1762
-55.8619
-160.455
-158.51
-148.628
-138.002
-128.182
-119.176
-110.864
-103.359
-96.4189
-90.0355
-84.1712
-78.7314
-73.7159
-69.0709
-64.7562
-60.7691
-57.0926
-53.5841
-50.6671
-47.3061
-156.27
-153.621
-143.121
-131.4
-121.108
-111.771
-103.131
-95.3366
-88.1853
-81.6052
-75.5749
-69.9958
-64.8536
-60.1021
-55.6961
-51.6392
-47.8816
-44.3302
-41.3177
-37.8763
-149.122
-145.532
-134.215
-122.651
-111.854
-102.408
-93.5601
-85.6169
-78.3127
-71.6011
-65.4701
-59.8004
-54.6021
-49.8042
-45.3705
-41.3088
-37.5313
-34.0398
-31.0358
-27.5604
-138.692
-134.436
-123.136
-111.761
-100.801
-91.2124
-82.3102
-74.2645
-66.9471
-60.2168
-54.083
-48.4317
-43.2452
-38.4718
-34.075
-30.0511
-26.2986
-22.8901
-19.9149
-16.415
-126.351
-121.571
-109.878
-98.4724
-87.5296
-77.9828
-69.1474
-61.1939
-53.9422
-47.2861
-41.2358
-35.658
-30.5635
-25.8754
-21.5699
-17.6357
-13.96
-10.7007
-7.77265
-4.24151
-111.187
-106.29
-94.2392
-82.9664
-72.3968
-63.1015
-54.5215
-46.7284
-39.6918
-33.2077
-27.3222
-21.9163
-16.9639
-12.4256
-8.27236
-4.47256
-0.931555
2.13299
4.94471
8.422
-94.2993
-89.0236
-76.7583
-66.066
-55.6904
-46.6788
-38.3982
-30.8811
-24.0843
-17.8424
-12.1853
-6.98922
-2.25278
2.08778
6.04503
9.66761
13.0195
15.8458
18.4835
21.789
-75.702
-70.194
-57.4957
-47.4382
-37.6648
-29.0157
-21.1963
-14.0163
-7.58464
-1.65137
3.72504
8.65221
13.1712
17.2952
21.0645
24.5422
27.7199
30.3482
32.825
36.4676
-55.391
-49.4837
-37.1434
-27.617
-18.5171
-10.3382
-2.98683
3.74766
9.81809
15.3946
20.4674
25.1325
29.4183
33.3764
37.0458
40.495
43.6325
46.5235
49.6682
53.4519
-102.903
-94.4046
-87.7255
-85.3481
-82.1571
-81.5139
-79.6584
-78.7602
-77.4175
-76.1841
-75.0277
-73.5746
-72.4272
-70.8743
-69.6367
-68.0565
-66.5356
-65.5162
-64.7048
-64.2663
-97.9417
-90.2975
-83.2688
-81.1299
-77.8728
-77.2966
-75.5526
-74.9423
-73.9187
-72.9249
-72.0171
-70.7844
-69.8692
-68.5274
-67.4976
-66.1183
-64.7616
-63.8293
-63.1685
-62.7865
-93.216
-86.1299
-78.5559
-76.8347
-73.568
-73.2995
-71.8179
-71.3298
-70.4839
-69.68
-69.0096
-67.9794
-67.2856
-66.1237
-65.3206
-64.0866
-62.9458
-62.2087
-61.5775
-61.2218
-87.9922
-81.6782
-73.9313
-72.5638
-69.2977
-69.1322
-67.8218
-67.5933
-67.0725
-66.4966
-66.0686
-65.249
-64.7843
-63.8274
-63.2289
-62.1832
-61.2222
-60.5588
-60.0895
-59.7774
-82.7761
-77.1709
-69.0867
-68.1796
-65.0293
-65.1603
-64.1345
-64.0448
-63.7153
-63.3246
-63.1272
-62.5032
-62.2496
-61.4648
-61.0967
-60.1917
-59.4675
-58.9635
-58.5574
-58.2685
-77.1738
-72.3891
-64.3237
-63.844
-60.7813
-61.0227
-60.2274
-60.3868
-60.3818
-60.2109
-60.2502
-59.8291
-59.8003
-59.2159
-59.0492
-58.3212
-57.8026
-57.3516
-57.135
-56.8729
-71.4445
-67.473
-59.3765
-59.3318
-56.5347
-57.0607
-56.5877
-56.8946
-57.0977
-57.1067
-57.3705
-57.1384
-57.3113
-56.8908
-56.9582
-56.3686
-56.1142
-55.785
-55.6834
-55.4323
-65.3807
-62.2951
-54.4844
-54.9071
-52.3017
-52.9478
-52.7507
-53.3069
-53.8332
-54.0618
-54.5517
-54.5161
-54.9072
-54.6838
-54.9536
-54.5257
-54.5131
-54.2139
-54.3388
-54.0997
-59.1394
-56.941
-49.3779
-50.2869
-48.0634
-48.9889
-49.1573
-49.87
-50.6174
-51.0217
-51.7288
-51.876
-52.4613
-52.3951
-52.8989
-52.6098
-52.8945
-52.6786
-52.9804
-52.7424
-52.4946
-51.3882
-44.3222
-45.7448
-43.8492
-44.8894
-45.3764
-46.3443
-47.4149
-48.0386
-48.964
-49.3029
-50.0954
-50.2205
-50.9242
-50.7976
-51.366
-51.1387
-51.7199
-51.4803
-45.6855
-45.5316
-39.1321
-40.9623
-39.6227
-40.9337
-41.8217
-42.9621
-44.2616
-45.0651
-46.196
-46.7116
-47.69
-47.9697
-48.899
-48.9163
-49.8071
-49.6473
-50.4462
-50.2086
-38.4778
-39.4071
-33.9018
-36.2843
-35.4073
-36.8535
-38.083
-39.4947
-41.1174
-42.1433
-43.4824
-44.1836
-45.3593
-45.8204
-46.9492
-47.1278
-48.3071
-48.1906
-49.2785
-49.0176
-30.8577
-33.093
-28.5221
-31.3867
-31.1812
-32.9079
-34.551
-36.1593
-38.0192
-39.2338
-40.767
-41.6388
-42.9904
-43.6034
-44.9467
-45.2735
-46.7593
-46.781
-48.0685
-47.8252
-22.6073
-26.5638
-23.0972
-26.5777
-26.9596
-28.8563
-30.8498
-32.7494
-34.9332
-36.3756
-38.1059
-39.155
-40.6922
-41.4755
-43.014
-43.5005
-45.2722
-45.3888
-46.9937
-46.7019
-13.744
-19.8503
-17.5397
-21.5853
-22.7431
-24.9431
-27.3417
-29.4665
-31.8977
-33.542
-35.454
-36.6646
-38.3658
-39.2947
-41.0349
-41.6743
-43.7356
-44.0346
-45.9538
-45.5711
-4.00124
-12.7296
-11.8652
-16.6033
-18.483
-20.8966
-23.6419
-26.0839
-28.8463
-30.7304
-32.8315
-34.2125
-36.0889
-37.18
-39.1131
-39.9097
-42.2533
-42.6804
-45.019
-44.5396
5.96422
-5.57613
-6.11259
-11.4751
-14.2298
-16.9654
-20.0832
-22.777
-25.8091
-27.9143
-30.1907
-31.7261
-33.7588
-34.9874
-37.1111
-38.0414
-40.6837
-41.2108
-43.9454
-43.4026
15.9782
1.21796
-0.769872
-6.62845
-10.1625
-13.1927
-16.6266
-19.6259
-22.9768
-25.3176
-27.7474
-29.4138
-31.5899
-32.9503
-35.2204
-36.3043
-39.1822
-39.8775
-43.0107
-42.274
30.7527
9.71702
5.15693
-1.55434
-6.07366
-9.52394
-13.2728
-16.5641
-20.205
-22.8051
-25.3903
-27.188
-29.4974
-30.9954
-33.4481
-34.7489
-37.8357
-38.8691
-42.4518
-41.7724
48.0718
21.2602
12.9106
4.90002
-0.666297
-4.30843
-8.40131
-12.1629
-16.2709
-19.2409
-22.1416
-24.2255
-26.769
-28.5072
-31.2976
-32.6627
-36.5195
-37.4731
-41.6973
-40.1573
70.8179
64.5395
48.7555
39.8672
29.3324
22.6821
15.7049
10.8949
5.77838
1.34967
-3.37278
-6.90066
-10.3825
-12.4861
-15.8869
-16.3561
-21.2675
-21.53
-27.6598
-21.57
105.933
92.6908
74.503
63.5398
51.8454
42.4679
33.6279
26.3121
20.289
15.3129
11.2033
7.09946
3.25488
-0.382667
-3.59106
-7.197
-9.62616
-12.2443
-13.5327
-13.5263
105.214
92.7871
81.3524
71.7373
62.8788
55.0215
48.0173
41.5428
35.5498
30.3023
25.7461
21.9985
18.562
15.7576
13.1606
11.1227
9.02512
7.44165
6.68297
6.39797
104.022
95.9577
87.9028
79.1031
71.6295
64.1163
57.5486
51.3796
46.1836
41.0662
36.516
32.0196
28.2774
24.494
21.486
18.3703
16.0597
13.7167
12.6638
12.4201
95.1265
88.2982
82.4007
76.4403
71.2666
65.8906
61.035
56.2863
51.9065
47.8771
44.1197
40.7286
37.5694
34.7157
32.1845
29.7163
27.8009
25.7064
24.533
24.1698
91.1948
86.8355
83.5882
78.7662
74.4732
69.8411
65.624
61.3458
57.4239
53.5438
49.9738
46.4803
43.2878
40.1765
37.3859
34.6572
32.3375
30.0262
28.8532
28.5979
84.8063
81.5635
78.5466
75.1623
72.1084
68.977
65.8782
62.8483
59.8146
56.9781
54.0914
51.4622
48.7747
46.3208
43.8587
41.3846
39.0981
36.7382
35.1112
34.7544
82.9311
80.7045
79.061
76.6142
73.8688
71.0686
68.512
65.818
63.1829
60.5632
57.9493
55.4409
52.8901
50.4934
48.0467
45.831
43.5416
41.2407
39.8493
39.1197
79.2644
77.6499
75.9317
74.0889
72.6199
70.8352
68.8625
66.9655
64.8949
62.9994
60.8538
58.9755
56.7525
54.8796
52.5396
50.5711
48.1022
46.0675
43.9703
43.2775
78.9613
77.9002
76.9681
75.6779
74.1977
72.5032
70.8676
69.2728
67.5995
65.9463
64.1446
62.4672
60.5108
58.8034
56.6345
54.8851
52.2847
50.4808
47.8713
47.2449
77.7325
76.7265
75.9009
75.0297
74.2288
73.3606
72.2606
71.1337
69.8425
68.6914
67.31
66.128
64.6105
63.3843
61.6153
60.299
57.9677
56.7449
53.7819
53.3195
78.0723
77.7376
77.1915
76.5667
75.7217
74.9461
74.0954
73.2925
72.4218
71.5792
70.6224
69.7465
68.663
67.7507
66.4887
65.5655
63.7861
63.083
59.2698
59.8342
78.2286
77.945
77.6079
77.3036
76.9262
76.5584
76.0779
75.6435
75.1004
74.6899
74.1967
73.8084
73.3925
73.0401
72.6167
72.3227
71.6589
71.7181
71.4216
72.9566
79.056
78.9231
78.6648
78.498
78.2243
78.094
77.855
77.7806
77.5914
77.5759
77.4861
77.5583
77.6712
77.8377
78.309
78.4881
79.6133
79.7646
82.039
83.5424
79.6938
79.7148
79.6542
79.672
79.6277
79.673
79.6583
79.7916
79.8302
80.116
80.2377
80.7558
81.0426
81.8846
82.4552
83.6946
84.9284
86.3354
89.3013
89.9812
80.4683
80.5596
80.6103
80.7528
80.8645
81.0899
81.2819
81.6179
81.9303
82.4376
82.9086
83.6622
84.3137
85.3819
86.2443
87.8433
88.8617
91.3681
92.9007
95.4508
81.103
81.2636
81.4055
81.6232
81.8273
82.1343
82.4083
82.8532
83.2276
83.8352
84.3169
85.1773
85.8142
86.999
87.8279
89.477
90.473
92.8614
93.975
103.593
81.7397
81.95
82.165
82.4421
82.745
83.119
83.5382
84.0367
84.5633
85.2437
85.9211
86.8111
87.6011
88.7878
89.6772
91.2498
92.1758
94.3612
95.4054
98.7825
82.0979
82.3087
82.5418
82.8463
83.1694
83.5809
84.002
84.5359
85.0814
85.7616
86.4331
87.284
88.0897
89.1492
90.0605
91.3591
92.3053
93.7722
94.2426
100.448
82.2896
82.5164
82.8046
83.1217
83.5012
83.9225
84.4089
84.9555
85.562
86.2567
86.9957
87.8629
88.7332
89.8064
90.7855
92.1128
93.1349
94.8072
95.7036
97.9067
199.728
199.414
198.272
196.786
194.391
191.776
188.041
184.253
179.449
174.39
168.337
162.095
155.066
146.919
139.207
130.641
121.682
112.61
103.668
94.1503
170.345
170.157
169.707
168.983
167.945
166.712
165.073
163.383
161.096
158.978
156.249
153.896
150.133
145.699
141.75
138.5
134.663
130.875
126.532
122.226
133.247
133.233
133.076
132.845
132.467
132.011
131.421
130.741
129.926
129.057
127.984
126.909
125.558
124.354
122.68
121.186
119.28
117.599
115.445
113.819
120.743
120.735
120.665
120.536
120.319
120.073
119.691
119.314
118.77
118.233
117.536
116.876
116.027
115.254
114.267
113.408
112.271
111.343
110.034
109.17
102.643
102.652
102.632
102.568
102.486
102.353
102.204
102.015
101.795
101.568
101.276
101.022
100.685
100.396
99.9654
99.6262
99.0998
98.7273
98.0926
97.7589
96.7668
96.784
96.7713
96.7509
96.6896
96.6312
96.5221
96.4235
96.2692
96.1179
95.9188
95.7175
95.4304
95.1752
94.8259
94.5411
94.1299
93.828
93.3382
93.0741
88.367
88.3754
88.3734
88.3463
88.3114
88.2517
88.1815
88.0942
87.9867
87.8747
87.7301
87.5888
87.4118
87.2488
87.0378
86.8548
86.6026
86.4055
86.1009
85.909
85.4775
85.4908
85.4867
85.4796
85.4503
85.4226
85.3695
85.3198
85.2426
85.1706
85.0685
84.9753
84.8457
84.7317
84.573
84.4397
84.2522
84.1021
83.8841
83.731
81.9312
81.9383
81.937
81.921
81.8964
81.8583
81.8099
81.7518
81.6787
81.6021
81.505
81.412
81.2914
81.1773
81.0226
80.8791
80.6917
80.5128
80.284
80.046
80.5449
80.5539
80.5533
80.5469
80.5294
80.5086
80.4752
80.4403
80.3906
80.3439
80.277
80.222
80.1361
80.0733
79.9622
79.8762
79.7436
79.6338
79.4952
79.3571
79.5765
79.5895
79.5904
79.5816
79.5624
79.5328
79.4953
79.4468
79.392
79.3281
79.2579
79.1861
79.1003
79.0148
78.8867
78.7533
78.5596
78.4002
78.2021
78.0347
79.0792
79.1022
79.1108
79.1071
79.0874
79.0603
79.0271
78.9895
78.9466
78.9014
78.8616
78.8217
78.7806
78.7357
78.6792
78.6131
78.543
78.4694
78.3765
78.2846
79.1379
79.1461
79.1489
79.1468
79.1386
79.1257
79.1125
79.0957
79.0814
79.063
79.0266
78.9885
78.9413
78.8934
78.8377
78.7785
78.7151
78.6448
78.5389
78.4335
79.4993
79.5069
79.5121
79.5131
79.5113
79.5057
79.4971
79.4849
79.4705
79.4523
79.4334
79.4107
79.3854
79.359
79.3259
79.2967
79.2541
79.2218
79.2088
79.172
79.8364
79.8456
79.8538
79.86
79.8651
79.8684
79.8702
79.8705
79.8691
79.866
79.8614
79.8544
79.8471
79.8357
79.826
79.8101
79.7978
79.7791
79.7631
79.7423
80.3894
80.3982
80.406
80.4137
80.4208
80.4274
80.4336
80.4393
80.4444
80.4493
80.4532
80.4572
80.4599
80.4628
80.4642
80.4658
80.467
80.4658
80.4672
80.4638
80.7951
80.8038
80.8144
80.8247
80.8368
80.8482
80.861
80.873
80.8864
80.8993
80.9134
80.927
80.9418
80.9563
80.9723
80.9876
81.004
81.0198
81.0373
81.0532
81.2325
81.2439
81.256
81.2697
81.2836
81.2973
81.3132
81.3291
81.3484
81.3675
81.3895
81.4119
81.4374
81.4641
81.4922
81.5204
81.5511
81.5809
81.6144
81.6456
81.5239
81.5364
81.5499
81.5656
81.5815
81.602
81.6218
81.6443
81.6667
81.6913
81.7166
81.7429
81.7704
81.7976
81.8273
81.8576
81.8894
81.9232
81.9587
81.9951
81.6447
81.6552
81.6681
81.683
81.7002
81.7194
81.7399
81.7628
81.7865
81.8121
81.8389
81.8673
81.897
81.9281
81.962
81.9981
82.0375
82.0778
82.1219
82.1673
56.111
55.0324
51.5026
48.119
44.8658
41.363
37.6549
33.7021
29.4318
24.8054
19.7808
14.2494
8.22628
1.4808
-5.78808
-13.9911
-23.0001
-32.6342
-45.1175
-51.3074
67.3957
66.9461
64.6134
62.062
59.5005
56.6656
53.5666
50.1657
46.4289
42.3249
37.8063
32.7966
27.268
21.1372
14.427
6.84413
-1.39923
-10.5906
-21.8775
-28.0059
80.2916
80.6703
79.0268
76.9798
74.8875
72.5038
69.8414
66.9005
63.6439
60.0492
56.0707
51.6323
46.7558
41.2492
35.2639
28.421
21.0443
12.6171
2.58592
-3.63563
93.9368
94.4938
93.1312
91.5287
89.8833
87.9843
85.8424
83.4373
80.726
77.6859
74.258
70.4066
66.0745
61.2162
55.8403
49.6626
43.0271
35.1944
26.5469
21.1781
107.446
108.355
107.493
106.341
105.162
103.745
102.077
100.159
97.9507
95.4364
92.5633
89.2824
85.5878
81.3417
76.5919
71.0647
65.0115
57.7595
49.7784
45.4883
121.369
122.464
121.863
121.073
120.263
119.242
118.006
116.559
114.853
112.872
110.548
107.878
104.77
101.196
97.1222
92.3036
86.9644
80.3635
72.9812
68.4531
134.535
135.834
135.605
135.226
134.848
134.287
133.534
132.594
131.414
129.985
128.257
126.202
123.77
120.903
117.54
113.53
109.014
103.387
96.9815
92.2198
147.767
149.243
149.296
149.271
149.262
149.091
148.751
148.251
147.543
146.633
145.446
143.996
142.178
139.996
137.364
134.186
130.524
125.792
120.655
115.495
159.756
161.38
161.83
162.187
162.564
162.808
162.917
162.898
162.717
162.357
161.766
160.931
159.78
158.33
156.448
154.158
151.366
147.835
144.115
138.775
171.261
173.129
173.955
174.693
175.449
176.107
176.641
177.078
177.353
177.471
177.365
177.052
176.457
175.597
174.367
172.819
170.759
168.263
165.266
160.988
181.818
183.817
184.963
186.034
187.148
188.175
189.115
189.96
190.665
191.237
191.62
191.831
191.794
191.538
190.948
190.058
188.722
187.047
184.733
181.652
191.506
193.733
195.243
196.702
198.184
199.597
200.92
202.145
203.245
204.214
205.004
205.645
206.048
206.263
206.14
205.778
204.964
203.846
202.09
199.633
200.481
202.852
204.639
206.375
208.126
209.813
211.412
212.933
214.35
215.66
216.847
217.902
218.765
219.445
219.817
219.963
219.67
219.126
217.879
216.015
208.37
210.92
212.987
214.998
217.025
218.992
220.893
222.736
224.488
226.165
227.711
229.13
230.351
231.376
232.118
232.652
232.769
232.642
231.827
230.449
215.409
218.107
220.369
222.599
224.849
227.041
229.193
231.28
233.304
235.233
237.045
238.728
240.231
241.583
242.699
243.622
244.126
244.408
243.966
243.074
221.635
224.477
226.817
229.199
231.605
233.988
236.322
238.622
240.856
243.014
245.083
247.033
248.857
250.524
251.982
253.2
254.047
254.657
254.623
254.322
226.852
229.686
232.103
234.592
237.127
239.638
242.122
244.581
246.981
249.329
251.58
253.74
255.748
257.599
259.209
260.588
261.673
262.525
262.871
262.949
230.625
233.543
236.104
238.721
241.389
244.02
246.643
249.223
251.772
254.246
256.653
258.945
261.121
263.128
264.969
266.581
267.982
269.036
269.682
269.706
233.09
236.118
238.744
241.462
244.184
246.911
249.587
252.27
254.879
257.467
259.95
262.377
264.653
266.828
268.788
270.577
272.02
273.14
273.781
273.894
234.992
237.995
240.586
243.284
246.043
248.78
251.513
254.224
256.902
259.53
262.083
264.555
266.896
269.115
271.128
272.968
274.506
275.825
276.74
277.403
-122.393
-124.02
-125.526
-127.037
-128.642
-130.337
-131.929
-133.473
-135.244
-136.985
-138.638
-140.467
-142.437
-144.606
-146.387
-148.188
-148.689
-148.297
-148.366
-148.31
-118.098
-119.842
-121.493
-123.198
-124.996
-126.886
-128.776
-130.711
-132.682
-134.874
-137.082
-139.148
-141.395
-143.966
-146.281
-148.62
-148.785
-149.329
-148.85
-149.192
-113.656
-115.568
-117.493
-119.51
-121.503
-123.572
-125.722
-127.974
-130.218
-132.602
-135.039
-137.623
-140.021
-142.509
-145.059
-146.808
-148.313
-149.246
-148.915
-149.17
-109.054
-111.18
-113.253
-115.471
-117.743
-120.108
-122.483
-125.044
-127.58
-130.263
-133.004
-135.806
-138.743
-141.474
-144.352
-147.077
-149.277
-149.122
-149.789
-149.576
-104.553
-106.871
-109.117
-111.519
-113.968
-116.625
-119.256
-122.086
-124.95
-127.934
-130.993
-134.177
-137.375
-140.767
-143.926
-147.093
-149.76
-150.803
-151.839
-151.835
-99.4913
-101.995
-104.442
-107.119
-109.806
-112.761
-115.701
-118.861
-122.086
-125.462
-128.953
-132.543
-136.281
-140.054
-144.101
-147.723
-150.92
-153.607
-153.996
-154.366
-94.3285
-97.0637
-99.6706
-102.604
-105.519
-108.756
-112.017
-115.502
-119.131
-122.932
-126.896
-131.045
-135.398
-139.869
-144.52
-149.161
-153.845
-157.806
-158.584
-159.416
-88.6316
-91.5069
-94.2545
-97.4545
-100.591
-104.097
-107.694
-111.538
-115.58
-119.857
-124.375
-129.149
-134.226
-139.615
-145.241
-151.295
-157.569
-163.018
-166.113
-167.085
-82.4233
-85.5197
-88.3947
-91.8291
-95.2096
-98.9599
-102.872
-107.045
-111.487
-116.215
-121.237
-126.601
-132.371
-138.5
-145.122
-152.311
-160.004
-167.137
-173.129
-174.115
-75.4917
-78.74
-81.7325
-85.3403
-88.9236
-92.8789
-97.0675
-101.546
-106.336
-111.47
-116.971
-122.888
-129.278
-136.158
-143.727
-151.837
-160.666
-169.459
-178.296
-180.141
-67.9097
-71.405
-74.3867
-78.1003
-81.8566
-85.9644
-90.3658
-95.0843
-100.162
-105.632
-111.501
-117.836
-124.716
-132.162
-140.316
-149.163
-158.793
-169.022
-178.484
-180.904
-59.2253
-62.8167
-65.9321
-69.6844
-73.5951
-77.8401
-82.4238
-87.3502
-92.659
-98.3994
-104.587
-111.293
-118.583
-126.466
-135.137
-144.526
-154.662
-165.617
-176.282
-178.658
-49.5905
-53.2847
-56.5039
-60.3185
-64.3275
-68.6613
-73.3505
-78.4033
-83.866
-89.7896
-96.178
-103.126
-110.702
-118.956
-128.082
-137.929
-148.766
-161.236
-172.019
-174.574
-39.1167
-42.869
-46.0932
-49.8676
-53.9163
-58.2694
-63.0098
-68.1266
-73.6609
-79.6767
-86.1836
-93.275
-100.998
-109.404
-118.706
-128.659
-140.024
-152.241
-164.223
-167.961
-27.725
-31.5145
-34.7213
-38.4278
-42.4624
-46.791
-51.5024
-56.6108
-62.1523
-68.1893
-74.7224
-81.8643
-89.6605
-98.2143
-107.637
-117.786
-129.315
-141.35
-153.13
-157.438
-15.4417
-19.263
-22.4037
-25.963
-29.9263
-34.1656
-38.7961
-43.8251
-49.281
-55.2337
-61.6919
-68.7688
-76.4913
-84.961
-94.3364
-104.462
-116.114
-128.106
-140.308
-145.347
-2.49305
-6.27778
-9.30679
-12.6616
-16.4939
-20.6019
-25.0754
-29.9578
-35.2742
-41.0797
-47.3771
-54.2877
-61.8234
-70.1435
-79.2529
-89.147
-100.282
-112.292
-124.935
-129.926
10.9981
7.32483
4.52314
1.44572
-2.1899
-6.11035
-10.3861
-15.0699
-20.1762
-25.7586
-31.8318
-38.5137
-45.8033
-53.8376
-62.6792
-72.2528
-83.289
-94.6929
-107.486
-113.01
26.0147
21.9802
19.3472
16.5118
13.0678
9.29159
5.21185
0.748005
-4.13138
-9.45602
-15.2422
-21.6061
-28.5381
-36.2518
-44.6054
-53.8453
-64.2302
-75.0268
-88.2375
-93.875
43.7037
39.577
36.1089
32.9083
29.4577
25.672
21.6558
17.3325
12.6587
7.59087
2.0959
-3.93995
-10.5225
-17.7826
-25.7161
-34.4769
-44.327
-54.6171
-67.5498
-73.5229
-72.697
-73.1932
-74.0755
-75.1476
-77.0115
-78.7958
-80.2247
-82.0163
-83.3552
-85.0371
-86.4041
-87.835
-89.4105
-90.4418
-92.6341
-93.1891
-96.8876
-98.985
-106.383
-115.738
-71.1029
-71.5359
-72.292
-73.3416
-74.9672
-76.5476
-77.7534
-79.3399
-80.4427
-81.9015
-83.0154
-84.2021
-85.4566
-86.1943
-88.2426
-88.7504
-92.6327
-94.3696
-102.218
-110.58
-69.4495
-69.8749
-70.5804
-71.4111
-72.8207
-74.2675
-75.2531
-76.6456
-77.5203
-78.7656
-79.6356
-80.6275
-81.6965
-82.3194
-84.1172
-84.3093
-88.0904
-89.5565
-97.9998
-105.568
-67.8924
-68.2675
-68.8309
-69.644
-70.8194
-72.0698
-72.8346
-74.0276
-74.6707
-75.7034
-76.326
-77.0826
-77.8203
-78.1686
-79.7917
-79.8956
-83.7548
-84.7742
-93.4624
-100.225
-66.287
-66.6485
-67.146
-67.767
-68.7171
-69.8362
-70.3792
-71.3852
-71.811
-72.6381
-73.0259
-73.5989
-74.1458
-74.3787
-75.6931
-75.4996
-79.1653
-79.8044
-88.8874
-94.7897
-64.7837
-65.1155
-65.4334
-66.0497
-66.7556
-67.6851
-68.011
-68.8218
-69.0208
-69.6435
-69.7871
-70.1354
-70.345
-70.3221
-71.4005
-71.1021
-74.7244
-74.8841
-83.9667
-88.9278
-63.2407
-63.539
-63.7778
-64.2361
-64.696
-65.4946
-65.5973
-66.2278
-66.2193
-66.6446
-66.5597
-66.7296
-66.7406
-66.6026
-67.328
-66.7586
-70.0495
-69.7907
-78.9892
-83.0562
-61.8057
-62.1026
-62.1073
-62.5769
-62.7701
-63.3866
-63.2737
-63.7118
-63.4833
-63.7096
-63.3923
-63.342
-63.0203
-62.6363
-63.0629
-62.3632
-65.4773
-64.7472
-73.644
-76.9006
-60.345
-60.6091
-60.4836
-60.8363
-60.7513
-61.2345
-60.9006
-61.1637
-60.7366
-60.7697
-60.2338
-60.0032
-59.4718
-58.9705
-59.0127
-58.0651
-60.7467
-59.4444
-68.2178
-70.4819
-58.9881
-59.263
-58.8482
-59.2457
-58.8599
-59.1602
-58.6164
-58.6903
-58.0515
-57.8911
-57.1328
-56.6877
-55.8362
-55.0975
-54.7621
-53.6936
-56.0152
-54.2457
-62.5669
-63.6099
-57.6174
-57.8667
-57.2819
-57.5644
-56.8798
-57.0397
-56.2816
-56.1853
-55.357
-55.0098
-54.0417
-53.4084
-52.3393
-51.4721
-50.7244
-49.4403
-51.099
-48.8903
-56.6123
-56.515
-56.344
-56.6145
-55.7514
-55.9892
-55.0173
-54.9921
-54.0313
-53.751
-52.7208
-52.1853
-51.0053
-50.1595
-48.7907
-47.6801
-46.5033
-45.0786
-46.1918
-43.5409
-50.3012
-49.1313
-55.0643
-55.3053
-54.2407
-54.3263
-53.0679
-52.8965
-51.7298
-51.2853
-50.0745
-49.3587
-47.9776
-46.9339
-45.345
-44.0797
-42.4766
-40.8368
-41.1361
-38.0135
-43.8269
-41.2583
-53.8751
-54.1609
-52.8038
-52.7625
-51.2263
-50.8684
-49.509
-48.8881
-47.4865
-46.5888
-45.006
-43.7494
-41.8851
-40.3596
-38.3
-36.4798
-36.067
-32.4792
-37.0903
-32.7972
-52.6712
-53.0332
-51.3917
-51.1186
-49.3094
-48.7997
-47.246
-46.469
-44.8968
-43.8279
-42.0529
-40.5918
-38.5131
-36.7942
-34.3057
-32.243
-30.8815
-26.8027
-30.1582
-23.6616
-51.5914
-52.0233
-49.9545
-49.5536
-47.4775
-46.7832
-45.0429
-44.0973
-42.3434
-41.0965
-39.1241
-37.4439
-35.1097
-33.0987
-30.1461
-27.8388
-25.6052
-21.0166
-22.7625
-13.6719
-50.401
-50.9007
-48.4188
-47.8841
-45.5194
-44.6885
-42.7654
-41.6731
-39.7551
-38.3403
-36.1786
-34.2863
-31.7361
-29.4758
-26.1107
-23.5027
-20.2004
-15.1528
-15.3467
-3.5477
-49.2322
-49.9555
-47.0483
-46.2973
-43.7318
-42.7206
-40.6578
-39.4231
-37.3494
-35.7912
-33.4658
-31.3863
-28.6363
-26.0803
-22.2944
-19.3257
-15.0442
-9.73191
-8.30425
6.71719
-48.6886
-49.3895
-45.9795
-44.847
-42.1
-40.885
-38.6538
-37.2732
-35.0531
-33.356
-30.8537
-28.5622
-25.6413
-22.8224
-18.6127
-15.1741
-9.75584
-3.78529
0.61667
21.7968
-47.0464
-48.6
-44.5069
-43.4451
-39.8968
-38.5581
-36.0084
-34.4155
-31.9659
-29.9675
-27.1291
-24.4597
-21.1036
-17.7485
-12.9591
-9.11242
-2.92283
4.11818
12.7338
39.0905
-28.3912
-34.2342
-28.3495
-27.7667
-22.9548
-22.1723
-18.8549
-16.7325
-13.2686
-9.82336
-5.10522
-0.647025
5.36417
10.7046
17.7639
23.5214
33.9576
42.0588
57.8749
62.3361
-19.8919
-19.8421
-18.5181
-15.8944
-13.4655
-9.97862
-6.74839
-2.98742
0.912684
5.0744
9.46892
14.3001
20.2469
27.0687
35.8218
45.1148
56.845
67.662
86.8463
99.3007
1.37947
1.66644
2.43342
4.07501
6.18059
8.21979
10.8715
13.6331
17.1159
20.8765
25.4767
30.67
36.8392
43.541
50.8497
58.7336
67.7974
77.466
89.2435
101.706
7.75345
8.0235
9.02981
11.4058
13.6929
16.8377
19.8682
23.7304
27.5297
32.057
36.7119
41.9162
47.2828
53.3168
59.9456
67.5295
75.2849
84.2505
92.7483
101.078
20.4195
20.7595
21.9602
24.0447
25.9858
28.4356
31.0117
33.8734
37.0805
40.5174
44.345
48.4587
52.9323
57.8067
62.8477
68.3573
73.775
79.8597
85.9618
92.994
25.0491
25.3078
26.5416
28.7829
31.1735
33.8993
36.7572
39.9
43.178
46.7193
50.4035
54.3411
58.3985
62.751
67.1139
71.8961
76.3316
81.4391
85.1029
89.5912
31.7559
32.1006
33.7362
36.2241
38.5113
41.0204
43.4969
45.9999
48.7335
51.4168
54.384
57.2852
60.4456
63.5422
66.825
70.0278
73.2972
76.5952
79.9328
83.213
36.4358
37.1961
38.5731
40.8918
43.153
45.4102
47.9082
50.3389
52.9744
55.5285
58.2505
60.9294
63.6922
66.4646
69.1779
71.9572
74.8857
77.6771
79.4069
81.8581
40.968
41.6731
43.7684
45.8083
48.3069
50.3191
52.6848
54.6054
56.8767
58.8085
61.0222
62.9731
65.1416
67.0869
69.178
71.148
72.7494
74.5107
76.3686
78.1519
45.0237
45.6795
48.2945
50.1471
52.7726
54.546
56.7779
58.5229
60.5538
62.2839
64.1736
65.8896
67.662
69.3291
71.1249
72.8059
74.4962
75.8447
77.0511
77.8749
51.2865
51.7986
54.7519
56.0547
58.4087
59.7922
61.6075
62.8911
64.4693
65.7043
67.161
68.3648
69.7499
70.9309
72.1038
73.072
74.0012
74.8668
75.8399
76.8807
57.7037
57.2407
61.1726
61.942
63.7832
64.7566
66.0915
67.0486
68.2088
69.1384
70.1706
71.0722
72.0249
72.8858
73.8428
74.6827
75.6257
76.3877
77.0392
77.4627
71.0453
69.5402
69.9967
69.9548
70.7505
71.0857
71.5891
71.9972
72.4726
72.913
73.4691
73.9327
74.5432
75.0328
75.5747
76.0003
76.4603
76.8061
77.2202
77.5785
81.9824
80.4379
78.2429
78.1397
77.0757
76.9392
76.5106
76.393
76.3243
76.3037
76.4522
76.52
76.778
76.9076
77.2285
77.4246
77.7864
78.0185
78.3952
78.5678
88.5188
87.9025
84.9908
83.6592
82.4109
81.2595
80.7101
79.9194
79.6864
79.2056
79.1403
78.9023
78.9233
78.8485
78.9264
78.9379
79.0448
79.0851
79.2049
79.249
93.9773
91.5514
90.1088
87.6884
86.673
85.1036
84.2927
83.2406
82.6526
81.9333
81.5192
81.047
80.799
80.4987
80.371