/*--------------------------------*- C++ -*----------------------------------*\
  =========                 |
  \\      /  F ield         | OpenFOAM: The Open Source CFD Toolbox
   \\    /   O peration     | Website:  https://openfoam.org
    \\  /    A nd           | Version:  9
     \\/     M anipulation  |
\*---------------------------------------------------------------------------*/
FoamFile
{
    format      ascii;
    class       volVectorField;
    location    "3.3";
    object      U;
}
// * * * * * * * * * * * * * * * * * * * * * * * * * * * * * * * * * * * * * //

dimensions      [0 1 -1 0 0 0 0];

internalField   nonuniform List<vector> 
46400
(
(7.55724 -7.40315 -1.79466e-19)
(15.8135 -15.0058 1.3085e-19)
(17.1169 -17.0093 -5.61613e-20)
(16.5733 -17.0687 -5.15599e-20)
(16.0797 -17.0669 -4.21336e-20)
(15.5352 -17.1213 6.5366e-20)
(15.0681 -17.1224 -6.23838e-20)
(14.5887 -17.1526 3.89991e-20)
(14.1674 -17.1954 -4.48321e-20)
(13.7536 -17.2195 4.99219e-20)
(13.3715 -17.2826 -5.42965e-20)
(12.9989 -17.3054 0)
(12.6608 -17.3803 3.72195e-19)
(12.3374 -17.4285 -4.26747e-19)
(12.0203 -17.4855 -5.47182e-19)
(11.7284 -17.5386 -9.56658e-20)
(11.4388 -17.6177 -2.60713e-20)
(11.1651 -17.6222 4.38749e-19)
(10.8779 -17.5863 6.04115e-19)
(10.4775 -17.7919 -5.56399e-19)
(7.87982 -7.09207 0)
(15.9825 -14.1352 -2.77553e-20)
(17.0783 -15.8226 0)
(16.4881 -15.9372 1.01188e-19)
(15.9492 -15.9549 -9.46766e-20)
(15.4079 -16.0414 2.43539e-20)
(14.9474 -16.1262 0)
(14.4344 -16.1438 -3.89959e-20)
(13.9921 -16.2168 4.48291e-20)
(13.5941 -16.2978 -4.99197e-20)
(13.184 -16.3556 5.87439e-19)
(12.8373 -16.4495 3.31654e-20)
(12.4937 -16.5387 -4.87523e-19)
(12.1655 -16.6019 0)
(11.8733 -16.7076 6.66051e-20)
(11.5829 -16.767 6.87385e-20)
(11.3124 -16.8653 0)
(11.0846 -16.9241 -6.56477e-19)
(10.8578 -16.979 -1.69275e-19)
(10.5338 -17.1836 6.67625e-19)
(8.14226 -6.65696 3.54277e-20)
(16.0198 -13.2445 -1.34775e-19)
(16.8922 -14.544 1.25099e-19)
(16.2512 -14.7177 2.08977e-19)
(15.7735 -14.8052 -2.05164e-19)
(15.2222 -14.9342 0)
(14.7552 -15.0358 -6.58622e-19)
(14.2795 -15.1387 5.67329e-19)
(13.8348 -15.2393 -7.35846e-19)
(13.4276 -15.3377 7.2811e-19)
(13.037 -15.4585 6.94172e-19)
(12.651 -15.5261 -6.80737e-20)
(12.3239 -15.6784 -6.02068e-19)
(11.996 -15.7732 0)
(11.6807 -15.8877 7.45864e-19)
(11.3984 -15.9972 -7.34555e-19)
(11.1124 -16.1191 0)
(10.8627 -16.1884 -1.47941e-20)
(10.5945 -16.257 8.56727e-20)
(10.2589 -16.5133 -7.87679e-19)
(8.34358 -6.22891 -1.61145e-19)
(15.9473 -12.2694 3.57555e-20)
(16.6339 -13.3781 2.89651e-19)
(15.9903 -13.5836 -2.86033e-19)
(15.4499 -13.6955 -2.50844e-19)
(14.9225 -13.8567 3.41338e-19)
(14.4595 -14.0324 4.67423e-19)
(13.9553 -14.1199 -1.1799e-18)
(13.5085 -14.2703 9.88397e-19)
(13.1144 -14.4073 -9.25711e-20)
(12.7141 -14.5423 0)
(12.3581 -14.6714 9.69716e-20)
(12.0082 -14.8044 -9.84973e-20)
(11.6999 -14.9431 0)
(11.4064 -15.0953 8.78197e-19)
(11.1162 -15.2054 -7.47759e-19)
(10.8586 -15.3746 0)
(10.6505 -15.5302 1.0141e-19)
(10.4162 -15.6369 1.14207e-19)
(10.0545 -15.8979 9.12097e-19)
(8.51064 -5.7984 0)
(15.7455 -11.186 0)
(16.2278 -12.1299 -4.05787e-19)
(15.5821 -12.3797 2.81743e-19)
(15.0942 -12.5685 -5.50881e-19)
(14.5496 -12.7597 4.46088e-19)
(14.0974 -12.9665 0)
(13.6396 -13.1434 4.92558e-19)
(13.1794 -13.303 -5.96147e-19)
(12.7878 -13.4762 -1.35092e-19)
(12.4092 -13.6663 -1.3557e-19)
(12.0273 -13.7927 0)
(11.7034 -13.994 1.01787e-18)
(11.3712 -14.1245 -1.00195e-18)
(11.077 -14.3109 0)
(10.7934 -14.4524 -1.12287e-18)
(10.4767 -14.5675 9.90784e-19)
(10.2512 -14.7155 9.91141e-19)
(10.0432 -14.8965 -1.08317e-18)
(9.71533 -15.1858 0)
(8.73126 -5.39031 0)
(15.3907 -10.0457 0)
(15.7589 -10.9541 0)
(15.1148 -11.231 -2.86407e-20)
(14.5739 -11.4635 0)
(14.0669 -11.7014 0)
(13.61 -11.9728 0)
(13.1388 -12.144 -1.55732e-19)
(12.6965 -12.3698 0)
(12.3048 -12.5566 1.35087e-19)
(11.9343 -12.7797 -1.97801e-20)
(11.5792 -12.9525 -1.32271e-18)
(11.2354 -13.1432 9.96289e-19)
(10.9404 -13.3366 -1.3054e-18)
(10.6472 -13.5326 9.85017e-19)
(10.4102 -13.7534 0)
(10.1437 -13.9453 -1.12048e-18)
(9.87838 -14.0651 9.58503e-19)
(9.66743 -14.2443 0)
(9.35389 -14.5738 -1.51108e-19)
(8.97926 -4.98942 5.68414e-19)
(14.907 -8.92583 1.66085e-19)
(15.1076 -9.71775 6.43352e-19)
(14.4956 -10.0581 -6.6268e-19)
(14.0089 -10.372 -6.66854e-19)
(13.4914 -10.6344 1.3267e-18)
(13.0749 -10.961 -1.51231e-18)
(12.6589 -11.2217 1.44301e-19)
(12.2035 -11.448 4.84862e-19)
(11.8291 -11.6839 0)
(11.4795 -11.9443 -1.92406e-20)
(11.1248 -12.1357 -1.83253e-20)
(10.8044 -12.3721 1.5338e-19)
(10.4782 -12.5384 1.26966e-18)
(10.175 -12.7381 -1.11595e-18)
(9.90555 -12.9208 -1.41781e-18)
(9.66279 -13.1533 1.235e-18)
(9.43229 -13.323 -1.39707e-20)
(9.20418 -13.4809 -1.5682e-19)
(8.91945 -13.826 -1.12551e-18)
(9.25528 -4.59334 -1.86216e-19)
(14.3124 -7.92123 3.11099e-20)
(14.3346 -8.61366 -2.02073e-19)
(13.7665 -8.98727 -7.95912e-19)
(13.259 -9.36113 5.51572e-19)
(12.7925 -9.66049 0)
(12.3607 -10.0202 1.14557e-18)
(11.965 -10.2917 -5.52802e-19)
(11.5571 -10.5952 3.75051e-19)
(11.166 -10.8168 1.95441e-19)
(10.8448 -11.1301 -3.70213e-19)
(10.5194 -11.3572 8.98669e-19)
(10.2073 -11.615 1.87512e-19)
(9.95379 -11.8769 -1.06271e-18)
(9.66149 -12.0986 2.97045e-18)
(9.41445 -12.3251 -1.20927e-18)
(9.16028 -12.5474 1.52609e-18)
(8.94123 -12.7476 -9.98602e-19)
(8.72274 -12.9341 3.26506e-19)
(8.43501 -13.2349 1.57437e-18)
(9.43162 -4.23798 9.42855e-19)
(13.5428 -6.88443 -1.99221e-19)
(13.4095 -7.52361 -2.75165e-20)
(12.9413 -7.93184 4.32184e-19)
(12.5062 -8.38457 2.03218e-19)
(12.05 -8.7105 2.25308e-19)
(11.6864 -9.13084 -1.05374e-18)
(11.3315 -9.46572 6.38061e-19)
(10.9326 -9.77133 -1.97726e-19)
(10.5694 -10.0398 -1.95445e-19)
(10.2463 -10.3486 -1.92972e-19)
(9.94836 -10.6178 -2.06901e-19)
(9.61793 -10.8514 -3.90848e-19)
(9.3324 -11.0771 1.35239e-18)
(9.07412 -11.3352 -1.891e-18)
(8.81856 -11.5459 -1.92334e-19)
(8.60522 -11.8167 1.3076e-20)
(8.39688 -12.0249 -1.41685e-18)
(8.21607 -12.2664 1.05704e-18)
(7.97579 -12.5902 -1.67911e-18)
(9.4558 -3.93434 8.55814e-19)
(12.6956 -5.96583 -2.19153e-18)
(12.4301 -6.62567 1.44998e-18)
(11.9964 -7.03331 -2.28913e-19)
(11.5629 -7.51384 -2.49697e-19)
(11.148 -7.86666 9.6891e-19)
(10.7576 -8.28482 -1.17407e-18)
(10.4651 -8.66317 0)
(10.1373 -9.0488 9.06021e-19)
(9.7616 -9.29738 -8.90918e-19)
(9.4661 -9.65072 -6.4825e-19)
(9.22537 -9.9785 8.45282e-19)
(8.97205 -10.3106 2.03298e-19)
(8.71333 -10.5695 -8.26472e-19)
(8.45278 -10.8325 1.99509e-19)
(8.20954 -11.0608 9.90346e-19)
(7.96169 -11.288 -1.74531e-18)
(7.7641 -11.5125 1.15163e-18)
(7.56101 -11.726 -1.11916e-20)
(7.35075 -12.0625 -1.60031e-18)
(9.21509 -3.51694 1.19945e-18)
(11.7023 -5.10984 -8.06398e-19)
(11.3948 -5.7271 5.37896e-19)
(11.0458 -6.17736 6.52309e-21)
(10.7066 -6.70049 -1.05878e-18)
(10.3193 -7.08101 -1.00724e-18)
(9.98388 -7.53078 1.25146e-18)
(9.67975 -7.91653 -7.35169e-19)
(9.41636 -8.34445 9.74939e-19)
(9.09457 -8.64825 0)
(8.72254 -8.90695 1.49844e-20)
(8.45533 -9.21078 2.22397e-19)
(8.20726 -9.53384 2.31669e-19)
(8.0003 -9.85309 -2.26719e-19)
(7.78995 -10.1656 0)
(7.58756 -10.4433 2.17003e-19)
(7.38337 -10.7179 0)
(7.1835 -10.9374 4.04446e-19)
(7.00639 -11.1791 1.97178e-18)
(6.7892 -11.4662 -1.51007e-20)
(8.76434 -3.05958 6.62014e-19)
(10.6797 -4.34771 -1.40156e-19)
(10.3185 -5.00081 -2.03025e-18)
(9.9608 -5.44589 1.13587e-18)
(9.61549 -5.98892 2.70153e-19)
(9.2689 -6.38781 -2.65798e-19)
(8.91258 -6.8322 -1.07952e-18)
(8.65768 -7.24321 8.04361e-19)
(8.4415 -7.72939 0)
(8.24733 -8.14218 0)
(7.97719 -8.51008 -1.2346e-18)
(7.6885 -8.77622 9.76953e-19)
(7.43767 -9.09868 -2.317e-19)
(7.19996 -9.36796 -7.01871e-19)
(7.00097 -9.69397 6.55115e-21)
(6.81401 -9.97993 1.56399e-18)
(6.63927 -10.2931 -8.73835e-19)
(6.47698 -10.5598 6.39773e-19)
(6.31391 -10.8295 -1.03789e-18)
(6.13928 -11.1545 0)
(8.12854 -2.57291 -5.75051e-19)
(9.54035 -3.60932 9.27874e-19)
(9.18868 -4.24227 1.5829e-19)
(8.94697 -4.74865 1.55463e-19)
(8.70322 -5.33453 0)
(8.4082 -5.77248 1.16444e-18)
(8.10083 -6.23912 -1.14408e-18)
(7.75652 -6.58175 1.43255e-19)
(7.51052 -7.01988 0)
(7.31625 -7.43339 1.06794e-18)
(7.1286 -7.86317 -9.16676e-19)
(6.9207 -8.2166 1.01997e-18)
(6.68747 -8.53977 -1.00385e-18)
(6.48135 -8.8413 9.73287e-19)
(6.26016 -9.12016 -8.36615e-19)
(6.08085 -9.40564 -9.28299e-19)
(5.89544 -9.68573 1.82107e-18)
(5.74104 -9.95555 -7.80032e-19)
(5.59185 -10.2258 1.10539e-19)
(5.42628 -10.5561 9.28944e-19)
(7.30892 -2.08927 -4.60201e-19)
(8.39813 -2.99937 4.95942e-19)
(8.01168 -3.64851 -1.58285e-19)
(7.68437 -4.12981 -1.55452e-19)
(7.44989 -4.7449 0)
(7.21132 -5.2092 0)
(6.99656 -5.75488 0)
(6.78162 -6.1875 -2.92681e-19)
(6.51449 -6.61403 -1.14271e-18)
(6.33576 -7.03219 2.23943e-18)
(6.15178 -7.46462 -1.2313e-18)
(6.00835 -7.87138 -1.35818e-19)
(5.83829 -8.26294 0)
(5.67347 -8.59732 0)
(5.50845 -8.93715 -2.47814e-19)
(5.33502 -9.20734 0)
(5.18416 -9.51322 9.40234e-19)
(5.02321 -9.74206 -1.15671e-18)
(4.89307 -10.014 -1.00519e-18)
(4.74036 -10.2803 9.75529e-19)
(6.38052 -1.61141 4.79131e-19)
(7.18657 -2.41328 8.64012e-19)
(6.8608 -3.08509 -1.95884e-22)
(6.63651 -3.61179 -1.39282e-21)
(6.47892 -4.24536 1.63776e-19)
(6.2419 -4.71413 -4.76806e-19)
(5.99346 -5.18995 0)
(5.79168 -5.63165 -4.57571e-19)
(5.57207 -6.05126 1.55148e-19)
(5.36945 -6.43699 5.82717e-19)
(5.20035 -6.84926 5.64295e-19)
(5.04052 -7.23008 -4.19314e-19)
(4.91648 -7.64761 1.0737e-18)
(4.77847 -8.01325 -9.23632e-19)
(4.663 -8.40286 1.14707e-18)
(4.53545 -8.74008 -2.12757e-18)
(4.4168 -9.08795 9.80584e-19)
(4.30111 -9.39107 1.17072e-19)
(4.18589 -9.68984 9.22048e-19)
(4.0717 -10.015 -1.00784e-18)
(5.3288 -1.18932 1.67646e-19)
(5.80813 -1.96852 -1.76012e-19)
(5.51079 -2.61181 7.05007e-19)
(5.19842 -3.10927 -6.9189e-19)
(5.09542 -3.79292 -3.36794e-19)
(5.042 -4.40382 -8.20046e-19)
(4.89873 -4.98113 4.38471e-21)
(4.76133 -5.47815 6.31051e-19)
(4.59864 -5.96243 -1.50999e-19)
(4.42911 -6.3603 0)
(4.26753 -6.77216 0)
(4.11354 -7.1181 0)
(3.97079 -7.49329 0)
(3.8473 -7.82022 3.28797e-21)
(3.72481 -8.17361 0)
(3.62166 -8.48554 1.26693e-19)
(3.51254 -8.82153 4.97663e-19)
(3.41865 -9.10959 -1.46078e-18)
(3.32137 -9.41376 1.07644e-18)
(3.22012 -9.73051 -1.02056e-18)
(4.2667 -0.87121 0)
(4.59367 -1.65721 -9.33691e-20)
(4.53789 -2.35741 0)
(4.1824 -2.79825 2.63734e-19)
(3.89919 -3.28394 -1.75759e-19)
(3.7702 -3.79099 -6.73868e-19)
(3.67392 -4.3534 4.32666e-21)
(3.59152 -4.85812 6.46234e-19)
(3.51649 -5.40432 -6.25468e-19)
(3.42028 -5.8629 1.22474e-18)
(3.33157 -6.35083 -5.56161e-21)
(3.2269 -6.75427 -5.84589e-19)
(3.13429 -7.18364 5.64038e-19)
(3.0275 -7.53931 -6.91791e-19)
(2.94061 -7.92339 0)
(2.84073 -8.24362 -5.21623e-19)
(2.7618 -8.5957 5.13841e-19)
(2.67244 -8.88527 0)
(2.6013 -9.19432 -1.20168e-19)
(2.51396 -9.50467 0)
(2.73016 -0.512501 9.56721e-20)
(2.90207 -1.31152 9.33354e-20)
(3.02538 -2.18342 0)
(3.02969 -2.82196 3.59126e-19)
(2.86129 -3.43555 -4.42985e-19)
(2.69324 -3.8817 2.56624e-19)
(2.56314 -4.42729 -7.5647e-19)
(2.43876 -4.83742 3.28899e-19)
(2.35587 -5.34909 -8.03039e-20)
(2.26785 -5.74404 0)
(2.20344 -6.21732 -7.62216e-20)
(2.1354 -6.59345 -7.42429e-20)
(2.07809 -7.02616 -7.23169e-20)
(2.02031 -7.37783 0)
(1.96133 -7.76915 -5.42968e-19)
(1.90922 -8.09385 1.13047e-18)
(1.84885 -8.45127 -9.71206e-19)
(1.80187 -8.74735 5.07708e-19)
(1.74572 -9.06146 6.18361e-20)
(1.69886 -9.37352 5.2857e-19)
(1.89972 -0.474137 -1.45417e-19)
(1.44138 -0.858365 -1.90799e-19)
(1.62773 -1.61603 5.56078e-22)
(1.58664 -2.20536 5.02242e-19)
(1.62657 -2.95706 -1.35028e-19)
(1.55551 -3.48143 -8.70567e-20)
(1.51812 -4.109 8.57988e-20)
(1.45628 -4.57577 1.66441e-19)
(1.4014 -5.11754 8.0291e-20)
(1.35005 -5.54359 -3.13285e-19)
(1.2876 -6.02628 3.4597e-19)
(1.24361 -6.41508 7.42402e-20)
(1.18842 -6.85371 3.61659e-19)
(1.15041 -7.21006 -3.05712e-21)
(1.10703 -7.61193 3.15171e-20)
(1.07081 -7.9382 -6.0429e-19)
(1.03529 -8.3104 1.65361e-19)
(0.998605 -8.6057 0)
(0.966909 -8.93393 -3.06995e-20)
(0.925362 -9.24686 -2.66766e-19)
(0.294341 -1.00896 0)
(0.534295 -0.914814 -9.43282e-20)
(0.2707 -1.96592 1.63322e-19)
(0.210406 -2.28548 -4.63391e-20)
(0.1774 -3.06724 -4.52595e-20)
(0.195784 -3.46683 0)
(0.177289 -4.14732 -8.50269e-20)
(0.182244 -4.54353 1.66407e-19)
(0.173122 -5.14425 -8.14405e-20)
(0.165418 -5.51707 7.85952e-20)
(0.169643 -6.0508 -3.89087e-20)
(0.156462 -6.39393 -7.45328e-20)
(0.160552 -6.87313 1.45929e-19)
(0.146203 -7.18702 -1.42125e-19)
(0.145393 -7.62066 3.50427e-20)
(0.131292 -7.90803 2.39459e-34)
(0.127289 -8.30449 -3.25357e-20)
(0.11371 -8.56507 1.91677e-19)
(0.109612 -8.90645 -9.46005e-20)
(0.0949993 -9.19113 -6.78171e-20)
(-0.116925 0.958023 6.45139e-21)
(-0.2757 1.21639 2.29808e-20)
(0.309902 -0.300511 0)
(1.38782 -4.26447 2.18968e-20)
(4.31747 -12.2923 2.1385e-20)
(7.00581 -19.9564 2.08659e-20)
(8.58328 -24.1316 0)
(9.15452 -25.8639 1.91397e-20)
(9.34428 -26.4148 0)
(9.4009 -26.5746 0)
(9.39211 -26.5984 -1.64534e-20)
(9.36635 -26.5597 4.53934e-22)
(9.2879 -26.4929 3.42047e-20)
(9.21457 -26.4096 0)
(9.18695 -26.4263 1.43021e-20)
(9.15139 -26.4072 1.52637e-20)
(9.07795 -26.4031 1.50735e-20)
(9.03585 -26.3548 0)
(8.9694 -26.3742 -2.82329e-20)
(8.94313 -26.3541 2.60907e-20)
(-0.260763 1.26348 0)
(0.107223 0.543057 -1.15422e-19)
(0.748919 -2.344 0)
(3.15235 -9.1336 -1.09066e-19)
(6.48057 -17.7615 4.48179e-20)
(8.43645 -23.039 -1.88428e-19)
(9.29701 -25.5254 8.05586e-20)
(9.57636 -26.2917 5.58458e-20)
(9.62937 -26.5073 -2.38389e-19)
(9.62544 -26.51 1.26312e-19)
(9.58057 -26.4791 -1.63224e-20)
(9.5079 -26.3743 1.35103e-19)
(9.42219 -26.312 -2.14793e-21)
(9.39991 -26.2978 -1.26798e-19)
(9.32691 -26.2943 -1.54696e-20)
(9.27671 -26.2365 -1.55262e-20)
(9.19705 -26.2334 -1.5074e-20)
(9.167 -26.2213 0)
(9.07843 -26.2301 -1.06636e-19)
(9.04488 -26.1661 1.44392e-21)
(-0.216181 1.1616 -4.71054e-20)
(0.439603 -0.479477 0)
(1.69704 -5.01648 0)
(5.35551 -14.3233 -4.37628e-20)
(7.8912 -21.3431 4.29623e-20)
(9.26679 -24.9941 0)
(9.70809 -26.1314 -3.87101e-20)
(9.7864 -26.4524 1.04507e-19)
(9.78213 -26.457 -9.83602e-20)
(9.74097 -26.4229 1.31103e-19)
(9.6512 -26.3132 -1.73367e-19)
(9.58921 -26.2201 0)
(9.53596 -26.2186 -1.28473e-19)
(9.49418 -26.1573 -1.21801e-19)
(9.40789 -26.121 2.17296e-19)
(9.37655 -26.0924 -2.29167e-19)
(9.30568 -26.1093 1.92222e-19)
(9.27132 -26.0492 0)
(9.15758 -26.0238 -2.35791e-19)
(9.13768 -25.9695 3.89703e-19)
(0.0851176 0.743922 6.25293e-20)
(0.692664 -2.15748 0)
(3.35164 -9.31371 0)
(7.00679 -18.3751 1.3017e-19)
(9.04841 -23.7963 -2.58992e-19)
(9.83931 -25.7713 8.17964e-20)
(10.0008 -26.3227 3.96925e-20)
(10.0341 -26.3743 3.93906e-19)
(9.99849 -26.3479 -5.40886e-19)
(9.91851 -26.2322 -6.29858e-20)
(9.84547 -26.1335 3.14158e-19)
(9.7998 -26.0975 6.56856e-20)
(9.72547 -26.0444 -3.16346e-19)
(9.67266 -25.9758 3.09927e-19)
(9.59573 -25.9814 8.86226e-20)
(9.5608 -25.9377 -5.55003e-20)
(9.45926 -25.9201 8.12532e-20)
(9.40721 -25.8297 0)
(9.29917 -25.837 -2.33298e-20)
(9.28337 -25.7775 0)
(0.408255 -0.0118263 0)
(1.24578 -4.04139 3.69525e-19)
(5.01097 -13.2764 -4.51847e-19)
(8.23093 -21.4134 4.40638e-19)
(9.75118 -25.092 -3.47931e-19)
(10.1295 -26.1683 -8.18245e-20)
(10.2409 -26.3578 0)
(10.2112 -26.3334 2.02771e-19)
(10.1472 -26.2176 -2.83745e-19)
(10.0614 -26.0892 3.49974e-19)
(10.004 -26.0213 -2.74211e-19)
(9.93168 -25.9312 -6.56845e-20)
(9.86771 -25.8889 3.09358e-19)
(9.81346 -25.8374 -5.39486e-19)
(9.72593 -25.7997 3.45076e-19)
(9.68512 -25.739 -1.13111e-19)
(9.5733 -25.7097 -2.63729e-19)
(9.5416 -25.6512 5.98134e-19)
(9.42597 -25.6455 -3.33354e-19)
(9.40437 -25.5467 -3.9376e-19)
(0.371641 -1.02151 3.89255e-19)
(2.19181 -6.2386 3.76848e-19)
(6.62598 -16.8299 -3.70678e-19)
(9.36219 -23.3557 -9.08154e-20)
(10.306 -25.7616 8.59971e-20)
(10.5629 -26.2742 3.10903e-19)
(10.5414 -26.2748 -2.9402e-19)
(10.4947 -26.1728 0)
(10.3876 -26.0006 2.86262e-19)
(10.3264 -25.9163 -2.81476e-19)
(10.244 -25.8092 -2.61049e-19)
(10.1813 -25.7607 2.56815e-19)
(10.1055 -25.7024 0)
(10.027 -25.6178 0)
(9.9445 -25.6007 4.93246e-19)
(9.88915 -25.54 -4.84235e-19)
(9.76748 -25.5096 -4.01037e-19)
(9.72259 -25.4186 3.89621e-19)
(9.57924 -25.4098 -3.57428e-19)
(9.55911 -25.2961 4.28397e-19)
(0.386196 -1.94146 -2.95716e-19)
(3.46246 -9.38285 1.01728e-19)
(7.88945 -19.425 6.50067e-21)
(10.1027 -24.7137 4.64842e-19)
(10.7323 -26.1253 0)
(10.802 -26.2564 0)
(10.7875 -26.1951 5.88059e-19)
(10.6859 -26.0061 -2.07166e-20)
(10.6184 -25.883 -5.8366e-19)
(10.5279 -25.7504 5.35425e-19)
(10.458 -25.6661 -5.26605e-19)
(10.3714 -25.5707 0)
(10.2868 -25.4909 4.60902e-19)
(10.2096 -25.4346 -4.53658e-19)
(10.1175 -25.3851 0)
(10.0422 -25.301 0)
(9.91387 -25.2483 0)
(9.87289 -25.1824 0)
(9.72378 -25.1735 0)
(9.69827 -25.0239 -4.15056e-20)
(0.667057 -2.76855 3.13679e-19)
(4.72353 -11.7731 -5.07694e-19)
(9.03042 -21.3975 0)
(10.9009 -25.3947 0)
(11.228 -26.1729 7.91122e-19)
(11.2669 -26.172 5.29402e-20)
(11.1793 -26.0117 -7.00878e-19)
(11.0677 -25.8053 0)
(10.9601 -25.6379 6.96049e-20)
(10.869 -25.5285 -6.55176e-20)
(10.7609 -25.402 0)
(10.6677 -25.326 5.82395e-20)
(10.5708 -25.254 -4.96914e-19)
(10.4632 -25.1605 9.05954e-19)
(10.3625 -25.1152 -1.50066e-20)
(10.2707 -25.0378 -3.91438e-19)
(10.1369 -25.0012 -4.42014e-20)
(10.0811 -24.9116 4.15468e-20)
(9.89775 -24.8912 0)
(9.8655 -24.7098 3.66382e-20)
(1.082 -3.67405 2.08952e-19)
(6.0705 -13.9774 1.97448e-19)
(10.1626 -22.7899 -6.21983e-19)
(11.5567 -25.8246 1.92765e-19)
(11.7077 -26.1377 8.72084e-20)
(11.637 -26.0123 7.16951e-19)
(11.4913 -25.7658 -1.02165e-18)
(11.3691 -25.5698 7.46578e-19)
(11.2606 -25.4286 -6.0725e-19)
(11.1303 -25.273 7.20618e-19)
(11.0238 -25.1687 1.1842e-19)
(10.9062 -25.0657 4.99205e-19)
(10.7874 -24.9641 -2.80082e-19)
(10.677 -24.8986 -5.4654e-19)
(10.5648 -24.8354 4.82627e-19)
(10.447 -24.7438 0)
(10.3051 -24.6799 1.26138e-19)
(10.2361 -24.6082 3.51956e-20)
(10.0449 -24.588 -7.23959e-20)
(10.005 -24.3896 3.05857e-20)
(1.8117 -4.78629 -7.19325e-20)
(7.33048 -15.4869 3.50097e-19)
(11.1873 -23.6498 7.64315e-22)
(12.2535 -25.7849 -3.85072e-19)
(12.2589 -25.8916 -3.48605e-19)
(12.1461 -25.6898 -1.63076e-19)
(11.9885 -25.4923 -4.25215e-21)
(11.8237 -25.2678 -1.44763e-19)
(11.6665 -25.0797 0)
(11.5246 -24.9534 -1.26428e-19)
(11.3742 -24.8158 -1.18404e-19)
(11.2367 -24.7208 -6.64151e-21)
(11.1005 -24.6396 3.87553e-19)
(10.9562 -24.542 -1.99406e-19)
(10.8222 -24.4799 -4.39002e-19)
(10.6856 -24.3969 3.41558e-19)
(10.5374 -24.354 2.24578e-19)
(10.4416 -24.269 -3.79105e-19)
(10.2266 -24.236 7.30455e-20)
(10.1678 -24.0178 4.42533e-19)
(2.38719 -5.45817 0)
(8.41 -16.6119 9.30772e-19)
(12.2038 -24.091 -1.20511e-18)
(12.9019 -25.6607 9.63712e-19)
(12.8074 -25.5966 8.35526e-19)
(12.5919 -25.333 -6.61803e-19)
(12.3795 -25.0855 -8.70415e-19)
(12.1804 -24.8747 3.40299e-20)
(12.0125 -24.7284 5.22037e-19)
(11.8236 -24.5645 -3.42094e-19)
(11.6637 -24.4522 8.69443e-19)
(11.4994 -24.3469 -5.19487e-19)
(11.3348 -24.2403 -9.73266e-20)
(11.1833 -24.1714 2.48187e-19)
(11.0354 -24.1048 -6.49757e-19)
(10.8729 -24.0177 3.11126e-19)
(10.7116 -23.9497 0)
(10.5921 -23.883 -5.15583e-19)
(10.3792 -23.8562 5.07977e-19)
(10.2977 -23.6453 -3.99831e-19)
(2.96532 -6.50927 2.17773e-19)
(9.58564 -17.4946 2.09766e-19)
(13.0835 -24.2006 1.0338e-18)
(13.5376 -25.2165 8.83024e-19)
(13.3278 -25.0881 -5.30138e-19)
(13.1063 -24.8364 7.44142e-19)
(12.875 -24.6497 -4.3985e-19)
(12.6382 -24.4295 4.98709e-19)
(12.4164 -24.2415 -9.47812e-19)
(12.2127 -24.1161 3.37078e-19)
(12.01 -23.9821 0)
(11.8212 -23.8872 0)
(11.6374 -23.8081 0)
(11.4503 -23.7146 -6.05351e-19)
(11.274 -23.6525 5.95989e-19)
(11.0925 -23.5739 0)
(10.9211 -23.5276 0)
(10.7659 -23.4601 -5.20831e-20)
(10.5424 -23.4211 0)
(10.4489 -23.2076 -4.36514e-19)
(3.60037 -6.977 -4.23733e-19)
(10.5036 -18.0846 -1.05233e-18)
(13.9123 -24.0387 -7.29928e-19)
(14.1307 -24.7523 -1.20562e-19)
(13.8534 -24.56 9.52672e-19)
(13.577 -24.3071 -1.95728e-19)
(13.2788 -24.0684 -4.17417e-20)
(13.0029 -23.868 -6.083e-19)
(12.7729 -23.7334 0)
(12.519 -23.5788 -2.86841e-19)
(12.3011 -23.4746 4.56691e-19)
(12.0838 -23.3782 0)
(11.8685 -23.2829 5.74197e-19)
(11.6718 -23.2214 -5.65196e-19)
(11.4804 -23.1645 4.77979e-19)
(11.2752 -23.0885 -8.56183e-19)
(11.0827 -23.0248 4.29887e-19)
(10.9096 -22.9799 5.20819e-20)
(10.6909 -22.9616 -3.77814e-20)
(10.5861 -22.7608 3.07264e-19)
(4.17967 -7.49203 -5.83521e-19)
(11.579 -18.2677 4.03968e-20)
(14.596 -23.655 5.91921e-20)
(14.7368 -24.0465 1.31171e-18)
(14.3269 -23.8602 9.9523e-20)
(14.0351 -23.6322 -6.79e-19)
(13.7226 -23.4651 -4.55029e-19)
(13.4065 -23.2706 1.50941e-19)
(13.1202 -23.1011 4.91275e-19)
(12.8535 -22.9943 -5.0257e-19)
(12.5949 -22.8772 2.41597e-19)
(12.3555 -22.7983 -5.97317e-19)
(12.1236 -22.7343 4.69457e-19)
(11.8929 -22.6557 -4.30441e-19)
(11.675 -22.6094 3.79575e-19)
(11.4538 -22.5461 2.94775e-19)
(11.2505 -22.5068 -3.4053e-19)
(11.047 -22.4616 2.46648e-19)
(10.823 -22.4474 -2.33623e-19)
(10.7108 -22.2592 -2.46714e-19)
(4.78061 -7.78281 -7.28889e-19)
(12.4185 -18.2988 -1.31594e-19)
(15.2364 -23.0958 6.67338e-19)
(15.2242 -23.3163 -5.69275e-19)
(14.7961 -23.1227 5.58742e-19)
(14.4483 -22.9233 1.25092e-19)
(14.0825 -22.7149 0)
(13.7302 -22.551 -8.4497e-20)
(13.4411 -22.445 2.22889e-19)
(13.1253 -22.3159 -7.78724e-19)
(12.8517 -22.2373 5.42402e-19)
(12.5833 -22.1628 1.1222e-19)
(12.3196 -22.0924 5.61857e-20)
(12.0802 -22.0491 0)
(11.8468 -22.0147 1.32447e-20)
(11.604 -21.9577 2.47086e-19)
(11.3785 -21.9074 -3.09284e-20)
(11.1608 -21.8925 2.09674e-20)
(10.948 -21.9135 -1.78679e-19)
(10.8237 -21.7354 3.36253e-20)
(5.32631 -7.94442 6.60968e-19)
(13.2556 -18.071 -1.12811e-18)
(15.8247 -22.3195 6.17937e-19)
(15.6975 -22.4359 4.98515e-19)
(15.1981 -22.2626 -5.3922e-20)
(14.8116 -22.0861 -3.36611e-19)
(14.435 -21.9555 7.84841e-20)
(14.0416 -21.8013 8.44828e-20)
(13.695 -21.6699 0)
(13.3717 -21.5978 0)
(13.0577 -21.5106 -3.64868e-19)
(12.7728 -21.4636 5.85475e-19)
(12.4967 -21.43 -3.04232e-19)
(12.2245 -21.3773 0)
(11.9697 -21.3624 1.43573e-20)
(11.7165 -21.3274 -1.50662e-19)
(11.4785 -21.3033 1.44506e-19)
(11.2259 -21.2785 -1.78332e-20)
(11.0109 -21.3078 -5.18107e-20)
(10.8868 -21.1649 4.17912e-20)
(5.87097 -8.01716 -5.79363e-19)
(13.954 -17.7338 7.23257e-19)
(16.2977 -21.4135 0)
(16.0322 -21.4675 0)
(15.5426 -21.3317 8.42403e-20)
(15.1128 -21.2081 -3.95088e-19)
(14.6923 -21.0548 2.20536e-20)
(14.2755 -20.9491 2.5263e-19)
(13.9335 -20.887 -3.57637e-19)
(13.5657 -20.7984 6.43671e-19)
(13.2437 -20.7597 -2.87213e-19)
(12.9309 -20.7173 5.04508e-20)
(12.6265 -20.684 1.46069e-19)
(12.3503 -20.6711 -3.34572e-20)
(12.0805 -20.6701 -7.4334e-20)
(11.8087 -20.642 1.21137e-20)
(11.5537 -20.6222 -2.88262e-21)
(11.2942 -20.6344 -5.05556e-21)
(11.0822 -20.6799 1.37005e-20)
(10.9569 -20.562 -5.48144e-20)
(6.33364 -7.98898 0)
(14.5882 -17.1993 3.17885e-19)
(16.6443 -20.4787 -3.5882e-19)
(16.3497 -20.4588 0)
(15.7925 -20.3469 -8.42264e-20)
(15.3314 -20.2481 2.19846e-19)
(14.9119 -20.173 -2.74943e-19)
(14.4543 -20.0717 0)
(14.0601 -19.997 2.05694e-19)
(13.694 -19.9725 -2.02265e-19)
(13.331 -19.9256 5.01607e-21)
(13.0111 -19.9228 -1.68613e-20)
(12.6985 -19.9301 -1.10312e-20)
(12.3895 -19.9101 -5.84137e-21)
(12.1073 -19.9413 6.86518e-20)
(11.8313 -19.9457 -1.68228e-19)
(11.5587 -19.9497 2.22494e-19)
(11.2649 -19.9435 -2.66452e-19)
(11.0431 -20.0019 1.30523e-19)
(10.9276 -19.9349 -1.59136e-20)
(6.78214 -7.8749 0)
(15.1152 -16.5584 -3.44175e-19)
(16.8951 -19.3561 1.91405e-19)
(16.5059 -19.3461 1.77754e-19)
(15.9908 -19.2779 -4.84643e-20)
(15.4871 -19.2446 -4.25472e-20)
(15.0353 -19.1592 -1.27487e-19)
(14.5739 -19.1213 0)
(14.1862 -19.1112 0)
(13.783 -19.0734 0)
(13.4224 -19.0849 -5.01566e-21)
(13.0726 -19.0779 0)
(12.7391 -19.0939 1.64297e-19)
(12.4316 -19.1174 -1.37661e-19)
(12.1292 -19.1511 2.02927e-19)
(11.8384 -19.1664 -4.28852e-19)
(11.5598 -19.2057 2.25572e-19)
(11.2666 -19.2361 3.04957e-19)
(11.0067 -19.2851 -5.47227e-19)
(10.8907 -19.1906 2.94582e-19)
(7.18694 -7.69766 0)
(15.5463 -15.825 0)
(17.0597 -18.2453 6.41819e-20)
(16.6118 -18.2587 5.02469e-20)
(16.0594 -18.2052 0)
(15.5383 -18.2028 3.44733e-20)
(15.0916 -18.1994 -3.38687e-20)
(14.5925 -18.154 0)
(14.1656 -18.1494 -1.23545e-19)
(13.7732 -18.1767 1.21485e-19)
(13.3731 -18.1736 0)
(13.0299 -18.219 2.54468e-19)
(12.689 -18.2654 1.34132e-20)
(12.3503 -18.2785 -2.83759e-19)
(12.0469 -18.3505 0)
(11.7446 -18.3793 0)
(11.4344 -18.4313 0)
(11.1307 -18.4468 3.673e-19)
(10.8294 -18.4752 -4.02229e-19)
(10.6809 -18.4343 0)
(8.43245 -26.3043 0)
(8.09513 -25.9166 0)
(7.33719 -26.0243 -2.46221e-21)
(6.94742 -26.0563 -2.41571e-21)
(6.26261 -26.1608 0)
(5.83901 -26.2544 -3.46311e-23)
(5.30909 -26.293 2.37236e-21)
(4.89077 -26.3996 0)
(4.41146 -26.4889 2.25169e-21)
(4.00635 -26.5556 0)
(3.56779 -26.6145 -2.20934e-21)
(3.21865 -26.6471 -1.10253e-21)
(2.81756 -26.6762 1.10913e-21)
(2.53078 -26.6863 2.12897e-21)
(2.16861 -26.6946 0)
(1.9509 -26.6395 -5.19974e-22)
(1.60077 -26.5607 2.04605e-21)
(1.42395 -25.1965 0)
(0.880582 -20.7341 0)
(0.280784 -11.2716 1.98828e-21)
(8.45626 -26.1235 1.18183e-20)
(8.09081 -25.7569 0)
(7.3113 -25.842 1.19527e-20)
(6.91461 -25.8798 -7.13114e-21)
(6.27532 -25.9962 0)
(5.84944 -26.1462 -1.12307e-20)
(5.27726 -26.1947 4.50377e-21)
(4.81595 -26.2848 0)
(4.33183 -26.3639 2.1195e-21)
(3.931 -26.4357 -4.39232e-21)
(3.5012 -26.5003 6.50315e-21)
(3.1577 -26.5393 -8.56397e-21)
(2.76744 -26.5805 6.3781e-21)
(2.49128 -26.6029 -2.1654e-21)
(2.14882 -26.6226 -2.09048e-21)
(1.93628 -26.5515 2.0221e-21)
(1.6118 -26.4887 -3.25341e-21)
(1.4161 -25.0891 -4.90963e-21)
(0.862233 -20.5416 -2.41481e-21)
(0.284891 -11.0937 -2.47995e-21)
(8.53325 -25.8959 -2.32963e-21)
(8.17331 -25.5722 -1.09758e-20)
(7.32886 -25.6707 -8.80966e-21)
(6.9058 -25.7329 0)
(6.23507 -25.8451 0)
(5.81313 -25.9586 1.29466e-20)
(5.29428 -26.0037 -1.16149e-22)
(4.86966 -26.1256 -7.91532e-23)
(4.39891 -26.2302 -9.83232e-23)
(3.99626 -26.3126 -8.39096e-21)
(3.56523 -26.3879 0)
(3.21877 -26.435 0)
(2.82344 -26.4816 0)
(2.54102 -26.5079 -7.9386e-21)
(2.18463 -26.5342 0)
(1.97094 -26.4842 -7.80031e-21)
(1.62259 -26.4177 6.16345e-21)
(1.43425 -25.0021 2.95735e-21)
(0.88321 -20.434 4.86259e-21)
(0.29015 -10.9597 7.56316e-21)
(8.57208 -25.6932 1.93762e-20)
(8.18345 -25.3847 -3.84208e-20)
(7.31652 -25.4771 1.44683e-22)
(6.89485 -25.541 1.70803e-20)
(6.25574 -25.6756 0)
(5.82073 -25.8509 1.61177e-20)
(5.26374 -25.9045 -4.00042e-20)
(4.797 -26.0102 2.40861e-20)
(4.32141 -26.1058 -1.58414e-20)
(3.92232 -26.1932 7.94457e-21)
(3.49934 -26.2748 -2.03058e-22)
(3.15822 -26.3286 -7.86549e-21)
(2.77314 -26.3872 7.90812e-21)
(2.50097 -26.4262 4.05815e-21)
(2.16453 -26.4633 3.90297e-21)
(1.95813 -26.3996 7.79562e-21)
(1.6319 -26.3473 -7.67227e-21)
(1.42865 -24.9014 3.76661e-21)
(0.86806 -20.2565 -1.88161e-21)
(0.296088 -10.7895 -7.55145e-21)
(8.64531 -25.4329 4.17129e-20)
(8.2508 -25.1944 9.19853e-21)
(7.33194 -25.2896 -1.65253e-20)
(6.87687 -25.3961 2.37729e-20)
(6.23815 -25.5258 0)
(5.80149 -25.662 -7.44267e-21)
(5.28834 -25.7149 7.81727e-21)
(4.85191 -25.8512 0)
(4.38875 -25.9732 3.99961e-22)
(3.98763 -26.0715 0)
(3.56266 -26.1634 -1.5222e-20)
(3.21826 -26.2252 0)
(2.82746 -26.2893 0)
(2.5487 -26.3325 -1.48593e-20)
(2.19626 -26.3777 7.52638e-21)
(1.98556 -26.3319 -7.3109e-21)
(1.6409 -26.2782 0)
(1.44237 -24.8205 1.82366e-21)
(0.886013 -20.157 -1.82957e-21)
(0.303538 -10.6561 0)
(8.71342 -25.2008 1.71595e-20)
(8.2782 -24.9788 -1.62798e-20)
(7.34021 -25.085 3.66168e-20)
(6.89209 -25.1995 -3.78446e-20)
(6.27067 -25.359 1.38263e-20)
(5.80954 -25.5529 7.46571e-21)
(5.25771 -25.6138 -1.38778e-20)
(4.78048 -25.7338 -1.39894e-20)
(4.31301 -25.8493 7.43134e-21)
(3.915 -25.9527 1.44818e-20)
(3.49738 -26.0513 -7.09393e-21)
(3.15811 -26.1202 0)
(2.77715 -26.1965 0)
(2.50829 -26.2526 4.11522e-22)
(2.17604 -26.3066 -7.25853e-21)
(1.9742 -26.2512 7.30376e-21)
(1.64862 -26.2102 0)
(1.43909 -24.728 -1.40229e-20)
(0.873224 -19.9965 -1.31345e-20)
(0.312361 -10.493 -8.85179e-22)
(8.78408 -24.9069 -4.95944e-20)
(8.32922 -24.7776 4.89096e-20)
(7.36676 -24.8854 -1.45329e-20)
(6.87836 -25.0499 0)
(6.27179 -25.2028 -1.38849e-20)
(5.79684 -25.3586 2.69996e-20)
(5.28243 -25.4239 -1.31709e-20)
(4.83536 -25.5754 1.40287e-20)
(4.38054 -25.718 0)
(3.9803 -25.8324 0)
(3.55999 -25.941 1.38414e-20)
(3.21719 -26.0176 -1.3891e-20)
(2.82961 -26.0991 0)
(2.55389 -26.1595 2.11411e-20)
(2.20328 -26.2244 -6.98294e-21)
(1.99479 -26.1834 -6.92414e-21)
(1.65593 -26.1436 5.56476e-21)
(1.44855 -24.6539 1.74429e-20)
(0.887448 -19.906 8.80729e-21)
(0.323056 -10.3602 1.71997e-21)
(8.88812 -24.6383 0)
(8.37354 -24.5403 -2.75365e-20)
(7.38038 -24.6738 2.76164e-20)
(6.9046 -24.855 0)
(6.3097 -25.0403 0)
(5.80841 -25.2449 -2.5222e-20)
(5.25388 -25.3208 2.52965e-20)
(4.76615 -25.457 0)
(4.30678 -25.5946 1.29884e-20)
(3.90906 -25.7143 -2.61413e-20)
(3.49531 -25.8299 1.31514e-20)
(3.15746 -25.9139 1.32894e-20)
(2.77945 -26.0082 -1.33317e-20)
(2.5133 -26.0814 0)
(2.18256 -26.1521 0)
(1.98359 -26.1068 -6.70318e-21)
(1.66202 -26.0785 8.07029e-21)
(1.44643 -24.5703 -5.37117e-24)
(0.875787 -19.7639 -5.02781e-21)
(0.335342 -10.2038 1.67235e-21)
(8.96737 -24.312 2.74686e-20)
(8.42187 -24.3156 -2.75823e-20)
(7.43844 -24.4589 -3.489e-20)
(6.91135 -24.698 4.72753e-20)
(6.32304 -24.8747 -4.67577e-20)
(5.79399 -25.0442 -2.62298e-22)
(5.27342 -25.1296 2.3594e-20)
(4.82007 -25.2993 0)
(4.37393 -25.4649 0)
(3.97412 -25.595 1.19893e-20)
(3.55728 -25.7205 0)
(3.21568 -25.8122 0)
(2.82998 -25.9108 0)
(2.55682 -25.9884 0)
(2.20532 -26.0732 0)
(1.99831 -26.0394 0)
(1.66747 -26.0149 -5.20367e-21)
(1.45172 -24.5033 6.49789e-21)
(0.885443 -19.6838 -1.62706e-21)
(0.348797 -10.0719 1.62364e-21)
(9.09491 -24.0042 -2.29729e-20)
(8.47346 -24.0688 -3.6509e-20)
(7.44138 -24.2418 -1.03782e-20)
(6.9312 -24.5023 -1.03084e-20)
(6.35962 -24.7118 1.02553e-20)
(5.81071 -24.9227 3.17555e-20)
(5.24984 -25.0252 1.05321e-20)
(4.75562 -25.1813 0)
(4.3028 -25.3419 -1.20277e-20)
(3.90455 -25.478 2.24504e-20)
(3.49337 -25.6104 1.15686e-20)
(3.15652 -25.7097 1.16912e-20)
(2.78027 -25.8217 0)
(2.51587 -25.9118 1.1995e-20)
(2.18342 -25.9986 1.22144e-20)
(1.98562 -25.9675 0)
(1.67159 -25.9529 0)
(1.44892 -24.4284 0)
(0.873402 -19.5612 0)
(0.362909 -9.92171 0)
(9.19245 -23.6454 9.53893e-20)