/*--------------------------------*- C++ -*----------------------------------*\
  =========                 |
  \\      /  F ield         | OpenFOAM: The Open Source CFD Toolbox
   \\    /   O peration     | Website:  https://openfoam.org
    \\  /    A nd           | Version:  9
     \\/     M anipulation  |
\*---------------------------------------------------------------------------*/
FoamFile
{
    format      ascii;
    class       volScalarField;
    location    "10.8";
    object      nut;
}
// * * * * * * * * * * * * * * * * * * * * * * * * * * * * * * * * * * * * * //

dimensions      [0 2 -1 0 0 0 0];

internalField   nonuniform List<scalar> 
46400
(
0.0215626
0.00633285
0.00182174
0.00166321
0.00162216
0.00160183
0.00149872
0.00147956
0.00141646
0.00137466
0.00132871
0.00130273
0.00124263
0.00122109
0.00121691
0.00120635
0.00113053
0.00111844
0.00153616
0.00115126
0.0210725
0.00543714
0.0014516
0.00171381
0.00158096
0.00159627
0.00150064
0.00146783
0.0014001
0.00136036
0.00130279
0.00125126
0.00121766
0.00117611
0.00113012
0.00110312
0.00101906
0.000942561
0.00125297
0.00109323
0.0205384
0.0044259
0.00138615
0.00168304
0.00158412
0.0015993
0.00149954
0.00147521
0.00141689
0.00137429
0.00132754
0.00129703
0.00123866
0.00119728
0.00118024
0.00114575
0.00104051
0.00102273
0.00137554
0.00109801
0.0198482
0.00488424
0.00148188
0.00175762
0.00157993
0.00159263
0.00150765
0.00146904
0.00140682
0.00136316
0.0013022
0.00124597
0.00121244
0.00115661
0.00111177
0.00109169
0.00101862
0.000972561
0.00132739
0.00112354
0.0191684
0.00560417
0.00152757
0.00173949
0.00159826
0.00161513
0.0015154
0.00148071
0.00142988
0.00138255
0.00134756
0.00130171
0.00125874
0.00121571
0.00118095
0.00114069
0.00104529
0.00101101
0.00134809
0.00112703
0.0185734
0.00555355
0.00159665
0.00180741
0.00160146
0.00157763
0.00151961
0.0014565
0.00141384
0.00136875
0.00132009
0.00127129
0.00123042
0.00119388
0.00115061
0.00113553
0.00106495
0.00100503
0.00134803
0.00114974
0.0174212
0.0049376
0.00160516
0.00175135
0.00162036
0.00159676
0.00151504
0.00146944
0.00140532
0.00136333
0.00133362
0.00129948
0.00126076
0.00122267
0.00120018
0.00115508
0.0010873
0.00103082
0.00133227
0.00114492
0.015805
0.00398678
0.00154858
0.00175617
0.00161399
0.00154593
0.00150317
0.00143669
0.00140534
0.00133612
0.00129839
0.00125269
0.00122766
0.00118495
0.00117199
0.00116192
0.00110908
0.00105396
0.00134786
0.00119639
0.012901
0.00302754
0.0016456
0.00163733
0.00159426
0.00153964
0.00148844
0.00142326
0.0013881
0.00133876
0.00128774
0.00124389
0.00120678
0.00116529
0.00113201
0.00112212
0.00107224
0.00101722
0.00130712
0.00117954
0.0104541
0.00253537
0.00157713
0.00162128
0.00159098
0.00149613
0.00147218
0.00139298
0.00135298
0.00132564
0.00129355
0.00125249
0.00122174
0.00117793
0.0011335
0.00111837
0.00107837
0.00100978
0.00122411
0.00114151
0.00863291
0.00220215
0.00167117
0.00154845
0.00152735
0.00148282
0.00146034
0.00140689
0.00134569
0.00128857
0.00125786
0.00121612
0.00119672
0.00116851
0.00112921
0.00108543
0.00104893
0.00100593
0.00119185
0.00109814
0.00697293
0.00193611
0.00160751
0.00150747
0.00151294
0.00143733
0.00140449
0.00137269
0.00133363
0.00127873
0.0012424
0.00120273
0.00117791
0.00116644
0.00115246
0.00112448
0.00107168
0.00101557
0.00116469
0.0011008
0.00597504
0.00178975
0.00166988
0.00158144
0.00152933
0.00147959
0.00141659
0.00133253
0.0013121
0.00125268
0.00121679
0.00115284
0.0011
0.00106427
0.00105682
0.00105126
0.00102395
0.000982631
0.00108809
0.00103548
0.00507597
0.00171772
0.00162985
0.00149252
0.00147934
0.00145544
0.0014667
0.00141241
0.00136081
0.00130427
0.00126697
0.00122595
0.00117669
0.0011064
0.00105879
0.00103339
0.00100021
0.000969516
0.00106506
0.000992683
0.00467164
0.00167604
0.00165977
0.00157104
0.00144942
0.00132042
0.00133256
0.00132041
0.00131447
0.00127361
0.00124834
0.00121458
0.00119446
0.00116457
0.00111138
0.00107367
0.00102103
0.000975083
0.00106083
0.000984789
0.00450323
0.00159674
0.00164801
0.00168423
0.0016794
0.00154295
0.00138856
0.00132067
0.00128553
0.0012433
0.00120455
0.00115631
0.00112551
0.00109358
0.00107295
0.00104271
0.00101308
0.000962405
0.00102805
0.000959817
0.00419518
0.00150162
0.00140861
0.00139816
0.00155084
0.00154793
0.0014991
0.0014313
0.00135064
0.00131391
0.00126486
0.00123088
0.00118092
0.00114139
0.00109943
0.00106521
0.00102248
0.000971012
0.00101605
0.000954741
0.00390237
0.00192523
0.00175987
0.00146855
0.00139552
0.00136586
0.00133863
0.00133384
0.00126469
0.00123173
0.00117449
0.00115476
0.00111492
0.00110071
0.0010636
0.00105556
0.00101543
0.000982459
0.0010084
0.00095918
0.00341789
0.00168981
0.00174439
0.00156855
0.00146616
0.00140309
0.00136275
0.00133217
0.00128841
0.00127967
0.00123366
0.00119971
0.00116422
0.00112026
0.00109356
0.00105694
0.00103007
0.000983275
0.00100253
0.000970463
0.00252959
0.0016212
0.00140785
0.00157104
0.0014882
0.00144168
0.00143502
0.0013573
0.00130861
0.00126854
0.00121325
0.00118486
0.00114638
0.00110788
0.00107367
0.00104167
0.00100776
0.000968562
0.000979541
0.000957998
0.0140521
0.0149504
0.0100925
0.000406869
0.000655786
0.00118052
0.00124323
0.00113586
0.00111855
0.00106485
0.00102906
0.00101807
0.00100205
0.0010094
0.00103262
0.00114469
0.00119521
0.00118548
0.00107355
0.000938907
0.0174849
0.0150598
0.00922602
0.000198459
0.000784064
0.00120294
0.0012407
0.00121396
0.00112762
0.00108653
0.00108202
0.0010295
0.00106253
0.00107842
0.00106016
0.00112328
0.00114964
0.00117862
0.0010749
0.000944008
0.0180493
0.0151856
0.00698761
0.000630006
0.000950814
0.00134004
0.00130785
0.00118017
0.00117666
0.00113321
0.00107404
0.00107461
0.00107496
0.00105439
0.00105182
0.00115623
0.00121664
0.00122245
0.00106964
0.000947423
0.0191792
0.0149839
0.00520718
0.000169937
0.00118504
0.00132741
0.00126379
0.00128236
0.00118766
0.00112698
0.00113082
0.00107238
0.00107732
0.00108907
0.00110375
0.00119306
0.00118481
0.00119849
0.00105486
0.000941442
0.0200658
0.0148482
0.00393814
0.000490786
0.0012955
0.00143745
0.00136737
0.00123907
0.00122529
0.00118613
0.00111822
0.00110932
0.00113016
0.00110678
0.00108693
0.00115756
0.0012107
0.00124353
0.00105892
0.000959226
0.0207196
0.014591
0.0026975
0.000436572
0.00136321
0.00138687
0.0013142
0.00130435
0.00123631
0.00116939
0.00116475
0.0011171
0.00109801
0.00109142
0.00111639
0.00122386
0.00122128
0.00123696
0.00102828
0.000941741
0.0214386
0.0143514
0.00197176
0.000652728
0.00142654
0.00145558
0.00140719
0.00129314
0.00125654
0.00121484
0.0011526
0.00112269
0.0011507
0.00113653
0.00111663
0.00116153
0.00119294
0.00124981
0.00103354
0.000946626
0.0219551
0.013986
0.00138002
0.000832672
0.00147023
0.00143098
0.00137835
0.00132046
0.00128008
0.00121845
0.00119231
0.00115845
0.00112687
0.00110221
0.00111641
0.00122095
0.00124155
0.00127097
0.00102381
0.000955912
0.0225518
0.0137051
0.00103506
0.00102208
0.00150485
0.00145939
0.0014279
0.00133798
0.00127764
0.00123093
0.00118217
0.00113304
0.00115094
0.00114203
0.00112889
0.00116269
0.00118207
0.00125289
0.0010027
0.000942855
0.0228529
0.0132591
0.00134618
0.00112197
0.00153639
0.00146553
0.00142887
0.00133455
0.00130926
0.00125838
0.00120988
0.0011836
0.00115287
0.00111684
0.00110862
0.00119001
0.00123551
0.00129182
0.00101133
0.000961873
0.0232174
0.0129334
0.00121448
0.00125963
0.00154662
0.00146376
0.00144939
0.00137928
0.00130139
0.00125027
0.00121459
0.00115511
0.00114879
0.00114114
0.00112734
0.00115446
0.00117049
0.00125137
0.000970888
0.000948075
0.0233589
0.0124476
0.00196199
0.00131429
0.00160176
0.00148917
0.00146401
0.00135619
0.0013276
0.00128441
0.00121862
0.00119472
0.00117112
0.00112637
0.00109376
0.00113745
0.00119829
0.00127884
0.000978367
0.000957622
0.0235198
0.0121851
0.00185641
0.001404
0.00160861
0.00146796
0.00145797
0.0014093
0.00132623
0.00127543
0.00124469
0.00118216
0.00115227
0.00114603
0.0011202
0.00113373
0.00114996
0.00124021
0.000944744
0.000961058
0.0235139
0.0118717
0.00266
0.00138511
0.00164203
0.00152906
0.00148742
0.00139063
0.00134488
0.00130771
0.00123657
0.00121023
0.00118922
0.00114318
0.00109024
0.00109099
0.00114976
0.00124006
0.000933807
0.0009613
0.0234826
0.0116205
0.00236077
0.0014954
0.00163024
0.00149442
0.00146985
0.00142957
0.00135317
0.00130208
0.00126875
0.00121251
0.00116896
0.00116241
0.00112177
0.00110841
0.0011199
0.0012068
0.000917179
0.000979945
0.0233103
0.011258
0.00218839
0.00146051
0.00164966
0.00155803
0.0015037
0.0014318
0.00136723
0.00133685
0.00126821
0.00123455
0.00121251
0.0011802
0.00111686
0.00108297
0.00111769
0.00118786
0.000883919
0.000982709
0.0230826
0.0105931
0.00207116
0.00156527
0.00164715
0.00153399
0.00148328
0.00144852
0.00137901
0.00133056
0.00129406
0.00125015
0.00119701
0.00119032
0.00115168
0.00111406
0.00111283
0.00115668
0.000863993
0.00100808
0.0228
0.00936767
0.00183135
0.00154099
0.00164031
0.00158246
0.00151508
0.00146957
0.00139521
0.00136557
0.00130436
0.00126451
0.00124148
0.00122377
0.00116491
0.00112508
0.0011322
0.00114788
0.00080027
0.000986008
0.0224207
0.00852593
0.00213593
0.00162475
0.00164921
0.00157494
0.00149447
0.00147107
0.00140864
0.00136756
0.00132984
0.00130137
0.00124442
0.00123622
0.00121219
0.00117774
0.00117482
0.00117173
0.000813737
0.000991378
0.0220327
0.00739279
0.00196422
0.00163741
0.00161811
0.00160086
0.00151272
0.00148197
0.00140887
0.00137989
0.00132857
0.00129475
0.00128155
0.00127423
0.00124316
0.00125389
0.00124817
0.00123515
0.000955276
0.00107497
0.00661812
0.00483709
0.0036209
0.00268199
0.00231849
0.00190566
0.00152469
0.00119984
0.000986076
0.000843124
0.000667445
0.000575283
0.000475866
0.000379351
0.000343334
0.000610982
0.00135224
0.00564481
0.0102615
0.0149657
0.00666613
0.0044596
0.00346281
0.00264938
0.00239226
0.00195449
0.00156696
0.00123958
0.00101105
0.000874747
0.000693377
0.000595413
0.000472538
0.000415691
0.000330983
0.00062291
0.00139648
0.00567194
0.0101796
0.0149309
0.00677367
0.0047318
0.00358448
0.00260739
0.00232303
0.00189291
0.00150541
0.00120857
0.000986626
0.000858599
0.000664302
0.000579515
0.000462887
0.000371751
0.000308621
0.000638552
0.00140015
0.00568378
0.0100794
0.0148786
0.00648749
0.00448437
0.00351316
0.00263779
0.00239534
0.00194959
0.00154106
0.00124105
0.00100904
0.000886524
0.000684232
0.000593549
0.000464475
0.000397247
0.000311838
0.000639199
0.001396
0.00567441
0.010101
0.0148847
0.0063437
0.00455493
0.00337641
0.00255723
0.00231254
0.00188827
0.00149258
0.00122183
0.000985741
0.000863037
0.000661467
0.00058501
0.000463564
0.000363193
0.000297596
0.00064054
0.00136964
0.00566815
0.0101349
0.014884
0.00671225
0.00449586
0.00347249
0.00257687
0.00239401
0.00192635
0.00151454
0.00125464
0.00100772
0.000885782
0.000673118
0.000596272
0.000464854
0.000382328
0.000297742
0.000638391
0.00136898
0.0056626
0.0101662
0.0148846
0.00691724
0.00450578
0.00349059
0.00249846
0.00234152
0.00188886
0.00147786
0.00123674
0.000983778
0.00086669
0.000657588
0.000589542
0.000464982
0.000352143
0.000249285
0.000591479
0.00133532
0.00564367
0.0101343
0.0148376
0.00703774
0.00448221
0.00343866
0.00249644
0.00237218
0.00190869
0.00150378
0.00127613
0.00101256
0.000888488
0.000672901
0.000601372
0.000465141
0.000368962
0.000242755
0.000556948
0.00127343
0.00557118
0.0101058
0.0147677
0.00699775
0.00453631
0.00349487
0.00248154
0.0023456
0.00186967
0.00146405
0.0012533
0.000989041
0.000875654
0.000665042
0.000596261
0.00045986
0.000328927
0.000231098
0.000544917
0.00122767
0.00554591
0.0101133
0.0147427
0.00702141
0.00447351
0.00344399
0.00242589
0.00235203
0.00190263
0.0014916
0.00129258
0.00101839
0.000889568
0.000679875
0.000608951
0.000438258
0.000264208
0.000211986
0.000514793
0.00116554
0.0055246
0.010146
0.0147344
0.00711716
0.00453665
0.00351617
0.00246196
0.00229521
0.00186244
0.00145808
0.00126511
0.00100508
0.000882414
0.000676946
0.000600871
0.000442788
0.000241965
0.000180058
0.000462029
0.00111979
0.00548607
0.0101702
0.0147329
0.00700085
0.00446251
0.00348243
0.00241979
0.00230458
0.0018804
0.00148057
0.00129766
0.00102651
0.00089085
0.000693035
0.000615014
0.000367454
0.000241597
0.000150861
0.000421487
0.00103957
0.0054557
0.0101965
0.0147268
0.00714807
0.00444654
0.00351241
0.00245607
0.00224963
0.00184933
0.0014528
0.00128029
0.00102338
0.00088884
0.000691905
0.000626731
0.000351957
0.000289508
0.000137514
0.000377561
0.000953144
0.00539984
0.0102218
0.0147318
0.00705523
0.00437639
0.00347786
0.00243419
0.00224653
0.0018657
0.00146767
0.00130432
0.00104193
0.00089719
0.000703751
0.000631616
0.000377553
0.000342373
0.000147513
0.00032324
0.000860511
0.0053659
0.0102564
0.0147251
0.00715142
0.00427287
0.00344867
0.00247778
0.00220927
0.00184492
0.00144786
0.00129176
0.00104085
0.000896864
0.00070135
0.000633109
0.000428955
0.000392911
0.00017402
0.000273401
0.000761093
0.00531411
0.0102793
0.0147087
0.00714744
0.00416711
0.00337296
0.00247627
0.00218943
0.00186471
0.00145769
0.00130765
0.00105634
0.000905727
0.000713114
0.000635197
0.000469593
0.000404596
0.000126386
0.000237066
0.000657427
0.00526205
0.0103008
0.0146873
0.00729999
0.00403611
0.00326043
0.00250861
0.00215773
0.00184325
0.001445
0.00129567
0.0010548
0.000908056
0.000719932
0.000638024
0.000492152
0.000414071
0.000154406
0.000183288
0.00055283
0.00520948
0.0103054
0.0146675
0.00725759
0.00389876
0.00317714
0.00253815
0.00215718
0.00187784
0.00147204
0.00132277
0.00107826
0.0009237
0.000738723
0.000655844
0.000494125
0.000427823
0.000146566
0.000160797
0.000439291
0.00522831
0.0103317
0.0147404
0.00727282
0.00385993
0.00296497
0.00253138
0.00212275
0.00184531
0.0014537
0.00130393
0.0010743
0.000927071
0.000746413
0.000655621
0.000498647
0.000431571
0.000137246
0.000123047
0.000330409
0.00521249
0.0103556
0.0148113
0.00763031
0.00380459
0.00285892
0.00253728
0.00208791
0.00181919
0.00142651
0.0012684
0.00104643
0.000896417
0.000740037
0.000643883
0.000491827
0.000434347
0.000154014
0.000152621
0.000211963
0.00499068
0.0102498
0.0146952
0.0147935
0.0383994
0.0291807
0.0278199
0.0230624
0.0204383
0.0162996
0.0140804
0.0112792
0.00955097
0.00786491
0.00682468
0.00526718
0.00491344
0.00358436
0.00171444
0.000149085
0.0483244
0.0970983
0.135264
0.0341883
0.0240429
0.0205646
0.0190348
0.0157892
0.0136818
0.0115895
0.00939908
0.00787886
0.00653336
0.00554957
0.0045265
0.00408728
0.00346026
0.00329808
0.00300815
0.0112503
0.0508972
0.0962464
0.132403
0.0177392
0.0160395
0.0151281
0.0119016
0.0104057
0.00895777
0.00826815
0.00742437
0.00660521
0.00607295
0.00537374
0.00495433
0.00452281
0.0041151
0.00406058
0.0035291
0.0081657
0.0517333
0.0936347
0.132073
0.0121025
0.00976781
0.00895456
0.00946621
0.00840052
0.00770041
0.00707216
0.00646315
0.0059153
0.00529837
0.00486281
0.00438608
0.00396313
0.00349001
0.00314565
0.0020836
0.0076972
0.0507365
0.0932362
0.127477
0.00616994
0.0082275
0.00807478
0.00671479
0.00601519
0.00539136
0.00516156
0.00494835
0.00462418
0.00444154
0.00414627
0.00396889
0.00369642
0.00345588
0.00320163
0.00212502
0.00499778
0.0469194
0.0940038
0.126318
0.00578994
0.00512892
0.0040284
0.00433248
0.00455038
0.00482443
0.0044388
0.00435406
0.00413446
0.00392858
0.00377341
0.00357219
0.00360228
0.00340606
0.00336061
0.00206402
0.00376603
0.0437887
0.0946891
0.125224
0.00170367
0.00354472
0.00421593
0.00443208
0.0038654
0.00337306
0.00336734
0.00335281
0.00332391
0.00345786
0.00333171
0.00325289
0.0030648
0.00319127
0.00319675
0.00221539
0.00265445
0.0372229
0.0957137
0.127137
0.0026576
0.00271948
0.00238566
0.00229642
0.002504
0.002818
0.00289776
0.00304718
0.00292036
0.00299859
0.00306851
0.00319036
0.00320315
0.00318111
0.00310591
0.0023074
0.00311913
0.031718
0.0958186
0.130896
0.00149974
0.00173271
0.00196504
0.00231978
0.00238342
0.00237425
0.00222143
0.00235432
0.00256109
0.00278989
0.00266668
0.00286292
0.0028024
0.00323032
0.00320323
0.00277857
0.00169668
0.0240648
0.0949672
0.138719
0.00115839
0.00130176
0.00134864
0.00146768
0.00147059
0.00176278
0.00191331
0.00204418
0.0021582
0.00241632
0.00258101
0.0028604
0.00302706
0.0031936
0.00330278
0.00323939
0.0037539
0.0173913
0.0917082
0.14774
0.000615763
0.000769978
0.000927306
0.00120573
0.00137944
0.00147456
0.0016148
0.00191244
0.00194562
0.00217651
0.00225054
0.00257271
0.00268947
0.00320705
0.0032818
0.00374157
0.00312496
0.0107421
0.079527
0.162195
0.000426723
0.000617588
0.000681453
0.000855724
0.000979226
0.00119917
0.00121979
0.00141207
0.00166141
0.00193031
0.00212787
0.00242485
0.00257802
0.00299223
0.00327758
0.00409573
0.00393101
0.00629125
0.0631321
0.176875
0.000480143
0.000608636
0.000652129
0.00076918
0.000857523
0.00104963
0.00125506
0.00143692
0.00155242
0.00169925
0.00190604
0.00211979
0.00249736
0.00269208
0.00324764
0.00340791
0.00447635
0.00535181
0.04206
0.181198
0.000408485
0.00057484
0.000652447
0.000781859
0.000824326
0.00100494
0.00107326
0.001291
0.00137625
0.0015928
0.00167997
0.001967
0.00201722
0.00242482
0.00258567
0.00310868
0.00356863
0.00726856
0.0194401
0.128484
0.000556296
0.000627157
0.000664366
0.000774066
0.00083984
0.00091118
0.00097534
0.00103559
0.00107811
0.00129502
0.00136708
0.00158743
0.00171907
0.00209014
0.00202295
0.00250891
0.00236153
0.00458332
0.0094127
0.0799011
0.000481429
0.000533089
0.000546556
0.000635451
0.000690824
0.000760431
0.000794411
0.000949905
0.00101019
0.00108233
0.00111384
0.0012651
0.00130166
0.00139262
0.00157306
0.00191814
0.00220125
0.00253648
0.00289182
0.0460836
0.000337565
0.000423315
0.000483388
0.000545164
0.000588693
0.000671818
0.000720104
0.000746783
0.000768981
0.000820477
0.000874769
0.000960549
0.00103791
0.00126967
0.00126442
0.00126471
0.0013465
0.00167275
0.00173796
0.0221176
0.000295591
0.000312122
0.000326173
0.000342069
0.00036238
0.000431157
0.000500243
0.000567515
0.000631618
0.000700913
0.00071673
0.000750478
0.000808214
0.000770786
0.000851491
0.0010432
0.00130064
0.0013138
0.00205963
0.0044173
0.000230369
0.000228893
0.00024014
0.000253261
0.000264801
0.000260931
0.000259005
0.000297226
0.000306873
0.000328458
0.000370848
0.000427706
0.000458277
0.000561299
0.00057216
0.000529149
0.000445903
0.000735765
0.000916237
0.00152814
0.000275473
0.000250429
0.000214519
0.000175825
0.000134551
0.000131323
0.000135413
0.000150787
0.000153108
0.000214718
0.000251041
0.000289167
0.000326582
0.000345236
0.000330037
0.000331135
0.000287671
0.000211914
0.00016556
0.000355177
0.0140465
0.0141269
0.014104
0.0142852
0.014287
0.014355
0.0143321
0.0143876
0.0137239
0.0133766
0.0134594
0.0125426
0.0122512
0.011387
0.0118218
0.0110709
0.0117236
0.0105058
0.0103234
0.0111702
0.00693632
0.0069352
0.00690643
0.00693521
0.00684818
0.00689774
0.00671471
0.00663348
0.0069053
0.00720347
0.00701839
0.00708699
0.00690989
0.00716941
0.00710319
0.0073307
0.00707339
0.00624342
0.00643394
0.00786837
0.00415505
0.00418176
0.00421204
0.00426891
0.00432166
0.00436776
0.00439813
0.00447886
0.00447641
0.00445309
0.00413669
0.00431084
0.00422819
0.0038963
0.0036508
0.0036857
0.00339036
0.00395878
0.00385911
0.00427028
0.00265491
0.00266329
0.00265481
0.00265831
0.0026327
0.00261082
0.00257869
0.00255988
0.00247142
0.00246019
0.00239464
0.00249051
0.00260175
0.00288506
0.00272892
0.00277429
0.00283332
0.00301351
0.0025216
0.00280547
0.00160286
0.00160649
0.00160378
0.00161155
0.00160093
0.00160353
0.00159029
0.001615
0.00167058
0.00178581
0.0018681
0.00184983
0.00165639
0.00185085
0.00162529
0.00150133
0.00132019
0.0013983
0.00150965
0.00156644
0.0011387
0.00114441
0.00114446
0.00114857
0.0011442
0.00114558
0.00113875
0.00113914
0.00112897
0.00114367
0.00110626
0.00106663
0.00100918
0.00104065
0.00128293
0.00132541
0.00108322
0.00121003
0.00112838
0.00124194
0.000668526
0.000667093
0.000663597
0.000662267
0.000659766
0.00067172
0.000658597
0.000665345
0.000654361
0.000736032
0.000763186
0.000830313
0.000822821
0.000729411
0.000615392
0.000719245
0.000811932
0.000771026
0.00068129
0.000646052
0.000463024
0.000459842
0.000459973
0.000460717
0.000467298
0.000476697
0.000483775
0.00049321
0.000497535
0.0005175
0.00049453
0.00051767
0.000442706
0.00051308
0.000567205
0.00049798
0.000491486
0.00057824
0.000459518
0.00060856
0.000231465
0.000231432
0.000233107
0.000237647
0.000246069
0.000251962
0.000253301
0.000256628
0.000259822
0.000249533
0.000268424
0.000286778
0.000332795
0.000349397
0.000290504
0.000309748
0.000277667
0.000229416
0.000241032
0.000317495
0.000126264
0.000127536
0.000129225
0.000132498
0.000135099
0.000138137
0.00013966
0.000164394
0.000148029
0.000151747
0.000157207
0.000150997
0.000150797
0.000177417
0.000154127
0.0001612
0.000182152
0.000216536
0.000212454
0.000278321
6.22596e-05
5.53657e-05
4.78658e-05
4.10526e-05
3.39244e-05
3.02369e-05
3.60472e-05
3.93954e-05
4.32679e-05
4.6189e-05
4.3784e-05
4.81186e-05
8.66709e-05
0.000109529
0.000103357
0.000120391
0.00010463
0.000140232
0.000129759
0.000128523
6.3837e-05
5.12825e-05
4.68997e-05
4.72099e-05
4.35229e-05
3.3674e-05
2.63242e-05
2.29376e-05
2.18622e-05
2.04972e-05
3.42825e-05
4.25574e-05
5.31623e-05
5.08566e-05
6.36562e-05
6.28751e-05
7.72006e-05
6.82601e-05
5.34215e-05
6.54886e-05
5.77612e-05
6.17201e-05
7.37393e-05
7.99277e-05
8.33067e-05
8.10557e-05
7.90173e-05
7.22907e-05
6.89737e-05
6.22776e-05
6.59522e-05
6.44233e-05
7.1736e-05
6.80828e-05
7.83341e-05
7.22263e-05
8.70802e-05
7.77789e-05
9.76211e-05
0.00010454
8.25083e-05
8.90295e-05
9.20303e-05
9.20327e-05
9.4404e-05
9.66248e-05
9.79147e-05
9.89392e-05
9.89274e-05
9.86819e-05
9.82358e-05
9.56224e-05
9.47864e-05
9.19536e-05
9.51473e-05
9.17155e-05
9.56719e-05
8.83806e-05
9.34957e-05
9.87945e-05
4.90785e-05
5.14187e-05
5.20474e-05
5.73345e-05
5.92505e-05
6.65516e-05
7.23247e-05
7.7245e-05
8.42738e-05
8.74986e-05
9.48507e-05
9.77109e-05
0.000105783
0.000105897
0.000115968
0.000114115
0.000126009
0.000121076
0.000134301
0.000133411
3.0952e-05
3.1557e-05
3.38586e-05
3.51626e-05
4.02703e-05
4.05215e-05
4.11469e-05
4.19433e-05
4.28789e-05
4.36109e-05
4.22547e-05
4.31879e-05
4.22355e-05
5.04346e-05
5.68312e-05
6.38974e-05
7.21717e-05
7.89585e-05
9.21478e-05
0.000107239
6.65095e-05
6.67959e-05
6.60932e-05
6.49053e-05
6.33611e-05
6.17922e-05
6.0635e-05
6.02894e-05
6.1117e-05
6.35455e-05
6.44216e-05
6.37037e-05
6.4676e-05
6.48486e-05
6.71179e-05
6.67186e-05
6.99328e-05
6.84324e-05
7.48026e-05
7.68986e-05
2.14149e-05
2.29082e-05
2.37613e-05
2.56653e-05
2.67258e-05
2.8701e-05
2.94043e-05
3.09333e-05
3.08052e-05
3.37314e-05
3.7382e-05
4.23249e-05
4.63956e-05
5.2402e-05
5.90025e-05
6.19288e-05
6.4421e-05
6.48162e-05
6.74909e-05
6.9596e-05
6.50421e-05
6.46608e-05
6.42978e-05
6.39166e-05
6.36983e-05
6.36233e-05
6.34142e-05
6.33658e-05
6.32885e-05
6.28836e-05
6.25997e-05
6.23037e-05
6.1506e-05
6.0633e-05
5.96029e-05
5.88165e-05
5.74193e-05
5.7637e-05
5.79102e-05
5.88643e-05
9.05188e-05
8.9315e-05
8.82233e-05
8.70642e-05
8.5922e-05
8.46707e-05
8.36287e-05
8.2577e-05
8.16517e-05
8.07357e-05
7.99512e-05
7.93424e-05
7.87415e-05
7.81976e-05
7.73371e-05
7.65708e-05
7.52913e-05
7.40517e-05
7.24383e-05
7.18978e-05
0.000903945
0.00101664
0.000806153
0.000879365
0.00092267
0.000950295
0.000991541
0.00103995
0.001072
0.0010869
0.00112171
0.0011586
0.00123129
0.0012611
0.00133615
0.00139242
0.00139369
0.00205318
0.00714697
0.0181525
0.000892252
0.00104681
0.000858379
0.000948835
0.00100867
0.00103551
0.00106105
0.00107548
0.00111869
0.00116572
0.00119801
0.00121672
0.00126298
0.00128157
0.00135839
0.0013649
0.00141077
0.00136031
0.00577547
0.0177467
0.00107169
0.00114076
0.000863106
0.000938993
0.000958015
0.000975651
0.000996551
0.00104051
0.00108035
0.00109183
0.00113125
0.00118304
0.00126161
0.00129829
0.00137373
0.00138779
0.00148806
0.00133056
0.00518748
0.0173197
0.0010461
0.00111213
0.00087885
0.00097299
0.000999209
0.00102475
0.00105053
0.00107629
0.00110715
0.0011648
0.00121558
0.00124993
0.00129325
0.00131293
0.00139053
0.00139014
0.00150223
0.00131333
0.00421187
0.0168605
0.00107274
0.0011218
0.000874016
0.000934014
0.000959713
0.00097933
0.001018
0.00105854
0.00111456
0.00115
0.00118308
0.00122968
0.00128936
0.0013289
0.00138451
0.00139337
0.00150132
0.00130927
0.00401212
0.0162781
0.0010123
0.00107507
0.000871794
0.000953729
0.00100799
0.00104765
0.00106011
0.00110005
0.00114616
0.0011929
0.00124324
0.0012785
0.00132096
0.00134842
0.00141795
0.00143367
0.00154142
0.00144712
0.00480349
0.0155852
0.00102951
0.00105144
0.000876405
0.000953995
0.000991779
0.00101057
0.00104177
0.00111169
0.00115216
0.00118874
0.00120567
0.00124583
0.00129375
0.0013382
0.00138906
0.0014248
0.00154224
0.00145996
0.00453672
0.0148677
0.00094385
0.00100555
0.000887191
0.000959307
0.00100665
0.00106276
0.00112706
0.00117513
0.00119532
0.00121998
0.00125431
0.0012993
0.00133952
0.00138066
0.00145093
0.00150113
0.00161286
0.00154632
0.00408181
0.0140156
0.00105509
0.00112849
0.00100517
0.0010692
0.00111154
0.00112566
0.00112561
0.0011303
0.00112421
0.0011632
0.0011873
0.00123189
0.00126893
0.00133435
0.00139143
0.00145396
0.00154094
0.00152919
0.00332752
0.0127417
0.000972818
0.00100781
0.000896929
0.000938981
0.000954879
0.000977712
0.00101862
0.00104883
0.00110726
0.00117876
0.00120202
0.00125529
0.00131645
0.00139793
0.00145854
0.00154645
0.00161207
0.00163142
0.00272618
0.0109464
0.000992411
0.00102236
0.000935071
0.000992501
0.00104338
0.00108713
0.00109947
0.00113876
0.00117072
0.00117398
0.00119385
0.00127932
0.00133517
0.00139438
0.00143353
0.00147391
0.00148182
0.00155775
0.00223962
0.00877184
0.00095833
0.000981431
0.000911107
0.000957825
0.000985912
0.000989248
0.00102829
0.00106742
0.0010963
0.00116073
0.00125239
0.00133738
0.00134674
0.00140982
0.00142465
0.00150015
0.0015517
0.00160271
0.00193181
0.00691796
0.00095134
0.000986575
0.000941196
0.000997023
0.00101153
0.00105596
0.00108774
0.00111983
0.00119046
0.00124508
0.00127905
0.00128087
0.00128679
0.00134791
0.00137679
0.00144848
0.00142511
0.00155192
0.00171542
0.00555929
0.000931862
0.000956091
0.000933834
0.000971449
0.00101392
0.00105299
0.00107234
0.00114564
0.0011709
0.00120159
0.0012318
0.00126831
0.00132611
0.00142274
0.00141929
0.00144718
0.00147759
0.00160915
0.00166078
0.00460087
0.000968015
0.00101785
0.000971814
0.00101914
0.00104629
0.00106351
0.00111247
0.00114165
0.00115492
0.00120898
0.00122296
0.00127231
0.00132235
0.00133423
0.00129467
0.00140994
0.00149455
0.0016357
0.00161545
0.00411143
0.000968041
0.000976687
0.000960125
0.0010116
0.00103745
0.00107677
0.0011028
0.00111498
0.00115704
0.0011663
0.0011888
0.00122396
0.00122936
0.00125635
0.00131705
0.00149765
0.00152886
0.00155597
0.00163654
0.00429246
0.000933941
0.000968756
0.00095204
0.000996068
0.0010192
0.00104516
0.00105912
0.00110144
0.00113134
0.00116721
0.00123279
0.00126275
0.00134576
0.0013899
0.00150372
0.00152639
0.0014391
0.00143805
0.00152347
0.00417169
0.000933766
0.00097763
0.000961909
0.00101648
0.0010431
0.00108073
0.00111352
0.00116033
0.00119112
0.00124795
0.00128395
0.00133717
0.00139606
0.0014226
0.00146329
0.00144146
0.00140015
0.00157013
0.00160132
0.00284761
0.000935201
0.000963456
0.000953959
0.00101052
0.0010381
0.00107548
0.00109964
0.00114382
0.00116825
0.00122164
0.00123402
0.00129405
0.00128775
0.00135467
0.00139576
0.00144072
0.00159129
0.00180255
0.00167192
0.00173574
0.00094088
0.00098529
0.00097139
0.00101581
0.00104812
0.00107048
0.00110575
0.0011369
0.00116298
0.00120838
0.00120713
0.00128212
0.00128139
0.0013398
0.00140262
0.00144986
0.0015952
0.00146147
0.0017104
0.00143468
0.000369239
0.000348979
0.000399644
0.000366423
0.000298675
0.000294613
0.000317958
0.000284745
0.0003589
0.000403506
0.000259337
0.000113089
0.0010548
0.00327589
0.00751406
0.011745
0.0111744
0.00591912
0.00183203
0.000135306
0.000381915
0.000273426
0.00030407
0.0003873
0.00038196
0.000331651
0.000314628
0.000301654
0.000317844
0.000343336
0.000368029
0.000220165
6.49861e-05
0.00152457
0.0046229
0.00948488
0.0124921
0.00890598
0.00323765
0.000289066
0.000384411
0.000330251
0.000320094
0.000307705
0.000336002
0.000332026
0.000355619
0.000316856
0.000335108
0.000355097
0.000349854
0.000309116
0.000126906
0.000357852
0.00237471
0.00669426
0.0116731
0.0113391
0.00594502
0.0010114
0.000401152
0.000289228
0.000323008
0.000360081
0.000385126
0.000329535
0.000316091
0.000309074
0.000324064
0.000341289
0.000405274
0.000363739
0.000260497
4.69774e-05
0.000991198
0.0045333
0.0096793
0.0124693
0.00870818
0.00131774
0.000415799
0.000313157
0.00030214
0.00029262
0.000368788
0.000389799
0.000391569
0.00031983
0.000304749
0.000322365
0.000329167
0.000390199
0.000327201
0.000164551
0.000148611
0.00219181
0.00756295
0.0125452
0.0101761
0.00298527
0.000437558
0.000309876
0.000319848
0.000302384
0.000373436
0.000356572
0.000379034
0.000392229
0.0003747
0.000366587
0.000388779
0.000388337
0.000393178
0.000304756
1.54309e-05
0.000806498
0.00559038
0.0114739
0.011623
0.0030946
0.000482073
0.000363677
0.000341701
0.0002976
0.000387088
0.000425785
0.000434344
0.0003737
0.000368773
0.000401783
0.000416185
0.000440582
0.000468857
0.000421902
0.000231095
0.000197178
0.00295901
0.0102322
0.0124354
0.0046761
0.000524205
0.000405238
0.000380924
0.000311532
0.000405195
0.000424565
0.000466398
0.000488397
0.00044631
0.000428855
0.000463312
0.000483173
0.000492774
0.000525423
0.000439145
0.000161815
0.00129402
0.00881477
0.012802
0.0077111
0.000602152
0.00049186
0.000460737
0.00035458
0.000432777
0.000483839
0.000517907
0.00049163
0.000500497
0.000533714
0.000545579
0.000576946
0.000589712
0.000619903
0.000590104
0.000253486
0.000551853
0.007242
0.0128167
0.0100623
0.000640509
0.000518646
0.000508173
0.000395276
0.000480471
0.000522748
0.000557198
0.000582394
0.000550006
0.000545679
0.000597262
0.000636901
0.000662795
0.000722965
0.000741684
0.000573804
0.000360713
0.00515314
0.0126942
0.012355
0.000688076
0.000537292
0.000560051
0.000452707
0.000506375
0.000574143
0.00062383
0.000623856
0.000636088
0.000666134
0.000680542
0.00071462
0.000745787
0.0007719
0.000817258
0.000725514
0.000464727
0.00328362
0.0122647
0.0150056
0.000720998
0.000576924
0.00060597
0.000523413
0.000582371
0.000639085
0.00065599
0.00067344
0.000669019
0.000682787
0.000736049
0.000786517
0.000820241
0.000885248
0.000905322
0.000880347
0.000383748