/*--------------------------------*- C++ -*----------------------------------*\
  =========                 |
  \\      /  F ield         | OpenFOAM: The Open Source CFD Toolbox
   \\    /   O peration     | Website:  https://openfoam.org
    \\  /    A nd           | Version:  9
     \\/     M anipulation  |
\*---------------------------------------------------------------------------*/
FoamFile
{
    format      ascii;
    class       volVectorField;
    location    "10.8";
    object      U;
}
// * * * * * * * * * * * * * * * * * * * * * * * * * * * * * * * * * * * * * //

dimensions      [0 1 -1 0 0 0 0];

internalField   nonuniform List<vector> 
46400
(
(9.54648 -9.24037 -2.92915e-19)
(18.8129 -18.1657 2.33933e-19)
(20.0231 -20.1565 -6.80388e-20)
(19.2846 -20.2708 -4.73555e-20)
(18.62 -20.2505 -5.30513e-20)
(17.9054 -20.2783 -5.32604e-20)
(17.3145 -20.3312 -4.01079e-21)
(16.7202 -20.3755 3.31161e-20)
(16.1654 -20.4275 -4.11859e-20)
(15.6268 -20.4377 4.83659e-20)
(15.143 -20.5264 -5.46986e-20)
(14.6526 -20.5244 0)
(14.1912 -20.5786 3.77931e-19)
(13.7865 -20.6197 -4.36337e-19)
(13.3413 -20.6353 -5.92883e-19)
(12.9391 -20.6375 -1.18293e-19)
(12.5264 -20.6658 -4.07094e-20)
(12.1811 -20.6165 4.91604e-19)
(11.7963 -20.6272 6.93858e-19)
(11.3224 -20.8869 -6.41736e-19)
(9.80343 -8.71366 0)
(18.9028 -16.9862 -3.62665e-20)
(19.8874 -18.6327 0)
(19.066 -18.7837 4.8335e-20)
(18.4476 -18.8329 -5.8772e-20)
(17.7597 -18.9385 1.35918e-20)
(17.1546 -19.0013 0)
(16.5563 -19.0701 -3.31171e-20)
(16.0222 -19.1727 4.11875e-20)
(15.4931 -19.2253 -4.83682e-20)
(15.0022 -19.3117 6.31338e-19)
(14.5548 -19.3959 4.67719e-20)
(14.1201 -19.4774 -5.3901e-19)
(13.6989 -19.5362 0)
(13.2999 -19.596 7.3879e-20)
(12.9239 -19.6462 7.75019e-20)
(12.5514 -19.6953 0)
(12.2193 -19.6743 -7.82795e-19)
(11.9013 -19.6882 -2.0579e-19)
(11.478 -19.9064 7.94953e-19)
(9.98081 -8.16658 1.55703e-20)
(18.8837 -15.7993 -1.29484e-19)
(19.6152 -17.0918 1.1083e-19)
(18.8803 -17.337 2.13415e-19)
(18.2513 -17.4226 -2.09512e-19)
(17.5531 -17.5309 0)
(16.9704 -17.6776 -7.26202e-19)
(16.3873 -17.7881 6.2348e-19)
(15.8415 -17.9228 -8.32981e-19)
(15.3279 -18.0315 8.25194e-19)
(14.8336 -18.1566 8.00614e-19)
(14.3704 -18.255 -7.32501e-20)
(13.909 -18.3618 -6.98709e-19)
(13.5276 -18.4877 0)
(13.1014 -18.5695 8.90036e-19)
(12.7114 -18.6366 -8.7656e-19)
(12.3478 -18.7517 0)
(12.0381 -18.794 -2.01616e-20)
(11.7019 -18.9153 1.03056e-19)
(11.2897 -19.1881 -9.72756e-19)
(10.1467 -7.59843 -1.74504e-19)
(18.7217 -14.4571 3.69115e-20)
(19.3494 -15.6784 3.22471e-19)
(18.5069 -15.884 -3.18749e-19)
(17.89 -16.043 -2.84431e-19)
(17.2244 -16.2025 3.90065e-19)
(16.6113 -16.3532 5.40069e-19)
(16.0415 -16.5018 -1.3761e-18)
(15.5149 -16.6922 1.15587e-18)
(15.006 -16.8172 -1.07402e-19)
(14.5335 -16.9991 0)
(14.103 -17.1326 1.14189e-19)
(13.687 -17.2999 -1.16784e-19)
(13.2941 -17.4246 0)
(12.9332 -17.582 1.0671e-18)
(12.5732 -17.68 -9.07114e-19)
(12.2061 -17.7895 0)
(11.8836 -17.8334 1.24214e-19)
(11.5554 -17.9317 1.40588e-19)
(11.1605 -18.2404 1.12769e-18)
(10.4318 -7.02389 0)
(18.4097 -13.0756 0)
(18.8052 -14.0821 -4.79725e-19)
(18.0852 -14.4333 3.31119e-19)
(17.4871 -14.6626 -6.52948e-19)
(16.8194 -14.8646 5.30576e-19)
(16.2352 -15.0946 0)
(15.6608 -15.2599 5.91628e-19)
(15.1334 -15.4855 -7.14732e-19)
(14.6456 -15.6724 -1.64112e-19)
(14.1611 -15.8674 -1.6523e-19)
(13.7311 -16.0626 0)
(13.2769 -16.2185 1.24601e-18)
(12.9143 -16.4281 -1.22654e-18)
(12.5299 -16.6013 0)
(12.1649 -16.7535 -1.39002e-18)
(11.8403 -16.9379 1.2277e-18)
(11.5442 -17.0596 1.23783e-18)
(11.2176 -17.1912 -1.34095e-18)
(10.8082 -17.4934 0)
(10.758 -6.58286 0)
(17.9872 -11.72 0)
(18.3113 -12.7157 0)
(17.499 -13.0092 -3.71935e-20)
(16.889 -13.3301 0)
(16.2846 -13.5642 0)
(15.6928 -13.8419 0)
(15.1559 -14.0544 -1.90219e-19)
(14.6319 -14.3042 0)
(14.1587 -14.5137 1.64119e-19)
(13.693 -14.7498 -2.59001e-20)
(13.2973 -14.9695 -1.62784e-18)
(12.8957 -15.199 1.22456e-18)
(12.5047 -15.3619 -1.61704e-18)
(12.1825 -15.62 1.21874e-18)
(11.8497 -15.7859 0)
(11.4869 -15.9671 -1.40264e-18)
(11.2025 -16.0999 1.19889e-18)
(10.9077 -16.2831 0)
(10.519 -16.6051 -1.89647e-19)
(11.1055 -6.10146 6.98443e-19)
(17.4041 -10.4549 2.06591e-19)
(17.4163 -11.2048 7.91372e-19)
(16.7541 -11.6235 -8.13692e-19)
(16.2372 -12.0427 -8.16329e-19)
(15.6439 -12.3523 1.62457e-18)
(15.0795 -12.6588 -1.85387e-18)
(14.5575 -12.9201 1.74812e-19)
(14.0536 -13.2063 5.95068e-19)
(13.5988 -13.4413 0)
(13.1401 -13.7022 -2.49187e-20)
(12.7398 -13.9389 -2.38201e-20)
(12.3468 -14.208 1.89833e-19)
(11.9779 -14.4161 1.58371e-18)
(11.628 -14.6717 -1.39332e-18)
(11.3148 -14.8939 -1.78086e-18)
(11.0275 -15.1513 1.55122e-18)
(10.7358 -15.316 -1.86142e-20)
(10.4533 -15.5141 -1.97092e-19)
(10.0844 -15.8531 -1.41935e-18)
(11.4451 -5.66393 -2.26269e-19)
(16.7132 -9.26302 3.83833e-20)
(16.6847 -9.98245 -2.48819e-19)
(15.9884 -10.3334 -9.77503e-19)
(15.3949 -10.7805 6.7659e-19)
(14.9259 -11.1418 0)
(14.3948 -11.5341 1.40915e-18)
(13.9019 -11.802 -6.79365e-19)
(13.4337 -12.1514 4.62839e-19)
(12.9993 -12.4148 2.42172e-19)
(12.5493 -12.6856 -4.59874e-19)
(12.1646 -12.9333 1.11535e-18)
(11.8055 -13.2193 2.34263e-19)
(11.4414 -13.4402 -1.33155e-18)
(11.115 -13.6955 3.7269e-18)
(10.8217 -13.9487 -1.5195e-18)
(10.4892 -14.1717 1.93088e-18)
(10.2488 -14.4082 -1.26256e-18)
(9.98836 -14.6307 4.12537e-19)
(9.64332 -15.0066 1.99399e-18)
(11.5883 -5.29534 1.14504e-18)
(15.8635 -8.10092 -2.45931e-19)
(15.5345 -8.76459 -3.36454e-20)
(14.9906 -9.1788 5.31455e-19)
(14.5283 -9.69537 2.4984e-19)
(14.0304 -10.0723 2.77647e-19)
(13.5595 -10.4943 -1.30073e-18)
(13.101 -10.8213 7.88243e-19)
(12.6319 -11.1528 -2.4443e-19)
(12.266 -11.4936 -2.42178e-19)
(11.8613 -11.8058 -2.39722e-19)
(11.4777 -12.0633 -2.58495e-19)
(11.1411 -12.3704 -4.8907e-19)
(10.8186 -12.6254 1.70168e-18)
(10.4754 -12.8722 -2.37891e-18)
(10.1962 -13.1171 -2.43459e-19)
(9.9405 -13.4071 1.74189e-20)
(9.65154 -13.5885 -1.8056e-18)
(9.4197 -13.8354 1.34684e-18)
(9.09823 -14.2103 -2.14875e-18)
(11.501 -4.84592 1.04716e-18)
(14.9181 -7.0351 -2.69337e-18)
(14.639 -7.71494 1.78192e-18)
(14.117 -8.10648 -2.81588e-19)
(13.5657 -8.61559 -3.07634e-19)
(13.1829 -9.04294 1.19555e-18)
(12.7417 -9.50046 -1.44891e-18)
(12.3435 -9.86983 0)
(11.9069 -10.2275 1.12501e-18)
(11.5141 -10.5418 -1.10624e-18)
(11.1579 -10.9074 -8.09476e-19)
(10.7993 -11.1975 1.05487e-18)
(10.4658 -11.5216 2.54789e-19)
(10.1691 -11.8112 -1.04208e-18)
(9.86941 -12.1036 2.4803e-19)
(9.56657 -12.3361 1.25317e-18)
(9.28962 -12.6163 -2.22394e-18)
(9.06742 -12.8584 1.46727e-18)
(8.8142 -13.086 -1.49949e-20)
(8.52667 -13.4351 -2.05357e-18)
(11.189 -4.30699 1.47148e-18)
(13.897 -6.06246 -9.92698e-19)
(13.4678 -6.7567 6.62998e-19)
(12.9666 -7.16698 9.42045e-21)
(12.5316 -7.69833 -1.30577e-18)
(12.1538 -8.13395 -1.24503e-18)
(11.7439 -8.61104 1.54747e-18)
(11.411 -9.02619 -9.13203e-19)
(11.018 -9.43996 1.2108e-18)
(10.6626 -9.76378 0)
(10.3114 -10.1312 1.9456e-20)
(9.98117 -10.424 2.78498e-19)
(9.67703 -10.7663 2.91785e-19)
(9.40652 -11.0638 -2.8649e-19)
(9.14311 -11.3914 0)
(8.89165 -11.6546 2.76116e-19)
(8.64317 -11.9425 0)
(8.41174 -12.1769 5.17747e-19)
(8.22772 -12.4591 2.53675e-18)
(7.98791 -12.8148 -9.32554e-21)
(10.6722 -3.7358 8.1213e-19)
(12.6971 -5.12596 -1.72155e-19)
(12.3444 -5.8306 -2.50047e-18)
(12.0438 -6.32511 1.39954e-18)
(11.5392 -6.82764 3.33409e-19)
(11.1844 -7.27572 -3.28598e-19)
(10.8174 -7.75545 -1.33971e-18)
(10.4761 -8.16112 9.98133e-19)
(10.1722 -8.62034 0)
(9.8457 -8.98004 0)
(9.55016 -9.37554 -1.54866e-18)
(9.23978 -9.6955 1.22604e-18)
(8.92135 -10.0259 -2.91797e-19)
(8.65316 -10.3323 -8.90565e-19)
(8.41047 -10.6783 4.23769e-21)
(8.17437 -10.9753 1.99363e-18)
(7.92786 -11.2816 -1.11572e-18)
(7.70163 -11.5299 8.24199e-19)
(7.46386 -11.7845 -1.3355e-18)
(7.24417 -12.134 0)
(9.94872 -3.14986 -7.07147e-19)
(11.592 -4.31211 1.14487e-18)
(11.1676 -5.01089 1.95722e-19)
(10.8376 -5.53971 1.92489e-19)
(10.4345 -6.13369 0)
(10.128 -6.59938 1.44595e-18)
(9.77421 -7.14453 -1.42064e-18)
(9.48268 -7.54117 1.78841e-19)
(9.16408 -8.00792 0)
(8.89068 -8.37859 1.33924e-18)
(8.6059 -8.79181 -1.14888e-18)
(8.34985 -9.12601 1.28685e-18)
(8.08487 -9.47944 -1.26645e-18)
(7.8087 -9.7487 1.23613e-18)
(7.56968 -10.0708 -1.06191e-18)
(7.37817 -10.3624 -1.18726e-18)
(7.19524 -10.6913 2.33325e-18)
(7.02803 -10.962 -1.00068e-18)
(6.85938 -11.2543 1.42936e-19)
(6.65548 -11.571 1.19798e-18)
(9.04835 -2.57096 -5.67287e-19)
(10.2394 -3.55326 6.13754e-19)
(9.81817 -4.27085 -1.95746e-19)
(9.60432 -4.79918 -1.92516e-19)
(9.25597 -5.39099 0)
(8.91744 -5.83343 0)
(8.68587 -6.42439 0)
(8.44435 -6.89113 -3.66075e-19)
(8.18471 -7.40215 -1.43498e-18)
(7.93985 -7.80448 2.81639e-18)
(7.70357 -8.2597 -1.55066e-18)
(7.49666 -8.63148 -1.72162e-19)
(7.27525 -9.0444 0)
(7.06825 -9.36446 0)
(6.81968 -9.6987 -3.16601e-19)
(6.59772 -9.96503 0)
(6.38083 -10.2817 1.21175e-18)
(6.19935 -10.5312 -1.49123e-18)
(6.02731 -10.8328 -1.30398e-18)
(5.86214 -11.1454 1.25509e-18)
(8.02511 -2.009 5.90811e-19)
(9.06982 -2.89269 1.07312e-18)
(8.70171 -3.62425 7.71545e-22)
(8.54156 -4.21362 -4.65983e-22)
(8.24113 -4.86335 2.06289e-19)
(7.9331 -5.27522 -5.94373e-19)
(7.57359 -5.77303 0)
(7.35811 -6.20986 -5.75801e-19)
(7.14393 -6.72483 1.93755e-19)
(6.93552 -7.14077 7.34519e-19)
(6.70776 -7.59795 7.15458e-19)
(6.49306 -7.97513 -5.31736e-19)
(6.30546 -8.4013 1.37004e-18)
(6.13467 -8.76311 -1.17777e-18)
(5.97393 -9.15987 1.47326e-18)
(5.81289 -9.47311 -2.73916e-18)
(5.65056 -9.82857 1.26456e-18)
(5.49907 -10.0966 1.51513e-19)
(5.34388 -10.4109 1.20294e-18)
(5.1923 -10.7259 -1.30031e-18)
(6.88917 -1.4925 2.05776e-19)
(7.52379 -2.29918 -2.18635e-19)
(7.12553 -2.9545 8.8114e-19)
(6.94492 -3.59127 -8.64684e-19)
(6.88816 -4.3444 -4.22367e-19)
(6.7433 -4.95605 -1.0306e-18)
(6.48805 -5.52239 3.4684e-21)
(6.25854 -5.95733 7.95689e-19)
(6.01691 -6.4582 -1.90644e-19)
(5.87109 -6.87159 0)
(5.68481 -7.33976 0)
(5.54837 -7.71023 0)
(5.3569 -8.12594 0)
(5.20441 -8.45505 5.22619e-21)
(5.04431 -8.84278 0)
(4.89409 -9.1453 1.63537e-19)
(4.75212 -9.5044 6.47637e-19)
(4.61809 -9.77997 -1.90555e-18)
(4.49004 -10.0973 1.40664e-18)
(4.35922 -10.4073 -1.33068e-18)
(5.79952 -1.07305 0)
(6.47699 -1.83541 -1.17307e-19)
(6.17238 -2.44457 0)
(5.79571 -2.93361 3.32189e-19)
(5.57174 -3.53595 -2.22016e-19)
(5.43175 -4.17833 -8.5284e-19)
(5.37043 -4.78578 3.69027e-21)
(5.21804 -5.35943 8.19861e-19)
(5.04573 -5.87035 -7.97493e-19)
(4.87735 -6.35292 1.56376e-18)
(4.71145 -6.82057 -4.81136e-21)
(4.57343 -7.25213 -7.4967e-19)
(4.44033 -7.68722 7.27999e-19)
(4.32089 -8.06892 -8.92691e-19)
(4.19137 -8.46337 0)
(4.0904 -8.80479 -6.80307e-19)
(3.95913 -9.16337 6.70157e-19)
(3.86606 -9.46489 0)
(3.745 -9.7809 -1.57685e-19)
(3.64983 -10.1005 0)
(4.51382 -0.721294 1.18725e-19)
(4.84351 -1.63875 1.17607e-19)
(4.72013 -2.4338 0)
(4.45725 -3.10768 4.54971e-19)
(4.19811 -3.60465 -5.62812e-19)
(4.05424 -4.21469 3.26846e-19)
(3.91238 -4.68487 -9.6599e-19)
(3.81915 -5.25962 4.20337e-19)
(3.73699 -5.71592 -1.03444e-19)
(3.65339 -6.21967 0)
(3.56201 -6.63286 -9.87678e-20)
(3.47463 -7.07743 -9.65082e-20)
(3.3758 -7.46046 -9.43028e-20)
(3.28636 -7.86183 0)
(3.20046 -8.22427 -7.11185e-19)
(3.11432 -8.58728 1.48361e-18)
(3.03828 -8.93473 -1.27841e-18)
(2.95997 -9.25996 6.69662e-19)
(2.88493 -9.57583 8.23225e-20)
(2.81118 -9.90769 6.97979e-19)
(3.10606 -0.405366 -1.83697e-19)
(3.22446 -1.11005 -2.43565e-19)
(3.19029 -1.90204 5.09189e-22)
(3.28335 -2.62293 6.42584e-19)
(3.15856 -3.22806 -1.73703e-19)
(3.0624 -3.81999 -1.12473e-19)
(3.02331 -4.36086 1.09466e-19)
(2.89761 -4.89832 2.14423e-19)
(2.81862 -5.39152 1.0344e-19)
(2.73556 -5.88206 -4.06908e-19)
(2.64903 -6.35148 4.48772e-19)
(2.56566 -6.791 9.64982e-20)
(2.49396 -7.22211 4.73689e-19)
(2.40474 -7.62088 -2.75836e-21)
(2.33946 -8.00794 4.30398e-20)
(2.2552 -8.3758 -7.98865e-19)
(2.1915 -8.7258 2.18974e-19)
(2.12033 -9.06538 0)
(2.05936 -9.37414 -4.05008e-20)
(1.99664 -9.71623 -3.55379e-19)
(2.13066 -0.325179 6.25053e-20)
(1.86723 -1.20228 -1.23966e-19)
(1.57996 -1.72134 2.43044e-19)
(1.70938 -2.41064 -5.94096e-20)
(1.62152 -3.05295 -5.88168e-20)
(1.60005 -3.64539 0)
(1.53925 -4.22699 -1.10714e-19)
(1.4972 -4.79325 2.16961e-19)
(1.50223 -5.29446 -1.06322e-19)
(1.42287 -5.80386 1.03188e-19)
(1.42284 -6.2564 -5.12786e-20)
(1.38396 -6.71025 -9.84586e-20)
(1.35345 -7.12556 1.93081e-19)
(1.33481 -7.53848 -1.88662e-19)
(1.29614 -7.91274 4.67586e-20)
(1.27815 -8.28948 3.2172e-34)
(1.2435 -8.63009 -4.4002e-20)
(1.22077 -8.97289 2.58022e-19)
(1.18819 -9.27733 -1.27031e-19)
(1.16065 -9.61677 -9.08336e-20)
(0.02833 -6.3191 0)
(1.58847 -20.3448 4.61072e-20)
(2.58473 -33.3494 0)
(3.03502 -38.4341 7.12203e-20)
(3.0797 -38.8845 6.57215e-20)
(3.02056 -38.5589 6.17306e-20)
(2.94272 -37.9901 0)
(2.90155 -37.5369 5.59429e-20)
(2.83665 -37.1156 0)
(2.76974 -36.6982 0)
(2.72619 -36.3466 -4.61067e-20)
(2.64665 -35.9829 3.57591e-21)
(2.60095 -35.6398 8.65823e-20)
(2.52777 -35.2936 0)
(2.46979 -34.9433 3.75141e-20)
(2.40751 -34.5346 3.55012e-20)
(2.29767 -34.064 3.36423e-20)
(2.26207 -33.5404 0)
(2.12358 -33.1324 -6.04159e-20)
(2.12572 -32.7152 5.8915e-20)
(0.204569 -7.36307 2.30613e-19)
(2.43452 -21.9914 -2.01061e-19)
(3.7977 -34.4774 0)
(4.19318 -38.5898 -3.48709e-19)
(4.22468 -38.7738 3.2847e-19)
(4.13889 -38.3754 -5.54567e-19)
(4.03641 -37.8785 2.41042e-19)
(3.94836 -37.3953 1.61311e-19)
(3.85354 -36.9178 -7.26343e-19)
(3.77891 -36.5658 4.02568e-19)
(3.67179 -36.1456 -4.69619e-20)
(3.59622 -35.7924 3.43817e-19)
(3.49524 -35.4442 -1.35671e-20)
(3.40609 -35.038 -3.1963e-19)
(3.29166 -34.672 -3.75127e-20)
(3.22076 -34.2701 -3.55028e-20)
(3.08465 -33.8449 -3.36452e-20)
(3.05055 -33.3552 0)
(2.87103 -32.9436 -2.3403e-19)
(2.88593 -32.5319 8.494e-21)
(0.780031 -8.21632 -1.52233e-19)
(3.01206 -23.4443 0)
(5.09418 -35.5011 0)
(5.35093 -38.7964 -1.36966e-19)
(5.3417 -38.6986 1.28722e-19)
(5.21943 -38.1796 0)
(5.07856 -37.5931 -1.14421e-19)
(4.97185 -37.1267 3.1811e-19)
(4.85681 -36.7246 -3.14925e-19)
(4.73326 -36.2625 3.76732e-19)
(4.63496 -35.9073 -4.5985e-19)
(4.51051 -35.5441 0)
(4.41394 -35.168 -3.15502e-19)
(4.29003 -34.8057 -2.85048e-19)
(4.1986 -34.4554 5.15822e-19)
(4.09415 -34.0692 -5.3154e-19)
(3.94839 -33.6106 4.60565e-19)
(3.8647 -33.0814 0)
(3.66973 -32.689 -5.07594e-19)
(3.65991 -32.2793 8.70501e-19)
(1.10599 -8.87947 7.56035e-19)
(4.12853 -24.4687 0)
(6.36264 -35.9518 2.89376e-19)
(6.64481 -38.5482 4.00273e-19)
(6.54434 -38.3451 -7.73423e-19)
(6.37124 -37.7991 2.37752e-19)
(6.21773 -37.3439 1.14423e-19)
(6.06458 -36.8661 1.14586e-18)
(5.89984 -36.3655 -1.59431e-18)
(5.76712 -36.0257 -1.50265e-19)
(5.6137 -35.6061 8.09381e-19)
(5.47868 -35.242 1.62636e-19)
(5.33977 -34.9047 -7.63535e-19)
(5.203 -34.5175 7.44971e-19)
(5.05345 -34.1615 2.06272e-19)
(4.92002 -33.73 -1.2795e-19)
(4.7377 -33.2748 1.83709e-19)
(4.65074 -32.7877 0)
(4.42088 -32.3924 -5.15696e-20)
(4.41573 -31.9973 0)
(1.60039 -9.64711 0)
(5.22537 -25.4667 1.1686e-18)
(7.71044 -36.3197 -1.45997e-18)
(7.88544 -38.3996 1.31345e-18)
(7.72604 -38.028 -1.0176e-18)
(7.51048 -37.476 -2.38299e-19)
(7.28292 -36.8982 0)
(7.09277 -36.4234 5.95443e-19)
(6.91087 -36.0294 -7.90822e-19)
(6.72292 -35.569 8.91699e-19)
(6.555 -35.2074 -6.96023e-19)
(6.38338 -34.8577 -1.62629e-19)
(6.22172 -34.4818 7.40149e-19)
(6.04166 -34.1067 -1.27449e-18)
(5.89414 -33.7491 7.98544e-19)
(5.73666 -33.3803 -2.62052e-19)
(5.55328 -32.95 -5.83121e-19)
(5.41552 -32.4395 1.32885e-18)
(5.16879 -32.0606 -7.52818e-19)
(5.15139 -31.6497 -8.82098e-19)
(2.06713 -10.1989 1.15774e-18)
(6.39112 -26.0796 1.1403e-18)
(8.99794 -36.2807 -1.1432e-18)
(9.13316 -37.8322 -2.55976e-19)
(8.89519 -37.4236 2.46357e-19)
(8.63962 -36.8878 8.87965e-19)
(8.39372 -36.4331 -8.72359e-19)
(8.17145 -35.984 0)
(7.9354 -35.5102 7.25685e-19)
(7.7282 -35.1669 -7.13594e-19)
(7.52652 -34.7726 -6.37369e-19)
(7.32228 -34.4114 6.27063e-19)
(7.1411 -34.0803 0)
(6.95107 -33.7232 0)
(6.77069 -33.3949 1.12162e-18)
(6.57902 -32.9756 -1.09869e-18)
(6.35304 -32.5184 -8.78434e-19)
(6.19739 -32.0349 8.65504e-19)
(5.92351 -31.6577 -7.81657e-19)
(5.90523 -31.2807 9.66574e-19)
(2.60928 -10.7237 -8.40651e-19)
(7.5731 -26.6702 3.08627e-19)
(10.2841 -36.1837 5.43386e-20)
(10.3335 -37.3934 1.29431e-18)
(10.0349 -36.9006 0)
(9.74759 -36.3832 0)
(9.43528 -35.8452 1.59139e-18)
(9.16291 -35.3884 -7.86783e-20)
(8.90942 -34.9926 -1.46022e-18)
(8.66035 -34.579 1.29764e-18)
(8.42066 -34.2221 -1.27636e-18)
(8.19977 -33.9003 0)
(7.97755 -33.5565 1.06579e-18)
(7.74483 -33.1904 -1.04904e-18)
(7.53617 -32.8442 0)
(7.32311 -32.486 0)
(7.09812 -32.0821 0)
(6.90491 -31.6074 0)
(6.61133 -31.2384 0)
(6.57877 -30.8398 -9.23938e-20)
(3.14356 -11.0788 8.0049e-19)
(8.7508 -26.8529 -1.37455e-18)
(11.5208 -35.693 0)
(11.5265 -36.5718 0)
(11.1517 -36.1049 1.96642e-18)
(10.823 -35.6117 1.1094e-19)
(10.4807 -35.1677 -1.78885e-18)
(10.1808 -34.7494 0)
(9.8811 -34.3388 1.63874e-19)
(9.59322 -33.985 -1.52737e-19)
(9.33887 -33.631 0)
(9.06698 -33.2909 1.32997e-19)
(8.83241 -32.9746 -1.1269e-18)
(8.58604 -32.6531 2.04147e-18)
(8.3668 -32.358 -4.50642e-20)
(8.12424 -31.9852 -8.65242e-19)
(7.85527 -31.5563 -9.51849e-20)
(7.63092 -31.089 8.9175e-20)
(7.31291 -30.7368 0)
(7.27224 -30.3541 7.96743e-20)
(3.72789 -11.4123 5.14373e-19)
(9.94239 -27.0834 4.39043e-19)
(12.7359 -35.2509 -1.55598e-18)
(12.6454 -35.8714 4.48561e-19)
(12.2209 -35.3563 1.95241e-19)
(11.8541 -34.8946 1.72173e-18)
(11.4661 -34.4158 -2.40014e-18)
(11.1113 -34.0081 1.73699e-18)
(10.7848 -33.6166 -1.40177e-18)
(10.475 -33.2812 1.65551e-18)
(10.1712 -32.9423 2.65683e-19)
(9.89538 -32.6562 1.11642e-18)
(9.62431 -32.3614 -6.31269e-19)
(9.34311 -32.027 -1.20415e-18)
(9.08339 -31.7188 1.06009e-18)
(8.81729 -31.38 0)
(8.55102 -31.0079 2.69989e-19)
(8.30073 -30.5735 7.41242e-20)
(7.96774 -30.2215 -1.53112e-19)
(7.91301 -29.8431 6.5441e-20)
(4.29845 -11.5912 -9.6879e-19)
(11.0692 -26.9182 1.00862e-18)
(13.8289 -34.4137 -2.8436e-20)
(13.7071 -34.857 -8.7003e-19)
(13.2157 -34.4134 -8.03162e-19)
(12.8117 -33.9671 -3.84098e-19)
(12.3863 -33.5551 -2.43762e-20)
(12.0089 -33.174 -3.30485e-19)
(11.6548 -32.8418 0)
(11.2928 -32.4914 -2.85485e-19)
(10.9822 -32.1917 -2.65669e-19)
(10.6547 -31.892 -2.00665e-20)
(10.3619 -31.6127 8.41209e-19)
(10.0625 -31.3322 -4.35809e-19)
(9.79756 -31.0781 -9.46902e-19)
(9.51338 -30.7733 7.34939e-19)
(9.20817 -30.395 4.73967e-19)
(8.91964 -29.9647 -8.02472e-19)
(8.56384 -29.6233 1.52794e-19)
(8.49801 -29.248 9.33134e-19)
(4.89514 -11.7421 -2.31165e-18)
(12.1918 -26.7761 2.35688e-18)
(14.9216 -33.6615 -2.58263e-18)
(14.7023 -33.8983 2.10315e-18)
(14.1797 -33.4343 1.8411e-18)
(13.739 -33.0476 -1.42665e-18)
(13.2877 -32.6442 -1.8752e-18)
(12.8548 -32.3013 7.18757e-20)
(12.4621 -31.9351 1.12566e-18)
(12.0933 -31.6846 -7.40756e-19)
(11.737 -31.3788 1.8747e-18)
(11.4015 -31.1269 -1.12209e-18)
(11.0923 -30.8849 -2.11206e-19)
(10.7661 -30.6021 5.29528e-19)
(10.4665 -30.3505 -1.38843e-18)
(10.1559 -30.0562 6.63523e-19)
(9.85159 -29.7358 0)
(9.55059 -29.3544 -1.08262e-18)
(9.18392 -29.0317 1.06387e-18)
(9.11231 -28.6687 -8.43512e-19)
(5.47434 -11.7651 4.34722e-19)
(13.2135 -26.3384 4.87062e-19)
(15.8633 -32.575 2.1054e-18)
(15.635 -32.7508 1.81325e-18)
(15.0326 -32.3679 -1.09847e-18)
(14.5511 -31.9825 1.53035e-18)
(14.0564 -31.6157 -9.01487e-19)
(13.6038 -31.2939 1.0418e-18)
(13.1995 -31.0338 -1.98472e-18)
(12.7754 -30.7168 7.03954e-19)
(12.4093 -30.4885 0)
(12.0407 -30.2476 0)
(11.694 -30.0207 0)
(11.3511 -29.782 -1.289e-18)
(11.0422 -29.5791 1.26909e-18)
(10.7293 -29.3486 0)
(10.3983 -29.0429 0)
(10.0576 -28.6744 -1.1211e-19)
(9.6702 -28.3525 0)
(9.5758 -27.9928 -9.39674e-19)
(6.04415 -11.7521 -8.1531e-19)
(14.2118 -25.8714 -2.02667e-18)
(16.7695 -31.5601 -1.43908e-18)
(16.4413 -31.5677 -2.61797e-19)
(15.8224 -31.1831 1.88395e-18)
(15.3084 -30.8829 -3.81914e-19)
(14.8167 -30.569 -7.29616e-20)
(14.3165 -30.293 -1.22528e-18)
(13.8702 -29.9896 0)
(13.447 -29.8039 -5.95952e-19)
(13.0479 -29.5469 9.46523e-19)
(12.6537 -29.3408 0)
(12.3119 -29.1628 1.2176e-18)
(11.9442 -28.9473 -1.19851e-18)
(11.6109 -28.76 1.02721e-18)
(11.2669 -28.5354 -1.84312e-18)
(10.9321 -28.2836 9.28886e-19)
(10.588 -27.9757 1.12121e-19)
(10.1918 -27.6829 -8.49444e-20)
(10.0947 -27.3324 6.8741e-19)
(6.58418 -11.6392 -1.0498e-18)
(15.1112 -25.1963 7.26781e-20)
(17.5125 -30.2578 1.00341e-19)
(17.1985 -30.3255 2.46265e-18)
(16.5437 -30.0126 2.11631e-19)
(15.9763 -29.7097 -1.2977e-18)
(15.4289 -29.3991 -8.96023e-19)
(14.9121 -29.1577 2.89946e-19)
(14.4598 -28.9555 9.82037e-19)
(13.9891 -28.714 -1.03192e-18)
(13.5741 -28.5529 4.9499e-19)
(13.1725 -28.3709 -1.26461e-18)
(12.7811 -28.2057 9.91369e-19)
(12.4017 -28.0145 -9.3877e-19)
(12.0527 -27.8769 8.24707e-19)
(11.7207 -27.7233 6.65829e-19)
(11.3732 -27.5111 -7.65609e-19)
(10.9996 -27.2266 5.69744e-19)
(10.5901 -26.9425 -5.4444e-19)
(10.469 -26.5987 -6.03136e-19)
(7.09529 -11.4808 -1.27937e-18)
(15.9674 -24.4563 -2.30161e-19)
(18.244 -29.0668 1.23934e-18)
(17.7812 -28.9628 -1.0403e-18)
(17.119 -28.6694 1.02156e-18)
(16.5355 -28.4618 2.38245e-19)
(16.0066 -28.239 0)
(15.4546 -28.027 -1.65572e-19)
(14.967 -27.8171 4.51279e-19)
(14.4944 -27.671 -1.59576e-18)
(14.0609 -27.4969 1.11994e-18)
(13.6198 -27.3454 2.41458e-19)
(13.2457 -27.236 1.21407e-19)
(12.845 -27.0859 0)
(12.4781 -26.9601 2.32679e-20)
(12.1143 -26.8282 6.03428e-19)
(11.7595 -26.6648 -5.52182e-20)
(11.3878 -26.4633 7.64356e-20)
(10.9689 -26.2074 -4.7018e-19)
(10.8338 -25.8634 9.92205e-20)
(7.57516 -11.2518 1.12417e-18)
(16.7004 -23.5459 -1.92329e-18)
(18.7726 -27.6182 1.07975e-18)
(18.3385 -27.6458 8.90758e-19)
(17.6667 -27.4016 -7.65327e-20)
(17.031 -27.1945 -6.14602e-19)
(16.4506 -26.9651 1.50459e-19)
(15.883 -26.8133 1.65568e-19)
(15.3872 -26.6639 0)
(14.8852 -26.5221 0)
(14.4275 -26.4084 -8.08215e-19)
(13.9947 -26.2934 1.32323e-18)
(13.5735 -26.1985 -7.04786e-19)
(13.1603 -26.0673 0)
(12.7738 -25.9825 2.41015e-20)
(12.4218 -25.9005 -4.67705e-19)
(12.0636 -25.7944 4.5422e-19)
(11.6762 -25.625 -5.25925e-20)
(11.2596 -25.4142 -2.84537e-19)
(11.1096 -25.0803 2.04296e-19)
(8.02635 -10.9606 -9.62904e-19)
(17.3599 -22.572 1.18425e-18)
(19.3052 -26.2798 0)
(18.7194 -26.1653 0)
(18.0347 -25.9731 1.52288e-19)
(17.3924 -25.8518 -7.43732e-19)
(16.8281 -25.706 2.44606e-20)
(16.24 -25.5639 4.96977e-19)
(15.723 -25.4569 -7.75107e-19)
(15.2103 -25.3472 1.43582e-18)
(14.7525 -25.2799 -6.62578e-19)
(14.2784 -25.1752 1.33218e-19)
(13.8694 -25.1325 4.66441e-19)
(13.4512 -25.0495 -2.67139e-20)
(13.0469 -24.9845 -2.69439e-19)
(12.6701 -24.9281 4.44808e-20)
(12.2987 -24.8609 -2.23255e-19)
(11.9238 -24.7851 1.83143e-19)
(11.5045 -24.6176 2.11056e-20)
(11.3342 -24.2879 9.18432e-20)
(8.46161 -10.6216 0)
(17.8751 -21.5453 5.03787e-19)
(19.6016 -24.7337 -5.91778e-19)
(19.0298 -24.7655 0)
(18.3629 -24.6015 -1.52288e-19)
(17.6833 -24.5135 4.31167e-19)
(17.0882 -24.3875 -5.39735e-19)
(16.4852 -24.3116 0)
(15.9533 -24.2244 5.23982e-19)
(15.4318 -24.1743 -5.15252e-19)
(14.9405 -24.1065 3.34666e-20)
(14.4831 -24.072 -5.27078e-20)
(14.0456 -24.0456 -4.34447e-20)
(13.6021 -23.9789 -3.5036e-20)
(13.183 -23.9334 -1.22132e-19)
(12.804 -23.9159 1.38712e-19)
(12.4311 -23.8983 -4.69552e-20)
(12.0432 -23.8592 -3.39438e-20)
(11.646 -23.7769 3.89145e-20)
(11.4794 -23.4787 -1.84897e-21)
(8.85479 -10.1944 0)
(18.2986 -20.4447 -5.32725e-19)
(19.9178 -23.2789 3.09681e-19)
(19.2314 -23.2496 3.27233e-19)
(18.5454 -23.1444 -6.31111e-20)
(17.8552 -23.0986 -5.6681e-20)
(17.2654 -23.0379 -2.81467e-19)
(16.6602 -22.9806 0)
(16.1183 -22.96 0)
(15.5805 -22.9048 0)
(15.1023 -22.9298 -3.34651e-20)
(14.6044 -22.8671 0)
(14.1623 -22.8974 2.12803e-20)
(13.7423 -22.8937 -9.5347e-21)
(13.2965 -22.8746 1.10468e-19)
(12.897 -22.8547 -2.62013e-19)
(12.4977 -22.8748 1.50925e-19)
(12.1236 -22.9084 2.6005e-19)
(11.7274 -22.9115 -4.70887e-19)
(11.536 -22.6008 2.62004e-19)
(9.23306 -9.75162 0)
(18.6121 -19.3236 0)
(19.9871 -21.7019 1.11536e-19)
(19.2646 -21.7762 9.28594e-20)
(18.6198 -21.7084 0)
(17.9229 -21.7401 1.40477e-19)
(17.3262 -21.7178 -1.38018e-19)
(16.7085 -21.7065 0)
(16.16 -21.6945 1.42778e-20)
(15.6278 -21.7031 -1.40399e-20)
(15.1228 -21.7014 0)
(14.6506 -21.7195 1.78331e-19)
(14.1957 -21.7367 4.33062e-20)
(13.7395 -21.7423 -2.26775e-19)
(13.3002 -21.7462 0)
(12.8796 -21.7487 0)
(12.4507 -21.7685 0)
(12.0471 -21.7761 3.91326e-19)
(11.65 -21.7957 -4.23525e-19)
(11.4165 -21.6268 0)
(1.50541 -31.6058 0)
(1.49915 -29.5239 0)
(0.808941 -28.7266 -2.79846e-21)
(0.788243 -27.6596 -2.04489e-21)
(0.595244 -27.1841 0)
(0.4563 -26.3459 2.00042e-22)
(0.39991 -25.8673 6.09111e-22)
(0.273168 -25.3933 0)
(0.282666 -25.0781 -3.2858e-22)
(0.19308 -24.7449 0)
(0.155611 -24.527 8.13049e-22)
(0.175983 -24.2708 5.38583e-22)
(0.127206 -24.1227 -5.41458e-22)
(0.218609 -23.8605 -1.32483e-21)
(0.136684 -23.7844 0)
(0.267394 -23.5595 3.92038e-22)
(0.176053 -23.1159 -2.01081e-21)
(0.22744 -20.7064 0)
(0.101406 -15.3676 0)
(0.150722 -6.33311 -1.74919e-21)
(2.05423 -31.3917 2.45752e-20)
(1.93621 -29.5271 0)
(1.22633 -28.7629 1.22578e-20)
(1.12999 -27.7392 -7.46074e-21)
(0.885037 -27.2319 0)
(0.66527 -26.3812 -3.38674e-21)
(0.577151 -25.894 1.10115e-21)
(0.403031 -25.417 0)
(0.392025 -25.1004 -6.38959e-22)
(0.280639 -24.7536 9.72667e-22)
(0.228988 -24.537 -2.66882e-21)
(0.233817 -24.2783 4.06357e-21)
(0.166028 -24.1352 -3.45751e-21)
(0.248698 -23.877 1.20432e-21)
(0.159645 -23.791 1.38247e-21)
(0.292807 -23.57 -1.5791e-21)
(0.193956 -23.1137 3.20358e-21)
(0.267298 -20.698 4.24792e-21)
(0.127973 -15.3543 1.82979e-21)
(0.144247 -6.29633 2.18498e-21)
(2.7577 -31.2179 -1.29345e-20)
(2.42289 -29.2963 -2.00705e-20)
(1.54928 -28.5287 -1.01884e-20)
(1.37387 -27.5652 0)
(1.08963 -27.0777 0)
(0.812804 -26.2727 3.44651e-21)
(0.712776 -25.8076 -1.61535e-21)
(0.515566 -25.3524 -1.31026e-21)
(0.483855 -25.0484 -1.11987e-21)
(0.358538 -24.7083 2.08919e-21)
(0.29395 -24.5145 0)
(0.286602 -24.2628 0)
(0.203464 -24.1252 0)
(0.277928 -23.8672 5.44307e-21)
(0.18401 -23.7934 0)
(0.318022 -23.5751 6.2695e-21)
(0.213456 -23.1156 -6.53485e-21)
(0.30512 -20.7038 -2.5304e-21)
(0.139579 -15.3501 -3.44402e-21)
(0.147081 -6.26548 -7.04279e-21)
(3.32937 -30.9361 3.30462e-20)
(2.90091 -29.2077 -6.18741e-20)
(1.98416 -28.5195 2.74301e-21)
(1.71322 -27.622 1.72185e-20)
(1.36124 -27.1048 0)
(1.01793 -26.2889 3.41084e-21)
(0.882278 -25.8229 -4.43963e-21)
(0.643348 -25.3638 -8.55687e-22)
(0.588984 -25.0618 2.93296e-21)
(0.446805 -24.7105 -3.15061e-21)
(0.365082 -24.5174 -4.41022e-22)
(0.342505 -24.2614 4.58788e-21)
(0.242237 -24.1307 -4.60682e-21)
(0.305765 -23.8803 -2.62751e-21)
(0.202967 -23.7993 -2.82867e-21)
(0.348482 -23.587 -6.26574e-21)
(0.23169 -23.1214 8.20077e-21)
(0.346445 -20.7062 -3.40642e-21)
(0.158398 -15.3418 1.36451e-21)
(0.142658 -6.23075 7.03122e-21)
(3.95869 -30.6908 8.72312e-20)
(3.34352 -28.9612 1.40435e-20)
(2.29179 -28.264 -1.67793e-20)
(1.95983 -27.4147 2.28584e-20)
(1.55838 -26.9314 0)
(1.1649 -26.1726 -2.13345e-21)
(1.01456 -25.731 7.34961e-22)
(0.756208 -25.2925 0)
(0.681184 -25.0063 1.73996e-22)
(0.526693 -24.6619 0)
(0.433033 -24.4902 7.35057e-21)
(0.395446 -24.242 0)
(0.282266 -24.1157 0)
(0.334011 -23.8686 1.12899e-20)
(0.229358 -23.8022 -5.72445e-21)
(0.373397 -23.5941 6.38779e-21)
(0.2454 -23.1305 0)
(0.379387 -20.7216 -1.73725e-21)
(0.176569 -15.3366 1.54889e-21)
(0.148753 -6.2015 0)
(4.55554 -30.3359 3.27497e-20)
(3.78235 -28.7914 -2.52044e-20)
(2.68626 -28.2098 3.83553e-20)
(2.27517 -27.4467 -3.71551e-20)
(1.80454 -26.9345 7.20694e-21)
(1.366 -26.169 2.1401e-21)
(1.17996 -25.734 -4.8147e-22)
(0.884996 -25.2925 2.20579e-21)
(0.781957 -25.0113 -1.972e-21)
(0.61119 -24.6583 -6.88448e-21)
(0.50169 -24.4859 3.16803e-21)
(0.449453 -24.2321 0)
(0.322475 -24.1142 0)
(0.364681 -23.8771 1.19896e-23)
(0.250585 -23.8081 5.79705e-21)
(0.403862 -23.6066 -6.38159e-21)
(0.257585 -23.143 0)
(0.412162 -20.7395 1.38897e-20)
(0.189227 -15.3318 1.1779e-20)
(0.14964 -6.16616 8.83553e-22)
(5.13361 -30.0061 -8.93062e-20)
(4.22847 -28.5145 8.18436e-20)
(3.00449 -27.9383 -1.71828e-20)
(2.51712 -27.2129 0)
(2.0012 -26.7487 -7.23756e-21)
(1.51066 -26.0513 3.58723e-21)
(1.30513 -25.6378 -3.11721e-21)
(0.997669 -25.2144 -2.21201e-21)
(0.874388 -24.9509 0)
(0.691355 -24.607 0)
(0.567876 -24.454 -8.64613e-21)
(0.501158 -24.2093 8.67711e-21)
(0.364886 -24.0953 0)
(0.394196 -23.8636 -1.71996e-20)
(0.276587 -23.8109 5.87211e-21)
(0.430542 -23.6125 6.41001e-21)
(0.271286 -23.159 -6.52544e-21)
(0.441665 -20.7642 -1.72064e-20)
(0.19346 -15.3298 -8.30176e-21)
(0.160608 -6.13769 -1.76971e-21)
(5.69983 -29.597 0)
(4.61515 -28.2715 -3.82811e-20)
(3.35366 -27.8304 3.84057e-20)
(2.79565 -27.2133 0)
(2.23495 -26.726 0)
(1.71342 -26.0253 -2.37974e-21)
(1.46794 -25.6288 2.38706e-21)
(1.12714 -25.205 0)
(0.969773 -24.9472 -5.87852e-21)
(0.772049 -24.5969 1.34314e-20)
(0.634032 -24.4425 -7.55809e-21)
(0.55275 -24.1923 -1.01036e-20)
(0.405804 -24.0878 1.0109e-20)
(0.427356 -23.8666 0)
(0.296326 -23.8159 0)
(0.456526 -23.614 4.78756e-21)
(0.283924 -23.1754 -9.79289e-21)
(0.469077 -20.7855 -7.25433e-23)
(0.189838 -15.3307 5.10077e-21)
(0.169417 -6.10503 -1.76159e-21)
(6.2549 -29.1754 4.87887e-20)
(5.04681 -27.9606 -4.88414e-20)
(3.67577 -27.5422 -3.73685e-20)
(3.02995 -26.9624 3.92579e-20)
(2.42207 -26.5393 -2.25543e-20)
(1.85355 -25.908 6.1717e-21)
(1.59005 -25.5272 1.16456e-21)
(1.24127 -25.1195 0)
(1.06395 -24.8809 0)
(0.853054 -24.5439 -7.4272e-21)
(0.699238 -24.4061 0)
(0.603697 -24.1667 0)
(0.450123 -24.0664 0)
(0.4591 -23.852 0)
(0.32408 -23.8153 0)
(0.46619 -23.6259 0)
(0.294794 -23.1909 4.49315e-21)
(0.485935 -20.8188 -5.25983e-21)
(0.179741 -15.3363 1.67215e-21)
(0.189123 -6.08 -1.74764e-21)
(6.74387 -28.7176 -5.47413e-20)
(5.4097 -27.6467 -6.33211e-20)
(3.98605 -27.3804 -8.13848e-21)
(3.28652 -26.9247 3.37857e-23)
(2.65495 -26.4892 1.16103e-20)
(2.0521 -25.8617 6.71276e-21)
(1.74594 -25.5084 -1.75347e-21)
(1.36854 -25.1021 0)
(1.15321 -24.868 7.4054e-21)
(0.930828 -24.5266 -1.37851e-20)
(0.76316 -24.3873 -9.05852e-21)
(0.653322 -24.1435 -1.04029e-20)
(0.48871 -24.0542 0)
(0.489417 -23.8466 -1.16759e-20)
(0.353203 -23.8143 -1.23678e-20)
(0.485062 -23.6305 0)
(0.29442 -23.2152 0)
(0.502891 -20.8526 0)