/*--------------------------------*- C++ -*----------------------------------*\
  =========                 |
  \\      /  F ield         | OpenFOAM: The Open Source CFD Toolbox
   \\    /   O peration     | Website:  https://openfoam.org
    \\  /    A nd           | Version:  9
     \\/     M anipulation  |
\*---------------------------------------------------------------------------*/
FoamFile
{
    format      ascii;
    class       volScalarField;
    location    "10.6";
    object      p;
}
// * * * * * * * * * * * * * * * * * * * * * * * * * * * * * * * * * * * * * //

dimensions      [0 2 -2 0 0 0 0];

internalField   nonuniform List<scalar> 
46400
(
127.201
132.599
140.439
147.71
153.741
159.46
164.379
168.896
172.874
176.48
179.712
182.617
185.261
187.676
189.899
191.996
193.928
195.939
198.27
198.449
150.662
154.619
161.686
168.383
173.94
179.089
183.517
187.492
190.987
194.096
196.861
199.306
201.475
203.403
205.128
206.666
207.991
209.26
210.565
209.959
172.326
175.987
182.843
188.974
193.908
198.407
202.177
205.515
208.377
210.869
213.046
214.922
216.565
217.985
219.22
220.283
221.157
222.007
222.717
221.716
194.127
198.318
204.431
209.832
214.079
217.9
221.054
223.772
226.075
228.003
229.644
230.994
232.104
233.006
233.739
234.294
234.67
234.99
235.261
233.867
215.972
220.721
225.673
230.09
233.469
236.449
238.892
240.907
242.585
243.918
245.016
245.861
246.514
246.968
247.282
247.461
247.505
247.499
247.594
246.08
238.373
243.212
246.775
250.155
252.715
254.867
256.603
257.95
259.014
259.766
260.302
260.624
260.774
260.753
260.599
260.319
259.913
259.489
259.191
257.499
259.482
263.424
266.055
268.344
270.177
271.562
272.669
273.397
273.913
274.149
274.211
274.073
273.803
273.395
272.907
272.317
271.606
270.875
270.228
268.379
279.482
282.339
284.382
285.872
287.004
287.724
288.184
288.337
288.287
288.014
287.58
286.965
286.207
285.325
284.362
283.325
282.201
281.078
280.038
277.977
296.37
298.595
300.136
301.048
301.698
301.895
301.888
301.566
301.08
300.369
299.555
298.598
297.567
296.401
295.179
293.866
292.48
291.081
289.751
287.536
312.677
314.387
315.418
315.809
315.92
315.613
315.093
314.292
313.325
312.137
310.822
309.38
307.861
306.265
304.62
302.925
301.18
299.438
297.765
295.364
325.756
326.969
327.687
327.711
327.549
326.951
326.16
325.067
323.847
322.459
320.958
319.327
317.594
315.765
313.871
311.928
309.923
307.932
306.02
303.4
338.676
339.413
339.708
339.303
338.683
337.665
336.422
334.888
333.192
331.352
329.428
327.413
325.341
323.21
321.045
318.852
316.624
314.419
312.318
309.627
348.66
348.607
348.685
348.006
347.144
345.911
344.549
342.97
341.209
339.273
337.19
335.017
332.754
330.435
328.058
325.66
323.214
320.801
318.505
315.638
357.965
357.849
357.305
356.371
355.01
353.347
351.488
349.478
347.33
345.075
342.721
340.305
337.838
335.332
332.8
330.251
327.677
325.129
322.703
319.821
362.694
362.666
362.325
361.278
360.16
358.588
356.814
354.769
352.574
350.215
347.756
345.195
342.579
339.908
337.212
334.495
331.754
329.027
326.415
323.373
369.147
368.483
367.474
366.17
364.473
362.602
360.457
358.178
355.711
353.173
350.517
347.816
345.055
342.272
339.465
336.657
333.827
331.017
328.323
325.271
370.259
369.952
369.166
368.023
366.474
364.592
362.515
360.19
357.759
355.141
352.473
349.682
346.864
343.988
341.108
338.215
335.322
332.454
329.763
326.632
371.622
370.197
369.737
368.091
366.491
364.398
362.205
359.751
357.245
354.578
351.88
349.086
346.283
343.427
340.584
337.721
334.868
332.039
329.421
326.272
368.297
368.122
367.181
365.981
364.381
362.547
360.467
358.2
355.753
353.184
350.513
347.751
344.952
342.079
339.213
336.308
333.413
330.529
327.826
324.66
364.238
363.978
363.19
361.798
360.322
358.433
356.446
354.175
351.84
349.308
346.741
344.053
341.341
338.563
335.786
332.981
330.174
327.378
324.734
321.677
-39.5264
-38.2002
-38.9654
-37.4516
-35.8973
-33.5372
-29.9871
-26.657
-23.4097
-20.0112
-16.7605
-13.62
-10.6578
-7.67583
-4.82842
-2.05183
0.660047
3.20017
5.72696
8.31115
-39.3326
-39.934
-38.716
-38.1196
-34.108
-31.0272
-27.6476
-24.158
-20.4803
-16.9566
-13.5594
-10.2276
-7.01816
-3.88647
-0.862218
2.14381
5.00398
7.84783
10.5722
13.2673
-40.2976
-40.3509
-37.1276
-36.0872
-33.1083
-29.2276
-25.5583
-21.5592
-17.7002
-13.9496
-10.34
-6.78348
-3.41078
-0.0558407
3.12068
6.24757
9.26345
12.1343
14.9081
17.7472
-40.8449
-40.4384
-39.6528
-36.2097
-32.1813
-27.7925
-23.321
-19.1043
-14.9142
-10.8506
-6.93428
-3.1426
0.490659
4.06491
7.41082
10.7394
13.8375
16.888
19.7703
22.5979
-43.2719
-42.3622
-40.9363
-36.4171
-31.6038
-26.7338
-21.5795
-16.7825
-12.1035
-7.64799
-3.36941
0.741878
4.64002
8.4571
12.0007
15.5206
18.7564
21.9323
24.8834
27.7861
-48.0015
-46.8675
-43.7727
-38.046
-31.5316
-25.4016
-19.6948
-14.1746
-8.99212
-4.06289
0.611201
5.05209
9.27203
13.3251
17.1102
20.8446
24.218
27.6115
30.6445
33.6703
-52.6862
-51.2241
-44.9793
-38.1284
-30.4946
-23.4835
-16.9609
-10.8915
-5.12471
0.2282
5.29611
10.0645
14.5591
18.862
22.8659
26.7809
30.3085
33.925
37.0464
40.2779
-53.4079
-51.8167
-43.9115
-35.9833
-27.6694
-20.1002
-12.9788
-6.44209
-0.309222
5.4234
10.7788
15.8139
20.5544
25.0341
29.2324
33.2792
36.9665
40.6859
43.887
47.2757
-50.5913
-49.7904
-41.2519
-32.2922
-23.5018
-15.3772
-7.8205
-0.868084
5.6482
11.6681
17.3032
22.5477
27.4513
32.0774
36.3757
40.4918
44.1981
47.9632
51.0953
54.5581
-48.2333
-46.4445
-37.7526
-27.4211
-17.9639
-9.30917
-1.32214
5.99
12.79
19.0661
24.8779
30.2884
35.3288
40.0326
44.4242
48.562
52.3328
56.0967
59.1905
62.6167
-43.4576
-40.7889
-30.6609
-20.1704
-10.1562
-1.21659
7.0416
14.5223
21.4864
27.8724
33.778
39.242
44.2976
49.0195
53.393
57.4922
61.2162
64.8967
67.905
71.3402
-34.818
-31.751
-21.3407
-10.4429
-0.473624
8.55684
16.9228
24.4889
31.4984
37.9416
43.8574
49.333
54.389
59.0679
63.4133
67.4403
71.1423
74.745
77.6812
81.0954
-25.037
-21.1638
-9.9671
0.96033
11.2281
20.1466
28.5702
36.1041
43.0656
49.4446
55.2819
60.6589
65.5877
70.155
74.3637
78.2434
81.7929
85.2195
87.9807
91.3574
-11.6723
-7.31013
3.7911
14.3931
24.6074
33.4411
41.6822
49.1357
55.9387
62.1936
67.8821
73.1187
77.9125
82.3119
86.3655
90.0613
93.4874
96.7091
99.3014
102.59
3.06766
7.74108
19.3522
29.7929
39.7953
48.4115
56.4127
63.6231
70.1945
76.2096
81.6682
86.6662
91.2096
95.3853
99.2004
102.652
105.845
108.788
111.148
114.37
20.1582
25.3584
37.2535
46.8726
56.535
64.7928
72.4111
79.3432
85.5867
91.3293
96.5059
101.246
105.549
109.463
113.026
116.227
119.225
121.845
123.994
127.113
38.6888
43.9801
56.2022
65.3558
74.4179
82.3861
89.5353
96.0931
101.972
107.351
112.2
116.602
120.579
124.205
127.465
130.376
133.081
135.312
137.16
140.186
59.2636
64.8582
76.4106
85.0884
93.4246
100.896
107.566
113.682
119.145
124.148
128.635
132.712
136.382
139.687
142.643
145.272
147.678
149.517
151.015
153.646
80.9409
86.3963
97.0914
105.463
113.09
120.108
126.222
131.876
136.891
141.472
145.586
149.293
152.641
155.671
158.364
160.782
162.96
164.588
165.993
168.782
103.671
109.259
118.686
126.507
133.341
139.74
145.321
150.444
155.019
159.196
162.97
166.412
169.547
172.427
175.096
177.617
179.93
182.008
184.578
187.492
20.2668
31.9974
51.2947
58.586
70.382
75.9861
83.3787
87.5258
92.1044
95.3406
98.3368
100.992
102.922
105.236
106.233
108.255
109.098
110.178
109.96
110.395
25.3356
36.703
54.7833
61.8149
73.0356
78.3949
85.3907
89.2706
93.5358
96.6068
99.4362
101.961
103.726
105.957
106.76
108.782
109.369
110.504
110.134
110.579
30.5258
41.1102
58.5122
65.1377
75.7495
80.6862
87.2613
90.9632
94.9965
97.9072
100.54
102.944
104.583
106.721
107.366
109.427
109.724
110.895
110.348
110.809
35.7846
45.567
62.2799
68.4401
78.423
83.2058
89.3407
92.7404
96.4532
99.2083
101.65
103.93
105.401
107.466
107.947
109.977
109.995
111.277
110.493
110.991
41.0404
50.1328
66.0165
71.8085
81.2206
85.5819
91.2834
94.5081
97.9639
100.542
102.771
104.932
106.272
108.259
108.524
110.6
110.304
111.742
110.709
111.217
47.3413
54.6881
70.5974
75.2679
83.9671
88.1123
93.369
96.3191
99.4626
101.872
103.891
105.923
107.113
109.01
109.079
111.173
110.545
112.187
110.865
111.401
54.4298
59.6861
74.8857
78.6875
86.8009
90.5749
95.4437
98.1679
101.007
103.234
105.026
106.933
108.008
109.804
109.695
111.794
110.882
112.659
111.114
111.63
61.0003
64.376
79.3867
82.33
89.6353
93.1858
97.5742
100.02
102.551
104.592
106.153
107.924
108.874
110.555
110.298
112.368
111.183
113.091
111.311
111.83
67.6948
69.5961
83.5031
85.8574
92.5077
95.6611
99.7337
101.955
104.125
105.976
107.293
108.941
109.789
111.351
110.966
112.985
111.563
113.587
111.555
112.069
74.6618
74.7943
87.6166
89.6327
95.4679
98.3294
101.929
103.867
105.721
107.363
108.419
109.93
110.675
112.109
111.623
113.556
111.923
114.052
111.795
112.294
82.1132
80.3938
91.9018
93.2518
98.4206
100.861
104.142
105.885
107.334
108.765
109.554
110.947
111.604
112.909
112.354
114.164
112.343
114.582
112.083
112.552
89.8911
86.0285
96.2193
97.1348
101.522
103.583
106.515
107.874
108.98
110.183
110.668
111.926
112.498
113.674
113.071
114.731
112.737
115.06
112.384
112.794
98.3435
91.991
100.624
100.823
104.574
106.149
108.758
109.949
110.646
111.606
111.791
112.932
113.43
114.483
113.861
115.335
113.192
115.512
112.672
113.065
107.151
98.0332
105.153
104.785
107.776
108.931
111.243
112.042
112.351
113.062
112.893
113.894
114.325
115.266
114.653
115.922
113.623
115.977
112.953
113.327
116.659
104.262
109.664
108.511
110.917
111.436
113.592
114.18
114.084
114.501
113.982
114.868
115.239
116.066
115.512
116.506
114.108
116.495
113.188
113.626
126.723
110.833
114.488
112.516
114.108
114.202
116.24
116.364
115.844
115.973
115.027
115.78
116.099
116.839
116.372
116.964
114.587
116.925
113.287
113.878
137.364
117.565
119.249
116.541
117.424
117.166
118.85
118.69
117.724
117.589
116.245
116.805
117.036
117.853
117.383
117.947
115.124
117.368
113.198
114.129
147.112
123.106
123.942
120.243
120.575
119.505
121.282
120.984
119.551
119.083
117.223
117.661
117.856
118.514
118.361
118.719
115.678
118.295
113.21
114.768
161.234
130.304
130.833
123.214
123.389
121.397
124.168
122.947
121.209
120.143
117.804
118.179
118.337
118.887
119.064
118.708
116.176
118.575
112.972
114.642
179.191
143.656
139.898
129.924
128.074
125.59
127.602
126.045
123.747
122.542
119.98
120.392
120.166
120.885
120.513
120.23
116.685
118.778
111.897
115.57
201.488
195.256
170.151
170.185
157.643
156.066
146.826
147.925
143.177
144.68
142.951
143.089
139.259
139.055
134.35
136.766
128.846
134.355
116.309
139.923
221.473
210.148
192.875
185.067
173.565
168.341
160.94
158.117
153.309
151.751
147.855
146.798
143.256
142.486
139.37
139.229
135.962
136.887
134.424
136.707
215.056
205.355
195.872
189.074
181.87
176.762
171.261
167.562
163.405
160.905
158.131
156.24
153.783
152.14
149.948
149.175
146.924
146.63
145.022
145.962
208.353
202.202
196.853
190.44
185.088
179.844
175.315
171.426
167.913
164.867
161.723
159.332
156.892
154.966
153.076
151.513
150.25
149.245
148.544
148.423
197.88
193.068
189.834
185.637
182.529
178.903
175.936
172.843
170.174
167.611
165.31
163.035
161.052
159.095
157.334
155.692
154.122
152.696
151.779
151.59
191.085
188.479
187.266
184.317
182.046
179.116
176.621
173.98
171.575
169.182
166.942
164.854
162.779
160.858
159.115
157.244
155.921
154.333
153.354
153.286
184.379
182.619
181.724
179.691
178.264
176.307
174.736
172.919
171.189
169.452
167.678
165.982
164.219
162.519
160.792
159.019
157.35
155.521
154.543
153.981
180.791
179.994
179.894
178.696
177.736
176.468
175.036
173.596
172.097
170.57
168.961
167.411
165.697
164.085
162.294
160.473
158.642
156.396
155.229
153.865
177.275
176.824
176.574
175.744
175.04
174.372
173.453
172.665
171.528
170.59
169.274
168.165
166.631
165.302
163.569
161.836
159.811
157.545
155.764
154.774
175.937
176.027
176.132
175.952
175.603
175.056
174.287
173.643
172.822
172.134
171.063
170.302
168.958
168.108
166.356
165.374
162.956
161.868
159.237
158.951
174.488
174.646
174.626
174.55
174.341
174.323
174.165
173.964
173.466
173.108
172.419
171.948
171.022
170.385
169.167
168.317
166.42
165.493
162.335
162.449
174.12
174.538
174.773
175.145
175.293
175.381
175.281
175.313
175.06
175.123
174.744
174.781
174.266
174.279
173.492
173.544
172.063
172.718
169.78
171.998
174.287
174.766
175.115
175.494
175.769
176.117
176.267
176.548
176.663
176.873
177.038
177.266
177.531
177.817
178.23
178.593
179.211
179.671
181.355
183.361
174.497
175.01
175.415
175.908
176.26
176.8
177.151
177.724
178.071
178.729
179.102
179.883
180.388
181.291
182.154
183.175
184.874
185.633
189.247
190.181
175.082
175.657
176.163
176.739
177.237
177.847
178.343
179.026
179.546
180.365
180.943
182.01
182.662
184.144
185.06
186.999
188.154
191.048
193.641
195.896
175.425
176.022
176.577
177.212
177.782
178.481
179.086
179.881
180.538
181.476
182.214
183.345
184.222
185.632
186.57
188.456
189.753
192.051
193
203.61
175.988
176.598
177.197
177.855
178.48
179.211
179.867
180.695
181.396
182.362
183.121
184.277
185.118
186.517
187.471
189.211
190.236
192.439
193.458
196.692
176.253
176.865
177.487
178.155
178.818
179.556
180.269
181.094
181.863
182.801
183.63
184.712
185.601
186.871
187.804
189.324
190.29
192.109
193.09
195.588
176.557
177.166
177.807
178.482
179.169
179.909
180.633
181.44
182.21
183.095
183.899
184.874
185.716
186.765
187.632
188.731
189.575
190.686
191.638
192.556
176.67
177.29
177.925
178.591
179.268
179.989
180.724
181.512
182.297
183.149
183.985
184.89
185.748
186.692
187.526
188.467
189.194
190.055
190.257
194.833
284.817
286.936
288.403
289.328
289.56
289.202
288.092
286.528
284.159
281.37
277.689
273.79
268.81
263.801
257.836
251.531
244.491
237.672
228.597
220.327
257.041
258.362
259.475
260.221
260.709
260.893
260.795
260.455
259.845
259.049
257.944
256.77
255.204
253.793
251.707
247.852
243.662
240.729
236.76
234.458
219.391
220.521
221.522
222.447
223.202
223.92
224.427
224.934
225.188
225.488
225.474
225.548
225.264
225.136
224.567
224.275
223.462
222.925
221.67
221.244
206.853
207.68
208.467
209.172
209.824
210.404
210.91
211.358
211.694
211.992
212.15
212.335
212.313
212.398
212.189
212.177
211.786
211.728
211.141
211.137
190.912
191.597
192.254
192.878
193.45
194.016
194.508
195.023
195.441
195.918
196.279
196.706
196.988
197.37
197.56
197.915
197.996
198.32
198.27
198.617
184.912
185.476
185.991
186.501
186.978
187.438
187.872
188.287
188.675
189.044
189.355
189.68
189.923
190.215
190.391
190.668
190.759
191.048
191.049
191.323
178.038
178.501
178.944
179.374
179.778
180.175
180.541
180.905
181.235
181.569
181.868
182.186
182.455
182.757
182.995
183.281
183.475
183.75
183.878
184.178
175.313
175.694
176.061
176.42
176.764
177.102
177.423
177.739
178.036
178.332
178.603
178.878
179.12
179.374
179.58
179.817
179.988
180.226
180.361
180.59
172.608
172.949
173.258
173.571
173.862
174.149
174.421
174.683
174.933
175.172
175.4
175.618
175.825
176.026
176.203
176.384
176.535
176.722
176.846
177.036
171.654
171.928
172.198
172.457
172.712
172.958
173.197
173.43
173.652
173.87
174.075
174.278
174.467
174.657
174.837
175.026
175.188
175.363
175.491
175.67
170.865
171.103
171.33
171.554
171.784
172.015
172.253
172.482
172.681
172.869
173.041
173.21
173.369
173.523
173.668
173.806
173.929
174.056
174.159
174.277
170.935
171.134
171.328
171.517
171.699
171.877
172.048
172.217
172.376
172.53
172.678
172.825
172.964
173.103
173.233
173.36
173.485
173.61
173.725
173.849
171.206
171.389
171.568
171.745
171.917
172.087
172.252
172.415
172.574
172.729
172.88
173.027
173.169
173.306
173.438
173.568
173.687
173.801
173.908
174.015
171.526
171.687
171.845
171.999
172.153
172.303
172.448
172.591
172.734
172.881
173.028
173.176
173.324
173.467
173.607
173.742
173.87
173.989
174.105
174.213
172.188
172.334
172.48
172.625
172.769
172.912
173.055
173.196
173.336
173.475
173.612
173.748
173.882
174.014
174.144
174.271
174.399
174.521
174.645
174.762
172.541
172.678
172.815
172.952
173.089
173.226
173.363
173.499
173.636
173.771
173.907
174.04
174.175
174.307
174.441
174.57
174.703
174.83
174.96
175.084
173.131
173.259
173.388
173.518
173.649
173.779
173.911
174.042
174.174
174.306
174.439
174.572
174.705
174.837
174.971
175.103
175.238
175.368
175.504
175.632
173.393
173.515
173.639
173.764
173.89
174.018
174.146
174.275
174.405
174.537
174.669
174.802
174.936
175.07
175.206
175.341
175.478
175.614
175.753
175.888
173.713
173.832
173.953
174.075
174.198
174.323
174.449
174.576
174.704
174.834
174.965
175.097
175.23
175.364
175.5
175.636
175.774
175.911
176.052
176.19
173.808
173.924
174.043
174.162
174.284
174.407
174.532
174.658
174.786
174.916
175.047
175.179
175.314
175.449
175.587
175.725
175.866
176.007
176.151
176.295
30.4643
27.078
19.7822
12.6499
5.78826
-1.53721
-9.20897
-17.3177
-25.923
-35.1293
-44.9967
-55.6741
-67.1583
-79.6696
-93.1671
-107.912
-124.1
-141.539
-161.77
-171.944
47.4774
45.2512
39.9874
34.3639
28.648
22.4645
15.8191
8.70696
1.04394
-7.22709
-16.15
-25.8298
-36.2781
-47.7353
-60.1084
-73.7651
-88.6896
-104.851
-123.835
-134.222
67.0065
66.0118
61.8655
57.0461
52.171
46.7715
40.9398
34.6259
27.8099
20.4295
12.4486
3.73102
-5.71353
-16.0839
-27.2846
-39.691
-53.151
-67.9249
-85.367
-95.8618
87.3647
86.6689
83.0944
79.08
74.9534
70.3961
65.4214
60.0262
54.1367
47.7026
40.666
32.9665
24.5956
15.3384
5.30638
-5.92601
-18.0596
-31.5708
-47.3379
-57.1229
108.114
107.923
105.025
101.66
98.2337
94.3727
90.1295
85.4603
80.3407
74.7194
68.5776
61.8009
54.3733
46.1362
37.1905
27.1641
16.4039
4.20347
-9.72325
-18.5635
128.253
128.374
126.063
123.343
120.54
117.404
113.903
110.045
105.764
101.015
95.7331
89.8708
83.4252
76.2162
68.323
59.3572
49.6554
38.4891
26.0567
18.9823
148.783
149.295
147.456
145.345
143.151
140.633
137.763
134.562
130.963
126.953
122.498
117.515
111.949
105.652
98.6935
90.7116
82.0215
71.905
60.2351
53.9919
168.4
169.03
167.589
165.959
164.279
162.329
160.104
157.631
154.809
151.641
148.011
143.895
139.247
133.953
128.031
121.114
113.563
104.43
93.7967
87.5526
187.244
188.196
187.258
186.248
185.201
183.918
182.384
180.601
178.474
176.02
173.166
169.913
166.132
161.784
156.799
150.959
144.514
136.504
127.436
120.586
204.98
206.091
205.623
205.079
204.513
203.74
202.748
201.559
200.106
198.4
196.33
193.893
190.994
187.624
183.671
179.038
173.81
167.224
160.292
152.771
221.428
222.898
223.024
223.065
223.094
222.952
222.629
222.122
221.367
220.343
218.985
217.329
215.255
212.806
209.813
206.316
202.151
197.083
191.73
184.326
237.07
238.782
239.34
239.815
240.256
240.544
240.661
240.61
240.349
239.91
239.232
238.291
237.023
235.404
233.333
230.823
227.72
224.032
219.674
213.961
251.086
252.97
253.932
254.851
255.771
256.579
257.271
257.846
258.271
258.529
258.547
258.333
257.78
256.944
255.68
254.038
251.836
249.155
245.764
241.387
264.8
266.981
268.314
269.628
270.941
272.135
273.22
274.185
275
275.642
276.095
276.347
276.348
276.074
275.418
274.42
272.902
270.963
268.306
264.732
276.328
278.584
280.202
281.828
283.459
285.033
286.531
287.965
289.282
290.497
291.529
292.41
293.003
293.366
293.353
293.061
292.266
291.093
289.196
286.397
287.132
289.738
291.803
293.857
295.903
297.873
299.75
301.535
303.183
304.702
306.034
307.202
308.127
308.893
309.323
309.534
309.205
308.579
307.102
304.942
296.613
299.311
301.456
303.65
305.84
307.977
310.063
312.093
314.049
315.921
317.684
319.336
320.813
322.128
323.111
323.844
324.035
323.963
323.1
321.549
305
307.863
310.241
312.703
315.175
317.611
319.997
322.341
324.591
326.775
328.814
330.736
332.435
333.949
335.159
336.142
336.756
337.097
336.691
335.888
311.839
314.754
317.214
319.79
322.372
324.934
327.453
329.951
332.381
334.765
337.035
339.223
341.246
343.138
344.799
346.297
347.361
348.216
348.385
348.407
317.491
320.536
323.147
325.89
328.649
331.389
334.1
336.795
339.419
341.989
344.446
346.795
348.975
351.005
352.789
354.343
355.59
356.524
357.099
357.234
-274.44
-283.409
-292.778
-302.856
-313.208
-324.246
-335.605
-347.563
-360
-372.975
-386.522
-400.664
-415.476
-431.064
-446.995
-464.095
-481.635
-495.945
-502.428
-503.051
-269.583
-278.767
-288.294
-298.657
-309.299
-320.72
-332.546
-345.014
-358.04
-371.736
-386.114
-401.239
-417.238
-434.056
-451.826
-471.018
-491.283
-508.706
-519.444
-520.461
-263.602
-273.024
-282.718
-293.34
-304.286
-316.04
-328.268
-341.202
-354.798
-369.09
-384.18
-400.124
-416.994
-434.918
-454.095
-474.721
-496.729
-516.665
-532.294
-533.66
-257.203
-266.825
-276.636
-287.482
-298.658
-310.686
-323.265
-336.579
-350.596
-365.434
-381.123
-397.729
-415.388
-434.126
-454.205
-475.611
-498.163
-519.967
-540.054
-542.767
-249.325
-259.143
-269.025
-280.025
-291.405
-303.653
-316.503
-330.129
-344.551
-359.79
-375.97
-393.162
-411.48
-431.077
-452.043
-474.621
-498.813
-524.019
-542.842
-546.899
-241.035
-250.968
-260.775
-271.943
-283.394
-295.743
-308.753
-322.558
-337.166
-352.698
-369.187
-386.712
-405.438
-425.381
-446.751
-469.93
-494.687
-520.159
-541.886
-548.287
-230.876
-240.887
-250.724
-261.84
-273.371
-285.784
-298.917
-312.857
-327.671
-343.395
-360.138
-377.994
-397.07
-417.451
-439.36
-463.002
-487.807
-514.746
-537.321
-542.423
-220.148
-230.174
-239.903
-250.94
-262.449
-274.79
-287.879
-301.809
-316.588
-332.354
-349.157
-367.071
-386.291
-406.86
-429.063
-453.027
-478.979
-507.198
-530.006
-535.159
-207.436
-217.453
-227.073
-237.98
-249.401
-261.65
-274.678
-288.531
-303.294
-319.026
-335.801
-353.745
-372.982
-393.558
-415.813
-439.918
-465.705
-493.953
-518.154
-524.435
-194.056
-203.986
-213.383
-224.081
-235.325
-247.349
-260.149
-273.806
-288.332
-303.859
-320.442
-338.184
-357.222
-377.646
-399.808
-423.594
-449.509
-477.665
-502.239
-509.419
-178.822
-188.634
-197.818
-208.239
-219.244
-231
-243.553
-256.931
-271.206
-286.475
-302.776
-320.262
-339.036
-359.172
-380.988
-404.495
-429.847
-457.603
-482.672
-490.576
-162.75
-172.369
-181.252
-191.327
-202.021
-213.431
-225.609
-238.634
-252.524
-267.396
-283.298
-300.358
-318.667
-338.363
-359.772
-382.671
-407.678
-434.993
-460.14
-468.864
-145.069
-154.487
-163.059
-172.743
-183.065
-194.059
-205.83
-218.414
-231.85
-246.264
-261.674
-278.237
-296.044
-315.204
-335.976
-358.263
-382.65
-409.223
-434.387
-443.484
-126.405
-135.561
-143.786
-153.014
-162.917
-173.471
-184.763
-196.869
-209.816
-223.702
-238.567
-254.561
-271.731
-290.261
-310.358
-331.884
-355.668
-381.137
-406.247
-415.771
-106.405
-115.302
-123.165
-131.922
-141.366
-151.417
-162.192
-173.758
-186.117
-199.404
-213.632
-228.952
-245.444
-263.243
-282.523
-303.302
-326.185
-350.386
-375.655
-385.235
-85.3452
-93.9546
-101.444
-109.704
-118.67
-128.226
-138.476
-149.479
-161.277
-173.949
-187.528
-202.18
-217.92
-234.941
-253.374
-273.234
-295.001
-318.124
-343.178
-352.92
-63.5442
-71.8226
-78.8685
-86.5925
-95.041
-104.058
-113.724
-124.147
-135.299
-147.304
-160.181
-174.073
-189.026
-205.198
-222.713
-241.604
-262.291
-284.447
-308.737
-318.625
-41.0845
-49.0043
-55.5145
-62.6383
-70.5652
-79.0486
-88.1616
-97.968
-108.507
-119.841
-131.996
-145.146
-159.281
-174.62
-191.215
-209.147
-228.792
-249.896
-273.17
-283.137
-15.9402
-24.3233
-30.7529
-37.4263
-44.9399
-53.0479
-61.6717
-70.9585
-80.9038
-91.5958
-103.071
-115.465
-128.79
-143.241
-158.861
-175.757
-194.306
-214.289
-236.571
-246.577
12.4893
4.04549
-3.76701
-10.8191
-18.3015
-26.3237
-34.7314
-43.6056
-53.0527
-63.136
-73.8972
-85.5008
-97.9537
-111.503
-126.123
-142.027
-159.499
-178.281
-199.451
-209.495
25.4374
24.9905
24.099
22.1328
19.6568
15.8887
12.5838
7.36925
2.59702
-4.46388
-11.5802
-21.1032
-32.0257
-44.9688
-62.2691
-80.3645
-108.621
-136.403
-181.369
-230.929
25.781
25.2834
24.6806
22.5838
20.3582
16.646
13.4815
8.37112
3.73941
-3.17233
-10.0953
-19.4326
-30.0985
-42.7146
-59.692
-77.1904
-105.084
-131.964
-176.726
-225.592
26.2141
25.6753
25.282
23.0877
21.0451
17.4038
14.3802
9.39144
4.89733
-1.87265
-8.61043
-17.7467
-28.1328
-40.4748
-57.0837
-74.0616
-101.562
-127.385
-171.614
-219.089
26.6599
26.1266
25.8944
23.6546
21.8
18.2361
15.3464
10.4751
6.12543
-0.490235
-7.02291
-15.9788
-26.0685
-38.11
-54.3034
-70.7687
-97.6956
-122.56
-166.647
-212.518
27.1247
26.5769
26.4738
24.2539
22.5437
19.0657
16.3172
11.5768
7.36738
0.901122
-5.43504
-14.1902
-23.9697
-35.7576
-51.4965
-67.491
-93.8246
-117.698
-160.907
-204.705
27.6198
27.0655
27.0806
24.9022
23.3553
19.9699
17.3579
12.7446
8.6796
2.37388
-3.74828
-12.3229
-21.7727
-33.2787
-48.5266
-64.035
-89.6176
-112.567
-155.005
-197.029
28.1486
27.599
27.7081
25.5856
24.1616
20.874
18.3988
13.9255
10.0053
3.85716
-2.06114
-10.4303
-19.5441
-30.8107
-45.5254
-60.5912
-85.4102
-107.316
-148.331
-188.068
28.7173
28.183
28.3756
26.3171
25.0204
21.8525
19.5159
15.1717
11.3992
5.41933
-0.28035
-8.46211
-17.2223
-28.216
-42.3703
-56.9629
-80.866
-101.772
-141.537
-179.047
29.3364
28.8406
29.0601
27.0495
25.9001
22.8269
20.6307
16.4344
12.8071
6.99324
1.50082
-6.46524
-14.8708
-25.6299
-39.182
-53.3454
-76.3206
-96.0944
-134.001
-168.755
29.991
29.5546
29.7715
27.8038
26.8845
23.8899
21.8192
17.7628
14.2801
8.64233
3.36891
-4.39566
-12.4346
-22.9195
-35.8508
-49.5461
-71.4364
-90.0962
-126.328
-158.213
30.6861
30.326
30.493
28.6237
27.8242
24.9303
23.0129
19.1061
15.7672
10.3034
5.23777
-2.29565
-9.97071
-20.2144
-32.4885
-45.7543
-66.5503
-83.9932
-117.994
-146.406
31.4026
31.1154
31.2348
29.4648
28.8145
26.0605
24.282
20.5101
17.3153
12.0344
7.18496
-0.127058
-7.43394
-17.3921
-28.9993
-41.7908
-61.334
-77.5541
-109.472
-134.206
32.1311
31.8926
31.9883
30.3321
29.832
27.1744
25.5517
21.9278
18.877
13.7768
9.13417
2.07319
-4.8701
-14.5682
-25.4791
-37.8213
-56.101
-71.0501
-100.392
-120.735
32.8656
32.63
32.7521
31.2232
30.8758
28.3789
26.8979
23.4028
20.4972
15.5855
11.156
4.34124
-2.24161
-11.6315
-21.8462
-33.6899
-50.5671
-64.2438
-91.0912
-106.784
33.5784
33.3013
33.5293
32.1518
31.9542
29.5804
28.2361
24.8879
22.1253
17.3984
13.1742
6.63046
0.395328
-8.71254
-18.2195
-29.5835
-45.0683
-57.4784
-81.312
-91.4423
34.2941
33.9076
34.2952
33.1121
33.0497
30.8488
29.6389
26.4224
23.7995
19.2628
15.2458
8.96959
3.07508
-5.6965
-14.4955
-25.303
-39.2514
-50.3447
-70.9931
-75.3097
34.9597
34.4207
35.0583
34.1161
34.2026
32.1493
31.0523
27.9937
25.5137
21.174
17.3723
11.4043
5.871
-2.5479
-10.5938
-20.8064
-33.2117
-43.0976
-60.3208
-58.4622
35.7193
35.0372
36.0177
35.1084
35.3943
33.5023
32.5433
29.6195
27.2746
23.1277
19.5477
13.8729
8.63016
0.554506
-6.82417
-16.5092
-27.5474
-36.3336
-50.0669
-41.5308
36.2484
35.3285
36.6568
36.0194
36.4675
34.7415
33.892
31.0785
28.8248
24.8162
21.3926
15.9522
10.8596
2.98213
-3.86872
-13.0637
-22.8939
-30.2858
-38.224
-18.634
37.0669
34.9134
36.7389
37.198
37.7143
36.1879
35.4165
32.8011
30.6767
26.9311
23.7
18.6133
14.1057
6.90832
1.06114
-6.89509
-14.1253
-19.6513
-21.3002
5.5941
51.9162
46.55
48.88
47.804
48.7845
47.5597
47.4159
46.3512
46.0535
45.0377
44.9428
43.7598
44.7446
44.137
47.45
46.5868
54.0966
56.1504
66.8236
53.3106
56.768
55.6226
56.6365
56.365
57.1687
57.356
57.8918
58.2019
58.8609
59.5438
61.0742
62.9897
66.2563
69.4628
75.3211
80.4505
91.8604
98.0923
122.814
131.433
75.1702
75.0704
74.8632
75.6581
76.085
76.9301
78.0139
79.1562
80.9578
82.7637
85.6372
88.1762
92.0964
95.8779
101.857
107.997
116.858
125.921
139.41
151.397
81.6472
81.9505
82.4561
83.3852
84.5132
86.0527
87.837
90.0789
92.7533
95.6794
99.0853
102.834
107.533
112.523
118.945
125.281
134.222
142.547
154.422
163.877
92.919
93.1593
94.0321
95.6863
97.2567
98.9848
101.031
103.116
105.575
108.088
111.24
114.546
118.534
122.806
127.8
133.195
139.341
145.661
152.915
160.258
99.8344
100.304
101.335
103.026
104.883
106.924
109.324
111.623
114.541
117.349
120.82
124.158
128.327
132.273
137.188
141.736
147.374
152.455
158.868
164.301
107.446
108.113
109.568
111.601
113.797
115.844
118.193
120.407
123.002
125.482
128.358
131.224
134.427
137.733
141.279
145.025
148.863
152.94
156.582
160.425
112.803
113.482
115.679
117.657
120.314
122.309
124.937
127.024
129.726
132.014
134.882
137.404
140.492
143.253
146.539
149.533
152.874
156.106
159.783
162.886
120.304
120.983
123.776
125.522
128.343
130.058
132.509
134.248
136.574
138.453
140.782
142.817
145.234
147.447
150.01
152.346
155.098
157.462
159.79
161.746
127.044
127.454
130.985
132.172
135.036
136.424
138.654
140.092
142.151
143.704
145.746
147.389
149.458
151.21
153.339
155.164
157.301
159.135
161.412
163.297
138.531
137.182
141.395
141.544
143.79
144.612
146.162
147.135
148.542
149.64
151.099
152.297
153.806
155.109
156.726
158.095
159.805
161.205
162.762
163.983
152.641
150.871
150.601
151.032
151.245
151.733
152.239
152.786
153.538
154.212
155.169
155.996
157.118
158.043
159.284
160.273
161.592
162.585
163.955
165.016
164.699
164.236
161.116
161.08
159.724
159.577
159.176
159.144
159.303
159.449
159.938
160.282
160.977
161.515
162.356
163.031
163.975
164.73
165.735
166.427
172.76
171.348
168.511
166.347
165.289
164.02
163.547
162.853
162.81
162.548
162.808
162.854
163.336
163.635
164.265
164.712
165.447
165.987
166.787
167.381
179.562
175.357
173.967
171.517
170.089
168.612
167.962
167.011
166.752
166.193
166.213
166.013
166.221
166.266
166.635
166.875
167.367
167.735
168.321
168.755
185.308
174.684
173.799
171.888
171.303
169.845
169.379
168.482
168.272
167.782
167.73
167.515
167.608
167.61
167.861
168.039
168.411
168.708
169.174
169.548
179.201
176.509
175.403
173.757
172.952
171.824
171.338
170.472
170.132
169.6
169.438
169.16
169.166
169.094
169.235
169.339
169.597
169.822
170.186
170.498
183.72
174.261
174.1
173.153
172.815
172.067
171.603
171.021
170.8
170.357
170.237
169.919
169.942
169.819
169.973
170.087
170.289
170.522
170.817
171.078
175.258
174.37
174.234
173.16
172.959
172.345
172.096
171.592
171.361
171.061
170.898
170.774
170.662
170.663
170.69
170.707
170.881
171.002
171.216
171.481
181.559
174.052
173.907
173.317
173
172.515
172.184
171.799
171.539
171.259
171.101
170.946
170.876
170.838
170.844
170.881
171.023
171.184
171.421
171.677
92.1112
107.516
122.726
137.883
152.249
166.331
179.266
192.015
203.216
214.668
224.255
234.517
242.894
250.657
257.75
263.926
269.661
274.318
278.607
281.96
160.466
170.166
178.703
186.71
193.339