/*--------------------------------*- C++ -*----------------------------------*\
  =========                 |
  \\      /  F ield         | OpenFOAM: The Open Source CFD Toolbox
   \\    /   O peration     | Website:  https://openfoam.org
    \\  /    A nd           | Version:  9
     \\/     M anipulation  |
\*---------------------------------------------------------------------------*/
FoamFile
{
    format      ascii;
    class       volVectorField;
    location    "10.6";
    object      U;
}
// * * * * * * * * * * * * * * * * * * * * * * * * * * * * * * * * * * * * * //

dimensions      [0 1 -1 0 0 0 0];

internalField   nonuniform List<vector> 
46400
(
(7.45421 -7.07941 5.35598e-19)
(14.3775 -14.0236 -6.42711e-19)
(14.9693 -15.1686 -3.27733e-20)
(14.3166 -15.3408 -1.97365e-19)
(13.8744 -15.448 -2.46608e-20)
(13.3398 -15.5693 1.13845e-18)
(12.8615 -15.6327 -6.55696e-19)
(12.3839 -15.6956 1.77295e-19)
(11.9696 -15.8045 -1.77942e-19)
(11.5526 -15.8663 1.78198e-19)
(11.1719 -15.9647 -1.78105e-19)
(10.7871 -16.0189 0)
(10.4329 -16.0998 1.18908e-18)
(10.1378 -16.2254 -1.34479e-18)
(9.84194 -16.3402 -1.53117e-18)
(9.53177 -16.3714 -1.88325e-19)
(9.23911 -16.454 -1.35802e-20)
(9.0009 -16.5478 1.15101e-18)
(8.7163 -16.4755 1.4715e-18)
(8.30473 -16.5889 -1.35385e-18)
(7.63669 -6.67863 0)
(14.3388 -13.0329 -2.10298e-20)
(14.7895 -14.0466 0)
(14.142 -14.1838 9.0057e-19)
(13.6244 -14.3151 -7.183e-19)
(13.1031 -14.4485 1.74426e-19)
(12.613 -14.5992 0)
(12.1574 -14.7105 -1.7728e-19)
(11.6949 -14.8251 1.77928e-19)
(11.3101 -14.954 -1.78186e-19)
(10.8869 -15.0553 1.67696e-18)
(10.5213 -15.1519 1.71774e-20)
(10.1824 -15.3079 -1.29102e-18)
(9.84085 -15.3747 0)
(9.52586 -15.5243 1.753e-19)
(9.24975 -15.6365 1.7423e-19)
(8.92509 -15.6982 0)
(8.71026 -15.84 -1.4356e-18)
(8.53297 -16.0098 -3.52065e-19)
(8.19357 -16.1882 1.45935e-18)
(7.81683 -6.25802 5.41379e-19)
(14.1513 -11.861 -7.61063e-19)
(14.4447 -12.7932 7.76744e-19)
(13.7667 -12.9823 8.18252e-19)
(13.287 -13.184 -8.03372e-19)
(12.7668 -13.3686 0)
(12.2819 -13.5312 -1.86506e-18)
(11.8379 -13.6954 1.62237e-18)
(11.4175 -13.8768 -1.85252e-18)
(11.018 -14.007 1.82376e-18)
(10.6539 -14.1848 1.61926e-18)
(10.2615 -14.2621 -1.94393e-19)
(9.93158 -14.4205 -1.37525e-18)
(9.64942 -14.5695 0)
(9.34276 -14.6935 1.56042e-18)
(9.09549 -14.8618 -1.53672e-18)
(8.79939 -14.9611 0)
(8.50338 -14.9655 -1.09138e-20)
(8.2885 -15.1048 1.7905e-19)
(7.99847 -15.3767 -1.53967e-18)
(8.07412 -5.85738 -6.4494e-19)
(13.8431 -10.7176 2.0145e-19)
(14.0027 -11.55 8.97628e-19)
(13.36 -11.7764 -8.85239e-19)
(12.8438 -12.0203 -6.71562e-19)
(12.3581 -12.2639 8.90109e-19)
(11.8699 -12.5072 1.11471e-18)
(11.4197 -12.687 -2.67492e-18)
(10.9778 -12.905 2.20117e-18)
(10.6074 -13.1084 -2.11009e-19)
(10.2152 -13.3033 0)
(9.86409 -13.4685 2.07471e-19)
(9.51847 -13.6597 -2.05436e-19)
(9.20708 -13.8101 0)
(8.88804 -13.9597 1.66159e-18)
(8.63707 -14.134 -1.42577e-18)
(8.42125 -14.3902 0)
(8.18429 -14.5237 1.93837e-19)
(7.93868 -14.6063 1.9994e-19)
(7.63908 -14.8939 1.63201e-18)
(8.35583 -5.5296 0)
(13.382 -9.55158 0)
(13.473 -10.348 -9.88545e-19)
(12.8193 -10.6086 7.17321e-19)
(12.3116 -10.9061 -1.22066e-18)
(11.828 -11.1554 9.68321e-19)
(11.3681 -11.4369 0)
(10.9677 -11.6843 9.61939e-19)
(10.5453 -11.9302 -1.17478e-18)
(10.1755 -12.1422 -2.42174e-19)
(9.84126 -12.4094 -2.38972e-19)
(9.45676 -12.5417 0)
(9.1427 -12.7785 1.80759e-18)
(8.89992 -13.0262 -1.77936e-18)
(8.59039 -13.1885 0)
(8.28587 -13.2987 -1.94112e-18)
(8.01745 -13.467 1.70467e-18)
(7.81756 -13.6817 1.67987e-18)
(7.60449 -13.8127 -1.85207e-18)
(7.29901 -14.1068 0)
(8.59107 -5.14527 0)
(12.8343 -8.53468 0)
(12.6802 -9.14539 0)
(12.1266 -9.48097 -2.04361e-20)
(11.6401 -9.8486 0)
(11.2172 -10.1671 0)
(10.7489 -10.4864 0)
(10.3375 -10.7364 -2.6428e-19)
(9.94251 -11.0356 0)
(9.58307 -11.2781 2.42166e-19)
(9.26385 -11.5741 -1.38069e-20)
(8.94281 -11.787 -2.18951e-18)
(8.5565 -11.9473 1.66501e-18)
(8.31187 -12.2222 -2.12031e-18)
(8.09605 -12.5345 1.61392e-18)
(7.85638 -12.7545 0)
(7.58612 -12.9408 -1.78878e-18)
(7.35999 -13.1184 1.5374e-18)
(7.16344 -13.2969 0)
(6.87612 -13.5698 -2.3213e-19)
(8.76801 -4.85614 1.06542e-18)
(12.1098 -7.46488 3.00843e-19)
(11.9499 -8.13705 1.16303e-18)
(11.4244 -8.44106 -1.16111e-18)
(10.9315 -8.84212 -1.13667e-18)
(10.5192 -9.14006 2.23789e-18)
(10.1168 -9.52308 -2.4912e-18)
(9.76869 -9.83261 2.61816e-19)
(9.3762 -10.1351 7.95549e-19)
(9.03516 -10.4018 0)
(8.74805 -10.7481 -1.28997e-20)
(8.45924 -11.0115 -1.2256e-20)
(8.11069 -11.2041 2.44789e-19)
(7.78308 -11.3513 1.95882e-18)
(7.52963 -11.5945 -1.70264e-18)
(7.32919 -11.8579 -2.14436e-18)
(7.10841 -12.1006 1.87315e-18)
(6.90472 -12.318 -9.15615e-21)
(6.7231 -12.5187 -2.29931e-19)
(6.48665 -12.8444 -1.66351e-18)
(8.64417 -4.49863 -2.91817e-19)
(11.2713 -6.5591 1.93934e-20)
(10.9295 -7.1506 -3.18085e-19)
(10.4983 -7.55017 -1.24176e-18)
(10.0809 -7.99062 8.9323e-19)
(9.71107 -8.35829 0)
(9.28105 -8.69307 1.74982e-18)
(8.94375 -9.02394 -8.5369e-19)
(8.61612 -9.36944 5.63123e-19)
(8.249 -9.59858 2.82913e-19)
(7.96986 -9.92794 -5.43473e-19)
(7.78837 -10.3106 1.3302e-18)
(7.52622 -10.6202 2.67286e-19)
(7.27467 -10.8746 -1.54016e-18)
(6.99609 -11.0872 4.29517e-18)
(6.77895 -11.3254 -1.74196e-18)
(6.56085 -11.5634 2.18734e-18)
(6.36415 -11.7801 -1.4345e-18)
(6.17342 -11.9736 4.68072e-19)
(5.94763 -12.2659 2.21721e-18)
(8.31012 -4.01323 1.5053e-18)
(10.3617 -5.6495 -3.20515e-19)
(10.0798 -6.30395 -1.68913e-20)
(9.67284 -6.68758 6.43153e-19)
(9.2423 -7.17402 3.08807e-19)
(8.9209 -7.5648 3.18144e-19)
(8.58255 -7.99968 -1.52047e-18)
(8.25908 -8.33462 9.07281e-19)
(7.97985 -8.73642 -2.88209e-19)
(7.67353 -9.02812 -2.82948e-19)
(7.29461 -9.24657 -2.77715e-19)
(7.02357 -9.51465 -2.82908e-19)
(6.79352 -9.82376 -5.44531e-19)
(6.56785 -10.1092 1.8709e-18)
(6.34659 -10.3907 -2.62354e-18)
(6.14102 -10.6495 -2.60808e-19)
(5.95012 -10.9234 8.16985e-21)
(5.77745 -11.1741 -1.96297e-18)
(5.62066 -11.4145 1.45819e-18)
(5.4155 -11.7115 -2.28748e-18)
(7.7813 -3.47646 1.29208e-18)
(9.27107 -4.80834 -3.1274e-18)
(8.88811 -5.46029 2.05603e-18)
(8.53287 -5.91837 -3.29546e-19)
(8.16747 -6.42555 -3.3751e-19)
(7.87292 -6.88975 1.31258e-18)
(7.52355 -7.29868 -1.60146e-18)
(7.23132 -7.68735 0)
(6.96989 -8.11635 1.22319e-18)
(6.77198 -8.53804 -1.20281e-18)
(6.55253 -8.92772 -8.74444e-19)
(6.32665 -9.23448 1.14471e-18)
(6.07659 -9.52944 2.77238e-19)
(5.85656 -9.79749 -1.10146e-18)
(5.63128 -10.0587 2.72127e-19)
(5.44134 -10.3054 1.323e-18)
(5.25112 -10.5621 -2.32426e-18)
(5.08524 -10.7927 1.52999e-18)
(4.94183 -11.0353 -6.79938e-21)
(4.77527 -11.3269 -2.09704e-18)
(7.11678 -2.90646 1.70496e-18)
(8.21583 -3.97388 -1.08796e-18)
(7.93787 -4.62544 7.13672e-19)
(7.69504 -5.12273 -2.93182e-22)
(7.30005 -5.59071 -1.38682e-18)
(7.0741 -6.08362 -1.33449e-18)
(6.84535 -6.59101 1.64692e-18)
(6.50175 -6.9075 -9.62964e-19)
(6.22122 -7.28055 1.26931e-18)
(5.95833 -7.62938 0)
(5.71048 -8.00899 8.79827e-21)
(5.53205 -8.40008 2.92487e-19)
(5.34352 -8.7666 2.94353e-19)
(5.1661 -9.10992 -2.87963e-19)
(4.98114 -9.43911 0)
(4.78855 -9.72641 2.75645e-19)
(4.6241 -10.032 0)
(4.45492 -10.2958 5.21536e-19)
(4.31232 -10.5564 2.54811e-18)
(4.15057 -10.8811 -1.67492e-20)
(6.34857 -2.37066 8.96345e-19)
(7.03506 -3.25984 -1.87914e-19)
(6.68773 -3.89763 -2.5936e-18)
(6.46003 -4.46393 1.45104e-18)
(6.14131 -4.9802 3.49457e-19)
(5.82494 -5.43148 -3.42334e-19)
(5.68568 -6.04178 -1.35872e-18)
(5.53825 -6.5749 1.00719e-18)
(5.26943 -7.00336 0)
(5.06361 -7.39629 0)
(4.81794 -7.74765 -1.55017e-18)
(4.62814 -8.09964 1.22247e-18)
(4.4449 -8.45465 -2.94387e-19)
(4.26892 -8.76989 -8.73509e-19)
(4.11185 -9.10027 7.73511e-21)
(3.96278 -9.39108 1.95386e-18)
(3.8083 -9.68209 -1.09429e-18)
(3.68393 -9.96153 7.99343e-19)
(3.54855 -10.2118 -1.30616e-18)
(3.42521 -10.5303 0)
(5.51231 -1.88268 -7.50988e-19)
(5.93706 -2.6285 1.15898e-18)
(5.61289 -3.26958 1.92138e-19)
(5.47518 -3.88628 1.88162e-19)
(5.23079 -4.40936 0)
(4.87824 -4.81518 1.4231e-18)
(4.58687 -5.23592 -1.39791e-18)
(4.40606 -5.73758 1.72191e-19)
(4.30559 -6.24071 0)
(4.14441 -6.70975 1.3008e-18)
(3.95818 -7.12385 -1.11875e-18)
(3.77994 -7.5153 1.24266e-18)
(3.65123 -7.91275 -1.22289e-18)
(3.51308 -8.28142 1.18703e-18)
(3.37855 -8.63066 -1.02213e-18)
(3.24855 -8.96785 -1.13421e-18)
(3.10932 -9.27453 2.22619e-18)
(2.98005 -9.57022 -9.55593e-19)
(2.86372 -9.8379 1.33988e-19)
(2.72613 -10.1497 1.12272e-18)
(4.4922 -1.54482 -5.93667e-19)
(4.45679 -2.29314 5.97735e-19)
(4.14352 -2.81284 -1.9213e-19)
(4.01558 -3.5285 -1.88099e-19)
(3.98445 -4.21343 0)
(3.75614 -4.79163 0)
(3.57329 -5.23138 0)
(3.36334 -5.68067 -3.47407e-19)
(3.16396 -6.0778 -1.35436e-18)
(3.05501 -6.52919 2.65454e-18)
(2.92701 -6.931 -1.46191e-18)
(2.78315 -7.31011 -1.59478e-19)
(2.64572 -7.67206 0)
(2.54041 -8.03901 0)
(2.42623 -8.38209 -2.95281e-19)
(2.34515 -8.7252 0)
(2.25121 -9.05286 1.12406e-18)
(2.16536 -9.3532 -1.38321e-18)
(2.08326 -9.64028 -1.20816e-18)
(1.98364 -9.94189 1.14976e-18)
(2.86077 -1.00682 6.04685e-19)
(3.48561 -1.96763 1.00162e-18)
(3.10828 -2.46767 -1.5092e-21)
(2.77329 -2.90403 -2.31398e-21)
(2.65059 -3.50266 1.87221e-19)
(2.62182 -4.10116 -5.54715e-19)
(2.52762 -4.65843 0)
(2.38202 -5.17672 -5.28475e-19)
(2.29454 -5.65162 1.77605e-19)
(2.13309 -6.09794 6.75764e-19)
(2.04753 -6.53739 6.55364e-19)
(1.92077 -6.95276 -4.85325e-19)
(1.81792 -7.3375 1.24992e-18)
(1.71017 -7.71284 -1.07662e-18)
(1.62075 -8.07113 1.34089e-18)
(1.5211 -8.4107 -2.48532e-18)
(1.45385 -8.75596 1.14715e-18)
(1.36857 -9.06981 1.38714e-19)
(1.31325 -9.37483 1.08624e-18)
(1.23619 -9.70043 -1.16393e-18)
(1.41514 -0.444226 1.21088e-19)
(1.68014 -1.36517 -1.63345e-19)
(2.01395 -2.11008 7.89003e-19)
(1.69448 -2.73596 -7.83909e-19)
(1.56716 -3.24271 -3.81758e-19)
(1.3666 -3.82024 -9.30688e-19)
(1.28011 -4.35284 4.47713e-21)
(1.1871 -4.89985 7.14785e-19)
(1.10382 -5.38956 -1.73134e-19)
(1.02746 -5.88619 0)
(0.956723 -6.32191 0)
(0.88117 -6.76931 0)
(0.815535 -7.16567 0)
(0.741502 -7.56191 9.19284e-22)
(0.686691 -7.92865 0)
(0.620296 -8.28465 1.46641e-19)
(0.570808 -8.62226 5.72367e-19)
(0.519321 -8.95338 -1.68246e-18)
(0.477686 -9.24931 1.23973e-18)
(0.430455 -9.58571 -1.16133e-18)
(0.679793 -0.22507 0)
(0.603462 -0.818271 -7.34226e-20)
(0.485113 -1.5836 0)
(0.392725 -2.28112 2.93973e-19)
(0.30188 -2.97465 -1.93512e-19)
(0.210903 -3.53022 -7.49019e-19)
(0.136898 -4.1386 4.4551e-21)
(0.0630199 -4.62139 7.18826e-19)
(0.0146523 -5.1855 -6.97039e-19)
(-0.0420178 -5.62194 1.36573e-18)
(-0.0767304 -6.14469 -5.16202e-21)
(-0.132283 -6.54489 -6.53273e-19)
(-0.162833 -7.01284 6.32545e-19)
(-0.217863 -7.38142 -7.77286e-19)
(-0.24494 -7.79293 0)
(-0.288478 -8.13359 -5.88639e-19)
(-0.314514 -8.49942 5.79848e-19)
(-0.347966 -8.81281 0)
(-0.368457 -9.12583 -1.37517e-19)
(-0.403933 -9.44635 0)
(-0.36906 -0.654563 0)
(-1.04653 -0.775772 1.01817e-19)
(-1.07468 -1.88619 0)
(-1.21905 -2.27019 3.92202e-19)
(-1.1378 -3.14908 -4.80536e-19)
(-1.18264 -3.57821 2.80646e-19)
(-1.1465 -4.30055 -8.24474e-19)
(-1.17408 -4.69593 3.59056e-19)
(-1.17386 -5.32365 -8.71466e-20)
(-1.195 -5.69389 0)
(-1.20773 -6.23395 -8.30359e-20)
(-1.19171 -6.58285 -8.10497e-20)
(-1.21326 -7.05916 -7.91206e-20)
(-1.1812 -7.37953 0)
(-1.19723 -7.80975 -6.01988e-19)
(-1.17262 -8.10467 1.25433e-18)
(-1.17769 -8.49851 -1.08131e-18)
(-1.16294 -8.77296 5.65713e-19)
(-1.16029 -9.11058 6.86736e-20)
(-1.154 -9.40519 5.82039e-19)
(-2.18566 -0.230402 -1.55712e-19)
(-2.25627 -0.897315 -2.03857e-19)
(-2.45774 -1.67078 5.82447e-22)
(-2.36444 -2.26338 5.37549e-19)
(-2.44059 -2.91953 -1.43218e-19)
(-2.33775 -3.44285 -9.26063e-20)
(-2.33286 -4.04702 9.25283e-20)
(-2.29137 -4.55793 1.78711e-19)
(-2.28931 -5.07248 8.71455e-20)
(-2.21461 -5.55183 -3.38294e-19)
(-2.2008 -6.02172 3.74554e-19)
(-2.15906 -6.46098 8.104e-20)
(-2.1284 -6.90529 3.93625e-19)
(-2.11077 -7.30003 -2.58607e-21)
(-2.09105 -7.72263 3.48743e-20)
(-2.06934 -8.07325 -6.61421e-19)
(-2.05743 -8.46447 1.80648e-19)
(-2.02816 -8.77939 0)
(-2.00836 -9.11521 -3.45785e-20)
(-1.97305 -9.43688 -2.89899e-19)
(-3.19819 -0.255681 5.11091e-20)
(-3.97265 -1.08912 -1.00676e-19)
(-3.95424 -1.85597 1.97578e-19)
(-3.83265 -2.40066 -4.89829e-20)
(-3.65468 -3.07035 -4.71737e-20)
(-3.6061 -3.60264 0)
(-3.58549 -4.21401 -8.98994e-20)
(-3.45145 -4.72266 1.76122e-19)
(-3.41099 -5.27647 -8.62858e-20)
(-3.36781 -5.73369 8.36487e-20)
(-3.32139 -6.24535 -4.10675e-20)
(-3.2905 -6.65137 -7.97093e-20)
(-3.22903 -7.11072 1.56256e-19)
(-3.19974 -7.49465 -1.5257e-19)
(-3.12339 -7.8906 3.73657e-20)
(-3.06673 -8.24073 2.56781e-34)
(-2.99475 -8.59789 -3.50554e-20)
(-2.92532 -8.91794 2.07997e-19)
(-2.86446 -9.23051 -1.02817e-19)
(-2.79736 -9.55699 -7.26084e-20)
(-0.20684 -0.207554 0)
(0.155066 -1.09236 0)
(0.834904 -4.83434 0)
(3.43703 -13.0476 4.9441e-21)
(5.6984 -20.7194 4.52782e-21)
(6.89856 -24.548 4.10207e-21)
(7.29258 -25.9928 0)
(7.3941 -26.4121 3.12708e-21)
(7.40498 -26.4729 0)
(7.37253 -26.4363 0)
(7.30083 -26.3317 -1.77581e-21)
(7.2401 -26.1949 7.10784e-22)
(7.1969 -26.194 2.722e-21)
(7.17323 -26.147 0)
(7.09267 -26.1079 3.14693e-22)
(7.06921 -26.0288 -5.02937e-24)
(6.98741 -25.9941 -3.05064e-22)
(6.97395 -25.9809 0)
(6.90211 -25.9802 1.41436e-21)
(6.87934 -25.933 -1.37589e-21)
(-0.23128 -0.0651726 0)
(0.460808 -2.425 -2.1018e-20)
(1.88688 -8.52004 0)
(5.14288 -17.5997 -1.23705e-20)
(6.7011 -23.177 2.23281e-20)
(7.45561 -25.6079 -3.50921e-20)
(7.64574 -26.2839 1.46334e-20)
(7.67641 -26.4082 7.52185e-21)
(7.64019 -26.3831 -3.15112e-20)
(7.57512 -26.2771 1.76794e-20)
(7.50204 -26.1572 -1.79465e-21)
(7.46686 -26.1143 8.03801e-21)
(7.39677 -26.0467 -2.90702e-21)
(7.35227 -25.9893 -4.92402e-21)
(7.28954 -25.9725 -3.15986e-22)
(7.24957 -25.9079 5.02938e-24)
(7.16956 -25.88 3.05046e-22)
(7.13622 -25.8081 0)
(7.04191 -25.7896 9.95961e-21)
(7.02642 -25.7656 2.01251e-21)
(0.232879 -0.459557 -1.14058e-20)
(0.901016 -4.08965 0)
(3.50688 -12.6078 0)
(6.07279 -20.7328 -9.5239e-21)
(7.46789 -24.8938 8.7338e-21)
(7.82755 -26.1022 0)
(7.92535 -26.3577 -5.89841e-21)
(7.9003 -26.3381 1.35604e-20)
(7.84715 -26.2529 -1.42789e-20)
(7.78005 -26.1254 1.16996e-20)
(7.73365 -26.0682 -1.35435e-20)
(7.66569 -25.9399 0)
(7.60677 -25.9088 -1.5933e-21)
(7.57741 -25.8749 4.30826e-21)
(7.49648 -25.828 -1.5395e-21)
(7.45682 -25.7326 1.3563e-20)
(7.36871 -25.6849 -1.08716e-20)
(7.3435 -25.6588 0)
(7.26424 -25.6688 2.9321e-20)
(7.24126 -25.5825 -5.43713e-20)
(0.406233 -1.33426 4.19521e-20)
(1.41143 -6.21114 0)
(4.80734 -16.1145 2.15185e-20)
(7.14601 -23.0336 2.65174e-20)
(7.98874 -25.6542 -5.19177e-20)
(8.21253 -26.2827 1.34854e-20)
(8.19509 -26.2851 5.74401e-21)
(8.17113 -26.2283 4.59774e-20)
(8.10097 -26.1042 -5.82075e-20)
(8.04618 -26.0118 3.23132e-21)
(7.96547 -25.8695 1.88983e-20)
(7.91392 -25.816 5.59202e-22)
(7.85237 -25.7798 5.34404e-21)
(7.79451 -25.7033 -6.92719e-21)
(7.7078 -25.6482 -5.48084e-21)
(7.66809 -25.5702 5.72481e-21)
(7.57382 -25.5661 -9.46332e-21)
(7.54409 -25.4921 0)
(7.42185 -25.464 5.5915e-21)
(7.37034 -25.2924 0)
(0.230895 -2.01461 0)
(2.40544 -8.77301 9.05867e-20)
(6.0002 -19.0114 -1.10766e-19)
(7.86351 -24.4318 9.14429e-20)
(8.42711 -26.0777 -7.04304e-20)
(8.53571 -26.2679 -1.35848e-20)
(8.52076 -26.2345 0)
(8.45924 -26.0937 1.94872e-20)
(8.39328 -25.9645 -2.83011e-20)
(8.3135 -25.8149 1.5073e-20)
(8.25616 -25.7449 -1.0445e-20)
(8.17754 -25.6339 -5.59167e-22)
(8.10095 -25.5732 -1.31742e-20)
(8.04027 -25.5179 3.30866e-20)
(7.9479 -25.4702 -3.18306e-20)
(7.89153 -25.3817 1.03715e-20)
(7.76561 -25.3194 4.20747e-20)
(7.72971 -25.2566 -1.13012e-19)
(7.59294 -25.2245 6.78085e-20)
(7.52394 -25.0255 1.05491e-19)
(0.392233 -2.76063 1.0605e-19)
(3.55783 -11.5191 9.84451e-20)
(6.97583 -21.0308 -9.72768e-20)
(8.61601 -25.3598 -2.02721e-20)
(8.91765 -26.2589 1.6583e-20)
(8.94298 -26.2527 4.52348e-20)
(8.87558 -26.0997 -4.44486e-20)
(8.78872 -25.9217 0)
(8.7074 -25.784 1.27976e-20)
(8.63336 -25.6761 -1.25829e-20)
(8.53056 -25.5195 5.35132e-21)
(8.44602 -25.4305 -5.26481e-21)
(8.36803 -25.3831 0)
(8.28195 -25.3046 0)
(8.17331 -25.2207 -7.38792e-20)
(8.09651 -25.1195 7.43411e-20)
(7.97828 -25.107 8.9304e-20)
(7.93441 -25.0253 -8.74017e-20)
(7.74683 -24.9424 1.06765e-19)
(7.65001 -24.6677 -1.31718e-19)
(0.750165 -3.59988 -4.54014e-20)
(4.76723 -13.4683 2.75022e-20)
(8.04097 -22.5786 1.40773e-20)
(9.33063 -25.7676 1.08998e-19)
(9.44021 -26.1786 0)
(9.40631 -26.0777 0)
(9.27688 -25.8652 5.62783e-20)
(9.19119 -25.721 -2.35831e-20)
(9.08386 -25.5719 -3.13963e-20)
(8.96367 -25.3938 -1.06097e-20)
(8.86592 -25.2907 1.04352e-20)
(8.75604 -25.1859 0)
(8.64979 -25.1075 -6.12519e-20)
(8.54494 -25.0253 6.02887e-20)
(8.43189 -24.9654 0)
(8.33991 -24.8834 0)
(8.18803 -24.8122 0)
(8.11668 -24.694 0)
(7.89091 -24.5708 0)
(7.81811 -24.3299 1.50907e-20)
(1.29186 -4.60613 0)
(5.92892 -15.2807 -9.50012e-20)
(9.02886 -23.5353 0)
(9.98509 -25.8821 0)
(9.97792 -26.0275 1.11813e-19)
(9.85655 -25.8209 -2.07852e-20)
(9.70365 -25.6141 -7.23688e-20)
(9.57863 -25.4333 0)
(9.44331 -25.2776 -1.30681e-21)
(9.32178 -25.1504 4.11329e-21)
(9.18008 -24.9892 0)
(9.0505 -24.8714 -8.93334e-21)
(8.93474 -24.8106 9.45552e-20)
(8.81308 -24.7354 -1.93015e-19)
(8.67395 -24.6373 -1.46475e-20)
(8.54695 -24.5237 1.09334e-19)
(8.40483 -24.4808 1.74811e-20)
(8.31468 -24.3768 -1.88031e-20)
(8.08268 -24.2463 0)
(7.99349 -23.9775 -2.08976e-20)
(1.77375 -5.62746 5.45602e-20)
(6.82483 -16.4715 2.76284e-20)
(9.95383 -24.1072 -1.5419e-19)
(10.5925 -25.7235 3.14685e-20)
(10.4993 -25.6934 8.17306e-21)
(10.3339 -25.4497 5.11674e-20)
(10.1593 -25.2592 -5.48172e-20)
(10.0114 -25.1065 1.47967e-20)
(9.85024 -24.945 3.51769e-20)
(9.67747 -24.7672 -5.22076e-20)
(9.52569 -24.6424 -1.9967e-20)
(9.37139 -24.5354 -1.08787e-19)
(9.22616 -24.4465 5.18579e-20)
(9.07515 -24.3516 1.68895e-19)
(8.93038 -24.2825 -1.5746e-19)
(8.80158 -24.2076 0)
(8.63142 -24.1354 -5.90561e-20)
(8.51142 -23.9857 -2.5344e-20)
(8.25287 -23.8424 4.6108e-20)
(8.16382 -23.5921 -2.73376e-20)
(2.43226 -6.38867 -1.02095e-19)
(7.81087 -17.6849 1.06237e-19)
(10.8349 -24.3921 -5.73592e-21)
(11.209 -25.4629 -5.68122e-20)
(11.0392 -25.3468 -3.6183e-20)
(10.8271 -25.0715 -1.2732e-20)
(10.6088 -24.8632 -7.53017e-21)
(10.4191 -24.6801 2.55028e-21)
(10.2224 -24.5232 0)
(10.0417 -24.3827 1.47904e-20)
(9.84952 -24.2266 1.99649e-20)
(9.66872 -24.1002 -7.77392e-21)
(9.50738 -24.0351 -1.45833e-19)
(9.34686 -23.9665 6.325e-20)
(9.17275 -23.8751 2.01016e-19)
(8.99984 -23.7681 -1.62622e-19)
(8.82718 -23.708 -1.4521e-19)
(8.69398 -23.5979 2.28151e-19)
(8.43481 -23.476 -4.60871e-20)
(8.33741 -23.2182 -3.74264e-19)
(2.89618 -6.98976 -2.32162e-19)
(8.82367 -18.0228 2.30959e-19)
(11.5989 -24.2404 -1.75624e-19)
(11.8745 -24.9664 1.3336e-19)
(11.57 -24.7729 3.84423e-20)
(11.3274 -24.5161 -2.35148e-20)
(11.0698 -24.3366 5.86934e-20)
(10.8508 -24.1891 2.877e-20)
(10.6281 -24.0376 -7.04485e-20)
(10.3956 -23.8816 8.69611e-20)
(10.1875 -23.7533 -2.54886e-19)
(9.98101 -23.6486 1.68344e-19)
(9.78916 -23.5631 3.64842e-20)
(9.59125 -23.472 -1.44569e-19)
(9.40786 -23.4041 3.78805e-19)
(9.23916 -23.3449 -1.93926e-19)
(9.05138 -23.2894 0)
(8.88162 -23.1444 4.50702e-19)
(8.607 -23.0156 -4.43525e-19)
(8.51049 -22.7716 4.18392e-19)
(3.546 -7.59555 3.8945e-20)
(9.80614 -18.6501 5.81239e-20)
(12.3859 -23.9934 1.43541e-19)
(12.4048 -24.3897 2.83916e-20)
(12.0824 -24.1972 -2.85302e-20)
(11.7956 -23.9542 -6.73001e-20)
(11.4968 -23.7605 3.94378e-20)
(11.2369 -23.6082 -1.11444e-19)
(10.9778 -23.4701 2.45431e-19)
(10.7313 -23.3426 -1.01941e-19)
(10.4827 -23.2099 0)
(10.2471 -23.0904 0)
(10.0356 -23.0315 0)
(9.83523 -22.9805 4.41842e-19)
(9.62394 -22.9141 -4.34997e-19)
(9.41121 -22.8242 0)
(9.21137 -22.771 0)
(9.03861 -22.6866 6.78667e-20)
(8.76821 -22.5943 0)
(8.65073 -22.3511 6.09809e-19)
(4.04697 -7.89422 -6.04608e-20)
(10.6212 -18.5416 -1.29531e-19)
(12.971 -23.3967 -1.95159e-20)
(12.9841 -23.6587 4.02245e-20)
(12.5487 -23.4558 -6.68072e-20)
(12.2426 -23.2329 -2.09693e-20)
(11.9031 -23.0782 -3.23363e-20)
(11.6067 -22.9497 1.71153e-19)
(11.3271 -22.8301 0)
(11.0351 -22.7084 1.47795e-19)
(10.773 -22.6018 -2.56472e-19)
(10.5158 -22.5178 0)
(10.2749 -22.4479 -4.97443e-19)
(10.0316 -22.3724 4.89641e-19)
(9.80909 -22.3282 -5.41992e-19)
(9.60435 -22.3025 1.0199e-18)
(9.3966 -22.2787 -5.5131e-19)
(9.1859 -22.1651 -6.78631e-20)
(8.90145 -22.0731 7.8125e-20)
(8.79172 -21.8493 -6.15291e-19)
(4.61727 -8.18448 -2.11749e-20)
(11.4887 -18.5652 3.36564e-20)
(13.6166 -22.8183 4.67992e-20)
(13.4409 -22.8637 -1.22044e-19)
(12.992 -22.6883 -5.88139e-20)
(12.624 -22.4873 1.61836e-19)
(12.2603 -22.3215 1.83935e-19)
(11.9305 -22.2217 -1.40377e-20)
(11.6158 -22.1192 -2.673e-19)
(11.3109 -22.0283 3.70547e-19)
(11.0084 -21.9353 -1.87872e-19)
(10.7211 -21.8383 6.36765e-19)
(10.4607 -21.8005 -4.75968e-19)
(10.2203 -21.7728 6.08415e-19)
(9.96951 -21.737 -5.16625e-19)
(9.71921 -21.6765 -5.6834e-19)
(9.49936 -21.6613 6.32301e-19)
(9.29729 -21.6386 -5.78065e-19)
(9.02668 -21.5924 5.76935e-19)
(8.89806 -21.3734 7.82335e-19)
(5.11054 -8.26631 2.32676e-20)
(12.1563 -18.1642 5.34758e-20)
(14.0569 -21.8669 -5.86735e-20)
(13.8657 -21.9361 1.48705e-19)
(13.3684 -21.7811 -1.46029e-19)
(12.9725 -21.6229 -4.21908e-20)
(12.5785 -21.502 0)
(12.2033 -21.4078 7.11473e-20)
(11.8713 -21.3374 -2.24744e-19)
(11.5251 -21.2601 8.22557e-19)
(11.214 -21.1989 -5.97491e-19)
(10.9129 -21.1556 -1.61837e-19)
(10.6243 -21.1107 -7.74646e-20)
(10.3376 -21.0596 0)
(10.0802 -21.0534 1.1835e-20)
(9.84368 -21.0702 -7.29149e-19)
(9.61443 -21.082 -2.11397e-20)
(9.36907 -21.0368 -2.03025e-19)
(9.09607 -21.0176 7.35656e-19)
(8.96868 -20.8285 -1.93028e-19)
(5.59715 -8.33179 -9.80392e-20)
(12.8576 -17.7727 2.14734e-19)
(14.5166 -21.0565 -1.35707e-19)
(14.195 -20.9683 -2.20987e-19)
(13.6776 -20.8586 -3.7626e-20)
(13.2224 -20.722 1.74218e-19)
(12.8025 -20.5956 -8.20017e-20)
(12.4133 -20.5513 -7.11415e-20)
(12.0486 -20.4983 0)
(11.6981 -20.4579 0)
(11.3487 -20.4166 7.4834e-19)
(11.0203 -20.3624 -1.31732e-18)
(10.7191 -20.3651 7.57677e-19)
(10.4421 -20.3611 0)
(10.1483 -20.3567 1.25455e-20)
(9.86621 -20.3247 9.31139e-19)
(9.63054 -20.3616 -9.19649e-19)
(9.4034 -20.4193 9.77176e-20)
(9.14514 -20.4327 9.47932e-19)
(9.01075 -20.2779 -6.33358e-19)
(6.05192 -8.22098 1.78183e-19)
(13.3502 -17.173 -2.29994e-19)
(14.7575 -19.8886 0)
(14.413 -19.899 0)
(13.9158 -19.8107 -8.80777e-20)
(13.4314 -19.7484 4.30208e-19)
(13.0048 -19.6753 9.96497e-21)
(12.563 -19.6201 -3.69406e-19)
(12.1882 -19.6068 8.18997e-19)
(11.8004 -19.5795 -1.64997e-18)
(11.4494 -19.5756 8.30787e-19)
(11.1159 -19.5863 -2.17409e-19)
(10.7887 -19.5835 -1.01448e-18)
(10.4678 -19.561 -1.43799e-19)
(10.1856 -19.6028 6.66963e-19)
(9.92197 -19.6581 -1.0779e-19)
(9.65992 -19.6837 1.03303e-18)
(9.38816 -19.7231 -9.03682e-19)
(9.14597 -19.7928 1.12111e-20)
(9.00229 -19.6701 -9.37851e-19)
(6.4661 -8.08245 0)
(13.82 -16.52 -2.30166e-19)
(15.0515 -18.8843 2.12222e-19)
(14.5574 -18.8441 0)
(14.0473 -18.7905 8.80677e-20)
(13.522 -18.7337 -4.29648e-19)
(13.0601 -18.6706 5.21903e-19)
(12.6315 -18.6774 0)
(12.2204 -18.675 -9.51868e-19)
(11.8405 -18.6862 9.35943e-19)
(11.4516 -18.6964 -1.29704e-19)
(11.0954 -18.6967 1.16018e-19)
(10.7741 -18.7708 1.17674e-19)
(10.4652 -18.8029 1.1895e-19)
(10.1241 -18.8132 1.14203e-18)
(9.8181 -18.8195 -2.03088e-18)
(9.55713 -18.9181 2.03238e-18)
(9.29783 -19.0219 -2.00866e-18)
(9.0396 -19.1054 8.76277e-19)
(8.91604 -19.0771 -1.24767e-19)
(6.83546 -7.79251 0)
(14.1128 -15.7464 3.58227e-19)
(15.089 -17.5977 -1.86868e-19)
(14.5614 -17.6748 -3.43214e-19)
(14.1019 -17.6757 -3.0743e-20)
(13.5681 -17.711 -2.70722e-20)
(13.1099 -17.6957 4.98773e-19)
(12.6284 -17.6819 0)
(12.2242 -17.7278 0)
(11.8105 -17.7467 0)
(11.4321 -17.7942 1.29698e-19)
(11.0704 -17.8468 0)
(10.7149 -17.8878 1.27695e-18)
(10.3827 -17.9283 -1.11172e-18)
(10.0832 -18.0271 1.13302e-18)
(9.77652 -18.0735 -2.24759e-18)
(9.46182 -18.1069 1.11479e-18)
(9.17698 -18.2211 1.25896e-18)
(8.89698 -18.3472 -2.20839e-18)
(8.74251 -18.3257 1.14283e-18)
(7.18216 -7.49366 0)
(14.3117 -14.8899 0)
(15.1831 -16.4867 -1.1698e-19)
(14.5496 -16.5454 -1.23957e-19)
(14.0407 -16.5705 0)
(13.4933 -16.6074 -5.87486e-19)
(13.0064 -16.6475 5.7718e-19)
(12.557 -16.7031 0)
(12.1052 -16.7462 -1.22924e-18)
(11.7128 -16.8094 1.20868e-18)
(11.2907 -16.8584 0)
(10.9174 -16.9034 1.25052e-18)
(10.5859 -17.046 -1.25485e-19)
(10.2435 -17.0931 -1.23297e-18)
(9.87289 -17.1345 0)
(9.55947 -17.1912 0)
(9.23337 -17.2838 0)
(8.91226 -17.3198 1.09664e-18)
(8.59492 -17.352 -1.22308e-18)
(8.38442 -17.4391 0)
(6.37235 -25.6496 0)
(5.5978 -24.691 0)
(4.94727 -24.9553 1.22145e-21)
(4.45316 -24.5701 1.3935e-21)
(3.99345 -24.7794 0)
(3.49545 -24.4084 5.82853e-23)
(3.09743 -24.5547 -1.87307e-21)
(2.72332 -24.3751 0)
(2.47152 -24.5254 -2.19689e-21)
(2.21124 -24.5193 0)
(2.01752 -24.6255 2.37282e-21)
(1.73318 -24.4927 1.22969e-21)
(1.49068 -24.6209 -1.23647e-21)
(1.29092 -24.4664 -2.57476e-21)
(1.01949 -24.5581 0)
(0.939657 -24.354 6.68797e-22)
(0.643221 -24.3307 -2.85483e-21)
(0.687621 -21.9419 0)
(0.193962 -15.7975 0)
(0.261261 -6.75329 -2.76945e-21)
(6.43508 -25.399 -1.31366e-21)
(5.5781 -24.4674 0)
(4.98229 -24.7857 -6.5931e-21)
(4.48592 -24.4041 4.00523e-21)
(4.03686 -24.654 0)
(3.49802 -24.2998 9.35329e-21)
(3.0893 -24.4546 -3.85037e-21)
(2.70998 -24.2802 0)
(2.48012 -24.4398 -2.30823e-21)
(2.21701 -24.4383 4.5413e-21)
(2.01508 -24.5404 -7.20767e-21)
(1.71929 -24.4078 9.82187e-21)
(1.48209 -24.5554 -7.53118e-21)
(1.27962 -24.3975 2.53727e-21)
(1.01468 -24.504 2.60566e-21)
(0.942949 -24.3007 -2.64895e-21)
(0.652839 -24.2968 4.56927e-21)
(0.695477 -21.8655 6.85818e-21)
(0.18937 -15.7245 3.43179e-21)
(0.270266 -6.68665 3.45919e-21)
(6.4801 -25.1097 -3.05783e-21)
(5.7532 -24.2441 2.59495e-21)
(5.11997 -24.6492 5.56324e-21)
(4.55352 -24.269 0)
(4.0646 -24.4983 0)
(3.55348 -24.1274 -1.1591e-20)
(3.17444 -24.3342 -4.83573e-22)
(2.79861 -24.1957 -3.64918e-22)
(2.57017 -24.3815 -3.29573e-22)
(2.29478 -24.3823 9.21967e-21)
(2.08105 -24.4819 0)
(1.77748 -24.3407 0)
(1.53218 -24.4915 0)
(1.31252 -24.336 1.0444e-20)
(1.04622 -24.4569 0)
(0.962446 -24.2523 1.00614e-20)
(0.661905 -24.2636 -8.91569e-21)
(0.694754 -21.8321 -4.11508e-21)
(0.200661 -15.6943 -6.86356e-21)
(0.280999 -6.63449 -1.11015e-20)
(6.57412 -24.8306 -7.43525e-21)
(5.79608 -24.043 1.58848e-20)
(5.11674 -24.4501 5.70858e-22)
(4.5416 -24.0777 -1.21575e-20)
(4.09137 -24.3746 0)
(3.54951 -24.0264 -1.61662e-20)
(3.15903 -24.231 4.19043e-20)
(2.78901 -24.0977 -2.61592e-20)
(2.57735 -24.2926 1.82639e-20)
(2.29458 -24.2954 -9.60828e-21)
(2.072 -24.3916 -1.71191e-22)
(1.76097 -24.252 1.01091e-20)
(1.52008 -24.4221 -1.01579e-20)
(1.29827 -24.2646 -5.19189e-21)
(1.03948 -24.4018 -4.89355e-21)
(0.960944 -24.2014 -1.08017e-20)
(0.670226 -24.2311 9.62236e-21)
(0.700126 -21.7715 -5.48334e-21)
(0.196707 -15.6411 2.75582e-21)
(0.287762 -6.57073 1.10835e-20)
(6.66508 -24.541 -1.06956e-20)
(5.88346 -23.7955 -4.42043e-21)
(5.25996 -24.3052 1.23974e-20)
(4.66267 -23.9513 -1.97132e-20)
(4.15291 -24.2155 0)
(3.61787 -23.8568 8.15992e-21)
(3.24938 -24.1202 -8.52404e-21)
(2.87937 -24.0237 0)
(2.66483 -24.2342 1.43527e-22)
(2.36768 -24.2339 0)
(2.13272 -24.329 1.97753e-20)
(1.81765 -24.1841 0)
(1.56627 -24.3556 0)
(1.32814 -24.2027 2.11588e-20)
(1.06733 -24.3581 -1.0484e-20)
(0.978408 -24.153 1.09101e-20)
(0.677699 -24.2014 0)
(0.698557 -21.7442 -2.74782e-21)
(0.204378 -15.619 2.74449e-21)
(0.295693 -6.52041 0)
(6.75278 -24.2243 -8.6406e-21)
(6.01322 -23.6174 1.06253e-20)
(5.29527 -24.0807 -3.11949e-20)
(4.63653 -23.7402 3.42095e-20)
(4.16716 -24.0853 -1.60564e-20)
(3.60756 -23.7557 -8.19837e-21)
(3.2309 -24.0112 1.78661e-20)
(2.87223 -23.9226 1.84724e-20)
(2.66829 -24.1414 -9.43218e-21)
(2.36149 -24.1413 -1.97394e-20)
(2.11807 -24.2355 9.86534e-21)
(1.79833 -24.0931 0)
(1.55037 -24.2819 0)
(1.31169 -24.13 1.10599e-22)
(1.06196 -24.3007 1.06679e-20)
(0.976523 -24.1018 -1.0895e-20)
(0.686282 -24.1705 0)
(0.70102 -21.6987 2.21794e-20)
(0.19868 -15.5849 1.6147e-20)
(0.296648 -6.46126 1.38161e-21)
(6.86247 -23.938 2.62494e-20)
(6.06226 -23.3378 -3.20133e-20)
(5.36763 -23.9282 1.29127e-20)
(4.74122 -23.6122 0)
(4.22385 -23.9228 1.61182e-20)
(3.67367 -23.5887 -3.52381e-20)
(3.32603 -23.9073 1.73952e-20)
(2.96254 -23.8553 -1.85257e-20)
(2.75319 -24.0804 0)
(2.43125 -24.0741 0)
(2.17541 -24.1696 -2.04416e-20)
(1.85224 -24.0244 2.05093e-20)
(1.59104 -24.2133 0)
(1.33861 -24.069 -3.20014e-20)
(1.08715 -24.2576 1.07255e-20)
(0.991354 -24.0552 1.09231e-20)
(0.694252 -24.1415 -9.27375e-21)
(0.699964 -21.6774 -2.76056e-20)
(0.202297 -15.571 -1.2861e-20)
(0.299195 -6.41508 -2.76022e-21)
(6.93617 -23.6411 0)
(6.18821 -23.1717 2.70454e-20)
(5.49064 -23.6932 -2.48521e-20)
(4.73513 -23.3929 0)
(4.24546 -23.7903 0)
(3.6705 -23.4906 3.62896e-20)
(3.31308 -23.7979 -3.63879e-20)
(2.95628 -23.7518 0)
(2.7504 -23.9831 -1.98938e-20)
(2.42205 -23.9763 4.02508e-20)
(2.15742 -24.0738 -2.03551e-20)
(1.83011 -23.9314 -2.09924e-20)
(1.57194 -24.1353 2.10534e-20)
(1.32153 -23.9955 0)
(1.08107 -24.1993 0)
(0.989148 -24.0041 1.09453e-20)
(0.702182 -24.1127 -1.39491e-20)
(0.700167 -21.6461 -3.09915e-24)
(0.195308 -15.5537 4.92132e-21)
(0.293419 -6.36268 -2.75478e-21)
(7.10871 -23.315 -2.59518e-20)
(6.23056 -22.8793 2.60075e-20)
(5.50257 -23.5355 4.84046e-20)
(4.81519 -23.2425 -6.61968e-20)
(4.29231 -23.6229 6.98532e-20)
(3.72931 -23.3268 1.38065e-21)
(3.41098 -23.6943 -3.74389e-20)
(3.04459 -23.6849 0)
(2.82658 -23.9196 0)
(2.48997 -23.905 -2.06009e-20)
(2.21283 -24.0048 0)
(1.87925 -23.8614 0)
(1.60761 -24.0656 0)
(1.34519 -23.9357 0)
(1.10376 -24.1573 0)
(1.00127 -23.9591 0)
(0.709722 -24.0851 9.33214e-21)
(0.69941 -21.63 -1.09154e-20)
(0.195051 -15.5464 1.6328e-21)
(0.292012 -6.32317 -2.74901e-21)
(7.19441 -22.9907 5.27316e-21)
(6.35889 -22.6723 4.34172e-20)
(5.66435 -23.2973 1.75476e-20)
(4.81853 -23.0263 1.90276e-20)
(4.31491 -23.4868 -1.69221e-20)
(3.72791 -23.2307 -5.63849e-20)
(3.40366 -23.5868 -1.98497e-20)
(3.03504 -23.5781 0)
(2.81452 -23.8175 2.06058e-20)
(2.47796 -23.8045 -4.15398e-20)
(2.19258 -23.9066 -2.1136e-20)
(1.85493 -23.7665 -2.14377e-20)
(1.58736 -23.9841 0)
(1.32863 -23.8618 -2.1879e-20)
(1.09787 -24.0988 -2.1793e-20)