/*--------------------------------*- C++ -*----------------------------------*\
  =========                 |
  \\      /  F ield         | OpenFOAM: The Open Source CFD Toolbox
   \\    /   O peration     | Website:  https://openfoam.org
    \\  /    A nd           | Version:  9
     \\/     M anipulation  |
\*---------------------------------------------------------------------------*/
FoamFile
{
    format      ascii;
    class       volScalarField;
    location    "0.3";
    object      nut;
}
// * * * * * * * * * * * * * * * * * * * * * * * * * * * * * * * * * * * * * //

dimensions      [0 2 -1 0 0 0 0];

internalField   nonuniform List<scalar> 
46400
(
0.0193084
0.00626256
0.00153296
0.00144
0.00139996
0.00140718
0.00133687
0.00130237
0.00125648
0.00121915
0.00116985
0.00112168
0.00108387
0.00106171
0.00104208
0.00103974
0.000988437
0.000949491
0.00127678
0.00103393
0.0188982
0.00568627
0.00165077
0.00154794
0.00146722
0.00144983
0.0013647
0.0013336
0.00126481
0.00122323
0.00118308
0.00116003
0.00112836
0.00108746
0.00104504
0.00100633
0.000925647
0.000844179
0.00110904
0.000984364
0.0184749
0.00446746
0.00130545
0.00152237
0.00139325
0.00140743
0.00132943
0.00130081
0.00125723
0.00121716
0.00116242
0.00110589
0.00106869
0.00103865
0.00102139
0.00102075
0.000948125
0.000911046
0.00119963
0.00100699
0.0179362
0.00419433
0.00131989
0.00157278
0.00146076
0.00146413
0.00138727
0.00134934
0.00129185
0.00124877
0.00121383
0.00117742
0.00113996
0.00108728
0.00102845
0.000997982
0.000924733
0.000852503
0.00115873
0.0010087
0.0172657
0.00476127
0.00140281
0.00157776
0.00142461
0.00142419
0.00134729
0.00130726
0.00126486
0.00122726
0.00118501
0.00113851
0.0011081
0.00109583
0.0010781
0.00105134
0.00100788
0.000949723
0.00121705
0.00105825
0.0166267
0.00491729
0.00145441
0.00163628
0.0014908
0.00148599
0.00142006
0.00137208
0.00130991
0.00125095
0.00121395
0.00117244
0.00112839
0.00107989
0.00107152
0.00104282
0.000976436
0.000938928
0.00122818
0.00108684
0.0159248
0.00490996
0.00149972
0.00164283
0.0014814
0.00143605
0.00136721
0.00132292
0.00130294
0.00126283
0.0012185
0.00117506
0.00114779
0.00108851
0.00105232
0.00105864
0.0010013
0.000944696
0.00120742
0.00106406
0.0147397
0.00398287
0.00149956
0.00163919
0.00151991
0.00147636
0.00141344
0.00133321
0.00127721
0.00123975
0.00121368
0.00116683
0.00115502
0.0011314
0.00107526
0.00103995
0.0010122
0.000934233
0.00118968
0.00110358
0.0127603
0.00310961
0.00150909
0.00155885
0.00150362
0.00144175
0.00140849
0.00134661
0.00128777
0.00122037
0.00119595
0.00114716
0.00109778
0.00108159
0.00107215
0.00102432
0.000992607
0.000930929
0.00111166
0.00104802
0.010412
0.00254539
0.00159517
0.00154114
0.00146515
0.00141026
0.0013877
0.00135433
0.00133736
0.00125867
0.0012116
0.00118268
0.00114929
0.00109038
0.00108177
0.00105037
0.000997161
0.000947957
0.00109556
0.00103622
0.00839739
0.00215752
0.00152775
0.00150825
0.0014826
0.00138351
0.00133394
0.00125892
0.00125428
0.00123141
0.0011863
0.00112755
0.00111615
0.00107187
0.00103959
0.00102597
0.000983877
0.000937377
0.00105994
0.00100395
0.00703343
0.00192593
0.00155657
0.00148108
0.00148407
0.00143453
0.00141574
0.00134735
0.00129418
0.00124526
0.00123369
0.0011693
0.00112665
0.00109152
0.00105425
0.00102464
0.000984246
0.00093682
0.00103478
0.000986706
0.00586787
0.00178501
0.00156827
0.00143684
0.00139702
0.00131953
0.00129343
0.00124441
0.00124363
0.00118247
0.0011764
0.001161
0.00112996
0.00109568
0.00106839
0.00104527
0.00101109
0.000969224
0.00104747
0.00100151
0.00508272
0.00171067
0.0015885
0.00150356
0.00150965
0.00143354
0.00140847
0.00129594
0.00125434
0.00119425
0.00112904
0.00109369
0.00106483
0.00103852
0.00101215
0.000995328
0.000971485
0.00093893
0.00100628
0.00097404
0.004294
0.00156988
0.00159492
0.00149276
0.00140726
0.001352
0.0013884
0.00135961
0.00132029
0.00128682
0.00124227
0.00117709
0.00112795
0.00107873
0.00103426
0.000999114
0.000963131
0.000923932
0.000971937
0.000942177
0.00422755
0.00165821
0.00165894
0.00156825
0.00153961
0.0013392
0.00127816
0.00124969
0.00121781
0.00120022
0.00118342
0.00117101
0.0011354
0.00111123
0.00107747
0.00104748
0.00101413
0.000969134
0.0010176
0.000947926
0.00363936
0.00142027
0.0014183
0.00147196
0.00159942
0.0015422
0.00143798
0.00135712
0.00128654
0.00123153
0.00117425
0.00114314
0.00110494
0.00107242
0.00104175
0.00101301
0.000979844
0.000935104
0.000975658
0.000939222
0.00382449
0.00170429
0.00156425
0.00132982
0.00129402
0.00135544
0.00133733
0.00132949
0.0012842
0.00124485
0.00121145
0.00116317
0.00113635
0.0010954
0.00106453
0.00103452
0.000995435
0.000951122
0.000977353
0.000918047
0.00286331
0.0017165
0.00160132
0.00147888
0.00137169
0.00129464
0.00128022
0.00124477
0.00123274
0.0011853
0.00115355
0.00112307
0.00109074
0.00106506
0.00103945
0.00101654
0.000985978
0.000929832
0.000969918
0.000899927
0.00121863
0.00116662
0.00161751
0.00149193
0.00154517
0.00141459
0.00140562
0.00129321
0.001276
0.00121251
0.00119295
0.00113575
0.00111557
0.00106487
0.00104194
0.00100451
0.000981258
0.00091847
0.000969923
0.000876801
0.00224844
0.00956448
0.012645
0.00929774
0.00348256
0.000366121
0.000226275
0.000398995
0.000482778
0.00050143
0.0005058
0.000495496
0.000460583
0.000480977
0.000507331
0.000522865
0.00045728
0.000518543
0.000661312
0.000640383
0.00243915
0.0108695
0.0125137
0.00730998
0.00178388
0.00012135
0.000350233
0.000509947
0.000567567
0.000517538
0.000486865
0.000462042
0.000495017
0.000545707
0.00050916
0.00052455
0.000529872
0.000606706
0.000677227
0.000622241
0.00378883
0.0120339
0.011591
0.00542513
0.000510959
0.000260106
0.000536192
0.000591718
0.000533176
0.000522708
0.000541473
0.000573462
0.000553446
0.000548207
0.000560034
0.000573561
0.000517255
0.000616617
0.000696953
0.000640005
0.0063768
0.0128191
0.0105807
0.00296232
0.000200834
0.000442296
0.000615643
0.000644846
0.000615998
0.000624517
0.00059869
0.000541425
0.000563227
0.00060548
0.000565779
0.000577564
0.000587522
0.000711413
0.00073084
0.00064834
0.00890858
0.0132394
0.00938832
0.00132768
0.00036689
0.000641277
0.000756826
0.000702935
0.000662024
0.000618723
0.000607268
0.000649602
0.000644715
0.000627588
0.000634357
0.000646011
0.000598706
0.000712812
0.000722168
0.000649732
0.0112248
0.0133654
0.00840889
0.000510434
0.000384889
0.000795578
0.000821062
0.000728679
0.000719675
0.000725479
0.000707776
0.000647494
0.000659135
0.000676831
0.000628526
0.000635077
0.000640694
0.000785653
0.000763389
0.000680822
0.014166
0.0132574
0.00627432
0.000380625
0.000655976
0.000891934
0.000888459
0.000815293
0.000784967
0.000730091
0.00069738
0.00072293
0.0007163
0.000699084
0.000706336
0.000717325
0.000681204
0.000799598
0.000746808
0.000674171
0.015754
0.0132127
0.00434994
0.000187805
0.000832039
0.000986858
0.000914352
0.000841031
0.000815829
0.000809219
0.000790735
0.00074467
0.000755196
0.000746643
0.000692714
0.000688504
0.000684884
0.000833202
0.000782372
0.000718608
0.0172539
0.0128219
0.0030245
0.00034044
0.000955666
0.00103765
0.00097748
0.00091657
0.000887365
0.00082756
0.000790365
0.000788163
0.000771748
0.000762296
0.000762862
0.000761177
0.000739397
0.000857515
0.000736789
0.00068631
0.0177515
0.012594
0.00203074
0.000413306
0.0010471
0.00108953
0.00102319
0.000935721
0.000907232
0.00088828
0.00086101
0.000831767
0.000835803
0.000811201
0.000766192
0.000744208
0.000726522
0.000881401
0.000777976
0.000710561
0.0184882
0.012126
0.00147435
0.000581558
0.00115634
0.0011195
0.00108427
0.00101391
0.000978102
0.000916971
0.00088031
0.000856021
0.000834236
0.000828454
0.000822907
0.000818162
0.000802505
0.0009154
0.000763281
0.000722717
0.0192516
0.0117941
0.00108689
0.000857162
0.00119894
0.00116906
0.0011194
0.0010195
0.000987923
0.000960288
0.000924221
0.000906877
0.000899398
0.000873801
0.000841256
0.000802412
0.000783136
0.000934389
0.000797184
0.000773324
0.019563
0.0113208
0.00149992
0.000925585
0.00126684
0.00116932
0.00117364
0.00109834
0.00105183
0.000996676
0.000954208
0.000917769
0.000889138
0.000871267
0.000859982
0.000849159
0.000813511
0.00089723
0.000725423
0.000737791
0.0200387
0.0109569
0.00139729
0.00112236
0.00132271
0.0012462
0.00119142
0.00110536
0.0010619
0.00102682
0.000986823
0.000969432
0.000957395
0.000933513
0.000896125
0.000850631
0.000836823
0.000936913
0.000761552
0.000793729
0.0201105
0.0105507
0.00235856
0.00113339
0.00134682
0.00123031
0.00124338
0.00117038
0.00112002
0.00107209
0.00102303
0.00098255
0.000945136
0.000928386
0.00091623
0.000892874
0.00085438
0.00091325
0.00070057
0.000725196
0.0203439
0.0103496
0.00222194
0.00126404
0.00142261
0.00131152
0.00125094
0.00118847
0.00112904
0.00109225
0.00104979
0.0010287
0.00101239
0.000984793
0.000947017
0.000899688
0.000884701
0.000922136
0.00070723
0.000810703
0.0202225
0.00995316
0.00198946
0.00122169
0.00139584
0.00130206
0.001295
0.00123641
0.00118691
0.00114402
0.0010945
0.00105066
0.00100875
0.000993588
0.000976715
0.000953963
0.000932849
0.000943349
0.000665758
0.000793656
0.0202138
0.0094985
0.00226791
0.00136148
0.00146227
0.00137163
0.00129622
0.00125687
0.00118973
0.0011553
0.00111495
0.00109869
0.00108102
0.00105547
0.00101891
0.000978907
0.00098506
0.000967893
0.000681056
0.000845133
0.0199115
0.00825886
0.00171636
0.00133533
0.00140722
0.00136683
0.001333
0.00128947
0.00124309
0.00120404
0.00115429
0.00110871
0.00107349
0.00106197
0.00104962
0.0010376
0.00104269
0.00102945
0.000709812
0.000857665
0.0196939
0.00774438
0.00217967
0.00145914
0.00148234
0.00141928
0.00133366
0.00130902
0.00124211
0.00121096
0.00117505
0.00116054
0.00114419
0.00111996
0.00109035
0.00110314
0.00110586
0.00108587
0.000899669
0.000993646
0.00441308
0.00285213
0.00264641
0.00223331
0.0019812
0.00174818
0.00148264
0.00115339
0.00100194
0.000770637
0.000736506
0.000451331
0.000474587
0.000298893
0.000316905
0.000225912
0.000230238
0.000337546
0.00162855
0.0116371
0.00439625
0.00291312
0.00261887
0.0022163
0.00195612
0.00170618
0.00147674
0.00117747
0.00102743
0.000865681
0.000752216
0.000538405
0.000500988
0.000378941
0.000270135
0.000274169
0.000201368
0.000329622
0.00166405
0.0119289
0.00459333
0.00298134
0.00269461
0.00220457
0.00198259
0.00172702
0.00145488
0.00114936
0.000994018
0.000817349
0.00073512
0.000503174
0.00049225
0.000276922
0.000269054
0.000188397
0.000183275
0.000298102
0.00169933
0.0122259
0.00457484
0.0030111
0.00279153
0.00224285
0.00197297
0.00169719
0.00145857
0.00117694
0.00102138
0.000875848
0.000749442
0.000575868
0.000512893
0.000337709
0.000325475
0.000230672
0.000166221
0.000291219
0.00172986
0.0125283
0.0048172
0.0030805
0.00276882
0.00219207
0.00198279
0.00170081
0.00143692
0.00115009
0.000987764
0.000856271
0.000735631
0.0005482
0.000503323
0.000342895
0.000333889
0.000167395
0.000149076
0.000272942
0.00175736
0.0128342
0.00482897
0.0031035
0.00285521
0.00222617
0.00197497
0.00168356
0.00144719
0.00118409
0.00101619
0.000883184
0.000751242
0.000622144
0.000516552
0.000386866
0.000359887
0.000184598
0.000166954
0.000253302
0.00178171
0.0131502
0.00506299
0.00317903
0.00287584
0.00220409
0.00197527
0.0016762
0.00141864
0.00115957
0.000983996
0.00086634
0.000734403
0.000596225
0.00050852
0.000392085
0.000359188
0.00018599
0.000183475
0.000232064
0.00180358
0.0134777
0.0051281
0.00323473
0.00291231
0.00223793
0.0019718
0.00167201
0.00143358
0.00119576
0.00101235
0.000892978
0.000755112
0.000656911
0.000523472
0.000435763
0.000369724
0.000219786
0.000216913
0.000204792
0.00181869
0.0138181
0.00525433
0.00329654
0.00296735
0.00221169
0.0019683
0.00165712
0.00140324
0.00117264
0.000983702
0.000874912
0.00073412
0.000639476
0.000517358
0.000441911
0.000372419
0.000237871
0.000234623
0.000176405
0.00183255
0.0141442
0.00527869
0.00335062
0.00294896
0.00223524
0.0019495
0.00166033
0.00142058
0.00120874
0.00101239
0.000904039
0.000758595
0.000661837
0.000532942
0.000468216
0.000382132
0.000273009
0.00025186
0.000144347
0.00184574
0.0144282
0.00531602
0.00340081
0.00302705
0.00221955
0.00196434
0.00164352
0.00139156
0.00118596
0.000987621
0.000884696
0.000741549
0.000650563
0.000529312
0.000468858
0.00038614
0.000289606
0.000246864
0.000114827
0.0018624
0.0147076
0.00552945
0.00335002
0.00298769
0.0021886
0.00192662
0.00165318
0.0014099
0.0012209
0.0010147
0.000912432
0.000762804
0.00067042
0.00054607
0.000484167
0.000396058
0.000326168
0.000247016
9.09154e-05
0.00184165
0.0150247
0.00562223
0.00351957
0.00307716
0.00219265
0.0019261
0.00163723
0.00138163
0.00119974
0.00099391
0.000895819
0.000750502
0.000661929
0.000543249
0.00048654
0.000400572
0.000346615
0.000244429
7.74814e-05
0.00179758
0.0153573
0.00556899
0.0033907
0.00302965
0.00218276
0.00188868
0.00165076
0.00140004
0.00123127
0.00101859
0.000919708
0.000769722
0.000683089
0.000562041
0.000502812
0.000412397
0.000359839
0.000250469
5.7132e-05
0.00177605
0.0156849
0.00582689
0.0034868
0.00304589
0.00220827
0.00188054
0.00163605
0.00137481
0.00121209
0.00100163
0.000906422
0.000758567
0.000674388
0.000559686
0.00050592
0.00041915
0.000368978
0.000257583
3.57823e-05
0.00175436
0.0159951
0.0057323
0.00337172
0.00298908
0.00218657
0.00184209
0.00164985
0.00138958
0.00123863
0.00102267
0.000927762
0.000776856
0.000694586
0.000578389
0.000522329
0.000433791
0.00038737
0.000274674
0.000196785
0.00168743
0.0162445
0.00600451
0.00343532
0.00295041
0.00220659
0.00183278
0.00163707
0.00136839
0.00122179
0.00100788
0.000915453
0.000766617
0.000686533
0.000576642
0.000525674
0.00044306
0.000401552
0.000292756
0.000319859
0.00155841
0.0164814
0.00589915
0.00329965
0.00284283
0.00218912
0.00181055
0.00165893
0.00138801
0.00124981
0.00102966
0.000938381
0.00078484
0.000704793
0.000595183
0.000543625
0.000461316
0.000425206
0.000321059
0.000409705
0.00137472
0.0167025
0.00602821
0.00336841
0.00276592
0.00217153
0.0017806
0.00163898
0.00136798
0.00123327
0.00101638
0.000926667
0.000777209
0.000698698
0.000593785
0.000546784
0.000471942
0.000443121
0.00034553
0.000556937
0.0012568
0.0167528
0.00641273
0.0033675
0.00263915
0.00212046
0.00176398
0.00164988
0.00137667
0.00124668
0.00102981
0.000940249
0.000788692
0.000708845
0.000608726
0.000562354
0.000492084
0.000466487
0.000384735
0.000616296
0.00131761
0.0169524
0.0178643
0.0321024
0.0216335
0.0238672
0.0202733
0.0186736
0.0152291
0.0135306
0.0109183
0.00990288
0.00832991
0.00735551
0.00635065
0.00591052
0.00551741
0.00534646
0.00535228
0.00623745
0.00597253
0.165995
0.0290848
0.0219869
0.0194581
0.0171245
0.0145747
0.0120233
0.0107294
0.0083683
0.00797434
0.00686962
0.00594721
0.00543189
0.00497432
0.00486203
0.00456353
0.00461721
0.0044648
0.00553013
0.0169615
0.163937
0.0158291
0.0143074
0.0140516
0.011582
0.00997519
0.00868388
0.0077882
0.00737963
0.005267
0.00617256
0.00547948
0.00524805
0.00492252
0.00499087
0.00459858
0.00469256
0.00450403
0.00527224
0.0137206
0.166113
0.0119851
0.00945958
0.00862824
0.0083373
0.0077681
0.00709738
0.00645547
0.00614443
0.0054838
0.00515281
0.00470498
0.00400326
0.00382663
0.00363723
0.00316028
0.00317063
0.00286908
0.00454276
0.013776
0.171333
0.00383728
0.00535533
0.00759838
0.00648569
0.00553548
0.00502357
0.00476359
0.00447044
0.0040907
0.00387401
0.00338932
0.00349833
0.00287884
0.003167
0.00275199
0.00279693
0.00217593
0.00444285
0.0152792
0.181193
0.00525416
0.00434075
0.00414419
0.00357245
0.00392373
0.00429204
0.00435665
0.00398423
0.00327841
0.00321275
0.00285005
0.0028027
0.00230838
0.00254169
0.00218724
0.00194874
0.00110236
0.00259435
0.0205016
0.193675
0.0043991
0.00105402
0.00392479
0.00314989
0.00326382
0.00294242
0.00323447
0.00284396
0.00243755
0.00254636
0.0022134
0.00230012
0.00178479
0.00204178
0.00205016
0.0014855
0.000862258
0.00132833
0.0257959
0.203915
0.0059928
0.00199653
0.00266249
0.00112032
0.00274396
0.00274321
0.0029559
0.00228036
0.00214234
0.00268776
0.00229405
0.00246364
0.00160493
0.002202
0.00315735
0.00216528
0.000899681
0.00144204
0.0303333
0.197496
0.00658298
0.000375092
0.00319448
0.00115464
0.00300601
0.00217616
0.00256814
0.00153405
0.00190003
0.00297322
0.00229071
0.0026641
0.00106406
0.00257933
0.00467972
0.00348015
0.00080463
0.00219306
0.0381389
0.190829
0.00480248
0.00199395
0.00285776
0.0015939
0.00199667
0.00161888
0.00235687
0.00137124
0.00175964
0.00320841
0.00296309
0.00262364
0.000667029
0.00216113
0.00737771
0.00535302
0.00193331
0.00259894
0.0466835
0.18481
0.00108888
0.000643324
0.00208488
0.00127847
0.00205949
0.000883016
0.00211221
0.00127238
0.00186226
0.00314754
0.00305306
0.0026069
0.00153105
0.000811743
0.0108092
0.00596326
0.00367888
0.00389647
0.0575935
0.178803
0.00142235
0.000437023
0.000173458
0.00120916
0.001258
0.000641325
0.000631088
0.00054349
0.000887976
0.00322035
0.00294175
0.00246997
0.00139187
0.000340142
0.0117471
0.00308511
0.00412183
0.00415073
0.0715476
0.172836
0.00240891
0.000261817
0.00199103
0.000727568
0.00155338
0.000968006
0.000884008
0.00121134
0.000759245
0.00284086
0.00353706
0.00355445
0.000719223
0.00294144
0.012034
0.000774409
0.00336785
0.00406431
0.0826745
0.16657
0.00190165
0.000683981
0.00206763
0.0002856
0.000806669
0.000993082
0.000955776
0.00201951
0.00165107
0.00111767
0.00540309
0.0038548
0.000988612
0.00399706
0.0111789
0.00176022
0.00267581
0.00647734
0.0914974
0.159278
0.00186085
0.000169294
0.00094057
0.000746473
0.00102304
0.00146507
0.000261784
0.00165445
0.00166389
0.00180236
0.00506543
0.00356265
0.00222885
0.00487615
0.00927053
0.00710451
0.00350183
0.00130279
0.0911339
0.159643
0.00127489
0.000282697
0.000956005
0.000782546
0.000881987
0.0017931
0.000137271
0.00235415
0
0.00140978
0.00341606
0.00355787
0.00309277
0.00476669
0.00706595
0.0108207
0.00511968
0.0090929
0.078947
0.176227
0.000157287
0.000256578
0.00023126
0.000183572
0.000224289
0.00124418
0.00026365
0.00142506
0.0007076
0.00138021
0.00289209
0.00408092
0.00110432
0.00446382
0.00154368
0.00773029
0.00310505
0.0105188
0.0538037
0.191392
0.000183838
0.000207237
8.29515e-05
0.000281446
0.000325033
0.000595733
0.00033231
0
0.00100856
0.00182574
0.00171105
0.00379751
0.00198567
0.00472593
0.00221266
0.00513113
0.00550507
0.0100914
0.0193071
0.11809
0.000168773
0.00015627
0.000223608
0.000142119
0.0003648
9.38143e-05
0.000425347
1.9947e-05
0.000433374
0.000185518
0.000161604
0.00226425
0.00132393
0.00368393
0.00158294
0.0047412
0.00302809
0.00601272
0.00325293
0.0516219
0.000123917
0.000108393
0.000204278
0.000253306
0.000314601
0.000274895
0.000280961
0.000465952
0.000290215
3.91835e-05
6.41697e-05
8.74763e-05
0.00146786
0.000541134
0.00244907
0.00185973
0.00465942
0.0036644
0.00862867
0.0134674
0.0138815
0.0139076
0.013727
0.0137922
0.0136007
0.0135713
0.0136763
0.0133952
0.0128339
0.0130475
0.012227
0.0117821
0.0118207
0.011623
0.0111219
0.0096643
0.0101392
0.0101046
0.00941537
0.00961332
0.00682883
0.00681667
0.00674556
0.00675345
0.00659629
0.00669835
0.00643229
0.00659569
0.00649771
0.00654557
0.00605979
0.006951
0.0069397
0.00621705
0.00660317
0.00702418
0.00663116
0.00680246
0.00659802
0.00730474
0.00410813
0.00410947
0.00413475
0.00417264
0.0042232
0.00424647
0.00427205
0.00439975
0.00425986
0.00444513
0.00443892
0.00424616
0.00371636
0.00405213
0.00390253
0.00394863
0.00347909
0.00369544
0.00297358
0.00350522
0.00266939
0.00265259
0.00264035
0.00263388
0.00259116
0.002547
0.00253852
0.0024697
0.00241053
0.00237984
0.00229421
0.00240671
0.00252661
0.00247064
0.00241736
0.00249534
0.00256425
0.00302155
0.00267138
0.00295787
0.00159974
0.00159666
0.00161304
0.0016222
0.00160616
0.00162725
0.00161849
0.00164751
0.00166173
0.00171042
0.00176395
0.00185702
0.0017261
0.00176851
0.00175726
0.00184956
0.00177138
0.00178971
0.00141535
0.00150276
0.00112274
0.00109905
0.00114604
0.00114825
0.00116167
0.00117922
0.00118406
0.00120419
0.0011979
0.00120348
0.0011621
0.00113476
0.0011215
0.00119387
0.00120729
0.00125774
0.00134763
0.00144339
0.00146015
0.00151875
0.000477944
0.00051564
0.000597661
0.000581467
0.00063993
0.000631651
0.000688417
0.000687902
0.000718404
0.000710824
0.000705
0.000738068
0.000728004
0.000855016
0.000812244
0.000914369
0.000966038
0.00102076
0.00121876
0.00125225
9.43429e-05
0.000205192
0.000303331
0.000323723
0.000362469
0.000342413
0.000377142
0.000337966
0.000358715
0.000311015
0.000314217
0.00029029
0.000299727
0.000311083
0.00033102
0.000552999
0.000632431
0.00121893
0.00180684
0.00221161
0.000221605
0.000288357
0.000395387
0.000390086
0.000392737
0.000343861
0.00032876
0.000245762
0.000223021
0.000157453
0.000149966
0.000131585
0.00017743
0.000235623
0.000211324
0.000399353
0.000677366
0.000946548
0.00346028
0.00323852
0.000562195
0.000742873
0.000547835
0.000458643
0.000477304
0.000343901
0.000281571
0.000153839
0.000161333
3.97613e-05
9.42916e-05
1.21148e-24
8.27903e-05
3.79434e-05
0.000173978
0.000193074
0.000650101
0.00148042
0.00458317
0.00529542
0.000546587
0.00108028
0.000684868
0.000514499
0.000402811
0.000310804
0.000205775
0.000114545
0.000128013
0.000119025
0.000200715
0.00011988
0.000134644
0.000187024
0.00017502
0.000251923
0.000401757
0.00179865
0.00466484
0.0053965
2.2114e-06
0.00123505
0.000757256
0.000564573
0.00042533
0.00035284
0.000183101
0.000125869
8.23029e-05
0.000158132
6.20559e-05
0.000356488
0.000349834
0.000388176
0.000447327
0.000396591
0.00064268
0.00160946
0.00359746
0.00516026
0.000759373
0.00156892
0.000898345
0.000759392
0.000639491
0.000568275
0.000477501
0.000389042
0.000384843
0.000355199
0.000403686
0.000453257
0.000424158
0.00044661
0.000385095
0.000170542
0.000315458
0.000663283
0.00114186
0.00404824
0.00159478
0.00184515
0.000911787
0.000858719
0.000664079
0.000594586
0.000411076
0.000377016
0.000360054
0.000410156
0.000343411
0.000382971
0.000283288
0.00026659
0.000326432
0.000257604
0.000356546
0.000478806
0.000639388
0.00236535
0.000946759
0.000783593
0.000434392
0.000385891
0.000334611
0.000245245
0.000188658
0.0001726
0.000169399
0.000176877
0.000145949
0.000168777
0.000116636
0.000168643
0.000164059
0.000292327
0.000249935
0.000442264
0.000449688
0.000884395
0.00030134
0.000244393
0.000197076
0.000171928
0.000179745
5.15706e-05
8.51569e-05
7.25295e-05
8.47193e-05
0.000120058
0.000107948
0.000159159
0.000130875
0.000175215
9.64892e-05
0.000225165
9.99993e-05
0.000259867
2.8725e-05
0.00018513
0.000104043
7.12217e-05
9.48639e-05
6.51149e-05
7.73923e-05
3.81787e-05
4.4541e-05
5.00988e-05
3.55985e-05
6.3823e-05
4.67018e-05
7.62687e-05
5.51272e-05
8.81549e-05
5.2859e-05
0.000116135
3.88852e-05
0.000188124
8.7508e-05
0.000235597
3.77075e-05
3.39327e-05
2.95485e-05
4.17997e-05
4.93041e-05
5.54511e-05
2.59051e-05
4.75589e-05
1.83522e-05
4.70099e-05
1.1069e-05
5.46446e-05
1.28084e-05
6.88259e-05
1.68871e-05
8.53789e-05
1.91522e-05
9.13172e-05
3.36045e-05
0.000108076
1.65393e-05
2.6566e-05
1.81314e-05
3.00189e-05
1.24741e-05
3.1084e-05
2.48357e-05
3.26275e-05
2.82797e-05
3.57727e-05
3.02503e-05
3.88758e-05
3.23633e-05
3.95268e-05
3.52593e-05
3.69646e-05
3.76444e-05
3.75447e-05
3.82259e-05
4.91013e-05
5.82539e-07
5.11853e-06
6.48665e-06
7.37471e-06
1.074e-05
9.97698e-06
1.39326e-05
1.1318e-05
1.49048e-05
1.39671e-05
1.5687e-05
1.74145e-05
1.67455e-05
1.97234e-05
1.81176e-05
1.96505e-05
2.08458e-05
1.96694e-05
2.23734e-05
1.65409e-05
0.00103341
0.00127783
0.000948839
0.000988581
0.00103942
0.00104199
0.00106162
0.00108391
0.00112184
0.00116994
0.00121943
0.00125643
0.00130292
0.00133694
0.00140781
0.00140025
0.00143999
0.0015323
0.0062626
0.0193087
0.000983576
0.00111015
0.000843677
0.000925785
0.00100624
0.00104512
0.00108754
0.00112859
0.00116044
0.00118328
0.00122376
0.00126488
0.00133413
0.0013644
0.00145003
0.00146659
0.00154785
0.0016485
0.00568336
0.0188986
0.00100604
0.00120066
0.000910315
0.000948266
0.00102061
0.0010215
0.00103891
0.00106907
0.00110633
0.00116265
0.00121765
0.00125732
0.0013015
0.00132933
0.00140818
0.00139304
0.00152237
0.00130518
0.00446314
0.0184759
0.00100719
0.00115967
0.000851707
0.000925043
0.000998031
0.00102871
0.00108765
0.00114027
0.00117794
0.00121416
0.0012495
0.00129206
0.00135005
0.00138714
0.00146471
0.00146003
0.00157338
0.00131902
0.00418707
0.0179367
0.001058
0.00121928
0.000949831
0.00100889
0.00105197
0.00107882
0.00109639
0.00110865
0.00113926
0.00118541
0.0012279
0.00126498
0.00130789
0.00134723
0.00142509
0.00142453
0.00157938
0.00140317
0.00477237
0.0172649
0.0010864
0.00123015
0.000938671
0.000977037
0.00104315
0.0010715
0.00108001
0.00112845
0.00117263
0.00121369
0.00125112
0.00130961
0.00137239
0.00141979
0.00148633
0.00149047
0.00163787
0.00145293
0.00491538
0.0166322
0.00106503
0.00120958
0.000944277
0.00100212
0.00105883
0.00105233
0.00108876
0.0011476
0.00117493
0.0012181
0.00126277
0.00130231
0.00132281
0.00136631
0.00143575
0.0014808
0.00164163
0.00150033
0.00491076
0.0159248
0.00110411
0.00118989
0.000932517
0.0010115
0.00103907
0.00107432
0.00113049
0.00115368
0.00116602
0.00121257
0.0012389
0.00127605
0.00133256
0.00141218
0.00147604
0.00151798
0.00163915
0.00149754
0.00396347
0.0147395
0.00104479
0.00110771
0.000928665
0.000989842
0.00102223
0.00106986
0.00107961
0.00109574
0.00114566
0.00119396
0.00121895
0.00128632
0.00134536
0.00140745
0.00144045
0.00150272
0.00155784
0.00150733
0.00310388
0.0127351
0.00103476
0.00109435
0.00094647
0.000995365
0.0010489
0.00107946
0.00108852
0.001147
0.00118075
0.00120952
0.0012575
0.00133594
0.00135348
0.00138651
0.00140928
0.00146374
0.00153942
0.00159365
0.00254118
0.010398
0.00100252
0.00105717
0.00093508
0.00098093
0.00102355
0.00103647
0.0010697
0.00111351
0.00112594
0.00118492
0.0012305
0.0012534
0.00125812
0.00133346
0.00138255
0.00148222
0.00150717
0.00152672
0.0021567
0.00839075
0.000985552
0.00103226
0.000934802
0.000981497
0.00102297
0.00105201
0.0010906
0.00112537
0.00116938
0.00123323
0.00124539
0.00129428
0.00134745
0.00141602
0.00143415
0.00148427
0.00148
0.00155651
0.0019257
0.00704404
0.00100399
0.00104829
0.00096893
0.00100995
0.00104558
0.00106786
0.0010966
0.00113012
0.00116209
0.00117653
0.00118332
0.00124407
0.00124463
0.00129427
0.00131916
0.00139813
0.00143583
0.00156875
0.00178616
0.00588757
0.000974676
0.00100314
0.000939625
0.000971
0.000996813
0.00101239
0.00104041
0.0010652
0.00109518
0.00112952
0.00119557
0.00125491
0.00129674
0.00140957
0.00143327
0.00151112
0.00150235
0.00158996
0.0017098
0.00511224
0.000946486
0.000971093
0.000927102
0.00096429
0.00100176
0.00103493
0.00108079
0.00112796
0.00117856
0.00124211
0.00128792
0.00132035
0.00136076
0.00138907
0.00135238
0.00140998
0.00149184
0.00159653
0.00156691
0.0043376
0.00095415
0.00101521
0.000972778
0.0010147
0.00104977
0.0010775
0.00111349
0.0011353
0.00117334
0.00118342
0.00120259
0.00121846
0.00125212
0.00127988
0.00134144
0.00154245
0.00156638
0.00166167
0.00165353
0.004281
0.000948829
0.000974234
0.000942363
0.000982878
0.00101784
0.00104393
0.00107701
0.00110642
0.00114728
0.00117527
0.00123566
0.00128765
0.00136186
0.00143983
0.00154799
0.00160168
0.00147345
0.00142589
0.00141636
0.00360491
0.000931511
0.000975762
0.000959739
0.000998981
0.00104001
0.00106675
0.00110063
0.00113737
0.00116808
0.00121156
0.00125013
0.00128363
0.00133584
0.00133575
0.00136245
0.00129084
0.00133682
0.00156758
0.00169451
0.00370282
0.000920652
0.000974275
0.000945269
0.000993445
0.00102512
0.00104456
0.00107285
0.00109427
0.00113073
0.00115618
0.00119394
0.00123491
0.00125553
0.00128274
0.00131213
0.00137867
0.00151955
0.00161145
0.00178139
0.00269412
0.000903115
0.000969191
0.000933412
0.000988012
0.00101314
0.00104666
0.00107383
0.00111916
0.00114601
0.0011952
0.00122673
0.00127516
0.00131652
0.00139651
0.00146145
0.00151754
0.0016053
0.00152609
0.00161376
0.00115725
0.000640169
0.000660957
0.000518173
0.000457441
0.000523065
0.00050715
0.000480612
0.00046007
0.00049462
0.000505424
0.000501506
0.000482684
0.000399313
0.00022587
0.000369097
0.003489
0.00930479
0.0126445
0.00956051
0.0022433
0.000622375
0.000677388
0.000606449
0.000529264
0.000524018
0.000509168
0.000545798
0.000495039
0.000462187
0.00048644
0.000516697
0.000567271
0.000509558
0.000349823
0.000121236
0.00178859
0.00731523
0.0125148
0.0108657
0.0024424
0.000639743
0.000696768
0.000616619
0.000517607
0.000573666
0.000559485
0.000547652
0.000553029
0.000572947
0.000541406
0.000522723
0.000532692
0.000591116
0.000535473
0.000259761
0.000513486
0.00543344
0.0115936
0.0120304
0.00377881
0.000648311
0.000730764
0.000710944
0.000586909
0.000577243
0.000566008
0.000605573
0.000563029
0.000541112
0.000598121
0.000623902
0.000615866
0.00064481
0.000615314
0.000441044
0.000200937
0.00296835
0.0105829
0.0128165
0.00636961
0.000649543
0.000722106
0.000712875
0.000598952
0.000645975
0.00063381
0.000627254
0.000644719
0.000649437
0.000607132
0.000618409
0.000661326
0.000702432
0.000756358
0.00064076
0.000366481
0.00133062
0.00939118
0.0132381
0.00890051
0.000680754
0.000763276
0.000785192
0.0006403
0.000634878
0.000628618
0.000676654
0.000658608
0.000646949
0.000707395
0.000725086
0.000719496
0.000728369
0.000820569
0.000794887
0.000383795
0.000511805
0.00841097
0.0133645
0.0112189
0.000674283
0.000747056
0.000799706
0.000681412
0.000717287
0.000706037
0.000699003
0.000716612
0.000722913
0.000697035
0.000729618
0.000784419
0.000814883
0.000888166
0.000891542
0.000655381
0.000380357
0.00627816
0.0132571
0.0141591
0.000718605
0.000781886
0.000832477
0.000684471
0.000688106
0.000692509
0.000746252
0.000754543
0.00074407
0.000790565
0.000808913
0.000815497
0.000840585
0.00091396
0.000986378
0.000831257
0.00018837
0.00435455
0.0132118
0.0157495
0.000685888
0.000736812
0.00085772
0.000739512
0.000761229
0.000762827
0.000762286
0.000772063
0.000788166
0.000789967
0.000827123
0.000887032
0.000916247
0.00097721
0.00103741
0.000955441
0.000340817
0.00302574
0.0128222
0.017251
0.000710292
0.000777707
0.000880893
0.000726197
0.000743893
0.000765899
0.000810836
0.000835354
0.000831278
0.000860902
0.000887925
0.000906774
0.000935264
0.00102282
0.00108908
0.00104642
0.000412747
0.00203298
0.0125935
0.0177477
0.000722489
0.000763439
0.000915645
0.000802861
0.00081831
0.000823093
0.000828524
0.000834447
0.000856006
0.000880038
0.000916686
0.000977975
0.00101368
0.00108403
0.00111939
0.00115639
0.00058134
0.00147468
0.0121262
0.0184855
0.000772985