/*--------------------------------*- C++ -*----------------------------------*\
  =========                 |
  \\      /  F ield         | OpenFOAM: The Open Source CFD Toolbox
   \\    /   O peration     | Website:  https://openfoam.org
    \\  /    A nd           | Version:  9
     \\/     M anipulation  |
\*---------------------------------------------------------------------------*/
FoamFile
{
    format      ascii;
    class       volVectorField;
    location    "0.3";
    object      U;
}
// * * * * * * * * * * * * * * * * * * * * * * * * * * * * * * * * * * * * * //

dimensions      [0 1 -1 0 0 0 0];

internalField   nonuniform List<vector> 
46400
(
(8.37873 -8.16355 -2.88831e-19)
(17.0242 -16.3392 2.45873e-19)
(18.2383 -18.3019 -5.99009e-20)
(17.6175 -18.4243 -3.29189e-20)
(17.064 -18.4528 -4.55173e-20)
(16.478 -18.5292 -9.04558e-20)
(15.9168 -18.5262 2.25744e-20)
(15.3923 -18.5684 2.06145e-20)
(14.8942 -18.6042 -2.74573e-20)
(14.4109 -18.6222 3.34809e-20)
(13.9641 -18.6695 -3.87641e-20)
(13.5549 -18.7276 0)
(13.1854 -18.8227 2.69514e-19)
(12.8213 -18.8855 -3.12063e-19)
(12.4469 -18.9111 -4.31859e-19)
(12.074 -18.894 -8.90759e-20)
(11.7213 -18.9341 -3.13253e-20)
(11.4024 -18.912 3.60255e-19)
(11.0491 -18.8179 5.21366e-19)
(10.6085 -19.0107 -4.80382e-19)
(8.678 -7.71842 0)
(17.1279 -15.2908 -3.05875e-20)
(18.2429 -17.0265 0)
(17.5133 -17.1251 -4.51087e-21)
(16.905 -17.1506 -1.32936e-20)
(16.2742 -17.2439 3.86596e-21)
(15.735 -17.3297 0)
(15.1833 -17.3887 -2.06135e-20)
(14.6953 -17.482 2.74567e-20)
(14.2247 -17.5473 -3.34807e-20)
(13.7872 -17.6374 4.59235e-19)
(13.3554 -17.6857 3.782e-20)
(12.9483 -17.7694 -3.96813e-19)
(12.5677 -17.8383 0)
(12.241 -17.9804 5.43464e-20)
(11.9024 -18.0414 5.72253e-20)
(11.5704 -18.1007 0)
(11.3094 -18.1693 -5.84131e-19)
(11.0471 -18.2216 -1.54465e-19)
(10.6526 -18.3907 5.9718e-19)
(8.88075 -7.25939 -2.22838e-20)
(17.1229 -14.2566 -7.03551e-20)
(17.9093 -15.5643 4.79922e-20)
(17.2307 -15.7911 1.36058e-19)
(16.6883 -15.9078 -1.33579e-19)
(16.1075 -16.0496 0)
(15.5608 -16.1495 -5.16677e-19)
(15.0572 -16.2705 4.42647e-19)
(14.5691 -16.3929 -6.07195e-19)
(14.1018 -16.4856 6.02031e-19)
(13.6679 -16.6116 5.90393e-19)
(13.2632 -16.7051 -5.25991e-20)
(12.8945 -16.834 -5.16444e-19)
(12.5151 -16.8988 0)
(12.1567 -16.9845 6.63046e-19)
(11.8412 -17.1098 -6.52973e-19)
(11.4908 -17.1889 0)
(11.1727 -17.1978 -1.52863e-20)
(10.8735 -17.2952 7.74556e-20)
(10.5104 -17.5513 -7.27213e-19)
(9.00852 -6.78663 -1.06057e-19)
(16.9885 -13.1352 1.98699e-20)
(17.6407 -14.3161 2.22591e-19)
(16.9083 -14.4949 -2.19962e-19)
(16.3306 -14.6454 -2.04624e-19)
(15.7361 -14.8272 2.81332e-19)
(15.1896 -14.9955 3.9697e-19)
(14.6457 -15.1121 -1.02007e-18)
(14.1609 -15.2866 8.58782e-19)
(13.7012 -15.4191 -7.95493e-20)
(13.2758 -15.5958 0)
(12.8656 -15.7308 8.51804e-20)
(12.4834 -15.9014 -8.72823e-20)
(12.1342 -16.0548 0)
(11.7803 -16.1836 8.02287e-19)
(11.4571 -16.288 -6.81816e-19)
(11.1889 -16.4822 0)
(10.9313 -16.5772 9.28531e-20)
(10.64 -16.6521 1.06147e-19)
(10.2757 -16.9159 8.4478e-19)
(9.1371 -6.28184 0)
(16.7185 -11.9095 0)
(17.1946 -12.9429 -3.44742e-19)
(16.4989 -13.2203 2.35704e-19)
(15.9382 -13.4086 -4.79995e-19)
(15.3759 -13.6195 3.91059e-19)
(14.8607 -13.8355 0)
(14.3785 -14.0261 4.43645e-19)
(13.9018 -14.2144 -5.35769e-19)
(13.4429 -14.3612 -1.24258e-19)
(13.0164 -14.5432 -1.25215e-19)
(12.6101 -14.6845 0)
(12.2413 -14.8621 9.41509e-19)
(11.8915 -15.0206 -9.26755e-19)
(11.5792 -15.2339 0)
(11.2388 -15.3695 -1.04819e-18)
(10.8937 -15.5002 9.25861e-19)
(10.6412 -15.6818 9.3077e-19)
(10.3547 -15.8097 -1.01283e-18)
(9.98963 -16.1046 0)
(9.34254 -5.76848 0)
(16.3186 -10.7017 0)
(16.6524 -11.635 0)
(15.9385 -11.9216 -2.9845e-20)
(15.3873 -12.2109 0)
(14.8278 -12.466 0)
(14.2834 -12.7255 0)
(13.7804 -12.9395 -1.44814e-19)
(13.3215 -13.2098 0)
(12.8845 -13.4028 1.24252e-19)
(12.483 -13.6483 -2.05488e-20)
(12.1067 -13.8483 -1.23798e-18)
(11.7288 -14.0562 9.30761e-19)
(11.3623 -14.2028 -1.22787e-18)
(11.0195 -14.3807 9.2502e-19)
(10.7546 -14.6108 0)
(10.4411 -14.7748 -1.06087e-18)
(10.1812 -14.9317 9.06776e-19)
(9.94669 -15.1273 0)
(9.57226 -15.4139 -1.43937e-19)
(9.57352 -5.34239 5.15417e-19)
(15.7724 -9.46453 1.53935e-19)
(16.0073 -10.3407 5.92027e-19)
(15.3198 -10.6739 -6.13285e-19)
(14.7541 -10.9952 -6.19625e-19)
(14.246 -11.2915 1.23507e-18)
(13.7583 -11.6063 -1.41369e-18)
(13.2939 -11.8446 1.32319e-19)
(12.8627 -12.1405 4.53927e-19)
(12.4304 -12.3656 0)
(12.0159 -12.6114 -1.96923e-20)
(11.6316 -12.8172 -1.87692e-20)
(11.3208 -13.1005 1.4458e-19)
(11.0093 -13.3311 1.20548e-18)
(10.6589 -13.5035 -1.06125e-18)
(10.3526 -13.6896 -1.3518e-18)
(10.0753 -13.9245 1.17717e-18)
(9.79 -14.064 -1.43129e-20)
(9.56162 -14.2813 -1.49655e-19)
(9.26804 -14.6238 -1.07144e-18)
(9.84284 -4.88596 -1.7352e-19)
(15.1526 -8.42089 3.18206e-20)
(15.1199 -9.10822 -1.90212e-19)
(14.5118 -9.50023 -7.49854e-19)
(13.9976 -9.92284 5.16866e-19)
(13.5204 -10.2722 0)
(13.0387 -10.6453 1.08253e-18)
(12.5747 -10.9156 -5.2153e-19)
(12.1403 -11.2219 3.55554e-19)
(11.7569 -11.4839 1.86248e-19)
(11.3988 -11.7968 -3.52466e-19)
(11.0273 -12.0238 8.54795e-19)
(10.6466 -12.2518 1.7939e-19)
(10.3753 -12.537 -1.01614e-18)
(10.0757 -12.793 2.84226e-18)
(9.76473 -12.9791 -1.15812e-18)
(9.48709 -13.2072 1.4655e-18)
(9.23601 -13.4052 -9.58725e-19)
(8.9704 -13.5633 3.13092e-19)
(8.68062 -13.9267 1.50942e-18)
(9.98999 -4.52733 8.84281e-19)
(14.3072 -7.28288 -1.87075e-19)
(14.2229 -8.0229 -2.77635e-20)
(13.6596 -8.37764 4.09421e-19)
(13.121 -8.80938 1.92124e-19)
(12.6804 -9.17408 2.14819e-19)
(12.2802 -9.61621 -1.00372e-18)
(11.8928 -9.96261 6.08956e-19)
(11.5202 -10.341 -1.88164e-19)
(11.0968 -10.5832 -1.86255e-19)
(10.7325 -10.8831 -1.84146e-19)
(10.4254 -11.1754 -1.98665e-19)
(10.0991 -11.4422 -3.74842e-19)
(9.78178 -11.6665 1.29981e-18)
(9.54229 -11.9695 -1.8169e-18)
(9.28659 -12.216 -1.85441e-19)
(9.01177 -12.4398 1.32792e-20)
(8.78746 -12.6698 -1.36606e-18)
(8.55402 -12.8614 1.01936e-18)
(8.28078 -13.1867 -1.61715e-18)
(9.9709 -4.17486 8.15807e-19)
(13.451 -6.33313 -2.08435e-18)
(13.1557 -7.00691 1.37985e-18)
(12.7354 -7.48075 -2.17649e-19)
(12.2522 -7.95042 -2.38982e-19)
(11.8174 -8.31222 9.27421e-19)
(11.3946 -8.74013 -1.12317e-18)
(10.9939 -9.07847 0)
(10.6693 -9.51453 8.69244e-19)
(10.3714 -9.88174 -8.54795e-19)
(10.0005 -10.1955 -6.23079e-19)
(9.67724 -10.4846 8.12111e-19)
(9.37649 -10.8025 1.95419e-19)
(9.08705 -11.0697 -7.97141e-19)
(8.78221 -11.3186 1.9133e-19)
(8.55562 -11.6067 9.55883e-19)
(8.29639 -11.8462 -1.68798e-18)
(8.07345 -12.0809 1.11424e-18)
(7.85615 -12.2968 -1.12442e-20)
(7.60013 -12.6107 -1.54666e-18)
(9.68966 -3.721 1.15329e-18)
(12.3701 -5.41902 -7.72116e-19)
(12.0759 -6.09267 5.16093e-19)
(11.643 -6.50162 7.06249e-21)
(11.2665 -7.07728 -1.01638e-18)
(10.8695 -7.45819 -9.6651e-19)
(10.5333 -7.93893 1.20163e-18)
(10.1626 -8.26834 -7.06917e-19)
(9.80909 -8.64918 9.37658e-19)
(9.51511 -9.00154 0)
(9.24926 -9.39446 1.50423e-20)
(8.95557 -9.69146 2.14198e-19)
(8.67676 -10.0109 2.23868e-19)
(8.44606 -10.3198 -2.19237e-19)
(8.2083 -10.6128 0)
(7.98944 -10.8893 2.10136e-19)
(7.78191 -11.1755 0)
(7.58109 -11.4176 3.91951e-19)
(7.39719 -11.6702 1.91287e-18)
(7.17518 -11.979 -1.22064e-20)
(9.1928 -3.22473 6.38004e-19)
(11.3474 -4.6089 -1.33838e-19)
(11.0183 -5.28786 -1.94977e-18)
(10.652 -5.74877 1.09111e-18)
(10.2283 -6.27877 2.59523e-19)
(9.90613 -6.73737 -2.555e-19)
(9.57547 -7.24347 -1.04008e-18)
(9.27484 -7.67163 7.75278e-19)
(8.95572 -8.10014 0)
(8.65212 -8.45986 0)
(8.36664 -8.84448 -1.19279e-18)
(8.12581 -9.20871 9.44153e-19)
(7.8388 -9.52324 -2.23862e-19)
(7.59263 -9.83414 -6.80218e-19)
(7.34481 -10.1276 5.72812e-21)
(7.13553 -10.416 1.51697e-18)
(6.92755 -10.6955 -8.47737e-19)
(6.7384 -10.9522 6.22075e-19)
(6.56447 -11.2038 -1.00846e-18)
(6.36897 -11.5168 0)
(8.51804 -2.69879 -5.563e-19)
(10.1516 -3.84103 8.93283e-19)
(9.80849 -4.54726 1.52632e-19)
(9.4802 -5.01395 1.49974e-19)
(9.16602 -5.58291 0)
(8.78994 -5.96965 1.12337e-18)
(8.52281 -6.46827 -1.10366e-18)
(8.24217 -6.85583 1.38417e-19)
(7.99426 -7.30191 0)
(7.76568 -7.69249 1.03238e-18)
(7.51191 -8.0686 -8.8594e-19)
(7.31647 -8.4509 9.87127e-19)
(7.11191 -8.81979 -9.71434e-19)
(6.9217 -9.16408 9.43034e-19)
(6.72802 -9.49661 -8.10507e-19)
(6.54721 -9.81028 -9.00419e-19)
(6.37956 -10.1243 1.76683e-18)
(6.21539 -10.408 -7.56894e-19)
(6.0627 -10.6873 1.07435e-19)
(5.89692 -11.0138 8.99139e-19)
(7.66127 -2.17365 -4.46192e-19)
(8.89513 -3.15558 4.7898e-19)
(8.61531 -3.87971 -1.5263e-19)
(8.39852 -4.41597 -1.49953e-19)
(8.11216 -5.03714 0)
(7.86205 -5.54144 0)
(7.59336 -6.07955 0)
(7.34112 -6.54016 -2.83055e-19)
(7.05132 -6.95674 -1.10563e-18)
(6.82996 -7.37787 2.16742e-18)
(6.58068 -7.74571 -1.19199e-18)
(6.34831 -8.09637 -1.31693e-19)
(6.13375 -8.43593 0)
(5.93489 -8.76409 0)
(5.74654 -9.08076 -2.40491e-19)
(5.56663 -9.38413 0)
(5.40835 -9.68775 9.13894e-19)
(5.25501 -9.97252 -1.12428e-18)
(5.1182 -10.2502 -9.77849e-19)
(4.96977 -10.5718 9.42937e-19)
(6.74904 -1.68246 4.64015e-19)
(7.6697 -2.50081 8.35113e-19)
(7.38237 -3.19467 1.55539e-22)
(7.1087 -3.76126 -1.01136e-21)
(6.83976 -4.34372 1.58818e-19)
(6.54359 -4.80407 -4.61256e-19)
(6.32586 -5.33491 0)
(6.20845 -5.85925 -4.43529e-19)
(6.01647 -6.35323 1.5017e-19)
(5.86169 -6.81436 5.64839e-19)
(5.70979 -7.27541 5.47301e-19)
(5.56187 -7.68737 -4.06827e-19)
(5.39555 -8.07828 1.04218e-18)
(5.24546 -8.43918 -8.96443e-19)
(5.09258 -8.78443 1.11451e-18)
(4.94403 -9.10225 -2.06806e-18)
(4.80141 -9.41383 9.53409e-19)
(4.67118 -9.70242 1.13904e-19)
(4.54488 -9.9817 8.98704e-19)
(4.4166 -10.2935 -9.74858e-19)
(5.72623 -1.24356 1.6144e-19)
(6.33061 -2.00626 -1.70078e-19)
(6.00475 -2.76196 6.82115e-19)
(5.87026 -3.3542 -6.6951e-19)
(5.8353 -4.0725 -3.26262e-19)
(5.61089 -4.59642 -7.94376e-19)
(5.33003 -5.06234 3.91879e-21)
(5.09853 -5.51482 6.11565e-19)
(4.91777 -5.96934 -1.46426e-19)
(4.73431 -6.39217 0)
(4.56874 -6.82067 0)
(4.43792 -7.22823 0)
(4.30506 -7.64045 0)
(4.17998 -8.00852 3.32876e-21)
(4.06238 -8.39315 0)
(3.94096 -8.72519 1.23188e-19)
(3.82748 -9.0773 4.84508e-19)
(3.71527 -9.37746 -1.42255e-18)
(3.61236 -9.69063 1.04855e-18)
(3.50371 -10.0135 -9.8856e-19)
(4.7756 -0.953562 0)
(4.92012 -1.5829 -9.04828e-20)
(4.72959 -2.20928 0)
(4.48464 -2.74714 2.55868e-19)
(4.29601 -3.39641 -1.70621e-19)
(4.32019 -4.06612 -6.53936e-19)
(4.21319 -4.65552 4.24343e-21)
(4.10616 -5.19505 6.27354e-19)
(3.96788 -5.69256 -6.07306e-19)
(3.83637 -6.15441 1.18935e-18)
(3.71683 -6.5954 -5.1772e-21)
(3.58173 -6.99844 -5.67959e-19)
(3.48439 -7.40536 5.48524e-19)
(3.36627 -7.77065 -6.72755e-19)
(3.27617 -8.14214 0)
(3.17484 -8.4772 -5.08156e-19)
(3.08161 -8.81599 5.00569e-19)
(2.9928 -9.12032 0)
(2.90311 -9.41911 -1.17156e-19)
(2.81696 -9.74032 0)
(3.36281 -0.686006 9.3107e-20)
(3.80968 -1.46447 9.04372e-20)
(3.54202 -2.19812 0)
(3.29119 -2.75779 3.48297e-19)
(3.08133 -3.27235 -4.29724e-19)
(2.95653 -3.80188 2.49182e-19)
(2.86013 -4.36019 -7.34697e-19)
(2.78112 -4.8615 3.19516e-19)
(2.71031 -5.39645 -7.80603e-20)
(2.6304 -5.84459 0)
(2.55283 -6.3303 -7.41535e-20)
(2.48518 -6.73953 -7.2261e-20)
(2.41046 -7.17378 -7.04166e-20)
(2.35205 -7.55143 0)
(2.28176 -7.94277 -5.29156e-19)
(2.22821 -8.2877 1.10197e-18)
(2.16045 -8.64605 -9.47066e-19)
(2.10369 -8.95369 4.95215e-19)
(2.0432 -9.27245 6.04093e-20)
(1.97574 -9.58596 5.12399e-19)
(1.95898 -0.559047 -1.41052e-19)
(1.98436 -1.26144 -1.85646e-19)
(1.98554 -2.06568 7.32496e-22)
(2.1336 -2.65122 4.88388e-19)
(2.01695 -3.31581 -1.31436e-19)
(1.91642 -3.77454 -8.46493e-20)
(1.87319 -4.35853 8.3354e-20)
(1.75746 -4.79074 1.61765e-19)
(1.7279 -5.32725 7.80718e-20)
(1.64438 -5.73907 -3.04764e-19)
(1.60129 -6.21992 3.36523e-19)
(1.53485 -6.59677 7.22687e-20)
(1.49533 -7.03949 3.52303e-19)
(1.43499 -7.38191 -2.81544e-21)
(1.4067 -7.79314 3.09278e-20)
(1.35029 -8.1075 -5.89565e-19)
(1.32685 -8.49047 1.61378e-19)
(1.26992 -8.77469 0)
(1.2427 -9.10859 -2.99599e-20)
(1.18408 -9.4093 -2.58991e-19)
(0.186865 -0.588582 0)
(0.845982 -0.841358 -9.2895e-20)
(0.700721 -1.81493 1.63283e-19)
(0.704994 -2.22509 -4.50407e-20)
(0.6422 -3.07444 -4.40841e-20)
(0.685384 -3.50821 0)
(0.576895 -4.22576 -8.28334e-20)
(0.592336 -4.63163 1.62139e-19)
(0.516422 -5.24173 -7.93616e-20)
(0.546541 -5.61836 7.66314e-20)
(0.508686 -6.16376 -3.79735e-20)
(0.512434 -6.51071 -7.27171e-20)
(0.485992 -6.99886 1.42399e-19)
(0.485396 -7.31857 -1.38738e-19)
(0.452525 -7.75684 3.42344e-20)
(0.458894 -8.04969 2.33983e-34)
(0.431633 -8.45025 -3.18313e-20)
(0.443776 -8.71783 1.87431e-19)
(0.424206 -9.06635 -9.24896e-20)
(0.43581 -9.35771 -6.58151e-20)
(0.404744 0.555032 7.70707e-20)
(0.721065 -3.83225 3.7404e-20)
(2.96727 -14.5465 0)
(5.18167 -24.8242 3.58991e-20)
(6.25724 -29.9856 3.49699e-20)
(6.52728 -31.4696 3.3063e-20)
(6.58705 -31.7079 0)
(6.56352 -31.6761 2.80204e-20)
(6.48779 -31.4955 0)
(6.41599 -31.3249 0)
(6.33298 -31.1502 -2.67179e-20)
(6.25478 -30.9757 1.39572e-21)
(6.17264 -30.8332 5.07356e-20)
(6.10919 -30.7044 0)
(5.99943 -30.5736 2.27546e-20)
(5.95275 -30.3706 2.17827e-20)
(5.81028 -30.2741 2.08799e-20)
(5.79458 -30.1269 0)
(5.62878 -29.9724 -3.83583e-20)
(5.57386 -29.6455 3.62919e-20)
(0.28977 -0.494906 1.16973e-19)
(1.18015 -6.29657 -1.88355e-19)
(4.11485 -18.6093 0)
(6.10279 -27.3169 -1.79287e-19)
(6.89356 -30.7986 1.72746e-19)
(7.0828 -31.6364 -3.04477e-19)
(7.06795 -31.6827 1.24172e-19)
(7.02097 -31.5345 8.61001e-20)
(6.93049 -31.2905 -4.113e-19)
(6.85285 -31.104 2.28837e-19)
(6.78253 -30.9275 -2.71104e-20)
(6.71604 -30.7949 2.03126e-19)
(6.63796 -30.6711 -5.69513e-21)
(6.562 -30.4849 -1.91107e-19)
(6.45431 -30.3184 -2.27545e-20)
(6.39572 -30.165 -2.17825e-20)
(6.25902 -30.0268 -2.08779e-20)
(6.22284 -29.8233 0)
(6.04718 -29.6293 -1.49162e-19)
(5.99495 -29.327 3.91528e-21)
(0.182537 -1.54113 -8.06707e-20)
(1.93291 -9.5066 0)
(5.06044 -21.759 0)
(6.87638 -29.0982 -7.43596e-20)
(7.39299 -31.3882 6.96929e-20)
(7.51851 -31.7036 0)
(7.4971 -31.6069 -6.10326e-20)
(7.40945 -31.331 1.78457e-19)
(7.34486 -31.1445 -1.79582e-19)
(7.2765 -30.9698 2.20056e-19)
(7.20094 -30.8128 -2.69345e-19)
(7.10865 -30.6236 0)
(7.01564 -30.4283 -1.90607e-19)
(6.92795 -30.2716 -1.76094e-19)
(6.81758 -30.1143 3.14503e-19)
(6.74815 -29.9047 -3.31415e-19)
(6.60533 -29.7852 2.86803e-19)
(6.57619 -29.5999 0)
(6.38208 -29.3995 -3.25338e-19)
(6.34082 -29.081 5.46092e-19)
(0.281833 -2.55796 4.06489e-19)
(2.76359 -12.2758 0)
(6.07713 -24.2875 1.57989e-19)
(7.68224 -30.2299 2.19096e-19)
(8.07075 -31.6068 -4.38776e-19)
(8.10146 -31.6658 1.31879e-19)
(8.04868 -31.456 6.23055e-20)
(7.96509 -31.1967 6.67454e-19)
(7.88803 -30.9703 -9.33597e-19)
(7.79611 -30.7576 -9.46732e-20)
(7.70278 -30.5231 4.81238e-19)
(7.61447 -30.3538 9.90835e-20)
(7.52872 -30.2163 -4.68032e-19)
(7.42911 -30.0114 4.57417e-19)
(7.3178 -29.8336 1.28526e-19)
(7.23257 -29.6691 -8.07766e-20)
(7.09147 -29.526 1.16554e-19)
(7.02779 -29.2889 0)
(6.81822 -29.0526 -3.36661e-20)
(6.76611 -28.7433 0)
(0.464085 -3.56187 0)
(3.81089 -14.9572 6.54089e-19)
(7.09063 -26.2388 -8.07357e-19)
(8.498 -30.969 7.56829e-19)
(8.69328 -31.6995 -5.78818e-19)
(8.68666 -31.5991 -1.30463e-19)
(8.57948 -31.2696 0)
(8.48176 -30.9818 3.57699e-19)
(8.38154 -30.7539 -4.72231e-19)
(8.28315 -30.5345 5.3978e-19)
(8.18849 -30.3692 -4.22582e-19)
(8.07897 -30.1763 -9.907e-20)
(7.96206 -29.9441 4.59543e-19)
(7.84537 -29.7663 -7.95899e-19)
(7.71866 -29.5778 5.03221e-19)
(7.61426 -29.3595 -1.6522e-19)
(7.45999 -29.2069 -3.74309e-19)
(7.39932 -28.9877 8.58649e-19)
(7.17614 -28.7594 -4.87663e-19)
(7.13917 -28.455 -5.67913e-19)
(0.820273 -4.51543 6.89435e-19)
(4.9325 -16.8708 6.70614e-19)
(8.21868 -27.6046 -6.66048e-19)
(9.37022 -31.2747 -1.56168e-19)
(9.46385 -31.5904 1.42622e-19)
(9.38535 -31.3769 5.24354e-19)
(9.23742 -31.009 -5.28459e-19)
(9.12958 -30.7495 0)
(9.01433 -30.5 4.47929e-19)
(8.88481 -30.271 -4.40415e-19)
(8.75525 -30.0091 -3.9853e-19)
(8.6234 -29.8068 3.92084e-19)
(8.50661 -29.6456 0)
(8.36973 -29.4164 0)
(8.24075 -29.2364 7.19944e-19)
(8.12208 -29.063 -7.05957e-19)
(7.97152 -28.9152 -5.72675e-19)
(7.87294 -28.665 5.64092e-19)
(7.63168 -28.4185 -5.16208e-19)
(7.57421 -28.0994 6.26963e-19)
(1.42346 -5.83618 -2.76492e-19)
(6.13952 -18.5721 1.23576e-19)
(9.33495 -28.568 3.02585e-20)
(10.2193 -31.3367 7.81082e-19)
(10.2027 -31.3922 0)
(10.0585 -31.0821 0)
(9.87936 -30.7309 9.97437e-19)
(9.72763 -30.4323 -4.5201e-20)
(9.57083 -30.1737 -9.19171e-19)
(9.4202 -29.9241 8.24605e-19)
(9.28064 -29.7392 -8.11039e-19)
(9.13741 -29.538 0)
(8.98522 -29.2983 6.88207e-19)
(8.83299 -29.1186 -6.77392e-19)
(8.67871 -28.9104 0)
(8.53184 -28.6935 0)
(8.35679 -28.5129 0)
(8.25102 -28.2707 0)
(7.99549 -28.0334 0)
(7.95005 -27.7389 -6.05782e-20)
(2.03645 -6.57324 0)
(7.01603 -19.7008 -7.45246e-19)
(10.4506 -29.0844 0)
(11.0923 -31.1458 0)
(10.9976 -31.0524 1.24047e-18)
(10.7914 -30.6716 7.479e-20)
(10.5888 -30.3197 -1.15256e-18)
(10.4098 -30.0405 0)
(10.2371 -29.7839 1.07396e-19)
(10.0535 -29.5522 -1.0036e-19)
(9.87862 -29.2914 0)
(9.69585 -29.0858 8.79406e-20)
(9.53423 -28.9015 -7.43159e-19)
(9.35202 -28.6562 1.34907e-18)
(9.19155 -28.4838 -2.68921e-20)
(9.03322 -28.3088 -5.75973e-19)
(8.86698 -28.161 -6.44113e-20)
(8.731 -27.9125 6.05972e-20)
(8.46274 -27.6767 0)
(8.38974 -27.352 5.4056e-20)
(2.41323 -7.6642 3.38766e-19)
(8.30593 -20.7024 2.18513e-19)
(11.4912 -29.2871 -1.01504e-18)
(11.9543 -30.7879 2.97405e-19)
(11.7609 -30.582 1.33962e-19)
(11.5142 -30.2219 1.14403e-18)
(11.2611 -29.8833 -1.58638e-18)
(11.0414 -29.5886 1.15286e-18)
(10.8173 -29.3196 -9.29522e-19)
(10.6064 -29.0683 1.10078e-18)
(10.411 -28.8739 1.78987e-19)
(10.2186 -28.6663 7.4971e-19)
(10.0243 -28.4546 -4.21399e-19)
(9.83149 -28.2794 -8.12012e-19)
(9.64169 -28.0657 7.16223e-19)
(9.45003 -27.871 0)
(9.25191 -27.6876 1.84653e-19)
(9.09011 -27.4432 5.21836e-20)
(8.80666 -27.2182 -1.06405e-19)
(8.74662 -26.9396 4.61121e-20)
(3.09757 -8.15724 -6.68214e-19)
(9.10516 -21.5035 6.85032e-19)
(12.5488 -29.275 -8.86998e-21)
(12.7678 -30.3271 -5.87782e-19)
(12.5163 -30.0399 -5.42149e-19)
(12.2399 -29.6504 -2.57542e-19)
(11.9521 -29.3075 -1.05257e-20)
(11.7008 -29.0276 -2.21757e-19)
(11.4641 -28.784 0)
(11.2181 -28.5603 -1.91978e-19)
(10.9909 -28.3188 -1.78966e-19)
(10.7566 -28.1303 -1.04212e-20)
(10.5411 -27.933 5.79175e-19)
(10.31 -27.706 -2.98548e-19)
(10.1052 -27.5455 -6.51346e-19)
(9.90153 -27.3696 5.06857e-19)
(9.70693 -27.2404 3.30984e-19)
(9.52321 -27.0189 -5.57271e-19)
(9.22009 -26.7937 1.06356e-19)
(9.13596 -26.4772 6.55726e-19)
(3.57199 -8.68259 -1.63359e-18)
(10.3585 -21.7153 1.65333e-18)
(13.4812 -28.8884 -1.81347e-18)
(13.6578 -29.6353 1.46528e-18)
(13.2836 -29.3376 1.27633e-18)
(12.9694 -29.0099 -9.96759e-19)
(12.6268 -28.6871 -1.30551e-18)
(12.327 -28.4156 5.07214e-20)
(12.0328 -28.1547 7.83031e-19)
(11.7552 -27.9292 -5.13272e-19)
(11.5007 -27.7435 1.30355e-18)
(11.2496 -27.5414 -7.78854e-19)
(11.0115 -27.3753 -1.45725e-19)
(10.7712 -27.201 3.71074e-19)
(10.54 -27.0087 -9.70599e-19)
(10.301 -26.84 4.64437e-19)
(10.0705 -26.665 0)
(9.85065 -26.4485 -7.64307e-19)
(9.53713 -26.2502 7.53285e-19)
(9.44255 -25.9725 -5.9561e-19)
(4.24514 -9.10944 3.16564e-19)
(11.3273 -22.0487 3.53293e-19)
(14.4223 -28.4496 1.51425e-18)
(14.3696 -28.9158 1.30473e-18)
(13.9673 -28.591 -7.85878e-19)
(13.6086 -28.2423 1.09635e-18)
(13.2337 -27.9362 -6.47335e-19)
(12.9056 -27.6829 7.41476e-19)
(12.6055 -27.4727 -1.41155e-18)
(12.2975 -27.2709 5.02269e-19)
(12.0163 -27.0714 0)
(11.7337 -26.9132 0)
(11.4637 -26.7228 0)
(11.1892 -26.5464 -9.16285e-19)
(10.9375 -26.3893 9.02163e-19)
(10.6907 -26.2214 0)
(10.4671 -26.1167 0)
(10.2374 -25.9289 -8.08987e-20)
(9.91064 -25.7025 0)
(9.8064 -25.4017 -6.6901e-19)
(4.74785 -9.31893 -6.05342e-19)
(12.3241 -21.8032 -1.49977e-18)
(15.181 -27.6617 -1.0587e-18)
(15.1454 -27.9786 -1.84814e-19)
(14.6467 -27.7002 1.38436e-18)
(14.2734 -27.4307 -2.79702e-19)
(13.8563 -27.1479 -5.55829e-20)
(13.4763 -26.9186 -8.93641e-19)
(13.1208 -26.6863 0)
(12.7795 -26.5045 -4.30005e-19)
(12.4697 -26.3409 6.86129e-19)
(12.1639 -26.1701 0)
(11.8845 -26.0496 8.79966e-19)
(11.6009 -25.8876 -8.66166e-19)
(11.3355 -25.764 7.44133e-19)
(11.0601 -25.6128 -1.33631e-18)
(10.8034 -25.4556 6.74692e-19)
(10.5566 -25.3108 8.09061e-20)
(10.2379 -25.1492 -6.27347e-20)
(10.135 -24.8465 5.04124e-19)
(5.37189 -9.50883 -8.02323e-19)
(13.2489 -21.7161 5.34922e-20)
(15.9806 -26.9225 7.80159e-20)
(15.7385 -27.0587 1.85784e-18)
(15.229 -26.7724 1.52765e-19)
(14.7742 -26.4843 -9.73506e-19)
(14.3363 -26.2293 -6.66244e-19)
(13.9331 -26.026 2.15318e-19)
(13.5721 -25.8656 7.29011e-19)
(13.2084 -25.7031 -7.61286e-19)
(12.8772 -25.5674 3.66654e-19)
(12.5494 -25.4467 -9.31545e-19)
(12.2317 -25.2984 7.28828e-19)
(11.9149 -25.1698 -6.90637e-19)
(11.6182 -25.026 6.06041e-19)
(11.3342 -24.9269 4.91872e-19)
(11.0779 -24.8408 -5.64737e-19)
(10.8026 -24.6974 4.21552e-19)
(10.472 -24.5544 -4.04559e-19)
(10.3306 -24.273 -4.48988e-19)
(5.8663 -9.51044 -9.96495e-19)
(14.0386 -21.1477 -1.81619e-19)
(16.5552 -25.8222 9.61214e-19)
(16.3494 -25.9213 -7.99301e-19)
(15.773 -25.7171 7.84982e-19)
(15.3313 -25.5241 1.79826e-19)
(14.8543 -25.2988 0)
(14.4065 -25.1201 -1.26549e-19)
(13.9969 -24.9375 3.41479e-19)
(13.5995 -24.8076 -1.20245e-18)
(13.2385 -24.6773 8.4233e-19)
(12.8862 -24.5663 1.80847e-19)
(12.5675 -24.4889 9.00762e-20)
(12.2464 -24.3769 0)
(11.9439 -24.3083 1.61279e-20)
(11.6307 -24.1737 4.55452e-19)
(11.3466 -24.0892 -3.98441e-20)
(11.071 -24.002 6.02287e-20)
(10.7413 -23.8752 -3.58554e-19)
(10.6251 -23.601 7.60268e-20)
(6.40747 -9.49992 8.91005e-19)
(14.8309 -20.7344 -1.52725e-18)
(17.1628 -24.8879 8.53761e-19)
(16.7882 -24.8526 6.98571e-19)
(16.1989 -24.6345 -6.3112e-20)
(15.6612 -24.4295 -4.78681e-19)
(15.1786 -24.2463 1.17867e-19)
(14.7106 -24.1108 1.26546e-19)
(14.2971 -24.0028 0)
(13.8876 -23.8956 0)
(13.5142 -23.8253 -6.19402e-19)
(13.1468 -23.7429 1.01387e-18)
(12.7913 -23.6638 -5.39542e-19)
(12.4381 -23.5677 0)
(12.1065 -23.4821 1.71713e-20)
(11.7942 -23.4318 -3.61146e-19)
(11.504 -23.3622 3.50978e-19)
(11.2063 -23.3193 -4.03671e-20)
(10.8953 -23.2713 -2.28139e-19)
(10.7268 -23.0022 1.62215e-19)
(6.83627 -9.34614 -7.81299e-19)
(15.4481 -19.9129 9.77552e-19)
(17.5172 -23.5588 0)
(17.1853 -23.5768 0)
(16.5863 -23.4486 1.23109e-19)
(16.0747 -23.3469 -5.89743e-19)
(15.5535 -23.1853 2.35749e-20)
(15.0542 -23.0716 3.93551e-19)
(14.599 -22.9584 -6.1056e-19)
(14.1562 -22.8832 1.1302e-18)
(13.7513 -22.8066 -5.21137e-19)
(13.3616 -22.7599 1.04454e-19)
(13.0107 -22.7374 3.68667e-19)
(12.661 -22.7019 -1.88036e-20)
(12.3223 -22.6677 -2.14042e-19)
(11.9792 -22.5981 3.48371e-20)
(11.6617 -22.5644 -1.8491e-19)
(11.3416 -22.5124 1.52804e-19)
(11.0237 -22.4958 1.57322e-20)
(10.8814 -22.2576 8.75276e-20)
(7.28958 -9.19363 0)
(16.0894 -19.2265 4.29687e-19)
(17.946 -22.4584 -4.86722e-19)
(17.4325 -22.4059 0)
(16.8201 -22.2596 -1.23087e-19)
(16.2181 -22.1526 3.52406e-19)
(15.7076 -22.055 -4.39484e-19)
(15.1919 -21.9837 0)
(14.7362 -21.9295 4.27092e-19)
(14.2926 -21.8853 -4.19974e-19)
(13.8854 -21.8736 2.84374e-20)
(13.4813 -21.8311 -4.21197e-20)
(13.0934 -21.8177 -3.48325e-20)
(12.7089 -21.7729 -2.82933e-20)
(12.3483 -21.7616 -1.07539e-19)
(12.0027 -21.7335 1.31012e-19)
(11.6804 -21.7324 -6.09895e-20)
(11.3496 -21.7515 6.13606e-22)
(11.0552 -21.7859 1.85089e-20)
(10.8828 -21.604 6.96169e-22)
(7.67298 -8.86113 0)
(16.4521 -18.2642 -4.73825e-19)
(18.0971 -21.0185 2.65654e-19)
(17.607 -21.0516 2.76958e-19)
(17.023 -20.9968 -5.36723e-20)
(16.4626 -20.9847 -4.77031e-20)
(15.9114 -20.8986 -2.40464e-19)
(15.3848 -20.8626 0)
(14.895 -20.818 0)
(14.4215 -20.7939 0)
(13.9874 -20.7877 -2.84353e-20)
(13.5732 -20.7885 0)
(13.1951 -20.8112 -5.38313e-21)
(12.8271 -20.8399 1.16505e-20)
(12.4638 -20.8609 6.77742e-20)
(12.0964 -20.85 -1.68085e-19)
(11.7342 -20.8333 9.98215e-20)
(11.3707 -20.8378 1.81433e-19)
(11.0477 -20.8766 -3.34984e-19)
(10.8853 -20.7257 1.88328e-19)
(8.04683 -8.58381 0)
(16.8442 -17.3223 0)
(18.3302 -19.8078 9.6913e-20)
(17.692 -19.8048 8.09892e-20)
(17.0699 -19.7339 0)
(16.4314 -19.7237 1.33828e-19)
(15.903 -19.712 -1.31488e-19)
(15.359 -19.7084 0)
(14.8753 -19.7174 4.29381e-20)
(14.405 -19.7224 -4.22223e-20)
(13.9769 -19.7707 0)
(13.5515 -19.7852 1.16003e-19)
(13.1372 -19.8095 3.78895e-20)
(12.7228 -19.7915 -1.56014e-19)
(12.346 -19.8291 0)
(11.9836 -19.8523 0)
(11.6207 -19.9173 0)
(11.2499 -19.9031 2.915e-19)
(10.895 -19.9047 -3.14641e-19)
(10.674 -19.8678 0)
(4.86065 -28.8892 0)
(4.39195 -27.7294 0)
(3.68025 -27.548 -2.32178e-21)
(3.15328 -26.8304 -1.98918e-21)
(2.71024 -26.4862 0)
(2.26511 -25.936 1.00383e-22)
(2.01343 -25.4151 1.25475e-21)
(1.68581 -25.09 0)
(1.55107 -24.7742 7.62473e-22)
(1.28229 -24.5712 0)
(1.20489 -24.3218 -5.40089e-22)
(0.992278 -24.1571 -2.19733e-22)
(0.94979 -23.9785 2.21528e-22)
(0.787848 -23.8753 3.41081e-22)
(0.771314 -23.7453 0)
(0.648392 -23.6772 -6.91644e-23)
(0.659247 -23.5753 3.21798e-22)
(0.542874 -23.4838 0)
(0.584065 -22.9025 0)
(0.341701 -18.9226 2.13064e-22)
(5.26374 -28.632 1.57648e-20)
(4.71107 -27.6007 0)
(3.92871 -27.4226 1.07337e-20)
(3.38486 -26.6487 -6.46471e-21)
(2.9176 -26.3324 0)
(2.44649 -25.8329 -6.277e-21)
(2.17791 -25.3548 2.38061e-21)
(1.82073 -25.038 0)
(1.6707 -24.7198 5.93391e-22)
(1.37872 -24.5143 -1.36317e-21)
(1.28449 -24.2731 1.49645e-21)
(1.05165 -24.1158 -1.76938e-21)
(0.997189 -23.9455 1.16797e-21)
(0.82947 -23.8455 -3.86809e-22)
(0.802216 -23.7236 -3.08097e-22)
(0.677004 -23.6585 2.54103e-22)
(0.679005 -23.5603 -5.05678e-22)
(0.558611 -23.4721 -5.25632e-22)
(0.598345 -22.8766 -2.12282e-22)
(0.349111 -18.7945 -2.63011e-22)
(5.49985 -28.3796 -6.26085e-21)
(4.89113 -27.3295 -1.35601e-20)
(4.07281 -27.1863 -8.43744e-21)
(3.48497 -26.519 0)
(3.00577 -26.2318 0)
(2.50224 -25.717 7.03883e-21)
(2.23319 -25.2481 -8.22786e-22)
(1.86364 -24.9451 -6.33101e-22)
(1.71363 -24.6542 -5.49683e-22)
(1.41474 -24.464 -2.54036e-21)
(1.3205 -24.2327 0)
(1.0853 -24.0789 0)
(1.02932 -23.9171 0)
(0.855758 -23.8211 -1.11559e-21)
(0.827125 -23.7041 0)
(0.695177 -23.6424 -9.15826e-22)
(0.696761 -23.5447 8.35784e-22)
(0.57219 -23.4608 3.14211e-22)
(0.612543 -22.8515 4.47302e-22)
(0.357101 -18.6647 7.71407e-22)
(5.8864 -28.0873 2.33767e-20)
(5.23833 -27.1693 -4.50079e-20)
(4.35654 -27.0523 1.18591e-21)
(3.72694 -26.337 1.53516e-20)
(3.21451 -26.0772 0)
(2.68182 -25.6188 8.43218e-21)
(2.39461 -25.1889 -1.89684e-20)
(1.99535 -24.8927 9.7627e-21)
(1.83009 -24.599 -5.32455e-21)
(1.50882 -24.4054 1.93666e-21)
(1.39808 -24.1825 -2.67835e-22)
(1.14664 -24.0349 -1.3435e-21)
(1.07516 -23.8821 1.34987e-21)
(0.895863 -23.7909 6.20236e-22)
(0.856192 -23.6802 4.99378e-22)
(0.721507 -23.622 9.15271e-22)
(0.713226 -23.5281 -1.03389e-21)
(0.58667 -23.449 3.44166e-22)
(0.626583 -22.8275 -1.65516e-22)
(0.365595 -18.5334 -7.70825e-22)
(6.1506 -27.8186 5.72107e-20)
(5.40843 -26.8825 1.05215e-20)
(4.48235 -26.7928 -1.49635e-20)
(3.81137 -26.1939 2.10601e-20)
(3.29384 -25.9616 0)
(2.73384 -25.4941 -4.27082e-21)
(2.4478 -25.075 3.62439e-21)
(2.03476 -24.7944 0)
(1.86953 -24.5287 2.0613e-22)
(1.54208 -24.3503 0)
(1.43031 -24.1377 -3.18908e-21)
(1.17631 -23.9954 0)
(1.10668 -23.8507 0)
(0.92257 -23.7623 -1.73767e-21)
(0.879475 -23.6579 8.77192e-22)
(0.739169 -23.603 -7.09278e-22)
(0.728676 -23.5107 0)
(0.600858 -23.4377 1.525e-22)
(0.640405 -22.8046 -1.51187e-22)
(0.374377 -18.4006 0)
(6.5311 -27.4845 2.25106e-20)
(5.73593 -26.696 -1.90853e-20)
(4.76115 -26.6359 3.40093e-20)
(4.04517 -26.0072 -3.39932e-20)
(3.50365 -25.8083 9.38065e-21)
(2.9108 -25.3976 4.28414e-21)
(2.60612 -25.0175 -6.23039e-21)
(2.16283 -24.7399 -5.1387e-21)
(1.98222 -24.4718 2.26262e-21)
(1.63306 -24.2895 3.16474e-21)
(1.50686 -24.086 -1.66506e-21)
(1.23625 -23.9485 0)
(1.15127 -23.8138 0)
(0.959354 -23.7304 1.49097e-22)
(0.906824 -23.6317 -7.51496e-22)
(0.761268 -23.5809 7.08403e-22)
(0.742309 -23.4924 0)
(0.614912 -23.4268 -1.06249e-21)
(0.653801 -22.783 -9.38593e-22)
(0.383197 -18.2657 -6.79429e-23)
(6.80131 -27.1788 -6.31922e-20)
(5.91151 -26.3855 5.9908e-20)
(4.88555 -26.3707 -1.43124e-20)
(4.12396 -25.853 0)
(3.57508 -25.6808 -9.42051e-21)
(2.95972 -25.2632 1.36463e-20)
(2.6568 -24.8978 -7.44428e-21)
(2.20008 -24.6373 5.15318e-21)
(2.01852 -24.3979 0)
(1.66397 -24.2307 0)
(1.5357 -24.0371 2.23616e-21)
(1.26463 -23.906 -2.24421e-21)
(1.18128 -23.7795 0)
(0.984131 -23.6989 2.08517e-21)
(0.928702 -23.6065 -6.23924e-22)
(0.778097 -23.5583 -5.32824e-22)
(0.754299 -23.4745 5.35087e-22)
(0.628648 -23.4164 1.29954e-21)
(0.666616 -22.7627 6.258e-22)
(0.39325 -18.1298 1.02686e-22)
(7.18896 -26.8021 0)
(6.20535 -26.1639 -3.04986e-20)
(5.16099 -26.1794 3.05905e-20)
(4.35271 -25.6489 0)
(3.78293 -25.5264 0)
(3.13277 -25.1688 -1.25286e-20)
(2.81061 -24.8386 1.25665e-20)
(2.32466 -24.5793 0)
(2.12686 -24.3382 3.08989e-21)
(1.75224 -24.1675 -5.52668e-21)
(1.60955 -23.9843 2.43414e-21)
(1.32251 -23.8574 1.47847e-21)
(1.22468 -23.7401 -1.48264e-21)
(1.01848 -23.6646 0)
(0.953663 -23.5782 0)
(0.796764 -23.5338 -4.28836e-22)
(0.765168 -23.4552 6.65544e-22)
(0.641876 -23.4065 1.99147e-23)
(0.678666 -22.7446 -3.47831e-22)
(0.405121 -17.9928 6.93598e-23)
(7.45011 -26.4643 3.58807e-20)
(6.40509 -25.8224 -3.5963e-20)
(5.27793 -25.9266 -3.39248e-20)
(4.42954 -25.4903 4.06099e-20)
(3.84999 -25.3866 -3.23693e-20)
(3.17991 -25.0259 2.81673e-21)
(2.8585 -24.7139 1.14344e-20)
(2.36062 -24.4739 0)
(2.16048 -24.2615 0)
(1.78171 -24.1058 2.10335e-21)
(1.63778 -23.9318 0)
(1.35093 -23.8116 0)
(1.25258 -23.7029 0)
(1.04189 -23.6303 0)
(0.974091 -23.5498 0)
(0.811234 -23.5082 0)
(0.775061 -23.4367 -3.82122e-22)
(0.65434 -23.3971 3.18331e-22)
(0.689409 -22.7281 -1.11131e-22)
(0.419877 -17.856 2.85681e-23)
(7.81174 -26.0346 -3.46471e-20)
(6.64241 -25.5614 -4.79394e-20)
(5.53531 -25.6855 -9.06187e-21)
(4.63562 -25.2698 -5.09066e-21)
(4.05178 -25.2286 1.04722e-20)
(3.34729 -24.9316 1.83914e-20)
(3.00732 -24.6512 4.13663e-21)
(2.48171 -24.4114 0)
(2.26485 -24.1984 -2.12433e-21)
(1.86684 -24.0405 4.09625e-21)
(1.7064 -23.8777 1.23645e-21)
(1.40515 -23.7615 7.9289e-22)
(1.29432 -23.6609 0)
(1.07377 -23.5934 3.37415e-22)
(0.997113 -23.5191 2.63225e-22)
(0.828522 -23.4809 0)
(0.784696 -23.4167 0)