/*--------------------------------*- C++ -*----------------------------------*\
  =========                 |
  \\      /  F ield         | OpenFOAM: The Open Source CFD Toolbox
   \\    /   O peration     | Website:  https://openfoam.org
    \\  /    A nd           | Version:  9
     \\/     M anipulation  |
\*---------------------------------------------------------------------------*/
FoamFile
{
    format      ascii;
    class       volScalarField;
    location    "4";
    object      nut;
}
// * * * * * * * * * * * * * * * * * * * * * * * * * * * * * * * * * * * * * //

dimensions      [0 2 -1 0 0 0 0];

internalField   nonuniform List<scalar> 
46400
(
0.0168081
0.00645532
0.00193372
0.00121055
0.0012581
0.00120735
0.00112353
0.00110697
0.00105258
0.00103451
0.000983361
0.000946216
0.000921681
0.000891456
0.000849592
0.000833198
0.00080575
0.000721335
0.000966283
0.000849924
0.0165318
0.00549905
0.00133976
0.00127004
0.00121595
0.00120122
0.00115248
0.00112265
0.00105957
0.00105653
0.0010192
0.000972801
0.000949859
0.000931511
0.000893895
0.000867324
0.000827015
0.000738519
0.000944725
0.000864554
0.0161896
0.00455766
0.00121471
0.00134397
0.00127421
0.00125487
0.00116412
0.00115051
0.0010858
0.00106382
0.00102329
0.000984996
0.000949096
0.000916117
0.000893347
0.000869086
0.00083711
0.000767543
0.00103182
0.000940311
0.0157885
0.00383203
0.00115962
0.0013593
0.0012402
0.00124801
0.00119414
0.00116249
0.00110807
0.00109011
0.00106145
0.00101158
0.000992078
0.000962591
0.000925955
0.000912894
0.000877024
0.000789534
0.00105504
0.00100156
0.0152839
0.0037742
0.00125336
0.00140139
0.0013063
0.00127945
0.00119992
0.00118227
0.00111912
0.00108941
0.00106053
0.00102011
0.000977382
0.000956843
0.000927312
0.000893546
0.000875774
0.000792992
0.00103309
0.0009921
0.0146382
0.00449651
0.0013092
0.00142863
0.00130974
0.00130965
0.00124548
0.00120331
0.00115456
0.00111749
0.00109446
0.0010553
0.00102439
0.000979636
0.000975545
0.000948541
0.000902536
0.000847711
0.00104514
0.00100173
0.0140287
0.00414141
0.00138261
0.00147861
0.0013614
0.00132498
0.00126037
0.00122261
0.00116087
0.00111475
0.00108204
0.00104817
0.00102648
0.000967792
0.000920132
0.0009155
0.000876226
0.000823176
0.00103748
0.000987788
0.0130427
0.00364762
0.00140444
0.00149298
0.00137359
0.00133756
0.0012901
0.0012426
0.00120121
0.00114184
0.0011062
0.00106234
0.00106601
0.00106645
0.00101355
0.0009553
0.000917039
0.000832233
0.00100505
0.00100854
0.0118527
0.00296554
0.00145754
0.00146379
0.00140189
0.00132593
0.00128579
0.00124124
0.00120374
0.00115429
0.00109492
0.00101628
0.000972885
0.000970529
0.000995709
0.000980365
0.000939957
0.000883152
0.000977518
0.000974613
0.00949984
0.00238833
0.00149363
0.0014477
0.00139827
0.00132551
0.00128364
0.00124541
0.00122297
0.0011963
0.00120112
0.00111538
0.00103268
0.000966185
0.000940765
0.000948554
0.000930714
0.000890397
0.000999968
0.000960394
0.0077625
0.00203827
0.00149963
0.00142911
0.00140506
0.00132915
0.00126841
0.00120845
0.00119298
0.00113505
0.00113648
0.00114502
0.00107764
0.00101475
0.000957044
0.000912967
0.000910226
0.000871156
0.000989341
0.0010007
0.00610347
0.00177251
0.00150815
0.00143052
0.00140813
0.00134293
0.00130293
0.00121225
0.00120373
0.00118219
0.00114506
0.00113942
0.00113934
0.00107047
0.00103246
0.000957776
0.00090348
0.000860563
0.000929947
0.000943408
0.00511886
0.00162968
0.00149841
0.00140417
0.00141754
0.00135425
0.00132083
0.00119633
0.00112476
0.00108775
0.00109179
0.00107937
0.00110701
0.00111461
0.00109166
0.00107855
0.00100468
0.000948508
0.000966726
0.000930149
0.00434493
0.00161328
0.00155343
0.00140355
0.00138555
0.00137759
0.00144719
0.00136899
0.00125574
0.0011403
0.00105574
0.00101426
0.000981924
0.000988996
0.000991503
0.00100207
0.000998947
0.000951975
0.00101403
0.000962207
0.00400079
0.0015441
0.00156017
0.00144479
0.00134083
0.00119663
0.00126419
0.00134001
0.00132723
0.00129908
0.00122072
0.00113731
0.00107542
0.00101369
0.000983013
0.000956663
0.000945481
0.000912169
0.000958746
0.000965314
0.00410972
0.00151873
0.00142432
0.00150366
0.0015108
0.00131676
0.00117262
0.00118762
0.00118443
0.0011912
0.00119139
0.00116592
0.00112204
0.00108547
0.00103282
0.001005
0.00095938
0.000916096
0.000948127
0.000916812
0.00381826
0.00160322
0.00137092
0.00134554
0.00147461
0.00148571
0.00133485
0.0012671
0.00120437
0.00117298
0.00113388
0.00112441
0.00109055
0.00106687
0.00103418
0.00100411
0.000973028
0.00091271
0.000937526
0.000917295
0.00213631
0.00165266
0.00159502
0.00144266
0.00137983
0.00144989
0.00140545
0.0013468
0.00129741
0.00123955
0.00120056
0.00114756
0.00112224
0.00107326
0.00104932
0.00100786
0.000983357
0.000927019
0.000935547
0.000922721
0.000937401
0.00151541
0.00165518
0.00156608
0.00137475
0.00136747
0.00135112
0.00130939
0.0012884
0.00124418
0.00121808
0.00117975
0.00115185
0.00111901
0.00108827
0.00106133
0.0010278
0.000983918
0.000995236
0.000962105
0.00141204
0.00171131
0.00168572
0.00158117
0.00148694
0.00137085
0.00134112
0.00127159
0.00124623
0.00118695
0.00116621
0.00111596
0.00109731
0.00105752
0.00103687
0.0010094
0.000984595
0.000937454
0.00096056
0.000931384
0.00125398
2.62563e-24
0.00144116
0.00555834
0.0094567
0.0097939
0.00654382
0.00285211
0.00100644
0.000335182
9.61124e-05
0.000182884
0.000287717
0.000253913
0.000174813
0.000215202
0.000217534
0.000262537
0.000240956
0.000230763
0.000676069
0.00068952
0.00397288
0.00855344
0.0105044
0.00743913
0.00351885
0.00125837
0.000377467
0.000104004
0.000213466
0.000305811
0.000188697
0.000168657
0.000227754
0.000233061
0.000204047
0.000238142
0.000225128
0.000250107
4.70924e-24
0.00215528
0.00703315
0.0105282
0.00872103
0.00461132
0.00165745
0.000433363
9.67789e-05
0.000224245
0.000272806
0.000202268
0.000186471
0.000259466
0.000232521
0.000194366
0.000226358
0.000295389
0.000242676
0.000235887
0.000621639
0.00429673
0.00917633
0.0103888
0.00639528
0.00249325
0.000623651
9.26139e-05
0.000213267
0.000273624
0.000231932
0.000248171
0.000265517
0.000237553
0.000203972
0.000245584
0.000294955
0.000268518
0.000191632
0.000255718
0.000970304
0.00721129
0.0106723
0.00877828
0.0042529
0.00111657
7.51638e-05
0.00016507
0.000262598
0.000276091
0.000264113
0.00025557
0.000221769
0.000253903
0.000245128
0.000276156
0.000258312
0.000256229
0.00023775
0.000274933
0.00273741
0.00859322
0.0109628
0.00699737
0.00231596
0.000208419
7.77125e-05
0.000237515
0.00030304
0.000303662
0.000268524
0.000266269
0.000295987
0.000284305
0.000248647
0.000294392
0.00030668
0.000312601
0.000226459
0.000275681
0.0024914
0.0101091
0.0103945
0.00509229
0.000899124
0.000102183
0.000242683
0.000340484
0.000350223
0.000296176
0.000308575
0.000314195
0.000283282
0.000285002
0.000293089
0.000347381
0.000294956
0.000277715
0.000238857
0.000312073
0.00493253
0.0108915
0.00907112
0.00299175
0.00023971
0.000169953
0.000361165
0.000390566
0.000337884
0.000362726
0.000347682
0.000327603
0.000347772
0.000343343
0.000323036
0.000353473
0.000320657
0.000352259
0.000277002
0.000335953
0.00715392
0.0113868
0.00797003
0.00126286
0.000219624
0.000375154
0.000442968
0.000440702
0.000446416
0.000404525
0.000390926
0.000395058
0.000370794
0.000352131
0.000367056
0.000413645
0.000340966
0.000343788
0.000286561
0.000371418
0.0095018
0.0113869
0.0065152
0.000591037
0.000232787
0.000506162
0.000568808
0.000511354
0.000464983
0.000470558
0.000454686
0.0004262
0.000430962
0.000422816
0.000414088
0.000419661
0.000368295
0.0004176
0.000340794
0.000407131
0.0119948
0.0112479
0.00445156
0.000358094
0.000496115
0.000633501
0.000603854
0.000565469
0.000570991
0.000532627
0.000496409
0.000494889
0.000473346
0.000442861
0.000457918
0.000481591
0.000416678
0.000427372
0.000354054
0.000426388
0.0136611
0.011007
0.00303105
0.000438665
0.000618968
0.000701667
0.000697935
0.000651764
0.000598344
0.000591619
0.000570132
0.000539015
0.000531816
0.000517906
0.000510722
0.000497648
0.000462518
0.000498638
0.000400197
0.000485754
0.0148954
0.0105684
0.00186167
0.000273542
0.000785588
0.000778146
0.000746218
0.000692802
0.000693625
0.000658642
0.000609027
0.000604016
0.000581546
0.000547256
0.00055784
0.000564575
0.000523048
0.00052126
0.000409509
0.00051952
0.0154193
0.0101972
0.00116591
0.000461285
0.000854634
0.00080513
0.000827966
0.000774654
0.000723113
0.000712982
0.000683106
0.000652076
0.00063947
0.000619955
0.000606163
0.000588934
0.000574827
0.000583175
0.000437126
0.000549101
0.0161019
0.00977083
0.000973246
0.000632573
0.00102785
0.00090022
0.000889555
0.000821831
0.000811393
0.000782444
0.000723638
0.000713407
0.000687968
0.000653449
0.000655242
0.000649461
0.00062959
0.000611461
0.000447126
0.000575231
0.0164995
0.00935977
0.00160855
0.000808287
0.0010228
0.000929254
0.000942159
0.0008969
0.000836849
0.000830537
0.000793532
0.000761955
0.000747737
0.000723721
0.000700242
0.000686306
0.000693729
0.000674594
0.000478224
0.000608951
0.0168601
0.00895249
0.00235098
0.00097529
0.00112848
0.00102438
0.000999284
0.000940014
0.000917872
0.000892618
0.000832725
0.000817575
0.000791171
0.000760267
0.000748672
0.000733921
0.000735734
0.000709335
0.00050071
0.000642909
0.0170041
0.00866297
0.00224659
0.00101973
0.00113863
0.00102458
0.00103638
0.000997012
0.000931874
0.000932713
0.000889441
0.000858086
0.000845847
0.000820538
0.000790658
0.00078092
0.000799763
0.000772528
0.000555497
0.000705843
0.0170648
0.00829669
0.00217249
0.00108789
0.00122678
0.00112474
0.0010753
0.00104204
0.00100477
0.000986593
0.000931868
0.000909402
0.000888349
0.000865731
0.000839112
0.000822834
0.000850732
0.000833418
0.000607934
0.000730287
0.0169783
0.00751194
0.0020324
0.0011333
0.00120374
0.00112523
0.00110412
0.00107456
0.00100869
0.0010143
0.000972672
0.000940407
0.000932705
0.000915722
0.000889724
0.000895969
0.000919946
0.000888981
0.000778215
0.000882877
0.00228094
0.00209374
0.0019149
0.00151632
0.00169103
0.00150796
0.00140649
0.00129901
0.00130102
0.00127543
0.00115485
0.00112125
0.00111182
0.00110148
0.000954919
0.000840196
0.000932194
0.00431389
0.0101517
0.0220891
0.00239521
0.00208124
0.00197063
0.00155729
0.00162839
0.00142916
0.00149985
0.00144216
0.00136287
0.00126968
0.00112929
0.00111148
0.00109298
0.00105713
0.00090961
0.000770716
0.000898463
0.00445391
0.010179
0.0217889
0.00237896
0.00219718
0.0020569
0.00155826
0.00171269
0.00150056
0.00140643
0.00130112
0.0013001
0.00126313
0.00113202
0.00111395
0.00110824
0.00108179
0.000925672
0.000816892
0.000940353
0.00447232
0.0102336
0.021638
0.00255524
0.00220797
0.00207639
0.00160066
0.00169352
0.00141816
0.00147973
0.00143183
0.00135716
0.00125772
0.00110871
0.0011066
0.00109341
0.00104039
0.000877763
0.00074918
0.000908369
0.00455771
0.0102466
0.0213553
0.00266909
0.0022874
0.00213485
0.0016331
0.00175062
0.00147285
0.00139646
0.00131293
0.00130575
0.00125379
0.001114
0.00111042
0.00110658
0.00106263
0.000896004
0.000799083
0.000951895
0.0045476
0.010304
0.0212103
0.00284926
0.00233016
0.00214336
0.00164467
0.00172954
0.00142474
0.00147954
0.00142637
0.00134697
0.00124698
0.00109261
0.00110356
0.00109405
0.00102295
0.000846499
0.000736013
0.00092077
0.00461424
0.0103077
0.0209509
0.00307065
0.00238275
0.00215766
0.00169871
0.00178245
0.00145951
0.00138849
0.00132335
0.00130965
0.00124744
0.00110031
0.00110828
0.00110501
0.00104142
0.000868327
0.000790325
0.000963244
0.0046041
0.0103621
0.0208131
0.00323721
0.00238752
0.00218539
0.00173398
0.0017488
0.00145209
0.00148663
0.00141935
0.00133678
0.00123989
0.00108139
0.00110055
0.00109266
0.00100286
0.000820139
0.000732498
0.000930083
0.00465387
0.0103603
0.0205808
0.00346374
0.0024559
0.00217832
0.00176341
0.00179687
0.0014778
0.00138984
0.00132813
0.00130944
0.00124401
0.0010916
0.0011055
0.00110101
0.00101766
0.000845988
0.000790745
0.000968594
0.00463988
0.0104094
0.0204529
0.00358925
0.00243674
0.0022154
0.00182859
0.001753
0.00150288
0.00149226
0.00140613
0.00132788
0.00123682
0.00107595
0.00109658
0.00108686
0.000980206
0.000801861
0.000738688
0.000934532
0.00467087
0.0104023
0.020249
0.00374675
0.00251104
0.0022331
0.00184505
0.00179986
0.00151626
0.00139294
0.00132627
0.00130647
0.00124273
0.00108912
0.0011018
0.00109279
0.000993082
0.000833838
0.000796694
0.000965955
0.00465006
0.0104495
0.0201305
0.00383886
0.00249806
0.00226964
0.00190802
0.0017588
0.00156717
0.0014942
0.00139025
0.00132028
0.00123647
0.00107739
0.00109167
0.00107584
0.000956452
0.000790606
0.000748795
0.0009393
0.00465185
0.0104411
0.0199519
0.0039682
0.00254765
0.00231009
0.00192732
0.0017967
0.00155396
0.00139284
0.00132152
0.00130184
0.00124262
0.00109339
0.00109707
0.00107833
0.000968439
0.000827647
0.000808173
0.000969992
0.00462189
0.010485
0.0198422
0.00409583
0.0025563
0.00235054
0.00196491
0.00177083
0.00162324
0.00149337
0.00137786
0.00131301
0.0012377
0.00108618
0.00108628
0.00105935
0.000934997
0.000789041
0.000764053
0.00094687
0.0046226
0.0104773
0.0196732
0.00421243
0.00257442
0.00238977
0.00199478
0.00179182
0.00158315
0.00139634
0.00131993
0.00129508
0.00124265
0.00110495
0.00109322
0.0010592
0.000947141
0.000826504
0.0008172
0.000976266
0.00458598
0.0105239
0.0195919
0.00433229
0.00261756
0.00243501
0.00199696
0.00176986
0.0016579
0.00149494
0.00137002
0.00130115
0.00123598
0.0011011
0.0010816
0.00103606
0.000910246
0.000785454
0.000775743
0.000961397
0.00453344
0.010515
0.0194197
0.00453954
0.0026484
0.00247168
0.00203622
0.00177366
0.00160882
0.00141471
0.0013264
0.00128581
0.00124137
0.00112256
0.00108951
0.00103258
0.000923077
0.000827939
0.000829311
0.00098691
0.00452238
0.0105878
0.0192834
0.00458654
0.00269097
0.00249655
0.00201662
0.00175223
0.00168831
0.00151694
0.00137981
0.0012959
0.00124065
0.00112856
0.00109094
0.00102123
0.00091418
0.000815441
0.000819398
0.000974664
0.00448281
0.0106104
0.0193153
0.00449739
0.00271866
0.00244232
0.00200074
0.00169937
0.00160735
0.00143232
0.00132272
0.00125224
0.00121282
0.00113871
0.00110026
0.00100679
0.000890434
0.000825817
0.000824938
0.00102666
0.00440213
0.0106111
0.019213
0.00521056
0.00298474
0.0025642
0.00198169
0.00169372
0.00169638
0.00155422
0.00139406
0.00127566
0.0012408
0.00115781
0.00109191
0.000978787
0.000874752
0.000806821
0.000813311
0.000989529
0.00412167
0.0102892
0.0188403
0.0181097
0.0308246
0.0128352
0.0218217
0.015738
0.0177966
0.0155332
0.013827
0.0126655
0.0120613
0.0116099
0.011436
0.0100523
0.00894723
0.00846092
0.00930151
0.0114506
0.0406234
0.0968899
0.165782
0.031487
0.0224932
0.0196352
0.0175846
0.0164048
0.0141531
0.012893
0.0118752
0.0109652
0.00972935
0.00881931
0.00875842
0.0074156
0.00770667
0.00763638
0.0067573
0.0112657
0.0405966
0.0968863
0.152539
0.0144684
0.0142032
0.0148665
0.0127167
0.0116523
0.010867
0.0102926
0.00936374
0.00872164
0.00846556
0.00817421
0.00784386
0.00742448
0.00732693
0.0071947
0.00636687
0.0106129
0.0400912
0.0955941
0.147421
0.0125403
0.0117638
0.0100208
0.00901293
0.0092085
0.00864553
0.00833749
0.00808697
0.00786398
0.00733351
0.00694896
0.00661296
0.00646881
0.00610598
0.00610028
0.00498061
0.00820238
0.0423082
0.0955392
0.137101
0.00667126
0.00711441
0.00796641
0.00746748
0.00716637
0.00672576
0.00644557
0.00601406
0.0058007
0.00588224
0.00578376
0.00571194
0.00560026
0.00554201
0.00525892
0.00468651
0.00991256
0.0389284
0.0955741
0.134438
0.00566377
0.00663689
0.00572295
0.00453648
0.00485869
0.0051571
0.00531648
0.00545305
0.00533904
0.00510002
0.00506174
0.00497086
0.00487284
0.00471
0.00492813
0.00393505
0.00489826
0.0386174
0.0961295
0.1309
0.00352548
0.00379986
0.00395312
0.00426991
0.00424375
0.00416849
0.00403899
0.00391607
0.00399474
0.00421514
0.00417579
0.00426286
0.00433859
0.00442497
0.00426122
0.00355702
0.00721648
0.031942
0.0965934
0.130235
0.00307042
0.00340361
0.00342972
0.00257502
0.00244189
0.00305354
0.00337075
0.00364166
0.00365075
0.00365976
0.00374332
0.00375969
0.00367839
0.00373882
0.00390017
0.00330567
0.00526608
0.0277542
0.0965177
0.132195
0.00183376
0.00219774
0.00220587
0.0021087
0.00258626
0.00274115
0.00258458
0.00267986
0.00287635
0.00311364
0.00317488
0.00342945
0.00350859
0.00365239
0.00352726
0.00318281
0.00273241
0.0219723
0.0964572
0.136402
0.00155624
0.00179877
0.00176101
0.0015844
0.00159712
0.0018787
0.00220776
0.00249061
0.0025206
0.00267914
0.00282935
0.00301824
0.00301316
0.00328475
0.00337412
0.00333519
0.00308848
0.0153583
0.0937225
0.143838
0.000914082
0.00120757
0.0012323
0.00134464
0.00161821
0.00181553
0.00186978
0.0020244
0.0021588
0.0023892
0.00249252
0.00281684
0.0029813
0.00325262
0.00326279
0.00348767
0.00257687
0.011427
0.0893924
0.154632
0.00085059
0.000928525
0.00106409
0.00108591
0.00109424
0.00127635
0.00142442
0.00169132
0.001853
0.00200393
0.0021751
0.00241584
0.00256742
0.00292051
0.00312111
0.00356624
0.00275621
0.00543124
0.0685808
0.165479
0.000513561
0.000668423
0.000777952
0.00097123
0.00105202
0.00123536
0.00140036
0.00146084
0.00159038
0.00182825
0.00199958
0.00221975
0.00241142
0.00263604
0.00287254
0.00327252
0.00339645
0.00416177
0.0562478
0.181924
0.000421471
0.000528986
0.000551977
0.000647936
0.000748314
0.000827623
0.000905579
0.00115109
0.00125578
0.00141017
0.00153729
0.00176771
0.00203201
0.00228252
0.0027384
0.00283526
0.0036951
0.00816182
0.0335683
0.172454
0.000400508
0.000495223
0.000570763
0.000656188
0.000702303
0.000842393
0.000844455
0.000930417
0.00104334
0.00119609
0.00115268
0.00140258
0.00142236
0.00174237
0.00176652
0.00222584
0.00236964
0.00554459
0.019642
0.126563
0.000332697
0.000373125
0.000400725
0.000461506
0.000488501
0.000552838
0.000658785
0.000739451
0.000721553
0.000905306
0.000990839
0.00118576
0.0012472
0.00151094
0.00149921
0.001976
0.00183192
0.00364397
0.00729529
0.0809548
0.000346692
0.000367693
0.000331967
0.00038594
0.000403936
0.00042686
0.000437103
0.000538365
0.000596574
0.000650664
0.000688243
0.000822265
0.000838469
0.00101332
0.00102062
0.00126358
0.00116217
0.00188872
0.00367267
0.0498814
0.000312112
0.000328265
0.000342137
0.000378138
0.000401938
0.000463919
0.000525426
0.000626875
0.000660161
0.000736374
0.000788183
0.000907007
0.000931362
0.00109302
0.000964026
0.001122
0.00114398
0.00121527
0.00127633
0.0263167
0.000392713
0.000426926
0.000402317
0.000448849
0.000431717
0.00046473
0.000434349
0.000484989
0.000543278
0.000570659
0.000609158
0.000666137
0.000712017
0.000774292
0.000731666
0.000690866
0.000823633
0.000822978
0.000936911
0.0100836
0.000447574
0.000469034
0.000490094
0.000503718
0.000538355
0.000557935
0.000619371
0.000653771
0.000681763
0.00072433
0.000751408
0.000805983
0.000827435
0.000894162
0.000885046
0.000966457
0.000994765
0.000739475
0.00083057
0.00575448
0.0138717
0.0137854
0.0135898
0.0137388
0.0135404
0.0135423
0.0134109
0.0131572
0.0131073
0.012715
0.0127641
0.0126129
0.0111337
0.0111567
0.0112675
0.0113016
0.0105857
0.00877939
0.00783636
0.00759432
0.0070022
0.00698748
0.00696336
0.00694115
0.00685617
0.00684795
0.00656051
0.0066132
0.00662037
0.00651097
0.00627528
0.00615093
0.00604165
0.00761937
0.00906594
0.00740998
0.0054038
0.0056557
0.00577902
0.00671131
0.00430197
0.00432386
0.00435808
0.00436037
0.00439814
0.00441957
0.00448504
0.00454857
0.00442036
0.00448279
0.00448664
0.0047847
0.00441038
0.00396527
0.00356462
0.00411237
0.00431325
0.00448747
0.00367142
0.00357728
0.0027336
0.002724
0.00269521
0.00270356
0.0026622
0.00266514
0.00263492
0.00257227
0.00259302
0.00259119
0.00242776
0.00248186
0.00277229
0.00305457
0.00295558
0.00293405
0.00257554
0.00270503
0.00239074
0.00269829
0.00171635
0.00171486
0.00171051
0.00171486
0.00171608
0.00172711
0.00173909
0.00175021
0.00175698
0.00182886
0.00196708
0.0019569
0.00175376
0.00176923
0.00180888
0.00179959
0.00162653
0.00177591
0.00159792
0.00162089
0.00123792
0.00123413
0.0012254
0.00122889
0.00122878
0.00123892
0.00124162
0.00124349
0.00125103
0.00126697
0.00124511
0.00120333
0.00121251
0.00123875
0.00119946
0.00119344
0.00113583
0.00123064
0.00111573
0.00118383
0.000750763
0.000748631
0.000744507
0.000744612
0.000744091
0.00074576
0.00074694
0.00075002
0.000750691
0.000802446
0.000809438
0.000759385
0.000733654
0.000713219
0.00066056
0.000706747
0.000753641
0.000800204
0.000724502
0.00075161
0.000550088
0.000548834
0.000545317
0.000543834
0.000539064
0.000536945
0.000535008
0.000536749
0.000540581
0.000548622
0.000532843
0.000546898
0.000537326
0.000522222
0.000531399
0.000574296
0.000523864
0.000545971
0.000514157
0.000555086
0.000310591
0.000308875
0.000309216
0.000307279
0.000304357
0.000300406
0.000296824
0.000295176
0.000295347
0.000298796
0.00030338
0.000326186
0.000307625
0.000319745
0.000358077
0.000328149
0.000281926
0.000335197
0.000295882
0.000352011
0.000215199
0.000212933
0.000213994
0.000213381
0.000212499
0.000210188
0.000207168
0.000205672
0.000208401
0.000210199
0.000214128
0.000227741
0.00025334
0.000289079
0.000243411
0.00025878
0.000260908
0.000239162
0.000237108
0.000353833
9.63581e-05
9.51988e-05
9.43221e-05
9.42416e-05
9.44814e-05
9.45184e-05
9.32156e-05
9.51939e-05
0.0001013
0.000107532
0.000126807
0.000149911
0.000223155
0.000190054
0.000120095
0.000118814
0.000123824
0.000188147
9.07659e-05
0.000172587
1.0896e-05
1.47362e-05
1.92581e-05
2.61404e-05
3.39151e-05
3.65876e-05
3.69757e-05
4.43223e-05
5.67766e-05
6.2844e-05
9.14034e-05
8.6214e-05
6.58994e-05
4.74457e-05
8.10101e-05
0.000163887
0.000119182
0.000129865
0.000233635
0.000314456
3.18009e-05
3.17159e-05
2.96346e-05
3.05834e-05
3.67724e-05
3.73503e-05
3.39913e-05
2.95759e-05
2.74467e-05
4.20417e-05
4.30566e-05
4.68011e-05
0.000126043
0.000184793
0.000147707
0.000129271
0.000112951
7.55322e-05
4.91707e-05
9.58059e-05
5.51092e-05
4.53967e-05
3.33845e-05
2.93525e-05
3.44839e-05
3.88628e-05
4.35071e-05
4.87581e-05
4.69373e-05
5.27533e-05
5.12443e-05
5.6701e-05
6.67582e-05
6.04476e-05
7.41395e-05
8.44437e-05
9.11515e-05
0.000119211
0.00013684
0.000124677
6.07507e-05
6.08697e-05
5.94739e-05
6.12495e-05
5.90248e-05
5.85893e-05
5.89608e-05
6.08161e-05
6.1092e-05
6.31309e-05
5.29957e-05
6.55712e-05
5.57484e-05
6.26575e-05
6.17914e-05
5.98805e-05
6.27229e-05
6.4455e-05
7.46536e-05
9.0618e-05
5.36815e-05
5.48522e-05
5.95441e-05
6.56723e-05
7.43234e-05
7.5311e-05
7.58038e-05
7.45169e-05
7.49947e-05
7.3588e-05
7.32246e-05
7.08361e-05
7.08454e-05
7.01506e-05
7.00943e-05
6.96746e-05
7.21842e-05
7.09994e-05
7.52438e-05
7.81185e-05
7.35049e-05
7.2852e-05
7.33212e-05
7.32002e-05
7.28933e-05
7.2251e-05
7.22862e-05
7.20408e-05
7.24094e-05
7.26479e-05
7.31434e-05
7.38126e-05
7.36527e-05
7.36049e-05
7.33823e-05
7.47343e-05
7.49107e-05
7.62234e-05
7.68223e-05
8.13151e-05
7.09188e-05
7.07876e-05
7.02443e-05
6.97906e-05
6.94573e-05
6.89426e-05
6.88352e-05
6.84433e-05
6.88572e-05
6.8373e-05
6.88947e-05
6.83897e-05
6.95521e-05
6.94636e-05
7.1637e-05
7.10946e-05
7.30627e-05
7.14936e-05
7.41018e-05
7.28159e-05
7.92691e-05
8.05017e-05
8.15581e-05
8.28331e-05
8.3703e-05
8.50501e-05
8.58553e-05
8.73038e-05
8.79339e-05
8.93777e-05
8.98397e-05
9.15802e-05
9.18657e-05
9.38736e-05
9.35761e-05
9.52043e-05
9.43538e-05
9.61217e-05
9.54771e-05
9.83995e-05
8.13897e-05
8.27993e-05
8.41992e-05
8.58637e-05
8.75726e-05
8.92239e-05
9.078e-05
9.2281e-05
9.3784e-05
9.50323e-05
9.65101e-05
9.76636e-05
9.92628e-05
0.000100409
0.000102069
0.000102855
0.000104146
0.000105174
0.000106139
0.000106751
0.00106979
0.00141052
0.00100449
0.0010327
0.00109108
0.00106657
0.00109357
0.00114271
0.0011581
0.00119454
0.00124853
0.00127964
0.00135008
0.00136232
0.00143651
0.00145894
0.00148214
0.00200319
0.00702227
0.0202968
0.00101706
0.00114797
0.000833675
0.000901381
0.000986247
0.00102137
0.00106003
0.00110727
0.00114633
0.00119429
0.00124541
0.00127854
0.00134411
0.00138161
0.00146309
0.00146427
0.00153909
0.00143249
0.00586148
0.019911
0.00103806
0.00129088
0.000945385
0.000973752
0.00106541
0.00107
0.00110744
0.00115612
0.00117641
0.00121906
0.00126375
0.00130133
0.00136243
0.00137871
0.00145279
0.00143701
0.00155668
0.00129171
0.00496678
0.0194766
0.00109933
0.00126687
0.000896871
0.000939449
0.00100549
0.00103352
0.00107181
0.00110575
0.00114267
0.00119966
0.00124962
0.00129131
0.00135412
0.00138691
0.00146814
0.00146988
0.00161483
0.00133087
0.00422751
0.0189871
0.00109753
0.00128296
0.000941959
0.000985168
0.00106574
0.00108227
0.00111785
0.00116382
0.0012017
0.00125037
0.00128284
0.00132823
0.00137487
0.00140425
0.00147696
0.00146666
0.00161074
0.00136017
0.00475438
0.0183879
0.00113455
0.00128781
0.000939395
0.000989981
0.00104526
0.00107088
0.00110606
0.00114242
0.00117847
0.00121782
0.00126076
0.00130534
0.00136035
0.00140776
0.00148208
0.00150886
0.00167734
0.00148325
0.0051566
0.0178219
0.00111964
0.00126035
0.000951293
0.00100598
0.00107481
0.0010979
0.00112833
0.00117498
0.00119932
0.00124806
0.00128087
0.00133303
0.00138047
0.0014238
0.00149296
0.00150986
0.00166359
0.00150049
0.00501828
0.0171746
0.00115907
0.00127641
0.000966517
0.00102922
0.00107702
0.0010953
0.00113513
0.00116054
0.00118903
0.00122727
0.00125954
0.00131314
0.001351
0.00141464
0.0014753
0.00153267
0.00168486
0.00151493
0.00439817
0.0159832
0.00114802
0.0012321
0.000952458
0.00101536
0.00106114
0.00109414
0.00111174
0.00114208
0.00116445
0.00121035
0.00125723
0.00130842
0.00136048
0.00142655
0.00147115
0.00153529
0.00163823
0.00152168
0.00331047
0.0141247
0.00114002
0.00117776
0.000958345
0.00101448
0.00106212
0.00108333
0.00110009
0.00113214
0.00116271
0.00123293
0.00125871
0.00132033
0.00136599
0.00141943
0.00145879
0.00154548
0.00154895
0.00153068
0.00271203
0.0114076
0.00104914
0.00109316
0.000933125
0.000978029
0.00102822
0.00103829
0.00106705
0.00110886
0.00117356
0.00121995
0.00125128
0.00131782
0.00133644
0.00139117
0.00142974
0.00147475
0.00152271
0.00159086
0.00227009
0.00921526
0.00105478
0.00111951
0.000964089
0.00101238
0.00105012
0.00108315
0.00112978
0.00118975
0.0012267
0.00125028
0.00127907
0.00131292
0.00132718
0.00139582
0.00141494
0.00149024
0.0014865
0.00156038
0.00198511
0.00763022
0.00105768
0.00108852
0.000968981
0.00101314
0.00105434
0.0010943
0.00112081
0.00114657
0.00114414
0.00117282
0.0011927
0.0012463
0.0012938
0.00137311
0.00139637
0.00144404
0.0014807
0.00159943
0.00182695
0.00632086
0.00101528
0.00103502
0.000951127
0.000989835
0.00102872
0.00104777
0.00106355
0.00108912
0.00112134
0.00118804
0.00124038
0.00132905
0.00135514
0.00139831
0.00135866
0.00143493
0.00150723
0.00160502
0.00170076
0.00540291
0.000995687
0.00103524
0.000971944
0.00100479
0.00104141
0.00106651
0.00110364
0.0011516
0.00120567
0.00125514
0.0012802
0.00129698
0.00127293
0.00130455
0.00133474
0.00151669
0.00155005
0.00162374
0.00166958
0.00478566
0.00101009
0.00105698
0.00098983
0.00102279
0.00105842
0.00107921
0.0011121
0.00113725
0.00116031
0.00116738
0.00118386
0.00120847
0.00126015
0.00137137
0.00147358
0.0015927
0.0015108
0.00154358
0.00157394
0.00431249
0.000963193
0.00099381
0.000946269
0.000990569
0.0010208
0.00104888
0.0010782
0.00110765
0.00114184
0.00118253
0.00124189
0.00130128
0.00138286
0.0014356
0.00145225
0.00142365
0.00135764
0.00157172
0.00164432
0.00424446
0.000947182
0.000997721
0.000954527
0.000997952
0.00102919
0.00105807
0.00108539
0.00112306
0.00115534
0.00119734
0.00122847
0.00126202
0.00128508
0.00128508
0.00130756
0.00132691
0.00145671
0.00162817
0.00168548
0.00402139
0.000930025
0.00100494
0.000960478
0.00101856
0.00105098
0.00108443
0.00111293
0.00115293
0.00117834
0.00121907
0.00123809
0.00128129
0.00129743
0.00134663
0.0013811
0.00142051
0.00150446
0.00139118
0.00141579
0.00400482
0.000895743
0.000955915
0.000911464
0.000982803
0.000998166
0.00104332
0.00105689
0.00110934
0.00112766
0.00118517
0.00121354
0.0012749
0.00131352
0.00137972
0.0014301
0.00150026
0.00147198
0.00141945
0.00168431
0.00270926
0.000587171
0.000575936
0.000467847
0.000479391
0.000488191
0.000439453
0.000435063
0.000422043
0.000501009
0.000465194
0.000542976
0.000547082
0.000343968
0.000165129
0.000631908
0.00440172
0.00957824
0.0121989
0.00906604
0.00117125
0.000640952
0.000673706
0.000542713
0.000462071
0.000494633
0.00047146
0.000498505
0.000480733
0.000454891
0.00052057
0.000557234
0.000577919
0.000531539
0.000311748
0.000157655
0.00228643
0.00784029
0.0124897
0.0103101
0.00263888
0.000618157
0.000701415
0.000640339
0.000549077
0.000550584
0.000491374
0.000497897
0.000516031
0.000559112
0.000504786
0.000570413
0.00064181
0.000578738
0.000482669
0.000189579
0.000706491
0.00604796
0.0118385
0.0117644
0.00507144
0.000657587
0.000727494
0.000663376
0.000542195
0.000575284
0.000557556
0.000555279
0.000524319
0.000535655
0.000596742
0.000607916
0.000629143
0.000720625
0.000642024
0.00037958
0.000226787
0.00361441
0.0107743
0.0126703
0.0073261
0.000650393
0.000777435
0.000783802
0.00063986
0.000616096
0.00056523
0.000591499
0.000613942
0.000629014
0.000586349
0.000664401
0.000726282
0.000704564
0.000732507
0.000638241
0.000371717
0.00158579
0.00978564
0.0132942
0.00970361
0.000661884
0.000757472
0.000789564
0.000650422
0.000672194
0.000647018
0.000623306
0.000600667
0.000641622
0.000690799
0.000691608
0.000739898
0.00079001
0.000836542
0.000767278
0.000284466
0.000739637
0.00866856
0.013372
0.0122096
0.000677019
0.000805818
0.000883692
0.000724798
0.000687032
0.000655984
0.000691248
0.000705424
0.000703866
0.00068141
0.000767484
0.000829949
0.000813263
0.000891678
0.00090945
0.000630066
0.000401933
0.00682273
0.0135583
0.0144387
0.000679682
0.000773481
0.000882992
0.000747542
0.000755312
0.000728458
0.000699565
0.000692571
0.000751383
0.000785607
0.00078278
0.000840217
0.000897169
0.000938922
0.000956826
0.000758638
0.000261041
0.00486338
0.0133711
0.0166354
0.000699244
0.000802836
0.00093142
0.000781788
0.000749065
0.000745085
0.000780946
0.000788163
0.000782596
0.000780505
0.000869132
0.000935807
0.000929932
0.000980471
0.00107742
0.000989059
0.000216438
0.00325575
0.0132444
0.0173638
0.000708597
0.000782538
0.00095098
0.000820961
0.000816571
0.000803065
0.000777934
0.000783324
0.000851113
0.000873635
0.000878857
0.000941526
0.000999926
0.00105659
0.0010859
0.00104571
0.000303678
0.00230333
0.0127967
0.0182808
0.000719709
0.000779711
0.000952326
0.000817947
0.000797498
0.000819169
0.000851349
0.000857317
0.000857226
0.000868995
0.000957016
0.00102456