/*--------------------------------*- C++ -*----------------------------------*\
  =========                 |
  \\      /  F ield         | OpenFOAM: The Open Source CFD Toolbox
   \\    /   O peration     | Website:  https://openfoam.org
    \\  /    A nd           | Version:  9
     \\/     M anipulation  |
\*---------------------------------------------------------------------------*/
FoamFile
{
    format      ascii;
    class       volScalarField;
    location    "4";
    object      p;
}
// * * * * * * * * * * * * * * * * * * * * * * * * * * * * * * * * * * * * * //

dimensions      [0 2 -2 0 0 0 0];

internalField   nonuniform List<scalar> 
46400
(
53.1439
58.3449
68.9354
77.0306
84.5315
91.334
97.3148
102.798
107.648
112.1
116.078
119.695
123
126.009
128.795
131.395
133.782
136.182
138.883
139.74
72.4337
77.6178
87.0904
94.7463
101.554
107.758
113.218
118.181
122.597
126.592
130.165
133.381
136.276
138.881
141.214
143.316
145.163
146.918
148.552
148.544
92.5251
97.9006
106.146
113.153
119.164
124.727
129.533
133.9
137.711
141.166
144.205
146.907
149.326
151.469
153.38
155.064
156.52
157.882
159.133
158.673
113.247
117.779
124.803
131.2
136.568
141.486
145.744
149.555
152.885
155.826
158.412
160.66
162.626
164.333
165.813
167.087
168.138
169.102
170.033
169.368
133.32
136.79
143.315
149.087
153.863
158.19
161.837
165.061
167.797
170.193
172.237
173.972
175.461
176.701
177.746
178.593
179.25
179.847
180.45
179.562
152.011
155.457
161.562
166.832
171.017
174.724
177.804
180.447
182.667
184.523
186.095
187.361
188.397
189.217
189.859
190.327
190.615
190.86
191.105
190.009
170.874
174.938
180.067
184.508
187.937
190.92
193.329
195.315
196.915
198.187
199.188
199.933
200.473
200.805
200.992
201.02
200.914
200.777
200.62
199.304
189.667
194.264
198.165
201.734
204.424
206.641
208.422
209.792
210.846
211.577
212.094
212.368
212.474
212.391
212.171
211.806
211.306
210.805
210.278
208.713
208.653
212.709
215.618
218.075
219.998
221.437
222.53
223.259
223.719
223.9
223.878
223.654
223.292
222.798
222.209
221.503
220.685
219.85
218.994
217.276
226.287
229.278
231.501
233.146
234.405
235.208
235.735
235.934
235.912
235.63
235.166
234.491
233.684
232.746
231.738
230.634
229.452
228.264
227.048
225.093
241.872
244.102
245.682
246.645
247.295
247.515
247.482
247.158
246.66
245.951
245.104
244.092
242.954
241.681
240.332
238.907
237.413
235.936
234.435
232.298
255.475
257.208
258.298
258.765
258.964
258.722
258.26
257.494
256.579
255.457
254.225
252.841
251.353
249.756
248.079
246.338
244.547
242.785
241.054
238.699
267.096
268.275
268.936
268.919
268.698
268.06
267.209
266.065
264.77
263.322
261.78
260.148
258.429
256.621
254.739
252.773
250.743
248.711
246.695
244.199
277.508
278.181
278.442
278.035
277.433
276.453
275.282
273.81
272.155
270.326
268.414
266.408
264.372
262.269
260.141
257.965
255.74
253.527
251.344
248.687
285.508
285.464
285.421
284.659
283.749
282.469
281.071
279.488
277.725
275.778
273.687
271.489
269.208
266.891
264.53
262.159
259.744
257.357
255.028
252.303
291.937
291.845
291.324
290.435
289.201
287.648
285.889
283.991
281.947
279.788
277.508
275.14
272.697
270.196
267.672
265.117
262.552
260.012
257.589
254.716
294.593
294.697
294.169
293.237
292.023
290.512
288.696
286.688
284.522
282.228
279.845
277.362
274.832
272.235
269.623
266.984
264.332
261.716
259.226
256.368
298.006
297.487
296.886
295.604
294.163
292.378
290.405
288.19
285.856
283.374
280.821
278.188
275.504
272.787
270.039
267.287
264.51
261.771
259.117
256.217
297.007
296.824
296.125
295.079
293.512
291.769
289.757
287.574
285.225
282.752
280.183
277.526
274.821
272.055
269.28
266.465
263.647
260.832
258.11
255.064
295.154
294.931
294.216
293.029
291.461
289.619
287.573
285.313
282.951
280.422
277.849
275.162
272.468
269.701
266.948
264.152
261.363
258.589
255.941
252.931
-10.1286
-10.1303
-9.72575
-10.069
-9.34217
-9.16801
-7.84852
-6.64482
-5.19931
-3.86547
-2.94229
-1.94854
-0.689572
0.471243
1.41406
2.4933
3.51946
4.544
5.5631
6.55936
-10.3298
-10.2184
-9.87544
-10.0407
-9.84224
-8.24489
-7.21138
-5.61982
-4.08158
-2.85603
-1.56473
0.0267464
1.32299
2.50899
3.80425
5.11925
6.31852
7.55455
8.71608
9.8949
-11.3384
-10.8272
-11.5857
-9.72653
-9.55016
-8.53992
-6.82085
-5.03906
-3.49393
-1.78191
-0.00672968
1.6136
3.12875
4.7211
6.23425
7.66653
9.09047
10.5215
11.8375
13.1496
-11.5511
-11.4082
-11.9422
-11.7651
-9.86169
-8.19164
-6.21478
-4.41618
-2.38473
-0.360209
1.51707
3.39392
5.18036
6.93989
8.60403
10.2771
11.8941
13.4598
14.9354
16.4906
-12.0167
-12.1588
-11.4383
-11.9319
-10.1455
-7.98389
-5.89142
-3.72782
-1.39921
0.840089
2.98171
5.08155
7.095
9.11598
10.9883
12.893
14.6655
16.3678
17.9855
19.6746
-14.0741
-14.1259
-13.344
-12.5422
-10.7368
-8.1372
-5.66138
-3.06106
-0.472881
2.09355
4.52912
6.90035
9.19679
11.431
13.5438
15.6678
17.6082
19.5696
21.3529
23.2027
-17.1393
-16.607
-16.6627
-14.2004
-11.6772
-9.00248
-5.78445
-2.73259
0.29449
3.16968
5.98449
8.68834
11.2788
13.7921
16.149
18.487
20.626
22.7351
24.6302
26.6365
-22.7845
-21.9426
-21.3569
-18.0204
-13.9188
-10.0182
-6.24904
-2.5404
1.01025
4.42634
7.66252
10.7511
13.6937
16.4837
19.1217
21.6986
24.0025
26.3606
28.3961
30.5623
-30.7155
-29.8239
-26.6756
-21.8972
-16.6801
-11.4954
-6.73115
-2.23292
2.0016
5.94028
9.65807
13.1486
16.433
19.5222
22.4268
25.1918
27.7051
30.2307
32.3588
34.6832
-37.6556
-36.8142
-31.0674
-24.5699
-17.8838
-11.8177
-6.14245
-1.00396
3.81158
8.28131
12.4173
16.289
19.8973
23.2557
26.4095
29.3733
32.0521
34.7524
36.9737
39.4371
-42.9742
-41.3241
-33.1104
-25.479
-17.9344
-10.9677
-4.56439
1.22201
6.56914
11.4855
16.0253
20.2254
24.1142
27.712
31.0692
34.1591
37.0117
39.7814
42.032
44.6465
-43.817
-41.5563
-33.0904
-23.8561
-15.6199
-8.11594
-1.18731
5.03208
10.7747
16.0371
20.8547
25.3211
29.4263
33.2164
36.7386
39.9714
42.9565
45.7863
48.1065
50.872
-41.4228
-39.2417
-29.5233
-20.0431
-11.4184
-3.59509
3.66492
10.2151
16.2392
21.7628
26.8143
31.4658
35.7358
39.6619
43.2919
46.5982
49.6916
52.531
54.9223
57.8215
-37.4908
-34.841
-25.4211
-15.1097
-5.7312
2.47847
10.1363
16.9469
23.2122
28.9247
34.1102
38.8925
43.2525
47.2559
50.9389
54.2924
57.407
60.2223
62.6206
65.54
-30.954
-27.2923
-17.184
-7.44562
2.36456
10.6317
18.3936
25.338
31.6518
37.4408
42.6845
47.489
51.873
55.881
59.5494
62.8774
65.9895
68.7205
71.0867
74.0403
-21.7208
-17.7128
-7.7031
2.23174
11.9691
20.4202
28.2119
35.206
41.5542
47.3347
52.5525
57.3387
61.6775
65.6424
69.2534
72.5299
75.5647
78.1862
80.5024
83.4121
-10.4691
-6.29059
4.51782
14.6974
24.0916
32.3225
39.9066
46.727
52.8862
58.5359
63.6257
68.2772
72.5081
76.3557
79.8477
83.0138
85.9405
88.4141
90.6231
93.4259
3.20916
7.72461
18.5061
28.0764
37.3275
45.2948
52.6469
59.2893
65.2795
70.7494
75.6683
80.1672
84.2359
87.9385
91.2784
94.3059
97.0777
99.3855
101.461
104.038
18.2532
22.957
34.2619
43.3991
52.1845
59.8908
66.8543
73.1973
78.8676
84.0825
88.7668
93.0426
96.9398
100.473
103.677
106.614
109.291
111.464
113.526
116.44
34.9391
39.9818
51.056
59.6103
67.851
75.101
81.6431
87.6093
92.9711
97.8826
102.32
106.4
110.141
113.599
116.799
119.839
122.659
125.254
128.259
131.456
11.2756
19.4625
26.4728
27.6592
31.1215
30.3006
31.0066
30.0768
29.7554
29.1288
28.5157
28.1977
27.8306
27.8872
27.8966
28.3137
28.8357
29.1268
29.369
29.7138
15.0934
22.3065
29.4693
30.3202
33.7246
32.8231
33.6516
32.6621
32.1256
31.3261
30.5393
30.0942
29.5493
29.4481
29.3026
29.5198
29.9298
30.1307
30.2536
30.5175
18.7884
25.3337
32.5695
33.0837
36.5793
35.477
36.037
34.9189
34.3251
33.4816
32.556
31.9703
31.2803
31.0479
30.7545
30.8474
31.1099
31.0276
31.1693
31.4078
22.6168
28.3531
35.7427
35.8554
39.2558
38.0357
38.6374
37.4628
36.6426
35.6212
34.5159
33.7987
32.9383
32.5426
32.0935
31.9964
32.1317
31.9819
31.9591
32.1537
26.4165
31.5239
38.9717
38.7387
42.134
40.7183
41.0191
39.7118
38.798
37.7281
36.4752
35.6091
34.5954
34.0723
33.4827
33.2665
33.2371
32.8612
32.7989
32.9746
30.419
34.7392
42.2856
41.6211
44.8684
43.3332
43.5857
42.2171
41.061
39.8169
38.3781
37.376
36.1945
35.5058
34.7625
34.3636
34.1856
33.783
33.4944
33.6629
34.7067
38.1247
45.6256
44.6273
47.7571
46.0414
45.9591
44.463
43.1861
41.8804
40.2907
39.1281
37.7867
36.9742
36.0958
35.5613
35.2119
34.6457
34.2525
34.4133
39.0643
41.6009
49.0352
47.6349
50.5458
48.717
48.5051
46.9321
45.398
43.9251
42.1493
40.8389
39.3276
38.3496
37.3263
36.6198
36.0837
35.5376
34.8735
35.047
43.5397
45.2856
52.5496
50.6912
53.4536
51.4524
50.87
49.1767
47.5003
45.9512
44.0205
42.5401
40.8614
39.7624
38.6134
37.8121
37.0307
36.3864
35.5572
35.7308
48.3571
49.003
56.1005
53.8072
56.2672
54.2027
53.402
51.614
49.6691
47.9584
45.8454
44.2006
42.3455
41.08
39.8034
38.7891
37.8291
37.2659
36.1091
36.3145
53.3227
53.0534
59.6719
57.0289
59.1567
56.9755
55.7624
53.8565
51.7523
49.9517
47.6824
45.8543
43.8221
42.4313
41.0537
39.9086
38.7111
38.0913
36.7203
36.9366
58.4919
57.237
63.3206
60.2768
61.9907
59.7909
58.2964
56.2624
53.8862
51.9276
49.4868
47.4737
45.2504
43.701
42.2092
40.8519
39.5065
38.9009
37.1958
37.4734
64.0857
61.678
67.0226
63.5993
64.8802
62.5966
60.6678
58.5034
55.9535
53.8937
51.3055
49.0966
46.6803
45.0083
43.4305
41.8906
40.3945
39.7037
37.7432
38.0409
70.088
66.1976
70.8113
66.9459
67.7279
65.4652
63.2162
60.8786
58.057
55.8413
53.0967
50.6815
48.0501
46.2306
44.5635
42.8099
41.205
40.5105
38.1632
38.5188
76.7169
70.9442
74.6165
70.3297
70.5941
68.2837
65.6052
63.105
60.0941
57.7692
54.8968
52.2557
49.3887
47.4433
45.7322
43.785
42.0976
41.217
38.6655
39.0724
84.0571
75.9937
78.5898
73.7849
73.4519
71.2038
68.2046
65.4723
62.1842
59.706
56.7026
53.8409
50.7178
48.6278
46.838
44.6658
42.9431
41.9424
39.099
39.4056
91.6396
81.1904
82.56
77.3222
76.3609
74.0774
70.6867
67.7561
64.2589
61.6698
58.564
55.5131
52.171
50.0083
48.1315
45.7856
43.9005
42.8772
39.5661
40.0536
99.0563
85.8272
86.2326
80.5491
79.0583
76.8685
73.1635
69.9459
66.164
63.4256
60.2548
56.9364
53.2384
50.9337
49.1039
46.484
44.7819
43.5707
39.6592
40.8708
111.134
91.8159
90.2564
83.751
81.6308
79.5594
75.575
72.0037
67.925
65.0388
61.8427
58.1789
53.9582
51.4401
49.7166
46.7377
45.4642
43.7044
39.4341
40.5272
126.378
101.365
96.0999
88.9433
85.3117
83.3443
79.2783
75.3757
70.9547
67.9172
64.4727
60.7072
56.4031
53.8826
51.6874
48.7224
46.2779
44.6997
39.828
41.8641
141.507
136.872
121.244
116.716
106.197
101.639
95.9514
92.8994
88.635
85.3289
81.09
79.4989
77.2265
74.9473
69.8853
68.9485
60.9718
62.9987
52.3781
62.4373
162.489
152.48
138.356
130.217
121.004
114.083
107.268
101.828
96.727
92.8531
89.2174
85.9928
81.9224
78.7713
75.0273
72.5917
68.9518
67.3291
65.3743
66.2411
152.412
143.271
135.022
128.368
122.179
116.69
111.68
107.122
102.784
99.1886
95.7638
93.2482
90.6545
88.3885
85.5945
83.636
80.7586
79.2395
77.6752
77.7301
145.837
140.847
136.878
130.515
125.763
120.306
115.839
111.458
107.629
103.806
100.333
96.9508
93.9088
91.0483
88.505
85.9974
83.9294
81.9097
80.6839
80.5267
132.563
128.486
125.319
121.206
118.783
115.275
112.506
109.444
106.701
104.056
101.519
99.2075
96.9132
94.8263
92.74
90.7534
88.9751
87.2508
86.1155
85.576
125.918
124.164
123.572
120.762
118.76
115.78
113.373
110.617
108.097
105.511
103.036
100.58
98.2491
95.9163
93.8126
91.6903
89.8146
87.8838
86.676
86.6656
117.198
115.958
114.956
113.119
111.554
110.139
108.742
107.242
105.596
104.018
102.265
100.648
98.8514
97.1881
95.3168
93.4564
91.6618
89.7746
88.4489
88.0874
113.176
112.641
113.05
112.148
111.066
110.105
108.857
107.53
106.053
104.572
102.906
101.328
99.5321
97.8699
96.0877
94.363
92.4931
90.5429
89.3463
88.6705
108.636
108.351
108.316
107.877
107.552
106.772
106.076
105.342
104.406
103.497
102.298
101.245
99.7642
98.545
96.7547
95.3466
93.228
91.599
89.6079
88.9656
106.552
106.926
107.291
107.136
106.86
106.526
106.15
105.621
104.888
104.152
103.118
102.208
100.873
99.7635
98.069
96.755
94.4691
93.0156
90.4063
89.554
104.595
105.027
105.262
105.692
105.795
105.796
105.507
105.331
104.88
104.53
103.873
103.353
102.413
101.716
100.338
99.4381
97.3316
96.3508
93.6642
93.2513
104.097
104.657
105.015
105.415
105.541
105.793
105.818
105.892
105.737
105.626
105.253
104.976
104.367
103.915
103.008
102.379
100.777
100.31
96.3276
96.5266
103.646
104.268
104.812
105.475
105.911
106.349
106.573
106.876
107.018
107.24
107.335
107.471
107.487
107.558
107.39
107.422
106.807
107.067
106.519
108.261
103.962
104.716
105.265
105.813
106.314
106.878
107.322
107.877
108.295
108.841
109.264
109.81
110.348
110.866
111.672
112.084
113.41
113.724
115.932
117.78
104.237
105.015
105.688
106.433
107.043
107.759
108.322
109.063
109.605
110.388
110.964
111.914
112.561
113.713
114.585
116.001
117.52
118.91
122.08
122.838
104.592
105.364
106.085
106.88
107.621
108.458
109.231
110.119
110.916
111.939
112.818
113.973
114.942
116.351
117.442
119.283
120.48
123.045
124.794
127.371
105.076
105.867
106.624
107.432
108.211
109.051
109.857
110.757
111.621
112.633
113.535
114.732
115.722
117.201
118.291
120.203
121.373
123.992
125.08
135.158
105.447
106.238
107.037
107.883
108.728
109.642
110.541
111.542
112.505
113.621
114.658
115.925
117.027
118.514
119.638
121.462
122.51
124.871
126.105
129.64
105.721
106.512
107.316
108.158
109.013
109.914
110.826
111.801
112.776
113.847
114.886
116.08
117.178
118.52
119.654
121.162
122.259
123.901
124.37
131.168
105.871
106.66
107.483
108.335
109.216
110.136
111.083
112.082
113.103
114.194
115.294
116.498
117.669
119.018
120.226
121.772
122.942
124.782
125.74
128.04
217.128
219.391
220.866
221.821
222.174
221.986
221.065
219.726
217.52
215.229
211.746
208.594
203.657
198.455
193.506
187.141
181.03
174.321
166.141
158.712
188.195
189.847
191.108
192.238
192.928
193.502
193.674
193.712
193.362
192.941
192.018
191.239
189.824
188.77
187.22
183.976
180.198
177.466
174.386
172.5
151.244
152.563
153.813
154.927
155.918
156.846
157.575
158.321
158.821
159.36
159.606
159.945
159.936
160.078
159.756
159.598
159.008
158.614
157.816
157.572
138.646
139.75
140.767
141.736
142.625
143.452
144.202
144.889
145.448
146.007
146.404
146.828
147.081
147.373
147.519
147.862
147.869
148.083
147.844
148.176
121.48
122.343
123.164
123.974
124.724
125.477
126.167
126.859
127.499
128.14
128.708
129.353
129.875
130.446
130.867
131.371
131.678
132.159
132.347
132.921
115.495
116.229
116.935
117.623
118.287
118.937
119.556
120.171
120.74
121.317
121.852
122.342
122.783
123.268
123.668
124.148
124.503
124.99
125.237
125.784
107.849
108.452
109.029
109.601
110.145
110.682
111.195
111.696
112.177
112.645
113.092
113.543
113.965
114.401
114.767
115.194
115.539
115.952
116.251
116.721
104.77
105.274
105.765
106.247
106.714
107.175
107.616
108.062
108.477
108.909
109.3
109.706
110.07
110.457
110.816
111.196
111.501
111.893
112.155
112.521
101.638
102.076
102.501
102.917
103.322
103.717
104.102
104.475
104.838
105.191
105.529
105.862
106.176
106.494
106.794
107.096
107.37
107.66
107.841
108.14
100.386
100.764
101.136
101.5
101.856
102.205
102.543
102.873
103.193
103.502
103.799
104.087
104.36
104.632
104.866
105.125
105.335
105.592
105.836
106.098
99.0714
99.3794
99.6863
100.001
100.32
100.643
100.971
101.3
101.637
101.962
102.274
102.548
102.796
103.034
103.266
103.48
103.674
103.879
104.041
104.242
99.296
99.586
99.8681
100.14
100.405
100.666
100.921
101.166
101.408
101.651
101.888
102.115
102.347
102.57
102.764
102.953
103.126
103.311
103.497
103.681
99.2539
99.507
99.757
100.004
100.246
100.484
100.719
100.949
101.174
101.394
101.606
101.815
102.019
102.218
102.425
102.635
102.842
103.032
103.195
103.336
99.7328
99.9574
100.178
100.398
100.614
100.827
101.035
101.241
101.442
101.643
101.839
102.034
102.222
102.401
102.579
102.751
102.918
103.084
103.245
103.435
100.199
100.404
100.607
100.81
101.01
101.21
101.408
101.604
101.799
101.991
102.182
102.371
102.559
102.744
102.926
103.104
103.281
103.453
103.624
103.793
100.748
100.934
101.121
101.307
101.492
101.677
101.861
102.044
102.226
102.407
102.587
102.766
102.944
103.121
103.297
103.47
103.643
103.813
103.984
104.15
101.253
101.429
101.605
101.782
101.959
102.136
102.314
102.492
102.671
102.849
103.028
103.206
103.385
103.563
103.74
103.918
104.094
104.271
104.446
104.621
101.678
101.843
102.009
102.176
102.345
102.515
102.686
102.857
103.03
103.203
103.378
103.553
103.729
103.905
104.083
104.26
104.44
104.617
104.798
104.976
101.978
102.137
102.298
102.461
102.625
102.791
102.958
103.127
103.297
103.469
103.642
103.816
103.991
104.168
104.346
104.525
104.704
104.885
105.067
105.25
102.132
102.287
102.445
102.604
102.765
102.929
103.094
103.26
103.429
103.599
103.771
103.945
104.121
104.297
104.476
104.656
104.838
105.02
105.206
105.391
-7.71107
-9.25353
-14.0903
-19.0804
-23.7233
-28.646
-33.8239
-39.2641
-45.0604
-51.277
-57.9567
-65.2144
-73.055
-81.6521
-90.9446
-101.302
-112.466
-124.716
-139.564
-147.571
8.33698
7.38923
4.01453
0.206863
-3.52773
-7.56384
-11.9142
-16.5629
-21.64
-27.1133
-33.0732
-39.5927
-46.6622
-54.4902
-62.9492
-72.4273
-82.5391
-93.9342
-107.29
-115.42
26.3509
26.506
24.1104
20.946
17.8321
14.3683
10.5838
6.46718
1.97861
-2.89905
-8.23499
-14.0728
-20.4562
-27.5104
-35.1805
-43.8058
-52.9855
-63.5339
-75.3532
-82.7378
44.805
45.1098
43.0605
40.4929
37.9462
35.1187
31.9981
28.6013
24.8289
20.7055
16.1298
11.0683
5.47617
-0.783052
-7.64994
-15.4449
-23.7874
-33.6111
-44.2076
-50.3147
63.3679
64.1601
62.7165
60.7432
58.8039
56.5692
54.0582
51.2382
48.0871
44.585
40.6453
36.2616
31.3527
25.8384
19.7132
12.7042
5.06576
-4.07347
-14.0095
-19.5051
82.0276
82.9817
81.813
80.275
78.7657
77.0251
75.0331
72.8075
70.2762
67.4456
64.2192
60.6118
56.5097
51.8712
46.6459
40.5956
33.9688
25.8836
16.9197
10.9788
99.9122
101.155
100.484
99.4912
98.5432
97.3673
95.9855
94.3561
92.4741
90.2966
87.7765
84.8979
81.5675
77.7658
73.4
68.3425
62.7103
55.7129
48.0945
41.6658
117.848
119.247
118.81
118.203
117.629
116.884
115.937
114.825
113.479
111.907
110.03
107.873
105.316
102.387
98.9482
94.9617
90.4356
84.7958
78.9468
72.337
134.386
135.91
135.887
135.732
135.657
135.416
135.039
134.496
133.774
132.845
131.671
130.243
128.467
126.371
123.797
120.815
117.251
112.901
108.47
101.801
150.142
151.923
152.322
152.611
152.944
153.151
153.217
153.162
152.949
152.568
151.968
151.149
150.02
148.619
146.805
144.663
141.958
138.889
135.239
130.132
164.818
166.72
167.481
168.167
168.903
169.557
170.1
170.562
170.873
171.048
171.011
170.789
170.279
169.535
168.401
166.969
165.051
162.728
159.787
155.899
178.645
180.764
181.938
183.009
184.147
185.198
186.163
187.035
187.775
188.386
188.803
189.059
189.052
188.85
188.282
187.489
186.178
184.603
182.288
179.133
191.108
193.421
194.955
196.415
197.911
199.337
200.671
201.922
203.051
204.077
204.939
205.679
206.178
206.51
206.486
206.253
205.539
204.569
202.856
200.412
202.873
205.315
207.115
208.853
210.634
212.351
214.01
215.602
217.118
218.542
219.843
221.001
221.946
222.697
223.137
223.397
223.192
222.746
221.521
219.627
213.18
215.819
217.939
220.013
222.105
224.155
226.137
228.071
229.904
231.651
233.238
234.701
235.954
237.08
237.937
238.634
238.849
238.852
238.056
236.774
222.886
225.68
227.936
230.19
232.469
234.713
236.904
239.052
241.126
243.129
245.033
246.843
248.518
250.053
251.348
252.392
252.989
253.347
252.982
252.222
231.357
234.176
236.571
238.997
241.46
243.895
246.292
248.66
250.957
253.204
255.335
257.382
259.243
260.954
262.381
263.609
264.502
265.274
265.392
265.49
238.474
241.435
243.949
246.533
249.132
251.726
254.271
256.809
259.274
261.702
264.022
266.262
268.35
270.299
272.059
273.605
274.956
275.976
276.644
276.761
244.623
247.661
250.229
252.895
255.602
258.296
260.961
263.604
266.195
268.722
271.164
273.492
275.69
277.713
279.549
281.138
282.445
283.397
284.047
284.022
249.555
252.542
255.106
257.803
260.542
263.285
265.996
268.724
271.377
274.037
276.568
279.089
281.413
283.693
285.695
287.579
289.094
290.39
291.271
291.695
-287.253
-292.099
-297.218
-302.466
-307.813
-313.476
-319.134
-325.13
-331.167
-337.504
-343.994
-350.688
-357.551
-364.851
-371.877
-378.785
-384.584
-386.899
-388.192
-387.984
-280.32
-285.368
-290.623
-296.17
-301.718
-307.682
-313.637
-319.912
-326.313
-332.955
-339.77
-346.823
-354.018
-361.416
-369.24
-376.782
-383.498
-387.778
-388.903
-389.231
-273.095
-278.299
-283.689
-289.493
-295.27
-301.488
-307.773
-314.412
-321.214
-328.325
-335.671
-343.29
-351.24
-359.316
-367.879
-376.12
-383.987
-390.242
-391.838
-392.543
-265.482
-270.918
-276.449
-282.501
-288.529
-295.028
-301.639
-308.596
-315.803
-323.333
-331.151
-339.33
-347.866
-356.792
-366.033
-375.856
-385.878
-393.849
-397.39
-398.574
-257.35
-262.946
-268.579
-274.83
-281.078
-287.82
-294.758
-302.089
-309.714
-317.741
-326.152
-334.98
-344.323
-354.188
-364.42
-375.612
-387.051
-396.666
-403.771
-404.967
-248.634
-254.425
-260.158
-266.606
-273.085
-280.061
-287.289
-294.913
-302.914
-311.35
-320.205
-329.583
-339.551
-350.061
-361.32
-373.504
-386.207
-397.915
-408.957
-411.21
-239.172
-245.109
-250.897
-257.464
-264.101
-271.249
-278.722
-286.636
-294.952
-303.769
-313.098
-322.985
-333.512
-344.706
-356.781
-369.636
-383.113
-396.795
-409.232
-411.784
-229.09
-235.121
-240.899
-247.542
-254.312
-261.585
-269.243
-277.358
-285.952
-295.084
-304.745
-315.048
-326.074
-337.848
-350.515
-364.013
-378.457
-393.585
-406.898
-409.354
-217.912
-224.044
-229.785
-236.453
-243.286
-250.633
-258.414
-266.686
-275.444
-284.802
-294.774
-305.422
-316.869
-329.156
-342.422
-356.778
-372.235
-389.2
-402.439
-404.94
-205.522
-211.757
-217.522
-224.179
-231.086
-238.456
-246.306
-254.658
-263.547
-273.058
-283.162
-294.011
-305.696
-318.225
-331.801
-346.549
-362.635
-379.824
-394.927
-398.766
-192.42
-198.66
-204.368
-210.915
-217.774
-225.094
-232.914
-241.255
-250.128
-259.66
-269.852
-280.796
-292.6
-305.291
-319.118
-334.061
-350.174
-367.837
-383.38
-387.705
-178.064
-184.278
-189.869
-196.276
-203.049
-210.253
-217.983
-226.248
-235.081
-244.571
-254.696
-265.622
-277.421
-290.126
-303.988
-318.92
-335.369
-353.161
-369.634
-375.066
-162.75
-168.904
-174.397
-180.613
-187.25
-194.306
-201.888
-210
-218.658
-227.989
-237.987
-248.777
-260.416
-272.982
-286.726
-301.493
-317.651
-335.261
-351.997
-357.909
-146.583
-152.628
-157.875
-163.807
-170.197
-176.986
-184.309
-192.173
-200.611
-209.712
-219.461
-230.027
-241.448
-253.823
-267.318
-281.813
-297.986
-315.399
-332.472
-339.079
-128.953
-134.88
-139.994
-145.66
-151.848
-158.424
-165.523
-173.144
-181.306
-190.129
-199.598
-209.862
-220.932
-232.937
-246.042
-260.147
-275.81
-292.564
-309.652
-316.538
-110.861
-116.655
-121.512
-126.832
-132.688
-138.911
-145.636
-152.88
-160.684
-169.12
-178.192
-188.061
-198.732
-210.374
-223.028
-236.691
-252.051
-268.211
-285.423
-292.638
-91.6699
-97.1774
-101.763
-106.692
-112.237
-118.156
-124.568
-131.487
-138.935
-147.011
-155.697
-165.153
-175.352
-186.464
-198.541
-211.673
-226.29
-241.513
-258.847
-266.131
-71.9884
-77.3681
-81.5829
-86.082
-91.2623
-96.8166
-102.816
-109.297
-116.323
-123.917
-132.112
-141.049
-150.706
-161.305
-172.775
-185.322
-199.269
-213.846
-231.174
-238.821
-50.4271
-56.0691
-60.0502
-64.1636
-69.0011
-74.2916
-79.9839
-86.127
-92.7676
-99.9672
-107.722
-116.177
-125.298
-135.264
-146.045
-157.909
-170.908
-184.565
-201.431
-209.581
-25.7489
-31.3169
-36.3206
-40.9345
-45.7524
-51.0127
-56.5703
-62.4423
-68.7667
-75.535
-82.8132
-90.7201
-99.2314
-108.594
-118.682
-129.85
-141.992
-155.072
-171.016
-179.021
-80.059
-80.8189
-81.8916
-84.1996
-87.0292
-90.7013
-94.2949
-99.1604
-104.125
-110.421
-117.174
-125.234
-134.458
-144.623
-157.687
-170.653
-189.776
-207.218
-235.406
-263.056
-79.2657
-79.995
-81.0389
-83.2084
-85.8144
-89.4234
-92.8072
-97.479
-102.205
-108.262
-114.716
-122.479
-131.299
-141.074
-153.649
-166.057
-184.71
-201.282
-229.323
-255.513
-78.4678
-79.1266
-80.1198
-82.1897
-84.5574
-88.0699
-91.2485
-95.7561
-100.262
-106.097
-112.26
-119.748
-128.181
-137.591
-149.657
-161.481
-179.566
-195.233
-222.802
-247.933
-77.6272
-78.2555
-79.1977
-81.1644
-83.3209
-86.7283
-89.7011
-94.0131
-98.2838
-103.882
-109.745
-116.939
-124.954
-133.984
-145.522
-156.803
-174.325
-189.111
-216.303
-239.867
-76.785
-77.3662
-78.2122
-80.1023
-82.0376
-85.3251
-88.0855
-92.229
-96.2817
-101.656
-107.229
-114.151
-121.772
-130.446
-141.453
-152.151
-169.023
-182.874
-209.407
-231.665
-75.9023
-76.459
-77.2186
-79.042
-80.7682
-83.9305
-86.4818
-90.4248
-94.2466
-99.3839
-104.659
-111.288
-118.483
-126.78
-137.216
-147.378
-163.696
-176.372
-202.379
-222.912
-75.0163
-75.5463
-76.1695
-77.9542
-79.4312
-82.4686
-84.8248
-88.5789
-92.1898
-97.0988
-102.088
-108.441
-115.233
-123.19
-133.045
-142.667
-158.172
-169.943
-195.156
-213.77
-74.0957
-74.6109
-75.1079
-76.8757
-78.107
-81.0171
-83.1626
-86.7153
-90.0997
-94.7713
-99.4679
-105.524
-111.883
-119.472
-128.705
-137.818
-152.475
-163.348
-187.479
-204.193
-73.1702
-73.6611
-74.0416
-75.7539
-76.698
-79.4987
-81.4531
-84.8141
-87.9901
-92.4298
-96.846
-102.616
-108.568
-115.818
-124.437
-133.02
-146.746
-156.707
-179.512
-194.429
-72.2207
-72.7183
-72.9807
-74.6141
-75.3035
-77.9883
-79.7333
-82.8922
-85.8475
-90.0505
-94.1819
-99.647
-105.166
-112.046
-120.011
-128.082
-140.843
-149.831
-171.133
-183.949
-71.2606
-71.7333
-71.9138
-73.4372
-73.8462
-76.4115
-77.9731
-80.9379
-83.6878
-87.6579
-91.5155
-96.6788
-101.791
-108.327
-115.652
-123.185
-134.916
-142.897
-162.611
-173.163
-70.2892
-70.8143
-70.875
-72.2614
-72.5035
-74.8474
-76.2001
-78.9602
-81.4971
-85.2325
-88.8138
-93.6591
-98.3442
-104.505
-111.152
-118.16
-128.814
-135.737
-153.666
-161.49
-69.3033
-69.8716
-69.7206
-71.0714
-71.1663
-73.2188
-74.3855
-76.9522
-79.2894
-82.7941
-86.1073
-90.6313
-94.9142
-100.719
-106.706
-113.154
-122.671
-128.52
-144.606
-149.408
-68.3209
-69.0002
-68.5689
-69.8585
-69.8338
-71.6031
-72.5554
-74.92
-77.0544
-80.3289
-83.3733
-87.5616
-91.4283
-96.8487
-102.146
-108.041
-116.381
-121.154
-135.196
-136.356
-67.3089
-68.0244
-67.4657
-68.6272
-68.3368
-69.9221
-70.684
-72.8673
-74.8132
-77.8644
-80.6457
-84.4933
-87.9732
-93.0272
-97.6586
-102.961
-110.078
-113.773
-125.606
-122.711
-66.3493
-67.1171
-66.4069
-67.3619
-66.8159
-68.2519
-68.7959
-70.7845
-72.5411
-75.3686
-77.8832
-81.3732
-84.4502
-89.1017
-93.0323
-97.7222
-103.563
-106.161
-115.431
-107.884
-65.2856
-66.2942
-65.2937
-66.0409
-65.2139
-66.4795
-66.8288
-68.6435
-70.2164
-72.819
-75.0608
-78.1756
-80.8594
-85.1049
-88.3438
-92.3645
-96.897
-98.5267
-105.306
-93.0461
-64.2049
-65.5755
-64.1301
-64.811
-63.6396
-64.7661
-64.9152
-66.5482
-67.9618
-70.3616
-72.3456
-75.0983
-77.4338
-81.3229
-83.9044
-87.297
-90.7157
-91.6139
-95.7372
-77.6291
-63.5799
-65.1744
-63.3862
-63.8214
-62.2452
-63.1583
-63.11
-64.5919
-65.9035
-68.1476
-69.8923
-72.2939
-74.3717
-77.9678
-79.94
-82.6675
-85.0139
-84.6537
-83.8554
-56.9411
-62.1514
-64.5692
-62.5176
-62.3848
-60.4198
-61.1516
-60.8235
-62.0847
-63.1619
-65.1205
-66.5056
-68.4006
-69.9274
-72.7386
-73.7198
-75.4796
-75.9428
-73.7596
-66.4901
-35.141
-46.5146
-51.2702
-47.3176
-47.6001
-45.3809
-45.9625
-45.1842
-45.2638
-44.2035
-43.3808
-41.8312
-40.4864
-37.8367
-34.7477
-28.7659
-24.9586
-14.3867
-6.07511
11.8936
9.65871
-38.1398
-38.3081
-37.7833
-36.3835
-35.2553
-33.0939
-31.6292
-29.3858
-27.5348
-25.1122
-22.3492
-18.9761
-14.1981
-9.17127
-2.09835
5.85516
18.9467
29.8942
53.7243
65.8536
-16.3194
-16.1922
-15.7416
-14.4985
-13.1105
-11.6728
-9.88255
-7.91123
-5.31916
-2.30244
1.46731
5.79565
11.2453
17.457
25.2969
34.0817
44.6947
56.3492
70.8748
84.9562
-8.21031
-7.97501
-7.28203
-5.23742
-3.41787
-0.565083
1.86876
5.37217
8.64373
12.8072
17.0604
22.2689
27.8537
34.2193
41.45
49.4369
58.9939
69.0896
81.3711
92.5916
6.98861
7.28881
8.53261
10.7432
12.4851
14.8993
17.308
20.1327
23.2617
26.7846
30.7298
35.2103
40.0375
45.7484
51.6966
58.4948
65.4675
73.2731
81.2437
90.2076
15.1487
15.4655
16.4222
18.5361
20.6676
23.4722
26.229
29.5006
32.8513
36.6589
40.6428
45.0778
49.7609
54.858
60.0646
66.1072
71.8414
78.8187
85.5008
91.4329
24.784
25.2992
26.7647
29.1546
31.5161
34.0791
36.818
39.5236
42.6243
45.7
49.1998
52.7363
56.6537
60.6797
65.0409
69.4977
74.1919
78.8397
83.1961
88.6959
31.9452
32.6231
34.1757
36.4893
38.8958
41.3745
43.9969
46.7671
49.6883
52.7288
55.9233
59.274
62.7174
66.384
70.0038
73.9414
77.991
82.2233
86.1761
89.6966
39.2913
40.0533
42.2298
44.333
47.0879
49.198
51.9646
54.1455
56.9087
59.2733
62.1121
64.6825
67.6631
70.4086
73.5485
76.4942
79.4026
82.2112
85.1772
88.3461
45.946
46.5886
49.2782
51.1499
53.9084
55.9141
58.3205
60.4117
62.7798
65.0087
67.3775
69.7586
72.1597
74.6702
77.264
79.8184
82.5838
85.0984
87.6007
89.7965
54.4651
54.9212
58.0641
59.3653
61.905
63.3856
65.528
67.0821
69.097
70.7376
72.7659
74.5055
76.6062
78.4515
80.4671
82.3421
84.2724
86.0902
88.0974
89.9867
63.0968
62.6609
66.4476
67.1584
69.1798
70.3055
71.8397
73.1011
74.5489
75.9116
77.3776
78.8272
80.3699
81.8656
83.5268
85.1035
86.8538
88.4509
90.2074
91.5989
77.666
76.2762
76.606
76.7526
77.5336
78.1097
78.8223
79.5139
80.3746
81.1959
82.2158
83.1648
84.3205
85.3927
86.633
87.7597
89.0351
90.1821
91.491
92.6326
89.8766
88.4652
86.273
86.2181
85.2583
85.2436
85.0866
85.1788
85.4712
85.8075
86.3659
86.9129
87.6621
88.3709
89.263
90.0945
91.104
92.0294
93.1221
94.0604
97.1123
96.6584
93.8512
92.7867
91.6977
90.7586
90.4292
89.9188
89.9362
89.8205
90.1104
90.2903
90.7718
91.1794
91.8081
92.3743
93.121
93.7897
94.6285
95.3536
104.136
102.013
99.9634
97.6352
96.6234
95.0984
94.6374
93.7175
93.565
93.1182
93.1619
93.091
93.3152
93.5085
93.9026
94.2846
94.8217
95.3389
95.9911
96.5865
108.504
104.695
103.362
100.869
100.039
97.8122
97.736
96.3065
96.1691
95.4769
95.4205
95.1777
95.2709
95.3099
95.5528
95.7961
96.1908
96.5869
97.0976
97.5908
114.037
103.93
103.301
101.601
100.989
99.7557
99.1354
98.3779
97.8986
97.4184
97.1206
96.8508
96.7484
96.735
96.8417
97.008
97.2769
97.5909
97.9965
98.4202
106.831
104.933
104.379
102.857
102.128
100.87
100.263
99.3751
98.914
98.3631
98.0839
97.853
97.7496
97.6414
97.6949
97.8145
98.0209
98.2675
98.5974
98.973
113.339
105.341
104.667
103.238