/*--------------------------------*- C++ -*----------------------------------*\
  =========                 |
  \\      /  F ield         | OpenFOAM: The Open Source CFD Toolbox
   \\    /   O peration     | Website:  https://openfoam.org
    \\  /    A nd           | Version:  9
     \\/     M anipulation  |
\*---------------------------------------------------------------------------*/
FoamFile
{
    format      ascii;
    class       surfaceScalarField;
    location    "4";
    object      phi;
}
// * * * * * * * * * * * * * * * * * * * * * * * * * * * * * * * * * * * * * //

dimensions      [0 3 -1 0 0 0 0];

internalField   nonuniform List<scalar> 
92080
(
0.00193203
-0.39828
0.396348
-0.0143397
-0.819013
0.835285
-0.0484007
-0.903811
0.937872
-0.0837226
-0.89054
0.925862
-0.118063
-0.87668
0.911021
-0.15239
-0.863363
0.897689
-0.186303
-0.851957
0.885869
-0.21991
-0.839969
0.873576
-0.252905
-0.830503
0.863498
-0.285651
-0.82026
0.853006
-0.318403
-0.810184
0.842936
-0.350908
-0.802394
0.834899
-0.383009
-0.795043
0.827144
-0.414394
-0.787265
0.818651
-0.44632
-0.780203
0.812129
-0.478318
-0.77482
0.806817
-0.508661
-0.769989
0.800332
-0.537293
-0.764431
0.793063
-0.564295
-0.757731
0.784734
-0.752559
0.777775
-0.589511
-0.000443445
-0.397837
-0.0207789
-0.798678
-0.0567305
-0.867859
-0.0936795
-0.853591
-0.130073
-0.840287
-0.166129
-0.827306
-0.20169
-0.816396
-0.237023
-0.804636
-0.272195
-0.79533
-0.306613
-0.785842
-0.341204
-0.775593
-0.375898
-0.7677
-0.410127
-0.760813
-0.444385
-0.753008
-0.478113
-0.746474
-0.511848
-0.741085
-0.546038
-0.735799
-0.579163
-0.731306
-0.610416
-0.726478
-0.722551
-0.640424
-0.00278584
-0.395051
-0.0271734
-0.77429
-0.0667093
-0.828324
-0.106398
-0.813902
-0.145049
-0.801636
-0.183388
-0.788967
-0.221199
-0.778586
-0.258584
-0.76725
-0.295316
-0.758598
-0.331452
-0.749706
-0.367228
-0.739817
-0.403187
-0.731741
-0.438397
-0.725603
-0.472898
-0.718507
-0.508386
-0.710986
-0.543259
-0.706213
-0.577417
-0.701641
-0.611643
-0.69708
-0.645569
-0.692553
-0.688361
-0.679759
-0.00537367
-0.389678
-0.0342975
-0.745366
-0.074552
-0.788069
-0.115093
-0.773361
-0.155315
-0.761414
-0.195108
-0.749174
-0.234337
-0.739357
-0.273362
-0.728225
-0.312445
-0.719515
-0.350393
-0.711758
-0.388022
-0.702188
-0.425974
-0.693789
-0.464162
-0.687415
-0.500927
-0.681741
-0.537093
-0.674821
-0.574847
-0.668459
-0.612553
-0.663934
-0.649456
-0.660177
-0.685925
-0.656084
-0.651909
-0.722377
-0.00625674
-0.383421
-0.041111
-0.710512
-0.0839674
-0.745213
-0.126618
-0.73071
-0.168414
-0.719618
-0.209962
-0.707626
-0.251035
-0.698284
-0.291434
-0.687827
-0.331586
-0.679363
-0.371322
-0.672022
-0.410066
-0.663444
-0.448532
-0.655323
-0.487057
-0.64889
-0.525888
-0.64291
-0.56347
-0.63724
-0.599778
-0.63215
-0.637269
-0.626443
-0.674736
-0.622711
-0.711562
-0.619257
-0.614858
-0.748613
-0.0044157
-0.379005
-0.042355
-0.672573
-0.0869639
-0.700604
-0.131862
-0.685813
-0.176469
-0.675011
-0.220313
-0.663782
-0.263421
-0.655175
-0.305937
-0.645311
-0.34831
-0.63699
-0.389675
-0.630657
-0.430637
-0.622482
-0.471675
-0.614286
-0.512134
-0.608432
-0.551561
-0.603483
-0.592314
-0.596486
-0.632647
-0.591818
-0.671877
-0.587213
-0.712113
-0.582475
-0.750958
-0.580413
-0.576995
-0.788821
-0.00244705
-0.376558
-0.043555
-0.631465
-0.0921789
-0.65198
-0.139129
-0.638863
-0.185126
-0.629013
-0.23082
-0.618088
-0.275993
-0.610002
-0.319971
-0.601333
-0.36347
-0.59349
-0.406383
-0.587744
-0.447558
-0.581307
-0.488706
-0.573137
-0.531033
-0.566105
-0.571463
-0.563053
-0.609649
-0.5583
-0.649082
-0.552385
-0.688012
-0.548283
-0.727455
-0.543032
-0.768435
-0.539433
-0.537388
-0.808042
-0.00110199
-0.375456
-0.0444477
-0.588119
-0.0958658
-0.600562
-0.145765
-0.588964
-0.194345
-0.580433
-0.241483
-0.57095
-0.288172
-0.563313
-0.334434
-0.555071
-0.380137
-0.547787
-0.424897
-0.542984
-0.468523
-0.537681
-0.510529
-0.531132
-0.55396
-0.522674
-0.599524
-0.517489
-0.643208
-0.514615
-0.684705
-0.510889
-0.725829
-0.507158
-0.765269
-0.503591
-0.805457
-0.499246
-0.496274
-0.846571
-0.00365834
-0.371798
-0.0503967
-0.541381
-0.103613
-0.547346
-0.153974
-0.538602
-0.20347
-0.530937
-0.251973
-0.522448
-0.29952
-0.515765
-0.346155
-0.508437
-0.392934
-0.501008
-0.439332
-0.496587
-0.483645
-0.493367
-0.525204
-0.489573
-0.56524
-0.482638
-0.606782
-0.475947
-0.650621
-0.470776
-0.694425
-0.467085
-0.737514
-0.46407
-0.780077
-0.461028
-0.820866
-0.458456
-0.455199
-0.861941
-0.00980054
-0.361997
-0.0584759
-0.492705
-0.112263
-0.493559
-0.164567
-0.486298
-0.215289
-0.480215
-0.264403
-0.473333
-0.312757
-0.467411
-0.360678
-0.460515
-0.408359
-0.453328
-0.456946
-0.447999
-0.506624
-0.44369
-0.553631
-0.442565
-0.597385
-0.438884
-0.63939
-0.433942
-0.680929
-0.429237
-0.723904
-0.424109
-0.767161
-0.420813
-0.810451
-0.417737
-0.853736
-0.415172
-0.413466
-0.895469
-0.0183647
-0.343633
-0.0691883
-0.441882
-0.122969
-0.439778
-0.175069
-0.434198
-0.22674
-0.428545
-0.27736
-0.422713
-0.325903
-0.418868
-0.372951
-0.413467
-0.420164
-0.406115
-0.466214
-0.401949
-0.513433
-0.396471
-0.5624
-0.393598
-0.609125
-0.392159
-0.654204
-0.388863
-0.697574
-0.385867
-0.739658
-0.382026
-0.782805
-0.377666
-0.825758
-0.374784
-0.869814
-0.371115
-0.368876
-0.914404
-0.0263442
-0.317288
-0.0784087
-0.389817
-0.132795
-0.385392
-0.186069
-0.380924
-0.238198
-0.376415
-0.289807
-0.371104
-0.340595
-0.36808
-0.388848
-0.365214
-0.437068
-0.357895
-0.486015
-0.353001
-0.533744
-0.348742
-0.582417
-0.344925
-0.631841
-0.342735
-0.67935
-0.341354
-0.726078
-0.339139
-0.77044
-0.337663
-0.813519
-0.334587
-0.856537
-0.331767
-0.898766
-0.328887
-0.325439
-0.942203
-0.0331546
-0.284134
-0.0859519
-0.33702
-0.139789
-0.331555
-0.192693
-0.328021
-0.245822
-0.323286
-0.298474
-0.318452
-0.350414
-0.31614
-0.398872
-0.316756
-0.444685
-0.312082
-0.490328
-0.307359
-0.537072
-0.301998
-0.584124
-0.297873
-0.632883
-0.293976
-0.682663
-0.291575
-0.732124
-0.289679
-0.781662
-0.288125
-0.829123
-0.287127
-0.875762
-0.285127
-0.920748
-0.283901
-0.281635
-0.964553
-0.0394141
-0.24472
-0.0954192
-0.281015
-0.151557
-0.275416
-0.204884
-0.274694
-0.257026
-0.271144
-0.310732
-0.264746
-0.367666
-0.259206
-0.423081
-0.261342
-0.474707
-0.260456
-0.52294
-0.259126
-0.568359
-0.256579
-0.613349
-0.252883
-0.657654
-0.249671
-0.703139
-0.246089
-0.74927
-0.243548
-0.796341
-0.241054
-0.84402
-0.239448
-0.891216
-0.23793
-0.938573
-0.236545
-0.235547
-0.984661
-0.0428337
-0.201886
-0.0990091
-0.224839
-0.155239
-0.219186
-0.210849
-0.219084
-0.261788
-0.220205
-0.308604
-0.217929
-0.358778
-0.209033
-0.413162
-0.206957
-0.467727
-0.205891
-0.522148
-0.204706
-0.574422
-0.204306
-0.624234
-0.20307
-0.672564
-0.201342
-0.71914
-0.199513
-0.76538
-0.197308
-0.811019
-0.195415
-0.857034
-0.193433
-0.903047
-0.191917
-0.949201
-0.190391
-0.188995
-0.995752
-0.0579235
-0.143962
-0.112913
-0.16985
-0.165837
-0.166262
-0.222807
-0.162115
-0.280908
-0.162104
-0.33302
-0.165817
-0.380338
-0.161715
-0.429255
-0.15804
-0.478988
-0.156158
-0.529603
-0.15409
-0.581051
-0.152858
-0.632236
-0.151885
-0.682457
-0.151121
-0.73207
-0.1499
-0.780281
-0.149098
-0.828071
-0.147625
-0.874725
-0.146779
-0.921359
-0.145283
-0.967191
-0.144559
-0.143226
-1.01296
-0.0583391
-0.0856234
-0.114655
-0.113533
-0.165547
-0.11537
-0.216277
-0.111386
-0.273079
-0.105302
-0.331231
-0.107664
-0.384941
-0.108005
-0.436918
-0.106063
-0.487509
-0.105568
-0.537803
-0.103796
-0.587291
-0.10337
-0.637293
-0.101882
-0.686571
-0.101843
-0.735773
-0.100698
-0.784298
-0.100572
-0.832275
-0.0996477
-0.879689
-0.099365
-0.926351
-0.0986205
-0.972628
-0.0982831
-0.097733
-1.01812
-0.0448501
-0.0407732
-0.105944
-0.0524395
-0.163892
-0.0574225
-0.219099
-0.0561779
-0.271868
-0.0525336
-0.328976
-0.0505555
-0.384941
-0.0520407
-0.440017
-0.0509861
-0.493846
-0.0517393
-0.546586
-0.0510559
-0.598538
-0.0514181
-0.649345
-0.0510753
-0.699935
-0.0512535
-0.74936
-0.0512724
-0.798643
-0.0512889
-0.846833
-0.051458
-0.894846
-0.0513522
-0.941908
-0.0515584
-0.988765
-0.0514265
-0.0516611
-1.03484
-0.0355282
-0.00524508
-0.0901224
0.00215469
-0.151806
0.00426133
-0.210447
0.00246247
-0.264371
0.00139049
-0.318153
0.0032264
-0.372593
0.00240007
-0.426202
0.00262248
-0.479944
0.00200241
-0.532856
0.00185681
-0.585505
0.00123062
-0.637578
0.000998005
-0.689155
0.000323404
-0.740401
-2.67242e-05
-0.790949
-0.000740538
-0.841253
-0.00115458
-0.890744
-0.00186086
-0.940071
-0.00223126
-0.988627
-0.00287096
-0.00312019
-1.03717
-0.0492808
0.0440357
-0.110558
0.0634316
-0.172987
0.0666907
-0.232495
0.0619708
-0.289892
0.0587871
-0.344154
0.0574888
-0.397992
0.0562381
-0.450504
0.0551346
-0.502464
0.0539617
-0.553554
0.0529473
-0.604137
0.0518129
-0.654103
0.0509648
-0.703595
0.0498147
-0.752718
0.0490968
-0.801334
0.0478752
-0.849779
0.0472907
-0.897667
0.046027
-0.945444
0.0455453
-0.992672
0.0443574
-1.03979
0.0439964
-0.014126
0.0628519
-0.0487259
-0.00972059
0.0716834
-0.0760888
0.0302624
0.028262
-0.0682449
0.139668
-0.111519
0.00211361
0.36129
-0.404419
0.182797
0.596446
-0.706515
0.471359
0.761602
-0.907922
0.742766
0.840497
-0.997328
0.918433
0.877866
-1.02951
0.992137
0.898565
-1.0408
1.0201
0.910964
-1.04407
1.03168
0.919092
-1.04257
1.03444
0.924382
-1.04026
1.03498
0.930743
-1.03919
1.03283
0.938292
-1.03998
1.03243
0.945365
-1.03934
1.03226
0.951817
-1.04057
1.03412
0.956786
-1.04019
1.03522
0.962145
-1.03996
1.0346
-1.04092
0.967939
1.03513
-0.010692
0.0735439
0.00828786
0.0527036
0.0818623
-0.0453125
0.259894
-0.289551
0.488123
-0.632648
0.656192
-0.874584
0.741184
-0.992914
0.779156
-1.0353
0.79837
-1.04872
0.809437
-1.05186
0.815386
-1.05002
0.819707
-1.04689
0.825708
-1.04627
0.83249
-1.04597
0.837579
-1.04507
0.842694
-1.04445
0.84784
-1.04571
0.852358
-1.04471
0.856511
-1.04411
-1.04462
0.860208
0.00259453
0.0709494
0.0414647
0.0138334
0.14964
-0.153488
0.363988
-0.503899
0.540671
-0.809331
0.64091
-0.974823
0.684753
-1.03676
0.704675
-1.05522
0.714984
-1.05903
0.720267
-1.05715
0.724249
-1.05401
0.729656
-1.05229
0.734841
-1.05145
0.738293
-1.04942
0.742008
-1.04878
0.746449
-1.04889
0.749692
-1.04896
0.751421
-1.04644
0.753644
-1.04633
-1.04722
0.756248
0.0131904
0.0577589
0.0738277
-0.0468039
0.230232
-0.309893
0.417492
-0.691158
0.537451
-0.92929
0.592112
-1.02948
0.614448
-1.05909
0.624007
-1.06478
0.628752
-1.06377
0.631842
-1.06024
0.635409
-1.05757
0.638556
-1.05544
0.640774
-1.05367
0.64344
-1.05209
0.646318
-1.05166
0.648241
-1.05082
0.648741
-1.04945
0.649767
-1.04747
0.651744
-1.04831
-1.04822
0.652739
0.0318792
0.0258797
0.108177
-0.123101
0.283541
-0.485257
0.424772
-0.832389
0.49881
-1.00333
0.52709
-1.05777
0.537714
-1.06972
0.542566
-1.06963
0.545391
-1.0666
0.547801
-1.06265
0.549872
-1.05965
0.551765
-1.05733
0.553664
-1.05557
0.555023
-1.05345
0.555775
-1.05241
0.556038
-1.05108
0.556048
-1.04947
0.556006
-1.04742
0.555455
-1.04776
-1.04736
0.554596
0.0433302
-0.0174505
0.137844
-0.217615
0.296247
-0.64366
0.397768
-0.93391
0.439259
-1.04482
0.454197
-1.0727
0.459834
-1.07535
0.462994
-1.07279
0.464038
-1.06764
0.465044
-1.06365
0.465884
-1.06048
0.466375
-1.05783
0.465977
-1.05517
0.465429
-1.0529
0.464699
-1.05168
0.463315
-1.0497
0.460999
-1.04715
0.458697
-1.04512
0.456811
-1.04587
-1.04503
0.454484
0.038054
-0.0555046
0.156152
-0.335713
0.283042
-0.770549
0.349445
-1.00031
0.37426
-1.06963
0.382414
-1.08086
0.386173
-1.07911
0.386469
-1.07309
0.386723
-1.0679
0.386947
-1.06388
0.386441
-1.05998
0.385267
-1.05665
0.383857
-1.05376
0.382105
-1.05115
0.379673
-1.04925
0.376505
-1.04653
0.373189
-1.04383
0.370172
-1.04211
0.367017
-1.04272
-1.04058
0.362564
0.0373926
-0.0928972
0.15559
-0.453911
0.250563
-0.865522
0.294796
-1.04455
0.308733
-1.08357
0.313036
-1.08516
0.313751
-1.07983
0.31355
-1.07289
0.313037
-1.06738
0.31142
-1.06226
0.309161
-1.05772
0.306522
-1.05401
0.303125
-1.05036
0.299227
-1.04725
0.29487
-1.04489
0.290022
-1.04168
0.284692
-1.0385
0.279206
-1.03662
0.273551
-1.03706
-1.03413
0.267104
0.03852
-0.131417
0.139346
-0.554737
0.212074
-0.93825
0.240126
-1.0726
0.247553
-1.091
0.249658
-1.08726
0.248851
-1.07902
0.247304
-1.07134
0.244693
-1.06477
0.241493
-1.05906
0.23757
-1.0538
0.232887
-1.04933
0.227735
-1.04521
0.222198
-1.04171
0.216075
-1.03877
0.209364
-1.03497
0.202405
-1.03155
0.195548
-1.02976
0.188391
-1.0299
-1.02575
0.180014
0.0430942
-0.174511
0.127398
-0.639041
0.17881
-0.989662
0.193777
-1.08757
0.195658
-1.09288
0.193492
-1.0851
0.190079
-1.07561
0.185918
-1.06718
0.181173
-1.06003
0.175455
-1.05334
0.169061
-1.0474
0.162278
-1.04255
0.154848
-1.03778
0.146876
-1.03374
0.138484
-1.03038
0.129669
-1.02615
0.12052
-1.0224
0.111147
-1.02039
0.101395
-1.02015
-1.01522
0.0908645
0.0447239
-0.219235
0.108163
-0.702481
0.142992
-1.02449
0.148168
-1.09274
0.146113
-1.09082
0.141042
-1.08003
0.135638
-1.07021
0.129307
-1.06085
0.122106
-1.05283
0.114244
-1.04548
0.105728
-1.03889
0.0965676
-1.03339
0.0868889
-1.0281
0.0767653
-1.02362
0.0662322
-1.01984
0.0553093
-1.01523
0.0439913
-1.01108
0.032524
-1.00892
0.0207206
-1.00835
-1.00287
0.0083705
0.0414599
-0.260695
0.0923865
-0.753407
0.113755
-1.04586
0.112095
-1.09108
0.105225
-1.08395
0.0971351
-1.07194
0.0881993
-1.06127
0.0785634
-1.05121
0.0684385
-1.0427
0.0575665
-1.03461
0.0461704
-1.02749
0.0344039
-1.02162
0.0221121
-1.01581
0.00935127
-1.01086
-0.00373343
-1.00676
-0.0172586
-1.00171
-0.0311235
-0.997213
-0.0452538
-0.994791
-0.0598225
-0.99378
-0.98804
-0.074656
0.0336826
-0.294378
0.0738287
-0.793553
0.082884
-1.05491
0.0755235
-1.08372
0.0647511
-1.07318
0.0537551
-1.06094
0.0422531
-1.04977
0.0301871
-1.03915
0.0175234
-1.03004
0.00428444
-1.02137
-0.00955174
-1.01365
-0.0238396
-1.00733
-0.03858
-1.00107
-0.0538331
-0.995603
-0.0693269
-0.991266
-0.0850063
-0.986027
-0.101286
-0.980934
-0.117982
-0.978094
-0.134785
-0.976977
-0.971441
-0.151385
0.0257603
-0.320138
0.0530415
-0.820835
0.0554109
-1.05728
0.0450636
-1.07337
0.0319037
-1.06002
0.0181878
-1.04723
0.00362867
-1.03521
-0.0115352
-1.02398
-0.0271477
-1.01443
-0.0433874
-1.00513
-0.0600397
-0.997002
-0.077112
-0.990259
-0.0945432
-0.983639
-0.112369
-0.977778
-0.130552
-0.973083
-0.149043
-0.967535
-0.16776
-0.962217
-0.186904
-0.95895
-0.206276
-0.957605
-0.952589
-0.225128
0.022602
-0.34274
0.0412613
-0.839494
0.0345027
-1.05053
0.0186364
-1.05751
0.00121303
-1.0426
-0.0162252
-1.02979
-0.0339559
-1.01748
-0.0521111
-1.00583
-0.0705528
-0.995984
-0.0894216
-0.98626
-0.108832
-0.977592
-0.128478
-0.970612
-0.148487
-0.96363
-0.168917
-0.957348
-0.189451
-0.952549
-0.210007
-0.946979
-0.23124
-0.940985
-0.25305
-0.93714
-0.274765
-0.93589
-0.931733
-0.29562
0.0173917
-0.360132
0.0284907
-0.850593
0.0152342
-1.03727
-0.00401426
-1.03826
-0.0237274
-1.02288
-0.0440319
-1.00948
-0.0646298
-0.99688
-0.0856247
-0.984832
-0.106929
-0.97468
-0.128616
-0.964572
-0.150624
-0.955584
-0.173126
-0.948111
-0.195824
-0.940932
-0.218871
-0.934301
-0.242333
-0.929088
-0.265886
-0.923426
-0.289455
-0.917416
-0.313827
-0.912767
-0.338656
-0.911061
-0.908042
-0.362347
0.0144325
-0.374564
0.019664
-0.855824
0.00130937
-1.01891
-0.0229634
-1.01399
-0.0471489
-0.998698
-0.0712127
-0.985419
-0.0952711
-0.972821
-0.119473
-0.96063
-0.143649
-0.950504
-0.168024
-0.940196
-0.192762
-0.930847
-0.217596
-0.923276
-0.242822
-0.915706
-0.268328
-0.908795
-0.293809
-0.903606
-0.319297
-0.897938
-0.34531
-0.891403
-0.37199
-0.886088
-0.399204
-0.883848
-0.881772
-0.425474
0.0098948
-0.384459
0.0076824
-0.853612
-0.0152499
-0.995982
-0.0411938
-0.988042
-0.0674833
-0.972409
-0.0938788
-0.959024
-0.120164
-0.946536
-0.146641
-0.934153
-0.173326
-0.923819
-0.200163
-0.91336
-0.227159
-0.903851
-0.254567
-0.895868
-0.282114
-0.888159
-0.310212
-0.880697
-0.338826
-0.874992
-0.367234
-0.86953
-0.39538
-0.863257
-0.424682
-0.856785
-0.455669
-0.852861
-0.85118
-0.486261
0.0072005
-0.391659
0.000874455
-0.847286
-0.0267921
-0.968316
-0.0568267
-0.958007
-0.0863817
-0.942854
-0.115981
-0.929424
-0.145372
-0.917145
-0.174763
-0.904762
-0.203928
-0.894654
-0.233289
-0.884
-0.262914
-0.874225
-0.292375
-0.866407
-0.32217
-0.858365
-0.352232
-0.850634
-0.382512
-0.844712
-0.413199
-0.838844
-0.444143
-0.832313
-0.475219
-0.825709
-0.508628
-0.819452
-0.816688
-0.54312
0.00468898
-0.00731201
-0.0377556
-0.0699012
-0.101735
-0.13347
-0.164746
-0.195932
-0.227088
-0.258082
-0.289371
-0.320879
-0.3521
-0.384084
-0.416667
-0.448693
-0.480674
-0.51332
-0.548038
-0.586952
0.884826
-9.27522
9.35833
0.809047
-9.20532
9.2811
0.741884
-9.22775
9.29491
0.685045
-9.22919
9.28603
0.627593
-9.3029
9.36035
0.572895
-9.31554
9.37024
0.524188
-9.35823
9.40694
0.478873
-9.37804
9.42335
0.434662
-9.4684
9.51261
0.390612
-9.50077
9.54482
0.35074
-9.53693
9.5768
0.312181
-9.56052
9.59908
0.273859
-9.56461
9.60294
0.236352
-9.5161
9.55361
0.203969
-9.53622
9.5686
0.176007
-9.52577
9.55374
0.15188
-9.57929
9.60342
0.115375
-9.04032
9.07682
0.0611563
-7.3899
7.44412
-3.88052
3.94168
0.779299
-9.19431
0.708299
-9.13432
0.645084
-9.16454
0.592007
-9.17612
0.541828
-9.25272
0.495176
-9.26889
0.448883
-9.31194
0.404053
-9.33321
0.363035
-9.42739
0.324818
-9.46255
0.291487
-9.50359
0.259003
-9.52804
0.227131
-9.53274
0.196916
-9.48589
0.171846
-9.51115
0.151968
-9.5059
0.134866
-9.56219
0.103519
-9.00897
0.0567159
-7.3431
-3.82381
0.681622
-9.11969
0.61139
-9.06409
0.550825
-9.10397
0.502514
-9.12781
0.455014
-9.20522
0.411436
-9.22531
0.373756
-9.27426
0.339279
-9.29873
0.305901
-9.39401
0.273557
-9.43021
0.245746
-9.47578
0.218868
-9.50116
0.192241
-9.50612
0.166917
-9.46057
0.14701
-9.49124
0.131249
-9.49014
0.119085
-9.55003
0.0952974
-8.98518
0.0547145
-7.30251
-3.76909
0.578299
-9.04525
0.512148
-8.99794
0.456196
-9.04802
0.411303
-9.08291
0.369643
-9.16356
0.334142
-9.18981
0.299231
-9.23935
0.265391
-9.26489
0.235245
-9.36386
0.208625
-9.40359
0.187185
-9.45434
0.166231
-9.48021
0.145853
-9.48574
0.127626
-9.44234
0.115033
-9.47865
0.107249
-9.48235
0.101999
-9.54477
0.0837215
-8.96691
0.0504249
-7.26922
-3.71867
0.481862
-8.97251
0.417457
-8.93353
0.364787
-8.99535
0.323585
-9.04171
0.285046
-9.12502
0.25296
-9.15773
0.226348
-9.21273
0.20216
-9.2407
0.179154
-9.34086
0.158191
-9.38262
0.142074
-9.43823
0.126591
-9.46472
0.11142
-9.47057
0.098066
-9.42898
0.0904642
-9.47104
0.0865926
-9.47848
0.0861607
-9.54434
0.075385
-8.95613
0.0482463
-7.24208
-3.67042
0.381638
-8.89967
0.319961
-8.87186
0.271799
-8.94719
0.234752
-9.00466
0.201928
-9.0922
0.176666
-9.13247
0.152197
-9.18827
0.129086
-9.21759
0.109729
-9.3215
0.0944168
-9.36731
0.0844809
-9.42829
0.0748126
-9.45506
0.0657057
-9.46146
0.0592597
-9.42254
0.0588976
-9.47068
0.0627947
-9.48238
0.069142
-9.55069
0.0641634
-8.95115
0.0441087
-7.22202
-3.62631
0.288041
-8.82514
0.228349
-8.81216
0.183778
-8.90262
0.149518
-8.9704
0.119443
-9.06212
0.0980521
-9.11108
0.0821138
-9.17233
0.0679527
-9.20343
0.055054
-9.3086
0.0450586
-9.35732
0.0402387
-9.42347
0.0358914
-9.45071
0.0319245
-9.45749
0.030336
-9.42095
0.0347144
-9.47506
0.0422578
-9.48992
0.0533449
-9.56178
0.055709
-8.95352
0.0417328
-7.20805
-3.58458
0.191989
-8.75003
0.135789
-8.75596
0.0949217
-8.86175
0.0639058
-8.93939
0.0394747
-9.03769
0.0232739
-9.09487
0.00867027
-9.15772
-0.0038565
-9.19091
-0.0127477
-9.29971
-0.0172464
-9.35282
-0.0161118
-9.42461
-0.0147377
-9.45208
-0.0127924
-9.45944
-0.00767714
-9.42607
0.00374119
-9.48648
0.018793
-9.50497
0.0365515
-9.57954
0.0448651
-8.96183
0.0377538
-7.20094
-3.54682
0.101754
-8.67177
0.0466069
-8.70082
0.00854066
-8.82368
-0.0182869
-8.91256
-0.0402187
-9.01576
-0.0524011
-9.08269
-0.0583854
-9.15174
-0.0626928
-9.1866
-0.0657219
-9.29668
-0.0652639
-9.35328
-0.0592677
-9.4306
-0.0527237
-9.45863
-0.045725
-9.46644
-0.0358064
-9.43598
-0.0199876
-9.5023
-0.00150287
-9.52346
0.0209102
-9.60195
0.0363236
-8.97724
0.0352324
-7.19985
-3.51159
0.0110204
-8.59192
-0.0401055
-8.64969
-0.0749723
-8.78882
-0.100866
-8.88667
-0.116872
-8.99975
-0.125418
-9.07415
-0.130475
-9.14668
-0.132583
-9.18449
-0.131449
-9.29781
-0.125736
-9.35899
-0.114083
-9.44226
-0.101925
-9.47078
-0.0891379
-9.47922
-0.0727453
-9.45238
-0.0501395
-9.5249
-0.024507
-9.54909
0.00442402
-9.63088
0.0258269
-8.99865
0.031445
-7.20546
-3.48015
-0.0731791
-8.51038
-0.125331
-8.59754
-0.157215
-8.75693
-0.179499
-8.86438
-0.193396
-8.98585
-0.197626
-9.06991
-0.194347
-9.14996
-0.188995
-9.18984
-0.182475
-9.30433
-0.17214
-9.36932
-0.155926
-9.45847
-0.138794
-9.48792
-0.121064
-9.49695
-0.10004
-9.4734
-0.0734184
-9.55152
-0.0445819
-9.57793
-0.0110256
-9.66444
0.0171529
-9.02683
0.0288499
-7.21716
-3.4513
-0.157109
-8.42792
-0.20724
-8.54741
-0.23751
-8.72666
-0.258198
-8.8437
-0.266537
-8.97752
-0.268317
-9.06813
-0.264334
-9.15394
-0.256371
-9.1978
-0.245692
-9.31501
-0.230412
-9.3846
-0.208901
-9.47998
-0.186308
-9.51051
-0.16292
-9.52034
-0.135673
-9.50065
-0.102465
-9.58473
-0.0668674
-9.61352
-0.0271949
-9.70411
0.00685921
-9.06088
0.0253076
-7.23561
-3.42599
-0.23676
-8.34255
-0.287086
-8.49708
-0.315403
-8.69835
-0.33343
-8.82567
-0.340014
-8.97093
-0.336802
-9.07135
-0.324901
-9.16585
-0.310232
-9.21247
-0.294532
-9.33071
-0.274924
-9.40421
-0.249187
-9.50572
-0.221844
-9.53785
-0.193632
-9.54855
-0.161975
-9.53231
-0.125108
-9.6216
-0.086562
-9.65207
-0.0424585
-9.74821
-0.00203783
-9.1013
0.0227518
-7.2604
-3.40324
-0.314893
-8.25278
-0.364092
-8.44788
-0.39154
-8.6709
-0.407206
-8.81
-0.409082
-8.96906
-0.404535
-9.07589
-0.39212
-9.17826
-0.374658
-9.22994
-0.354876
-9.35049
-0.330649
-9.42844
-0.300014
-9.53635
-0.267397
-9.57047
-0.233689
-9.58226
-0.196122
-9.56987
-0.153
-9.66472
-0.108088
-9.69698
-0.0582166
-9.79808
-0.0118602
-9.14766
0.0195021
-7.29176
-3.38374
-0.38955
-8.15885
-0.439247
-8.39819
-0.464944
-8.6452
-0.479091
-8.79585
-0.479119
-8.96903
-0.468972
-9.08604
-0.449329
-9.1979
-0.425884
-9.25338
-0.401354
-9.37502
-0.373063
-9.45673
-0.338566
-9.57085
-0.301495
-9.60754
-0.263122
-9.62063
-0.221421
-9.61157
-0.174883
-9.71126
-0.127171
-9.74469
-0.0731204
-9.85213
-0.0206533
-9.20012
0.0169825
-7.3294
-3.36675
-0.460773
-8.06043
-0.511105
-8.34785
-0.536375
-8.61993
-0.547322
-8.78491
-0.543809
-8.97254
-0.533231
-9.09662
-0.51328
-9.21785
-0.487044
-9.27962
-0.458504
-9.40356
-0.42591
-9.48932
-0.386967
-9.60979
-0.344912
-9.6496
-0.301226
-9.66432
-0.25385
-9.65895
-0.201301
-9.76381
-0.147717
-9.79828
-0.0884536
-9.9114
-0.0303352
-9.25824
0.0141071
-7.37384
-3.35265
-0.531192
-7.95471
-0.581813
-8.29723
-0.605376
-8.59637
-0.615003
-8.77528
-0.609172
-8.97837
-0.593003
-9.11279
-0.566859
-9.244
-0.535389
-9.31109
-0.502326
-9.43663
-0.465883
-9.52577
-0.423458
-9.65222
-0.377236
-9.69582
-0.329047
-9.71251
-0.277825
-9.71017
-0.222317
-9.81932
-0.166042
-9.85455
-0.102942
-9.9745
-0.0388581
-9.32233
0.0115813
-7.42428
-3.34107
-0.599601
-7.84137
-0.650782
-8.24605
-0.672987
-8.57416
-0.678637
-8.76963
-0.669761
-8.98725
-0.653659
-9.12889
-0.627418
-9.27024
-0.593269
-9.34524
-0.556236
-9.47366
-0.515697
-9.56631
-0.469181
-9.69873
-0.418289
-9.74671
-0.364936
-9.76586
-0.308373
-9.76673
-0.247192
-9.8805
-0.18556
-9.91619
-0.117535
-10.0425
-0.0476832
-9.39218
0.00891233
-7.48087
-3.33215
-0.659329
-7.72516
-0.71697
-8.18841
-0.738009
-8.55312
-0.742569
-8.76507
-0.730453
-8.99936
-0.708856
-9.15049
-0.677507
-9.30159
-0.639073
-9.38367
-0.597757
-9.51498
-0.553536
-9.61053
-0.504105
-9.74816
-0.449867
-9.80095
-0.392427
-9.8233
-0.332132
-9.82703
-0.267758
-9.94487
-0.203506
-9.98044
-0.132088
-10.1139
-0.0563706
-9.4679
0.00635454
-7.5436
-3.3258
-0.709841
-7.60227
-0.775508
-8.12274
-0.795867
-8.53276
-0.797399
-8.76354
-0.784412
-9.01235
-0.762639
-9.17226
-0.73165
-9.33258
-0.690865
-9.42445
-0.646161
-9.55968
-0.598203
-9.65849
-0.545644
-9.80072
-0.48702
-9.85957
-0.424569
-9.88575
-0.359265
-9.89233
-0.290364
-10.0138
-0.221043
-10.0498
-0.146514
-10.1885
-0.0639671
-9.55044
0.00621268
-7.61378
-3.31959
7.49998
-7.29993
-7.80232
6.98912
-7.61188
6.49286
-8.03651
5.97693
-8.24761
5.48257
-8.518
5.01297
-8.70266
4.57269
-8.89229
4.17952
-9.03128
3.80047
-9.18063
3.43973
-9.29774
3.0569
-9.4179
2.67732
-9.47999
2.33827
-9.5467
2.06532
-9.61939
1.77378
-9.72224
1.50084
-9.77681
1.12403
-9.81167
0.754649
-9.18106
0.29822
-7.15735
-3.02137
4.38064
-7.3001
-4.38047
4.31368
-7.54492
4.11838
-7.8412
3.93055
-8.05978
3.70728
-8.29472
3.47831
-8.4737
3.23495
-8.64893
2.99503
-8.79136
2.74243
-8.92804
2.48736
-9.04268
2.22285
-9.15338
1.98515
-9.2423
1.7753
-9.33685
1.57634
-9.42042
1.35317
-9.49906
1.13978
-9.56342
0.882264
-9.55415
0.619697
-8.91849
0.181286
-6.71894
-2.84008
3.15205
-7.44041
-3.01174
3.22183
-7.61471
3.22437
-7.84373
3.18134
-8.01676
3.07274
-8.18612
2.93916
-8.34012
2.77892
-8.48868
2.60837
-8.62081
2.42129
-8.74096
2.22639
-8.84777
2.02228
-8.94927
1.82182
-9.04184
1.61594
-9.13097
1.40089
-9.20537
1.17643
-9.2746
0.970954
-9.35795
0.757775
-9.34097
0.524671
-8.68539
0.216556
-6.41082
-2.62352
1.96629
-7.61529
-1.7914
2.09571
-7.74413
2.14417
-7.89219
2.14347
-8.01605
2.10765
-8.15031
2.04594
-8.27841
1.95569
-8.39843
1.84371
-8.50883
1.71638
-8.61363
1.58117
-8.71256
1.43907
-8.80717
1.29068
-8.89345
1.13719
-8.97747
0.989859
-9.05804
0.849547
-9.13429
0.700515
-9.20892
0.542819
-9.18328
0.388683
-8.53125
0.16236
-6.1845
-2.46116
1.38615
-7.76546
-1.23599
1.4884
-7.84638
1.57063
-7.97443
1.62088
-8.0663
1.62693
-8.15635
1.60283
-8.25432
1.5536
-8.3492
1.48753
-8.44276
1.40557
-8.53168
1.30743
-8.61441
1.19778
-8.69752
1.08024
-8.77591
0.955457
-8.8527
0.820896
-8.92348
0.676727
-8.99012
0.521287
-9.05348
0.380844
-9.04284
0.265601
-8.41601
0.143011
-6.06191
-2.31815
0.891075
-7.88136
-0.77517
0.99518
-7.95049
1.0592
-8.03845
1.09038
-8.09748
1.09789
-8.16386
1.08208
-8.23851
1.04867
-8.31578
0.996899
-8.39099
0.933124
-8.4679
0.859061
-8.54035
0.775663
-8.61412
0.682734
-8.68298
0.582685
-8.75265
0.478032
-8.81883
0.372004
-8.88409
0.273541
-8.95501
0.176921
-8.94622
0.133146
-8.37223
0.0917606
-6.02053
-2.22639
0.60708
-7.96679
-0.521655
0.669379
-8.01278
0.708561
-8.07764
0.746673
-8.13559
0.767007
-8.1842
0.768209
-8.23971
0.753935
-8.30151
0.723844
-8.3609
0.678991
-8.42305
0.621732
-8.48309
0.554787
-8.54718
0.47792
-8.60611
0.39285
-8.66757
0.299648
-8.72563
0.203474
-8.78792
0.0937348
-8.84527
-0.0143005
-8.83818
-0.036212
-8.35032
0.0343048
-6.09104
-2.19209
0.383323
-8.02484
-0.325265
0.432854
-8.06232
0.473094
-8.11788
0.492814
-8.15531
0.490974
-8.18236
0.479798
-8.22853
0.454516
-8.27623
0.417907
-8.32429
0.373318
-8.37846
0.320358
-8.43013
0.258377
-8.4852
0.190804
-8.53854
0.118652
-8.59542
0.0417349
-8.64871
-0.0408651
-8.70532
-0.125228
-8.76091
-0.193036
-8.77037
-0.183268
-8.36009
-0.0118365
-6.26247
-2.20392
0.21774
-8.06025
-0.182335
0.242841
-8.08742
0.255854
-8.13089
0.256018
-8.15547
0.260084
-8.18642
0.255314
-8.22376
0.240216
-8.26113
0.215743
-8.29982
0.179711
-8.34243
0.133478
-8.3839
0.078517
-8.43024
0.015948
-8.47597
-0.0523598
-8.52711
-0.126317
-8.57475
-0.202968
-8.62867
-0.285071
-8.67881
-0.357219
-8.69822
-0.333148
-8.38416
-0.102664
-6.49296
-2.30659
0.112091
-8.0841
-0.0882399
0.128901
-8.10423
0.132668
-8.13466
0.12834
-8.15114
0.11841
-8.17649
0.0934091
-8.19876
0.0628196
-8.23054
0.0263259
-8.26333
-0.0164429
-8.29966
-0.0656958
-8.33464
-0.12163
-8.3743
-0.183236
-8.41436
-0.250829
-8.45952
-0.322714
-8.50287
-0.39948
-8.5519
-0.478392
-8.5999
-0.546909
-8.62971
-0.530888
-8.40018
-0.241107
-6.78274
-2.5477
0.00978961
-8.09126
-0.00262569
0.00921051
-8.10365
-0.00221955
-8.12323
-0.0158669
-8.13749
-0.0350257
-8.15733
-0.0560846
-8.1777
-0.0825527
-8.20407
-0.118727
-8.22715
-0.160906
-8.25748
-0.209278
-8.28627
-0.265452
-8.31813
-0.328891
-8.35092
-0.400338
-8.38808
-0.477679
-8.42553
-0.562669
-8.46691
-0.65487
-8.50769
-0.74108
-8.5435
-0.742018
-8.39925
-0.419391
-7.10536
-2.96709
-0.0706271
-8.08896
0.068324
-0.0771408
-8.09713
-0.089721
-8.11065
-0.102316
-8.1249
-0.119863
-8.13979
-0.144352
-8.15321
-0.175732
-8.17269
-0.212954
-8.18993
-0.257635
-8.2128
-0.308932
-8.23497
-0.367327
-8.25973
-0.433148
-8.2851
-0.508107
-8.31312
-0.59156
-8.34207
-0.685409
-8.37306
-0.787648
-8.40546
-0.893482
-8.43766
-0.923726
-8.369
-0.637424
-7.39167
-3.60451
-0.131514
-8.08087
0.123421
-0.142108
-8.08654
-0.15668
-8.09608
-0.17864
-8.10294
-0.203675
-8.11475
-0.233275
-8.12361
-0.269301
-8.13666
-0.309112
-8.15012
-0.353563
-8.16835
-0.405761
-8.18278
-0.465966
-8.19953
-0.533514
-8.21755
-0.608119
-8.23851
-0.690785
-8.25941
-0.785777
-8.27807
-0.891139
-8.30009
-1.0156
-8.3132
-1.09963
-8.28497
-0.885741
-7.60556
-4.49025
-0.173269
-8.07117
0.16357
-0.185138
-8.07467
-0.199749
-8.08146
-0.217455
-8.08523
-0.239395
-8.09281
-0.264954
-8.09806
-0.294139
-8.10748
-0.328271
-8.11599
-0.369444
-8.12718
-0.417181
-8.13504
-0.47014
-8.14657
-0.531105
-8.15659
-0.601717
-8.1679
-0.683704
-8.17742
-0.778217
-8.18356
-0.882755
-8.19556
-1.00645
-8.18951
-1.10397
-8.18745
-0.930057
-7.77947
-5.42031
-0.187606
-8.05733
0.173771
-0.203662
-8.05862
-0.22322
-8.06191
-0.244568
-8.06389
-0.268904
-8.06847
-0.295708
-8.07125
-0.323988
-8.0792
-0.355379
-8.0846
-0.393045
-8.08951
-0.433184
-8.0949
-0.475222
-8.10453
-0.523198
-8.10861
-0.575642
-8.11546
-0.634905
-8.11816
-0.698192
-8.12027
-0.771935
-8.12181
-0.847877
-8.11357
-0.927748
-8.10758
-0.805409
-7.9018
-6.22572
-0.192117
-8.04535
0.180129
-0.205073
-8.04566
-0.219618
-8.04736
-0.235669
-8.04784
-0.253372
-8.05077
-0.272404
-8.05222
-0.296058
-8.05555
-0.321595
-8.05906
-0.347466
-8.06364
-0.377806
-8.06456
-0.412522
-8.06981
-0.451107
-8.07003
-0.49315
-8.07341
-0.53934
-8.07197
-0.58642
-8.07319
-0.640888
-8.06735
-0.688954
-8.0655
-0.743392
-8.05314
-0.669063
-7.97613
-6.89478
-0.182288
-8.03344
0.170384
-0.194577
-8.03337
-0.207581
-8.03436
-0.220479
-8.03494
-0.234654
-8.0366
-0.24896
-8.03791
-0.264223
-8.04028
-0.281804
-8.04148
-0.301356
-8.04409
-0.321411
-8.04451
-0.343332
-8.04789
-0.366407
-8.04695
-0.390794
-8.04903
-0.415806
-8.04696
-0.440678
-8.04832
-0.466018
-8.04201
-0.489671
-8.04185
-0.510796
-8.03202