/*--------------------------------*- C++ -*----------------------------------*\
  =========                 |
  \\      /  F ield         | OpenFOAM: The Open Source CFD Toolbox
   \\    /   O peration     | Website:  https://openfoam.org
    \\  /    A nd           | Version:  9
     \\/     M anipulation  |
\*---------------------------------------------------------------------------*/
FoamFile
{
    format      ascii;
    class       volVectorField;
    location    "4";
    object      U;
}
// * * * * * * * * * * * * * * * * * * * * * * * * * * * * * * * * * * * * * //

dimensions      [0 1 -1 0 0 0 0];

internalField   nonuniform List<vector> 
46400
(
(7.09784 -6.97497 2.72398e-19)
(15.0388 -14.2455 -3.98124e-19)
(16.3332 -16.2568 -4.84295e-20)
(15.8494 -16.3665 -1.49674e-19)
(15.3188 -16.3409 -3.59197e-20)
(14.7804 -16.3912 7.76037e-19)
(14.3357 -16.4264 -4.57012e-19)
(13.8878 -16.4827 1.31537e-19)
(13.4795 -16.5403 -1.34729e-19)
(13.0703 -16.5595 1.37341e-19)
(12.6949 -16.6307 -1.39362e-19)
(12.3498 -16.6746 0)
(12.0235 -16.7613 9.49481e-19)
(11.7023 -16.7951 -1.07448e-18)
(11.3957 -16.855 -1.24885e-18)
(11.1534 -16.9566 -1.64549e-19)
(10.8874 -17.0483 -1.97272e-20)
(10.6271 -17.0618 9.52522e-19)
(10.3776 -17.0189 1.2401e-18)
(10.0054 -17.1479 -1.14477e-18)
(7.41334 -6.66117 0)
(15.1676 -13.4068 -2.34313e-20)
(16.2568 -15.0744 0)
(15.6622 -15.1498 6.11779e-19)
(15.1909 -15.2352 -4.92833e-19)
(14.682 -15.3388 1.22738e-19)
(14.2357 -15.4242 0)
(13.76 -15.4832 -1.31532e-19)
(13.3665 -15.5915 1.34726e-19)
(12.9771 -15.6803 -1.37335e-19)
(12.5591 -15.7223 1.33248e-18)
(12.2261 -15.8352 2.72247e-20)
(11.8877 -15.9248 -1.03994e-18)
(11.5672 -16.0107 0)
(11.2547 -16.1015 1.43387e-19)
(10.968 -16.1776 1.43672e-19)
(10.7078 -16.3029 0)
(10.4845 -16.4129 -1.21083e-18)
(10.268 -16.4859 -3.01792e-19)
(9.96141 -16.6982 1.23587e-18)
(7.68943 -6.28374 3.36268e-19)
(15.1776 -12.5342 -4.91019e-19)
(16.061 -13.8779 5.28733e-19)
(15.4756 -14.0906 5.94028e-19)
(14.9528 -14.15 -5.83192e-19)
(14.4066 -14.2831 0)
(13.9608 -14.4069 -1.44302e-18)
(13.5095 -14.5299 1.2543e-18)
(13.0941 -14.6576 -1.47539e-18)
(12.7001 -14.7575 1.45445e-18)
(12.3113 -14.8744 1.31793e-18)
(11.9559 -14.9626 -1.48435e-19)
(11.6366 -15.1143 -1.12759e-18)
(11.3111 -15.185 0)
(11.0106 -15.3081 1.3104e-18)
(10.7603 -15.4445 -1.2905e-18)
(10.4751 -15.5481 0)
(10.2275 -15.6393 -1.12596e-20)
(9.98975 -15.717 1.52404e-19)
(9.6495 -15.9546 -1.33013e-18)
(7.85657 -5.88309 -4.26527e-19)
(15.08 -11.6137 1.23569e-19)
(15.7317 -12.6982 6.63072e-19)
(15.0924 -12.8735 -6.54608e-19)
(14.639 -13.0594 -5.15762e-19)
(14.1385 -13.2318 6.85572e-19)
(13.6859 -13.4057 8.82039e-19)
(13.2199 -13.5296 -2.14298e-18)
(12.8285 -13.722 1.77324e-18)
(12.4539 -13.8778 -1.70865e-19)
(12.032 -13.9877 0)
(11.6885 -14.1318 1.71237e-19)
(11.3669 -14.2967 -1.70918e-19)
(11.062 -14.4516 0)
(10.7182 -14.5386 1.41419e-18)
(10.4454 -14.6799 -1.21194e-18)
(10.2078 -14.8709 0)
(9.97975 -15.0154 1.65954e-19)
(9.77023 -15.1387 1.74486e-19)
(9.43818 -15.4068 1.43125e-18)
(7.96554 -5.47811 0)
(14.849 -10.6066 0)
(15.3373 -11.5758 -7.56573e-19)
(14.7454 -11.8466 5.45647e-19)
(14.2145 -11.9981 -9.65591e-19)
(13.6869 -12.1976 7.69351e-19)
(13.2534 -12.4102 0)
(12.8099 -12.5922 7.92393e-19)
(12.3904 -12.7783 -9.66599e-19)
(12.0336 -12.9699 -2.04076e-19)
(11.6554 -13.1501 -2.02773e-19)
(11.2846 -13.2765 0)
(10.9608 -13.4584 1.54361e-18)
(10.6803 -13.6278 -1.51946e-18)
(10.396 -13.817 0)
(10.097 -13.9225 -1.6779e-18)
(9.81306 -14.0644 1.47478e-18)
(9.58806 -14.2234 1.46291e-18)
(9.36826 -14.3421 -1.61511e-18)
(9.0514 -14.6164 0)
(8.07832 -5.04897 0)
(14.4609 -9.49631 0)
(14.8079 -10.3902 0)
(14.1735 -10.6391 -2.26402e-20)
(13.7329 -10.9394 0)
(13.2442 -11.18 0)
(12.794 -11.4459 0)
(12.354 -11.6435 -2.23622e-19)
(11.9638 -11.9037 0)
(11.6081 -12.117 2.04063e-19)
(11.2157 -12.315 -1.52502e-20)
(10.8824 -12.5097 -1.8891e-18)
(10.5568 -12.7198 1.43387e-18)
(10.2479 -12.8923 -1.84582e-18)
(9.9468 -13.0676 1.40272e-18)
(9.71438 -13.2978 0)
(9.4469 -13.467 -1.57206e-18)
(9.22036 -13.6474 1.35003e-18)
(9.0318 -13.8294 0)
(8.72121 -14.0906 -2.07255e-19)
(8.23122 -4.60337 8.84136e-19)
(13.9738 -8.44545 2.39525e-19)
(14.2185 -9.27235 9.44587e-19)
(13.6293 -9.61187 -9.54234e-19)
(13.0939 -9.87505 -9.50891e-19)
(12.6055 -10.1559 1.88121e-18)
(12.1961 -10.4725 -2.11525e-18)
(11.7797 -10.7311 2.15077e-19)
(11.3695 -10.9844 6.79301e-19)
(11.057 -11.2573 0)
(10.7042 -11.4969 -1.47117e-20)
(10.3344 -11.6669 -1.39214e-20)
(10.0398 -11.9107 2.13052e-19)
(9.79996 -12.1625 1.72109e-18)
(9.48668 -12.3219 -1.49938e-18)
(9.20798 -12.4808 -1.89749e-18)
(8.97106 -12.6943 1.65649e-18)
(8.72348 -12.8346 -1.01229e-20)
(8.55078 -13.0461 -2.05451e-19)
(8.31294 -13.3601 -1.49321e-18)
(8.41796 -4.20937 -2.52708e-19)
(13.3294 -7.40323 2.4789e-20)
(13.3956 -8.13092 -2.68844e-19)
(12.8383 -8.49215 -1.05965e-18)
(12.4201 -8.92276 7.53068e-19)
(11.9612 -9.21642 0)
(11.5302 -9.57083 1.51708e-18)
(11.1449 -9.85517 -7.37752e-19)
(10.7749 -10.1899 4.92751e-19)
(10.451 -10.4645 2.50511e-19)
(10.1313 -10.7639 -4.81292e-19)
(9.8104 -10.9899 1.17472e-18)
(9.44936 -11.1955 2.38722e-19)
(9.2135 -11.4796 -1.37402e-18)
(8.99629 -11.781 3.83481e-18)
(8.73293 -11.9852 -1.55775e-18)
(8.49231 -12.2063 1.96208e-18)
(8.25825 -12.3892 -1.28642e-18)
(8.02522 -12.5344 4.20109e-19)
(7.79239 -12.8484 2.01495e-18)
(8.52566 -3.85633 1.25424e-18)
(12.6079 -6.44054 -2.67742e-19)
(12.513 -7.14008 -2.16892e-20)
(12.0402 -7.53837 5.56634e-19)
(11.554 -7.94721 2.66307e-19)
(11.1492 -8.30826 2.81428e-19)
(10.7754 -8.69705 -1.34064e-18)
(10.3937 -9.0135 8.03395e-19)
(10.0213 -9.33761 -2.54214e-19)
(9.75893 -9.68685 -2.50509e-19)
(9.4684 -10.0043 -2.46695e-19)
(9.17532 -10.2635 -2.55079e-19)
(8.8518 -10.471 -4.89163e-19)
(8.55 -10.67 1.68534e-18)
(8.31844 -10.9306 -2.36197e-18)
(8.12373 -11.2122 -2.3642e-19)
(7.91384 -11.4614 9.34685e-21)
(7.7294 -11.7057 -1.77286e-18)
(7.53889 -11.9115 1.31785e-18)
(7.30431 -12.1844 -2.0906e-18)
(8.52853 -3.54224 1.08615e-18)
(11.692 -5.51352 -2.72689e-18)
(11.4756 -6.19368 1.80101e-18)
(11.0811 -6.62688 -2.8836e-19)
(10.7169 -7.14602 -3.02253e-19)
(10.321 -7.50558 1.17704e-18)
(9.95209 -7.92656 -1.43322e-18)
(9.62513 -8.26912 0)
(9.26715 -8.63953 1.10334e-18)
(8.97479 -8.96438 -1.0849e-18)
(8.75155 -9.37607 -7.91107e-19)
(8.5496 -9.73952 1.03436e-18)
(8.26388 -10.0278 2.50365e-19)
(7.99681 -10.2674 -1.00207e-18)
(7.72076 -10.4937 2.45546e-19)
(7.48089 -10.7175 1.20363e-18)
(7.28573 -10.9892 -2.1181e-18)
(7.08803 -11.2125 1.39533e-18)
(6.9277 -11.4633 -7.72121e-21)
(6.72558 -11.7539 -1.93414e-18)
(8.29058 -3.15628 1.46673e-18)
(10.732 -4.73145 -9.69305e-19)
(10.4448 -5.38212 6.43204e-19)
(10.0793 -5.83615 4.12541e-21)
(9.69316 -6.33659 -1.25515e-18)
(9.38613 -6.77665 -1.20579e-18)
(9.07618 -7.22427 1.49156e-18)
(8.74365 -7.5747 -8.75191e-19)
(8.41092 -7.93393 1.15558e-18)
(8.13479 -8.28427 0)
(7.82691 -8.5896 1.07838e-20)
(7.65306 -8.98191 2.66394e-19)
(7.46913 -9.34242 2.70788e-19)
(7.24459 -9.64097 -2.65028e-19)
(7.05035 -9.93338 0)
(6.8202 -10.1722 2.53771e-19)
(6.62238 -10.4177 0)
(6.45315 -10.6766 4.78556e-19)
(6.27975 -10.8958 2.33567e-18)
(6.12615 -11.2372 -1.6183e-20)
(7.84886 -2.74228 7.84048e-19)
(9.60801 -3.9635 -1.65819e-19)
(9.29606 -4.62933 -2.36079e-18)
(9.01643 -5.11154 1.32179e-18)
(8.7062 -5.67745 3.17663e-19)
(8.38507 -6.0959 -3.11989e-19)
(8.13469 -6.60875 -1.24918e-18)
(7.90097 -7.0126 9.27399e-19)
(7.57017 -7.38945 0)
(7.35372 -7.77507 0)
(7.1157 -8.16093 -1.43009e-18)
(6.87359 -8.48634 1.12899e-18)
(6.70276 -8.88391 -2.70761e-19)
(6.51861 -9.22034 -8.08776e-19)
(6.32767 -9.54241 7.25843e-21)
(6.15512 -9.84286 1.80724e-18)
(5.94022 -10.0874 -1.01153e-18)
(5.76801 -10.338 7.39335e-19)
(5.58313 -10.5568 -1.20571e-18)
(5.38942 -10.8372 0)
(7.20389 -2.29737 -6.63087e-19)
(8.5364 -3.31003 1.05966e-18)
(8.18702 -3.96227 1.78197e-19)
(7.91777 -4.44902 1.74783e-19)
(7.62412 -5.01156 0)
(7.37294 -5.49364 1.31949e-18)
(7.13332 -5.99983 -1.2964e-18)
(6.93679 -6.45509 1.60649e-19)
(6.64221 -6.81738 0)
(6.36272 -7.16049 1.20848e-18)
(6.13694 -7.50752 -1.03858e-18)
(5.94967 -7.87672 1.15477e-18)
(5.76392 -8.21496 -1.1363e-18)
(5.63466 -8.61261 1.10287e-18)
(5.49065 -8.95749 -9.49175e-19)
(5.36729 -9.32638 -1.05297e-18)
(5.23488 -9.65271 2.06624e-18)
(5.08288 -9.94595 -8.86391e-19)
(4.95675 -10.2242 1.24528e-19)
(4.78358 -10.5112 1.05448e-18)
(6.37692 -1.84831 -5.20833e-19)
(7.25797 -2.70732 5.53485e-19)
(6.94181 -3.41133 -1.78187e-19)
(6.74078 -3.93925 -1.74782e-19)
(6.47208 -4.50088 0)
(6.20518 -4.96576 0)
(6.0238 -5.52821 0)
(5.96609 -6.09563 -3.25175e-19)
(5.78383 -6.57323 -1.26928e-18)
(5.60681 -6.99245 2.48807e-18)
(5.36084 -7.34111 -1.36956e-18)
(5.14193 -7.6647 -1.49752e-19)
(4.94098 -7.98596 0)
(4.75126 -8.28341 0)
(4.60581 -8.61745 -2.75995e-19)
(4.45928 -8.91921 0)
(4.35085 -9.26129 1.04921e-18)
(4.23171 -9.55795 -1.29078e-18)
(4.12991 -9.8589 -1.12467e-18)
(4.01426 -10.1873 1.08612e-18)
(5.43119 -1.4293 5.40437e-19)
(6.04205 -2.18709 9.46075e-19)
(5.73535 -2.8637 -1.04531e-21)
(5.62969 -3.46648 -2.13593e-21)
(5.43949 -4.04924 1.77039e-19)
(5.1593 -4.49039 -5.22378e-19)
(4.8231 -4.88423 0)
(4.72089 -5.41795 -4.98463e-19)
(4.61724 -5.91972 1.67997e-19)
(4.501 -6.41919 6.36633e-19)
(4.41791 -6.88583 6.16824e-19)
(4.26809 -7.29874 -4.57229e-19)
(4.13676 -7.67384 1.1748e-18)
(3.98556 -8.02686 -1.01167e-18)
(3.84506 -8.3421 1.25802e-18)
(3.71278 -8.66715 -2.33131e-18)
(3.58723 -8.95718 1.07538e-18)
(3.4818 -9.27165 1.2964e-19)
(3.37733 -9.53468 1.01485e-18)
(3.2794 -9.87219 -1.10355e-18)
(4.32852 -1.12695 1.89379e-19)
(4.57003 -1.9275 -1.91303e-19)
(4.35247 -2.4805 7.57676e-19)
(4.20838 -3.10047 -7.43535e-19)
(4.21625 -3.74566 -3.62056e-19)
(4.17319 -4.36548 -8.82687e-19)
(3.90188 -4.77311 4.42892e-21)
(3.70839 -5.21916 6.78372e-19)
(3.57458 -5.65764 -1.63714e-19)
(3.44519 -6.09924 0)
(3.33022 -6.531 0)
(3.24847 -6.96737 0)
(3.13775 -7.36563 0)
(3.04885 -7.75385 1.44089e-21)
(2.94277 -8.11319 0)
(2.84767 -8.45037 1.37856e-19)
(2.74907 -8.78021 5.38351e-19)
(2.65635 -9.07604 -1.5812e-18)
(2.57197 -9.36964 1.16468e-18)
(2.47556 -9.6758 -1.10242e-18)
(2.72544 -0.715306 0)
(3.51664 -1.60366 -9.77775e-20)
(3.36429 -2.19116 0)
(3.11002 -2.72532 2.80003e-19)
(2.90714 -3.25768 -1.84866e-19)
(2.92479 -3.93424 -7.1376e-19)
(2.83367 -4.47123 4.62973e-21)
(2.6866 -4.9768 6.84786e-19)
(2.58004 -5.43811 -6.63109e-19)
(2.46251 -5.8841 1.29874e-18)
(2.37754 -6.30914 -5.5059e-21)
(2.27576 -6.71388 -6.20366e-19)
(2.21846 -7.12234 5.99392e-19)
(2.12449 -7.49034 -7.36267e-19)
(2.07167 -7.86977 0)
(1.98461 -8.20377 -5.55649e-19)
(1.93213 -8.55087 5.4736e-19)
(1.853 -8.85419 0)
(1.80598 -9.15186 -1.29235e-19)
(1.73123 -9.462 0)
(1.36885 -0.353055 0)
(1.83714 -1.11461 9.57866e-20)
(1.92697 -1.85108 0)
(1.85267 -2.49424 3.76608e-19)
(1.62643 -3.03774 -4.62251e-19)
(1.58762 -3.61047 2.69118e-19)
(1.56324 -4.21802 -7.90851e-19)
(1.49609 -4.73004 3.44234e-19)
(1.46159 -5.27007 -8.35038e-20)
(1.38616 -5.72434 0)
(1.34526 -6.20256 -7.93455e-20)
(1.27737 -6.61288 -7.73308e-20)
(1.23617 -7.03752 -7.53655e-20)
(1.18488 -7.41797 0)
(1.14338 -7.79495 -5.70574e-19)
(1.10328 -8.14805 1.18784e-18)
(1.06165 -8.48515 -1.02199e-18)
(1.02949 -8.81205 5.34188e-19)
(0.99168 -9.10219 6.46689e-20)
(0.96741 -9.42582 5.56056e-19)
(0.651051 -0.158642 -1.50764e-19)
(0.672594 -0.801123 -1.96802e-19)
(0.7212 -1.49846 5.67362e-22)
(0.612694 -2.23222 5.18217e-19)
(0.567091 -2.82011 -1.38354e-19)
(0.412541 -3.36858 -8.91919e-20)
(0.417701 -3.93192 8.90816e-20)
(0.346333 -4.45323 1.71754e-19)
(0.334073 -4.96316 8.35052e-20)
(0.297837 -5.45285 -3.23773e-19)
(0.281502 -5.9114 3.58343e-19)
(0.262535 -6.36679 7.73253e-20)
(0.245481 -6.78166 3.7491e-19)
(0.234311 -7.20303 -2.98803e-21)
(0.216593 -7.58098 3.26162e-20)
(0.207258 -7.96802 -6.27027e-19)
(0.189551 -8.31543 1.7122e-19)
(0.17928 -8.6681 0)
(0.163866 -8.97611 -3.25288e-20)
(0.150609 -9.3249 -2.76729e-19)
(-0.413563 -0.280326 5.00177e-20)
(-0.851965 -0.921369 -9.77204e-20)
(-1.06854 -1.75344 1.91413e-19)
(-0.918625 -2.37036 -4.74051e-20)
(-0.870813 -3.08415 -4.57985e-20)
(-0.848006 -3.5992 0)
(-0.856618 -4.19661 -8.67159e-20)
(-0.833722 -4.66769 1.6976e-19)
(-0.830728 -5.19238 -8.31045e-20)
(-0.822857 -5.62651 8.02838e-20)
(-0.811867 -6.09132 -3.95011e-20)
(-0.814611 -6.49467 -7.62129e-20)
(-0.796197 -6.90983 1.49256e-19)
(-0.798097 -7.28603 -1.45441e-19)
(-0.774291 -7.66176 3.56453e-20)
(-0.773634 -8.01136 2.43677e-34)
(-0.748341 -8.35812 -3.31522e-20)
(-0.746843 -8.68012 1.96531e-19)
(-0.72485 -8.98667 -9.71718e-20)
(-0.728067 -9.31353 -6.94409e-20)
(-0.127227 1.39523 2.14987e-21)
(-0.293462 1.91194 4.62164e-22)
(0.0204539 1.39754 0)
(0.672098 -1.1618 0)
(2.8375 -7.04558 1.46975e-21)
(5.94632 -14.9026 6.15034e-22)
(8.38246 -21.1352 0)
(9.51573 -24.108 8.93852e-22)
(9.91693 -25.2262 0)
(10.0377 -25.6219 0)
(10.0344 -25.8049 -3.32266e-22)
(9.99423 -25.8064 2.78257e-22)
(9.90477 -25.7554 3.4804e-22)
(9.79473 -25.6845 0)
(9.72616 -25.7291 -3.46742e-22)
(9.67285 -25.7272 -4.95381e-22)
(9.57857 -25.7673 -6.30603e-22)
(9.52512 -25.752 0)
(9.40501 -25.7318 1.5039e-21)
(9.36542 -25.7716 -1.38071e-21)
(-0.224198 1.74644 3.42473e-21)
(-0.246999 1.66154 -8.35431e-21)
(0.36917 0.0454802 0)
(1.83902 -4.32031 -2.57861e-21)
(5.32293 -12.8756 3.17311e-21)
(8.00655 -19.8687 -1.14873e-20)
(9.47697 -23.5862 4.60955e-21)
(9.99094 -25.0195 1.91779e-21)
(10.129 -25.4924 -7.8271e-21)
(10.1392 -25.6679 3.64256e-21)
(10.0898 -25.6497 -2.85884e-22)
(9.99303 -25.5697 -7.35729e-22)
(9.8784 -25.5205 -1.35573e-21)
(9.84499 -25.5517 2.02339e-21)
(9.76184 -25.5467 3.39462e-22)
(9.68913 -25.5202 4.98122e-22)
(9.60409 -25.5498 6.34079e-22)
(9.55278 -25.5506 0)
(9.44718 -25.5685 9.28048e-21)
(9.40564 -25.5778 1.01885e-21)
(-0.34589 1.86876 -2.64778e-21)
(0.1595 0.968025 0)
(0.914032 -2.27298 0)
(4.02132 -9.72219 -1.1552e-21)
(7.29814 -17.8472 2.9843e-21)
(9.27712 -22.6575 0)
(10.0471 -24.6824 -1.91412e-21)
(10.2561 -25.3177 3.6139e-21)
(10.286 -25.5095 -3.57857e-21)
(10.2438 -25.4865 9.32607e-22)
(10.1339 -25.4206 -7.85704e-22)
(10.0573 -25.3649 0)
(9.99439 -25.3957 4.24975e-21)
(9.93117 -25.351 7.49555e-21)
(9.81942 -25.3265 -9.67165e-21)
(9.77362 -25.334 1.74337e-20)
(9.69087 -25.38 -1.44836e-20)
(9.62361 -25.3379 0)
(9.49943 -25.3077 2.83623e-20)
(9.46667 -25.331 -4.84845e-20)
(-0.237816 1.64547 1.91691e-20)
(0.390008 -0.202886 0)
(2.12816 -5.0946 0)
(6.17437 -14.5184 3.03624e-21)
(8.76325 -21.0084 -1.95694e-20)
(10.0306 -24.1293 4.91946e-21)
(10.3807 -25.0936 1.91499e-21)
(10.4447 -25.3616 1.10876e-20)
(10.4045 -25.3571 -1.01552e-20)
(10.3037 -25.3027 4.51821e-21)
(10.2189 -25.2385 -1.51933e-21)
(10.152 -25.2222 -2.36262e-21)
(10.0542 -25.1671 1.66604e-20)
(9.97783 -25.1297 -1.74195e-20)
(9.89601 -25.1462 -7.18025e-21)
(9.84403 -25.1547 6.02631e-21)
(9.73618 -25.1342 -9.49228e-21)
(9.6544 -25.0679 0)
(9.56495 -25.1177 4.8165e-21)
(9.53768 -25.1447 0)
(0.113 1.27228 0)
(0.79509 -1.96423 3.05981e-20)
(4.01988 -9.59491 0)
(7.79732 -18.2435 3.5121e-20)
(9.80705 -23.0892 -2.77324e-20)
(10.4757 -24.7357 -4.88693e-21)
(10.612 -25.1977 0)
(10.5884 -25.2088 3.35109e-21)
(10.5145 -25.182 -5.81641e-21)
(10.419 -25.0908 -4.53592e-21)
(10.3408 -25.0447 4.32513e-21)
(10.2519 -24.9786 2.36273e-21)
(10.1757 -24.9727 -2.11497e-20)
(10.1101 -24.9511 4.3545e-20)
(10.0109 -24.9412 -3.50288e-20)
(9.95412 -24.9074 1.1455e-20)
(9.83412 -24.8954 3.88365e-20)
(9.78946 -24.882 -9.94508e-20)
(9.67322 -24.9078 5.94379e-20)
(9.64033 -24.8864 8.66168e-20)
(0.381449 0.133685 3.74101e-20)
(1.52293 -3.8576 3.54331e-20)
(5.70941 -13.2368 -3.48048e-20)
(9.03158 -20.8353 -8.41579e-21)
(10.4211 -24.035 6.41439e-21)
(10.7616 -24.96 1.68581e-20)
(10.7823 -25.0778 -1.5833e-20)
(10.7398 -25.0752 0)
(10.6481 -24.9821 -1.83812e-21)
(10.5524 -24.9084 1.85942e-21)
(10.4624 -24.8357 1.29478e-20)
(10.3868 -24.8169 -1.27375e-20)
(10.2962 -24.7655 0)
(10.202 -24.7123 0)
(10.1162 -24.7058 -6.86294e-20)
(10.0471 -24.6969 6.86332e-20)
(9.92983 -24.6741 7.66672e-20)
(9.85621 -24.6047 -7.47919e-20)
(9.73508 -24.6425 8.83493e-20)
(9.72147 -24.6528 -1.06253e-19)
(0.348982 -0.835052 -3.16307e-20)
(2.53003 -6.32932 1.30941e-20)
(7.36698 -16.7212 3.05665e-21)
(9.98598 -22.6077 4.74763e-20)
(10.8379 -24.5746 0)
(11.0347 -24.9726 0)
(11.0028 -24.9877 1.89637e-20)
(10.9234 -24.8898 -1.39147e-20)
(10.8046 -24.7678 -5.73573e-21)
(10.7206 -24.6826 -2.10818e-20)
(10.6349 -24.6342 2.0734e-20)
(10.5368 -24.5577 0)
(10.444 -24.5171 -5.50038e-20)
(10.3644 -24.4947 5.41389e-20)
(10.2678 -24.4826 0)
(10.1852 -24.4261 0)
(10.0512 -24.3776 0)
(10.0041 -24.3737 0)
(9.88627 -24.4322 0)
(9.86273 -24.3872 1.15135e-20)
(0.434696 -1.82913 4.5934e-20)
(3.942 -9.28779 -7.02419e-20)
(8.50164 -18.8422 0)
(10.6989 -23.5514 0)
(11.2479 -24.7745 6.97927e-20)
(11.2797 -24.8819 -1.18306e-20)
(11.227 -24.8066 -4.16492e-20)
(11.0998 -24.6497 0)
(11.0181 -24.5595 -8.82525e-22)
(10.9184 -24.4849 2.98664e-21)
(10.8099 -24.3857 0)
(10.714 -24.3436 -6.66205e-21)
(10.615 -24.2874 7.44665e-20)
(10.5028 -24.2286 -1.51769e-19)
(10.404 -24.1966 -1.10896e-20)
(10.3061 -24.1618 8.54599e-20)
(10.1838 -24.1435 1.33307e-20)
(10.1106 -24.0899 -1.42569e-20)
(9.96878 -24.1359 0)
(9.94613 -24.0829 -1.54888e-20)
(0.756303 -2.70702 3.3441e-20)
(5.21003 -11.6442 3.26124e-20)
(9.66212 -20.7794 -1.0781e-19)
(11.3616 -24.2119 2.92908e-20)
(11.6315 -24.784 1.1731e-20)
(11.6175 -24.7471 5.02243e-20)
(11.4948 -24.5938 -5.32716e-20)
(11.3961 -24.4566 2.33352e-20)
(11.2644 -24.3233 1.94704e-20)
(11.147 -24.1993 -2.94568e-20)
(11.0347 -24.13 -1.2509e-20)
(10.9176 -24.0459 -7.56905e-20)
(10.7971 -23.9814 3.66974e-20)
(10.6926 -23.9464 1.23403e-19)
(10.5829 -23.922 -1.15138e-19)
(10.4675 -23.8579 0)
(10.3234 -23.7948 -4.4142e-20)
(10.2605 -23.7944 -1.85375e-20)
(10.1238 -23.8622 3.38578e-20)
(10.0924 -23.7785 -1.97699e-20)
(1.17397 -3.59183 -9.71836e-20)
(6.61722 -13.5777 9.8997e-20)
(10.6611 -21.7461 4.1214e-21)
(12.0032 -24.3405 -6.16136e-20)
(12.0803 -24.6084 -4.31575e-20)
(11.9918 -24.4892 -1.40409e-20)
(11.8323 -24.306 -1.31418e-21)
(11.6761 -24.1295 -1.92926e-21)
(11.5465 -24.0097 0)
(11.4097 -23.9218 8.19278e-21)
(11.2651 -23.8061 1.25076e-20)
(11.1331 -23.7436 -3.94469e-21)
(11.0047 -23.68 -9.88727e-20)
(10.8653 -23.6186 4.25596e-20)
(10.7407 -23.5723 1.44542e-19)
(10.607 -23.5249 -1.16778e-19)
(10.4771 -23.5071 -1.06951e-19)
(10.3814 -23.4699 1.68695e-19)
(10.2228 -23.5181 -3.44579e-20)
(10.1751 -23.4102 -2.78024e-19)
(1.90063 -4.64928 -1.48264e-19)
(7.90939 -15.0338 1.79523e-19)
(11.665 -22.5649 -2.34358e-19)
(12.5872 -24.3432 1.78332e-19)
(12.538 -24.3562 9.19989e-20)
(12.3713 -24.156 -7.0314e-20)
(12.1795 -23.971 -1.81299e-20)
(12.0234 -23.8177 2.65436e-20)
(11.8466 -23.676 -1.82201e-20)
(11.6742 -23.5297 4.7503e-20)
(11.5172 -23.4477 -1.44437e-19)
(11.365 -23.3647 1.01143e-19)
(11.2043 -23.2898 2.41388e-20)
(11.0652 -23.2477 -9.94002e-20)
(10.9267 -23.221 2.63603e-19)
(10.7741 -23.1593 -1.3654e-19)
(10.6155 -23.0926 0)
(10.5144 -23.1036 3.32435e-19)
(10.3662 -23.1707 -3.2709e-19)
(10.2997 -23.0589 3.1189e-19)
(2.61605 -5.33897 0)
(8.84456 -15.9145 6.72446e-20)
(12.5649 -22.6916 2.3322e-19)
(13.1431 -23.956 1.2725e-19)
(13.0064 -23.9213 -8.09096e-20)
(12.7939 -23.7034 3.01643e-20)
(12.575 -23.5366 -1.91257e-20)
(12.3483 -23.3527 -3.76347e-20)
(12.1569 -23.2227 9.97795e-20)
(11.9651 -23.1325 -4.5882e-20)
(11.7707 -23.0147 0)
(11.5916 -22.9472 0)
(11.4202 -22.8845 0)
(11.2438 -22.8251 3.0205e-19)
(11.0826 -22.782 -2.97377e-19)
(10.9118 -22.7378 0)
(10.7615 -22.7185 0)
(10.6192 -22.7004 4.98359e-20)
(10.4541 -22.7458 0)
(10.3678 -22.6265 4.56759e-19)
(3.15586 -6.30953 -1.11188e-19)
(10.0423 -16.7102 -2.025e-19)
(13.3341 -22.7638 -1.22783e-19)
(13.7072 -23.5773 1.80845e-20)
(13.4327 -23.4307 8.83239e-20)
(13.1876 -23.2112 -4.44646e-20)
(12.9171 -23.0322 -3.34956e-20)
(12.6879 -22.8844 4.92146e-20)
(12.4544 -22.7541 0)
(12.2178 -22.6084 8.26725e-20)
(12.0089 -22.5316 -1.44532e-19)
(11.8117 -22.4615 0)
(11.6041 -22.391 -3.3071e-19)
(11.4248 -22.3536 3.25525e-19)
(11.2483 -22.3389 -3.82101e-19)
(11.058 -22.2839 7.26554e-19)
(10.8708 -22.2222 -3.97038e-19)
(10.7227 -22.2524 -4.96649e-20)
(10.5644 -22.3143 5.85211e-20)
(10.468 -22.2036 -4.65155e-19)
(3.78195 -6.68907 -1.35159e-19)
(10.8084 -17.0852 3.1285e-20)
(13.9899 -22.4305 4.72102e-20)
(14.1842 -22.9321 1.56399e-19)
(13.8563 -22.8017 -3.32472e-20)
(13.5901 -22.6005 -2.01827e-25)
(13.2989 -22.4487 6.56179e-20)
(13.002 -22.2815 1.4981e-20)
(12.7495 -22.1599 -1.2615e-19)
(12.4982 -22.0814 2.12544e-19)
(12.249 -21.973 -1.08257e-19)
(12.0213 -21.9179 4.14222e-19)
(11.8024 -21.8686 -3.08104e-19)
(11.5831 -21.8158 4.23913e-19)
(11.383 -21.7928 -3.58655e-19)
(11.179 -21.7677 -4.14759e-19)
(10.9925 -21.7475 4.6054e-19)
(10.8037 -21.743 -4.31201e-19)
(10.6321 -21.8022 4.30681e-19)
(10.529 -21.7086 5.9647e-19)
(4.33221 -7.11473 -1.4938e-19)
(11.8192 -17.1701 6.49004e-21)
(14.6093 -22.0123 1.07039e-19)
(14.7205 -22.2903 -1.30556e-20)
(14.2659 -22.1149 1.28124e-20)
(13.9461 -21.9309 -8.08749e-21)
(13.5985 -21.7728 0)
(13.2906 -21.6528 3.60603e-20)
(13.0002 -21.549 -1.2965e-19)
(12.6975 -21.4222 4.89824e-19)
(12.4348 -21.3676 -3.62909e-19)
(12.1895 -21.3179 -1.06523e-19)
(11.9353 -21.2689 -5.21509e-20)
(11.7146 -21.2479 0)
(11.4982 -21.2511 9.73047e-21)
(11.273 -21.2143 -5.39358e-19)
(11.0523 -21.1715 -2.40948e-20)
(10.8618 -21.217 -1.59598e-19)
(10.6911 -21.2891 5.55661e-19)
(10.5861 -21.2149 -1.48658e-19)
(4.91748 -7.30735 1.01036e-19)
(12.5318 -17.0404 -1.3937e-19)
(15.1636 -21.2888 6.40084e-20)
(15.0514 -21.4226 -3.62635e-20)
(14.6254 -21.293 -4.57098e-20)
(14.2661 -21.1524 4.73197e-20)
(13.9167 -21.0334 -4.12789e-20)
(13.5449 -20.905 -3.60555e-20)
(13.2353 -20.8147 0)
(12.9275 -20.7641 0)
(12.6215 -20.6772 4.97693e-19)
(12.3489 -20.6523 -8.91599e-19)
(12.0834 -20.6287 5.21871e-19)
(11.8203 -20.5949 0)
(11.5838 -20.6055 1.07834e-20)
(11.3517 -20.6124 7.01157e-19)
(11.1205 -20.5973 -6.93704e-19)
(10.885 -20.605 7.40015e-20)
(10.7044 -20.6922 7.36078e-19)
(10.6008 -20.6555 -4.90437e-19)
(5.44438 -7.4286 -4.29227e-20)
(13.281 -16.7883 4.26491e-20)
(15.6392 -20.4276 0)
(15.4343 -20.5687 0)
(14.9302 -20.4311 -3.85682e-20)
(14.5195 -20.3087 2.10652e-19)
(14.1142 -20.2004 2.0112e-20)
(13.7391 -20.1303 -2.06296e-19)
(13.395 -20.0716 5.21684e-19)
(13.0359 -19.9831 -1.0754e-18)
(12.7241 -19.9642 5.53209e-19)
(12.4318 -19.9391 -1.52645e-19)
(12.1366 -19.9265 -7.38622e-19)
(11.8761 -19.9315 -1.20325e-19)
(11.6196 -19.9572 4.93656e-19)
(11.3673 -19.9527 -8.13665e-20)
(11.115 -19.9476 8.01899e-19)
(10.8807 -19.994 -7.02828e-19)
(10.6849 -20.0753 1.04107e-20)
(10.5886 -20.0695 -7.40819e-19)
(5.91848 -7.44825 0)
(13.8445 -16.2975 -6.71646e-20)
(15.936 -19.5546 3.36966e-20)
(15.6281 -19.5202 0)
(15.1346 -19.4626 3.85663e-20)
(14.7106 -19.3981 -2.41548e-19)
(14.3142 -19.3341 2.93373e-19)
(13.8827 -19.262 0)
(13.5291 -19.2235 -6.36869e-19)
(13.1763 -19.2164 6.26224e-19)
(12.8205 -19.166 -9.30813e-20)
(12.5133 -19.181 8.26716e-20)
(12.2061 -19.187 8.59036e-20)
(11.9054 -19.1844 8.86309e-20)
(11.6403 -19.2401 8.79436e-19)
(11.3852 -19.2846 -1.57734e-18)
(11.1113 -19.2898 1.59849e-18)
(10.8347 -19.3082 -1.60534e-18)
(10.6236 -19.4066 7.04316e-19)
(10.525 -19.4429 -9.94734e-20)
(6.35047 -7.35872 0)
(14.3731 -15.7422 1.48163e-19)
(16.1733 -18.5014 -5.87384e-20)
(15.8379 -18.5572 -1.78478e-19)
(15.2968 -18.4747 -4.1423e-20)
(14.8097 -18.4344 -3.61869e-20)
(14.3755 -18.3888 3.07066e-19)
(13.9504 -18.3791 0)
(13.564 -18.3729 0)
(13.1658 -18.3341 0)
(12.8142 -18.3644 9.30716e-20)
(12.4834 -18.371 0)
(12.1559 -18.4005 9.78893e-19)
(11.8553 -18.4278 -8.51855e-19)
(11.5595 -18.4777 8.93442e-19)
(11.2923 -18.5221 -1.78317e-18)
(11.0162 -18.5764 8.89745e-19)
(10.73 -18.6199 1.02586e-18)
(10.4721 -18.6746 -1.80722e-18)
(10.3622 -18.6995 9.34379e-19)
(6.73672 -7.21142 0)
(14.7649 -15.0085 0)
(16.2955 -17.4195 -5.52664e-20)
(15.8439 -17.3937 -6.5846e-20)
(15.3452 -17.4035 0)
(14.8629 -17.4288 -3.86527e-19)
(14.4362 -17.4324 3.79741e-19)
(13.9685 -17.4236 0)
(13.585 -17.4499 -8.93434e-19)
(13.2015 -17.4841 8.78496e-19)
(12.8059 -17.476 0)
(12.4785 -17.5412 9.64553e-19)
(12.1388 -17.5767 -8.19109e-20)
(11.807 -17.6012 -9.65365e-19)
(11.5128 -17.6862 0)
(11.2271 -17.7436 0)
(10.9141 -17.7788 0)
(10.6105 -17.8171 9.09092e-19)
(10.3189 -17.8163 -1.01432e-18)
(10.1126 -17.8463 0)
(8.82523 -25.8913 0)
(8.32325 -25.6785 0)
(7.476 -25.7266 7.70947e-22)
(7.07425 -25.725 8.0316e-22)
(6.48964 -25.9282 0)
(5.98646 -25.9469 -2.54297e-23)
(5.5035 -26.0521 -8.62347e-22)
(5.06074 -26.1006 0)
(4.65927 -26.3546 -8.79498e-22)
(4.21569 -26.4466 0)
(3.80981 -26.5426 8.46368e-22)
(3.43881 -26.6077 4.04288e-22)
(3.04487 -26.62 -4.0644e-22)
(2.67383 -26.4831 -8.36671e-22)
(2.28267 -26.532 0)
(2.00981 -26.5052 2.10453e-22)
(1.69692 -26.6398 -8.72416e-22)
(1.48799 -25.1646 0)
(0.916216 -20.621 0)
(0.348461 -10.8747 -9.00212e-22)
(8.81332 -25.6495 -1.12809e-21)
(8.32941 -25.475 0)
(7.45867 -25.5472 -4.06965e-21)
(7.04545 -25.5555 2.51137e-21)
(6.44778 -25.7638 0)
(5.99441 -25.8114 4.65797e-21)
(5.51363 -25.9345 -1.87092e-21)
(5.01142 -25.9933 0)
(4.5779 -26.2434 -9.24381e-22)
(4.12613 -26.3324 1.81304e-21)
(3.73327 -26.4368 -2.58551e-21)
(3.36742 -26.5014 3.47201e-21)
(2.97448 -26.5113 -2.58665e-21)
(2.61366 -26.3781 8.40222e-22)
(2.24134 -26.4398 8.61842e-22)
(1.98027 -26.4094 -8.75507e-22)
(1.7037 -26.5692 1.41226e-21)
(1.4753 -25.0473 2.26523e-21)
(0.887533 -20.4256 1.15599e-21)
(0.354833 -10.6809 1.12679e-21)
(8.88964 -25.4254 -1.81392e-21)
(8.3817 -25.2597 1.90029e-21)
(7.45266 -25.3515 3.77456e-21)
(7.04377 -25.4039 0)
(6.44016 -25.6139 0)
(5.94098 -25.6549 -5.92474e-21)
(5.46075 -25.7749 3.15237e-23)
(5.01806 -25.8326 9.69131e-23)
(4.62201 -26.0993 8.18094e-23)
(4.17947 -26.2 3.87749e-21)
(3.78549 -26.3203 0)
(3.42152 -26.3893 0)
(3.02603 -26.4024 0)
(2.65717 -26.2728 3.7113e-21)
(2.27664 -26.3487 0)
(2.01536 -26.347 3.70186e-21)
(1.70974 -26.4994 -3.02206e-21)
(1.48477 -24.9534 -1.35419e-21)
(0.908999 -20.3244 -2.29389e-21)
(0.359083 -10.5369 -3.79443e-21)
(8.88876 -25.182 -5.5575e-21)
(8.38826 -25.0381 1.18817e-20)
(7.43578 -25.1574 8.63569e-24)
(7.03307 -25.2341 -7.96904e-21)
(6.39593 -25.4504 0)
(5.94142 -25.5147 -8.61384e-21)
(5.47117 -25.6551 2.17393e-20)
(4.9702 -25.7272 -1.28319e-20)
(4.54338 -25.9878 8.5199e-21)
(4.09167 -26.0862 -4.01479e-21)
(3.71056 -26.2158 -4.92504e-23)
(3.34973 -26.2838 3.85559e-21)
(2.9548 -26.295 -3.87449e-21)
(2.5934 -26.1697 -1.82499e-21)
(2.23251 -26.2606 -1.89524e-21)
(1.98424 -26.2554 -3.69964e-21)
(1.71321 -26.4303 3.78672e-21)
(1.46924 -24.842 -1.89942e-21)
(0.883318 -20.1459 9.51516e-22)
(0.362749 -10.3518 3.78857e-21)
(8.96567 -24.9372 -8.92089e-21)
(8.42447 -24.81 -3.31363e-21)
(7.45345 -24.958 8.27345e-21)
(7.0331 -25.0675 -1.31621e-20)
(6.39391 -25.2874 0)
(5.90079 -25.3641 4.73334e-21)
(5.43137 -25.4981 -4.50534e-21)
(4.98365 -25.5631 0)
(4.58835 -25.8422 2.52164e-22)
(4.1453 -25.9555 0)
(3.76195 -26.1014 8.38777e-21)
(3.40206 -26.1724 0)
(3.00373 -26.1868 0)
(2.63576 -26.0671 8.00165e-21)
(2.26693 -26.1724 -3.95985e-21)
(2.01749 -26.1937 3.97876e-21)
(1.71585 -26.3621 0)
(1.47591 -24.7552 -9.72713e-22)
(0.900354 -20.0546 9.74629e-22)
(0.365424 -10.2112 0)
(8.97821 -24.6696 -7.1634e-21)
(8.42605 -24.5743 8.10246e-21)
(7.43098 -24.7517 -2.40099e-20)
(7.02335 -24.8932 2.33116e-20)
(6.36286 -25.1253 -1.04228e-20)
(5.90314 -25.2206 -4.74807e-21)
(5.43404 -25.3779 1.01569e-20)
(4.92887 -25.4587 9.87135e-21)
(4.50989 -25.7289 -4.56549e-21)
(4.05882 -25.842 -8.97633e-21)
(3.68775 -25.9981 4.69627e-21)
(3.32984 -26.0677 0)
(2.93214 -26.0801 0)
(2.56957 -25.9661 2.98468e-22)
(2.22166 -26.088 4.11664e-21)
(1.98526 -26.1053 -3.97488e-21)
(1.71616 -26.2945 0)
(1.45863 -24.6518 8.09698e-21)
(0.877443 -19.8956 7.52961e-21)
(0.366655 -10.036 4.97998e-22)
(9.05689 -24.393 2.27314e-20)
(8.45311 -24.329 -2.44345e-20)
(7.46753 -24.5508 9.86495e-21)
(7.02894 -24.7159 0)
(6.3631 -24.9529 1.0467e-20)
(5.86635 -25.072 -2.08651e-20)
(5.4071 -25.2188 1.07477e-20)
(4.95124 -25.2924 -9.89913e-21)
(4.55682 -25.5839 0)
(4.11216 -25.7131 0)
(3.73783 -25.8852 -9.16171e-21)
(3.38004 -25.9572 9.1963e-21)
(2.97832 -25.9732 0)
(2.61057 -25.8663 -1.27128e-20)
(2.25592 -26.0029 4.278e-21)
(2.01518 -26.045 4.15866e-21)
(1.71562 -26.2277 -3.37045e-21)
(1.46264 -24.5732 -1.01152e-20)
(0.88912 -19.8127 -4.95435e-21)
(0.368167 -9.90017 -1.01514e-21)
(9.07407 -24.0974 0)
(8.45827 -24.0811 2.04029e-20)
(7.47661 -24.336 -2.04635e-20)
(7.01862 -24.533 0)
(6.34944 -24.7879 0)
(5.87402 -24.9262 2.21472e-20)
(5.39987 -25.1016 -2.22123e-20)
(4.88993 -25.1884 0)
(4.47804 -25.4678 -1.02643e-20)
(4.027 -25.5993 2.02155e-20)
(3.66363 -25.7832 -9.94587e-21)
(3.30734 -25.8534 -9.2923e-21)
(2.90665 -25.8672 9.32202e-21)
(2.54346 -25.7681 0)
(2.21038 -25.9217 0)
(1.98138 -25.9579 4.26637e-21)
(1.71311 -26.1618 -5.15914e-21)
(1.4449 -24.4788 3.56486e-23)
(0.867927 -19.674 3.10229e-21)
(0.368018 -9.73608 -1.02989e-21)
(9.14966 -23.7933 -2.00588e-20)
(8.47898 -23.8238 2.01482e-20)
(7.50032 -24.1275 3.58262e-20)
(7.02432 -24.3442 -4.72646e-20)
(6.3549 -24.6098 4.7752e-20)
(5.84004 -24.7746 -5.91455e-22)
(5.3837 -24.9367 -2.34821e-20)
(4.919 -25.0217 0)
(4.52643 -25.3247 0)
(4.07991 -25.472 -1.08515e-20)
(3.71181 -25.6714 0)
(3.35494 -25.7442 0)
(2.95004 -25.7621 0)
(2.58298 -25.671 0)
(2.24419 -25.8397 0)
(2.0071 -25.8976 0)
(1.70969 -26.0968 3.48345e-21)
(1.44683 -24.409 -4.31363e-21)
(0.873705 -19.5994 1.04522e-21)
(0.369788 -9.60628 -1.04562e-21)
(9.189 -23.4486 3.02338e-21)
(8.48916 -23.5644 3.39559e-20)
(7.54629 -23.9041 1.2736e-20)
(7.00911 -24.1584 1.27627e-20)
(6.35392 -24.4401 -1.31802e-20)
(5.84939 -24.6254 -3.82442e-20)
(5.36681 -24.8242 -1.2591e-20)
(4.85486 -24.9173 0)
(4.44782 -25.2055 1.08546e-20)
(3.99651 -25.3573 -2.30885e-20)
(3.63742 -25.5702 -1.08526e-20)
(3.28177 -25.6417 -1.04646e-20)
(2.87856 -25.6574 0)
(2.51649 -25.5765 -9.72917e-21)
(2.19897 -25.7608 -9.44461e-21)
(1.97236 -25.8147 0)
(1.70431 -26.0329 0)
(1.42867 -24.3237 0)
(0.853141 -19.4812 0)
(0.370077 -9.45391 0)