/*--------------------------------*- C++ -*----------------------------------*\
  =========                 |
  \\      /  F ield         | OpenFOAM: The Open Source CFD Toolbox
   \\    /   O peration     | Website:  https://openfoam.org
    \\  /    A nd           | Version:  9
     \\/     M anipulation  |
\*---------------------------------------------------------------------------*/
FoamFile
{
    format      ascii;
    class       volScalarField;
    location    "8.7";
    object      nut;
}
// * * * * * * * * * * * * * * * * * * * * * * * * * * * * * * * * * * * * * //

dimensions      [0 2 -1 0 0 0 0];

internalField   nonuniform List<scalar> 
46400
(
0.0182073
0.00607496
0.00173214
0.00145734
0.00138918
0.00137351
0.00130763
0.00123442
0.00117788
0.00115757
0.00112321
0.00107917
0.00102156
0.00098549
0.000951614
0.000941375
0.000866401
0.000838472
0.00111835
0.000965566
0.0177816
0.00487603
0.00129411
0.00146219
0.00136019
0.00138604
0.00132845
0.00130581
0.00124995
0.00120918
0.00116064
0.00114213
0.00110382
0.00107925
0.00103025
0.000980343
0.000915322
0.000813411
0.00102371
0.000887542
0.0173153
0.00438681
0.00128643
0.00152452
0.00138894
0.0013763
0.00131697
0.00125275
0.00119574
0.00116911
0.00112953
0.00108476
0.00103186
0.000991449
0.000973814
0.000952317
0.000903226
0.000847628
0.00114402
0.00100651
0.0167766
0.00402502
0.00132651
0.00150555
0.0013874
0.00139359
0.00134934
0.00133021
0.00127485
0.00123358
0.00118934
0.00116502
0.00113374
0.00108949
0.00104096
0.00101136
0.000957917
0.000881752
0.001138
0.00101079
0.0160795
0.004833
0.00139307
0.00153775
0.00141773
0.00139046
0.00132196
0.00126305
0.00121316
0.00118626
0.00115304
0.00110713
0.00107103
0.00104707
0.00100821
0.000973365
0.000938189
0.000887853
0.00116195
0.00103752
0.0153885
0.004544
0.00150456
0.00158609
0.00143625
0.00142366
0.00137339
0.00133837
0.00128022
0.00123242
0.00120239
0.00116812
0.00113146
0.00110567
0.00109551
0.00103816
0.000968732
0.000891926
0.00112377
0.00103188
0.0145083
0.00435104
0.00146085
0.00160686
0.00147136
0.00141973
0.00135036
0.00127982
0.00123445
0.00119102
0.00116753
0.00113731
0.00108642
0.00103635
0.00102387
0.00102903
0.000985862
0.000911236
0.00112989
0.00105165
0.0133363
0.00343415
0.00155041
0.00162268
0.00150387
0.00145265
0.00140926
0.00134802
0.00128777
0.00121256
0.00116941
0.00116281
0.00116008
0.00110546
0.00104797
0.00101657
0.000986352
0.000915778
0.00108417
0.00102276
0.0109817
0.00269946
0.00151011
0.00150405
0.00146192
0.00139081
0.00135816
0.00128631
0.00126331
0.00121023
0.00113613
0.00107572
0.0010656
0.00106101
0.00104972
0.00101232
0.000987557
0.000941047
0.00109898
0.00106899
0.0088241
0.00227208
0.00163663
0.00153727
0.00148319
0.00141802
0.00139244
0.00132602
0.00127905
0.00125683
0.00121675
0.0011291
0.00106727
0.00101519
0.00100037
0.000976271
0.00093277
0.000877226
0.000989621
0.000959845
0.00679569
0.00188859
0.00153178
0.00147086
0.00143168
0.00136121
0.00135636
0.00128185
0.00122544
0.0011698
0.00117784
0.00115001
0.00113537
0.00109282
0.00106534
0.00104431
0.00102418
0.00097106
0.0010675
0.00103419
0.00563294
0.00176362
0.00162824
0.00153257
0.00149422
0.00136608
0.00137739
0.00134991
0.00131464
0.00122049
0.00115953
0.00109528
0.00104506
0.00100193
0.000970675
0.000939729
0.000913742
0.000891405
0.000964612
0.000958974
0.00446834
0.00159588
0.00152966
0.00142243
0.00148312
0.00136702
0.00129526
0.00128677
0.00130147
0.00128301
0.00126335
0.00122467
0.00118085
0.00112361
0.00107994
0.00103741
0.000982508
0.000930834
0.000978107
0.000942904
0.00411359
0.00156355
0.00160096
0.00150592
0.00150542
0.00149621
0.00138435
0.00127189
0.00122894
0.00116126
0.00114868
0.00112139
0.00111874
0.00108815
0.00106666
0.00104566
0.00102103
0.000969943
0.00102383
0.000977153
0.00409029
0.0015766
0.00149094
0.0013269
0.00130192
0.00136977
0.00142541
0.00135938
0.0013443
0.00128392
0.00123433
0.00117427
0.00112845
0.00109333
0.00106015
0.00102749
0.00100568
0.000960952
0.00100179
0.000967484
0.0043284
0.00176354
0.00171262
0.00162362
0.00137973
0.00125328
0.00125827
0.00123635
0.00122685
0.00120952
0.00118421
0.00116958
0.00113323
0.00109554
0.00106431
0.00103181
0.00100128
0.000953471
0.000985675
0.000951742
0.00323323
0.00143688
0.00149898
0.00174959
0.0016835
0.00149927
0.00144136
0.00132129
0.00126878
0.00123427
0.0011907
0.00116522
0.00113801
0.00110718
0.00107348
0.00104178
0.00100797
0.000955503
0.000989308
0.000935457
0.00222981
0.0017159
0.00136543
0.00146891
0.00156487
0.00151797
0.00146882
0.00143911
0.00135773
0.00130027
0.00124632
0.00119544
0.00115456
0.00111617
0.00107782
0.00104726
0.00100589
0.000950706
0.000964847
0.000924081
0.00157123
0.00186792
0.00182077
0.00141927
0.00144653
0.00134913
0.00131146
0.00128273
0.00128259
0.00124547
0.0012086
0.00117648
0.00114067
0.00110484
0.00107423
0.00104433
0.00101474
0.000961854
0.000988163
0.000935437
0.0019875
0.00161724
0.00167074
0.00153038
0.0014276
0.00146556
0.001414
0.00137473
0.00132638
0.00128381
0.00123526
0.00120107
0.00116478
0.0011261
0.00109679
0.00105651
0.00103275
0.000971558
0.00100026
0.000933542
0.000151243
0.0032906
0.00856978
0.0116202
0.00878297
0.00424299
0.00129034
0.000121287
0.000242394
0.000397516
0.000388195
0.000391166
0.00041241
0.000327707
0.000324896
0.000384225
0.000353554
0.000266449
0.000222156
0.000404115
0.000427239
0.00563647
0.0106197
0.0110398
0.00624534
0.00207319
0.000151717
0.000115503
0.000316428
0.000394791
0.000421461
0.000394971
0.000316638
0.00033507
0.000386255
0.000393987
0.000275976
0.000250113
0.00029666
0.000447123
0.00192134
0.00875389
0.0118707
0.00906263
0.00404963
0.000709805
9.04343e-05
0.000272913
0.000424638
0.000464903
0.00036113
0.000367932
0.000383572
0.000370006
0.000363936
0.000349266
0.000291558
0.000302938
0.000330578
0.000485048
0.00189842
0.00997582
0.0118775
0.00707892
0.00190742
0.000126155
0.000243155
0.000390757
0.000456134
0.00038367
0.00040705
0.00043381
0.00035627
0.000359538
0.000406288
0.000385862
0.00027802
0.000296406
0.000416144
0.000551435
0.00447949
0.0113545
0.011058
0.00497734
0.00054998
3.97538e-05
0.000365542
0.000437926
0.000470746
0.000484413
0.000440315
0.000411561
0.000401719
0.000432813
0.000403655
0.000356219
0.000308807
0.000394819
0.000503212
0.00059022
0.00672945
0.0122043
0.00975892
0.0025862
0.000189544
0.000340001
0.000512576
0.000553165
0.000532215
0.000475648
0.000467563
0.00049377
0.000434459
0.000413667
0.000437387
0.000425211
0.000333058
0.000409894
0.000543773
0.000627519
0.00900732
0.0125541
0.00861288
0.00109105
0.000186738
0.000549382
0.000606418
0.000554308
0.000580384
0.000574118
0.000551525
0.000502127
0.000460077
0.000505449
0.000470559
0.000412781
0.000368698
0.000513445
0.000602646
0.000624723
0.0116604
0.0126022
0.00700675
0.000442771
0.000396686
0.000673869
0.000702859
0.000665177
0.000666161
0.000594944
0.00056107
0.000573551
0.000530983
0.000490161
0.000497986
0.000496891
0.000412967
0.000525102
0.000604678
0.000647196
0.0140417
0.0124808
0.00484773
0.000265291
0.000610897
0.000778623
0.000739014
0.000682321
0.000689328
0.000673029
0.00066223
0.000602887
0.000540146
0.000580761
0.000552161
0.00048908
0.000445377
0.000593729
0.000639123
0.000651908
0.0158706
0.0122364
0.00315041
0.000224783
0.000788541
0.000869927
0.000805942
0.000786104
0.000785968
0.000710371
0.00066204
0.000665414
0.000631517
0.000581779
0.00058585
0.000576862
0.000493223
0.000619815
0.000626065
0.000672887
0.016496
0.0118191
0.00201339
0.000335749
0.000885972
0.000917519
0.000868155
0.00080223
0.000796958
0.00077593
0.000767968
0.000705819
0.000637148
0.000663644
0.000634904
0.000569041
0.000541646
0.000668436
0.000636497
0.000684567
0.0173194
0.0114047
0.00138923
0.000551007
0.00103341
0.000989422
0.000944582
0.000899499
0.000901646
0.000824556
0.000768213
0.000766179
0.000727909
0.000675698
0.000677341
0.000642127
0.000565495
0.00066445
0.000615276
0.000703603
0.0180684
0.0109572
0.00108709
0.000774894
0.00108451
0.00102288
0.000991728
0.00091203
0.000897501
0.000883065
0.000869711
0.000811412
0.000748421
0.000754212
0.000716364
0.00065609
0.000642123
0.000720122
0.000611874
0.000722831
0.0184765
0.0105041
0.00138008
0.00090451
0.00118197
0.00108654
0.00106127
0.00100574
0.00099958
0.000928301
0.000872673
0.000865595
0.000817032
0.000773684
0.000768313
0.000700571
0.000651048
0.000704005
0.000561285
0.00071615
0.018857
0.010103
0.00184027
0.00106855
0.001229
0.00113594
0.00110064
0.00101911
0.000995935
0.000988241
0.00096573
0.000919138
0.000864401
0.000848607
0.000809471
0.000749529
0.00075596
0.000755203
0.000555634
0.000746166
0.0190112
0.00978511
0.00237836
0.00111997
0.00128335
0.00118461
0.00115392
0.00110005
0.00107928
0.00101966
0.000967785
0.000954811
0.000907597
0.000882843
0.000861551
0.000776581
0.000782984
0.000752074
0.00050334
0.000750698
0.0190934
0.0095163
0.00224406
0.00120821
0.00133921
0.00123573
0.0011949
0.00111677
0.00108239
0.00107745
0.00104679
0.0010126
0.000960942
0.000936572
0.000901453
0.00084098
0.000873403
0.000841064
0.000518294
0.000683632
0.0190106
0.00883224
0.00196183
0.00122246
0.00134309
0.00128192
0.00122676
0.00118632
0.00114846
0.00110279
0.0010514
0.00102997
0.000994685
0.000978817
0.000943725
0.000887438
0.000918308
0.00090979
0.000579521
0.000588262
0.0188354
0.00803258
0.00212903
0.00133284
0.00138488
0.00132818
0.00127515
0.00120233
0.00115834
0.00115485
0.00112844
0.00110138
0.00105476
0.00104283
0.00100674
0.00100515
0.00105248
0.00104112
0.000781211
0.000776318
0.0185476
0.00683464
0.00197869
0.00134736
0.0013584
0.00135318
0.00128781
0.00126262
0.00121418
0.00117968
0.0011358
0.00112628
0.00111126
0.00111577
0.0011022
0.00110493
0.00118221
0.00109301
0.00112837
0.00122186
0.00443982
0.00290162
0.00234855
0.00206294
0.00171341
0.00154813
0.0013007
0.00119533
0.0010986
0.000883563
0.000769937
0.000715267
0.000595108
0.000588813
0.000419039
0.000707312
0.00152796
0.00600868
0.0107369
0.0156083
0.00460379
0.00295121
0.00227345
0.00205264
0.00182422
0.00160428
0.00133719
0.00121303
0.0010791
0.000870599
0.000763347
0.000703978
0.000583909
0.000570502
0.000442203
0.00070892
0.00144419
0.00600284
0.0106438
0.0155457
0.00460739
0.00280017
0.00245909
0.00214187
0.00180952
0.00157802
0.00128241
0.00121589
0.00110133
0.000879772
0.000769041
0.000718666
0.000600233
0.000585537
0.000464655
0.000710761
0.00139742
0.00595825
0.0106761
0.0154981
0.00468989
0.00284215
0.00242233
0.00213032
0.00185601
0.0016072
0.00133275
0.00123574
0.00107474
0.000873019
0.000770315
0.000708303
0.000592621
0.00057298
0.00046184
0.000696306
0.00129515
0.00597638
0.0106496
0.0154391
0.00454666
0.00283753
0.00260619
0.00219483
0.00187337
0.00158918
0.00127777
0.0012332
0.00108726
0.000874931
0.000780501
0.000724054
0.00060697
0.000585976
0.000473603
0.000749111
0.00125332
0.00592966
0.0106644
0.0153978
0.00463811
0.00281005
0.0026019
0.00223801
0.00191191
0.00159507
0.00132929
0.0012575
0.00106699
0.000870564
0.000777312
0.000715181
0.000604053
0.000578472
0.000464947
0.000740774
0.0011308
0.00591847
0.0106576
0.0153662
0.0046016
0.00294512
0.00272372
0.00221287
0.00189873
0.00157415
0.0012817
0.00126053
0.00108177
0.000880904
0.000790603
0.000726742
0.000619851
0.000592873
0.000471592
0.000750866
0.00108722
0.00589412
0.0106593
0.0153485
0.00465831
0.00288022
0.00278332
0.00228078
0.00193069
0.00159482
0.00132982
0.00127618
0.00105417
0.000876376
0.000792571
0.000721018
0.000617356
0.000590817
0.000468163
0.000736442
0.000981131
0.00586055
0.0106743
0.0153088
0.00475198
0.00301737
0.00281113
0.0022398
0.00190057
0.00156087
0.00128906
0.00128796
0.00107428
0.000887048
0.000804074
0.000731278
0.000631923
0.000600883
0.000477128
0.000722838
0.000921086
0.00583224
0.0106747
0.015294
0.00488335
0.00293716
0.00285827
0.00228602
0.00190322
0.00158596
0.00132863
0.00129568
0.00104963
0.000889292
0.000806434
0.000728076
0.00063515
0.000602871
0.000475759
0.00070219
0.000810833
0.00579126
0.0106894
0.0152713
0.00514155
0.00308062
0.00281234
0.00220256
0.00187454
0.00155948
0.00130282
0.00130895
0.00106598
0.000900795
0.000820456
0.000737905
0.000653106
0.00061471
0.000489103
0.000684711
0.000743332
0.00576861
0.0106867
0.0152621
0.00518568
0.00308728
0.00282751
0.00222417
0.00185779
0.00158194
0.00132877
0.00130554
0.00104343
0.000904982
0.000823699
0.000738509
0.000659489
0.000620759
0.000496297
0.000667939
0.000631111
0.00570546
0.0107109
0.0152503
0.00542222
0.00315829
0.00276353
0.00217805
0.00180803
0.00155579
0.00132176
0.00131961
0.0010594
0.000916531
0.000835156
0.000747625
0.000680017
0.000634862
0.000511721
0.000647193
0.000556217
0.00567963
0.0107067
0.0152513
0.00557399
0.00317625
0.00269218
0.00216103
0.00180366
0.00158144
0.00133619
0.00130516
0.00103823
0.000922913
0.000839946
0.000751947
0.00068869
0.000648382
0.000530004
0.000634029
0.000441189
0.00561205
0.0107219
0.0152568
0.00562505
0.00321733
0.00267873
0.00218083
0.00176118
0.00155064
0.0013345
0.00131529
0.00105012
0.000932559
0.000849175
0.000761788
0.000706265
0.000661048
0.000548956
0.000620078
0.000355203
0.00558804
0.0107646
0.0152702
0.00589534
0.00325749
0.00250929
0.002121
0.00174312
0.00156182
0.00133687
0.00129336
0.00103301
0.000938429
0.000850351
0.000769876
0.000716124
0.00067979
0.00057219
0.000603695
0.000228348
0.00551284
0.0107547
0.0152963
0.00583156
0.00328819
0.00254024
0.0022027
0.00172879
0.00153866
0.00133934
0.00129639
0.00103845
0.000946594
0.000857881
0.000778747
0.000728575
0.000691192
0.000599462
0.000616017
0.00011434
0.00541815
0.0107375
0.0153127
0.0059174
0.00332296
0.00240177
0.00213991
0.00173079
0.00155192
0.00133812
0.00128384
0.00103444
0.000960111
0.000863418
0.000795612
0.00074452
0.000711139
0.000630861
0.000654302
1.45688e-05
0.00545707
0.0108074
0.0153214
0.00524581
0.00328188
0.0024317
0.00214629
0.00167009
0.00148642
0.00133733
0.00126291
0.00102946
0.000953651
0.000860173
0.000796505
0.0007465
0.00071029
0.000622715
0.000607682
1.49785e-06
0.00537312
0.0108873
0.0154594
0.00552616
0.00353141
0.00245671
0.00208654
0.00169092
0.0014834
0.00133857
0.00126419
0.00104031
0.000974005
0.000874972
0.000817484
0.000764973
0.00073705
0.00070099
0.000620467
6.51556e-05
0.00503852
0.0107135
0.0150662
0.0225762
0.0298083
0.0178799
0.021825
0.0180171
0.0167805
0.0148353
0.0136952
0.0115198
0.0106739
0.00934501
0.00869882
0.00795205
0.00744578
0.00674379
0.00692379
0.00687617
0.0506145
0.101508
0.139204
0.0266122
0.0205199
0.0194278
0.0161623
0.0148493
0.0129663
0.0112637
0.00961657
0.00857582
0.00824959
0.00741527
0.00699533
0.00642357
0.00610917
0.0057233
0.00511528
0.0139525
0.0475865
0.0998873
0.137402
0.0132978
0.0147552
0.013104
0.0116551
0.0105849
0.00932214
0.00894626
0.00852053
0.00787341
0.00736862
0.00707365
0.00671338
0.00630777
0.00611603
0.00563859
0.00534049
0.00918769
0.0464509
0.0973103
0.135454
0.0130658
0.0102112
0.00887701
0.00824896
0.00826945
0.00783141
0.0072917
0.00661609
0.0064823
0.00614846
0.00579295
0.00545733
0.00515374
0.00479043
0.00457443
0.00365006
0.0114027
0.0411321
0.0971078
0.13167
0.00538682
0.00690386
0.00683269
0.00599601
0.00605065
0.00578742
0.00583471
0.00565398
0.00526936
0.00510467
0.00494234
0.00483943
0.00468895
0.00449708
0.00437569
0.00386665
0.00573977
0.0393617
0.0968957
0.130105
0.00556168
0.00573787
0.00461272
0.00411379
0.00443484
0.00446618
0.00434674
0.00439304
0.00448005
0.00442709
0.00436456
0.00434329
0.00429578
0.00416425
0.00394798
0.00282702
0.0075066
0.0339428
0.0970218
0.129342
0.0029352
0.0032666
0.00327001
0.00314544
0.00349834
0.00376956
0.00366667
0.00372587
0.00370639
0.00378968
0.00377751
0.00381997
0.0037626
0.00389839
0.00385029
0.00342741
0.00316604
0.0301595
0.0970854
0.131376
0.00251469
0.00290834
0.00269639
0.00238291
0.00240439
0.00259946
0.00280355
0.00299296
0.00320426
0.00341459
0.00346049
0.00363084
0.00374303
0.00403049
0.0039988
0.00335218
0.00492698
0.021542
0.0965007
0.13458
0.00136274
0.00169673
0.0017454
0.00188475
0.00220324
0.00255018
0.00257162
0.00274193
0.00271537
0.00294325
0.00304034
0.00327383
0.00333532
0.00382922
0.00386731
0.00418846
0.00344689
0.0172316
0.0929452
0.147381
0.00115577
0.00136446
0.0015254
0.00156368
0.00159472
0.00174575
0.00189176
0.00220966
0.00236659
0.00261102
0.00272612
0.0029747
0.00303061
0.00364879
0.00384079
0.00399953
0.00333676
0.00898442
0.0836026
0.157125
0.000733001
0.00102051
0.00118386
0.00133413
0.00156859
0.00188323
0.00182377
0.00188176
0.00207761
0.00224057
0.00239524
0.0026221
0.0026819
0.00303971
0.00359634
0.00438786
0.00378088
0.00641223
0.0626233
0.170978
0.000842033
0.0008542
0.000844948
0.0008784
0.000821251
0.00121241
0.0014138
0.00141228
0.00155161
0.00175925
0.00195792
0.00219624
0.00244376
0.00263399
0.00303082
0.00357914
0.00463018
0.00615631
0.0464759
0.19222
0.000496804
0.000641984
0.000717092
0.000884558
0.000764164
0.000958831
0.00112394
0.00130573
0.00123695
0.00141759
0.00144945
0.00172053
0.00177152
0.00209332
0.00224772
0.00270956
0.00353026
0.00765323
0.0216364
0.143368
0.000402194
0.000402409
0.000413601
0.000419147
0.000485969
0.000592434
0.000627459
0.000839801
0.000933409
0.00116464
0.00118288
0.00145238
0.00144311
0.00180332
0.00173594
0.00223004
0.00183698
0.00456297
0.0113698
0.0968089
0.00033745
0.000382044
0.000420131
0.00047162
0.000425185
0.000475666
0.000504639
0.000611953
0.000626016
0.000715179
0.000762754
0.000854434
0.0010032
0.00108016
0.00130665
0.00145021
0.00209376
0.00279368
0.00312948
0.0597914
0.000239151
0.00025693
0.000245176
0.000306315
0.00040464
0.000404841
0.000435989
0.000495709
0.000531888
0.000595503
0.000662279
0.000767772
0.000820633
0.000938613
0.000996421
0.00109584
0.00153258
0.001725
0.00175257
0.0328519
0.000266556
0.000233462
0.000250311
0.000252932
0.000296401
0.000364232
0.00037309
0.000411029
0.00043026
0.000484603
0.000536957
0.000608191
0.000687951
0.000748555
0.000721156
0.00123898
0.00153837
0.000698491
0.00302108
0.010246
0.000351723
0.000384869
0.00043328
0.000453725
0.000458086
0.000488016
0.000475677
0.000503438
0.000497498
0.000516321
0.000560771
0.000570501
0.000646351
0.000733534
0.000808863
0.000554036
0.000821297
0.00103531
0.00213043
0.0046715
0.000394442
0.000397318
0.000441331
0.000463004
0.000464623
0.000487728
0.000486265
0.000502986
0.000506592
0.000503134
0.000505825
0.000507399
0.000493556
0.000521312
0.000416233
0.000544202
0.000586684
0.000630969
0.000904898
0.00179946
0.000365617
0.000365721
0.000384781
0.000383192
0.000404168
0.000405157
0.00044024
0.000430052
0.000478115
0.000460839
0.000503609
0.000504245
0.000494763
0.000502314
0.000460351
0.000377175
0.000330271
0.000296144
0.000270499
0.000595394
0.0140457
0.014049
0.0139019
0.0139199
0.0137285
0.0136912
0.0135517
0.0132995
0.013621
0.0126959
0.0128742
0.0128026
0.0112637
0.011049
0.0106187
0.0112714
0.0102385
0.00917339
0.00906324
0.0102242
0.00692685
0.00690941
0.00684414
0.00682616
0.00677553
0.0067437
0.00655905
0.00659821
0.00633365
0.00638297
0.00635886
0.00643227
0.00622317
0.00667894
0.00794867
0.0070498
0.00608942
0.00690656
0.00641902
0.00729702
0.00412648
0.00410302
0.00409909
0.0041265
0.00418198
0.00424553
0.00426596
0.00433866
0.00434641
0.00442147
0.00439561
0.00472265
0.00434299
0.0039369
0.00334645
0.00384331
0.00383592
0.00407899
0.00368062
0.00355208
0.00262225
0.00261241
0.00258882
0.0025685
0.00253453
0.00248237
0.00243969
0.00242478
0.00232531
0.0022823
0.00225478
0.00221526
0.00236016
0.00262361
0.00251728
0.0024923
0.00226172
0.00246863
0.00214223
0.00268779
0.00156265
0.00156391
0.00155931
0.00156271
0.00155573
0.00156852
0.0015652
0.00158319
0.00168426
0.00178173
0.00169346
0.00174539
0.00161906
0.00151368
0.00141865
0.00159306
0.001795
0.00191848
0.00162503
0.00149518
0.00110539
0.00110241
0.00109952
0.00109691
0.00109246
0.00109471
0.00108482
0.00108725
0.00107397
0.00100373
0.000978835
0.000986931
0.000989987
0.00103191
0.0010248
0.000992958
0.000875084
0.00100574
0.00106042
0.00109089
0.0006433
0.000639884
0.000639454
0.000636074
0.000636269
0.000634149
0.000636872
0.000633605
0.000643954
0.000649749
0.00064546
0.000651182
0.000629982
0.000669432
0.000700904
0.000758355
0.000739263
0.000643417
0.000570131
0.0006541
0.000452917
0.000449666
0.000444382
0.000442643
0.000439167
0.000438701
0.000438398
0.000440145
0.000449778
0.000450045
0.000451725
0.000473103
0.00046687
0.000429998
0.000416482
0.000451897
0.000490561
0.000623713
0.000525341
0.000473153
0.000235039
0.000233156
0.000231933
0.000236086
0.000231273
0.000232493
0.000233016
0.000238605
0.000244783
0.000254469
0.000255148
0.000283404
0.00031043
0.000329096
0.000352346
0.000357513
0.000268797
0.000242982
0.000242187
0.000281701
0.000127168
0.000124611
0.000126315
0.000127621
0.000130639
0.000133971
0.000139141
0.00014761
0.000152451
0.00015589
0.000155931
0.000162537
0.000156218
0.000147631
0.000116092
0.000185692
0.000274426
0.000202328
0.000187808
0.000259032
2.22259e-05
3.28956e-05
4.71164e-05
5.85752e-05
6.96827e-05
7.60581e-05
8.56207e-05
9.23405e-05
9.85621e-05
0.000120948
0.000136033
0.0001407
0.000159978
0.000163265
0.000188424
0.00014282
3.18103e-05
0.000119638
0.000130412
0.000190103
6.44672e-05
7.5242e-05
8.25196e-05
9.05288e-05
9.78914e-05
0.000107637
0.000109289
0.000119876
0.000108048
9.98213e-05
0.000105238
0.000102832
8.47333e-05
0.000108457
0.000142077
0.000197458
0.00021479
0.000162634
0.000149099
0.00018567
6.42626e-05
6.70218e-05
6.74344e-05
6.76191e-05
6.71008e-05
6.60486e-05
6.25122e-05
6.22269e-05
8.22524e-05
9.27977e-05
9.01725e-05
9.53987e-05
0.000108174
8.35372e-05
5.20487e-05
8.50675e-05
8.22007e-05
0.000100473
9.46817e-05
0.000109776
4.48164e-05
4.31875e-05
4.26211e-05
4.24302e-05
4.01686e-05
4.05636e-05
4.52622e-05
4.99036e-05
4.7893e-05
5.14434e-05
5.39097e-05
6.0128e-05
6.16826e-05
6.65577e-05
6.89678e-05
6.96978e-05
7.425e-05
8.00711e-05
9.22976e-05
9.35476e-05
5.52282e-05
5.53751e-05
5.36597e-05
4.91275e-05
4.01469e-05
4.00463e-05
4.25678e-05
4.49949e-05
4.86187e-05
5.11526e-05
5.38482e-05
5.74999e-05
5.91157e-05
6.21039e-05
6.47779e-05
6.92671e-05
6.69303e-05
6.4117e-05
5.437e-05
7.93812e-05
7.60202e-05
5.92698e-05
4.7478e-05
4.66893e-05
4.57418e-05
4.46754e-05
4.15965e-05
4.50131e-05
4.67318e-05
4.66888e-05
4.73306e-05
4.40731e-05
4.52546e-05
4.0395e-05
4.50157e-05
4.04949e-05
4.76141e-05
4.06929e-05
4.81676e-05
5.94597e-05
8.02214e-05
8.03058e-05
8.08751e-05
8.06426e-05
8.0094e-05
7.91584e-05
7.90111e-05
7.79288e-05
7.63496e-05
7.4958e-05
7.41889e-05
7.31387e-05
7.22188e-05
7.10069e-05
7.3259e-05
7.46182e-05
7.36613e-05
7.25806e-05
7.3997e-05
6.8314e-05
7.79594e-05
7.82079e-05
7.8243e-05
7.81768e-05
7.83416e-05
7.84969e-05
7.8545e-05
7.88063e-05
7.94206e-05
7.97699e-05
8.04371e-05
8.09798e-05
8.22352e-05
8.25893e-05
8.05224e-05
7.98666e-05
8.33773e-05
7.89773e-05
7.94776e-05
8.14453e-05
9.28494e-05
9.31931e-05
9.2874e-05
9.26904e-05
9.29587e-05
9.37923e-05
9.47957e-05
9.54701e-05
9.53994e-05
9.51312e-05
9.44789e-05
9.34456e-05
9.23945e-05
9.13303e-05
9.12222e-05
8.73927e-05
8.72265e-05
8.9469e-05
9.24539e-05
9.43393e-05
6.78952e-05
6.8795e-05
6.95762e-05
6.99887e-05
7.0093e-05
7.01901e-05
7.0738e-05
7.21184e-05
7.37545e-05
7.51379e-05
7.65222e-05
7.78627e-05
7.9173e-05
8.02664e-05
8.17811e-05
8.3519e-05
8.46873e-05
8.53316e-05
8.70329e-05
8.71471e-05
0.00113488
0.00150101
0.00114558
0.00116566
0.00125821
0.00125915
0.00127107
0.00131078
0.00135656
0.00139065
0.00145198
0.0014937
0.00156008
0.0015887
0.00167408
0.00169964
0.00174748
0.00214697
0.00761986
0.0223487
0.00117162
0.0013515
0.00100006
0.00107387
0.00116604
0.00120026
0.00123828
0.00128549
0.00133799
0.0013866
0.0014367
0.00147561
0.00155636
0.0015854
0.00167866
0.00165674
0.001732
0.00155525
0.00626806
0.0218504
0.00114145
0.00141238
0.00105724
0.00108549
0.00120068
0.0012177
0.00124341
0.00129529
0.00132895
0.00137067
0.00142746
0.00146492
0.00153425
0.00156518
0.00165524
0.00165307
0.00179137
0.00149124
0.00556555
0.0212813
0.00118287
0.00139423
0.00102879
0.00107549
0.00116014
0.00119136
0.00122936
0.00128131
0.0013305
0.00137843
0.00141878
0.00146974
0.00153449
0.00156331
0.00165318
0.00161472
0.00176164
0.0014926
0.00466226
0.0206837
0.00120353
0.0014236
0.00107163
0.00112613
0.00121161
0.00121952
0.00124914
0.00128744
0.00131513
0.00136159
0.00140922
0.00145481
0.0015182
0.00155495
0.00163043
0.00163313
0.00180792
0.00154187
0.00519519
0.0199541
0.00121872
0.00140933
0.00106522
0.00110695
0.00116356
0.00118852
0.00122326
0.00127457
0.00131784
0.00135579
0.00140384
0.0014594
0.00151701
0.00156224
0.00164323
0.001636
0.00181495
0.00161299
0.00557125
0.0191983
0.00121879
0.00140209
0.001079
0.00112838
0.00120486
0.00123261
0.00125991
0.00128715
0.00131546
0.00137099
0.0014152
0.00146677
0.00151665
0.00155997
0.00163257
0.00165887
0.00182469
0.00162132
0.00553313
0.018443
0.00124917
0.00138306
0.0010682
0.00113042
0.00118031
0.00118455
0.00120494
0.0012548
0.0012988
0.00134266
0.00138779
0.0014368
0.00148673
0.00155147
0.00160685
0.00164055
0.00180543
0.00166464
0.0049237
0.017288
0.00118397
0.00129499
0.00103172
0.00109978
0.00114743
0.00118142
0.00123433
0.00128069
0.00131577
0.00135643
0.00138524
0.00144199
0.00148712
0.00155054
0.00160519
0.00166077
0.00176216
0.00166738
0.00387229
0.0157598
0.0011776
0.00126926
0.00105876
0.00111759
0.00117059
0.00119254
0.00121883
0.00124609
0.00126479
0.00130788
0.00135344
0.00141094
0.00145861
0.00151912
0.00155466
0.00163917
0.00171664
0.00168862
0.00312267
0.0131262
0.00111569
0.00118396
0.00101224
0.00106569
0.00110676
0.00114114
0.00117002
0.00121539
0.00126688
0.00132398
0.00136494
0.00142773
0.00146563
0.00152222
0.00156198
0.00160732
0.00166955
0.00171239
0.00260779
0.0106325
0.00111734
0.00117871
0.00103935
0.00108464
0.00112737
0.00115553
0.00119712
0.00124178
0.00127408
0.00131473
0.00135382
0.00140081
0.0014359
0.00149329
0.00153093
0.00161781
0.00160981
0.0016612
0.00218652
0.00875788
0.00107141
0.00112091
0.00101833
0.00105454
0.00109944
0.00113431
0.00116227
0.00119911
0.00123419
0.00128829
0.00133298
0.00139153
0.00141504
0.001499
0.00150663
0.0015888
0.00161851
0.00165799
0.00196561
0.00721923
0.00106788
0.00110335
0.00101562
0.00105813
0.00111079
0.00114416
0.00118711
0.00122322
0.00126125
0.00131309
0.00132441
0.00136619
0.00140054
0.00144867
0.00145299
0.00155106
0.00154082
0.00167057
0.00183775
0.00614009
0.00104436
0.00107635
0.0010289
0.00106635
0.00110528
0.0011215
0.00114126
0.00117212
0.00121365
0.00124023
0.0012606
0.00132302
0.00133865
0.00139382
0.0014341
0.00158017
0.00157095
0.00169456
0.00182473
0.00537104
0.00101304
0.00105844
0.00101827
0.00104746
0.00108328
0.00109872
0.0011405
0.00117155
0.001208
0.00123123
0.00129136
0.00135839
0.00139169
0.00148016
0.00154072
0.00158555
0.00150271
0.00165959
0.00174612
0.00479695
0.00100167
0.00105033
0.00100387
0.00103791
0.00107801
0.00110612
0.00115423
0.00118282
0.00121942
0.00125894
0.00131096
0.00132614
0.00136596
0.00143215
0.00144536
0.00147445
0.00151772
0.00171174
0.0017288
0.00445981
0.000980281
0.00102136
0.000995289
0.00104136
0.00107461
0.00110399
0.00112783
0.00115449
0.00119569
0.00123906
0.0012741
0.00130383
0.00136106
0.00138239
0.0014164
0.00150212
0.0017228
0.00174977
0.00160006
0.00390279
0.000966572
0.00101546
0.000987893
0.00103078
0.00106395
0.00109256
0.0011217
0.00116784
0.00119599
0.00123091
0.00126448
0.00130318
0.00136975
0.00140748
0.00148687
0.00157488
0.0015922
0.00150857
0.00154723
0.00382889
0.000944504
0.000976421
0.000963731
0.00102076
0.00105037
0.00108902
0.0011186
0.00116264
0.00118647
0.00124645
0.00128734
0.00132659
0.00139601
0.00142136
0.00149098
0.00143766
0.00147757
0.00145513
0.00175625
0.00319286
0.00113732
0.0012467
0.00134934
0.00140391
0.00139592
0.00129349
0.00127538
0.00124557
0.00126947
0.00131419
0.00132393
0.0013609
0.00141892
0.00145402
0.00148153
0.000948804
0.000716844
0.0090697
0.0160437
0.0192421
0.00112723
0.00124583
0.00135963
0.00140299
0.0013965
0.00129965
0.00125768
0.00125685
0.00127184
0.00128026
0.00132334
0.00136826
0.00138414
0.00147378
0.00157237
0.00129222
0.000775527
0.00702448
0.0161193
0.019743
0.00113138
0.00123138
0.00137694
0.00142169
0.00142797
0.00132667
0.0013021
0.00126895
0.00127879
0.00130975
0.00133546
0.00139482
0.0014445
0.00146767
0.00153611
0.00141761
0.000562485
0.00566537
0.0160309
0.0207556
0.00112624
0.00122356
0.00136278
0.00139844
0.00139592
0.00129791
0.00126092
0.00126515
0.00129073
0.00131824
0.00135097
0.00138841
0.00142084
0.00151006
0.00160854
0.00149326
0.000451756
0.00413559
0.0158853
0.0214443
0.00113959
0.00123531
0.00141758
0.00143988
0.00143293
0.00133182
0.00130762
0.0012824
0.0012909
0.00130797
0.0013516
0.00142123
0.00145101
0.00149573
0.00156841
0.00156518
0.000508559
0.00329614
0.0156127
0.0220174
0.00111332
0.00117765
0.00137828
0.00139966
0.00139615
0.00129881
0.0012643
0.00126386
0.00129228
0.00133343
0.00136146
0.0014042
0.00145253
0.00153195
0.00160999
0.00159307
0.000742248
0.00225392
0.0154326
0.0226652
0.00111656
0.00120187
0.00143176
0.00143477
0.00140336
0.00131061
0.00129349
0.00128579
0.00130753
0.00131967
0.00137172
0.0014318
0.00144764
0.0015206
0.00158955
0.00164116
0.000864882
0.00176219
0.0150608
0.0230713
0.00108995
0.00115429
0.00139797
0.00139717
0.00137035
0.00128187
0.00125839
0.00125747
0.00128461
0.00132465
0.00136166
0.00142063
0.00147143
0.0015413
0.00160231
0.00164799
0.00106762
0.00123094
0.0148202
0.0236659
0.00111926
0.0011934
0.00144472
0.00141724
0.00136431
0.00129027
0.00128059
0.00128346
0.0013199
0.00133996
0.00139044
0.00142899
0.00145065
0.00154949
0.00161185
0.00168769
0.00116209
0.00131751
0.0143721
0.0239262
0.00107725
0.00112515
0.00140655
0.00137732
0.001321
0.00124998
0.00124302
0.00125807
0.0012898
0.00131546
0.00136728
0.00143709
0.00147876
0.00154669
0.00159713
0.00167086
0.00129164
0.00115178
0.0140764
0.0243031
0.00110153
0.00116262
0.00143992
0.00138187
0.00131074
0.00126261
0.00127172
0.00127749
0.00131437
0.00134835
0.00139743
0.00142119
0.00146846
0.00157591
0.00161819
0.00174159
0.00138241
0.00184724
0.0135851
0.0244508
0.00107966
0.00109396
0.00139262
0.0013335
0.00125978
0.0012246
0.00123581
0.00126841