/*--------------------------------*- C++ -*----------------------------------*\
  =========                 |
  \\      /  F ield         | OpenFOAM: The Open Source CFD Toolbox
   \\    /   O peration     | Website:  https://openfoam.org
    \\  /    A nd           | Version:  9
     \\/     M anipulation  |
\*---------------------------------------------------------------------------*/
FoamFile
{
    format      ascii;
    class       volScalarField;
    location    "6.07";
    object      nut;
}
// * * * * * * * * * * * * * * * * * * * * * * * * * * * * * * * * * * * * * //

dimensions      [0 2 -1 0 0 0 0];

internalField   nonuniform List<scalar> 
46400
(
0.0207833
0.00502042
0.00138231
0.00164281
0.00148475
0.00154999
0.00145071
0.00142927
0.00136632
0.00132275
0.00128943
0.00122235
0.00120309
0.00119181
0.00114972
0.00114676
0.00108357
0.00106807
0.00145932
0.00109269
0.0202737
0.00460933
0.00132302
0.00166354
0.00154639
0.00154996
0.00147198
0.00144924
0.00137744
0.00131651
0.00127445
0.00122999
0.00116976
0.00112113
0.00108795
0.00105408
0.000959501
0.000882101
0.00120254
0.00105874
0.0196762
0.00435625
0.00140916
0.00171492
0.00149948
0.0015419
0.00145787
0.00142774
0.00137307
0.00132654
0.00128534
0.00123178
0.0011995
0.00116715
0.00112119
0.00109266
0.00100395
0.000965384
0.00130848
0.00105415
0.0190164
0.00535283
0.00143181
0.00171291
0.00156617
0.00155835
0.00147305
0.00143828
0.00138074
0.00131566
0.0012734
0.00122511
0.00117545
0.00112526
0.0010976
0.00107422
0.00098767
0.000941376
0.00130122
0.00112643
0.0184639
0.00552613
0.00153238
0.00175734
0.00155074
0.00153995
0.00147978
0.00141925
0.00137352
0.00132517
0.00127888
0.00123425
0.00119252
0.00115888
0.00110682
0.00108513
0.00101558
0.000955946
0.00129433
0.0010963
0.0174891
0.00505335
0.00156158
0.00172289
0.00158798
0.00155239
0.0014717
0.00142746
0.00136152
0.00131136
0.00127031
0.00122301
0.00118983
0.00114248
0.00112095
0.00108316
0.0010261
0.000979323
0.00129699
0.00114226
0.0162169
0.0043205
0.00152637
0.00172843
0.0015747
0.00152085
0.0014736
0.00140706
0.00136104
0.00128366
0.00125623
0.00119948
0.0011735
0.00113942
0.00111153
0.00108461
0.0010208
0.000971703
0.00127457
0.00112993
0.0132946
0.00318211
0.00159911
0.0015938
0.00156583
0.00151763
0.0014732
0.00142575
0.00138901
0.00132456
0.00127137
0.00122747
0.00117111
0.00113509
0.00111039
0.00109872
0.00103419
0.000958441
0.00125724
0.00114221
0.0108426
0.00260496
0.00158601
0.00158299
0.00152579
0.00145725
0.0014298
0.00137548
0.00135488
0.00130818
0.0012672
0.00123319
0.00119807
0.00114977
0.00111941
0.00110221
0.00107017
0.000979953
0.00121287
0.00113024
0.00879952
0.00222092
0.00167513
0.00155865
0.00151302
0.00144412
0.00140284
0.00133827
0.0013212
0.00129236
0.00126596
0.00122889
0.00120889
0.00115967
0.00112348
0.00109725
0.00106063
0.00101844
0.00122055
0.00113192
0.00710284
0.00188495
0.00162631
0.00156191
0.00150563
0.00142283
0.0014065
0.001324
0.00126723
0.00121726
0.0011854
0.00115399
0.00114349
0.00113161
0.00109684
0.00107112
0.00102481
0.000972746
0.00115326
0.00111325
0.00593993
0.00171331
0.00161999
0.00160386
0.00156959
0.00144941
0.0014486
0.00138401
0.00135164
0.00127418
0.00122849
0.00116557
0.00112033
0.00109859
0.00107989
0.00106533
0.00101941
0.00096509
0.00108885
0.00104622
0.005151
0.00166148
0.00154447
0.00147726
0.00156924
0.00141485
0.00136182
0.00130828
0.0012968
0.00126669
0.00123128
0.00120004
0.00114786
0.00110522
0.00106815
0.00105173
0.00102407
0.000985938
0.00109569
0.00105601
0.00477948
0.00167751
0.00155489
0.00143369
0.00150375
0.001495
0.00146911
0.00136215
0.00130034
0.00124689
0.001204
0.00116319
0.00112863
0.00109309
0.00105386
0.0010242
0.000986346
0.000950404
0.00103416
0.00101425
0.00474329
0.00174822
0.00165033
0.00139554
0.00132744
0.00132373
0.00135858
0.00135989
0.00131103
0.00127708
0.00122938
0.0011922
0.00115302
0.00111574
0.00108554
0.00105133
0.00101761
0.000969039
0.00103756
0.000989751
0.00463003
0.00168674
0.00172802
0.00169325
0.0015068
0.00136965
0.00130703
0.00129643
0.00125508
0.00123907
0.00119767
0.00116821
0.00112835
0.00109161
0.00105935
0.00102531
0.000995392
0.000944193
0.00101285
0.000958572
0.00392991
0.00148381
0.00142483
0.00150139
0.00147288
0.00145103
0.0013941
0.00133253
0.00130413
0.00126518
0.00125207
0.00120122
0.00118426
0.00114149
0.0011147
0.00107957
0.00104561
0.000983547
0.0010366
0.000957116
0.00372175
0.00193441
0.0015693
0.00149472
0.00148923
0.0014816
0.0013871
0.00131138
0.00126065
0.00122347
0.00117978
0.00113388
0.00109247
0.00106069
0.00102295
0.00100552
0.000974987
0.000927755
0.000977296
0.000929227
0.00228896
0.001426
0.00159828
0.00162729
0.00155363
0.0015629
0.00144693
0.00140853
0.00136443
0.00128792
0.00121862
0.00117144
0.00112938
0.00110418
0.0010659
0.00104843
0.00100825
0.000956407
0.000977492
0.000929286
0.00149029
0.00163804
0.00163698
0.00153715
0.00146287
0.00142378
0.00137821
0.00138144
0.00131459
0.00125837
0.00120439
0.00117582
0.00115408
0.00111457
0.00109094
0.00105438
0.00102065
0.000978805
0.000983555
0.000960773
0.013358
0.0142197
0.00994081
0.000908939
0.00051729
0.00100714
0.00110588
0.00106808
0.000983869
0.000933096
0.000946966
0.000906015
0.000892646
0.000917433
0.000944996
0.00102449
0.00105825
0.00110249
0.00107495
0.000923864
0.0155411
0.0144912
0.00896035
0.000189916
0.000629714
0.00113032
0.00115177
0.00102576
0.00103494
0.0010198
0.000930751
0.00094548
0.000956854
0.00093806
0.000940189
0.00103066
0.00110521
0.00114719
0.00107342
0.000921142
0.0169331
0.0145509
0.00701556
0.000528178
0.000898238
0.00118121
0.00118445
0.001136
0.00106047
0.000992271
0.00100328
0.00098799
0.00093596
0.000944714
0.000996115
0.00110811
0.00114136
0.001162
0.00107042
0.000923786
0.0184336
0.014406
0.00539198
0.000463078
0.00108273
0.00127796
0.00119372
0.00111027
0.0010832
0.00106347
0.00099342
0.000977253
0.00100195
0.000996362
0.0010132
0.00109389
0.00113272
0.00118176
0.00105698
0.000907074
0.0192185
0.0142536
0.00352938
0.000313033
0.00119548
0.00129712
0.00123044
0.00116926
0.00111812
0.0010566
0.00103904
0.00104912
0.000996985
0.000985097
0.00103205
0.00114522
0.00118605
0.00119851
0.00103682
0.000909003
0.0198853
0.0139325
0.00280524
0.000356057
0.00126444
0.00133268
0.00125722
0.00118947
0.00114276
0.00110216
0.00106384
0.00103197
0.00103639
0.00103459
0.00106722
0.00114805
0.00116199
0.00120353
0.00102281
0.000898678
0.0207277
0.0137978
0.00160131
0.000681976
0.00137198
0.00136562
0.00130202
0.0012006
0.00116068
0.00111669
0.00106451
0.00108172
0.00105063
0.00102208
0.00105218
0.00114203
0.00118926
0.00120958
0.000986956
0.000886396
0.0211266
0.0132995
0.00136193
0.000731852
0.00136684
0.00136072
0.00131733
0.00125137
0.00120074
0.00114217
0.00112283
0.00109424
0.00106877
0.00105633
0.00108489
0.00115656
0.00116834
0.00120204
0.00098376
0.000892439
0.021829
0.0131383
0.000873781
0.00104146
0.00147288
0.00140641
0.00135648
0.00123908
0.0011931
0.00116698
0.00109202
0.00109855
0.00108991
0.00104858
0.00105954
0.00111992
0.00117242
0.00121425
0.00096598
0.000888982
0.0220611
0.0125824
0.00159953
0.00104675
0.00144275
0.00139257
0.00137948
0.00130154
0.00124305
0.00117692
0.00115894
0.00114158
0.0010983
0.00107125
0.0010786
0.00112891
0.00115592
0.00119563
0.000943829
0.000896995
0.0224447
0.0123454
0.000996691
0.00122977
0.00152239
0.00142937
0.00138655
0.00128709
0.00123211
0.00121135
0.00112636
0.00111365
0.00111563
0.00106849
0.00106007
0.00108225
0.00113528
0.00120582
0.00094364
0.000896853
0.0225966
0.0118849
0.00202265
0.00128447
0.00152027
0.00141959
0.00142283
0.00133243
0.0012636
0.00120495
0.00117565
0.00116761
0.00112397
0.00108329
0.00107089
0.00108907
0.00112377
0.00118245
0.000914217
0.000907364
0.0226806
0.0116084
0.00200734
0.00129111
0.00156805
0.00144743
0.00141226
0.00134353
0.00127946
0.00125386
0.00116742
0.00113442
0.00113858
0.00109616
0.0010693
0.0010569
0.00109773
0.00118759
0.000923351
0.000920329
0.0227691
0.0114596
0.00220785
0.0014159
0.00157197
0.00146233
0.00144069
0.00135865
0.0012779
0.00123676
0.00119182
0.00118239
0.00114515
0.00109563
0.00107493
0.00106045
0.00108754
0.00115253
0.00088341
0.000926334
0.022619
0.011069
0.00216096
0.00132478
0.00156971
0.00146561
0.00143473
0.0013878
0.0013218
0.00128901
0.0012112
0.00116027
0.00116361
0.00113032
0.00109016
0.001057
0.00107527
0.00115953
0.000891901
0.00094993
0.0225427
0.0108337
0.00208603
0.00149549
0.00160137
0.00150547
0.0014452
0.00138879
0.00129623
0.00127335
0.00121845
0.00119899
0.00116774
0.00112082
0.00109879
0.00106656
0.00107532
0.00111467
0.000840922
0.000952055
0.0222442
0.00914788
0.00171958
0.00141241
0.00153584
0.00149871
0.00145464
0.00141859
0.00135052
0.00131486
0.0012538
0.0011867
0.00118335
0.00115738
0.00111123
0.00107361
0.00107259
0.00111517
0.000827549
0.000979479
0.0219919
0.00898348
0.00238293
0.00157886
0.00161531
0.00153271
0.00145225
0.00142386
0.00132605
0.00130475
0.00125652
0.00122718
0.00119723
0.00115517
0.00112632
0.00109371
0.00108629
0.00107758
0.000756042
0.000963846
0.0216244
0.00707004
0.00148528
0.00151924
0.00151277
0.0015425
0.00146311
0.00143654
0.00136746
0.001329
0.00128554
0.0012143
0.0012068
0.00119385
0.00114475
0.00111658
0.00111635
0.00112169
0.000759879
0.000947665
0.0212009
0.00677817
0.00184373
0.00164146
0.00158893
0.00155407
0.00146963
0.00145411
0.00136635
0.00132944
0.00129175
0.00125771
0.00122468
0.00119477
0.00117361
0.00117829
0.00115867
0.001149
0.000874115
0.000976459
0.00619163
0.00419484
0.00334886
0.00234269
0.00205019
0.00174693
0.00149045
0.00118991
0.000981748
0.000774679
0.000613157
0.000497877
0.000269246
0.00021436
0.00036313
0.000550183
0.00114781
0.00591524
0.00996667
0.0147729
0.00621397
0.00413646
0.00331033
0.00240975
0.00210854
0.00179362
0.00151904
0.00121081
0.00100521
0.000782744
0.000616791
0.000498727
0.000317809
0.000261508
0.000358116
0.000558225
0.00118095
0.00596849
0.00995234
0.0147345
0.00625156
0.00421818
0.00347485
0.00237301
0.00204882
0.00172049
0.00148541
0.00117222
0.000981365
0.000767313
0.000599147
0.000495092
0.000312453
0.000283387
0.000343563
0.000566026
0.0012049
0.00593863
0.00995538
0.0147485
0.00624009
0.00404621
0.00333831
0.0023479
0.00209007
0.00175283
0.00150848
0.00119923
0.000995731
0.00078096
0.000604769
0.000491452
0.00031145
0.000302293
0.000331885
0.000567696
0.00121686
0.00583278
0.00994285
0.0147131
0.00562358
0.00416183
0.00344951
0.00230846
0.00203646
0.00170762
0.00148798
0.00117114
0.000965745
0.000763815
0.000589286
0.000484526
0.000296561
0.000290606
0.000312899
0.000556324
0.00118396
0.00576567
0.00993265
0.0146917
0.00585794
0.00409769
0.00338233
0.00231955
0.00203632
0.00170699
0.00149792
0.00119714
0.000974298
0.000787263
0.000596385
0.000487974
0.000301535
0.000304679
0.000296176
0.000548106
0.00113269
0.00575084
0.00991887
0.0146462
0.0063902
0.00405603
0.00336246
0.00228947
0.00201039
0.00168228
0.0014689
0.00117733
0.000947605
0.000774547
0.000587379
0.000488311
0.000289318
0.000291591
0.000274166
0.00053721
0.00113832
0.00574601
0.0098943
0.0144496
0.00639917
0.00413532
0.00336801
0.00229504
0.00199948
0.0016988
0.00148099
0.00120292
0.000952224
0.000800005
0.000598472
0.000497044
0.000294814
0.000296878
0.000251624
0.000508641
0.00114173
0.00573767
0.00984509
0.0143196
0.00635295
0.00405919
0.00336933
0.00227997
0.00200317
0.00166586
0.00144217
0.00118543
0.00092635
0.000785184
0.000593762
0.000498655
0.00028101
0.00023527
0.000235939
0.000473031
0.00112398
0.00571892
0.00984178
0.0142828
0.00647549
0.00411688
0.00337898
0.00227004
0.00202787
0.00171766
0.00145934
0.00120612
0.000934929
0.000806214
0.000601056
0.000503085
0.000287651
0.00021084
0.000222878
0.000427658
0.00111638
0.00569268
0.00986095
0.0142491
0.00639041
0.00408248
0.00339725
0.00228215
0.00201212
0.00169631
0.0014345
0.00119342
0.00091382
0.00079165
0.000596965
0.000506464
0.000281734
0.000179923
0.000199076
0.000402561
0.00108257
0.00565873
0.00987432
0.0142245
0.00649257
0.00405456
0.00336433
0.00221725
0.00200454
0.00174161
0.00143845
0.00120569
0.000921706
0.000814833
0.000609487
0.000515795
0.000292252
0.000195762
0.000173619
0.000367727
0.00103149
0.00558834
0.00989694
0.0141954
0.00650929
0.00401092
0.00336782
0.00227077
0.00199974
0.00175359
0.0014333
0.00120299
0.000904046
0.000800126
0.000611463
0.000520687
0.000286372
0.000253667
0.000150831
0.000321802
0.000965001
0.00555721
0.00993128
0.0141726
0.00652824
0.00394091
0.00329419
0.00220813
0.00197487
0.0017578
0.00143174
0.00121291
0.000913205
0.000821765
0.000624589
0.000533018
0.000329345
0.000321449
9.12468e-05
0.000288931
0.000892846
0.00553935
0.00997053
0.0141459
0.00663076
0.00385684
0.0032574
0.00226358
0.00198174
0.00177128
0.00141786
0.00122035
0.000904303
0.000809363
0.000629813
0.000551103
0.000343794
0.000345038
6.06091e-05
0.000249092
0.000811341
0.00549692
0.0100099
0.0141422
0.00662991
0.00379239
0.00318189
0.00221688
0.00195031
0.00176987
0.0014065
0.00122674
0.000919967
0.000826623
0.000636247
0.000558987
0.000364681
0.00036542
5.56999e-05
0.000228478
0.00072016
0.00545301
0.0100436
0.0141275
0.00682846
0.00369511
0.00311528
0.00226485
0.00194577
0.0017624
0.00138701
0.00123028
0.000918817
0.000820776
0.000643906
0.000566441
0.000378693
0.000383064
5.97732e-05
0.000198792
0.000621245
0.00540135
0.0100688
0.0140892
0.0067791
0.00364357
0.00307067
0.00226459
0.0019438
0.00176838
0.00138156
0.00124704
0.000950746
0.000843203
0.000656635
0.000584062
0.000399183
0.000404301
6.9919e-05
0.000184297
0.000520553
0.00542566
0.0100934
0.0141796
0.00678493
0.00362013
0.00294969
0.00228221
0.00190281
0.00173529
0.00136454
0.00123199
0.000959531
0.000839074
0.000662325
0.000587182
0.000415172
0.000416265
0.000100329
0.000155645
0.000392871
0.00540291
0.0101211
0.0142365
0.00723169
0.00372981
0.00294213
0.00232352
0.00190482
0.00168224
0.00132146
0.00118461
0.000960102
0.000830836
0.000661067
0.000586919
0.000428485
0.00043447
0.000118491
0.000141389
0.000285879
0.00514801
0.0100292
0.0141052
0.0150438
0.038126
0.0290776
0.0256759
0.0213174
0.0191098
0.0149691
0.0128429
0.0105214
0.00894922
0.00717338
0.00655855
0.00506371
0.00517778
0.0028647
0.0022077
0.000303423
0.0498744
0.0953558
0.129997
0.0319316
0.0233331
0.0201316
0.0180122
0.0153268
0.0129629
0.0102406
0.00886185
0.00767301
0.00635673
0.00535788
0.00459209
0.00433425
0.00394787
0.00344394
0.00293217
0.0116764
0.0520583
0.0938998
0.127304
0.0170283
0.0156792
0.0144138
0.0113834
0.00973345
0.0086922
0.00814069
0.00702258
0.00624612
0.00587551
0.00521668
0.00474187
0.00446368
0.00407917
0.00426028
0.00327988
0.00687359
0.0530344
0.0916588
0.127268
0.0115645
0.00952933
0.00872682
0.0088587
0.00762797
0.00726033
0.0068056
0.00626188
0.00563717
0.00508132
0.00487397
0.00447651
0.00407575
0.00357301
0.00319402
0.00204134
0.00754131
0.0516206
0.0932452
0.123595
0.00473627
0.00741144
0.00769004
0.00702673
0.0058844
0.00498803
0.00499802
0.00476707
0.00450533
0.0042668
0.00382345
0.00387324
0.00369631
0.00381292
0.00363745
0.00235021
0.00486818
0.0469891
0.0936768
0.123291
0.00580757
0.00519191
0.00407813
0.00383293
0.00411299
0.00449363
0.00420548
0.00425067
0.00383708
0.00391158
0.0038343
0.00348704
0.00349413
0.00331984
0.00336608
0.00216253
0.00336542
0.0421377
0.0944639
0.124232
0.00285208
0.00322246
0.00376245
0.00415558
0.00360173
0.00327111
0.00318149
0.00314257
0.00317697
0.00307212
0.00295208
0.00315413
0.00309921
0.00333685
0.0032229
0.00232966
0.00198119
0.0343746
0.0956934
0.127657
0.00245579
0.00252932
0.00227964
0.00208435
0.00229936
0.00248822
0.00250445
0.00271266
0.00263973
0.00282853
0.00287871
0.00279945
0.00282499
0.00302637
0.00313903
0.00260518
0.0033671
0.0261004
0.0954306
0.134386
0.0013125
0.00143314
0.00163329
0.00197493
0.00208178
0.00219886
0.00209789
0.00216758
0.00216751
0.0023891
0.00235329
0.00265548
0.00254589
0.00294568
0.00298928
0.00299408
0.0022747
0.0182907
0.0936715
0.142602
0.00098409
0.00102251
0.00110991
0.00122067
0.00126879
0.00135979
0.00147684
0.00177031
0.00191723
0.00206701
0.00221843
0.00241912
0.0024986
0.00282091
0.00295559
0.00356844
0.00267487
0.011286
0.089139
0.154118
0.000418128
0.00053324
0.00066253
0.000918214
0.00101907
0.00126777
0.00125182
0.00151436
0.00162626
0.00183083
0.00192305
0.00220777
0.00230503
0.00243048
0.00267037
0.00342242
0.00288402
0.0058457
0.0689389
0.167154
0.000258142
0.000408896
0.000443156
0.000638439
0.000715649
0.0008957
0.00102272
0.00119149
0.00139515
0.00160723
0.00180906
0.00203566
0.00234953
0.00261422
0.00265962
0.00281331
0.0033699
0.00424153
0.0554018
0.184911
0.000292914
0.000462961
0.000519012
0.00063585
0.000694229
0.00082822
0.000941003
0.00118107
0.0012234
0.00143291
0.00155861
0.00183775
0.00207378
0.00242273
0.00265127
0.00251656
0.00359209
0.00952965
0.0318368
0.161187
0.000374637
0.000455799
0.000487112
0.000624362
0.000699498
0.000871817
0.000914698
0.00106137
0.00110679
0.00132171
0.00137703
0.0016261
0.00159201
0.00187838
0.00190385
0.00271189
0.00291705
0.00639792
0.0178159
0.113468
0.000494109
0.000554731
0.000572452
0.000663428
0.000694288
0.000778004
0.00081889
0.000889663
0.000998223
0.00114636
0.00119154
0.00138402
0.00142631
0.00182572
0.00187711
0.00254437
0.00251336
0.0038062
0.00527724
0.0652255
0.000453482
0.000507183
0.000539691
0.000583716
0.000613827
0.000659418
0.000723396
0.000867304
0.000849868
0.000958973
0.00093983
0.00114221
0.00109662
0.00143416
0.00134254
0.00165542
0.00155516
0.00261059
0.00447761
0.0353887
0.000347295
0.000408635
0.000458891
0.000525423
0.00057352
0.000637398
0.000661506
0.000674201
0.000672145
0.000776889
0.0007538
0.000909817
0.000925625
0.00114916
0.00128603
0.0012815
0.00137352
0.00145552
0.000983682
0.0148651
0.000238966
0.000286894
0.000296451
0.000289801
0.000289901
0.000361895
0.000466183
0.000533461
0.000589912
0.000615401
0.000657823
0.000718616
0.000722524
0.000739595
0.00066172
0.000751167
0.000673286
0.000877657
0.00142954
0.00317977
0.000212783
0.000199034
0.000199655
0.000217756
0.000223851
0.000225448
0.000228899
0.000219483
0.000264869
0.00032101
0.000335267
0.000377265
0.000405379
0.000428157
0.000490336
0.000518962
0.000560805
0.000568793
0.000553726
0.00277389
0.000223223
0.000191516
0.00015972
0.000118963
0.000127739
0.000131029
0.000131813
0.000144673
0.000149606
0.000185159
0.000211155
0.000247005
0.00027066
0.000312225
0.000320849
0.000196059
0.000269359
0.000251549
0.000196351
0.000526421
0.013944
0.0141079
0.0141313
0.0141217
0.0140613
0.0141012
0.0141173
0.0138876
0.0134233
0.013598
0.012401
0.0121948
0.0118497
0.0117579
0.0117729
0.0109458
0.0111836
0.00970069
0.00946252
0.00986534
0.00692291
0.00693447
0.00689452
0.00684392
0.00678032
0.00681147
0.0067064
0.00668267
0.00718766
0.00697351
0.00660271
0.00674998
0.00691584
0.00719435
0.00687149
0.00694427
0.00701539
0.00679636
0.00652131
0.00767604
0.00417568
0.00415845
0.00417889
0.00423268
0.00427649
0.00433429
0.00434554
0.00442157
0.0044112
0.00418923
0.00400957
0.00425625
0.00403812
0.00398371
0.0036281
0.00323098
0.00317273
0.00375729
0.00361335
0.0040863
0.00267009
0.00266328
0.00265625
0.00264307
0.00261309
0.00259068
0.00256037
0.00253619
0.00239651
0.00237243
0.00227629
0.00230776
0.00234443
0.00258221
0.00277731
0.00299737
0.0026373
0.002828
0.00254377
0.00283896
0.00162638
0.00162266
0.00161549
0.00161327
0.00160777
0.00162066
0.00161464
0.00161932
0.00170019
0.00179839
0.00186393
0.00186576
0.00176038
0.00163383
0.00140997
0.00148055
0.00145738
0.00153741
0.00160333
0.00156188
0.00115252
0.001151
0.00115023
0.00115142
0.00115158
0.00115252
0.00114414
0.00114215
0.00112693
0.0010958
0.00102254
0.000966303
0.000944761
0.0011029
0.00121038
0.00105411
0.00100697
0.00108306
0.00105546
0.00126745
0.000686131
0.000681326
0.000677111
0.000675624
0.000672886
0.000670935
0.0006698
0.000667215
0.000685558
0.000681997
0.000709679
0.000776697
0.000744938
0.000694477
0.000661753
0.000825868
0.000760069
0.000665488
0.000648447
0.00067772
0.000487039
0.00048065
0.00047518
0.000473302
0.000471405
0.000471935
0.000475007
0.000478221
0.000481612
0.000485776
0.000487813
0.000486616
0.000443546
0.00048436
0.000468075
0.000424316
0.000483469
0.000589415
0.000522029
0.000513245
0.000246967
0.000244258
0.000240606
0.000239165
0.000238168
0.000239003
0.00024515
0.000240888
0.000241518
0.000243966
0.00026061
0.000249845
0.000290777
0.000266149
0.000258212
0.000315129
0.000270555
0.000236641
0.00024527
0.000283818
0.000124474
0.000125087
0.000125078
0.000124146
0.000124254
0.000122258
0.000119284
0.000119654
0.000118646
0.000140655
0.000137826
0.000169754
0.00014051
0.000136473
0.000146921
0.000142171
0.000144551
0.000167223
0.000164636
0.000193619
8.80042e-05
8.35077e-05
7.7519e-05
7.21916e-05
6.72621e-05
6.19633e-05
5.37889e-05
4.81401e-05
3.85463e-05
3.20563e-05
3.22943e-05
3.44071e-05
4.04001e-05
3.69362e-05
2.1819e-05
2.68555e-05
2.69556e-05
6.04418e-05
9.35136e-05
0.00011606
0.000110787
0.000100051
8.83883e-05
8.31126e-05
7.89189e-05
7.3788e-05
6.5519e-05
5.404e-05
4.83577e-05
3.89611e-05
3.43386e-05
2.81786e-05
1.88468e-05
7.55132e-06
1.75656e-05
1.8538e-05
2.74752e-05
1.94362e-05
3.26816e-05
4.94557e-05
9.70686e-05
8.79888e-05
7.83737e-05
8.19752e-05
9.14355e-05
9.44229e-05
7.64971e-05
6.88346e-05
7.97152e-05
8.46272e-05
8.18805e-05
8.03321e-05
9.27869e-05
9.13093e-05
9.64888e-05
7.20914e-05
7.3506e-05
5.92808e-05
7.30464e-05
7.0343e-05
0.000112005
0.000106005
0.00010231
9.43723e-05
0.000101382
0.000104077
0.000106371
0.000115071
0.000115745
0.000109148
0.000105166
0.000103634
0.00010398
9.82814e-05
9.89168e-05
9.25939e-05
9.60596e-05
8.56638e-05
9.4897e-05
9.79859e-05
0.000104072
9.89129e-05
7.88423e-05
7.99944e-05
9.85114e-05
9.21823e-05
8.28269e-05
8.41348e-05
8.7561e-05
9.17441e-05
0.000102795
0.000106911
0.000106861
0.000102462
0.000108615
0.000103055
0.000109094
0.000102921
0.000116108
0.000116577
6.52456e-05
5.45115e-05
5.72182e-05
6.85667e-05
6.40363e-05
6.53247e-05
7.01492e-05
7.32326e-05
7.70526e-05
8.14062e-05
8.40188e-05
8.54353e-05
9.3707e-05
9.61028e-05
9.86601e-05
9.76257e-05
0.000105412
0.000106281
0.000114287
0.000114017
5.90708e-05
6.08894e-05
6.37986e-05
6.62365e-05
6.72114e-05
6.69568e-05
6.50265e-05
6.3223e-05
6.14782e-05
6.05583e-05
6.01997e-05
6.25446e-05
6.54325e-05
6.65799e-05
7.047e-05
7.14562e-05
7.60745e-05
7.3577e-05
7.78217e-05
7.83995e-05
4.64404e-05
4.74957e-05
5.00822e-05
5.19916e-05
5.25998e-05
5.24343e-05
5.13252e-05
4.82371e-05
4.43165e-05
4.26232e-05
3.98351e-05
3.84375e-05
3.5914e-05
3.44491e-05
3.24544e-05
3.18621e-05
2.95754e-05
2.98865e-05
2.74227e-05
3.07244e-05
3.30049e-05
3.24004e-05
3.20402e-05
3.25601e-05
3.16578e-05
3.11972e-05
3.04482e-05
3.00425e-05
2.93537e-05
2.93714e-05
2.95845e-05
2.94066e-05
2.80829e-05
2.72869e-05
2.65184e-05
2.54492e-05
2.47894e-05
2.33633e-05
2.31145e-05
2.56634e-05
9.43503e-05
9.2391e-05
9.11501e-05
9.01274e-05
8.89384e-05
8.73771e-05
8.5965e-05
8.43357e-05
8.28826e-05
8.13858e-05
8.01823e-05
7.85963e-05
7.67582e-05
7.51462e-05
7.3793e-05
7.13947e-05
6.83276e-05
6.53173e-05
6.27447e-05
6.04217e-05
0.000978682
0.00108007
0.000829977
0.00084308
0.000930942
0.000970328
0.00101007
0.00104793
0.00107289
0.00111135
0.00118632
0.00122559
0.00127855
0.00130174
0.00138504
0.00143313
0.00138924
0.00232652
0.00778969
0.0188617
0.000942613
0.00101564
0.000811378
0.000982381
0.00104176
0.00104473
0.00109209
0.00114442
0.00118774
0.00121929
0.00125858
0.00127747
0.00129855
0.00133863
0.00140382
0.00143251
0.00144132
0.00168463
0.00676849
0.0184761
0.00103711
0.00111612
0.00084231
0.000927426
0.000975002
0.00100142
0.00105842
0.00108577
0.00109699
0.00112388
0.0011979
0.00123286
0.00129499
0.00132566
0.00141394
0.00141834
0.00148257
0.00140552
0.00588963
0.018074
0.00106232
0.0011538
0.000930013
0.00103018
0.00105871
0.00107542
0.00110196
0.00113841
0.00117323
0.00122077
0.00125489
0.00127952
0.00131746
0.0013639
0.00143688
0.0014438
0.00153999
0.0013591
0.0049278
0.0176189
0.00113368
0.00119053
0.000923501
0.00099523
0.00102908
0.0010363
0.00107792
0.00110357
0.00111498
0.00114712
0.00121645
0.00125959
0.00131674
0.00134828
0.00141482
0.0014079
0.00151646
0.00133297
0.00436711
0.0170811
0.00108453
0.00113847
0.000923615
0.00100926
0.00104349
0.00105808
0.00108622
0.0011267
0.00117296
0.00123646
0.00127403
0.00129614
0.00133755
0.00138216
0.00145354
0.00146855
0.00158017
0.00141334
0.00435161
0.0164478
0.00111602
0.00113975
0.000946686
0.00101297
0.00102782
0.00103462
0.00107247
0.00111754
0.00114103
0.00117594
0.00122023
0.00126976
0.00132292
0.00136855
0.00142654
0.00144125
0.00154911
0.00145312
0.00493604
0.015717
0.000994455
0.00101898
0.000866533
0.000931673
0.000971586
0.00101221
0.00107556
0.00112325
0.00115742
0.00121832
0.00126443
0.00130726
0.0013624
0.00141683
0.00148838
0.00151577
0.0016277
0.0015566
0.00442647
0.014992
0.0010118
0.00105542
0.000940323
0.00102114
0.001057
0.00109902
0.00113019
0.00113936
0.00117251
0.0012269
0.00126159
0.00132173
0.0013602
0.0014071
0.00144259
0.00148156
0.00160481
0.00153929
0.0038448
0.0139619
0.000992287
0.0010617
0.000956493
0.000996932
0.00103748
0.00107568
0.00109576
0.0011476
0.00121587
0.00124896
0.00127422
0.00131611
0.00134708
0.00140411
0.00146443
0.00154096
0.00161417
0.00160565
0.00323121
0.0125768
0.00103367
0.00109863
0.000955283
0.00100947
0.00105063
0.00106375
0.00110896
0.00116956
0.00116723
0.00119084
0.00123491
0.00128967
0.00132432
0.00138949
0.00144354
0.00150195
0.00155923
0.00163026
0.00264315
0.0105616
0.000980192
0.00100292
0.000949653
0.00102281
0.00104597
0.00109384
0.00113381
0.00114653
0.00117223
0.00122743
0.00126546
0.00131059
0.00133845
0.00143249
0.00146225
0.00152766
0.00157839
0.0016305
0.00225863
0.00860757
0.000986751
0.0010452
0.000981621
0.00102461
0.00105923
0.00108603
0.001081
0.00112502
0.00116136
0.00119969
0.00124758
0.00127504
0.00132782
0.00140091
0.0014026
0.00149179
0.00150094
0.00158623
0.00191535
0.00672348
0.000974769
0.00100155
0.000953142
0.00100557
0.00103493
0.00105088
0.00109182
0.00114341
0.00115177
0.00121808
0.00123235
0.00128023
0.00136306
0.00140302
0.00142143
0.00149928
0.00149551
0.00159872
0.00176753
0.00557406
0.000966093
0.000981023
0.000943434
0.000993016
0.00101197
0.0010543
0.00108091
0.00111643
0.00115062
0.00120866
0.001229
0.00132737
0.00136214
0.00138523
0.00142846
0.00150375
0.00152871
0.00165361
0.00166958
0.00456031
0.000951409
0.000981445
0.000973006
0.0010089
0.00105459
0.00107083
0.00110836
0.00114886
0.00117459
0.00122381
0.00126938
0.00133635
0.00133619
0.00138456
0.00141235
0.00149307
0.00149159
0.00159338
0.00157615
0.00412681
0.000954159
0.000983366
0.000957665
0.00101121
0.00104415
0.00107485
0.00112979
0.00114925
0.00119949
0.00124884
0.00127428
0.00130149
0.00130227
0.00133209
0.00139653
0.00140498
0.00140724
0.00150204
0.00155695
0.00403669
0.000936175
0.000977543
0.000960576
0.00101523
0.00104988
0.00107846
0.00110054
0.0011159
0.00116287
0.00117678
0.0012136
0.00123818
0.00125908
0.00134362
0.00137159
0.00141821
0.00148598
0.00157818
0.00165515
0.00416077
0.000930047
0.000955791
0.000955719
0.00100457
0.0010369
0.00105318
0.00109038
0.00112762
0.00117261
0.00121099
0.00123663
0.00127973
0.00131238
0.00142831
0.0014145
0.00154467
0.00159312
0.00164497
0.00160038
0.00254703
0.000968127
0.000984694
0.000968417
0.00101264
0.00103222
0.00106876
0.0011013
0.00113935
0.00117586
0.0011893
0.00122323
0.00124621
0.00132287
0.00134887
0.00138329
0.00148365
0.00148265
0.00159008
0.00188789
0.00114769
0.000486923
0.000423617
0.00041229
0.000399423
0.000327883
0.000331053
0.000404047
0.000375831
0.000394909
0.000428738
0.000325799
0.000131411
0.0010799
0.00332745
0.0076019
0.0119909
0.0114221
0.00627129
0.00138121
0.000183194
0.000482057
0.000433726
0.000410869
0.000436043
0.000430746
0.000363609
0.000351177
0.000349406
0.000400079
0.00038993
0.000372345
0.000242672
4.55289e-05
0.00152512
0.00469954
0.00963775
0.0127652
0.00920582
0.00304658
0.000358628
0.000483155
0.00042251
0.00039093
0.000391088
0.000368201
0.000361998
0.000414392
0.000353937
0.000366421
0.00040073
0.000398654
0.000320816
0.000116023
0.000332101
0.00238889
0.00687032
0.0119752
0.0116018
0.00617639
0.00074071
0.000525168
0.000493526
0.000434835
0.000443432
0.000444521
0.000339392
0.000355482
0.00037685
0.000404529
0.000380518
0.000451666
0.000426308
0.00026818
4.53992e-05
0.00094322
0.00461615
0.00997328
0.012768
0.00891367
0.0012668
0.00049519
0.000466887
0.000430898
0.000417867
0.000449724
0.000413227
0.000410618
0.000344228
0.000363482
0.000394391
0.000381257
0.000443618
0.000381059
0.000196987
0.000129758
0.00226852
0.00785844
0.0128996
0.0104087
0.00309415
0.000536087
0.00051649
0.000464119
0.00043104
0.00047066
0.000391546
0.000414909
0.000432747
0.000430162
0.000417269
0.000443847
0.000456776
0.000436511
0.000335271
3.1898e-05
0.000802201
0.00589569
0.0118822
0.0118854
0.00316249
0.000503567
0.000499259
0.000499557
0.000454811
0.000507177
0.000462578
0.000444001
0.000398834
0.00043026
0.000466741
0.000464413
0.000501248
0.000527149
0.000454461
0.00024283
0.000217082
0.00312815
0.0106531
0.0127514
0.00485075
0.000545161
0.000521973
0.000497229
0.000448143
0.000525026
0.000484811
0.00049243
0.000498818
0.000482495
0.000486487
0.000520099
0.000549476
0.000554219
0.000568818
0.000469253
0.000205108
0.00149854
0.00924044
0.0131546
0.00779715
0.000528326
0.00051726
0.000556364
0.000497744
0.000555004
0.000524848
0.000521826
0.000505758
0.000541851
0.000577912
0.000587942
0.000638267
0.000636524
0.000660959
0.000637321
0.000288289
0.000591375
0.00807122
0.013226
0.0102112
0.000590068
0.000561162
0.000563206
0.000498355
0.000598421
0.0005893
0.000576698
0.000578475
0.000570574
0.000592765
0.000641593
0.000697114
0.00071922
0.000758419
0.000755735
0.000560147
0.000362621
0.00574047
0.0131362
0.0125192
0.00059106
0.000530835
0.000626611
0.000566035
0.000622909
0.000613399
0.000622152
0.000630343
0.000662775
0.000694625
0.00071361
0.000767072
0.000782366
0.000803966
0.000878928
0.000778476
0.000248932
0.00399535
0.0127413
0.0153444
0.000642116
0.000572535
0.000629036
0.00056192
0.000653064
0.000678433
0.000655392
0.00065908