/*--------------------------------*- C++ -*----------------------------------*\
  =========                 |
  \\      /  F ield         | OpenFOAM: The Open Source CFD Toolbox
   \\    /   O peration     | Website:  https://openfoam.org
    \\  /    A nd           | Version:  9
     \\/     M anipulation  |
\*---------------------------------------------------------------------------*/
FoamFile
{
    format      ascii;
    class       volScalarField;
    location    "6.07";
    object      p;
}
// * * * * * * * * * * * * * * * * * * * * * * * * * * * * * * * * * * * * * //

dimensions      [0 2 -2 0 0 0 0];

internalField   nonuniform List<scalar> 
46400
(
-109.999
-101.216
-87.581
-75.2964
-64.6693
-54.5115
-45.4822
-37.049
-29.4042
-22.3142
-15.7617
-9.6814
-4.00079
1.3376
6.41835
11.261
15.8213
20.7737
25.5511
26.7605
-72.622
-65.4326
-53.2002
-41.9994
-32.2716
-23.0584
-14.8818
-7.35391
-0.524947
5.69267
11.4285
16.6455
21.4908
25.9604
30.1033
33.953
37.5049
41.1718
44.4149
44.9618
-37.0703
-31.3429
-20.1845
-9.49163
-0.612461
7.75477
15.1011
21.8233
27.8573
33.331
38.329
42.8733
47.0273
50.8299
54.347
57.5379
60.399
63.3458
65.5715
64.996
-3.3274
3.13425
13.548
23.1836
31.1414
38.493
44.8942
50.6467
55.7937
60.374
64.5214
68.2398
71.6013
74.6467
77.3978
79.8867
82.0996
84.3818
86.164
85.4021
30.9876
37.6194
46.7547
55.2028
62.0971
68.3939
73.8841
78.7355
83.062
86.8583
90.2622
93.2626
95.9466
98.3029
100.441
102.288
103.876
105.528
106.7
105.495
65.183
72.4659
80.0657
87.1362
92.811
97.9356
102.377
106.241
109.65
112.614
115.219
117.508
119.493
121.236
122.727
124.039
125.104
126.253
127.003
125.589
98.8809
106.353
111.891
117.486
122.073
126.058
129.565
132.524
135.107
137.291
139.164
140.747
142.097
143.207
144.152
144.883
145.432
146.031
146.35
144.668
131.226
137.875
142.362
146.495
150.055
153.048
155.644
157.796
159.598
161.08
162.282
163.242
163.997
164.564
164.974
165.242
165.342
165.49
165.538
163.668
161.268
166.181
169.971
173.082
175.784
177.954
179.791
181.222
182.375
183.214
183.828
184.207
184.424
184.472
184.401
184.214
183.888
183.646
183.373
181.48
188.837
192.901
195.899
198.219
200.15
201.536
202.679
203.423
203.958
204.216
204.293
204.162
203.879
203.446
202.9
202.246
201.477
200.757
199.993
197.813
213.702
216.949
219.34
220.965
222.258
223.033
223.533
223.693
223.626
223.332
222.877
222.263
221.531
220.684
219.746
218.717
217.597
216.542
215.468
213.227
236.882
239.483
241.29
242.318
243.101
243.274
243.269
242.873
242.311
241.492
240.545
239.443
238.25
236.961
235.605
234.178
232.675
231.227
229.761
227.329
257.483
259.392
260.634
261.154
261.416
261.198
260.712
259.926
258.958
257.78
256.462
254.989
253.423
251.757
250.039
248.257
246.425
244.633
242.826
240.228
276.895
278.158
278.853
278.758
278.532
277.814
276.881
275.63
274.204
272.605
270.881
269.055
267.137
265.157
263.12
261.045
258.92
256.84
254.752
252.017
293.634
294.13
294.409
293.849
293.161
292.106
290.912
289.437
287.792
285.936
283.96
281.845
279.658
277.383
275.074
272.71
270.319
267.955
265.613
262.698
309.515
309.352
308.992
308.029
306.723
305.197
303.452
301.566
299.524
297.368
295.107
292.757
290.35
287.881
285.39
282.86
280.312
277.793
275.341
272.309
319.838
319.771
319.476
318.593
317.499
315.978
314.232
312.22
310.044
307.72
305.266
302.728
300.099
297.436
294.722
292.002
289.247
286.549
283.937
280.789
330.323
330.402
329.54
328.446
326.81
325.032
322.866
320.604
318.148
315.611
312.972
310.281
307.546
304.787
302.013
299.242
296.453
293.725
291.127
288.025
337.381
337.243
336.514
335.519
334.053
332.297
330.208
327.901
325.401
322.756
320.008
317.18
314.319
311.409
308.501
305.572
302.647
299.755
296.99
293.833
343.131
342.901
342.08
340.783
339.127
337.15
334.931
332.524
329.943
327.244
324.448
321.605
318.704
315.785
312.833
309.882
306.907
303.961
301.102
297.942
-574.701
-572.614
-558.522
-541.795
-523.361
-505.117
-488.118
-471.985
-456.571
-441.919
-427.975
-414.616
-401.879
-389.653
-378.028
-366.776
-356.209
-345.973
-336.424
-327.267
-571.027
-569.893
-555.668
-536.068
-516.81
-498.087
-480.385
-463.825
-448.08
-433.161
-418.941
-405.407
-392.517
-380.174
-368.452
-357.16
-346.592
-336.356
-326.893
-317.749
-569.146
-565.755
-550.021
-529.095
-508.669
-489.503
-471.399
-454.428
-438.404
-423.217
-408.861
-395.171
-382.181
-369.788
-358.039
-346.75
-336.203
-325.975
-316.6
-307.453
-559.185
-557.083
-540.729
-519.036
-498.345
-478.838
-460.567
-443.418
-427.226
-411.98
-397.496
-383.783
-370.774
-358.396
-346.655
-335.438
-324.974
-314.842
-305.654
-296.524
-551.405
-547.818
-530.275
-507.776
-486.765
-466.902
-448.431
-431.109
-414.793
-399.408
-384.913
-371.153
-358.142
-345.785
-334.097
-322.958
-312.589
-302.543
-293.534
-284.507
-540.168
-535.604
-516.779
-493.939
-472.596
-452.672
-434.094
-416.81
-400.518
-385.231
-370.793
-357.151
-344.275
-332.076
-320.513
-309.528
-299.284
-289.411
-280.568
-271.569
-525.332
-520.127
-500.675
-477.741
-456.63
-436.785
-418.314
-401.104
-384.912
-369.719
-355.418
-341.904
-329.175
-317.14
-305.766
-295.007
-284.965
-275.326
-266.758
-257.89
-509.271
-503.092
-482.811
-459.728
-438.443
-418.793
-400.359
-383.364
-367.375
-352.393
-338.355
-325.084
-312.615
-300.852
-289.738
-279.244
-269.439
-260.068
-251.773
-243.059
-488.784
-482.048
-461.498
-438.928
-418.182
-398.913
-380.87
-364.161
-348.507
-333.844
-320.076
-307.12
-294.943
-283.473
-272.648
-262.458
-252.912
-243.834
-235.786
-227.223
-467.281
-459.861
-439.04
-416.71
-396.024
-377.124
-359.377
-343.047
-327.767
-313.454
-300.119
-287.526
-275.739
-264.653
-254.211
-244.391
-235.181
-226.451
-218.739
-210.394
-442.033
-434.242
-413.52
-391.85
-371.847
-353.568
-336.4
-320.55
-305.768
-291.945
-279.012
-266.874
-255.5
-244.827
-234.778
-225.357
-216.498
-208.158
-200.76
-192.653
-415.488
-407.301
-386.572
-365.634
-345.998
-328.294
-311.679
-296.36
-282.121
-268.788
-256.418
-244.772
-233.886
-223.688
-214.107
-205.133
-196.679
-188.754
-181.721
-173.884
-386.42
-378.14
-357.292
-337.502
-318.549
-301.535
-285.59
-270.895
-257.268
-244.533
-232.681
-221.577
-211.214
-201.522
-192.432
-183.938
-175.933
-168.481
-161.822
-154.31
-355.696
-347.226
-326.577
-307.754
-289.666
-273.338
-258.194
-244.135
-231.185
-219.068
-207.861
-197.36
-187.544
-178.394
-169.824
-161.83
-154.284
-147.304
-141.031
-133.818
-323.993
-315.366
-294.716
-276.788
-259.49
-243.97
-229.53
-216.231
-203.955
-192.5
-181.9
-171.99
-162.78
-154.191
-146.176
-138.706
-131.67
-125.21
-119.334
-112.474
-290.625
-281.211
-260.99
-244.357
-228.233
-213.529
-200.077
-187.491
-176.002
-165.251
-155.332
-146.096
-137.456
-129.447
-121.975
-115.029
-108.487
-102.534
-97.0503
-90.5196
-256.039
-246.989
-227.817
-211.597
-196.361
-182.462
-169.714
-157.945
-147.14
-137.086
-127.82
-119.195
-111.201
-103.772
-96.8801
-90.468
-84.464
-79.0529
-74.0031
-67.8689
-220.35
-211.077
-192.755
-177.872
-163.732
-150.737
-138.987
-127.989
-118.004
-108.693
-100.112
-92.1834
-84.7723
-77.9426
-71.6142
-65.7441
-60.2761
-55.4303
-50.884
-45.2457
-184.139
-175.167
-158.12
-143.811
-130.788
-118.636
-107.713
-97.5494
-88.2943
-79.6953
-71.7776
-64.4395
-57.64
-51.3459
-45.5277
-40.0984
-35.1149
-30.8064
-26.6716
-20.8187
-147.713
-138.331
-122.665
-109.569
-97.6644
-86.4962
-76.4977
-67.1806
-58.6957
-50.8327
-43.539
-36.8093
-30.4733
-24.5815
-19.0422
-13.7831
-8.97125
-4.40173
0.566415
6.34273
-282.958
-232.502
-187.063
-155.627
-127.008
-105.984
-87.2292
-72.2911
-59.8764
-49.1623
-40.7533
-33.0991
-27.3334
-21.7948
-17.9089
-14.0672
-10.7497
-9.24658
-7.23655
-6.94418
-274.213
-225.837
-181.593
-151.441
-123.603
-103.26
-85.0164
-70.4742
-58.4235
-47.9427
-39.7544
-32.2181
-26.6544
-21.1797
-17.4823
-13.6226
-10.5243
-8.96391
-6.87139
-6.78119
-264.791
-219.055
-176.059
-147.213
-120.149
-100.543
-82.8519
-68.6435
-56.9389
-46.6452
-38.7136
-31.2974
-25.9388
-20.5365
-17.0184
-13.1466
-10.3021
-8.57507
-6.53431
-6.60077
-254.821
-211.754
-170.092
-142.728
-116.472
-97.5716
-80.4606
-66.6332
-55.3387
-45.2703
-37.583
-30.2965
-25.1494
-19.8248
-16.5144
-12.6364
-10.0334
-8.22535
-6.27261
-6.42622
-244.419
-204.014
-164.04
-138.223
-112.754
-94.6025
-78.1161
-64.6115
-53.6967
-43.8324
-36.4097
-29.2556
-24.3213
-19.0866
-15.9771
-12.0785
-9.7128
-7.86012
-6.0016
-6.23123
-233.33
-195.839
-157.536
-133.386
-108.827
-91.3826
-75.56
-62.4184
-51.9451
-42.3141
-35.1491
-28.1409
-23.4167
-18.2769
-15.4032
-11.4733
-9.38712
-7.51038
-5.73954
-6.02603
-221.659
-187.278
-150.943
-128.568
-104.885
-88.1516
-73.0385
-60.2172
-50.1436
-40.7448
-33.8428
-26.981
-22.4722
-17.4402
-14.8001
-10.8549
-9.04944
-7.09749
-5.46776
-5.80491
-209.431
-178.223
-143.947
-123.263
-100.756
-84.6829
-70.3239
-57.8592
-48.2392
-39.0924
-32.4559
-25.7554
-21.4495
-16.532
-14.1701
-10.2114
-8.66254
-6.66713
-5.23786
-5.51194
-196.667
-168.832
-136.825
-118.03
-96.6313
-81.1924
-67.6219
-55.4989
-46.2819
-37.3963
-31.0174
-24.4851
-20.39
-15.5754
-13.5008
-9.38629
-8.21248
-6.18357
-4.99679
-5.20745
-183.267
-159.005
-129.38
-112.283
-92.3423
-77.4992
-64.7387
-53.0026
-44.2305
-35.6163
-29.5058
-23.1503
-19.2487
-14.5666
-12.7836
-8.40045
-7.76583
-5.64734
-4.7353
-4.91247
-169.284
-148.839
-121.995
-106.33
-88.0041
-73.7766
-61.8546
-50.4956
-42.1294
-33.7968
-27.9472
-21.7671
-18.0706
-13.5292
-12.0021
-7.41317
-7.31918
-5.01473
-4.4935
-4.56167
-154.699
-138.304
-114.222
-100.16
-83.4927
-69.8966
-58.806
-47.8739
-39.9438
-31.8929
-26.3263
-20.3132
-16.8155
-12.3236
-11.0274
-6.41648
-6.86063
-4.35697
-4.23903
-4.20967
-139.396
-127.427
-106.391
-93.7805
-78.9193
-65.9835
-55.7442
-45.2314
-37.7184
-29.9516
-24.6476
-18.8315
-15.5076
-11.0357
-9.90694
-5.44115
-6.38303
-3.78591
-3.99557
-3.8353
-123.629
-116.28
-98.3125
-87.2447
-74.1793
-61.9455
-52.5353
-42.4871
-35.4116
-27.9323
-22.9091
-17.2835
-14.1267
-9.78922
-8.76585
-4.48455
-5.87758
-3.19225
-3.74789
-3.44879
-106.948
-104.804
-90.1383
-80.5694
-69.3835
-57.9077
-49.324
-39.7263
-33.0733
-25.8956
-21.1351
-15.7079
-12.7159
-8.53372
-7.62542
-3.52887
-5.33307
-2.56161
-3.49578
-3.04056
-89.5883
-92.87
-81.7335
-73.7329
-64.4249
-53.7642
-46.0006
-36.8835
-30.6599
-23.7962
-19.3138
-14.0796
-11.2603
-7.24306
-6.4704
-2.5148
-4.75088
-1.9379
-3.25719
-2.66942
-71.8874
-80.6781
-73.0931
-66.6232
-59.2525
-49.4978
-42.561
-33.932
-28.1585
-21.6345
-17.4238
-12.3963
-9.75206
-5.88321
-5.30748
-1.42035
-4.09641
-1.24956
-3.00869
-2.21786
-54.5677
-69.2121
-64.9671
-59.7419
-54.2003
-45.321
-39.1538
-30.9679
-25.596
-19.4172
-15.4902
-10.6666
-8.20094
-4.49755
-4.20652
-0.291184
-3.44724
-0.409405
-2.68893
-1.54957
-31.5241
-55.8479
-57.0468
-53.3482
-49.649
-41.8099
-36.3247
-28.496
-23.3599
-17.4648
-13.7497
-9.11365
-6.76995
-3.25663
-3.08966
0.80477
-2.94375
-0.0877768
-2.45867
-1.31473
-6.08566
-37.8018
-45.4218
-44.2458
-42.6912
-36.4264
-32.0284
-25.0385
-20.443
-15.0374
-11.6726
-7.2223
-5.10207
-1.72178
-1.61733
2.13387
-2.10595
0.432572
-2.38896
-0.47838
44.441
44.3826
26.6555
20.0017
11.0182
9.80527
5.71615
5.54842
4.17179
5.76825
5.6468
7.95605
8.01712
10.5572
9.95457
12.462
10.3422
14.0898
6.77558
16.8587
104.293
93.1122
67.609
58.4659
46.3401
39.9167
33.8161
30.7128
27.3407
25.6337
23.9509
22.9787
22.0406
21.775
20.8206
21.2924
19.6525
20.2161
18.3632
20.6031
126.424
112.551
97.2272
86.1201
75.5493
67.9055
60.8701
56.124
51.6386
48.864
45.9069
44.3605
42.3136
41.4615
40.1553
39.6149
38.877
38.3981
38.3047
38.8768
135.554
124.341
111.648
102.148
92.7596
85.6759
78.6673
73.2996
68.1442
64.0378
60.3961
57.2635
54.6442
52.2324
50.3431
48.6276
47.4273
46.4727
46.0679
45.8698
134.891
126.211
118.019
110.434
103.482
97.0324
91.3694
86.2157
81.826
77.8715
74.3115
71.4008
68.5652
66.2388
63.9254
61.7757
59.8938
58.2771
57.3307
57.2038
136.728
130.59
123.638
117.004
111.027
105.607
100.518
95.9901
91.5643
87.7875
84.2162
80.8863
78.0723
75.2132
73.0404
70.6204
68.8212
67.0179
65.9917
65.5275
134.916
129.743
125.229
120.831
116.325
112.018
107.821
103.869
100.225
96.7831
93.6021
90.7408
87.8162
85.4249
82.7003
80.5931
78.1696
76.1996
74.6302
74.0792
136.159
132.682
128.672
124.4
120.272
116.607
113.099
109.895
106.608
103.728
100.676
98.0853
95.3204
92.9671
90.4271
88.207
85.7577
83.6626
81.7438
81.0384
135.674
132.572
129.535
126.99
124.281
121.433
118.533
115.828
113.038
110.563
107.999
105.745
103.277
101.256
98.7316
96.8508
94.0596
92.2706
89.6531
89.038
136.987
134.767
132.275
129.869
127.313
124.923
122.526
120.316
118.124
116.076
113.917
112.086
109.929
108.273
106.035
104.497
101.769
100.501
97.3834
97.0239
137.998
136.266
134.363
132.629
130.702
128.912
127.003
125.3
123.47
121.959
120.264
118.916
117.334
116.122
114.538
113.45
111.464
110.865
106.936
107.87
139.465
138.029
136.351
134.885
133.294
131.895
130.425
129.15
127.831
126.724
125.558
124.661
123.661
122.995
122.144
121.747
120.918
121.022
120.719
122.408
140.819
139.719
138.456
137.373
136.193
135.19
134.118
133.266
132.349
131.709
131.024
130.627
130.271
130.128
130.269
130.33
131.291
131.395
133.774
135.18
142.226
141.326
140.263
139.408
138.451
137.714
136.895
136.345
135.702
135.413
134.995
135.067
134.937
135.481
135.769
136.892
137.91
139.618
142.68
143.566
143.605
142.87
142.061
141.41
140.717
140.206
139.657
139.352
138.978
138.965
138.823
139.188
139.299
140.204
140.642
142.294
143.113
145.9
147.43
150.988
144.569
143.957
143.282
142.758
142.199
141.826
141.406
141.242
140.981
141.083
140.982
141.438
141.541
142.456
142.835
144.323
145.024
147.108
148.056
160.918
145.738
145.209
144.656
144.239
143.835
143.577
143.316
143.211
143.066
143.246
143.187
143.775
143.74
144.981
145.103
146.57
147.18
149.541
150.785
154.147
146.404
145.923
145.456
145.075
144.691
144.427
144.137
144.077
143.997
144.085
144.178
144.568
144.673
145.526
145.467
146.973
147.307
148.05
148.304
158.363
146.901
146.457
146.047
145.714
145.403
145.185
145.002
144.938
144.865
145.035
145.085
145.422
145.646
146.104
146.413
147.051
147.257
148.569
148.632
149.306
147.148
146.706
146.305
145.976
145.697
145.502
145.345
145.279
145.209
145.306
145.374
145.634
145.794
146.227
146.44
146.972
147.314
147.936
148.176
154.302
261.28
257.779
253.591
248.94
243.361
237.388
230.39
222.927
214.502
205.588
195.321
185.207
174.295
162.672
150.578
137.497
124.387
110.02
96.0829
81.2949
231.331
229.049
226.481
223.617
220.437
216.974
213.225
209.141
205.139
199.949
194.153
189.585
184.092
178.535
172.746
166.564
160.324
152.973
144.257
134.971
195.007
193.399
191.647
189.812
187.791
185.712
183.405
181.079
178.453
175.771
172.816
169.972
166.054
162.106
158.132
154.668
151.205
147.763
143.785
140.233
182.752
181.439
180.067
178.621
177.106
175.515
173.835
172.082
170.207
168.309
166.255
164.245
162.039
159.73
157.1
154.811
152.206
149.788
147.013
144.528
166.577
165.576
164.553
163.493
162.385
161.269
160.08
158.895
157.616
156.362
154.982
153.64
152.093
150.651
148.794
147.023
145.095
143.455
141.841
140.324
160.966
160.12
159.25
158.355
157.443
156.501
155.545
154.558
153.556
152.525
151.451
150.36
149.209
148.079
146.886
145.734
144.475
143.299
141.97
140.787
154.003
153.346
152.664
151.972
151.252
150.525
149.768
149.009
148.211
147.434
146.568
145.747
144.641
143.577
142.5
141.504
140.541
139.634
138.707
137.774
151.351
150.766
150.174
149.57
148.958
148.337
147.705
147.061
146.411
145.75
145.082
144.403
143.707
142.994
142.259
141.526
140.755
140.011
139.222
138.495
148.561
148.096
147.617
147.128
146.618
146.095
145.503
144.89
144.299
143.724
143.156
142.562
141.975
141.383
140.784
140.18
139.567
138.934
138.277
137.621
147.619
147.193
146.762
146.323
145.878
145.424
144.967
144.502
144.026
143.545
143.055
142.56
142.059
141.55
141.035
140.515
139.992
139.472
138.952
138.428
146.838
146.503
146.162
145.811
145.454
145.088
144.715
144.335
143.949
143.554
143.157
142.747
142.337
141.913
141.492
141.052
140.612
140.159
139.708
139.25
147.155
146.84
146.52
146.197
145.869
145.537
145.202
144.862
144.52
144.172
143.822
143.468
143.112
142.749
142.387
142.017
141.65
141.269
140.896
140.506
147.14
146.873
146.605
146.334
146.06
145.786
145.508
145.226
144.945
144.656
144.369
144.074
143.781
143.481
143.184
142.877
142.577
142.263
141.961
141.641
147.819
147.583
147.341
147.094
146.854
146.602
146.343
146.086
145.827
145.569
145.309
145.049
144.789
144.525
144.264
143.997
143.735
143.464
143.202
142.928
148.049
147.815
147.596
147.408
147.242
147.08
146.915
146.74
146.559
146.365
146.164
145.949
145.728
145.5
145.279
145.052
144.834
144.607
144.392
144.166
149.008
148.782
148.55
148.316
148.08
147.841
147.603
147.373
147.149
146.932
146.724
146.524
146.338
146.153
145.969
145.783
145.6
145.412
145.229
145.041
149.362
149.165
148.969
148.776
148.586
148.399
148.214
148.032
147.854
147.68
147.51
147.343
147.177
147.014
146.855
146.697
146.545
146.394
146.25
146.104
149.875
149.699
149.526
149.354
149.184
149.016
148.849
148.683
148.519
148.356
148.194
148.034
147.876
147.717
147.561
147.405
147.25
147.094
146.94
146.785
150.108
149.935
149.765
149.598
149.433
149.27
149.109
148.95
148.792
148.637
148.484
148.333
148.185
148.039
147.895
147.754
147.617
147.481
147.35
147.221
150.278
150.108
149.94
149.774
149.61
149.449
149.29
149.134
148.98
148.829
148.68
148.534
148.391
148.25
148.111
147.976
147.843
147.712
147.584
147.459
172.667
171.653
167.592
163.437
159.634
155.717
151.623
147.294
142.634
137.561
132.055
125.965
119.316
111.925
103.9
94.893
84.9174
74.2678
60.7659
54.2597
182.119
181.676
179.206
176.692
173.904
170.766
167.339
163.534
159.346
154.745
149.717
144.146
138.023
131.231
123.774
115.404
106.218
96.0585
83.6911
77.3304
193.425
193.365
191.311
189.117
186.773
184.099
181.172
177.968
174.43
170.514
166.196
161.365
156.05
150.076
143.541
136.077
127.926
118.707
107.612
100.788
204.845
205.185
203.686
202.169
200.48
198.487
196.23
193.643
190.69
187.374
183.661
179.472
174.789
169.515
163.669
156.981
149.761
141.379
131.813
125.405
217.107
217.564
216.274
215.02
213.641
212.003
210.129
208.015
205.621
202.916
199.842
196.334
192.393
187.89
182.859
177.049
170.68
163.192
154.783
149.63
227.865
228.63
227.936
227.236
226.454
225.443
224.215
222.745
220.975
218.902
216.469
213.635
210.345
206.527
202.178
197.071
191.444
184.657
177.009
172.7
238.952
239.981
239.662
239.321
238.904
238.293
237.494
236.486
235.24
233.734
231.895
229.695
227.099
224.025
220.433
216.153
211.263
205.317
198.142
194.062
248.752
250.081
250.255
250.425
250.539
250.496
250.271
249.876
249.233
248.352
247.16
245.665
243.762
241.423
238.592
235.105
231.125
226.059
219.959
215.407
258.498
260.114
260.718
261.285
261.821
262.199
262.426
262.482
262.343
262.004
261.391
260.489
259.233
257.614
255.513
252.903
249.727
245.636
240.832
236.024
267.395
269.313
270.316
271.304
272.248
273.072
273.749
274.303
274.667
274.863
274.787
274.501
273.876
272.957
271.61
269.847
267.576
264.591
261.055
256.547
276.01
278.113
279.289
280.511
281.745
282.891
283.942
284.88
285.671
286.316
286.767
287.021
287.005
286.744
286.09
285.11
283.582
281.615
278.914
275.464
282.734
285.006
286.69
288.378
290.046
291.626
293.097
294.48
295.718
296.846
297.778
298.559
299.069
299.378
299.307
298.976
298.148
296.967
295.081
292.475
289.438
291.96
293.777
295.663
297.545
299.361
301.109
302.794
304.372
305.856
307.18
308.365
309.335
310.095
310.539
310.706
310.424
309.809
308.549
306.56
294.363
296.927
299.07
301.257
303.454
305.594
307.681
309.709
311.647
313.501
315.204
316.805
318.164
319.375
320.222
320.902
321.075
321.056
320.263
318.89
298.538
301.328
303.654
306.057
308.463
310.831
313.149
315.435
317.628
319.764
321.765
323.665
325.355
326.889
328.112
329.158
329.729
330.095
329.688
328.862
301.59
304.473
306.964
309.547
312.152
314.717
317.263
319.755
322.201
324.561
326.825
328.954
330.917
332.703
334.256
335.611
336.551
337.373
337.389
337.422
303.361
306.332
308.96
311.694
314.441
317.171
319.862
322.537
325.132
327.682
330.096
332.433
334.561
336.602
338.355
339.951
341.173
342.187
342.665
342.832
304.045
307.152
309.845
312.667
315.517
318.335
321.14
323.905
326.628
329.28
331.841
334.297
336.62
338.806
340.778
342.546
343.984
345.174
345.775
345.752
303.389
306.422
309.184
312.063
314.979
317.876
320.773
323.645
326.488
329.272
331.984
334.618
337.125
339.526
341.672
343.699
345.252
346.701
347.352
347.919
301.426
304.572
307.427
310.38
313.358
316.314
319.26
322.178
325.055
327.865
330.61
333.244
335.778
338.11
340.306
342.183
343.907
345.143
346.101
346.364
15.283
13.0065
10.6149
8.18141
5.78141
3.37141
0.96033
-1.50684
-3.86836
-6.28686
-8.83297
-11.0612
-12.8173
-14.9188
-16.6559
-18.1689
-17.7741
-17.6498
-17.6792
-20.5782
19.2891
16.8954
14.4187
11.928
9.39784
6.78012
4.28098
1.59854
-0.925046
-3.60409
-6.26016
-8.93786
-11.2714
-13.8536
-16.377
-17.7397
-17.7767
-18.5297
-17.6115
-18.793
22.7726
20.3071
17.7582
15.1428
12.5247
9.75258
7.06364
4.23435
1.45443
-1.3809
-4.28257
-7.20483
-10.1808
-12.5841
-14.945
-17.0717
-18.9346
-18.3385
-18.1025
-18.8119
26.5487
23.9312
21.2302
18.4285
15.6253
12.6155
9.71809
6.61196
3.59925
0.461061
-2.62986
-5.89597
-9.07935
-12.1304
-15.0958
-17.9757
-19.8286
-18.9649
-19.6385
-19.6727
30.0251
27.238
24.3998
21.371
18.4038
15.1592
11.9876
8.6395
5.26105
1.80455
-1.73682
-5.2953
-8.97932
-12.5107
-15.9356
-19.0195
-21.2516
-22.3224
-22.5653
-22.4732
33.704
30.728
27.7461
24.497
21.2924
17.7816
14.3026
10.593
6.85595
2.96696
-1.01293
-5.08524
-9.29335
-13.5036
-17.7236
-21.6342
-25.3362
-28.3123
-27.7565
-28.4345
37.4481
34.3201
31.1785
27.6686
24.2484
20.4533
16.6292
12.5725
8.35855
3.9739
-0.606594
-5.33964
-10.2738
-15.3863
-20.5675
-25.8417
-30.865
-35.0808
-35.7112
-36.6306
41.4699
38.1822
34.9279
31.2253
27.5518
23.4917
19.3178
14.8563
10.1966
5.27675
0.0757254
-5.37516
-11.2076
-17.3488
-23.7314
-30.6043
-37.5998
-43.9398
-47.6247
-48.4002
46.2497
42.8048
39.4107
35.4687
31.5695
27.2259
22.696
17.8569
12.7108
7.24395
1.41433
-4.80669
-11.5177
-18.6298
-26.4086
-34.8227
-43.6905
-52.583
-59.7099
-60.4805
51.8309
48.1415
44.6178
40.4539
36.2944
31.7179
26.8793
21.6968
16.1663
10.2448
3.86731
-2.96262
-10.3982
-18.4003
-27.2217
-36.7458
-47.0937
-58.153
-67.6558
-67.8092
58.4761
54.4267
50.8518
46.4971
42.1502
37.3779
32.2729
26.8056
20.9309
14.6081
7.79836
0.434089
-7.6115
-16.3252
-25.9312
-36.45
-47.8454
-60.4494
-71.1311
-74.0485
65.6602
61.3853
57.731
53.3483
48.8234
43.9483
38.6904
33.0502
26.9751
20.4322
13.3314
5.65776
-2.75489
-11.8415
-21.9393
-32.9204
-44.8965
-58.5714
-70.2932
-74.1971
73.9647
69.4528
65.7678
61.3737
56.7689
51.8489
46.5044
40.7586
34.5638
27.8524
20.5917
12.6896
4.04984
-5.32763
-15.7394
-26.8559
-39.1791
-53.0358
-66.5827
-69.6059
82.0127
77.5121
74.0963
69.95
65.4462
60.6463
55.3848
49.6873
43.5047
36.7715
29.4429
21.4536
12.685
3.13296
-7.50315
-18.8136
-31.8496
-45.8169
-58.9657
-63.1417
92.2162
87.5474
84.1726
80.2647
75.7767
71.0686
65.8893
60.2545
54.1427
47.4665
40.1967
32.2327
23.4849
13.8766
3.23774
-8.18232
-21.6017
-34.925
-48.3347
-53.444
102.133
97.5571
94.5709
91.036
86.844
82.3911
77.4652
72.0497
66.1292
59.6148
52.4911
44.6635
36.0382
26.5781
16.1017
4.67372
-8.37758
-21.9682
-35.52
-40.9309
113.368
109.251
106.606
103.5
99.5376
95.3004
90.5995
85.3839
79.6592
73.3598
66.4646
58.8685
50.5187
41.3215
31.1496
20.086
7.60137
-5.87025
-20.0542
-25.5389
124.688
121.062
118.928
116.411
112.914
109.001
104.642
99.7365
94.3175
88.3026
81.7026
74.4026
66.3565
57.481
47.6835
37.036
24.8555
12.1442
-2.27549
-8.08606
141.528
137.75
134.975
132.487
129.057
125.081
120.73
115.9
110.568
104.703
98.304
91.2493
83.5325
75.021
65.7132
55.4668
44.0063
31.8109
17.4333
11.5079
166.086
162.514
156.132
151.824
147.417
142.691
137.847
132.76
127.382
121.62
115.448
108.714
101.38
93.3126
84.4693
74.775
63.8053
52.1936
38.2284
31.9814
97.6404
98.1185
96.8995
96.1919
94.3202
92.6885
91.3564
89.7127
88.2989
86.5076
84.7366
82.6702
79.9392
77.4765
72.7752
69.2367
61.2182
54.3629
40.6276
26.8639
98.1086
98.5674
97.5193
96.8777
95.2525
93.6896
92.5335
91.0018
89.7257
88.0314
86.3964
84.4647
81.9599
79.5861
75.1255
71.8801
63.813
57.6099
43.948
31.0616
98.5721
99.101
98.2887
97.5268
96.1724
94.682
93.7079
92.3031
91.1737
89.6043
88.1519
86.2962
83.9479
81.8021
77.4516
74.4953
66.6121
60.8138
47.1967
35.1574
98.9742
99.5124
98.9276
98.1472
97.0798
95.6454
94.8568
93.5691
92.5755
91.1018
89.7884
88.068
85.953
83.8866
79.7884
77.1384
69.3014
64.0729
50.562
39.1756
99.3569
99.9076
99.5375
98.7342
97.9711
96.605
96.0008
94.8476
93.987
92.6316
91.4973
89.8302
87.9214
86.0521
82.1155
79.7512
72.104
67.2611
53.9547
43.2884
99.6907
100.229
100.072
99.2943
98.8522
97.5448
97.1269
96.1023
95.3636
94.1068
93.1111
91.5767
89.8888
88.1224
84.4355
82.4203
74.919
70.5672
57.442
47.3795
100.003
100.513
100.594
99.8406
99.7121
98.4847
98.2471
97.3628
96.7445
95.5978
94.7739
93.2794
91.8399
90.2388
86.781
85.0792
77.7414
74.4992
61.0257
51.6743
100.272
100.83
101.096
100.384
100.568
99.4166
99.3575
98.6096
98.1017
97.0526
96.3632
94.9906
93.7714
92.2737
89.1032
87.7019
80.4931
78.0951
64.798
55.6908
100.525
101.085
101.573
100.913
101.405
100.354
100.461
99.8586
99.4551
98.5082
97.9792
96.6467
95.7041
94.3579
91.4899
90.3369
83.4902
81.7691
68.3797
60.6988
100.733
101.304
102.06
101.442
102.247
101.296
101.563
101.102
100.795
99.9421
99.5393
98.3092
97.6047
96.3669
93.8035
92.8933
86.2664
85.2895
72.4465
67.4253
100.93
101.503
102.53
101.961
103.073
102.25
102.659
102.345
102.123
101.364
101.105
99.9159
99.5149
98.4276
96.23
95.5439
89.4772
89.019
76.4697
73.7717
101.09
101.657
103.057
102.486
103.909
103.221
103.759
103.588
103.445
102.774
102.628
101.524
101.391
100.421
98.5453
98.0405
92.319
92.3489
80.9997
80.1984
101.24
101.814
103.653
102.996
104.733
104.212
104.855
104.827
104.752
104.163
104.138
103.078
103.279
102.466
100.997
100.715
95.588
95.9392
85.4228
86.3758
101.385
101.97
104.233
103.518
105.579
105.233
105.964
106.074
106.059
105.547
105.615
104.63
105.143
104.46
103.335
103.202
98.4734
99.2083
90.5672
93.3538
101.532
102.129
104.809
104.029
106.392
106.275
107.064
107.306
107.334
106.888
107.043
106.112
106.997
106.48
105.771
105.851
101.654
102.786
95.5449
100.743
101.664
102.24
105.359
104.536
107.215
107.348
108.186
108.542
108.611
108.226
108.449
107.599
108.856
108.486
108.133
108.334
104.564
106.483
101.605
109.223
101.812
102.355
105.973
105.101
108.364
108.469
109.355
109.816
109.939
109.608
109.902
109.128
110.832
110.605
110.716
111.143
107.871
110.311
107.683
117.411
101.969
102.536
106.951
105.725
109.572
109.605
110.48
111.066
111.172
110.877
111.174
110.473
112.634
112.519
112.966
113.444
110.319
113.375
113.365
125.063
102.003
102.196
107.436
106.251
110.047
110.56
111.351
112.061
111.999
111.67
111.883
111.259
114.018
114.013
114.713
115.107
112.234
116.354
120.504
136.244
103.35
101.134
107.817
107.118
111.215
111.81
112.976
113.51
113.859
113.553
114.152
113.782
116.719
117.316
118.68
119.192
118.284
123.652
132.489
151.104
126.443
106.643
121.273
117.057
123.632
121.67
126.253
125.917
130.314
131.841
136.598
139.591
142.443
144.636
150.341
153.429
162.256
164.022
181.052
176.984
124.647
121.797
125.053
124.12
127.305
127.752
130.765
132.135
135.63
138.071
142.348
145.667
151.187
155.65
161.752
167.702
176.587
183.591
196.135
207.313
134.307
133.985
134.632
135.33
137.192
138.567
140.641
142.561
145.301
147.611
150.625
153.657
157.408
160.619
165.165
169.844
175.486
181.371
188.9
197.278
136.761
136.905
137.537
138.491
139.841
141.408
143.415
145.505
148.089
150.706
154.013
156.99
160.659
164.462
168.852
173.298
177.966
183.487
187.839
192.724
139.961
140.39
141.065
142.422
143.723
145.21
146.894
148.55
150.564
152.456
154.627
156.728
159.209
161.599
164.224
166.967
169.567
172.504
175.411
179.881
140.898
141.059
141.857
143.177
144.606
146.19
147.875
149.644
151.589
153.459
155.658
157.692
159.96
162.209
164.221
167.083
168.468
171.532
172.46
173.249
141.02
141.351
142.413
144.093
145.57
147.011
148.54
149.898
151.439
152.758
154.18
155.43
156.728
157.842
158.962
160.119
161.439
162.718
163.68
164.885
141.236
141.853
142.909
144.576
146.02
147.539
149.056
150.419
151.894
153.083
154.539
155.621
156.899
157.879
158.829
159.538
160.448
161.286
160.955
160.981
140.461
141.713
143.034
144.644
146.513
147.737
149.337
150.325
151.614
152.452
153.472
154.138
154.896
155.423
156.119
156.414
156.557
156.29
156.431
156.469
141.013
141.712
144.036
145.442
147.51
148.669
150.197
151.051
152.269
152.877
153.856
154.203
154.963
155.163
155.516
155.507
155.688
155.616
155.36
154.871
142.972
143.661
146.32
147.382
149.515
150.356
151.744
152.337
153.269
153.632
154.207
154.401
154.722
154.741
155.128
154.83
154.759
153.981
153.645
153.134
145.963
145.921
150.387
150.669
152.463
152.861
153.851
154.005
154.652
154.625
155.063
154.882
155.12
154.853
154.783
154.349
154.078
153.758
153.336
152.729
157.238
155.41
156.311
155.973
156.799
156.781
157.073
157.017
157.075
156.911
156.83
156.554
156.386
156.014
155.559
155.141
154.679
153.842
153.172
152.176
166.939
165.092
162.841
162.711
161.307
161.029
160.167
159.695
159.132
158.485
158.056
157.335
156.928
156.188
155.756
155.045
154.512
153.87
153.267
152.586
173.188
172.372
168.491
167.28
165.743
164.129
163.427
161.972
161.515
160.362
159.895
158.97
158.432
157.616
156.994
156.215
155.536
154.648
153.902
152.981
176.891
174.216
172.472
169.857
168.701
166.733
165.732
164.173
163.275
161.973
161.176
160.021
159.269
158.213
157.477
156.511
155.762
154.915
154.196
153.415
186.07
174.474
173.397
170.827
169.618
167.71
166.552
165.05
164.032
162.758
161.853
160.746
159.914
158.916
158.115
157.18
156.378
155.511
154.722
153.868
178.832
175.468
174.4
171.851
170.862
168.913
167.86
166.268
165.193
163.84
162.803
161.612
160.64
159.578
158.658
157.69
156.811
155.861
155.021
154.145
181.243
173.78
173.214
171.608
170.464
168.953
167.8
166.363
165.309
163.975
162.995
161.777
160.846
159.739
158.851
157.841
157
156.079
155.248
154.388
177.603
175.186
174.228
172.304
171.137
169.52
168.303
166.897
165.702
164.45
163.314
162.18
161.114