/*--------------------------------*- C++ -*----------------------------------*\
  =========                 |
  \\      /  F ield         | OpenFOAM: The Open Source CFD Toolbox
   \\    /   O peration     | Website:  https://openfoam.org
    \\  /    A nd           | Version:  9
     \\/     M anipulation  |
\*---------------------------------------------------------------------------*/
FoamFile
{
    format      ascii;
    class       surfaceScalarField;
    location    "6.07";
    object      phi;
}
// * * * * * * * * * * * * * * * * * * * * * * * * * * * * * * * * * * * * * //

dimensions      [0 3 -1 0 0 0 0];

internalField   nonuniform List<scalar> 
92080
(
-0.00653897
-0.511758
0.518297
-0.0348067
-0.989605
1.01787
-0.0813738
-1.05501
1.10158
-0.127592
-1.03621
1.08242
-0.171782
-1.02014
1.06433
-0.215015
-1.00343
1.04666
-0.257394
-0.987312
1.02969
-0.299391
-0.971566
1.01356
-0.341319
-0.956469
0.998397
-0.382553
-0.944101
0.985335
-0.423499
-0.931455
0.9724
-0.464085
-0.919237
0.959823
-0.504196
-0.909683
0.949795
-0.543284
-0.898607
0.937695
-0.582127
-0.888232
0.927075
-0.620433
-0.878537
0.916843
-0.657666
-0.869311
0.906545
-0.694932
-0.859277
0.896543
-0.731574
-0.84958
0.886223
-0.843805
0.876643
-0.764411
-0.0079196
-0.503838
-0.0406257
-0.956899
-0.0848977
-1.01074
-0.130432
-0.990671
-0.176256
-0.974315
-0.221575
-0.958109
-0.266421
-0.942467
-0.310152
-0.927835
-0.353659
-0.912962
-0.396883
-0.900877
-0.438365
-0.889973
-0.479944
-0.877658
-0.520565
-0.869063
-0.560012
-0.859159
-0.598869
-0.849375
-0.636928
-0.840479
-0.673874
-0.832365
-0.708675
-0.824476
-0.741309
-0.816947
-0.810889
-0.774225
-0.00657154
-0.497267
-0.0442705
-0.9192
-0.0928759
-0.962135
-0.140795
-0.942752
-0.187332
-0.927778
-0.233048
-0.912392
-0.27849
-0.897026
-0.323482
-0.882842
-0.367569
-0.868876
-0.412309
-0.856137
-0.456066
-0.846215
-0.499297
-0.834426
-0.542718
-0.825642
-0.584328
-0.817549
-0.625121
-0.808582
-0.665599
-0.800001
-0.705447
-0.792516
-0.744877
-0.785047
-0.783287
-0.778536
-0.773287
-0.820889
-0.000518813
-0.496748
-0.042668
-0.877051
-0.0917427
-0.91306
-0.141584
-0.892911
-0.191266
-0.878096
-0.239509
-0.864149
-0.286424
-0.850111
-0.332661
-0.836605
-0.378079
-0.823458
-0.423141
-0.811075
-0.467569
-0.801788
-0.510785
-0.79121
-0.554532
-0.781895
-0.597813
-0.774268
-0.639717
-0.766679
-0.681075
-0.758643
-0.721784
-0.751806
-0.761833
-0.744998
-0.801429
-0.73894
-0.73338
-0.841337
0.00185131
-0.498599
-0.0420196
-0.83318
-0.0949225
-0.860157
-0.146537
-0.841296
-0.197251
-0.827382
-0.247062
-0.814337
-0.296065
-0.801108
-0.343894
-0.788777
-0.39043
-0.776922
-0.437542
-0.763963
-0.484002
-0.755328
-0.529561
-0.745651
-0.574281
-0.737175
-0.61886
-0.72969
-0.662348
-0.72319
-0.705485
-0.715507
-0.748316
-0.708975
-0.790473
-0.702842
-0.832131
-0.697282
-0.692393
-0.873118
0.00269746
-0.501297
-0.0424889
-0.787994
-0.0979151
-0.804731
-0.151801
-0.78741
-0.20506
-0.774123
-0.256622
-0.762775
-0.306529
-0.751201
-0.356064
-0.739241
-0.403229
-0.729757
-0.449849
-0.717342
-0.496988
-0.708189
-0.542903
-0.699735
-0.589321
-0.690757
-0.635356
-0.683655
-0.680681
-0.677866
-0.724288
-0.6719
-0.768379
-0.664883
-0.811988
-0.659232
-0.855304
-0.653967
-0.649228
-0.898468
0.00178287
-0.503079
-0.0468387
-0.739372
-0.103081
-0.748489
-0.157314
-0.733177
-0.211062
-0.720376
-0.264222
-0.709615
-0.315447
-0.699975
-0.366142
-0.688547
-0.415659
-0.68024
-0.462884
-0.670118
-0.510585
-0.660488
-0.557005
-0.653316
-0.602604
-0.645157
-0.648719
-0.63754
-0.69536
-0.631225
-0.740946
-0.626314
-0.785214
-0.620615
-0.830045
-0.6144
-0.874694
-0.609318
-0.604805
-0.919116
-0.00399597
-0.499083
-0.0559747
-0.687393
-0.114194
-0.690269
-0.167907
-0.679464
-0.22131
-0.666972
-0.274942
-0.655984
-0.327492
-0.647425
-0.379281
-0.636758
-0.430865
-0.628656
-0.480476
-0.620507
-0.529469
-0.611495
-0.578273
-0.604511
-0.625584
-0.597847
-0.672326
-0.590797
-0.719027
-0.584524
-0.766238
-0.579104
-0.812134
-0.574719
-0.856816
-0.569718
-0.901806
-0.564328
-0.559557
-0.947054
-0.0122333
-0.48685
-0.0641467
-0.63548
-0.120441
-0.633975
-0.175181
-0.624725
-0.228167
-0.613986
-0.280897
-0.603254
-0.33289
-0.595432
-0.384092
-0.585556
-0.435558
-0.577191
-0.486084
-0.56998
-0.535544
-0.562035
-0.585042
-0.555013
-0.633754
-0.549135
-0.68153
-0.543022
-0.729314
-0.536739
-0.776942
-0.531477
-0.825062
-0.526598
-0.87186
-0.522921
-0.917273
-0.518914
-0.514516
-0.962315
-0.0201888
-0.466661
-0.0756392
-0.580029
-0.135079
-0.574535
-0.190907
-0.568897
-0.244495
-0.560398
-0.297595
-0.550154
-0.349501
-0.543526
-0.400038
-0.535019
-0.45064
-0.526589
-0.501415
-0.519205
-0.551667
-0.511783
-0.601825
-0.504856
-0.652068
-0.498892
-0.700967
-0.494122
-0.748883
-0.488824
-0.796644
-0.483716
-0.844388
-0.478854
-0.892836
-0.474473
-0.940722
-0.471029
-0.467765
-0.987473
-0.0272765
-0.439385
-0.0813909
-0.525915
-0.13924
-0.516686
-0.196335
-0.511802
-0.250588
-0.506144
-0.303779
-0.496963
-0.357135
-0.490169
-0.408321
-0.483833
-0.458043
-0.476867
-0.506931
-0.470318
-0.555245
-0.463469
-0.603233
-0.456867
-0.651815
-0.45031
-0.701013
-0.444924
-0.749469
-0.440369
-0.797079
-0.436106
-0.84403
-0.431902
-0.890729
-0.427775
-0.937762
-0.423996
-0.420568
-0.984959
-0.0354338
-0.403951
-0.0901561
-0.471193
-0.14698
-0.459862
-0.206512
-0.45227
-0.263917
-0.448739
-0.318615
-0.442265
-0.373621
-0.435164
-0.428091
-0.429363
-0.481541
-0.423417
-0.533318
-0.418541
-0.583789
-0.412998
-0.632858
-0.407798
-0.680771
-0.402397
-0.728862
-0.396834
-0.777218
-0.392012
-0.825724
-0.3876
-0.873559
-0.384067
-0.920808
-0.380525
-0.967277
-0.377527
-0.374545
-1.0133
-0.0414767
-0.362474
-0.0973386
-0.415331
-0.151667
-0.405534
-0.206428
-0.397509
-0.264892
-0.390275
-0.319091
-0.388066
-0.371487
-0.382767
-0.423202
-0.377648
-0.475301
-0.371318
-0.527422
-0.36642
-0.578747
-0.361673
-0.629832
-0.356713
-0.679431
-0.352797
-0.728143
-0.348122
-0.775955
-0.344201
-0.823768
-0.339787
-0.871653
-0.336182
-0.919561
-0.332617
-0.967437
-0.329651
-0.326877
-1.0151
-0.0483846
-0.31409
-0.106842
-0.356873
-0.162181
-0.350195
-0.215856
-0.343834
-0.271941
-0.33419
-0.330204
-0.329803
-0.387479
-0.325492
-0.44183
-0.323297
-0.494366
-0.318782
-0.546013
-0.314773
-0.596874
-0.310812
-0.647006
-0.306581
-0.696817
-0.302986
-0.745935
-0.299004
-0.79442
-0.295715
-0.842178
-0.292029
-0.889479
-0.28888
-0.936556
-0.285541
-0.983461
-0.282746
-0.279807
-1.03053
-0.0509573
-0.263133
-0.11346
-0.294371
-0.17262
-0.291035
-0.225691
-0.290763
-0.275533
-0.284347
-0.327353
-0.277984
-0.381278
-0.271568
-0.436611
-0.267963
-0.490573
-0.26482
-0.544201
-0.261145
-0.596659
-0.258354
-0.648532
-0.254708
-0.699493
-0.252025
-0.74983
-0.248668
-0.799634
-0.245911
-0.848763
-0.242901
-0.897492
-0.240151
-0.945646
-0.237386
-0.993494
-0.234898
-0.232278
-1.04102
-0.0540926
-0.20904
-0.11572
-0.232743
-0.178994
-0.227761
-0.242785
-0.226972
-0.300461
-0.226672
-0.353401
-0.225044
-0.405091
-0.219878
-0.457351
-0.215703
-0.50932
-0.212851
-0.561415
-0.20905
-0.612892
-0.206877
-0.664034
-0.203566
-0.714532
-0.201527
-0.764361
-0.198838
-0.81367
-0.196602
-0.862242
-0.194329
-0.910408
-0.191985
-0.958059
-0.189735
-1.00547
-0.187489
-0.185143
-1.0526
-0.0531404
-0.155899
-0.107534
-0.178349
-0.159012
-0.176283
-0.216311
-0.169673
-0.27293
-0.170053
-0.330117
-0.167857
-0.385698
-0.164297
-0.44018
-0.16122
-0.494362
-0.15867
-0.547841
-0.15557
-0.601775
-0.152943
-0.654385
-0.150956
-0.707246
-0.148666
-0.759008
-0.147076
-0.810627
-0.144983
-0.861287
-0.143669
-0.911579
-0.141693
-0.960877
-0.140436
-1.00969
-0.138674
-0.137273
-1.05756
-0.0582301
-0.0976693
-0.126489
-0.110091
-0.185764
-0.117008
-0.241591
-0.113846
-0.299583
-0.112061
-0.35704
-0.1104
-0.41305
-0.108288
-0.466671
-0.107599
-0.519689
-0.105652
-0.571931
-0.103328
-0.623523
-0.101351
-0.67413
-0.100349
-0.723964
-0.0988324
-0.773246
-0.0977941
-0.821851
-0.0963784
-0.870198
-0.0953213
-0.918142
-0.0937497
-0.965783
-0.0927952
-1.01318
-0.0912798
-0.0904736
-1.05998
-0.0425245
-0.0551449
-0.0939671
-0.0586481
-0.153857
-0.057118
-0.214747
-0.0529558
-0.274612
-0.0521958
-0.335552
-0.0494596
-0.393528
-0.0503115
-0.450916
-0.050211
-0.507425
-0.049143
-0.562073
-0.0486801
-0.614992
-0.0484324
-0.667036
-0.0483046
-0.718063
-0.0478052
-0.769014
-0.0468435
-0.81904
-0.046352
-0.869093
-0.0452691
-0.918198
-0.0446444
-0.966864
-0.044129
-1.01483
-0.0433107
-0.0432445
-1.06206
-0.0491181
-0.00602674
-0.108352
0.000585815
-0.168818
0.00334779
-0.22727
0.00549612
-0.283896
0.00443078
-0.340209
0.00685331
-0.395767
0.00524585
-0.45224
0.0062621
-0.507243
0.00586062
-0.560966
0.00504236
-0.613583
0.00418475
-0.665745
0.00385756
-0.717898
0.00434796
-0.769174
0.00443224
-0.820336
0.00480976
-0.87062
0.0050153
-0.920353
0.00508845
-0.969712
0.00523027
-1.0184
0.00537443
-1.06704
0.00539588
0.0419468
-0.250759
0.208812
0.119598
-0.795044
0.717393
0.184369
-1.28551
1.22074
0.208207
-1.47323
1.44939
0.214128
-1.4908
1.48488
0.214628
-1.47902
1.47852
0.213562
-1.45932
1.46039
0.212509
-1.44255
1.4436
0.21149
-1.42729
1.4283
0.210184
-1.41292
1.41422
0.208241
-1.39929
1.40124
0.206684
-1.38689
1.38845
0.2045
-1.37395
1.37613
0.201436
-1.3611
1.36417
0.197784
-1.34828
1.35194
0.193574
-1.3336
1.33781
0.188905
-1.31714
1.32181
0.183668
-1.29785
1.30308
0.177835
-1.28075
1.28658
-1.26267
0.172539
1.26797
0.034012
-0.284771
0.10055
-0.861582
0.15521
-1.34017
0.170867
-1.48889
0.173936
-1.49387
0.172514
-1.47759
0.170704
-1.45751
0.168476
-1.44032
0.165951
-1.42476
0.162602
-1.40957
0.159424
-1.39611
0.155368
-1.38283
0.150743
-1.36932
0.146327
-1.35669
0.141639
-1.3436
0.136531
-1.32849
0.130234
-1.31084
0.123352
-1.29096
0.116321
-1.27372
-1.25605
0.109699
0.0390949
-0.323866
0.0964306
-0.918918
0.13396
-1.3777
0.141383
-1.49631
0.140652
-1.49314
0.136502
-1.47344
0.132555
-1.45356
0.128278
-1.43605
0.123106
-1.41959
0.118421
-1.40488
0.113018
-1.39071
0.107549
-1.37736
0.102065
-1.36384
0.0961017
-1.35073
0.0895936
-1.33709
0.0822038
-1.3211
0.0743162
-1.30296
0.0663423
-1.28299
0.0579565
-1.26533
-1.24829
0.0502042
0.0330213
-0.356887
0.0851615
-0.971058
0.11528
-1.40782
0.117545
-1.49857
0.112877
-1.48848
0.106075
-1.46664
0.0993066
-1.44679
0.0920702
-1.42881
0.0854278
-1.41295
0.0777405
-1.3972
0.0701291
-1.3831
0.0623664
-1.3696
0.0539749
-1.35545
0.0454916
-1.34224
0.036815
-1.32841
0.0281518
-1.31244
0.0190712
-1.29387
0.009668
-1.27359
0.000460874
-1.25613
-1.23953
-0.00830595
0.0296536
-0.386541
0.0710982
-1.0125
0.0890467
-1.42577
0.0855203
-1.49505
0.0777072
-1.48066
0.0699414
-1.45888
0.061751
-1.4386
0.0535758
-1.42063
0.0441799
-1.40355
0.0354042
-1.38842
0.0262076
-1.3739
0.01641
-1.3598
0.00658918
-1.34563
-0.00331642
-1.33234
-0.0133584
-1.31837
-0.0238796
-1.30192
-0.0347496
-1.283
-0.0454707
-1.26287
-0.0560444
-1.24555
-1.22968
-0.065893
0.0269576
-0.413498
0.0639829
-1.04953
0.0758723
-1.43766
0.0696192
-1.4888
0.0592159
-1.47026
0.0482138
-1.44787
0.0366753
-1.42707
0.0246148
-1.40857
0.0132151
-1.39215
0.0010602
-1.37627
-0.0111455
-1.3617
-0.0229218
-1.34803
-0.0350498
-1.3335
-0.0474172
-1.31997
-0.0598739
-1.30591
-0.0720633
-1.28973
-0.0841229
-1.27095
-0.0960804
-1.25091
-0.108012
-1.23362
-1.2185
-0.119187
0.0222497
-0.435748
0.0504724
-1.07775
0.0532174
-1.4404
0.0414528
-1.47703
0.0279509
-1.45676
0.0150442
-1.43497
0.00206122
-1.41408
-0.0108816
-1.39563
-0.0245691
-1.37846
-0.0379589
-1.36288
-0.0514799
-1.34818
-0.065587
-1.33392
-0.0797536
-1.31933
-0.0937391
-1.30598
-0.107502
-1.29215
-0.121034
-1.2762
-0.134396
-1.25758
-0.14753
-1.23777
-0.160251
-1.2209
-1.20606
-0.172693
0.0206296
-0.456378
0.0438938
-1.10101
0.0420316
-1.43854
0.0285267
-1.46353
0.0129342
-1.44116
-0.00295496
-1.41908
-0.0193126
-1.39772
-0.0358306
-1.37911
-0.0520822
-1.36221
-0.0685665
-1.34639
-0.0852009
-1.33154
-0.101366
-1.31776
-0.117575
-1.30312
-0.133957
-1.2896
-0.150062
-1.27604
-0.165708
-1.26055
-0.180697
-1.24259
-0.195263
-1.22321
-0.209838
-1.20633
-1.19185
-0.224055
0.0162837
-0.472661
0.0331744
-1.11791
0.024661
-1.43003
0.00657281
-1.44544
-0.0118404
-1.42275
-0.0297718
-1.40115
-0.0476532
-1.37984
-0.0658883
-1.36088
-0.084117
-1.34398
-0.102314
-1.32819
-0.120307
-1.31355
-0.138525
-1.29954
-0.156824
-1.28482
-0.174967
-1.27146
-0.192872
-1.25814
-0.21004
-1.24338
-0.226699
-1.22593
-0.243092
-1.20682
-0.259242
-1.19018
-1.17599
-0.275098
0.0149797
-0.487641
0.0259217
-1.12885
0.0128783
-1.41699
-0.00758691
-1.42497
-0.028483
-1.40186
-0.0493958
-1.38023
-0.0703462
-1.35889
-0.0909018
-1.34032
-0.111798
-1.32309
-0.13252
-1.30747
-0.153422
-1.29265
-0.173906
-1.27905
-0.194113
-1.26462
-0.214288
-1.25128
-0.233981
-1.23845
-0.253079
-1.22428
-0.270984
-1.20803
-0.28839
-1.18941
-0.305832
-1.17273
-1.15863
-0.323191
0.0116949
-0.499336
0.0188291
-1.13598
0.00264105
-1.4008
-0.0203625
-1.40197
-0.0436588
-1.37856
-0.0667169
-1.35718
-0.0896856
-1.33592
-0.113246
-1.31676
-0.136085
-1.30025
-0.159098
-1.28446
-0.181763
-1.26998
-0.204291
-1.25652
-0.226879
-1.24203
-0.24938
-1.22878
-0.271589
-1.21624
-0.292958
-1.20292
-0.313374
-1.18761
-0.333051
-1.16973
-0.352738
-1.15305
-1.13919
-0.372179
0.00985714
-0.509193
0.0104846
-1.13661
-0.0128308
-1.37748
-0.0394634
-1.37534
-0.0655867
-1.35244
-0.0911475
-1.33162
-0.116373
-1.3107
-0.141025
-1.29211
-0.166421
-1.27485
-0.191329
-1.25955
-0.216385
-1.24493
-0.241037
-1.23187
-0.265157
-1.21791
-0.289227
-1.20471
-0.312965
-1.1925
-0.336177
-1.1797
-0.358118
-1.16567
-0.379236
-1.14862
-0.400218
-1.13206
-1.11812
-0.421287
0.00780074
-0.516994
0.00649687
-1.13531
-0.0162786
-1.35471
-0.0440571
-1.34756
-0.0721357
-1.32436
-0.100231
-1.30352
-0.128162
-1.28277
-0.156404
-1.26387
-0.183724
-1.24753
-0.211378
-1.2319
-0.238703
-1.2176
-0.26576
-1.20481
-0.292685
-1.19099
-0.319389
-1.17801
-0.345718
-1.16617
-0.371471
-1.15395
-0.396055
-1.14109
-0.41955
-1.12512
-0.442829
-1.10879
-1.09496
-0.46599
0.00508221
-0.522076
-0.00218974
-1.12803
-0.0326433
-1.32425
-0.0649312
-1.31527
-0.0959848
-1.2933
-0.126224
-1.27328
-0.155807
-1.25318
-0.185016
-1.23466
-0.214758
-1.21779
-0.243939
-1.20272
-0.273216
-1.18832
-0.302038
-1.17599
-0.330311
-1.16271
-0.358581
-1.14974
-0.386582
-1.13817
-0.414162
-1.12637
-0.440747
-1.1145
-0.466103
-1.09977
-0.491164
-1.08372
-1.06996
-0.516163
0.00406143
-0.526137
-0.00557708
-1.11839
-0.0347434
-1.29509
-0.0672677
-1.28275
-0.100051
-1.26052
-0.132804
-1.24053
-0.165338
-1.22065
-0.197537
-1.20246
-0.229114
-1.18621
-0.260962
-1.17087
-0.29282
-1.15647
-0.324373
-1.14444
-0.355427
-1.13166
-0.386228
-1.11894
-0.416731
-1.10767
-0.446942
-1.09616
-0.476094
-1.08535
-0.50378
-1.07208
-0.530639
-1.05687
-1.0432
-0.557395
0.00145058
-0.527588
-0.0124283
-1.10452
-0.0482215
-1.25929
-0.0853817
-1.24559
-0.120905
-1.225
-0.155566
-1.20587
-0.189503
-1.18671
-0.223478
-1.16848
-0.257163
-1.15253
-0.290206
-1.13782
-0.323406
-1.12327
-0.356556
-1.11129
-0.389119
-1.0991
-0.42158
-1.08648
-0.453777
-1.07547
-0.485888
-1.06405
-0.517546
-1.05369
-0.547675
-1.04195
-0.576556
-1.02798
-1.01469
-0.605073
-0.00020546
-0.527383
-0.0181796
-1.08654
-0.052573
-1.2249
-0.0895677
-1.20859
-0.126755
-1.18781
-0.163758
-1.16886
-0.200272
-1.1502
-0.236059
-1.1327
-0.272036
-1.11655
-0.307626
-1.10223
-0.343138
-1.08776
-0.378597
-1.07583
-0.413483
-1.06421
-0.448018
-1.05194
-0.482104
-1.04138
-0.51589
-1.03026
-0.549416
-1.02017
-0.581853
-1.00951
-0.612578
-0.997259
-0.984513
-0.642752
-0.00140668
-0.525976
-0.021687
-1.06626
-0.0615336
-1.18505
-0.102092
-1.16803
-0.141485
-1.14842
-0.180292
-1.13006
-0.218543
-1.11195
-0.256832
-1.09441
-0.294228
-1.07915
-0.331388
-1.06507
-0.368341
-1.0508
-0.405507
-1.03867
-0.442325
-1.02739
-0.479081
-1.01519
-0.5155
-1.00496
-0.551498
-0.994264
-0.58717
-0.984496
-0.622059
-0.974625
-0.655372
-0.963946
-0.952104
-0.687781
-0.00368365
-0.522292
-0.0267237
-1.04322
-0.067621
-1.14416
-0.10968
-1.12597
-0.150821
-1.10727
-0.19159
-1.08929
-0.231436
-1.0721
-0.270561
-1.05528
-0.310292
-1.03942
-0.348923
-1.02644
-0.387471
-1.01225
-0.426073
-1.00006
-0.464184
-0.98928
-0.502463
-0.976908
-0.540732
-0.966695
-0.57887
-0.956126
-0.617159
-0.946206
-0.65485
-0.936934
-0.691566
-0.92723
-0.916967
-0.726703
-0.00399551
-0.029344
-0.0719207
-0.11547
-0.158417
-0.201044
-0.243455
-0.285175
-0.326202
-0.36731
-0.407164
-0.447404
-0.48689
-0.526103
-0.565723
-0.605006
-0.644668
-0.685059
-0.726066
-0.766391
0.11673
-10.9404
10.9962
0.0843189
-10.2779
10.3103
0.0521583
-10.0441
10.0763
0.0342123
-9.64447
9.66242
0.0212524
-9.54373
9.55669
0.0139297
-9.27894
9.28626
0.00850065
-9.15637
9.1618
0.00582425
-8.96695
8.96962
0.00253882
-8.87197
8.87525
0.00345082
-8.74953
8.74862
0.00688147
-8.68217
8.67874
0.0109007
-8.5983
8.59428
0.017214
-8.54679
8.54048
0.0199069
-8.5336
8.5309
0.0221962
-8.48168
8.47939
0.0268213
-8.41733
8.41271
0.0246736
-8.29249
8.29464
0.0200857
-7.31476
7.31935
0.0123131
-5.34879
5.35657
-2.24666
2.25898
0.0467245
-10.8775
0.0127827
-10.2439
-0.0159288
-10.0154
-0.028295
-9.6321
-0.0377531
-9.53427
-0.0424795
-9.27421
-0.0460677
-9.15278
-0.0463383
-8.96668
-0.0462423
-8.87206
-0.0414367
-8.75434
-0.0338512
-8.68976
-0.0255742
-8.60658
-0.0152107
-8.55716
-0.00795639
-8.54085
9.24354e-05
-8.48973
0.00997315
-8.42721
0.0139647
-8.29648
0.0151656
-7.31596
0.0108328
-5.34446
-2.23583
-0.015931
-10.8113
-0.0496161
-10.2102
-0.0781955
-9.98683
-0.092541
-9.61776
-0.101475
-9.52534
-0.103313
-9.27237
-0.102879
-9.15321
-0.0987952
-8.97076
-0.0945807
-8.87628
-0.0865668
-8.76235
-0.0754684
-8.70086
-0.0628955
-8.61915
-0.0480587
-8.57199
-0.0359329
-8.55298
-0.0223808
-8.50328
-0.00714269
-8.44245
0.00289691
-8.30652
0.00996062
-7.32303
0.0101873
-5.34469
-2.22564
-0.0789905
-10.7406
-0.116419
-10.1728
-0.144336
-9.95892
-0.155603
-9.60649
-0.16135
-9.51959
-0.16031
-9.27341
-0.157848
-9.15568
-0.151026
-8.97758
-0.142863
-8.88444
-0.130965
-8.77425
-0.115799
-8.71602
-0.0991838
-8.63576
-0.0801436
-8.59104
-0.0634285
-8.56969
-0.0445614
-8.52215
-0.0241259
-8.46289
-0.00855868
-8.32209
0.00415712
-7.33574
0.00865431
-5.34919
-2.21699
-0.143564
-10.663
-0.182865
-10.1335
-0.208472
-9.93331
-0.219906
-9.59506
-0.224374
-9.51512
-0.220528
-9.27726
-0.214036
-9.16217
-0.202983
-8.98864
-0.190824
-8.8966
-0.175664
-8.78941
-0.157052
-8.73464
-0.136319
-8.6565
-0.112701
-8.61465
-0.0912022
-8.59119
-0.067074
-8.54627
-0.041816
-8.48814
-0.0208991
-8.343
-0.00221432
-7.35443
0.00785185
-5.35925
-2.20914
-0.200637
-10.5815
-0.243545
-10.0906
-0.272845
-9.90401
-0.283386
-9.58452
-0.284315
-9.51419
-0.277233
-9.28434
-0.268724
-9.17068
-0.254969
-9.00239
-0.238622
-8.91295
-0.219455
-8.80858
-0.196915
-8.75718
-0.172284
-8.68113
-0.144572
-8.64237
-0.118626
-8.61714
-0.0895228
-8.57538
-0.0597498
-8.51792
-0.0334537
-8.3693
-0.00911315
-7.37877
0.0059398
-5.37431
-2.2032
-0.265376
-10.4888
-0.311115
-10.0449
-0.337653
-9.87747
-0.347517
-9.57465
-0.347539
-9.51417
-0.337217
-9.29466
-0.32415
-9.18374
-0.306233
-9.02031
-0.28588
-8.9333
-0.263298
-8.83116
-0.237321
-8.78315
-0.208685
-8.70976
-0.176568
-8.67448
-0.146116
-8.64759
-0.112207
-8.60929
-0.077782
-8.55234
-0.0457949
-8.40129
-0.0158508
-7.40871
0.0046108
-5.39477
-2.19859
-0.320912
-10.392
-0.372808
-9.99296
-0.402416
-9.84786
-0.409628
-9.56744
-0.405968
-9.51783
-0.393251
-9.30738
-0.378276
-9.19872
-0.357398
-9.04119
-0.332785
-8.95791
-0.306168
-8.85778
-0.276387
-8.81293
-0.243952
-8.7422
-0.207987
-8.71045
-0.17338
-8.6822
-0.134838
-8.64783
-0.095838
-8.59134
-0.0580354
-8.43909
-0.022327
-7.44442
0.00302513
-5.42012
-2.19556
-0.380769
-10.2863
-0.435743
-9.93799
-0.465701
-9.81791
-0.472917
-9.56022
-0.468391
-9.52236
-0.45211
-9.32366
-0.432445
-9.21838
-0.407698
-9.06593
-0.379138
-8.98647
-0.348818
-8.8881
-0.315464
-8.84629
-0.279279
-8.77838
-0.239422
-8.7503
-0.200586
-8.72103
-0.157665
-8.69075
-0.114034
-8.63497
-0.0701987
-8.48292
-0.0288157
-7.4858
0.00166495
-5.4506
-2.1939
-0.439316
-10.1702
-0.500269
-9.87704
-0.530884
-9.78729
-0.534001
-9.55711
-0.525784
-9.53057
-0.507887
-9.34156
-0.485864
-9.24041
-0.457688
-9.09411
-0.424906
-9.01925
-0.390555
-8.92245
-0.353557
-8.88329
-0.313774
-8.81817
-0.27037
-8.79371
-0.227488
-8.76391
-0.180558
-8.73768
-0.132774
-8.68276
-0.0825669
-8.53313
-0.0353403
-7.53303
2.44678e-05
-5.48596
-2.19387
-0.493876
-10.0485
-0.557508
-9.8134
-0.58995
-9.75485
-0.593406
-9.55365
-0.585066
-9.53891
-0.564047
-9.36257
-0.538088
-9.26637
-0.50653
-9.12567
-0.47007
-9.05571
-0.432016
-8.9605
-0.391382
-8.92392
-0.348058
-8.86149
-0.301103
-8.84066
-0.254089
-8.81093
-0.203123
-8.78864
-0.151494
-8.73439
-0.0951144
-8.58951
-0.0417026
-7.58644
-0.00142264
-5.52624
-2.19529
-0.554032
-9.91573
-0.621139
-9.7463
-0.653195
-9.72279
-0.652965
-9.55388
-0.64171
-9.55017
-0.61924
-9.38504
-0.590258
-9.29535
-0.55501
-9.16092
-0.514459
-9.09626
-0.472505
-9.00245
-0.428426
-8.968
-0.381596
-8.90832
-0.331247
-8.89101
-0.28034
-8.86184
-0.225275
-8.84371
-0.16986
-8.7898
-0.10764
-8.65173
-0.0480226
-7.64606
-0.00288198
-5.57138
-2.19818
-0.606013
-9.77571
-0.675304
-9.67701
-0.708797
-9.6893
-0.709647
-9.55303
-0.697602
-9.56221
-0.672332
-9.41031
-0.640279
-9.3274
-0.602078
-9.19912
-0.558098
-9.14024
-0.512415
-9.04814
-0.4647
-9.01571
-0.414463
-8.95856
-0.361106
-8.94437
-0.306636
-8.9163
-0.247222
-8.90312
-0.187901
-8.84912
-0.120569
-8.71906
-0.0548022
-7.71183
-0.00424567
-5.62194
-2.20242
-0.664288
-9.62758
-0.735116
-9.60618
-0.768108
-9.65631
-0.766475
-9.55466
-0.752311
-9.57638
-0.725412
-9.43721
-0.690386
-9.36243
-0.648641
-9.24086
-0.60091
-9.18797
-0.551396
-9.09765
-0.500308
-9.0668
-0.446733
-9.01213
-0.390031
-9.00107
-0.332399
-8.97394
-0.268994
-8.96653
-0.205723
-8.91239
-0.133355
-8.79143
-0.0615555
-7.78363
-0.00567363
-5.67782
-2.2081
-0.715376
-9.4696
-0.788321
-9.53323
-0.821746
-9.62288
-0.821199
-9.55521
-0.806071
-9.5915
-0.776362
-9.46692
-0.738002
-9.40079
-0.693568
-9.2853
-0.642699
-9.23884
-0.589534
-9.15081
-0.534996
-9.12134
-0.478099
-9.06903
-0.418153
-9.06102
-0.357347
-9.03474
-0.290384
-9.03349
-0.223213
-8.97956
-0.145901
-8.86874
-0.0683065
-7.86122
-0.00736458
-5.73877
-2.21546
-0.768684
-9.30599
-0.843608
-9.45831
-0.877083
-9.58941
-0.874917
-9.55738
-0.858284
-9.60814
-0.826801
-9.49841
-0.785539
-9.44205
-0.737621
-9.33322
-0.683547
-9.29292
-0.626801
-9.20756
-0.568814
-9.17933
-0.508629
-9.12922
-0.445503
-9.12414
-0.381553
-9.09869
-0.311493
-9.10355
-0.240738
-9.05032
-0.158489
-8.95099
-0.0753622
-7.94435
-0.009265
-5.80486
-2.22472
-0.818883
-9.12986
-0.89572
-9.38147
-0.928835
-9.55629
-0.92764
-9.55857
-0.909441
-9.62634
-0.875028
-9.53282
-0.830506
-9.48657
-0.779848
-9.38387
-0.723142
-9.34962
-0.663102
-9.2676
-0.601739
-9.24069
-0.53821
-9.19274
-0.47193
-9.19042
-0.404855
-9.16577
-0.331909
-9.1765
-0.257843
-9.12439
-0.171115
-9.03772
-0.0825803
-8.03288
-0.0114176
-5.87603
-2.23614
-0.870064
-8.94758
-0.948442
-9.30309
-0.980953
-9.52378
-0.978692
-9.56083
-0.959572
-9.64546
-0.922882
-9.56951
-0.875048
-9.53441
-0.820902
-9.43802
-0.761508
-9.40902
-0.698147
-9.33096
-0.633559
-9.30528
-0.566936
-9.25937
-0.497606
-9.25975
-0.427383
-9.23599
-0.352065
-9.25182
-0.274759
-9.20169
-0.183542
-9.12894
-0.0894337
-8.12699
-0.0139936
-5.95147
-2.25014
-0.910822
-8.76346
-0.999369
-9.21455
-1.03305
-9.49011
-1.03098
-9.5629
-1.0091
-9.66733
-0.969492
-9.60912
-0.918552
-9.58535
-0.861228
-9.49534
-0.799234
-9.47101
-0.732788
-9.39741
-0.664763
-9.3733
-0.594818
-9.32931
-0.522506
-9.33207
-0.44906
-9.30944
-0.371424
-9.32945
-0.291239
-9.28188
-0.196001
-9.22417
-0.0965193
-8.22647
-0.0167328
-6.03125
-2.26687
-0.946292
-8.58356
-1.03986
-9.12098
-1.0752
-9.45477
-1.07445
-9.56365
-1.05352
-9.68826
-1.01177
-9.65087
-0.958739
-9.63838
-0.898302
-9.55578
-0.834494
-9.53482
-0.765165
-9.46674
-0.694514
-9.44396
-0.621399
-9.40243
-0.546488
-9.40698
-0.469978
-9.38595
-0.390502
-9.40893
-0.30714
-9.36524
-0.208327
-9.32299
-0.102533
-8.33227
-0.0201926
-6.11359
-2.28706
7.27687
-7.92095
-7.93948
6.32594
-8.17005
5.42873
-8.55756
4.60871
-8.74363
3.86116
-8.94071
3.20892
-8.99864
2.66839
-9.09784
2.22319
-9.11058
1.84021
-9.15184
1.53254
-9.15907
1.26833
-9.17975
1.04612
-9.18022
0.855167
-9.21602
0.68566
-9.21644
0.537939
-9.26121
0.423644
-9.25094
0.322836
-9.22218
0.257901
-8.26733
0.103979
-5.95967
-2.18308
3.96656
-7.67615
-4.21136
3.67372
-7.8772
3.30473
-8.18858
2.93611
-8.375
2.54871
-8.5533
2.20219
-8.65212
1.88169
-8.77734
1.61218
-8.84107
1.36734
-8.90701
1.16313
-8.95486
0.985989
-9.00261
0.839821
-9.03405
0.695094
-9.07129
0.57139
-9.09274
0.450617
-9.14043
0.357079
-9.1574
0.232229
-9.09733
0.143178
-8.17828
-0.0695442
-5.74695
-2.25263
2.57101
-7.66584
-2.58133
2.55012
-7.85631
2.42245
-8.06091
2.27474
-8.2273
2.08205
-8.36061
1.89083
-8.46089
1.68092
-8.56744
1.49162
-8.65177
1.30798
-8.72336
1.13585
-8.78273
0.972503
-8.83926
0.823265
-8.88481
0.673429
-8.92146
0.5465
-8.96581
0.407009
-9.00094
0.292925
-9.04332
0.181952
-8.98636
0.116324
-8.11265
0.0216082
-5.65223
-2.23102
1.52732
-7.76356
-1.42959
1.55932
-7.8883
1.50986
-8.01145
1.43649
-8.15393
1.35023
-8.27435
1.2501
-8.36077
1.12866
-8.446
1.00735
-8.53046
0.883254
-8.59926
0.766489
-8.66596
0.644196
-8.71697
0.531151
-8.77177
0.436148
-8.82645
0.347816
-8.87748
0.272831
-8.92596
0.201644
-8.97213
0.110697
-8.89541
0.0934783
-8.09543
0.0745301
-5.63328
-2.15649
0.836347
-7.85616
-0.74375
0.906586
-7.95854
0.952739
-8.05761
0.952207
-8.1534
0.910759
-8.2329
0.860831
-8.31084
0.792006
-8.37717
0.715894
-8.45435
0.632551
-8.51592
0.54423
-8.57764
0.461119
-8.63386
0.378415
-8.68906
0.289416
-8.73746
0.199043
-8.7871
0.113097
-8.84001
0.0313491
-8.89038
-0.0375639
-8.8265
-0.0248985
-8.1081
0.0318184
-5.69
-2.12467
0.45784
-7.95385
-0.360153
0.524183
-8.02489
0.547987
-8.08141
0.545655
-8.15107
0.521751
-8.209
0.488542
-8.27763
0.449651
-8.33828
0.395505
-8.4002
0.337994
-8.45841
0.272362
-8.51201
0.205751
-8.56725
0.134135
-8.61745
0.0616426
-8.66496
-0.00659146
-8.71887
-0.0754967
-8.77111
-0.140873
-8.82501
-0.184313
-8.78306
-0.130801
-8.16161
0.0157231
-5.83652
-2.10895
0.145268
-8.01605
-0.0830688
0.183534
-8.06315
0.2067
-8.10458
0.222081
-8.16645
0.231003
-8.21792
0.224104
-8.27073
0.202081
-8.31626
0.169595
-8.36772
0.126402
-8.41522
0.0793024
-8.46491
0.0232051
-8.51115
-0.0353353
-8.55891
-0.0943971
-8.6059
-0.159445
-8.65382
-0.22242
-8.70813
-0.29268
-8.75475
-0.339601
-8.73614
-0.262504
-8.23871
-0.0363806
-6.06265
-2.14533
-0.0104806
-8.06889
0.0633213
0.028587
-8.10222
0.0565104
-8.1325
0.0587483
-8.16869
0.0470108
-8.20618
0.0272147
-8.25093
0.00502285
-8.29407
-0.0265119
-8.33618
-0.0618686
-8.37986
-0.107181
-8.4196
-0.150785
-8.46754
-0.201632
-8.50806
-0.257
-8.55053
-0.320561
-8.59026
-0.390591
-8.6381
-0.460037
-8.6853
-0.509973
-8.6862
-0.435046
-8.31364
-0.131707
-6.36599
-2.27703
-0.14303
-8.09453
0.168671
-0.127963
-8.11729
-0.120004
-8.14046
-0.115574
-8.17312
-0.114662
-8.20709
-0.122177
-8.24342
-0.139129
-8.27712
-0.166754
-8.30856
-0.2014
-8.34521
-0.241232
-8.37977
-0.29144
-8.41734
-0.348379
-8.45112
-0.407031
-8.49188
-0.471972
-8.52532
-0.540082
-8.56999
-0.61922
-8.60616
-0.677714
-8.62771
-0.618336
-8.37301
-0.265421
-6.7189
-2.54246
-0.195473
-8.11112
0.212064
-0.183238
-8.12952
-0.17457
-8.14913
-0.174007
-8.17368
-0.183033
-8.19806
-0.203342
-8.22311
-0.233258
-8.2472
-0.268892
-8.27292
-0.308749
-8.30536
-0.35532
-8.3332
-0.408172
-8.36448
-0.465335
-8.39396
-0.529985
-8.42723
-0.602521
-8.45278
-0.691177
-8.48134
-0.794512
-8.50283
-0.876065
-8.54615
-0.851061
-8.39802
-0.473199
-7.09676
-3.01565
-0.212033
-8.11473
0.215645
-0.212318
-8.12924
-0.217415
-8.14403
-0.230118
-8.16098
-0.249225
-8.17896
-0.274976
-8.19736
-0.302762
-8.21941
-0.33569
-8.23999
-0.377429
-8.26362
-0.426512
-8.28411
-0.482514
-8.30848
-0.547338
-8.32913
-0.620792
-8.35378
-0.69754
-8.37603
-0.787541
-8.39133
-0.891555
-8.39881
-1.00052
-8.43719
-1.01584
-8.38269
-0.701426
-7.41118
-3.71708
-0.199044
-8.1095
0.193812
-0.20858
-8.1197
-0.220176
-8.13243
-0.237314
-8.14384
-0.258364
-8.15791
-0.28467
-8.17105
-0.317507
-8.18658
-0.355549
-8.20195
-0.401941
-8.21723
-0.454556
-8.2315
-0.515873
-8.24716
-0.583807
-8.2612
-0.663667
-8.27392
-0.752224
-8.28748
-0.84805
-8.29551
-0.944159
-8.30271
-1.06659
-8.31476
-1.15778
-8.29149
-0.938498
-7.63047
-4.65558
-0.158861
-8.09833
0.147687
-0.17433
-8.10423
-0.192992
-8.11377
-0.214289
-8.12254
-0.238555
-8.13364
-0.26621
-8.1434
-0.298454
-8.15433
-0.338225
-8.16218
-0.381588
-8.17386
-0.431408
-8.18168
-0.487199
-8.19137
-0.551973
-8.19642
-0.625236
-8.20065
-0.710515
-8.2022
-0.803049
-8.20297
-0.893944
-8.21181
-1.00916
-8.19955
-1.12301
-8.17764
-0.956953
-7.79652
-5.61253
-0.119936
-8.08443
0.106037
-0.135096
-8.08907
-0.153129
-8.09574
-0.174603
-8.10107
-0.200109
-8.10814
-0.23038
-8.11313
-0.263303
-8.12141
-0.299859
-8.12562
-0.339997
-8.13373
-0.385467
-8.13621
-0.434881
-8.14196
-0.48945
-8.14186
-0.546129
-8.14398
-0.60726
-8.14107
-0.671988
-8.13825
-0.756278
-8.12752
-0.848846
-8.10698
-0.948319
-8.07817
-0.837292
-7.90755
-6.44982
-0.0749843
-8.06737
0.0579273
-0.0934134
-8.07064
-0.113123
-8.07603
-0.135083
-8.07911
-0.158873
-8.08435
-0.185218
-8.08678
-0.214635
-8.09199
-0.244943
-8.09532
-0.279454
-8.09921
-0.316336
-8.09933
-0.356242
-8.10205
-0.398225
-8.09987
-0.441735
-8.10047
-0.492393
-8.09041
-0.545622
-8.08502
-0.60698
-8.06616
-0.657374
-8.05659
-0.716046
-8.0195
-0.66743
-7.95617
-7.11725
-0.017325
-8.05218
0.00213219
-0.0337522
-8.05422
-0.0524954
-8.05728
-0.0720548
-8.05955
-0.0933078
-8.06309
-0.114355
-8.06574
-0.137367
-8.06898
-0.16388
-8.0688
-0.191429
-8.07167
-0.220103
-8.07065
-0.249437
-8.07272
-0.28113
-8.06818
-0.312179
-8.06942
-0.34583
-8.05676
-0.377217
-8.05363
-0.414439
-8.02894
-0.443387
-8.02764
-0.456604
-8.00628
-0.425431
-7.98734
-7.54269
0.0126772
-8.03989
-0.0249624
-0.000927373
-8.04061
-0.0162916
-8.04192
-0.0332617
-8.04258
-0.0525436
-8.04381
-0.0738009
-8.04448
-0.0962901