/*--------------------------------*- C++ -*----------------------------------*\
  =========                 |
  \\      /  F ield         | OpenFOAM: The Open Source CFD Toolbox
   \\    /   O peration     | Website:  https://openfoam.org
    \\  /    A nd           | Version:  9
     \\/     M anipulation  |
\*---------------------------------------------------------------------------*/
FoamFile
{
    format      ascii;
    class       volVectorField;
    location    "6.07";
    object      U;
}
// * * * * * * * * * * * * * * * * * * * * * * * * * * * * * * * * * * * * * //

dimensions      [0 1 -1 0 0 0 0];

internalField   nonuniform List<vector> 
46400
(
(9.29438 -8.91851 -4.71572e-19)
(18.0201 -17.5062 4.36022e-19)
(18.9164 -19.0695 -5.90956e-20)
(18.1389 -19.2546 1.44138e-20)
(17.5898 -19.303 -4.59151e-20)
(16.9353 -19.3833 -4.33507e-19)
(16.3262 -19.3913 2.13166e-19)
(15.755 -19.4202 -2.32502e-20)
(15.2017 -19.4655 1.54061e-20)
(14.7042 -19.5038 -8.41334e-21)
(14.2086 -19.5561 2.15739e-21)
(13.7529 -19.5906 0)
(13.3517 -19.6906 -1.87561e-20)
(12.9141 -19.6998 1.01631e-20)
(12.5065 -19.7343 -8.30917e-20)
(12.1316 -19.7707 -5.54148e-20)
(11.7446 -19.8108 -3.44876e-20)
(11.4002 -19.7618 1.03003e-19)
(11.0308 -19.7576 2.07125e-19)
(10.5769 -20.015 -1.86263e-19)
(9.51436 -8.40817 0)
(18.0763 -16.3304 -3.33524e-20)
(18.8859 -17.7295 0)
(18.1083 -17.8558 -2.3314e-19)
(17.4723 -17.9013 1.64109e-19)
(16.817 -18.0079 -4.2066e-20)
(16.2297 -18.1061 0)
(15.6424 -18.1727 2.32495e-20)
(15.0731 -18.2299 -1.54059e-20)
(14.5922 -18.3427 8.41347e-21)
(14.1064 -18.4228 1.09607e-19)
(13.6481 -18.4831 3.94377e-20)
(13.2228 -18.5779 -1.386e-19)
(12.8357 -18.6519 0)
(12.4505 -18.7212 1.7065e-20)
(12.0905 -18.7773 2.08066e-20)
(11.751 -18.857 0)
(11.4603 -18.8814 -3.2479e-19)
(11.1642 -18.905 -9.08501e-20)
(10.7516 -19.1198 3.24762e-19)
(9.71306 -7.86206 -1.40035e-19)
(18.0179 -15.0959 6.92044e-20)
(18.5909 -16.2346 -1.1744e-19)
(17.753 -16.436 -2.27923e-20)
(17.1715 -16.5547 2.23781e-20)
(16.5396 -16.7031 0)
(15.9265 -16.8043 -1.89271e-19)
(15.3819 -16.9324 1.54594e-19)
(14.826 -17.0461 -2.94971e-19)
(14.3298 -17.1429 2.95146e-19)
(13.8753 -17.3216 3.23383e-19)
(13.4123 -17.3872 -2.0337e-20)
(13.0277 -17.5757 -2.89479e-19)
(12.6218 -17.664 0)
(12.2189 -17.7582 4.18175e-19)
(11.8658 -17.8472 -4.11843e-19)
(11.5072 -17.9572 0)
(11.2117 -18.0054 -1.92962e-20)
(10.8963 -18.1218 4.73412e-20)
(10.5045 -18.3948 -4.90536e-19)
(10.0054 -7.31717 -7.7778e-21)
(17.7865 -13.7164 -1.5194e-20)
(18.22 -14.7483 8.35615e-20)
(17.4692 -15.0037 -8.2561e-20)
(16.8543 -15.1924 -1.02263e-19)
(16.2326 -15.3942 1.51001e-19)
(15.6477 -15.5746 2.35545e-19)
(15.0836 -15.7117 -6.45881e-19)
(14.5383 -15.8697 5.52798e-19)
(14.0457 -16.0029 -4.74323e-20)
(13.5919 -16.1786 0)
(13.1539 -16.3082 5.44307e-20)
(12.729 -16.4403 -5.71906e-20)
(12.398 -16.6357 0)
(12.0437 -16.7821 5.87913e-19)
(11.6898 -16.8982 -4.95169e-19)
(11.3693 -17.0448 0)
(11.0803 -17.1345 6.5973e-20)
(10.7882 -17.2527 8.33715e-20)
(10.3825 -17.5483 6.4028e-19)
(10.347 -6.90997 0)
(17.4621 -12.3765 0)
(17.7858 -13.3684 -2.32042e-19)
(16.9444 -13.5893 1.49235e-19)
(16.328 -13.835 -3.3964e-19)
(15.7584 -14.0852 2.83024e-19)
(15.1713 -14.3208 0)
(14.6503 -14.5258 3.38862e-19)
(14.1207 -14.7264 -4.04601e-19)
(13.6319 -14.8883 -1.0097e-19)
(13.2051 -15.132 -1.02307e-19)
(12.7779 -15.2924 0)
(12.381 -15.497 7.49133e-19)
(11.9945 -15.641 -7.37424e-19)
(11.6335 -15.8311 0)
(11.3053 -15.9712 -8.4277e-19)
(10.9678 -16.1503 7.4764e-19)
(10.6905 -16.2625 7.58202e-19)
(10.4052 -16.4297 -8.20221e-19)
(10.032 -16.7401 0)
(10.6885 -6.46987 0)
(16.9476 -11.0792 0)
(17.0377 -11.8868 0)
(16.3529 -12.2545 -3.50242e-20)
(15.7603 -12.5726 0)
(15.1841 -12.8669 0)
(14.6331 -13.1493 0)
(14.1187 -13.3878 -1.25026e-19)
(13.6268 -13.6533 0)
(13.1273 -13.8064 1.00974e-19)
(12.7022 -14.0631 -2.43483e-20)
(12.3071 -14.2629 -1.0553e-18)
(11.9134 -14.4806 7.87924e-19)
(11.5985 -14.7112 -1.05168e-18)
(11.2855 -14.9475 7.87216e-19)
(10.9461 -15.113 0)
(10.6417 -15.3056 -9.11525e-19)
(10.366 -15.4666 7.76382e-19)
(10.0916 -15.6347 0)
(9.72841 -15.9764 -1.25029e-19)
(11.0385 -6.0241 4.40654e-19)
(16.3693 -9.91908 1.41033e-19)
(16.3481 -10.6326 5.24838e-19)
(15.6076 -10.9365 -5.4931e-19)
(14.9973 -11.3092 -5.47995e-19)
(14.5177 -11.6547 1.09275e-18)
(13.9944 -12.0166 -1.25532e-18)
(13.5052 -12.2718 1.13418e-19)
(13.0663 -12.6172 3.99372e-19)
(12.6126 -12.8323 0)
(12.1868 -13.0886 -2.34346e-20)
(11.8148 -13.3332 -2.24053e-20)
(11.4199 -13.5432 1.26117e-19)
(11.0535 -13.7469 1.07041e-18)
(10.737 -13.9825 -9.4945e-19)
(10.4712 -14.2369 -1.21145e-18)
(10.137 -14.4163 1.05282e-18)
(9.87248 -14.5985 -1.75225e-20)
(9.61684 -14.7941 -1.36002e-19)
(9.27711 -15.1515 -9.575e-19)
(11.2406 -5.65018 -1.55081e-19)
(15.5535 -8.70458 3.46498e-20)
(15.3072 -9.38822 -1.78863e-19)
(14.7775 -9.7969 -6.98412e-19)
(14.2253 -10.1941 4.75068e-19)
(13.6992 -10.5452 0)
(13.2462 -10.944 9.98715e-19)
(12.7635 -11.2554 -4.78982e-19)
(12.3391 -11.6038 3.2774e-19)
(11.922 -11.9081 1.74282e-19)
(11.5033 -12.1752 -3.259e-19)
(11.1611 -12.4717 7.86799e-19)
(10.8192 -12.7434 1.6798e-19)
(10.4977 -12.988 -9.39423e-19)
(10.1835 -13.2337 2.62945e-18)
(9.89337 -13.468 -1.07292e-18)
(9.646 -13.7437 1.35807e-18)
(9.35846 -13.9111 -8.86933e-19)
(9.10465 -14.1028 2.89459e-19)
(8.777 -14.4687 1.39259e-18)
(11.2199 -5.22264 8.16479e-19)
(14.718 -7.61616 -1.76305e-19)
(14.4341 -8.28038 -3.06679e-20)
(13.9327 -8.70134 3.88603e-19)
(13.3642 -9.12633 1.79945e-19)
(12.9073 -9.49196 2.05836e-19)
(12.463 -9.91004 -9.48252e-19)
(12.0229 -10.2342 5.7869e-19)
(11.6247 -10.606 -1.76049e-19)
(11.2584 -10.9421 -1.74288e-19)
(10.8744 -11.2571 -1.72335e-19)
(10.5256 -11.5483 -1.90255e-19)
(10.198 -11.8565 -3.55174e-19)
(9.86858 -12.1133 1.2348e-18)
(9.56727 -12.3836 -1.72307e-18)
(9.30033 -12.6456 -1.77832e-19)
(9.02679 -12.9085 1.63799e-20)
(8.81435 -13.169 -1.2955e-18)
(8.56696 -13.3655 9.69669e-19)
(8.25335 -13.7215 -1.53305e-18)
(11.0055 -4.69713 7.94131e-19)
(13.705 -6.58403 -2.02584e-18)
(13.2928 -7.25717 1.33845e-18)
(12.869 -7.73611 -2.08849e-19)
(12.4208 -8.2362 -2.33287e-19)
(11.9483 -8.60937 9.01483e-19)
(11.5631 -9.05714 -1.08879e-18)
(11.1509 -9.4051 0)
(10.7536 -9.76049 8.40588e-19)
(10.4056 -10.1127 -8.26544e-19)
(10.0516 -10.4495 -6.00828e-19)
(9.72996 -10.7736 7.81741e-19)
(9.44061 -11.1026 1.87199e-19)
(9.168 -11.4229 -7.71344e-19)
(8.87578 -11.6919 1.83209e-19)
(8.6064 -11.9673 9.23571e-19)
(8.3671 -12.2369 -1.63332e-18)
(8.13955 -12.4967 1.079e-18)
(7.95852 -12.7586 -1.41213e-20)
(7.69689 -13.1362 -1.49493e-18)
(10.5962 -4.13778 1.14047e-18)
(12.6401 -5.62111 -7.61925e-19)
(12.2141 -6.24949 5.07313e-19)
(11.9084 -6.7949 6.56807e-21)
(11.4707 -7.32261 -1.00286e-18)
(11.0624 -7.73263 -9.46318e-19)
(10.7088 -8.2047 1.1791e-18)
(10.3489 -8.60753 -6.92791e-19)
(9.98971 -8.9794 9.21305e-19)
(9.64933 -9.32453 0)
(9.3256 -9.65503 1.80543e-20)
(9.00823 -9.96805 2.08933e-19)
(8.71217 -10.2716 2.21687e-19)
(8.45844 -10.5966 -2.17197e-19)
(8.22196 -10.9093 0)
(7.98005 -11.1981 2.08418e-19)
(7.73133 -11.4686 0)
(7.50849 -11.7191 3.86354e-19)
(7.29387 -11.9567 1.88784e-18)
(7.06509 -12.3247 -1.12131e-20)
(9.9695 -3.56076 6.39646e-19)
(11.5354 -4.77542 -1.34516e-19)
(11.014 -5.38258 -1.94665e-18)
(10.6719 -5.88867 1.08802e-18)
(10.367 -6.55332 2.56985e-19)
(9.97975 -6.98027 -2.52931e-19)
(9.6128 -7.47725 -1.03625e-18)
(9.32167 -7.92871 7.74041e-19)
(9.00848 -8.37337 0)
(8.72449 -8.77923 0)
(8.42656 -9.14744 -1.18689e-18)
(8.14801 -9.50022 9.40713e-19)
(7.86924 -9.81101 -2.217e-19)
(7.6036 -10.1189 -6.79976e-19)
(7.37093 -10.4225 5.20033e-21)
(7.16526 -10.7334 1.51578e-18)
(6.97931 -11.0364 -8.46577e-19)
(6.79039 -11.3089 6.23601e-19)
(6.6215 -11.5689 -1.00743e-18)
(6.4081 -11.9059 0)
(9.15524 -2.96805 -5.63875e-19)
(10.3986 -4.00056 9.00607e-19)
(9.91543 -4.65262 1.54612e-19)
(9.55515 -5.07338 1.51867e-19)
(9.25092 -5.7138 0)
(8.98681 -6.23281 1.13244e-18)
(8.66599 -6.70381 -1.11265e-18)
(8.36202 -7.13692 1.40257e-19)
(8.0794 -7.55932 0)
(7.83301 -7.98937 1.04142e-18)
(7.5895 -8.38578 -8.93022e-19)
(7.35306 -8.77354 9.96365e-19)
(7.12826 -9.13682 -9.80554e-19)
(6.89366 -9.4685 9.52672e-19)
(6.67127 -9.7852 -8.18093e-19)
(6.44847 -10.0798 -9.10653e-19)
(6.25161 -10.3831 1.7875e-18)
(6.074 -10.6658 -7.65309e-19)
(5.91026 -10.945 1.09486e-19)
(5.74276 -11.2976 9.07979e-19)
(8.14996 -2.38521 -4.56407e-19)
(9.08831 -3.32919 4.88628e-19)
(8.68776 -4.01038 -1.54614e-19)
(8.38128 -4.48791 -1.51884e-19)
(7.97547 -5.03395 0)
(7.82151 -5.60292 0)
(7.57534 -6.17318 0)
(7.35407 -6.67271 -2.88214e-19)
(7.06694 -7.11587 -1.12617e-18)
(6.82142 -7.53654 2.20811e-18)
(6.59454 -7.94099 -1.21396e-18)
(6.35861 -8.31624 -1.34962e-19)
(6.17335 -8.68798 0)
(5.97261 -9.03735 0)
(5.80675 -9.37518 -2.45668e-19)
(5.62731 -9.69211 0)
(5.46524 -9.99715 9.35333e-19)
(5.29747 -10.2808 -1.15072e-18)
(5.15078 -10.5553 -1.00168e-18)
(4.98038 -10.8849 9.62391e-19)
(7.00516 -1.82272 4.78895e-19)
(7.83029 -2.72132 8.60205e-19)
(7.53724 -3.48116 -3.19061e-22)
(7.2687 -4.03049 -1.40497e-21)
(6.92598 -4.52762 1.63791e-19)
(6.60628 -4.97837 -4.73074e-19)
(6.36693 -5.48629 0)
(6.22738 -6.00084 -4.56679e-19)
(6.05032 -6.50666 1.548e-19)
(5.87954 -6.95343 5.80939e-19)
(5.69418 -7.41042 5.63525e-19)
(5.52778 -7.80537 -4.19476e-19)
(5.34025 -8.21582 1.07435e-18)
(5.16923 -8.56616 -9.23403e-19)
(4.99621 -8.9378 1.1497e-18)
(4.83452 -9.25746 -2.13593e-18)
(4.68088 -9.59672 9.84737e-19)
(4.53987 -9.88906 1.17203e-19)
(4.40614 -10.1889 9.30113e-19)
(4.26766 -10.518 -1.00395e-18)
(5.73357 -1.33629 1.68304e-19)
(6.15613 -2.16112 -1.75987e-19)
(5.99588 -2.88024 7.07111e-19)
(5.99595 -3.63795 -6.94039e-19)
(5.7946 -4.28796 -3.38037e-19)
(5.60239 -4.81491 -8.22467e-19)
(5.32586 -5.30263 3.87062e-21)
(5.09514 -5.75164 6.33859e-19)
(4.91922 -6.23832 -1.51214e-19)
(4.73326 -6.65239 0)
(4.59419 -7.11751 0)
(4.42197 -7.49008 0)
(4.30456 -7.92236 0)
(4.1662 -8.26216 4.75895e-21)
(4.04581 -8.65274 0)
(3.92727 -8.96383 1.2785e-19)
(3.80167 -9.31643 5.06064e-19)
(3.68623 -9.59806 -1.48692e-18)
(3.57036 -9.90715 1.09696e-18)
(3.44577 -10.2226 -1.03027e-18)
(4.5394 -0.956487 0)
(5.06741 -1.70978 -9.46437e-20)
(4.75294 -2.29944 0)
(4.49724 -2.84615 2.66862e-19)
(4.45337 -3.53749 -1.78946e-19)
(4.3872 -4.07001 -6.83728e-19)
(4.2152 -4.69833 4.00471e-21)
(4.08741 -5.15205 6.56239e-19)
(3.94841 -5.71737 -6.36161e-19)
(3.80975 -6.12844 1.24624e-18)
(3.68238 -6.64778 -4.97145e-21)
(3.56648 -7.03732 -5.95754e-19)
(3.43997 -7.50209 5.76197e-19)
(3.33191 -7.86605 -7.06077e-19)
(3.21283 -8.28631 0)
(3.11575 -8.62035 -5.34983e-19)
(3.00815 -9.00478 5.26998e-19)
(2.91907 -9.30576 0)
(2.82169 -9.63849 -1.2308e-19)
(2.72656 -9.96223 0)
(3.09132 -0.538286 9.86269e-20)
(3.47847 -1.55083 9.47464e-20)
(3.54899 -2.27232 0)
(3.34182 -2.88597 3.66255e-19)
(3.26661 -3.50046 -4.53167e-19)
(3.09531 -4.09177 2.62305e-19)
(2.95505 -4.67033 -7.75256e-19)
(2.81855 -5.16915 3.37051e-19)
(2.70631 -5.67364 -8.28454e-20)
(2.58895 -6.1185 0)
(2.46867 -6.5781 -7.88123e-20)
(2.39048 -6.97985 -7.68654e-20)
(2.2961 -7.39496 -7.49699e-20)
(2.23672 -7.75543 0)
(2.15326 -8.13681 -5.62023e-19)
(2.10405 -8.46023 1.17145e-18)
(2.02171 -8.81847 -1.00744e-18)
(1.97474 -9.11097 5.2728e-19)
(1.90332 -9.42914 6.47204e-20)
(1.84909 -9.74289 5.44362e-19)
(1.76084 -0.311135 -1.49522e-19)
(1.87178 -0.958692 -1.96608e-19)
(2.03197 -1.58573 4.93705e-22)
(1.96429 -2.3506 5.18211e-19)
(1.84268 -2.95296 -1.40108e-19)
(1.82527 -3.63382 -9.05294e-20)
(1.7604 -4.22592 8.81706e-20)
(1.77627 -4.79202 1.72324e-19)
(1.70618 -5.33335 8.28284e-20)
(1.63224 -5.8369 -3.25414e-19)
(1.58062 -6.30417 3.58784e-19)
(1.54375 -6.74262 7.68593e-20)
(1.49778 -7.16105 3.76686e-19)
(1.44794 -7.55368 -2.76143e-21)
(1.40157 -7.9419 3.35683e-20)
(1.34698 -8.29462 -6.32136e-19)
(1.29547 -8.65951 1.733e-19)
(1.24906 -8.97433 0)
(1.19654 -9.2951 -3.1811e-20)
(1.16041 -9.61386 -2.77815e-19)
(0.959411 -0.25475 5.06125e-20)
(0.968538 -1.00536 -1.00041e-19)
(0.682897 -1.68715 1.95982e-19)
(0.493087 -2.39891 -4.79701e-20)
(0.535324 -2.9849 -4.74075e-20)
(0.370556 -3.61113 0)
(0.437475 -4.14518 -8.8931e-20)
(0.374191 -4.71583 1.74134e-19)
(0.35082 -5.23181 -8.52712e-20)
(0.362571 -5.73361 8.24889e-20)
(0.365665 -6.19029 -4.10198e-20)
(0.360587 -6.63537 -7.84331e-20)
(0.348272 -7.05595 1.53669e-19)
(0.316961 -7.4705 -1.49877e-19)
(0.30813 -7.84977 3.71463e-20)
(0.278375 -8.2353 2.54754e-34)
(0.27039 -8.57754 -3.46922e-20)
(0.264171 -8.92973 2.03348e-19)
(0.251436 -9.23383 -1.00153e-19)
(0.261052 -9.57894 -7.12551e-20)
(-0.0818151 -5.69929 1.10522e-19)
(1.5954 -18.8412 4.15676e-20)
(2.63966 -31.2976 0)
(3.16061 -36.4882 7.55576e-20)
(3.24865 -37.1436 7.01731e-20)
(3.19781 -36.9425 6.61878e-20)
(3.12925 -36.4582 0)
(3.07489 -36.045 6.12855e-20)
(3.01074 -35.6141 0)
(2.95703 -35.3351 0)
(2.89229 -34.9753 -5.21974e-20)
(2.83302 -34.6586 3.19718e-21)
(2.77423 -34.3634 9.84356e-20)
(2.71372 -34.0495 0)
(2.62842 -33.7295 4.35962e-20)
(2.57873 -33.349 4.1629e-20)
(2.45702 -32.9491 3.98021e-20)
(2.43325 -32.4827 0)
(2.27279 -32.0607 -7.29863e-20)
(2.26272 -31.6042 7.10937e-20)
(0.317866 -6.78204 2.42553e-19)
(2.05218 -20.7577 -2.84554e-19)
(3.80055 -32.8153 0)
(4.18997 -36.9511 -3.71337e-19)
(4.24233 -37.1672 3.51133e-19)
(4.17874 -36.7836 -5.972e-19)
(4.07711 -36.2846 2.6083e-19)
(4.00369 -35.862 1.77609e-19)
(3.92427 -35.5346 -8.02845e-19)
(3.83734 -35.1006 4.46284e-19)
(3.75074 -34.783 -5.27303e-20)
(3.67657 -34.4843 3.91011e-19)
(3.57353 -34.1381 -1.21676e-20)
(3.49599 -33.814 -3.66732e-19)
(3.39351 -33.4993 -4.35967e-20)
(3.33045 -33.1494 -4.16288e-20)
(3.19112 -32.736 -3.98002e-20)
(3.13627 -32.2401 0)
(2.95021 -31.8207 -2.83569e-19)
(2.93424 -31.3736 7.69095e-21)
(0.730974 -7.45356 -1.01259e-19)
(3.09019 -22.0372 0)
(4.97803 -33.7132 0)
(5.34896 -36.9889 -1.44818e-19)
(5.31959 -37.008 1.37264e-19)
(5.21072 -36.5888 0)
(5.08112 -36.1 -1.24197e-19)
(4.97027 -35.6731 3.50154e-19)
(4.85147 -35.2352 -3.45689e-19)
(4.73774 -34.921 4.21384e-19)
(4.63837 -34.5799 -5.14848e-19)
(4.51869 -34.2268 0)
(4.41773 -33.9113 -3.62604e-19)
(4.31498 -33.616 -3.3398e-19)
(4.19936 -33.2916 5.97787e-19)
(4.09689 -32.8968 -6.2831e-19)
(3.92955 -32.4487 5.43919e-19)
(3.85135 -31.9573 0)
(3.64229 -31.5421 -6.17464e-19)
(3.6158 -31.1054 1.06386e-18)
(1.05375 -8.47879 7.88612e-19)
(3.99787 -23.3196 0)
(6.24257 -34.2929 3.03421e-19)
(6.53985 -36.9177 4.24863e-19)
(6.46288 -36.7646 -8.19028e-19)
(6.28284 -36.2273 2.55198e-19)
(6.1169 -35.7525 1.24193e-19)
(5.96194 -35.3317 1.2589e-18)
(5.81318 -34.9736 -1.76113e-18)
(5.67421 -34.5804 -1.75319e-19)
(5.51955 -34.2371 9.06774e-19)
(5.39687 -33.9485 1.84955e-19)
(5.24766 -33.6134 -8.78898e-19)
(5.11366 -33.2772 8.59188e-19)
(4.96466 -32.9462 2.41321e-19)
(4.83669 -32.564 -1.51428e-19)
(4.65802 -32.1399 2.193e-19)
(4.5499 -31.6489 0)
(4.31738 -31.2284 -6.33586e-20)
(4.28691 -30.813 0)
(1.54858 -9.23351 0)
(5.06914 -24.4273 1.2248e-18)
(7.45556 -34.8259 -1.52934e-18)
(7.63493 -36.7133 1.39463e-18)
(7.47649 -36.3913 -1.08171e-18)
(7.2765 -35.8805 -2.56556e-19)
(7.07582 -35.407 0)
(6.90045 -34.9676 6.57208e-19)
(6.72124 -34.5736 -8.71237e-19)
(6.54024 -34.217 9.99764e-19)
(6.39167 -33.8953 -7.81267e-19)
(6.21613 -33.5461 -1.84941e-19)
(6.05356 -33.2131 8.54548e-19)
(5.89948 -32.9253 -1.48058e-18)
(5.73846 -32.6052 9.37289e-19)
(5.58302 -32.2233 -3.07587e-19)
(5.37214 -31.7693 -7.01736e-19)
(5.2353 -31.2714 1.61328e-18)
(4.98027 -30.8856 -9.16866e-19)
(4.95183 -30.472 -1.09728e-18)
(1.9705 -9.76921 1.21187e-18)
(6.19501 -24.9494 1.19616e-18)
(8.6713 -34.6438 -1.19757e-18)
(8.86289 -36.217 -2.71328e-19)
(8.64391 -35.8746 2.62993e-19)
(8.39893 -35.365 9.62217e-19)
(8.1477 -34.894 -9.45309e-19)
(7.91932 -34.4998 0)
(7.69552 -34.104 8.09241e-19)
(7.49314 -33.7683 -7.95738e-19)
(7.27772 -33.4225 -7.25089e-19)
(7.09205 -33.1265 7.1335e-19)
(6.89784 -32.8092 0)
(6.70958 -32.4889 0)
(6.51576 -32.1679 1.33024e-18)
(6.32385 -31.7805 -1.30469e-18)
(6.10213 -31.356 -1.06679e-18)
(5.93814 -30.8874 1.05104e-18)
(5.66489 -30.4948 -9.71463e-19)
(5.62869 -30.1109 1.20045e-18)
(2.53181 -10.3865 -8.80639e-19)
(7.34287 -25.7472 3.18849e-19)
(9.9247 -34.805 4.8291e-20)
(9.93998 -35.8147 1.36898e-18)
(9.63814 -35.3399 0)
(9.3544 -34.8258 0)
(9.06115 -34.3608 1.74693e-18)
(8.80777 -33.9187 -6.99917e-20)
(8.5675 -33.5812 -1.61902e-18)
(8.31904 -33.2073 1.4687e-18)
(8.10622 -32.9065 -1.44457e-18)
(7.88356 -32.5967 0)
(7.65538 -32.2675 1.24647e-18)
(7.45115 -31.9854 -1.2269e-18)
(7.23984 -31.681 0)
(7.03478 -31.332 0)
(6.78959 -30.9032 0)
(6.59537 -30.4278 0)
(6.30766 -30.0672 0)
(6.27611 -29.6908 -1.15957e-19)
(3.04193 -10.7071 8.42788e-19)
(8.45823 -25.8098 -1.44283e-18)
(11.04 -34.1279 0)
(11.0843 -34.9957 0)
(10.7343 -34.5888 2.12438e-18)
(10.4269 -34.1371 1.3914e-19)
(10.0889 -33.691 -1.95447e-18)
(9.78988 -33.3315 0)
(9.49584 -32.9278 1.84295e-19)
(9.22518 -32.6388 -1.73718e-19)
(8.96014 -32.3123 0)
(8.70339 -32.0175 1.54862e-19)
(8.46059 -31.7226 -1.32954e-18)
(8.22028 -31.4376 2.42421e-18)
(7.98528 -31.1498 -4.03804e-20)
(7.74127 -30.797 -1.04692e-18)
(7.48107 -30.4015 -1.1832e-19)
(7.26216 -29.9645 1.12459e-19)
(6.95912 -29.6155 0)
(6.90732 -29.2446 1.03276e-19)
(3.61856 -11.0842 5.42568e-19)
(9.62486 -26.1631 4.73925e-19)
(12.2536 -33.9012 -1.62838e-18)
(12.134 -34.3829 4.81402e-19)
(11.7038 -33.8818 2.12992e-19)
(11.3384 -33.3934 1.89109e-18)
(10.9636 -32.9537 -2.64788e-18)
(10.6238 -32.5423 1.93136e-18)
(10.3209 -32.2525 -1.58971e-18)
(10.0094 -31.8999 1.88341e-18)
(9.72548 -31.6226 3.08849e-19)
(9.46359 -31.3615 1.31638e-18)
(9.17557 -31.059 -7.39513e-19)
(8.92247 -30.7929 -1.45443e-18)
(8.66266 -30.5282 1.28544e-18)
(8.41188 -30.2271 0)
(8.13368 -29.8529 3.39452e-19)
(7.88008 -29.4241 9.74553e-20)
(7.55912 -29.0873 -1.99495e-19)
(7.49906 -28.7325 8.89809e-20)
(4.18097 -11.252 -1.0282e-18)
(10.6894 -25.9412 1.06578e-18)
(13.2136 -32.9341 -2.71713e-20)
(13.1185 -33.3457 -9.36703e-19)
(12.6523 -32.9554 -8.73943e-19)
(12.2784 -32.5621 -4.20931e-19)
(11.8609 -32.1547 -2.36974e-20)
(11.4895 -31.8179 -3.70368e-19)
(11.1355 -31.4491 0)
(10.8005 -31.1979 -3.27705e-19)
(10.4913 -30.9158 -3.08824e-19)
(10.1717 -30.6445 -1.97164e-20)
(9.87993 -30.3778 1.02312e-18)
(9.59374 -30.1314 -5.23925e-19)
(9.32189 -29.8835 -1.17793e-18)
(9.03995 -29.5952 9.17503e-19)
(8.74968 -29.2499 6.15498e-19)
(8.47878 -28.8535 -1.03423e-18)
(8.15067 -28.5441 1.99267e-19)
(8.08044 -28.1912 1.26839e-18)
(4.75801 -11.4075 -2.46026e-18)
(11.7678 -25.8217 2.50506e-18)
(14.3329 -32.3197 -2.78e-18)
(14.1145 -32.4733 2.26777e-18)
(13.5879 -32.0355 2.02681e-18)
(13.1385 -31.6037 -1.5739e-18)
(12.697 -31.2157 -2.11647e-18)
(12.2775 -30.8758 6.41777e-20)
(11.9091 -30.612 1.28992e-18)
(11.5394 -30.3118 -8.72408e-19)
(11.1883 -30.0631 2.22473e-18)
(10.8856 -29.857 -1.34141e-18)
(10.5476 -29.603 -2.56109e-19)
(10.2467 -29.3707 6.68655e-19)
(9.94539 -29.1607 -1.7563e-18)
(9.65559 -28.9193 8.46797e-19)
(9.35181 -28.6305 0)
(9.04661 -28.2582 -1.46038e-18)
(8.69393 -27.9464 1.43401e-18)
(8.60116 -27.6032 -1.17891e-18)
(5.32705 -11.4459 4.64984e-19)
(12.762 -25.422 5.13052e-19)
(15.1421 -31.2232 2.26628e-18)
(14.9015 -31.3413 1.99705e-18)
(14.3238 -30.9921 -1.20521e-18)
(13.8789 -30.6572 1.73012e-18)
(13.3976 -30.2994 -1.01881e-18)
(12.9541 -29.9819 1.21184e-18)
(12.5516 -29.6918 -2.32594e-18)
(12.1615 -29.4722 8.31801e-19)
(11.8086 -29.2508 0)
(11.4434 -29.0239 0)
(11.1021 -28.7937 0)
(10.7761 -28.5861 -1.66211e-18)
(10.4671 -28.3874 1.63642e-18)
(10.1551 -28.1731 0)
(9.84071 -27.9046 0)
(9.52071 -27.5806 -1.5948e-19)
(9.16664 -27.3 0)
(9.06692 -26.9684 -1.37249e-18)
(5.8646 -11.4113 -8.78601e-19)
(13.6867 -24.8739 -2.1896e-18)
(16.0455 -30.1692 -1.58413e-18)
(15.7794 -30.1966 -3.0834e-19)
(15.179 -29.8632 2.11635e-18)
(14.6563 -29.5243 -4.13096e-19)
(14.1633 -29.205 -6.53156e-20)
(13.6791 -28.9532 -1.43546e-18)
(13.2464 -28.7006 0)
(12.8253 -28.4761 -7.31694e-19)
(12.4181 -28.2624 1.16993e-18)
(12.0737 -28.1183 0)
(11.6994 -27.9299 1.5919e-18)
(11.3525 -27.7399 -1.56697e-18)
(11.017 -27.5817 1.40686e-18)
(10.6947 -27.4013 -2.551e-18)
(10.3737 -27.2066 1.30466e-18)
(10.0294 -26.9126 1.59484e-19)
(9.64814 -26.6392 -1.32429e-19)
(9.52227 -26.3037 1.07652e-18)
(6.40435 -11.335 -1.15287e-18)
(14.5962 -24.3343 6.62576e-20)
(16.7611 -29.0839 8.99728e-20)
(16.3654 -29.016 2.77126e-18)
(15.7321 -28.7143 2.59828e-19)
(15.1919 -28.4531 -1.50201e-18)
(14.6664 -28.1566 -1.0707e-18)
(14.1528 -27.883 3.26285e-19)
(13.7108 -27.6904 1.2029e-18)
(13.273 -27.4997 -1.30761e-18)
(12.8738 -27.3479 6.31024e-19)
(12.4773 -27.1752 -1.68947e-18)
(12.0889 -26.9978 1.31566e-18)
(11.7303 -26.8397 -1.32204e-18)
(11.3855 -26.7004 1.15401e-18)
(11.0483 -26.5499 1.00455e-18)
(10.7162 -26.3729 -1.14609e-18)
(10.3625 -26.1424 9.0826e-19)
(9.98626 -25.904 -8.75798e-19)
(9.85155 -25.592 -1.04492e-18)
(6.87829 -11.1449 -1.42544e-18)
(15.3562 -23.4727 -2.73033e-19)
(17.356 -27.6687 1.39026e-18)
(17.0215 -27.6516 -1.20666e-18)
(16.3934 -27.4328 1.18474e-18)
(15.82 -27.204 2.80555e-19)
(15.2819 -26.9695 0)
(14.7541 -26.7972 -2.11404e-19)
(14.2615 -26.5724 5.92405e-19)
(13.8025 -26.429 -2.11074e-18)
(13.3499 -26.258 1.49147e-18)
(12.9681 -26.1836 3.3676e-19)
(12.5711 -26.0647 1.68882e-19)
(12.1811 -25.9212 0)
(11.8181 -25.8163 2.23558e-20)
(11.4664 -25.6976 9.95297e-19)
(11.1329 -25.5872 -4.89348e-20)
(10.7649 -25.3967 1.79288e-19)
(10.3657 -25.17 -8.53147e-19)
(10.2114 -24.8521 1.97798e-19)
(7.35683 -10.9732 1.27537e-18)
(16.1412 -22.7034 -2.15137e-18)
(17.9966 -26.5519 1.23475e-18)
(17.4499 -26.4318 1.06318e-18)
(16.7968 -26.1798 -6.8101e-20)
(16.168 -26.0104 -7.43627e-19)
(15.6162 -25.7854 1.97029e-19)
(15.0469 -25.5951 2.11407e-19)
(14.574 -25.491 0)
(14.0957 -25.3387 0)
(13.6524 -25.2437 -1.20077e-18)
(13.2321 -25.1327 2.0069e-18)
(12.8092 -25.0296 -1.09362e-18)
(12.424 -24.9265 0)
(12.047 -24.8474 2.30321e-20)
(11.6863 -24.7502 -9.1736e-19)
(11.3379 -24.6657 8.97882e-19)
(10.9733 -24.5471 -1.01694e-19)
(10.5897 -24.3817 -7.28195e-19)
(10.4301 -24.0864 5.01617e-19)
(7.80862 -10.6092 -1.12368e-18)
(16.665 -21.7377 1.3388e-18)
(18.2998 -24.9336 0)
(17.8172 -24.93 0)
(17.21 -24.8185 1.98856e-19)
(16.5996 -24.7049 -9.78811e-19)
(16.0234 -24.5584 1.97095e-20)
(15.4647 -24.4438 6.86339e-19)
(14.9278 -24.2929 -1.17056e-18)
(14.4479 -24.2323 2.22386e-18)
(13.9564 -24.1065 -1.05525e-18)
(13.5422 -24.0821 2.33501e-19)
(13.1337 -24.0375 9.2359e-19)
(12.7117 -23.9473 3.18552e-20)
(12.3295 -23.8986 -5.69061e-19)
(11.9535 -23.8255 9.45522e-20)
(11.6062 -23.7763 -6.80347e-19)
(11.236 -23.7033 5.84182e-19)
(10.8453 -23.5685 2.00718e-20)
(10.675 -23.2802 5.00698e-19)
(8.23148 -10.3118 0)
(17.2017 -20.7185 6.06931e-19)
(18.8104 -23.7599 -7.19572e-19)
(18.1308 -23.665 0)
(17.4547 -23.4683 -1.98822e-19)
(16.776 -23.3946 6.28529e-19)
(16.2041 -23.2646 -7.82009e-19)
(15.606 -23.1756 0)
(15.0951 -23.1277 9.3368e-19)
(14.5948 -23.0507 -9.18116e-19)
(14.1181 -23.0188 8.55807e-20)
(13.673 -22.9638 -1.03542e-19)
(13.2306 -22.9382 -9.4469e-20)
(12.8252 -22.9008 -8.62252e-20)
(12.4282 -22.8919 -5.92167e-19)
(12.0513 -22.8518 9.69559e-19)
(11.6808 -22.8248 -8.76511e-19)
(11.3186 -22.7973 7.93278e-19)
(10.9543 -22.7485 -3.14506e-19)
(10.7936 -22.4956 4.95834e-20)
(8.61815 -9.87426 0)
(17.5685 -19.7014 -6.7676e-19)
(18.8267 -22.0291 3.99787e-19)
(18.1885 -22.1105 4.75429e-19)
(17.6175 -22.0828 -5.56164e-20)
(16.9713 -22.0786 -5.0063e-20)
(16.3735 -22.0136 -4.82456e-19)
(15.793 -21.957 0)
(15.239 -21.9101 0)
(14.7463 -21.9091 0)
(14.233 -21.8488 -8.5578e-20)
(13.7916 -21.8616 0)
(13.3759 -21.8814 -4.62826e-19)
(12.9311 -21.8437 4.13762e-19)
(12.5335 -21.8614 -3.20074e-19)
(12.1465 -21.8527 5.92094e-19)
(11.7782 -21.8715 -2.72727e-19)
(11.4045 -21.8874 -2.19939e-19)
(11.0299 -21.8776 3.62758e-19)
(10.8629 -21.6223 -1.67947e-19)
(8.98404 -9.4257 0)
(17.8554 -18.5743 0)
(19.1321 -20.7628 1.59895e-19)
(18.3599 -20.7631 1.42482e-19)
(17.687 -20.6658 0)
(16.9983 -20.6814 3.53616e-19)
(16.4109 -20.6729 -3.47424e-19)
(15.8103 -20.6761 0)
(15.2547 -20.6688 4.51118e-19)
(14.7577 -20.7009 -4.43603e-19)
(14.2628 -20.7254 0)
(13.7959 -20.7221 -2.63716e-19)
(13.3485 -20.762 8.96321e-20)
(12.9221 -20.7594 2.09038e-19)
(12.5083 -20.7917 0)
(12.1133 -20.7978 0)
(11.7036 -20.8187 0)
(11.3411 -20.8456 1.97726e-21)
(10.9598 -20.8691 1.35468e-20)
(10.7551 -20.7049 0)
(1.57855 -30.4679 0)
(1.60731 -28.6043 0)
(0.976369 -27.9134 -4.46907e-21)
(0.88755 -26.7466 -3.74232e-21)
(0.614012 -26.4798 0)
(0.559586 -25.7557 1.97582e-22)
(0.431378 -25.4142 2.3915e-21)
(0.391453 -24.8859 0)
(0.324904 -24.6277 1.47981e-21)
(0.27844 -24.2889 0)
(0.284238 -24.1043 -1.01776e-21)
(0.299759 -23.8702 -3.83986e-22)
(0.304784 -23.7259 3.86036e-22)
(0.382222 -23.696 5.51893e-22)
(0.302394 -23.5534 0)
(0.384265 -23.3719 -8.05372e-23)
(0.347346 -23.0341 3.58487e-22)
(0.276839 -20.3254 0)
(0.208041 -14.8692 0)
(0.0607928 -6.25481 1.81191e-22)
(2.11754 -30.3025 3.00665e-20)
(1.99185 -28.48 0)
(1.28807 -27.8711 2.06297e-20)
(1.1761 -26.8198 -1.24987e-20)
(0.8792 -26.5263 0)
(0.774866 -25.7787 -1.2239e-20)
(0.611012 -25.4389 4.66298e-21)
(0.516106 -24.9158 0)
(0.428542 -24.6469 1.18142e-21)
(0.353356 -24.3065 -2.67559e-21)
(0.350217 -24.1164 2.83782e-21)
(0.3479 -23.8847 -3.32527e-21)
(0.346118 -23.7431 2.11482e-21)
(0.408099 -23.6999 -6.69697e-22)
(0.329407 -23.5541 -4.99172e-22)
(0.42086 -23.3785 3.13386e-22)
(0.372311 -23.023 -5.92436e-22)
(0.318357 -20.3018 -5.62934e-22)
(0.22024 -14.8331 -1.25424e-22)
(0.0632659 -6.22338 -2.26125e-22)
(2.70269 -30.0703 -1.1785e-20)
(2.45091 -28.38 -2.59604e-20)
(1.6841 -27.7164 -1.68105e-20)
(1.45346 -26.6385 0)
(1.09736 -26.3867 0)
(0.930361 -25.691 1.40763e-20)
(0.753581 -25.3561 -1.5817e-21)
(0.623959 -24.8448 -1.29135e-21)
(0.533328 -24.5874 -1.10181e-21)
(0.428732 -24.2733 -5.21419e-21)
(0.407007 -24.1053 0)
(0.385673 -23.8753 0)
(0.379538 -23.7425 0)
(0.432337 -23.6957 -2.0734e-21)
(0.354428 -23.5568 0)
(0.453396 -23.3863 -1.33809e-21)
(0.395126 -23.0164 1.06055e-21)
(0.355716 -20.2947 3.43661e-22)
(0.229316 -14.8192 2.38724e-22)
(0.0860657 -6.18348 6.86759e-22)
(3.26322 -29.8582 4.50156e-20)
(2.87639 -28.2148 -8.62905e-20)
(2.01726 -27.6313 2.66066e-21)
(1.73557 -26.6625 3.06035e-20)
(1.35209 -26.3996 0)
(1.13242 -25.6911 1.75997e-20)
(0.927919 -25.364 -4.01697e-20)
(0.741243 -24.8638 2.07672e-20)
(0.637694 -24.5977 -1.15833e-20)
(0.507415 -24.28 4.17438e-21)
(0.474097 -24.1067 -4.48379e-22)
(0.436633 -23.8838 -2.81988e-21)
(0.419028 -23.7551 2.83363e-21)
(0.464144 -23.697 1.14004e-21)
(0.379844 -23.56 9.37831e-22)
(0.489312 -23.3948 1.33729e-21)
(0.416339 -23.0106 -1.22723e-21)
(0.384999 -20.2834 3.79578e-22)
(0.232654 -14.7925 -1.14267e-22)
(0.0961133 -6.14923 -6.85633e-22)
(3.82257 -29.5725 1.08721e-19)
(3.2595 -28.068 2.02345e-20)
(2.37199 -27.4623 -3.011e-20)
(1.98616 -26.4778 4.29484e-20)
(1.56376 -26.2545 0)
(1.28277 -25.5993 -9.21597e-21)
(1.06595 -25.2731 7.89285e-21)
(0.846499 -24.7853 0)
(0.737967 -24.5343 1.7045e-22)
(0.581123 -24.2405 0)
(0.530874 -24.0915 -7.37554e-21)
(0.473537 -23.8701 0)
(0.450565 -23.7511 0)
(0.490469 -23.6918 -3.71952e-21)
(0.402535 -23.5644 1.8088e-21)
(0.519586 -23.4033 -1.22059e-21)
(0.427885 -23.0076 0)
(0.405043 -20.2813 1.55849e-22)
(0.23394 -14.7829 -1.16486e-22)
(0.122832 -6.11004 0)
(4.39665 -29.2857 4.43216e-20)
(3.73213 -27.8619 -3.7463e-20)
(2.72623 -27.3478 7.15133e-20)
(2.25042 -26.46 -7.06488e-20)
(1.80633 -26.2381 2.11596e-20)
(1.47656 -25.5767 9.2448e-21)
(1.2363 -25.265 -1.48325e-20)
(0.959059 -24.793 -1.22911e-20)
(0.838671 -24.5357 5.31486e-21)
(0.660278 -24.2363 7.82597e-21)
(0.59731 -24.0823 -4.22894e-21)
(0.524023 -23.8721 0)
(0.488939 -23.7597 0)
(0.520468 -23.6901 -2.00931e-23)
(0.424978 -23.5687 -1.7359e-21)
(0.54889 -23.4107 1.21941e-21)
(0.433356 -23.005 0)
(0.425065 -20.28 -1.31044e-21)
(0.224632 -14.7706 -7.85655e-22)
(0.137435 -6.07392 -7.70294e-23)
(4.91508 -28.9539 -1.24812e-19)
(4.0818 -27.6672 1.18105e-19)
(3.03505 -27.1415 -3.03607e-20)
(2.48303 -26.2654 0)
(1.99886 -26.0906 -2.12498e-20)
(1.61108 -25.4827 3.21703e-20)
(1.36569 -25.1658 -1.7402e-20)
(1.06062 -24.7072 1.23248e-20)
(0.932591 -24.4698 0)
(0.734216 -24.1922 0)
(0.654305 -24.0624 6.17879e-21)
(0.563317 -23.8533 -6.20007e-21)
(0.520807 -23.7519 0)
(0.547677 -23.6835 5.31815e-21)
(0.444356 -23.5731 -1.65974e-21)
(0.573121 -23.4175 -1.02933e-21)
(0.439092 -23.0043 8.72761e-22)
(0.44744 -20.2843 1.59765e-21)
(0.214485 -14.7703 4.58792e-22)
(0.164966 -6.03899 1.47133e-22)
(5.47311 -28.5768 0)
(4.50876 -27.4135 -6.37861e-20)
(3.35405 -27.0016 6.38568e-20)
(2.73084 -26.2053 0)
(2.24432 -26.0435 0)
(1.80055 -25.4412 -3.10743e-20)
(1.52639 -25.146 3.11647e-20)
(1.17126 -24.7041 0)
(1.03043 -24.4634 8.83075e-21)
(0.813799 -24.1781 -1.61139e-20)
(0.719378 -24.0434 7.28028e-21)
(0.614253 -23.849 4.8177e-21)
(0.559183 -23.7559 -4.83265e-21)
(0.574857 -23.6778 0)
(0.46276 -23.5766 0)
(0.595213 -23.4244 -9.74769e-22)
(0.443146 -23.0061 1.24341e-21)
(0.471415 -20.2916 -7.79617e-23)
(0.206433 -14.7723 -3.45128e-22)
(0.184837 -6.00229 1.3882e-22)
(5.96817 -28.1964 7.28307e-20)
(4.88133 -27.1624 -7.29226e-20)
(3.648 -26.7607 -7.73378e-20)
(2.9487 -26.0179 9.38464e-20)
(2.42276 -25.8953 -7.88972e-20)
(1.92605 -25.3404 5.84551e-21)
(1.64842 -25.0378 3.00474e-20)
(1.26961 -24.613 0)
(1.11661 -24.3956 0)
(0.887405 -24.1306 7.42243e-21)
(0.777851 -24.0184 0)
(0.658306 -23.825 0)
(0.590453 -23.7438 0)
(0.599269 -23.6679 0)
(0.478087 -23.5792 0)
(0.612728 -23.4243 0)
(0.445468 -23.0107 -7.22168e-22)
(0.496976 -20.3035 6.67795e-22)
(0.195585 -14.7808 -1.27754e-22)
(0.211475 -5.97125 1.3016e-22)
(6.44716 -27.7435 -6.27292e-20)
(5.21343 -26.861 -9.98575e-20)
(3.92206 -26.5818 -2.18678e-20)
(3.16593 -25.911 -1.45793e-20)
(2.6621 -25.819 2.52816e-20)
(2.10071 -25.2837 4.97515e-20)
(1.79383 -25.0088 1.2844e-20)
(1.3783 -24.5986 0)
(1.21114 -24.382 -7.46629e-21)
(0.966108 -24.1085 1.59164e-20)
(0.840957 -23.9914 5.86865e-21)
(0.707841 -23.8139 4.59547e-21)
(0.626469 -23.7407 0)
(0.621077 -23.6582 2.83033e-21)
(0.49466 -23.5801 2.54205e-21)
(0.621174 -23.4291 0)