/*--------------------------------*- C++ -*----------------------------------*\
  =========                 |
  \\      /  F ield         | OpenFOAM: The Open Source CFD Toolbox
   \\    /   O peration     | Website:  https://openfoam.org
    \\  /    A nd           | Version:  9
     \\/     M anipulation  |
\*---------------------------------------------------------------------------*/
FoamFile
{
    format      ascii;
    class       volScalarField;
    location    "12";
    object      nut;
}
// * * * * * * * * * * * * * * * * * * * * * * * * * * * * * * * * * * * * * //

dimensions      [0 2 -1 0 0 0 0];

internalField   nonuniform List<scalar> 
46400
(
0.0222985
0.00758219
0.00219962
0.0017598
0.00170379
0.00168395
0.00160083
0.00156057
0.00146879
0.00143583
0.00138594
0.00133571
0.00130056
0.00127595
0.00125226
0.00124163
0.00115077
0.00112639
0.00149929
0.00114755
0.0217928
0.00635554
0.00152992
0.00173542
0.00165121
0.00166474
0.00156998
0.00154108
0.00147925
0.00143248
0.00137804
0.00133427
0.00129196
0.00123714
0.00120648
0.00117331
0.00109244
0.0010195
0.001317
0.00114917
0.0211947
0.00580154
0.00153563
0.00177325
0.00165077
0.00164808
0.00157287
0.00154313
0.00146716
0.00142193
0.00137886
0.00132748
0.00128322
0.00125105
0.00120997
0.00118072
0.00106752
0.00105122
0.00141168
0.00114242
0.0205952
0.00468581
0.00150234
0.00176911
0.00163516
0.00164925
0.00155529
0.00152308
0.00145771
0.00141047
0.00135557
0.0013076
0.00126403
0.00121667
0.00119125
0.00117061
0.00108591
0.00104226
0.00138309
0.00117391
0.0198586
0.00515887
0.00153883
0.00176669
0.00163471
0.00162962
0.00155449
0.00152505
0.00146881
0.00141962
0.00138336
0.00134257
0.00129788
0.00125447
0.00121737
0.00119512
0.00111753
0.00106557
0.00141987
0.00120513
0.0190815
0.00553343
0.00163343
0.00179363
0.00164498
0.00165163
0.00156041
0.00151829
0.0014614
0.00140776
0.00135468
0.00129972
0.00126571
0.00122105
0.00118738
0.00117057
0.00110657
0.00106547
0.00139916
0.001221
0.0183309
0.00545381
0.00163606
0.00182882
0.00165479
0.00162635
0.00156077
0.00150402
0.00145298
0.00140367
0.00137013
0.00133046
0.00129419
0.00125638
0.00123204
0.00119351
0.0011139
0.00106778
0.00138074
0.00120671
0.0172458
0.00491183
0.00165763
0.00180766
0.001679
0.00163877
0.00156555
0.00151153
0.00146183
0.00140221
0.00135647
0.00129863
0.00124691
0.00119976
0.00117473
0.00117007
0.00111989
0.00105321
0.00136367
0.00123232
0.0158
0.00396831
0.00164256
0.00178741
0.0016768
0.00161224
0.0015632
0.00149664
0.00144573
0.00138704
0.00135304
0.00132179
0.00130232
0.00124625
0.00119354
0.00115845
0.00110558
0.00104127
0.00128958
0.00118491
0.0134518
0.00318635
0.00169437
0.00171213
0.00165502
0.0015927
0.00154323
0.00146769
0.00142695
0.00136304
0.00131103
0.00125398
0.00122241
0.00120723
0.00118619
0.00115388
0.00110586
0.00105143
0.0012644
0.00118391
0.0108109
0.00263965
0.00168061
0.00166942
0.00163833
0.00155982
0.00153328
0.00147584
0.00144361
0.00138439
0.00134875
0.00128449
0.00123156
0.0011767
0.00115008
0.00112775
0.00107754
0.00102332
0.00119288
0.00111822
0.00897488
0.00225885
0.00167167
0.00161674
0.00156513
0.00149761
0.00148783
0.00141062
0.00139097
0.00133708
0.00131591
0.00128851
0.00126227
0.00121711
0.00118901
0.00115916
0.00111243
0.00105802
0.00118728
0.001132
0.00735819
0.00204668
0.0016987
0.00159179
0.00157382
0.00149297
0.00147508
0.00140502
0.00138092
0.00132371
0.00127697
0.00122486
0.00119731
0.00115127
0.00111715
0.00109616
0.00106784
0.00102482
0.0011316
0.00107775
0.00615175
0.00184871
0.00165271
0.00157825
0.00159198
0.00145748
0.00145017
0.0013946
0.00136275
0.00133471
0.00130079
0.00125554
0.00122055
0.0011839
0.00114251
0.00111076
0.00107653
0.00104312
0.00111957
0.00106785
0.00529974
0.00176793
0.00166995
0.00159385
0.0016023
0.00150111
0.00143911
0.00136356
0.00131254
0.00125202
0.0012367
0.0012029
0.00117863
0.00116529
0.0011301
0.00109232
0.00105228
0.00101971
0.001094
0.00104627
0.0046941
0.0017287
0.00167832
0.00150593
0.00157667
0.00154361
0.00146787
0.00141946
0.00137239
0.00131239
0.00126273
0.00122042
0.0011611
0.00112564
0.0011061
0.00108136
0.00103594
0.000996093
0.00105328
0.00100695
0.00440901
0.00175277
0.00180674
0.00153824
0.0014425
0.00144423
0.0014143
0.00137511
0.00134404
0.00130407
0.00124628
0.00122215
0.00118209
0.00113501
0.00110357
0.00108234
0.00104907
0.000999105
0.00103581
0.000984254
0.00384227
0.00155215
0.00174468
0.00169198
0.00153146
0.00149759
0.00141703
0.00135832
0.00129882
0.00127036
0.0012284
0.0011964
0.00117211
0.00114305
0.0011004
0.00107207
0.00104288
0.000996032
0.00103184
0.000971646
0.00395432
0.00150278
0.00144382
0.00156284
0.00156016
0.0014595
0.00143496
0.00138475
0.00134074
0.00128889
0.00124977
0.00119618
0.00114898
0.00112039
0.00109009
0.00106046
0.00103076
0.000980803
0.00101843
0.00097043
0.00343813
0.00187761
0.00147118
0.00144452
0.00144234
0.00133647
0.00133149
0.00132138
0.00128976
0.00125507
0.00124318
0.00120071
0.00117281
0.00112868
0.00109832
0.00106435
0.00102857
0.000974173
0.000988164
0.000943947
0.0177434
0.016168
0.00924461
0.000613096
0.000952101
0.00145462
0.00143073
0.0013755
0.00133823
0.0012863
0.00125974
0.0012537
0.00121921
0.00122324
0.00126025
0.00139922
0.00141409
0.00135325
0.00124357
0.00111039
0.0201454
0.0159804
0.00769687
0.000737652
0.00128421
0.00154028
0.00143615
0.00136024
0.00132157
0.00129039
0.00125882
0.00122985
0.00123669
0.00126864
0.00129992
0.00137565
0.00138211
0.00134271
0.00121215
0.00109126
0.0203323
0.016076
0.00584002
0.000489052
0.00133589
0.00151215
0.00144495
0.00139819
0.00136369
0.00131979
0.00129842
0.00128506
0.00123953
0.00124341
0.00127992
0.00140321
0.00141097
0.00136121
0.00122695
0.00111168
0.021147
0.0158771
0.00451926
0.000446134
0.00150291
0.00158416
0.00147837
0.00139203
0.0013536
0.00131307
0.0012733
0.0012534
0.00125811
0.0012752
0.00131295
0.00140282
0.00139957
0.00136792
0.00119286
0.00108046
0.0217904
0.0156455
0.00341072
0.000526056
0.00152343
0.00154559
0.00147571
0.0014262
0.00138674
0.00134624
0.001325
0.0013011
0.00125849
0.00126866
0.00130197
0.00140378
0.00140482
0.0013732
0.00120354
0.00111543
0.0223489
0.0154054
0.00247692
0.000667285
0.00160931
0.00161045
0.00151587
0.00141148
0.00137448
0.00133238
0.00128946
0.00127798
0.0012647
0.00125548
0.00129279
0.00138976
0.00139652
0.0013825
0.0011581
0.00106548
0.0228805
0.0150834
0.0018705
0.000844436
0.00161527
0.00155748
0.00149848
0.00144692
0.00140173
0.00135865
0.00132986
0.00130137
0.00127236
0.00128329
0.00130426
0.0013899
0.0013947
0.00138447
0.00117296
0.00109275
0.0234113
0.0147962
0.00132228
0.00102734
0.00166811
0.00162546
0.0015446
0.00142926
0.00138788
0.00135233
0.00131142
0.00129788
0.00126501
0.00123517
0.00126238
0.00134894
0.00137503
0.00138013
0.00114399
0.00106893
0.0237482
0.0143882
0.00125164
0.00112027
0.00166228
0.00157153
0.00152255
0.00146183
0.00141346
0.00136324
0.00132428
0.00130039
0.0012813
0.00128196
0.00128333
0.00135924
0.00138955
0.00140588
0.00115893
0.00109001
0.0241156
0.0140722
0.00112341
0.00128506
0.00169483
0.00162924
0.00156374
0.00145056
0.00139527
0.00136768
0.0013285
0.00130365
0.00126352
0.00122982
0.00123468
0.00129122
0.00133706
0.00137178
0.00111272
0.00106877
0.0242538
0.0135877
0.00192901
0.0013088
0.00171137
0.00158348
0.00154836
0.00147954
0.00142782
0.00137364
0.00132932
0.00131054
0.00128544
0.00127091
0.0012527
0.00130526
0.00136278
0.00140909
0.00113274
0.00108078
0.0244796
0.0132399
0.00156627
0.00145698
0.00174009
0.0016325
0.00156726
0.00147627
0.00140306
0.0013713
0.00133026
0.00129921
0.00126251
0.00123301
0.0012137
0.00123022
0.00128459
0.00135028
0.00107218
0.00106411
0.0244643
0.0127494
0.00277185
0.00140988
0.00174346
0.00161648
0.00157123
0.00149617
0.00144478
0.00139532
0.00134716
0.00132742
0.0012895
0.00126288
0.00122934
0.00124324
0.00130993
0.00138055
0.00109131
0.00107485
0.0245264
0.0125136
0.00213192
0.0015336
0.00173626
0.00164078
0.00157093
0.00150168
0.00141898
0.00137198
0.00132716
0.00130137
0.00126942
0.00124076
0.00120536
0.00118476
0.00123127
0.00131329
0.00103293
0.00106829
0.024361
0.0121286
0.00260769
0.00151677
0.00173912
0.00164958
0.00159386
0.0015136
0.00145811
0.00142006
0.00136107
0.00133498
0.00129914
0.00127003
0.00122407
0.00119695
0.00124543
0.00131546
0.00102741
0.00107444
0.0242263
0.0118258
0.00256742
0.0016065
0.00172405
0.00164349
0.00158032
0.00153098
0.00144902
0.00139439
0.00134504
0.00131728
0.00128405
0.00125926
0.00122106
0.00117277
0.00119552
0.00126063
0.000986154
0.00108827
0.0239238
0.0111963
0.00218882
0.00162029
0.00174312
0.00167762
0.00161226
0.00153489
0.00146656
0.00143523
0.00137396
0.00134055
0.00131207
0.00128783
0.00124443
0.00120059
0.00121066
0.00123154
0.000927834
0.00108172
0.0236215
0.01056
0.00244003
0.00164586
0.00171931
0.00165676
0.00159186
0.00155996
0.00148509
0.00143481
0.00137528
0.00134436
0.0013056
0.0012826
0.00124869
0.00119962
0.00120999
0.00122416
0.000895704
0.00109107
0.0232449
0.00943729
0.00215114
0.00169383
0.00173109
0.00169451
0.00161881
0.00156074
0.00147845
0.00145106
0.00139911
0.00135495
0.00133306
0.00131312
0.00128362
0.00125236
0.00124456
0.00122378
0.000852092
0.00103973
0.0227771
0.00844636
0.00229669
0.00169001
0.00168456
0.00166446
0.00158783
0.0015645
0.00150402
0.00146189
0.00140825
0.00138069
0.00134673
0.00132583
0.00131059
0.00131871
0.00132499
0.00129641
0.00106329
0.00122169
0.00780685
0.00514357
0.00384003
0.00309003
0.00265322
0.00211697
0.00175859
0.0013943
0.00110698
0.000887575
0.00070478
0.00056971
0.000490928
0.000483817
0.000431817
0.000771303
0.0020711
0.00578562
0.0101953
0.0146163
0.00763608
0.0050632
0.0038807
0.00311925
0.00271045
0.00212928
0.00178803
0.00140783
0.00111675
0.000898026
0.000718235
0.000576085
0.000493722
0.000483204
0.00042005
0.000777893
0.00203239
0.00583811
0.0101708
0.0145963
0.00779106
0.00499015
0.00383847
0.00302428
0.00263024
0.00207565
0.00174513
0.00137166
0.00109192
0.000873365
0.000688068
0.000561598
0.000472324
0.00046238
0.000404603
0.000778509
0.00199663
0.00587386
0.0102656
0.0145495
0.00764953
0.00495563
0.00390236
0.00307905
0.00267528
0.00209133
0.00177138
0.00138875
0.00110262
0.00089196
0.000700473
0.000567941
0.00047677
0.000462718
0.00039351
0.000756564
0.00194414
0.0058751
0.01023
0.0145087
0.00687688
0.00487929
0.00384827
0.00299623
0.00259315
0.00204283
0.00172462
0.00135628
0.00107492
0.000867088
0.000677162
0.000550084
0.000451924
0.000433983
0.000371388
0.000692842
0.00186685
0.0058437
0.0102707
0.0144647
0.00747846
0.00482423
0.0038917
0.00304539
0.00262642
0.00205776
0.00174956
0.00137751
0.00108924
0.000893937
0.000693578
0.00056106
0.000454297
0.000416373
0.000343716
0.000652807
0.00177774
0.00579838
0.0102851
0.0144343
0.00780131
0.00478101
0.00384736
0.00296249
0.00254832
0.0020138
0.0017019
0.00134982
0.00105808
0.000871645
0.000669479
0.000541672
0.000431544
0.000385305
0.000303135
0.000646296
0.00173866
0.00576595
0.0103062
0.014404
0.00763731
0.00474343
0.00388411
0.00300496
0.00257113
0.00203267
0.00172725
0.0013778
0.00108036
0.000899698
0.00069021
0.000560904
0.000439104
0.000389707
0.000287488
0.000631695
0.00164546
0.00579583
0.0103294
0.0143866
0.00765433
0.00467498
0.0038402
0.0029303
0.00249575
0.00199973
0.00167961
0.00135482
0.00105164
0.000883514
0.000670095
0.000546549
0.000423009
0.000367218
0.000265983
0.000608358
0.00154506
0.0057834
0.0103581
0.0143761
0.00759517
0.00468271
0.00387341
0.00296473
0.00250931
0.00202625
0.00170164
0.00138604
0.00107456
0.000910993
0.000691158
0.000567819
0.000432974
0.000337833
0.000250538
0.000549441
0.0014623
0.00575745
0.0103771
0.0143644
0.00753177
0.00461185
0.00384061
0.00290007
0.00243939
0.00200598
0.00166083
0.0013658
0.00105094
0.000898005
0.000678293
0.000559859
0.000387321
0.000299112
0.000233788
0.000504853
0.00134097
0.00576935
0.0103855
0.0143497
0.00750251
0.00457172
0.00386346
0.0029316
0.00244215
0.00203335
0.00168153
0.00139701
0.00107832
0.000924343
0.000700807
0.000582399
0.00039783
0.000305027
0.000213836
0.000456386
0.00123585
0.00573304
0.0104246
0.0143383
0.00744863
0.00448544
0.00381027
0.00287974
0.00238638
0.00201919
0.0016455
0.00137838
0.00106085
0.000912952
0.000689507
0.000579489
0.00039133
0.000368743
0.000202492
0.000413519
0.00110909
0.00573211
0.0104274
0.014343
0.00743348
0.00441946
0.00380701
0.00289878
0.00238131
0.00204572
0.00166446
0.00140738
0.00109144
0.000939924
0.000711762
0.000600394
0.000445321
0.000376972
0.000198627
0.000351412
0.000975852
0.00569574
0.0104445
0.0143608
0.00737387
0.0042959
0.00373261
0.00285938
0.00233379
0.00203249
0.0016341
0.00138889
0.00107957
0.000930595
0.000705165
0.000601701
0.000472793
0.000382096
0.000171757
0.000295972
0.000840403
0.00568021
0.0104772
0.0143823
0.00744222
0.00420431
0.00367018
0.00286514
0.00231877
0.00205274
0.0016485
0.00141162
0.0011075
0.000955455
0.000724495
0.000619417
0.000487775
0.00041074
0.000137454
0.000249653
0.000708105
0.00565967
0.0104958
0.0144241
0.0074294
0.00408889
0.00356881
0.00281703
0.00227501
0.00203572
0.00162338
0.00139319
0.00109558
0.000945621
0.000720148
0.000620031
0.000487931
0.000424979
9.34622e-05
0.000201485
0.000576279
0.0055959
0.0105193
0.0144159
0.0075087
0.00399575
0.0034891
0.00283617
0.00228279
0.00207578
0.0016591
0.00143588
0.00113587
0.000982165
0.000745183
0.000642362
0.000505065
0.000453316
0.000132579
0.000173003
0.000421245
0.00564455
0.0105738
0.0144722
0.00741683
0.00397673
0.00330001
0.00274272
0.00222376
0.00203386
0.00163248
0.0014153
0.00112393
0.000972613
0.00074874
0.000644787
0.000507694
0.000454012
0.000128411
0.000125541
0.000259264
0.0055982
0.0106646
0.0146579
0.00788854
0.00398179
0.00318473
0.00269754
0.00217608
0.00199178
0.00159379
0.00137973
0.00110673
0.000951744
0.000735151
0.000633576
0.000500523
0.000442986
0.00016181
0.000116268
0.000118634
0.00530209
0.0104861
0.0143186
0.0148117
0.041109
0.0319027
0.0288311
0.0236675
0.0215176
0.0171755
0.0147941
0.0116675
0.00994673
0.00805342
0.00699913
0.00533929
0.00525014
0.00302965
0.0011445
0
0.0513596
0.100937
0.132324
0.0359335
0.02531
0.0211729
0.0190058
0.0154183
0.0139284
0.0115679
0.00980507
0.00809114
0.00681135
0.00569466
0.00481549
0.00439186
0.00380511
0.00368388
0.00353827
0.0134043
0.0511271
0.0978225
0.133899
0.0173915
0.0157043
0.0155203
0.0123735
0.011081
0.00959056
0.0086968
0.00773686
0.00698321
0.0063829
0.00565554
0.0053934
0.00490924
0.00452921
0.00448353
0.00406462
0.00894555
0.0505566
0.0954531
0.133101
0.0121557
0.0104049
0.00908111
0.00973314
0.00870545
0.00801922
0.00743674
0.0067825
0.0061172
0.00558915
0.00509908
0.00470655
0.00415454
0.00375436
0.00340255
0.00261388
0.00765733
0.0470605
0.0953288
0.130303
0.00701069
0.00832779
0.008303
0.00641314
0.00608989
0.00563768
0.00534634
0.00520918
0.00477659
0.00465157
0.00428037
0.0040492
0.00379151
0.00350566
0.00337166
0.00273011
0.00614561
0.0423963
0.0952464
0.129995
0.00588924
0.00417015
0.00409807
0.00481803
0.00482677
0.00499757
0.00458363
0.00451173
0.00427179
0.00413289
0.0039849
0.00375892
0.00360735
0.00341466
0.00315967
0.00237475
0.00534894
0.0382554
0.0953405
0.130465
0.00160957
0.00387656
0.00448162
0.00433041
0.00375588
0.00341461
0.00359475
0.00347843
0.00341801
0.00353429
0.00339302
0.00350873
0.00326617
0.00332128
0.0031276
0.00241138
0.00368425
0.0308492
0.0959792
0.133218
0.00258599
0.00267164
0.00229246
0.00235242
0.00260765
0.00305222
0.00298117
0.00324134
0.00304836
0.00316537
0.00319233
0.00330446
0.00332322
0.00343553
0.00316674
0.00262057
0.00258729
0.0264328
0.0948465
0.138302
0.001639
0.00188936
0.00217348
0.0024528
0.00243373
0.00232412
0.00220518
0.00241909
0.00274164
0.00285708
0.00280326
0.003004
0.0029171
0.00339343
0.00333961
0.0032445
0.00265369
0.0188899
0.0929218
0.146783
0.00124578
0.00135695
0.00138471
0.00141245
0.00156355
0.00193272
0.00209097
0.00217389
0.00217523
0.00247613
0.00264478
0.00291404
0.00308522
0.00337629
0.00355478
0.00389547
0.00317897
0.0133823
0.0869192
0.15804
0.0007366
0.000942558
0.00114133
0.0013755
0.00145274
0.00147926
0.00162513
0.0019159
0.00204694
0.0022093
0.00238128
0.00268807
0.00288786
0.00330539
0.00351116
0.00423553
0.00385495
0.00805378
0.0652679
0.171821
0.000547578
0.000710502
0.000785446
0.00092748
0.00104504
0.00125519
0.00132433
0.00149452
0.00169121
0.00197236
0.00216582
0.00239312
0.00270489
0.00301034
0.00350645
0.00368526
0.00456742
0.00460075
0.0493114
0.19313
0.000564174
0.000652184
0.000724352
0.000872291
0.000944976
0.00114123
0.0012709
0.00144012
0.00155209
0.00175852
0.00190267
0.00216246
0.0024503
0.00265182
0.00307126
0.00334657
0.00437941
0.00844757
0.0240032
0.146984
0.000533789
0.000648656
0.000693691
0.000817254
0.000891712
0.00105521
0.00112843
0.00137512
0.00142985
0.00159497
0.00166773
0.00195257
0.001893
0.00233963
0.0024262
0.00321457
0.00269428
0.00508412
0.0127975
0.0978029
0.000541377
0.000649443
0.000701461
0.000803081
0.000834203
0.000914064
0.000972315
0.00103259
0.00102558
0.00120317
0.00122837
0.00147173
0.00156748
0.00197952
0.00174155
0.0022012
0.0024289
0.00351882
0.00484894
0.0525048
0.000425105
0.000496482
0.000516048
0.000589457
0.000638203
0.000732078
0.000716193
0.000867485
0.000880224
0.00103862
0.0009313
0.00116867
0.000995526
0.0012392
0.00125581
0.00158533
0.00112519
0.0015654
0.00413056
0.0271861
0.000373653
0.000423839
0.000458638
0.000497628
0.000519304
0.000597887
0.000599148
0.000621414
0.000622619
0.000661531
0.000685924
0.00072933
0.000848858
0.000896945
0.000938363
0.000967195
0.00133627
0.00132688
0.000912466
0.0109722
0.000371435
0.000352993
0.000330804
0.000330343
0.000319855
0.000352652
0.000363085
0.000407976
0.000433766
0.000489206
0.000500191
0.00052074
0.00051532
0.000476343
0.000529057
0.000661799
0.000968206
0.000340021
0.00104631
0.00227382
0.000248646
0.000254476
0.000259306
0.000250051
0.000225728
0.000207226
0.000207685
0.000233043
0.000227735
0.000257003
0.000262785
0.000295084
0.000306618
0.000365658
0.000364204
0.000361904
0.000255425
0.000522473
0.00041734
0.00263052
0.000157775
0.000140432
0.000118556
0.000121946
9.49755e-05
8.08581e-05
0.000111389
0.000145654
0.000163701
0.000189816
0.000212927
0.000243968
0.000267902
0.000291324
0.000291451
0.000215862
0.000146048
0.000233688
0.000142622
0.000303919
0.0140618
0.0142385
0.0142068
0.0143311
0.0144027
0.0145216
0.0140814
0.0142927
0.0140713
0.0137713
0.0136387
0.0128999
0.0134853
0.0125518
0.012744
0.0115271
0.0117763
0.0106672
0.0107841
0.0114289
0.0069115
0.0069627
0.00689664
0.00697324
0.00685299
0.0068901
0.00695845
0.00686986
0.00692623
0.00728206
0.00685754
0.00703553
0.00677561
0.00716913
0.00698024
0.0074288
0.00749019
0.00664673
0.00655233
0.00796536
0.00411331
0.00414046
0.00418959
0.00424181
0.00429898
0.0044444
0.0043786
0.00454483
0.00468016
0.00460532
0.00415985
0.00448987
0.00473448
0.00454804
0.00387719
0.00359188
0.00328755
0.0038385
0.00430716
0.00461315
0.00261192
0.00261208
0.00262102
0.0026057
0.00260829
0.00258836
0.00258067
0.00258331
0.00240083
0.0024011
0.00266523
0.00264781
0.00261687
0.00303623
0.00285222
0.00301478
0.00279279
0.00299794
0.00199402
0.00254677
0.00154577
0.00155275
0.00155405
0.00156426
0.00156103
0.00160962
0.00160003
0.00164644
0.0017527
0.00182443
0.00170892
0.0017585
0.00192466
0.00191691
0.00162926
0.00167942
0.00135797
0.00108071
0.00102496
0.00116729
0.00109339
0.00110388
0.00110677
0.00112415
0.00113363
0.00117099
0.00113184
0.00114798
0.00109316
0.00112963
0.000973629
0.00106642
0.00104648
0.00112394
0.00113662
0.00133839
0.0012538
0.00129964
0.00102542
0.00118845
0.00062755
0.00063043
0.000639181
0.000649235
0.00068306
0.000666162
0.000652601
0.000650482
0.000631188
0.000672176
0.00073463
0.000923962
0.000874172
0.000906743
0.00075692
0.000731358
0.000687338
0.00078363
0.000607014
0.000552804
0.00044311
0.000446936
0.000453803
0.000468988
0.000477289
0.000452227
0.000450986
0.00044093
0.000447655
0.000449492
0.000459033
0.000474136
0.000349556
0.000433329
0.000527287
0.000585578
0.000508868
0.000595778
0.000718997
0.000692154
0.000225459
0.000227345
0.000237196
0.00023314
0.000231515
0.000237713
0.000241428
0.000254454
0.00026708
0.000261026
0.000268143
0.000268483
0.000351614
0.000389255
0.000345668
0.000343388
0.00032142
0.000277961
0.000178783
0.000166642
0.000113
0.000116122
0.000120791
0.000122305
0.000126688
0.000125417
0.000122144
0.000119983
0.000118178
0.000120596
0.00011306
0.000113991
0.000165495
0.00020009
0.000194822
0.000212618
0.000223628
0.000238212
0.000267866
0.000298856
2.32253e-05
1.33193e-05
1.0541e-05
1.22589e-05
1.61858e-05
1.62002e-05
3.33505e-05
4.83295e-05
8.34883e-05
9.57578e-05
9.42627e-05
0.000100261
9.09564e-05
0.0001085
0.000114535
0.00011752
0.000122122
0.000119793
0.000125367
0.000139267
5.81911e-05
5.43062e-05
5.02359e-05
4.96529e-05
5.1017e-05
5.5181e-05
5.44883e-05
5.52223e-05
5.77314e-05
6.06557e-05
6.81954e-05
6.68516e-05
7.36621e-05
6.5822e-05
7.42121e-05
5.38537e-05
5.4309e-05
4.07804e-05
7.37976e-05
8.84324e-05
3.12701e-05
3.58396e-05
4.90781e-05
5.23676e-05
5.92102e-05
6.50793e-05
7.10142e-05
7.26357e-05
7.98674e-05
8.20319e-05
9.17443e-05
9.3432e-05
0.000106647
0.000103651
0.000114689
0.000106872
0.000121064
0.000112875
0.000127305
0.000137772
3.25489e-05
3.07478e-05
3.16232e-05
3.33676e-05
3.59433e-05
3.96739e-05
4.2227e-05
4.30026e-05
4.25599e-05
4.31683e-05
4.13949e-05
4.48068e-05
4.68499e-05
5.14487e-05
5.2834e-05
6.06297e-05
5.61519e-05
6.58648e-05
5.82038e-05
8.18086e-05
6.17135e-05
6.41159e-05
6.68375e-05
7.00465e-05
7.16922e-05
7.29336e-05
7.51709e-05
7.80535e-05
8.21989e-05
8.53773e-05
8.90429e-05
8.85663e-05
9.24592e-05
9.39499e-05
9.94082e-05
0.000100354
0.000108399
0.000106697
0.000115525
0.000122568
8.05578e-05
8.11289e-05
8.14988e-05
8.24017e-05
8.40079e-05
8.4197e-05
8.42648e-05
8.36746e-05
8.32713e-05
8.36131e-05
8.432e-05
8.39536e-05
8.42017e-05
8.39159e-05
8.59826e-05
8.49392e-05
8.83967e-05
8.76625e-05
8.74013e-05
7.1771e-05
8.00082e-05
7.89785e-05
7.86861e-05
7.88522e-05
8.1771e-05
8.5031e-05
8.58814e-05
8.79656e-05
9.00099e-05
9.04504e-05
9.11805e-05
9.34405e-05
9.62638e-05
9.59588e-05
9.59241e-05
9.45029e-05
9.4658e-05
9.32296e-05
9.6076e-05
9.70793e-05
7.65344e-05
7.70717e-05
7.70707e-05
7.63349e-05
7.29432e-05
7.11511e-05
7.11588e-05
7.02019e-05
6.97618e-05
7.07108e-05
7.32208e-05
7.46039e-05
7.46723e-05
7.67363e-05
8.00474e-05
8.21484e-05
8.28025e-05
8.33645e-05
8.4553e-05
8.85776e-05
8.68862e-05
8.60907e-05
8.47492e-05
8.35102e-05
8.20622e-05
8.02426e-05
7.91717e-05
7.92791e-05
7.94444e-05
7.91171e-05
7.80124e-05
7.16324e-05
6.40612e-05
6.31005e-05
5.89148e-05
5.83537e-05
6.10032e-05
6.13754e-05
5.94158e-05
6.09175e-05
5.43301e-05
5.34335e-05
5.1445e-05
4.92518e-05
4.67733e-05
4.65376e-05
4.82116e-05
4.86097e-05
4.74374e-05
4.67407e-05
4.54023e-05
4.9259e-05
4.93345e-05
4.75614e-05
4.70332e-05
4.54011e-05
4.4216e-05
4.38758e-05
4.2625e-05
4.1973e-05
0.000953842
0.00113315
0.00085501
0.000909133
0.00096456
0.000980105
0.00101171
0.00104085
0.00109167
0.00113798
0.00117463
0.00120166
0.00127524
0.00131282
0.0013842
0.00137349
0.00146945
0.00154769
0.00589533
0.0184174
0.000877611
0.00103327
0.000827102
0.000900451
0.00098136
0.00101877
0.00106946
0.00110896
0.00113625
0.00116199
0.00121364
0.0012702
0.00131419
0.00132605
0.00138642
0.00138326
0.00148317
0.00128196
0.00485126
0.0179856
0.000980189
0.00113681
0.000840923
0.000900889
0.000954263
0.000983606
0.00101114
0.00105096
0.00109209
0.00114147
0.00118705
0.00121318
0.00127353
0.00131407
0.0013877
0.00138167
0.0015285
0.00129488
0.00434081
0.0175102
0.00102044
0.00115639
0.000885037
0.000966071
0.00102614
0.00105091
0.00110388
0.00114777
0.00116984
0.00120065
0.00123748
0.0012918
0.00133288
0.00134262
0.00139902
0.00139805
0.00151448
0.00133633
0.00413626
0.01695
0.00103303
0.00117134
0.000897782
0.000940721
0.000978432
0.00102115
0.00105997
0.00107679
0.0011088
0.00115523
0.00119587
0.00122413
0.0012663
0.00131681
0.00139866
0.00141719
0.00156097
0.00141463
0.00487477
0.0162375
0.00106572
0.00117274
0.000915737
0.000988349
0.00106783
0.00111149
0.00111018
0.00113553
0.00116685
0.00120428
0.00123336
0.00129047
0.00134324
0.0013823
0.00144843
0.00146227
0.00159771
0.00149029
0.00461273
0.0155466
0.00109115
0.00116799
0.000920936
0.000994819
0.00102643
0.00100714
0.00102891
0.00107279
0.00112328
0.00115599
0.0011914
0.00124312
0.00128377
0.00135247
0.00142104
0.00146241
0.00161115
0.00146495
0.00435109
0.0146045
0.0010424
0.00108998
0.00090592
0.000971744
0.000995095
0.00102669
0.00108871
0.00114387
0.00114331
0.00115983
0.00121347
0.00129458
0.00135274
0.00141556
0.00145944
0.00151692
0.00160989
0.0015628
0.00336463
0.0134152
0.00106194
0.00110163
0.000936209
0.000983823
0.00101295
0.00105066
0.00106235
0.00105379
0.00106859
0.00114179
0.00123048
0.00128826
0.00130669
0.00137045
0.00140223
0.00146586
0.00150838
0.00149925
0.00267529
0.0108485
0.000961524
0.000995408
0.000870882
0.000922431
0.000967932
0.000999365
0.00101495
0.00107587
0.00115874
0.00125459
0.00129213
0.00130377
0.0013423
0.00140328
0.00143171
0.00149261
0.00155061
0.00163365
0.00226004
0.00880542
0.00103596
0.0010701
0.000968575
0.00102215
0.00106375
0.00108697
0.00112363
0.00117969
0.00120296
0.00122171
0.0012049
0.00124788
0.00128737
0.00135428
0.00135508
0.00144168
0.00146466
0.00149116
0.00187612
0.00689534
0.000974583
0.00100211
0.000918846
0.000953319
0.000978939
0.000993303
0.00102694
0.00105937
0.0010893
0.00113587
0.00120245
0.00129425
0.00133848
0.00136419
0.00138171
0.0015032
0.00151513
0.00163939
0.00181487
0.00585643
0.000954727
0.000991764
0.000933034
0.000980842
0.00102427
0.00106859
0.0011176
0.00116168
0.00120115
0.00125281
0.00126809
0.00127819
0.00127294
0.00130684
0.00139776
0.00150166
0.0014635
0.00157281
0.00164226
0.00467201
0.000976799
0.00102516
0.000961029
0.00100555
0.00104124
0.00107034
0.00108967
0.00111632
0.00113289
0.00115341
0.00116196
0.00123509
0.00128723
0.00138081
0.00146786
0.00148027
0.0014976
0.00163477
0.00163508
0.00435818
0.000955931
0.00099097
0.000951317
0.00100197
0.00103729
0.00105996
0.00108897
0.00112582
0.00116043
0.00121425
0.00127864
0.00135312
0.00137606
0.00144333
0.00142392
0.00135706
0.00137021
0.00156315
0.00163771
0.00420783
0.000953936
0.000998126
0.000963627
0.00100975
0.00104369
0.00106533
0.00110585
0.00113403
0.00118047
0.00121812
0.00125663
0.00126855
0.00129416
0.00132603
0.0013133
0.00141872
0.00162136
0.00167388
0.00166967
0.00408467
0.000945092
0.00100024
0.000962255
0.00101182
0.00104503
0.00107121
0.00110923
0.00113782
0.00118175
0.00120411
0.00124024
0.0012856
0.00133911
0.00141035
0.00148811
0.00165369
0.00173311
0.00152338
0.00143507
0.00330501
0.000942621
0.00097732
0.000952641
0.00100614
0.00103712
0.00107594
0.00110738
0.00115208
0.00118585
0.00122834
0.00127979
0.0013281
0.00139081
0.00143177
0.00150905
0.00157094
0.00146909
0.00140126
0.001744
0.00264981
0.000951543
0.000989357
0.000965963
0.00101689
0.00104399
0.0010805
0.00110014
0.00114989
0.00116953
0.00122523
0.00126278
0.00133056
0.00132917
0.00142034
0.00140774
0.0014313
0.00143736
0.00172141
0.00178579
0.00156143
0.000922354
0.000998401
0.000962504
0.00103147
0.00105849
0.00110222
0.00112124
0.00117563
0.00118119
0.00124819
0.00125109
0.00130767
0.00130785
0.00140178
0.00141994
0.00151052
0.00158541
0.001747
0.00170373
0.00174168
0.00043472
0.000242665
0.000223931
0.000310524
0.000406853
0.000360134
0.000355739
0.000418578
0.000410097
0.000412191
0.000460807
0.000341665
0.000113201
0.000370679
0.00254647
0.00697576
0.0113941
0.0100666
0.00471496
0.00033011
0.000508724
0.000363719
0.000301256
0.00023953
0.000345066
0.000417715
0.00039423
0.000378375
0.000429373
0.000407556
0.000425403
0.000448168
0.000311354
0.000180948
0.00100627
0.00470395
0.00968776
0.0116693
0.00802904
0.000815995
0.000557432
0.000411251
0.000309301
0.00030828
0.000351218
0.000377076
0.000423865
0.000427243
0.000425458
0.000440978
0.000448797
0.000453989
0.000402102
0.000220522
0.000111095
0.00248538
0.00783755
0.0120349
0.00955235
0.00204522
0.000646742
0.000561057
0.000394993
0.000286689
0.000375891
0.000418312
0.000420029
0.00044124
0.000479081
0.000452617
0.000457564
0.000509587
0.000482507
0.000389781
0.00015937
0.00088724
0.00591861
0.0115613
0.0109773
0.00430253
0.000649647
0.000586321
0.000449248
0.000365731
0.00038933
0.000422432
0.000476118
0.000456295
0.000483071
0.000515322
0.000506831
0.000483207
0.00056407
0.000522121
0.000289155
0.000209784
0.00347935
0.0102459
0.0120314
0.00645165
0.000694313
0.000671333
0.000526862
0.000359303
0.000435366
0.000457126
0.000484941
0.000523025
0.000544007
0.000534216
0.000559777
0.000606445
0.000588317
0.000611979
0.000510044
0.000295736
0.00148813
0.00918239
0.0125866
0.0084767
0.000659918
0.00066859
0.000596236
0.00045322
0.000468414
0.000490445
0.000535199
0.000526132
0.000570578
0.000611918
0.000605007
0.00060976
0.000656988
0.000740624
0.00068344
0.000252874
0.000632785
0.00796735
0.0127543
0.0108224
0.00070677
0.000707343
0.000622685
0.000445176
0.000514557
0.000538583
0.000565894
0.000602847
0.000620458
0.000628382
0.00067793
0.000728887
0.000701988
0.000766983
0.000780474
0.000578448
0.000368695
0.00585983
0.0126428
0.0134552
0.00066511
0.000688196
0.000684521
0.000549837
0.000557642
0.000566845
0.000609311
0.000616744
0.000663916
0.000707748
0.000707059
0.000725907
0.000787383
0.000855163
0.000887932
0.000712968
0.000284631
0.00390465
0.0125388
0.0155648
0.000723386
0.000721673
0.000709405
0.000537259
0.000607297
0.000651625
0.000659924
0.000689327
0.000709999
0.000730125
0.000790359
0.000843871
0.000816846
0.000870101
0.000947026
0.000900396
0.000311613
0.00256723
0.012212
0.0164647
0.000708901
0.000694893
0.000752232
0.000639734
0.000650361
0.000657369
0.000699301
0.00072277
0.000765625
0.000803411
0.000813329
0.000841695
0.000902173
0.000977925
0.00100601
0.000968695
0.000424282
0.00171924
0.0117782
0.0171228
0.000746214
0.000693886
0.000739271
0.000610712
0.000676919
0.00074724
0.00075282
0.000773683
0.000799032
0.000829665
0.000894334
0.000943513
0.000920976
0.000993814
0.00105551
0.00109564
0.000702221
0.00114821
0.0114044