/*--------------------------------*- C++ -*----------------------------------*\
  =========                 |
  \\      /  F ield         | OpenFOAM: The Open Source CFD Toolbox
   \\    /   O peration     | Website:  https://openfoam.org
    \\  /    A nd           | Version:  9
     \\/     M anipulation  |
\*---------------------------------------------------------------------------*/
FoamFile
{
    format      ascii;
    class       volScalarField;
    location    "12";
    object      p;
}
// * * * * * * * * * * * * * * * * * * * * * * * * * * * * * * * * * * * * * //

dimensions      [0 2 -2 0 0 0 0];

internalField   nonuniform List<scalar> 
46400
(
-74.0036
-63.455
-45.9761
-30.9846
-17.4044
-4.75751
6.64184
17.2516
26.9411
35.9366
44.2508
52.0022
59.243
66.0558
72.5368
78.6908
84.4989
90.7499
96.7498
99.0789
-35.1295
-25.3737
-9.46537
4.32766
16.6527
28.1914
38.5178
48.0895
56.7804
64.8263
72.2241
79.0584
85.3925
91.2633
96.7284
101.792
106.474
111.213
115.395
116.716
3.50678
12.5655
26.6096
39.0513
49.9772
60.2599
69.441
77.9302
85.6247
92.6934
99.168
105.122
110.615
115.674
120.373
124.677
128.577
132.543
135.619
135.825
41.6413
48.7628
61.2038
72.6324
82.5073
91.763
99.9738
107.503
114.279
120.44
126.044
131.114
135.737
139.928
143.752
147.198
150.302
153.428
155.843
155.663
77.0545
83.1289
94.7251
105.162
114.079
122.316
129.547
136.089
141.943
147.198
151.949
156.22
160.088
163.573
166.737
169.564
172.027
174.521
176.389
175.732
110.748
116.885
127.606
137.112
144.972
152.197
158.48
164.092
169.066
173.473
177.404
180.885
183.978
186.713
189.152
191.302
193.185
195.109
196.552
195.697
144.095
150.886
160.105
168.436
175.21
181.291
186.563
191.167
195.228
198.756
201.874
204.589
206.98
209.062
210.875
212.417
213.688
214.995
215.903
214.714
177.076
184.529
191.941
198.843
204.422
209.337
213.575
217.214
220.364
223.059
225.381
227.357
229.041
230.46
231.678
232.689
233.496
234.335
234.941
233.597
209.121
216.584
222.316
227.734
232.224
236.027
239.289
241.999
244.307
246.201
247.779
249.054
250.074
250.862
251.451
251.863
252.1
252.397
252.549
251.03
240.256
246.375
250.894
254.837
258.186
260.911
263.22
265.048
266.539
267.678
268.562
269.188
269.627
269.87
269.97
269.906
269.69
269.52
269.204
267.472
268.482
273.144
276.769
279.703
282.176
284.084
285.624
286.71
287.511
287.967
288.189
288.165
287.968
287.606
287.126
286.517
285.8
285.13
284.352
282.397
293.527
297.246
300.082
302.122
303.808
304.938
305.78
306.224
306.424
306.341
306.064
305.579
304.938
304.143
303.231
302.209
301.077
299.988
298.793
296.613
316.332
319.295
321.376
322.716
323.692
324.158
324.348
324.157
323.75
323.069
322.225
321.192
320.046
318.766
317.414
315.957
314.436
312.935
311.356
308.992
336.479
338.77
340.29
341.025
341.456
341.384
341.051
340.389
339.53
338.435
337.184
335.764
334.22
332.564
330.82
329
327.108
325.242
323.305
320.704
354.385
356.066
357.047
357.244
357.174
356.56
355.717
354.537
353.196
351.643
349.975
348.169
346.28
344.292
342.251
340.134
337.97
335.83
333.659
330.921
370.168
371.287
371.829
371.568
371.048
370.104
368.877
367.355
365.642
363.739
361.709
359.564
357.338
355.042
352.702
350.314
347.886
345.491
343.115
340.204
383.958
384.151
384.23
383.436
382.478
381.118
379.564
377.749
375.77
373.62
371.355
368.981
366.535
364.024
361.478
358.899
356.289
353.716
351.186
348.191
395.203
395.15
394.753
393.8
392.455
390.765
388.847
386.712
384.426
382.001
379.477
376.873
374.204
371.493
368.749
365.989
363.204
360.464
357.79
354.715
402.666
402.496
401.917
400.773
399.429
397.638
395.673
393.438
391.07
388.527
385.91
383.175
380.407
377.57
374.731
371.856
368.98
366.129
363.383
360.201
410.267
409.71
408.485
406.961
405.144
403.07
400.846
398.414
395.887
393.201
390.455
387.597
384.711
381.766
378.817
375.846
372.875
369.939
367.118
363.948
-562.503
-557.492
-537.002
-510.446
-483.451
-458.02
-434.282
-412.008
-391.036
-371.255
-352.577
-334.889
-318.165
-302.272
-287.298
-273.029
-259.745
-247.066
-235.331
-224.126
-560.503
-555.837
-532.345
-505.345
-478.651
-453.141
-429.337
-406.944
-385.82
-365.945
-347.153
-329.4
-312.631
-296.735
-281.738
-267.469
-254.219
-241.565
-229.944
-218.735
-555.798
-550.971
-528.6
-499.541
-472.534
-446.76
-422.711
-400.164
-378.937
-358.969
-340.149
-322.366
-305.577
-289.686
-274.718
-260.507
-247.354
-234.731
-223.226
-212.035
-549.4
-544.607
-521.694
-491.879
-464.14
-438.169
-414.017
-391.407
-370.153
-350.21
-331.418
-313.706
-297.024
-281.245
-266.37
-252.288
-239.228
-226.743
-215.415
-204.285
-539.588
-534.335
-510.514
-480.609
-453.001
-427.08
-403.011
-380.564
-359.447
-339.639
-321.006
-303.424
-286.867
-271.228
-256.493
-242.565
-229.619
-217.253
-206.073
-194.992
-527.143
-521.089
-496.757
-466.999
-439.56
-413.898
-389.99
-367.699
-346.789
-327.194
-308.788
-291.473
-275.193
-259.836
-245.378
-231.749
-219.072
-206.984
-196.147
-185.2
-511.836
-504.984
-479.947
-450.454
-423.359
-398.085
-374.55
-352.682
-332.127
-312.872
-294.801
-277.772
-261.786
-246.713
-232.529
-219.17
-206.734
-194.928
-184.393
-173.651
-493.504
-485.951
-460.721
-431.734
-405.115
-380.336
-357.207
-335.7
-315.575
-296.726
-279.069
-262.474
-246.893
-232.232
-218.449
-205.495
-193.414
-181.969
-171.798
-161.23
-472.441
-464.196
-438.731
-410.339
-384.277
-360.111
-337.54
-316.644
-297.043
-278.693
-261.518
-245.363
-230.238
-215.999
-202.619
-190.048
-178.298
-167.219
-157.371
-147.041
-448.679
-439.913
-414.655
-386.775
-361.462
-338.058
-316.144
-295.816
-276.848
-259.09
-242.486
-226.893
-212.279
-198.55
-185.666
-173.577
-162.256
-151.617
-142.19
-132.099
-422.585
-413.353
-388.251
-361.313
-336.471
-313.85
-292.644
-273.014
-254.687
-237.541
-221.542
-206.529
-192.504
-179.325
-166.976
-155.399
-144.534
-134.379
-125.343
-115.58
-393.869
-384.527
-359.363
-333.779
-309.856
-288.033
-267.71
-248.841
-231.292
-214.884
-199.574
-185.215
-171.797
-159.21
-147.427
-136.389
-126.013
-116.363
-107.782
-98.3196
-363.467
-353.886
-328.771
-304.373
-281.264
-260.299
-240.756
-222.675
-205.875
-190.184
-175.587
-161.92
-149.18
-137.245
-126.098
-115.675
-105.861
-96.7911
-88.6528
-79.5973
-330.739
-321.132
-296.315
-273.196
-251.358
-231.365
-212.862
-195.681
-179.753
-164.873
-151.035
-138.082
-126.014
-114.723
-104.192
-94.3541
-85.0907
-76.5823
-68.9175
-60.2053
-296.901
-287.051
-262.947
-240.726
-219.867
-200.841
-183.186
-166.863
-151.766
-137.7
-124.643
-112.449
-101.103
-90.5108
-80.6496
-71.4574
-62.8013
-54.9107
-47.6981
-39.4226
-261.359
-251.464
-228.278
-207.331
-187.632
-169.636
-153.039
-137.633
-123.419
-110.151
-97.8718
-86.4056
-75.7514
-65.8239
-56.6005
-48.0103
-39.9389
-32.6263
-25.867
-17.9583
-225.304
-215.341
-192.938
-172.955
-154.304
-137.269
-121.608
-107.11
-93.7731
-81.3726
-69.8869
-59.1915
-49.2519
-40.0093
-31.4359
-23.4704
-16.011
-9.31715
-3.05255
4.35071
-188.081
-177.853
-156.379
-137.826
-120.37
-104.424
-89.8203
-76.2679
-63.8349
-52.2474
-41.5623
-31.6147
-22.3782
-13.8073
-5.86822
1.51067
8.36341
14.4262
20.1535
27.1355
-150.241
-139.951
-119.646
-102.238
-86.0743
-71.1577
-57.5821
-44.9516
-33.3747
-22.6112
-12.6571
-3.39164
5.21322
13.21
20.6376
27.5791
33.9497
39.5374
45.0904
52.3342
-112.309
-102.101
-82.9538
-66.6709
-51.6805
-37.8212
-25.2641
-13.5965
-2.92265
7.03789
16.2599
24.8813
32.9696
40.5603
47.7606
54.5924
60.9141
67.0178
73.8756
80.9531
-170.434
-114.771
-64.4517
-33.2849
-3.65259
15.6913
33.2778
46.3933
57.0397
66.3468
72.9198
79.6571
83.6261
88.6761
90.9979
95.0139
96.7542
98.7353
99.9693
100.048
-165.677
-111.456
-61.4685
-31.1894
-1.89575
17.0178
34.3831
47.3145
57.7918
67.0019
73.4518
80.1179
83.9748
88.9655
91.1092
95.1755
96.7836
98.8749
99.964
99.9824
-159.538
-107.535
-58.3064
-28.9767
-0.0893216
18.4413
35.5305
48.2844
58.5779
67.6878
74.0088
80.5955
84.3239
89.2518
91.2369
95.3536
96.811
99.0244
100.132
99.9608
-153.13
-103.101
-54.6989
-26.3634
1.97157
20.0723
36.8365
49.4066
59.4855
68.4893
74.6677
81.1654
84.7743
89.599
91.3873
95.5508
96.8128
99.1452
100.106
99.8907
-145.413
-98.1305
-50.913
-23.641
4.09369
21.8018
38.1867
50.578
60.4251
69.3207
75.3529
81.7566
85.2332
89.951
91.5476
95.8817
96.8412
99.3756
100.112
99.8874
-137.204
-92.5546
-46.6883
-20.5248
6.45438
23.728
39.6928
51.8951
61.4897
70.2661
76.1397
82.4432
85.7952
90.3817
91.7976
96.4819
97.0275
99.7709
100.084
99.9134
-127.866
-86.4508
-42.278
-17.2991
8.88723
25.7537
41.2446
53.2596
62.5838
71.2395
76.9562
83.1543
86.3831
90.8498
92.1739
97.1196
97.3088
100.298
99.9913
99.9395
-118.159
-79.7483
-37.4597
-13.6958
11.5389
27.9642
42.949
54.7626
63.8049
72.3234
77.8724
83.9599
87.0757
91.4105
92.6439
97.7941
97.5741
100.692
99.9578
99.983
-107.404
-72.595
-32.4392
-9.98588
14.2738
30.27
44.7003
56.3087
65.0533
73.4334
78.8204
84.7922
87.799
92.0153
93.2026
98.4855
97.8268
101.089
100.034
100.056
-96.0973
-64.8666
-27.0568
-5.92222
17.2045
32.7481
46.5998
57.9854
66.4275
74.6479
79.8628
85.715
88.6149
92.7003
93.8336
99.1512
98.1069
101.492
100.131
100.128
-83.8664
-56.7702
-21.4638
-1.75772
20.2256
35.3121
48.5467
59.6993
67.8276
75.8868
80.9384
86.6654
89.4638
93.4641
94.5337
99.853
98.3696
101.893
100.168
100.225
-70.9331
-48.1309
-15.5771
2.72771
23.4159
38.032
50.6345
61.534
69.3479
77.222
82.1005
87.6973
90.4043
94.3828
95.3511
100.56
98.6045
102.282
100.196
100.347
-57.1863
-39.1557
-9.47326
7.31676
26.7084
40.8304
52.7729
63.4014
70.8944
78.581
83.2962
88.7577
91.3672
95.3601
96.2321
101.238
98.8374
102.632
100.197
100.472
-42.6447
-29.7526
-3.18031
12.1738
30.1422
43.7684
55.0476
65.3834
72.5557
80.0299
84.57
89.8875
92.4041
96.3293
97.1081
101.926
99.084
102.985
100.24
100.638
-27.2391
-19.9912
3.25333
17.0646
33.6322
46.7342
57.3469
67.3746
74.2307
81.4932
85.872
91.0359
93.5003
97.3386
97.9901
102.664
99.4065
103.364
100.278
100.82
-10.7676
-9.58911
9.94463
22.2475
37.2806
49.8376
59.7762
69.4651
76.0022
83.03
87.2347
92.235
94.647
98.2888
98.9259
103.427
99.7767
103.697
100.26
101.03
5.85543
1.11081
16.9322
27.7176
41.2206
53.1489
62.3782
71.6775
77.8725
84.645
88.6711
93.4935
95.8098
99.2966
99.8944
104.176
100.189
104.083
100.251
101.205
23.0311
11.1343
23.1608
32.6873
44.858
56.3032
64.9486
73.8983
79.7823
86.303
90.1533
94.7949
97.0068
100.421
100.857
104.989
100.617
104.677
100.316
101.714
45.5904
22.7785
28.9184
36.616
47.6221
58.6376
66.8788
75.5788
81.2918
87.6467
91.4075
95.9021
98.0505
101.331
101.707
105.78
100.965
104.801
100.069
101.776
69.7314
40.8741
39.6264
44.949
53.355
63.167
70.2899
78.3077
83.5575
89.5328
93.0388
97.3395
99.3468
102.487
102.739
106.722
101.452
105.071
98.9619
102.429
120.903
131.415
116.586
115.721
107.254
108.308
105.475
106.935
106.323
108.193
108.433
110.652
110.593
113.018
111.842
114.632
110.539
116.188
103.213
122.84
186.758
177.583
156.028
148.593
137.962
133.751
128.273
125.998
123.467
122.258
121.164
120.714
120.5
120.569
120.221
121.021
119.658
121.426
119.93
122.707
205.002
193.41
180.752
171.844
163.095
157.245
151.863
148.273
145.038
142.96
140.833
139.56
137.996
137.511
136.599
136.247
136.124
135.441
135.853
136.297
213.692
204.534
193.429
185.924
177.993
172.144
166.449
162.014
157.922
154.626
151.739
149.34
147.27
145.321
143.916
142.696
141.733
141.069
140.777
140.698
210.781
203.241
197.058
190.771
185.405
180.243
175.809
171.861
168.333
165.372
162.596
160.361
158.151
156.476
154.708
153.257
151.887
150.473
149.701
149.564
212.411
207.157
201.505
196.607
191.814
187.617
183.408
179.811
176.228
173.191
170.206
167.652
165.233
162.914
160.962
158.896
157.402
155.992
155.092
154.629
208.921
205.128
202.231
198.592
195.115
191.643
188.441
185.468
182.58
180.007
177.407
175.198
172.807
170.902
168.614
166.83
164.653
162.862
161.516
160.886
210.208
207.72
204.305
201.315
198.188
195.642
192.784
190.277
187.618
185.295
182.822
180.685
178.338
176.323
174.008
172.033
169.639
167.662
165.648
165.018
209.022
206.989
205.077
203.22
201.063
198.936
196.717
194.693
192.572
190.706
188.61
186.902
184.788
183.165
180.89
179.248
176.556
174.851
172.198
171.612
210.2
208.879
207.041
205.244
203.306
201.673
199.846
198.27
196.482
194.981
193.253
191.801
190.035
188.625
186.636
185.204
182.548
181.162
177.522
177.368
211.118
209.987
208.653
207.553
206.183
204.905
203.528
202.321
201.048
199.934
198.74
197.729
196.55
195.652
194.335
193.572
191.555
191.52
187.539
189.391
211.896
211.029
209.907
209.03
207.963
207.127
206.129
205.356
204.465
203.801
203.057
202.529
201.957
201.599
201.215
201.064
200.798
200.842
201.747
203.555
213.321
212.67
211.845
211.264
210.503
209.939
209.271
208.831
208.294
208.042
207.712
207.667
207.648
207.803
208.284
208.602
209.961
210.24
213.233
214.055
214.197
213.737
213.127
212.698
212.166
211.838
211.396
211.235
210.93
211.009
210.868
211.307
211.425
212.347
212.848
214.371
215.482
217.98
220.713
222.192
215.404
215.077
214.656
214.373
214.035
213.875
213.647
213.665
213.573
213.853
213.976
214.598
214.971
216.015
216.621
218.475
219.698
222.286
224.093
228.144
216.255
215.984
215.651
215.469
215.231
215.161
215.022
215.135
215.11
215.461
215.544
216.191
216.426
217.464
218.026
219.374
220.002
222.402
223.221
233.734
217.094
216.884
216.655
216.523
216.393
216.367
216.347
216.487
216.581
216.934
217.188
217.771
218.194
219.094
219.546
220.917
221.547
223.465
223.98
226.549
217.623
217.441
217.264
217.173
217.079
217.105
217.118
217.3
217.414
217.737
217.898
218.405
218.603
219.296
219.596
220.677
220.979
222.099
221.968
228.727
218.056
217.893
217.752
217.676
217.62
217.647
217.671
217.804
217.902
218.166
218.36
218.773
219.048
219.587
219.919
220.523
220.786
221.397
221.397
222.211
218.231
218.076
217.938
217.876
217.816
217.875
217.914
218.03
218.166
218.401
218.619
218.963
219.248
219.698
220.012
220.535
220.856
221.425
221.602
226.345
326.915
324.522
321.181
317.452
312.706
307.546
301.428
294.586
287.184
278.752
269.883
259.873
249.733
238.306
226.604
213.714
200.662
186.458
172.367
157.806
297.689
296.195
294.323
292.254
289.709
287.04
283.878
280.49
276.982
272.646
267.014
262.782
258.131
253.275
248.169
242.943
237.368
230.548
222.669
213.871
261.76
260.723
259.597
258.304
256.903
255.371
253.637
251.908
249.757
247.774
245.217
243.061
239.884
236.251
232.589
229.299
226.237
223.492
220.004
216.985
249.756
249.021
248.197
247.337
246.359
245.371
244.209
243.07
241.73
240.374
238.896
237.318
235.854
233.878
231.474
229.621
227.325
225.418
223.27
221.37
234.535
233.979
233.35
232.729
232.016
231.331
230.536
229.747
228.868
227.98
227.023
226.07
224.917
223.809
222.389
220.911
219.144
217.636
216.013
214.692
229.146
228.695
228.225
227.738
227.211
226.689
226.093
225.522
224.852
224.244
223.468
222.809
221.986
221.265
220.375
219.542
218.389
217.299
216.291
215.374
222.81
222.432
222.025
221.603
221.174
220.709
220.229
219.737
219.194
218.661
218.031
217.466
216.734
216.067
215.122
214.246
213.277
212.465
211.602
210.87
220.423
220.117
219.806
219.478
219.143
218.753
218.348
217.904
217.437
216.956
216.462
215.961
215.446
214.921
214.44
213.932
213.405
212.926
212.364
211.888
217.919
217.625
217.333
216.992
216.616
216.165
215.7
215.253
214.84
214.426
214.031
213.648
213.254
212.901
212.513
212.126
211.692
211.272
210.813
210.361
217.074
216.827
216.568
216.309
216.041
215.768
215.49
215.209
214.927
214.635
214.345
214.036
213.739
213.408
213.08
212.73
212.381
212.013
211.641
211.274
216.497
216.304
216.109
215.9
215.69
215.467
215.241
214.998
214.756
214.501
214.252
213.994
213.739
213.476
213.217
212.951
212.687
212.419
212.149
211.882
216.739
216.556
216.371
216.183
215.99
215.795
215.597
215.396
215.191
214.979
214.764
214.539
214.31
214.072
213.836
213.59
213.348
213.095
212.847
212.589
216.9
216.764
216.635
216.499
216.359
216.212
216.062
215.905
215.746
215.581
215.42
215.253
215.094
214.925
214.76
214.581
214.409
214.222
214.042
213.849
217.585
217.436
217.289
217.141
216.993
216.845
216.696
216.544
216.394
216.24
216.086
215.927
215.767
215.602
215.442
215.276
215.114
214.945
214.783
214.611
217.954
217.834
217.715
217.596
217.478
217.359
217.241
217.123
217.005
216.887
216.769
216.651
216.534
216.415
216.298
216.179
216.063
215.944
215.828
215.707
218.517
218.408
218.299
218.19
218.081
217.972
217.864
217.756
217.648
217.541
217.435
217.329
217.224
217.119
217.015
216.911
216.81
216.707
216.609
216.507
218.969
218.87
218.772
218.675
218.579
218.484
218.391
218.299
218.207
218.117
218.029
217.941
217.855
217.77
217.687
217.604
217.523
217.443
217.366
217.288
219.304
219.211
219.119
219.028
218.939
218.851
218.765
218.679
218.596
218.514
218.433
218.354
218.276
218.201
218.127
218.055
217.985
217.916
217.85
217.785
219.551
219.465
219.382
219.301
219.221
219.143
219.066
218.992
218.919
218.848
218.779
218.708
218.635
218.565
218.497
218.432
218.37
218.309
218.25
218.195
219.703
219.613
219.525
219.439
219.354
219.271
219.19
219.111
219.033
218.957
218.883
218.814
218.751
218.689
218.631
218.572
218.515
218.46
218.407
218.357
210.825
209.516
205.85
202.49
199.351
195.994
192.462
188.704
184.646
180.239
175.457
170.181
164.418
157.955
150.945
143
134.429
124.765
113.207
106.401
222.264
222.235
220.344
218.019
215.697
213.101
210.218
207.048
203.557
199.716
195.457
190.758
185.577
179.814
173.495
166.32
158.671
149.787
139.691
133.041
235.305
236.027
234.592
232.823
231.029
228.964
226.654
224.092
221.23
218.038
214.505
210.548
206.145
201.147
195.647
189.364
182.581
174.616
165.902
160.21
249.763
250.708
249.685
248.46
247.213
245.72
243.976
241.988
239.698
237.101
234.121
230.74
226.903
222.544
217.687
212.046
205.953
198.67
190.636
186.359
263.234
264.36
263.738
262.905
262.072
261.022
259.756
258.279
256.535
254.515
252.189
249.513
246.428
242.848
238.776
233.982
228.662
222.144
214.581
210.468
276.756
278.186
277.973
277.648
277.324
276.813
276.111
275.202
274.049
272.664
270.958
268.923
266.478
263.606
260.254
256.186
251.664
245.879
239.22
234.548
289.826
291.335
291.327
291.324
291.294
291.113
290.782
290.317
289.65
288.783
287.665
286.301
284.583
282.512
279.956
276.879
273.312
268.592
263.497
258.131
301.501
303.214
303.719
304.192
304.705
305.094
305.37
305.516
305.482
305.269
304.823
304.143
303.13
301.81
300.049
297.862
295.127
291.651
287.852
282.527
312.966
314.9
315.736
316.555
317.379
318.091
318.673
319.16
319.516
319.753
319.788
319.628
319.176
318.464
317.352
315.921
313.993
311.599
308.675
304.641
322.496
324.634
325.911
327.172
328.468
329.693
330.843
331.92
332.892
333.744
334.402
334.866
335.046
335.008
334.619
333.934
332.778
331.219
329.055
326.019
332.444
334.865
336.495
338.1
339.725
341.265
342.717
344.078
345.307
346.405
347.33
348.119
348.667
349.026
349.024
348.818
348.118
347.132
345.479
343.12
340.199
342.735
344.617
346.51
348.423
350.3
352.114
353.89
355.574
357.186
358.666
360.024
361.177
362.141
362.821
363.268
363.256
362.948
361.945
360.209
347.913
350.68
352.897
355.116
357.365
359.561
361.695
363.769
365.732
367.604
369.302
370.887
372.241
373.462
374.376
375.089
375.343
375.374
374.683
373.489
354.109
357.007
359.34
361.726
364.139
366.519
368.851
371.153
373.383
375.562
377.638
379.638
381.473
383.187
384.615
385.847
386.612
387.214
387.045
386.423
359.454
362.45
365
367.607
370.263
372.876
375.474
378.02
380.523
382.939
385.261
387.444
389.452
391.259
392.781
394.093
395.092
395.891
396.022
395.955
363.52
366.602
369.218
371.932
374.687
377.423
380.137
382.836
385.484
388.083
390.591
393.01
395.287
397.424
399.37
401.113
402.567
403.684
404.272
404.39
366.263
369.448
372.182
375.042
377.936
380.833
383.699
386.567
389.367
392.136
394.795
397.383
399.799
402.097
404.116
405.934
407.25
408.18
408.633
408.672
367.703
370.886
373.695
376.613
379.58
382.533
385.481
388.414
391.312
394.166
396.945
399.645
402.203
404.619
406.821
408.737
410.376
411.586
412.6
412.88
367.838
371.061
373.89
376.861
379.862
382.875
385.855
388.857
391.781
394.71
397.506
400.277
402.831
405.342
407.511
409.626
411.258
412.816
413.693
414.397
366.753
370.012
372.824
375.773
378.763
381.758
384.722
387.698
390.6
393.489
396.256
398.981
401.523
403.994
406.193
408.287
409.994
411.486
412.437
412.871
-4.33802
-8.50453
-12.6825
-16.9925
-21.3522
-25.8394
-30.3955
-35.0835
-39.8072
-44.6701
-49.6252
-54.7426
-59.9653
-64.6367
-69.4285
-73.609
-77.6174
-78.6975
-78.6448
-78.6257
0.918876
-3.27165
-7.47069
-11.8719
-16.2827
-20.8645
-25.5171
-30.3199
-35.2112
-40.2243
-45.3034
-50.4919
-55.8189
-61.1907
-66.2222
-71.3131
-75.6183
-76.1662
-77.7281
-77.3244
6.24674
2.03683
-2.22981
-6.66291
-11.187
-15.8798
-20.6694
-25.6438
-30.6943
-35.9367
-41.2689
-46.7707
-52.4181
-58.0491
-63.6945
-69.335
-73.9462
-76.6465
-78.4136
-78.6026
12.1539
7.85835
3.48029
-1.17203
-5.81236
-10.6972
-15.6692
-20.8737
-26.1998
-31.6996
-37.3805
-43.1856
-49.2269
-55.2988
-61.6771
-67.4507
-72.8259
-77.5215
-78.4304
-79.3255
18.2517
13.7888
9.3142
4.54008
-0.271033
-5.38991
-10.5732
-16.0416
-21.6708
-27.5615
-33.6566
-40.0106
-46.5511
-53.3885
-60.354
-67.5528
-74.685
-80.8563
-82.8897
-84.1449
24.725
20.153
15.6624
10.681
5.7571
0.457636
-4.97584
-10.6895
-16.6624
-22.9069
-29.4949
-36.3571
-43.6521
-51.3347
-59.3074
-67.8974
-76.7437
-84.7222
-89.8041
-90.8885
31.6208
26.9757
22.4126
17.3251
12.2415
6.78215
1.13954
-4.83363
-11.092
-17.7244
-24.6938
-32.0985
-39.9682
-48.2437
-57.1811
-66.8121
-76.9695
-86.7386
-94.7194
-95.5785
38.963
34.2692
29.7716
24.6294
19.4834
13.9133
8.09835
1.94696
-4.57921
-11.4791
-18.8571
-26.6763
-35.057
-43.9842
-53.6914
-64.0654
-75.1942
-86.2538
-96.7197
-99.099
47.1201
42.4223
37.9882
32.8116
27.6126
21.9764
16.0328
9.71003
3.00988
-4.16992
-11.7919
-19.9686
-28.7557
-38.1488
-48.3237
-59.2666
-71.0051
-83.3773
-94.8253
-97.0116
56.6574
51.7982
47.3785
42.1312
36.8376
31.165
25.1203
18.7093
11.8411
4.52277
-3.36207
-11.7969
-20.9228
-30.7264
-41.3943
-53.0047
-65.5597
-79.252
-90.6231
-92.7825
66.9246
61.9372
57.4993
52.3478
47.0459
41.3946
35.3542
28.8931
22.012
14.5817
6.65071
-1.93255
-11.2316
-21.2202
-32.1571
-44.0514
-57.073
-71.1712
-84.0436
-87.4621
77.624
72.711
68.4582
63.4595
58.2515
52.7041
46.7301
40.3585
33.4877
26.1144
18.1375
9.54098
0.215672
-9.8357
-20.8989
-32.8392
-45.9204
-60.2693
-73.6705
-77.5886
89.5041
84.6626
80.5308
75.7303
70.6456
65.2582
59.4242
53.1385
46.4094
39.0979
31.2519
22.7077
13.4296
3.40014
-7.64557
-19.502
-32.7662
-47.0941
-61.0169
-65.8202
101.843
97.0862
93.22
88.7184
83.8485
78.6828
73.0645
67.0252
60.4752
53.3947
45.7071
37.3608
28.3017
18.4493
7.60214
-4.10597
-17.2576
-31.1815
-45.1403
-50.5068
115.616
111.006
107.305
103.101
98.4347
93.5147
88.1457
82.3009
76.0075
69.1435
61.7349
53.6288
44.8135
35.2132
24.6643
13.249
0.440604
-13.3449
-27.6807
-33.2942
129.723
125.201
121.765
117.932
113.554
108.913
103.843
98.3435
92.355
85.8378
78.7402
70.9886
62.5771
53.3628
43.2246
32.2663
19.8108
6.84635
-7.50914
-13.4615
144.755
140.573
137.428
133.998
129.916
125.576
120.838
115.622
109.963
103.779
97.0719
89.7056
81.697
72.8785
63.2736
52.7103
40.8636
28.4967
13.7565
7.66304
160.006
156.052
153.256
150.268
146.531
142.512
138.113
133.292
128.022
122.259
115.963
109.062
101.56
93.2994
84.2403
74.2917
63.1683
51.5794
37.1272
30.5402
177.581
173.477
170.74
167.932
164.473
160.652
156.539
152.008
147.063
141.666
135.807
129.361
122.359
114.58
106.167
96.7588
86.4339
75.3907
61.5659
54.8882
199.024
194.744
190.632
187.163
183.478
179.524
175.392
171.006
166.312
161.253
155.772
149.807
143.327
136.185
128.383
119.659
110.169
99.7522
86.935
80.3073
154.488
154.391
153.654
152.409
150.883
148.455
146.883
143.916
141.246
137.519
133.337
128.351
121.743
114.892
104.524
94.9205
78.2535
64.2961
38.3665
15.0795
154.5
154.326
153.921
152.516
151.193
148.725
147.375
144.498
141.962
138.334
134.295
129.505
123.141
116.514
106.39
97.1619
80.9802
67.7599
42.7461
21.0019
154.609
154.338
154.271
152.592
151.563
148.991
147.901
145.115
142.707
139.169
135.275
130.575
124.429
118.008
108.299
99.5249
83.979
71.4705
47.0976
26.7752
154.663
154.389
154.644
152.705
152.124
149.329
148.398
145.748
143.471
140.032
136.325
131.787
125.903
119.71
110.296
101.879
86.9134
75.2486
51.623
32.713
154.793
154.456
155.037
152.826
152.644
149.79
148.941
146.418
144.261
140.923
137.366
132.935
127.291
121.308
112.282
104.429
90.0755
79.0473
56.2635
38.7421
154.877
154.534
155.374
153.061
153.154
150.306
149.546
147.108
145.072
141.839
138.478
134.2
128.841
123.081
114.418
106.91
93.1175
83.1482
61.0646
45.0574
155.024
154.636
155.786
153.262
153.675
150.92
150.245
147.844
145.908
142.783
139.573
135.423
130.322
124.771
116.584
109.489
96.4107
87.2285
66.013
51.6861
155.142
154.76
156.09
153.497
154.122
151.517
150.904
148.603
146.76
143.749
140.737
136.741
131.938
126.615
118.84
112.082
99.6998
91.497
71.1637
58.3284
155.301
154.894
156.383
153.718
154.554
152.121
151.554
149.391
147.635
144.742
141.889
138.034
133.506
128.395
121.115
114.733
103.17
95.6758
76.5855
65.7665
155.441
155.05
156.73
153.952
155
152.705
152.201
150.188
148.527
145.754
143.095
139.404
135.18
130.304
123.472
117.435
106.651
100.08
82.3712
74.785
155.613
155.207
157.07
154.176
155.465
153.294
152.885
151.007
149.439
146.791
144.301
140.764
136.825
132.17
125.848
120.176
110.402
105.193
88.1655
83.3325
155.778
155.373
157.416
154.403
155.937
153.861
153.575
151.838
150.366
147.845
145.543
142.183
138.548
134.135
128.283
122.962
114.127
109.988
94.5482
91.6163
155.964
155.543
157.773
154.608
156.425
154.479
154.292
152.689
151.312
148.923
146.798
143.608
140.262
136.084
130.735
125.777
118.076
114.688
100.918
100.889
156.158
155.7
158.143
154.805
156.942
155.14
155.024
153.555
152.274
150.019
148.081
145.082
142.033
138.107
133.224
128.654
121.999
119.382
107.823
110.493
156.343
155.737
158.494
154.945
157.45
155.836
155.765
154.423
153.235
151.114
149.356
146.547
143.782
140.104
135.692
131.535
126.084
124.275
114.724
120.861
156.53
155.685
158.774
155.088
157.924
156.578
156.531
155.309
154.213
152.227
150.657
148.053
145.58
142.162
138.199
134.506
130.179
129.323
122.378
132.13
156.724
155.659
159.128
155.187
158.871
157.433
157.393
156.277
155.309
153.5
152.129
149.725
147.531
144.375
140.9
137.719
134.511
134.549
130.206
143.411
157.066
155.717
159.706
155.293
159.571
158.24
158.15
157.149
156.26
154.582
153.399
151.224
149.292
146.376
143.225
140.526
138.408
139.602
136.809
154.627
156.798
155.378
159.584
155.419
159.617
158.739
158.485
157.612
156.758
155.234
154.206
152.274
150.517
147.821
144.865
142.86
141.842
144.677
145.501
170.696
157.709
154.121
159.651
156.636
161.082
160.297
160.167
159.214
158.595
157.146
156.393
154.605
153.369
151.017
149.028
147.631
148.727
152.606
160.295
190.675
179.799
158.853
174.298
172.04
176.156
174.423
177.226
176.492
178.412
177.829
179.686
178.963
182.211
182.233
188.81
189.048
199.527
198.912
218.548
218.312
176.959
174.518
177.15
176.396
178.711
178.9
180.769
181.345
183.377
184.422
187.167
189.119
193.401
196.184
202.478
207.456
217.424
225.065
240.875
252.712
186.109
185.538
186.551
186.874
188.716
189.408
191.139
192.37
194.29
196.028
198.504
201.056
204.418
207.726
212.742
217.476
224.262
230.638
240.097
249.811
188.5
188.6
189.361
190.088
191.463
192.762
194.5
196.264
198.567
200.913
203.799
206.646
210.083
214.047
218.275
223.366
228.662
235.128
241.069
246.987
192.083
192.248
192.933
194.662
196.134
197.741
199.465
201.208
203.163
205.141
207.399
209.73
212.39
215.199
218.211
221.607
224.793
228.788
232.57
237.802
193.578
193.943
195.061
196.74
198.304
200.116
201.972
203.859
205.959
208.032
210.288
212.64
215.046
217.762
220.229
223.285
225.711
228.902
230.231
232.568
195.071
195.769
197.124
199.014
200.992
202.684
204.598
206.174
208.017
209.578
211.384
213.002
214.779
216.464
218.17
219.908
221.375
223.645
225.226
227.13
195.943
196.727
198.83
200.805
203.162
204.816
206.873
208.38
210.23
211.694
213.38
214.852
216.378
217.88
219.172
220.69
221.885
222.972
223.321
224.133
199.19
199.705
202.4
203.913
206.404
207.738
209.593
210.715
212.211
213.222
214.489
215.415
216.543
217.391
218.386
219.164
219.787
220.369
221.031
221.413
203.063
203.13
206.689
207.707
210.046
211.047
212.574
213.424
214.614
215.37
216.343
217.005
217.808
218.354
218.98
219.518
220.104
220.458
220.635
220.618
212.111
210.027
213.764
213.57
215.282
215.635
216.569
216.921
217.555
217.868
218.348
218.62
219.018
219.23
219.585
219.601
219.639
219.383
219.464
219.496
224.437
222.474
221.227
220.801
220.68
220.43
220.346
220.221
220.199
220.124
220.157
220.133
220.165
220.173
220.256
220.145
220.16
220.149
220.039
219.613
232.138
231.533
228.1
227.766
225.974
225.396
224.425
223.867
223.386
222.906
222.65
222.236
222.075
221.731
221.454
221.164
220.898
220.439
220.041
219.55
238.011
236.516
233.631
231.125
229.854
228.158
227.331
226.108
225.495
224.599
224.116
223.413
223.005
222.406
222.074
221.612
221.296
220.902
220.623
220.271
242.286
238.248
235.916
233.526
231.954
230.178
229.076
227.791
226.977
226.02
225.408
224.642
224.159
223.519
223.084
222.501
222.038
221.555
221.101
220.593
243.939
235.549
235.153
233.085
232.192
230.59
229.763
228.525
227.783
226.795
226.145
225.36
224.783
224.116
223.583
222.999
222.499
221.919
221.452
220.926
236.793
234.847
234.303
232.902
232.115
230.905
230.091
229.042
228.285
227.38
226.691
225.905
225.287
224.599
224.046
223.427
222.932
222.38
221.894
221.384
235.891
234.428
233.863
232.614
231.903
230.782
230.048
229.156
228.449
227.642
226.973
226.249
225.62
224.966
224.378
223.782
223.232
222.681
222.172
221.668
233.911
233.222
232.649
231.931
231.352
230.625
230.005
229.198
228.531
227.784
227.127
226.433
225.811
225.171
224.595
224.005
223.476
222.936
222.411
221.912
234.236
232.532
232.362
231.688
231.206
230.498
229.883
229.171
228.518
227.825
227.174
226.513
225.884
225.261
224.661
224.082
223.516
222.982
222.487
222.001
241.88
250.841
259.775
270.188
278.998
286.457
293.98
299.88
306.305
310.939
316.135
319.834
323.481
326.092
328.243
329.668
330.419
330.608
329.968
328.874
266.961
270.455
274.304
277.233
280.351
284.135
288.241
290.553
292.909
294.673
296.435
297.785
299.001
299.771
300.461
300.656