/*--------------------------------*- C++ -*----------------------------------*\
  =========                 |
  \\      /  F ield         | OpenFOAM: The Open Source CFD Toolbox
   \\    /   O peration     | Website:  https://openfoam.org
    \\  /    A nd           | Version:  9
     \\/     M anipulation  |
\*---------------------------------------------------------------------------*/
FoamFile
{
    format      ascii;
    class       surfaceScalarField;
    location    "12";
    object      phi;
}
// * * * * * * * * * * * * * * * * * * * * * * * * * * * * * * * * * * * * * //

dimensions      [0 3 -1 0 0 0 0];

internalField   nonuniform List<scalar> 
92080
(
-0.00592037
-0.541187
0.547107
-0.0356468
-1.07036
1.10008
-0.0840644
-1.16924
1.21765
-0.132411
-1.14918
1.19752
-0.179533
-1.12981
1.17693
-0.22554
-1.11149
1.1575
-0.270365
-1.09307
1.1379
-0.314686
-1.07513
1.11945
-0.358142
-1.05926
1.10272
-0.401198
-1.04393
1.08698
-0.443961
-1.0299
1.07266
-0.486314
-1.01687
1.05922
-0.527819
-1.00537
1.04687
-0.568314
-0.993643
1.03414
-0.607733
-0.98222
1.02164
-0.6464
-0.969856
1.00852
-0.68447
-0.95872
0.99679
-0.721882
-0.94649
0.983902
-0.758524
-0.934697
0.97134
-0.92755
0.959601
-0.790575
-0.00784871
-0.533338
-0.0398043
-1.0384
-0.0878014
-1.12124
-0.136247
-1.10073
-0.184328
-1.08172
-0.231808
-1.06401
-0.27804
-1.04684
-0.323375
-1.0298
-0.368319
-1.01432
-0.412473
-0.999774
-0.456287
-0.986083
-0.50002
-0.973138
-0.543611
-0.961775
-0.586181
-0.951073
-0.627502
-0.940899
-0.667191
-0.930167
-0.705737
-0.920174
-0.741775
-0.910452
-0.775194
-0.901278
-0.893634
-0.80911
-0.00921278
-0.524126
-0.044091
-1.00352
-0.0948813
-1.07045
-0.144441
-1.05117
-0.193098
-1.03307
-0.24123
-1.01588
-0.288839
-0.999231
-0.335759
-0.982878
-0.382159
-0.967915
-0.427818
-0.954116
-0.472687
-0.941214
-0.517018
-0.928806
-0.560901
-0.917892
-0.604655
-0.907319
-0.647422
-0.898132
-0.689244
-0.888345
-0.730471
-0.878947
-0.771993
-0.86893
-0.81271
-0.860562
-0.854551
-0.851793
-0.0106549
-0.513471
-0.0500698
-0.964108
-0.101228
-1.01929
-0.152608
-0.999791
-0.203083
-0.982593
-0.252558
-0.966404
-0.300862
-0.950928
-0.348428
-0.935311
-0.395195
-0.921148
-0.441666
-0.907644
-0.487443
-0.895437
-0.532841
-0.883408
-0.577762
-0.872971
-0.622539
-0.862542
-0.667147
-0.853524
-0.710636
-0.844856
-0.752013
-0.83757
-0.791903
-0.82904
-0.832764
-0.819701
-0.812998
-0.874316
-0.00937142
-0.504099
-0.0530572
-0.920423
-0.104818
-0.96753
-0.155438
-0.949171
-0.206061
-0.93197
-0.256642
-0.915822
-0.306273
-0.901297
-0.355381
-0.886203
-0.404103
-0.872427
-0.452211
-0.859537
-0.499713
-0.847934
-0.547042
-0.836079
-0.593669
-0.826344
-0.639476
-0.816735
-0.685345
-0.807654
-0.732116
-0.798086
-0.779411
-0.790275
-0.824188
-0.784263
-0.867126
-0.776763
-0.76962
-0.910504
-0.00702858
-0.497071
-0.0522903
-0.875161
-0.107479
-0.912342
-0.161998
-0.894651
-0.214595
-0.879373
-0.266819
-0.863598
-0.318029
-0.850088
-0.368207
-0.836025
-0.417631
-0.823003
-0.466776
-0.810391
-0.514935
-0.799775
-0.56241
-0.788604
-0.610222
-0.778532
-0.657385
-0.769573
-0.702815
-0.762224
-0.746814
-0.754087
-0.791982
-0.745107
-0.838258
-0.737987
-0.88333
-0.731691
-0.724935
-0.928015
-0.00373744
-0.493333
-0.0510475
-0.827851
-0.107732
-0.855657
-0.163702
-0.838682
-0.218169
-0.824906
-0.271607
-0.810161
-0.324217
-0.797478
-0.37566
-0.784582
-0.425994
-0.772669
-0.476037
-0.760349
-0.52576
-0.750051
-0.574445
-0.73992
-0.622694
-0.730283
-0.671682
-0.720585
-0.721628
-0.712277
-0.770054
-0.705661
-0.816678
-0.698483
-0.863174
-0.69149
-0.909477
-0.685389
-0.67917
-0.955241
-0.00176479
-0.491568
-0.0507927
-0.778823
-0.110413
-0.796037
-0.168236
-0.780858
-0.224628
-0.768515
-0.279633
-0.755156
-0.333507
-0.743604
-0.386608
-0.731481
-0.438556
-0.72072
-0.489484
-0.70942
-0.540184
-0.699352
-0.590119
-0.689985
-0.638541
-0.681861
-0.685267
-0.673858
-0.732064
-0.66548
-0.779905
-0.657821
-0.827748
-0.65064
-0.875145
-0.644093
-0.92235
-0.638184
-0.632152
-0.969368
-0.00145438
-0.490114
-0.0523339
-0.727943
-0.112385
-0.735985
-0.171163
-0.722081
-0.228759
-0.710918
-0.285153
-0.698762
-0.340349
-0.688407
-0.3943
-0.677531
-0.447138
-0.667882
-0.498722
-0.657836
-0.54977
-0.648305
-0.600801
-0.638954
-0.65256
-0.630102
-0.703311
-0.623107
-0.752414
-0.616377
-0.800247
-0.609988
-0.847686
-0.603201
-0.894947
-0.596831
-0.941797
-0.591334
-0.585907
-0.988043
-0.00627308
-0.483841
-0.0606863
-0.67353
-0.121573
-0.675099
-0.180506
-0.663148
-0.238106
-0.653317
-0.294753
-0.642115
-0.350472
-0.632688
-0.404772
-0.623231
-0.458132
-0.614521
-0.510125
-0.605844
-0.560804
-0.597626
-0.610086
-0.589671
-0.658958
-0.581231
-0.708716
-0.573349
-0.758702
-0.566391
-0.807986
-0.560704
-0.856536
-0.55465
-0.904768
-0.5486
-0.952867
-0.543235
-0.538176
-1.0006
-0.0149212
-0.46892
-0.0699335
-0.618518
-0.129293
-0.61574
-0.187752
-0.604688
-0.245767
-0.595303
-0.302313
-0.585569
-0.358455
-0.576546
-0.41387
-0.567817
-0.46871
-0.559681
-0.522651
-0.551903
-0.575987
-0.544289
-0.627858
-0.5378
-0.678012
-0.531077
-0.726981
-0.52438
-0.775953
-0.517419
-0.824917
-0.51174
-0.873109
-0.506459
-0.920766
-0.500943
-0.968244
-0.495757
-0.491224
-1.0152
-0.023206
-0.445714
-0.0794045
-0.562319
-0.138237
-0.556908
-0.196278
-0.546647
-0.252411
-0.53917
-0.307771
-0.530208
-0.363068
-0.521249
-0.417008
-0.513877
-0.4707
-0.505989
-0.523373
-0.49923
-0.576055
-0.491608
-0.628897
-0.484958
-0.681498
-0.478477
-0.733013
-0.472865
-0.784033
-0.466399
-0.834812
-0.460961
-0.885086
-0.456184
-0.934451
-0.451579
-0.983236
-0.446971
-0.442642
-1.03182
-0.0311799
-0.414534
-0.0904263
-0.503073
-0.150585
-0.496749
-0.208479
-0.488753
-0.266154
-0.481494
-0.322069
-0.474294
-0.377909
-0.46541
-0.432798
-0.458988
-0.487236
-0.45155
-0.540832
-0.445634
-0.592897
-0.439543
-0.644048
-0.433806
-0.694779
-0.427746
-0.744782
-0.422862
-0.793925
-0.417256
-0.84313
-0.411755
-0.892372
-0.406942
-0.941239
-0.402712
-0.989778
-0.398433
-0.39454
-1.03788
-0.0374414
-0.377092
-0.0962895
-0.444225
-0.155158
-0.437881
-0.213267
-0.430645
-0.271726
-0.423035
-0.327037
-0.418983
-0.382212
-0.410235
-0.436893
-0.404306
-0.490862
-0.397581
-0.545128
-0.391369
-0.598929
-0.385741
-0.651868
-0.380867
-0.704215
-0.375399
-0.755991
-0.371086
-0.806582
-0.366665
-0.85656
-0.361777
-0.906469
-0.357033
-0.956218
-0.352962
-1.00539
-0.349264
-0.345569
-1.05436
-0.0418083
-0.335284
-0.10123
-0.384804
-0.16078
-0.37833
-0.219912
-0.371512
-0.279641
-0.363306
-0.337658
-0.360966
-0.393255
-0.354637
-0.447853
-0.349709
-0.500912
-0.344522
-0.552819
-0.339462
-0.60478
-0.33378
-0.656436
-0.32921
-0.707768
-0.324067
-0.759613
-0.319241
-0.810688
-0.31559
-0.860777
-0.311689
-0.910239
-0.307571
-0.959738
-0.303463
-1.00917
-0.299828
-0.296361
-1.05838
-0.0445596
-0.290725
-0.105337
-0.324027
-0.165631
-0.318036
-0.222059
-0.315084
-0.281023
-0.304343
-0.340835
-0.301154
-0.398264
-0.297208
-0.455081
-0.292891
-0.510937
-0.288667
-0.565474
-0.284925
-0.618912
-0.280342
-0.671643
-0.27648
-0.722756
-0.272954
-0.773404
-0.268593
-0.82412
-0.264873
-0.874444
-0.261365
-0.923793
-0.258222
-0.972709
-0.254547
-1.02128
-0.251258
-0.247646
-1.06999
-0.0454661
-0.245258
-0.109446
-0.260046
-0.174361
-0.253121
-0.232904
-0.256541
-0.287155
-0.250091
-0.343949
-0.24436
-0.400079
-0.241079
-0.455865
-0.237104
-0.511164
-0.233369
-0.565908
-0.23018
-0.619183
-0.227067
-0.672496
-0.223167
-0.725003
-0.220448
-0.776313
-0.217283
-0.827118
-0.214068
-0.877755
-0.210728
-0.928006
-0.207971
-0.97762
-0.204933
-1.02645
-0.20243
-0.199264
-1.07483
-0.0531261
-0.192132
-0.109492
-0.20368
-0.173578
-0.189035
-0.237609
-0.192511
-0.296073
-0.191626
-0.354297
-0.186137
-0.410749
-0.184626
-0.466034
-0.181819
-0.520048
-0.179355
-0.573919
-0.176308
-0.626938
-0.174048
-0.67939
-0.170716
-0.731808
-0.16803
-0.783834
-0.165257
-0.834948
-0.162954
-0.885445
-0.160231
-0.935653
-0.157763
-0.98529
-0.155296
-1.03475
-0.152973
-0.150837
-1.08317
-0.0620153
-0.130117
-0.117208
-0.148488
-0.16986
-0.136383
-0.229859
-0.132512
-0.289585
-0.1319
-0.347504
-0.128218
-0.404886
-0.127245
-0.461653
-0.125052
-0.517252
-0.123756
-0.572004
-0.121556
-0.625857
-0.120195
-0.678786
-0.117786
-0.730411
-0.116406
-0.781899
-0.113769
-0.832767
-0.112085
-0.88323
-0.109768
-0.933148
-0.107845
-0.982705
-0.10574
-1.03184
-0.103835
-0.101764
-1.08091
-0.0713983
-0.0587187
-0.139412
-0.0804743
-0.194745
-0.0810495
-0.249676
-0.0775815
-0.305849
-0.0757264
-0.359146
-0.0749212
-0.413002
-0.0733887
-0.467576
-0.0704782
-0.521634
-0.0696985
-0.575478
-0.0677119
-0.629375
-0.0662979
-0.682663
-0.0644983
-0.735476
-0.0635926
-0.787447
-0.0617982
-0.838872
-0.0606593
-0.889634
-0.0590073
-0.939695
-0.0577842
-0.989078
-0.0563565
-1.03779
-0.0551192
-1.08578
-0.0537807
0.0357194
-0.339692
0.303972
0.0868654
-0.985758
0.934612
0.126567
-1.51689
1.47719
0.134686
-1.67297
1.66485
0.133953
-1.66891
1.66964
0.129906
-1.64473
1.64878
0.126316
-1.62076
1.62435
0.122492
-1.59931
1.60313
0.118402
-1.57903
1.58312
0.114205
-1.55964
1.56383
0.109971
-1.54132
1.54555
0.10587
-1.52333
1.52743
0.101644
-1.50577
1.50999
0.0970337
-1.4879
1.49251
0.0922187
-1.46945
1.47427
0.0869004
-1.44862
1.45394
0.0811984
-1.42521
1.43091
0.075443
-1.40196
1.40772
0.0698083
-1.38297
1.38861
-1.36419
0.0648677
1.36913
0.0326463
-0.372338
0.0826264
-1.03574
0.110823
-1.54509
0.112765
-1.67491
0.108243
-1.66438
0.102598
-1.63909
0.0974276
-1.61559
0.0922678
-1.59415
0.0871175
-1.57388
0.081881
-1.5544
0.0763048
-1.53574
0.0703675
-1.51739
0.0643169
-1.49972
0.0583313
-1.48192
0.0520259
-1.46315
0.0457546
-1.44235
0.0394476
-1.4189
0.0333037
-1.39582
0.0271987
-1.37687
-1.35812
0.0211327
0.0251609
-0.397499
0.0660968
-1.07667
0.0903572
-1.56935
0.089416
-1.67397
0.0829445
-1.65791
0.07593
-1.63207
0.0684805
-1.60814
0.0608636
-1.58653
0.0532024
-1.56622
0.0453404
-1.54654
0.037692
-1.5281
0.0300719
-1.50977
0.0222293
-1.49187
0.0143527
-1.47404
0.00665378
-1.45545
-0.00122123
-1.43448
-0.00944808
-1.41068
-0.0178042
-1.38746
-0.0263277
-1.36834
-1.34988
-0.0345697
0.0240804
-0.421579
0.0599589
-1.11255
0.0753784
-1.58477
0.0710676
-1.66966
0.0620068
-1.64885
0.0527474
-1.62281
0.0435889
-1.59898
0.0343066
-1.57725
0.0248732
-1.55679
0.0155402
-1.5372
0.00585544
-1.51841
-0.00382591
-1.50009
-0.0133582
-1.48234
-0.0229795
-1.46442
-0.0328162
-1.44561
-0.0425742
-1.42472
-0.0520645
-1.40119
-0.0613626
-1.37816
-0.070511
-1.3592
-1.34105
-0.0793407
0.0229691
-0.444549
0.0543236
-1.14391
0.0627879
-1.59323
0.0534026
-1.66027
0.0413818
-1.63683
0.0294513
-1.61088
0.0173319
-1.58686
0.00532073
-1.56524
-0.00639875
-1.54507
-0.0181879
-1.52541
-0.0296708
-1.50693
-0.0412982
-1.48846
-0.0531702
-1.47047
-0.0646892
-1.4529
-0.0757741
-1.43453
-0.0865635
-1.41393
-0.097454
-1.3903
-0.108361
-1.36726
-0.119554
-1.348
-1.33019
-0.130415
0.0204016
-0.46495
0.0464633
-1.16997
0.0491291
-1.5959
0.0371337
-1.64828
0.0230268
-1.62272
0.00900037
-1.59685
-0.00489618
-1.57297
-0.0188862
-1.55125
-0.032988
-1.53097
-0.0468489
-1.51155
-0.0607651
-1.49301
-0.0741916
-1.47503
-0.0873325
-1.45733
-0.100588
-1.43964
-0.113664
-1.42145
-0.126474
-1.40112
-0.138917
-1.37785
-0.151211
-1.35496
-0.163503
-1.33571
-1.31814
-0.17555
0.0182867
-0.483237
0.0402491
-1.19193
0.0375366
-1.59319
0.0216305
-1.63237
0.00462629
-1.60572
-0.012152
-1.58008
-0.0288304
-1.55629
-0.045244
-1.53483
-0.0613161
-1.51489
-0.0772652
-1.4956
-0.0930959
-1.47718
-0.109186
-1.45894
-0.125264
-1.44125
-0.140914
-1.42399
-0.156084
-1.40628
-0.17063
-1.38657
-0.184782
-1.3637
-0.198709
-1.34103
-0.212612
-1.32181
-1.30394
-0.226811
0.0160814
-0.499318
0.0329187
-1.20877
0.0249837
-1.58525
0.00660711
-1.614
-0.0123615
-1.58675
-0.0312478
-1.56119
-0.0501462
-1.53739
-0.0690584
-1.51592
-0.087844
-1.49611
-0.106326
-1.47712
-0.124414
-1.45909
-0.141796
-1.44156
-0.158988
-1.42406
-0.17608
-1.4069
-0.192631
-1.38973
-0.208501
-1.3707
-0.223952
-1.34825
-0.239422
-1.32557
-0.255196
-1.30603
-1.28818
-0.270959
0.0141391
-0.513457
0.0270989
-1.22173
0.0150872
-1.57324
-0.00639875
-1.59251
-0.0280918
-1.56506
-0.0495919
-1.53969
-0.070751
-1.51623
-0.0916456
-1.49503
-0.112424
-1.47533
-0.132892
-1.45665
-0.153453
-1.43853
-0.174052
-1.42096
-0.194207
-1.4039
-0.214165
-1.38694
-0.233731
-1.37017
-0.25248
-1.35196
-0.270346
-1.33039
-0.287848
-1.30806
-0.305403
-1.28848
-1.27067
-0.322909
0.011924
-0.525381
0.0197931
-1.2296
0.00282658
-1.55627
-0.0214583
-1.56823
-0.0454639
-1.54105
-0.0692229
-1.51593
-0.0930682
-1.49239
-0.116719
-1.47138
-0.139917
-1.45213
-0.162794
-1.43378
-0.185015
-1.41631
-0.206817
-1.39916
-0.228477
-1.38224
-0.249643
-1.36578
-0.2702
-1.34961
-0.289707
-1.33245
-0.308352
-1.31174
-0.326719
-1.2897
-0.345399
-1.2698
-1.25211
-0.363959
0.0103057
-0.535687
0.0145368
-1.23383
-0.00542445
-1.53631
-0.0317771
-1.54187
-0.0581942
-1.51464
-0.0843035
-1.48982
-0.109941
-1.46675
-0.135512
-1.44581
-0.161219
-1.42643
-0.186537
-1.40846
-0.211796
-1.39105
-0.236632
-1.37432
-0.260888
-1.35799
-0.285038
-1.34163
-0.308818
-1.32583
-0.331735
-1.30953
-0.353356
-1.29012
-0.374255
-1.2688
-0.395164
-1.24889
-1.23147
-0.41581
0.00806263
-0.54375
0.00793808
-1.2337
-0.0171239
-1.51125
-0.0467286
-1.51227
-0.0755926
-1.48577
-0.104184
-1.46123
-0.132706
-1.43823
-0.160715
-1.4178
-0.188119
-1.39902
-0.215161
-1.38142
-0.241686
-1.36453
-0.268142
-1.34787
-0.294291
-1.33184
-0.319756
-1.31616
-0.344745
-1.30084
-0.36875
-1.28553
-0.391554
-1.26731
-0.413573
-1.24678
-0.435645
-1.22682
-1.20966
-0.457454
0.00689248
-0.550642
0.00293988
-1.22975
-0.0242248
-1.48408
-0.0557569
-1.48074
-0.0869097
-1.45462
-0.117614
-1.43053
-0.147998
-1.40784
-0.178404
-1.38739
-0.208946
-1.36848
-0.239198
-1.35117
-0.268826
-1.3349
-0.297825
-1.31887
-0.326565
-1.3031
-0.354927
-1.2878
-0.382676
-1.27309
-0.409453
-1.25875
-0.434709
-1.24206
-0.458869
-1.22262
-0.482937
-1.20275
-1.18561
-0.506983
0.00455554
-0.555198
-0.00340229
-1.22179
-0.0346987
-1.45279
-0.0692583
-1.44618
-0.102685
-1.42119
-0.135696
-1.39751
-0.168374
-1.37517
-0.200498
-1.35527
-0.23208
-1.3369
-0.263339
-1.31991
-0.294476
-1.30376
-0.325165
-1.28818
-0.355477
-1.27279
-0.385725
-1.25755
-0.415709
-1.24311
-0.444932
-1.22953
-0.47256
-1.21443
-0.498721
-1.19646
-0.524233
-1.17724
-1.16034
-0.549508
0.00291379
-0.558111
-0.00909988
-1.20978
-0.0421905
-1.4197
-0.0788467
-1.40952
-0.114797
-1.38524
-0.150107
-1.36221
-0.185244
-1.34003
-0.220174
-1.32034
-0.254991
-1.30208
-0.289618
-1.28528
-0.323407
-1.26997
-0.356773
-1.25481
-0.389481
-1.24008
-0.421566
-1.22547
-0.453461
-1.21121
-0.484817
-1.19817
-0.514757
-1.18449
-0.54305
-1.16816
-0.570567
-1.14972
-1.13279
-0.598116
0.000490062
-0.558601
-0.0156889
-1.1936
-0.0510182
-1.38437
-0.0892441
-1.37129
-0.126731
-1.34775
-0.163657
-1.32528
-0.200173
-1.30351
-0.236556
-1.28395
-0.272535
-1.2661
-0.308341
-1.24947
-0.34417
-1.23414
-0.379297
-1.21969
-0.414168
-1.20521
-0.448701
-1.19094
-0.482766
-1.17715
-0.516788
-1.16415
-0.549664
-1.15162
-0.580817
-1.13701
-0.610104
-1.12043
-1.10387
-0.639022
-0.000597345
-0.558004
-0.0202829
-1.17392
-0.0592461
-1.3454
-0.100429
-1.33011
-0.140683
-1.3075
-0.180254
-1.28571
-0.219499
-1.26427
-0.2582
-1.24525
-0.296507
-1.2278
-0.334493
-1.21149
-0.372133
-1.1965
-0.409499
-1.18232
-0.446108
-1.1686
-0.48261
-1.15443
-0.518731
-1.14103
-0.554496
-1.12838
-0.589432
-1.11668
-0.622895
-1.10355
-0.654695
-1.08863
-1.07276
-0.685806
-0.00166044
-0.556344
-0.0235291
-1.15205
-0.0634252
-1.30551
-0.105533
-1.288
-0.147101
-1.26593
-0.187902
-1.24491
-0.22834
-1.22383
-0.269055
-1.20454
-0.309575
-1.18728
-0.349838
-1.17123
-0.389669
-1.15667
-0.429252
-1.14274
-0.468073
-1.12978
-0.506313
-1.11619
-0.544667
-1.10267
-0.583311
-1.08974
-0.621684
-1.07831
-0.658694
-1.06654
-0.693341
-1.05398
-1.03922
-0.72688
-0.00390071
-0.552443
-0.0289535
-1.12699
-0.0732292
-1.26123
-0.118582
-1.24265
-0.162708
-1.22181
-0.205916
-1.2017
-0.248174
-1.18157
-0.289859
-1.16285
-0.331182
-1.14595
-0.372462
-1.12995
-0.413675
-1.11546
-0.454536
-1.10188
-0.495302
-1.08901
-0.535325
-1.07617
-0.574795
-1.0632
-0.614496
-1.05004
-0.654707
-1.0381
-0.695387
-1.02586
-0.734689
-1.01468
-1.00219
-0.771722
-0.00533551
-0.0322459
-0.0758245
-0.120951
-0.165831
-0.210031
-0.253706
-0.297103
-0.34034
-0.383302
-0.4261
-0.468756
-0.510894
-0.552926
-0.594489
-0.636003
-0.677308
-0.719265
-0.762608
-0.805195
0.0139518
-11.7435
11.7944
-0.00914891
-10.9384
10.9615
-0.0265524
-10.6584
10.6758
-0.0362817
-10.2577
10.2674
-0.0427733
-9.98072
9.98722
-0.0422148
-9.67327
9.67271
-0.0406163
-9.46307
9.46147
-0.0369539
-9.25821
9.25454
-0.0330288
-9.1153
9.11138
-0.0289503
-8.99336
8.98928
-0.0248277
-8.90448
8.90036
-0.0207612
-8.81804
8.81397
-0.0157446
-8.77242
8.7674
-0.0109133
-8.68614
8.68131
-0.00271514
-8.63817
8.62997
0.0045235
-8.56265
8.55541
0.0152758
-8.31583
8.30507
0.0190983
-7.47477
7.47095
0.00955622
-5.42317
5.43271
-2.15594
2.1655
-0.0305102
-11.6918
-0.0591997
-10.9097
-0.0797943
-10.6378
-0.0923378
-10.2451
-0.09831
-9.97475
-0.0962423
-9.67534
-0.0923294
-9.46698
-0.0861399
-9.26439
-0.0790453
-9.12239
-0.0716292
-9.00077
-0.0637867
-8.91233
-0.0558146
-8.82601
-0.0471427
-8.78109
-0.0380961
-8.69519
-0.0252863
-8.65098
-0.012963
-8.57497
0.00347459
-8.33226
0.0126793
-7.48398
0.0077468
-5.41824
-2.1482
-0.101255
-11.6251
-0.133643
-10.8773
-0.153797
-10.6177
-0.164417
-10.2345
-0.166921
-9.97225
-0.161201
-9.68106
-0.153117
-9.47506
-0.14274
-9.27477
-0.131076
-9.13406
-0.119214
-9.01264
-0.10689
-8.92465
-0.0941468
-8.83875
-0.0801791
-8.79505
-0.065778
-8.70959
-0.0479939
-8.66876
-0.0305316
-8.59243
-0.00828386
-8.35451
0.00649402
-7.49876
0.00666564
-5.41841
-2.14153
-0.147576
-11.5569
-0.184895
-10.84
-0.208557
-10.594
-0.221354
-10.2217
-0.222925
-9.97068
-0.215448
-9.68854
-0.205063
-9.48545
-0.192099
-9.28774
-0.177252
-9.14891
-0.162074
-9.02781
-0.1459
-8.94083
-0.129272
-8.85538
-0.111605
-8.81272
-0.0929869
-8.72821
-0.0705542
-8.6912
-0.048031
-8.61496
-0.019964
-8.38258
-0.000401566
-7.51832
0.00466667
-5.42348
-2.13686
-0.215587
-11.4717
-0.256813
-10.7988
-0.28058
-10.5703
-0.291667
-10.2106
-0.290256
-9.97209
-0.279478
-9.69932
-0.265193
-9.49973
-0.248146
-9.30478
-0.228768
-9.16828
-0.20925
-9.04733
-0.188693
-8.96138
-0.167232
-8.87684
-0.144325
-8.83563
-0.120509
-8.75202
-0.093592
-8.71811
-0.0658853
-8.64266
-0.0322054
-8.41626
-0.00729223
-7.54323
0.0031611
-5.43393
-2.1337
-0.264264
-11.383
-0.309799
-10.7532
-0.336321
-10.5437
-0.348933
-10.198
-0.346355
-9.97466
-0.333723
-9.71195
-0.317109
-9.51635
-0.297373
-9.32452
-0.274863
-9.19079
-0.251902
-9.07029
-0.227478
-8.98581
-0.202358
-8.90196
-0.17581
-8.86218
-0.147627
-8.78021
-0.117138
-8.7486
-0.0844833
-8.67532
-0.0447677
-8.45597
-0.0143728
-7.57363
0.00140108
-5.4497
-2.1323
-0.329029
-11.2808
-0.379287
-10.703
-0.406274
-10.5167
-0.417186
-10.1871
-0.412061
-9.97979
-0.396513
-9.7275
-0.376189
-9.53667
-0.352441
-9.34827
-0.325408
-9.21783
-0.29818
-9.09752
-0.26951
-9.01448
-0.239639
-8.93183
-0.208416
-8.8934
-0.175371
-8.81325
-0.140901
-8.78307
-0.10383
-8.71239
-0.0581599
-8.50164
-0.0215545
-7.61023
-0.000479462
-5.47078
-2.13278
-0.377446
-11.1743
-0.432685
-10.6477
-0.462554
-10.4869
-0.474413
-10.1753
-0.467898
-9.98631
-0.45052
-9.74487
-0.427721
-9.55947
-0.401202
-9.37479
-0.371122
-9.24791
-0.340382
-9.12826
-0.30797
-9.04689
-0.274597
-8.96521
-0.239805
-8.92819
-0.202726
-8.85033
-0.163964
-8.82184
-0.122678
-8.75368
-0.0720956
-8.55223
-0.0293581
-7.65297
-0.0024719
-5.49767
-2.13525
-0.440502
-11.0567
-0.499355
-10.5889
-0.530063
-10.4562
-0.540275
-10.165
-0.531544
-9.99504
-0.5116
-9.76482
-0.485192
-9.58588
-0.454695
-9.40528
-0.420281
-9.28232
-0.385408
-9.16313
-0.348749
-9.08355
-0.310776
-9.00318
-0.271608
-8.96736
-0.229981
-8.89196
-0.187137
-8.86468
-0.141196
-8.79962
-0.0848859
-8.60854
-0.0369144
-7.70094
-0.00455134
-5.53003
-2.13981
-0.488966
-10.9317
-0.55318
-10.5247
-0.586369
-10.423
-0.596879
-10.1545
-0.586696
-10.0052
-0.564948
-9.78657
-0.535928
-9.6149
-0.502543
-9.43867
-0.465148
-9.31972
-0.426758
-9.20152
-0.386565
-9.12374
-0.345223
-9.04452
-0.30255
-9.01003
-0.256953
-8.93755
-0.209667
-8.91197
-0.159918
-8.84937
-0.0983569
-8.6701
-0.0445891
-7.75471
-0.00670991
-5.56791
-2.14652
-0.549185
-10.7983
-0.616385
-10.4575
-0.65073
-10.3886
-0.659952
-10.1453
-0.647788
-10.0174
-0.623798
-9.81056
-0.591319
-9.64738
-0.554071
-9.47592
-0.512673
-9.36111
-0.470279
-9.24392
-0.425848
-9.16817
-0.38008
-9.09029
-0.333379
-9.05673
-0.283605
-8.98733
-0.231958
-8.96361
-0.178053
-8.90327
-0.111468
-8.73668
-0.0520939
-7.81408
-0.00860213
-5.6114
-2.15512
-0.598265
-10.6575
-0.669881
-10.3858
-0.706139
-10.3524
-0.715324
-10.1361
-0.701722
-10.031
-0.675815
-9.83646
-0.640723
-9.68247
-0.600603
-9.51604
-0.556299
-9.40542
-0.510371
-9.28984
-0.462591
-9.21595
-0.413554
-9.13933
-0.36344
-9.10685
-0.30981
-9.04096
-0.253822
-9.0196
-0.196202
-8.96089
-0.124397
-8.80849
-0.0587575
-7.87972
-0.0101831
-5.65997
-2.1653
-0.656243
-10.5083
-0.729809
-10.3123
-0.76651
-10.3157
-0.7751
-10.1275
-0.759931
-10.0462
-0.731947
-9.86445
-0.693598
-9.72082
-0.649776
-9.55986
-0.601799
-9.4534
-0.552058
-9.33958
-0.500136
-9.26787
-0.446824
-9.19264
-0.393197
-9.16047
-0.33594
-9.09821
-0.275528
-9.08001
-0.213915
-9.0225
-0.137553
-8.88485
-0.066295
-7.95098
-0.0123522
-5.71392
-2.17765
-0.705388
-10.3524
-0.782669
-10.235
-0.820434
-10.2779
-0.828503
-10.1195
-0.811955
-10.0627
-0.782049
-9.89435
-0.741195
-9.76167
-0.694591
-9.60646
-0.643824
-9.50416
-0.590676
-9.39273
-0.535516
-9.32303
-0.478928
-9.24923
-0.421715
-9.21769
-0.360976
-9.15895
-0.296652
-9.14434
-0.231249
-9.08791
-0.150214
-8.96588
-0.0730764
-8.02812
-0.0141923
-5.7728
-2.19184
-0.761127
-10.1894
-0.839208
-10.1569
-0.876942
-10.2402
-0.884876
-10.1115
-0.867004
-10.0806
-0.835119
-9.92624
-0.791279
-9.80551
-0.741149
-9.65659
-0.686909
-9.5584
-0.63017
-9.44947
-0.571129
-9.38208
-0.510521
-9.30984
-0.449722
-9.27849
-0.38569
-9.22299
-0.317502
-9.21252
-0.248281
-9.15713
-0.162987
-9.05118
-0.0799933
-8.11111
-0.015933
-5.83686
-2.20778
-0.81005
-10.0183
-0.891351
-10.0756
-0.928487
-10.203
-0.935598
-10.1044
-0.916651
-10.0995
-0.882874
-9.96001
-0.836738
-9.85165
-0.783954
-9.70938
-0.727024
-9.61533
-0.667106
-9.50939
-0.604855
-9.44433
-0.540967
-9.37372
-0.476773
-9.34268
-0.409819
-9.28994
-0.337847
-9.2845
-0.265055
-9.22992
-0.17569
-9.14054
-0.0869352
-8.19987
-0.0176075
-5.90619
-2.22539
-0.863696
-9.84045
-0.944864
-9.99445
-0.981178
-10.1667
-0.98768
-10.0979
-0.967696
-10.1195
-0.932122
-9.99559
-0.883505
-9.90027
-0.827532
-9.76535
-0.767308
-9.67556
-0.70402
-9.57268
-0.638221
-9.51012
-0.570636
-9.44131
-0.502713
-9.4106
-0.43288
-9.35977
-0.357869
-9.35951
-0.281497
-9.30629
-0.188213
-9.23383
-0.0937548
-8.29432
-0.0191864
-5.98076
-2.24457
-0.914863
-9.65247
-0.998538
-9.91077
-1.03156
-10.1337
-1.03624
-10.0932
-1.0149
-10.1408
-0.977217
-10.0333
-0.926457
-9.95103
-0.867979
-9.82383
-0.805171
-9.73837
-0.738977
-9.63887
-0.67008
-9.57902
-0.599344
-9.51204
-0.528041
-9.48191
-0.454953
-9.43286
-0.377208
-9.43725
-0.297592
-9.38591
-0.200837
-9.33058
-0.100891
-8.39427
-0.0209851
-6.06066
-2.26556
-0.958722
-9.46547
-1.052
-9.8175
-1.08471
-10.101
-1.08763
-10.0903
-1.06453
-10.1639
-1.02453
-10.0733
-0.971117
-10.0044
-0.909416
-9.88553
-0.843215
-9.80457
-0.773638
-9.70845
-0.701456
-9.6512
-0.627286
-9.58621
-0.552526
-9.55667
-0.476308
-9.50908
-0.395982
-9.51758
-0.313462
-9.46843
-0.2134
-9.43064
-0.108837
-8.49883
-0.0240119
-6.14549
-2.28957
-0.996869
-9.27379
-1.09368
-9.72069
-1.1254
-10.0693
-1.12698
-10.0887
-1.10507
-10.1859
-1.06391
-10.1144
-1.01004
-10.0583
-0.946219
-9.94935
-0.878256
-9.87253
-0.805864
-9.78084
-0.731188
-9.72588
-0.653781
-9.66362
-0.575966
-9.63448
-0.495902
-9.58914
-0.414402
-9.59908
-0.329045
-9.55378
-0.226301
-9.53339
-0.116261
-8.60887
-0.0258395
-6.23591
-2.31541
8.03013
-8.40054
-8.90339
6.9567
-8.64726
5.89171
-9.00429
4.95732
-9.15435
4.10165
-9.33018
3.36451
-9.37729
2.7382
-9.432
2.22735
-9.43851
1.80562
-9.4508
1.46631
-9.44153
1.17687
-9.43643
0.943138
-9.42989
0.745687
-9.43703
0.576602
-9.42006
0.426301
-9.44878
0.311644
-9.43913
0.209108
-9.43085
0.153821
-8.55359
0.0825569
-6.16464
-2.23285
4.65562
-8.02695
-5.02921
4.22134
-8.21298
3.74326
-8.52621
3.27981
-8.69089
2.81622
-8.8666
2.39792
-8.95899
2.02173
-9.0558
1.70023
-9.11701
1.42167
-9.17224
1.18596
-9.20582
0.986015
-9.23649
0.818187
-9.26206
0.661656
-9.2805
0.53068
-9.28908
0.396125
-9.31422
0.283784
-9.32679
0.129525
-9.27659
0.0301744
-8.45424
-0.11834
-6.01613
-2.35119
3.32572
-7.919
-3.43367
3.20423
-8.09149
2.97382
-8.2958
2.73533
-8.4524
2.46831
-8.59958
2.21293
-8.70361
1.95914
-8.80201
1.72357
-8.88143
1.49723
-8.94589
1.28941
-8.99801
1.09734
-9.04442
0.914233
-9.07896
0.741114
-9.10738
0.586466
-9.13443
0.428924
-9.15668
0.284418
-9.18228
0.159611
-9.15178
0.0838425
-8.37847
0.00162142
-5.93391
-2.34957
2.04574
-7.93491
-2.02983
2.02381
-8.06956
1.9473
-8.21929
1.83742
-8.34251
1.69398
-8.45614
1.54403
-8.55366
1.37966
-8.63764
1.22008
-8.72185
1.06067
-8.78649
0.909852
-8.84718
0.764703
-8.89927
0.629103
-8.94336
0.507819
-8.9861
0.396327
-9.02294
0.294649
-9.055
0.203915
-9.09155
0.106765
-9.05464
0.0679827
-8.33969
0.0560109
-5.92194
-2.29356
1.33038
-8.00214
-1.26316
1.36235
-8.10152
1.35841
-8.21535
1.31975
-8.30386
1.24705
-8.38344
1.16408
-8.47069
1.0688
-8.54236
0.961119
-8.61417
0.85085
-8.67622
0.736294
-8.73263
0.622972
-8.78595
0.512293
-8.83268
0.404423
-8.87823
0.303009
-8.92153
0.205342
-8.95734
0.112711
-8.99891
0.0204508
-8.96238
-0.00435688
-8.31488
0.0355819
-5.96188
-2.25798
0.89135
-8.06383
-0.82966
0.929718
-8.13989
0.90507
-8.19071
0.87168
-8.27047
0.833719
-8.34548
0.77147
-8.40844
0.705514
-8.47641
0.625459
-8.53412
0.540661
-8.59142
0.451013
-8.64298
0.360392
-8.69532
0.273658
-8.74595
0.191637
-8.7962
0.109468
-8.83936
0.0377455
-8.88561
-0.0394085
-8.92176
-0.11225
-8.88953
-0.0980024
-8.32913
0.0198277
-6.07971
-2.23815
0.51256
-8.10047
-0.475923
0.525405
-8.15273
0.544526
-8.20983
0.545484
-8.27143
0.524572
-8.32457
0.490035
-8.3739
0.442095
-8.42847
0.387433
-8.47946
0.326486
-8.53048
0.257398
-8.57389
0.188791
-8.62672
0.115364
-8.67252
0.0400003
-8.72084
-0.0357327
-8.76363
-0.110249
-8.8111
-0.184249
-8.84776
-0.243117
-8.83067
-0.2133
-8.35894
-0.0317124
-6.26129
-2.26986
0.330529
-8.13364
-0.297353
0.349365
-8.17157
0.352566
-8.21303
0.332449
-8.25131
0.300394
-8.29251
0.267114
-8.34062
0.222989
-8.38434
0.165823
-8.42229
0.1053
-8.46995
0.042979
-8.51157
-0.0234787
-8.56026
-0.0977914
-8.59821
-0.17384
-8.64479
-0.250132
-8.68733
-0.320447
-8.74078
-0.386393
-8.78181
-0.432846
-8.78421
-0.388509
-8.40328
-0.127526
-6.52228
-2.39739
0.158178
-8.14225
-0.149569
0.157381
-8.17077
0.151466
-8.20711
0.141096
-8.24094
0.1287
-8.28012
0.100544
-8.31247
0.0627986
-8.34659
0.0166993
-8.37619
-0.0397099
-8.41354
-0.0996507
-8.45163
-0.169186
-8.49072
-0.240093
-8.5273
-0.312562
-8.57232
-0.392094
-8.6078
-0.473867
-8.65901
-0.562382
-8.6933
-0.634109
-8.71249
-0.602865
-8.43453
-0.274669
-6.85047
-2.67206
0.0884741
-8.14915
-0.0815724
0.0876749
-8.16997
0.0776458
-8.19708
0.0573578
-8.22065
0.0236975
-8.24646
-0.020464
-8.2683
-0.0697566
-8.2973
-0.117941
-8.32801
-0.17066
-8.36083
-0.232944
-8.38935
-0.301076
-8.42259
-0.375115
-8.45326
-0.460482
-8.48695
-0.552246
-8.51604
-0.658646
-8.55261
-0.771366
-8.58058
-0.866816
-8.61704
-0.867582
-8.43376
-0.507435
-7.21062
-3.17949
0.0378345
-8.13995
-0.0470376
0.0220355
-8.15417
-0.00150641
-8.17354
-0.0307494
-8.19141
-0.0641743
-8.21303
-0.0988971
-8.23358
-0.138884
-8.25731
-0.189544
-8.27735
-0.247888
-8.30248
-0.31292
-8.32431
-0.387904
-8.34761
-0.474061
-8.36711
-0.570303
-8.39071
-0.676754
-8.40959
-0.795439
-8.43393
-0.928164
-8.44785
-1.07124
-8.47396
-1.10125
-8.40376
-0.796324
-7.51554
-3.97581
0.0275185
-8.12553
-0.041934
0.00903057
-8.13568
-0.013891
-8.15062
-0.0413494
-8.16395
-0.0746989
-8.17968
-0.113153
-8.19513
-0.157795
-8.21267
-0.207658
-8.22748
-0.265458
-8.24468
-0.332459
-8.25731
-0.407898
-8.27217
-0.489946
-8.28506
-0.584825
-8.29583
-0.690216
-8.30419
-0.815402
-8.30874
-0.945447
-8.31781
-1.10724
-8.31217
-1.22283
-8.28816
-1.00742
-7.73096
-4.98323
0.0497694
-8.10511
-0.0701979
0.0280572
-8.11397
0.00289174
-8.12545
-0.0259085
-8.13515
-0.0585876
-8.147
-0.0973155
-8.1564
-0.141259
-8.16873
-0.189849
-8.17889
-0.245264
-8.18927
-0.306775
-8.1958
-0.374977
-8.20397
-0.450919
-8.20911
-0.536964
-8.20979
-0.629078
-8.21208
-0.735185
-8.20263
-0.853308
-8.19969
-0.988712
-8.17676
-1.11108
-8.16579
-0.957634
-7.88441
-5.94087
0.0854193
-8.0866
-0.103928
0.0643597
-8.09291
0.0397805
-8.10088
0.011747
-8.10712
-0.020416
-8.11484
-0.0568772
-8.11994
-0.0978861
-8.12772
-0.145526
-8.13125
-0.197428
-8.13736
-0.252162
-8.14107
-0.312394
-8.14374
-0.377944
-8.14356
-0.445864
-8.14187
-0.520535
-8.13741
-0.597227
-8.12594
-0.686584
-8.11033
-0.77498
-8.08837
-0.864473
-8.0763
-0.793471
-7.95541
-6.73434
0.0866569
-8.06711
-0.106143
0.0644879
-8.07074
0.0395465
-8.07593
0.0119347
-8.0795
-0.0179827
-8.08492
-0.0497773
-8.08814
-0.0850327
-8.09246
-0.120738
-8.09555
-0.158155
-8.09995
-0.198516
-8.10071
-0.241318
-8.10093
-0.286479
-8.0984
-0.334808
-8.09354
-0.388538
-8.08368
-0.437858
-8.07662
-0.488653
-8.05953
-0.53157
-8.04545
-0.584599
-8.02327
-0.572419
-7.96759
-7.30676
0.0883314
-8.05289
-0.102556
0.0724173
-8.05483
0.0541129
-8.05763
0.0337937
-8.05919
0.0106397
-8.06177
-0.0147681
-8.06274
-0.0408208
-8.06641
-0.0700949
-8.06627
-0.101532
-8.06851
-0.135112
-8.06713
-0.167011
-8.06904
-0.201993
-8.06342
-0.231776
-8.06376
-0.264853
-8.0506
-0.290193
-8.05128
-0.319227
-8.0305
-0.338969
-8.02571
-0.355432
-8.00681
-0.338154
-7.98487
-7.64491
0.0726695
-8.04006
-0.0854973
0.0582223
-8.04038
0.0420857
-8.04149
0.0249214
-8.04202
0.00631593
-8.04316
-0.014594
-8.04183
-0.0362628
-8.04474
-0.0576974
-8.04484
-0.0800693