/*--------------------------------*- C++ -*----------------------------------*\
  =========                 |
  \\      /  F ield         | OpenFOAM: The Open Source CFD Toolbox
   \\    /   O peration     | Website:  https://openfoam.org
    \\  /    A nd           | Version:  9
     \\/     M anipulation  |
\*---------------------------------------------------------------------------*/
FoamFile
{
    format      ascii;
    class       volVectorField;
    location    "12";
    object      U;
}
// * * * * * * * * * * * * * * * * * * * * * * * * * * * * * * * * * * * * * //

dimensions      [0 1 -1 0 0 0 0];

internalField   nonuniform List<vector> 
46400
(
(9.75879 -9.49487 -3.34325e-19)
(19.5519 -18.8316 2.83835e-19)
(21.0443 -21.2227 -7.72727e-20)
(20.2563 -21.3234 -5.15688e-20)
(19.5492 -21.2961 -6.06213e-20)
(18.8237 -21.3548 -5.94873e-20)
(18.158 -21.3318 -4.12654e-21)
(17.5005 -21.3274 3.58022e-20)
(16.914 -21.353 -4.50986e-20)
(16.3646 -21.3667 5.33747e-20)
(15.8296 -21.4028 -6.06869e-20)
(15.3439 -21.4277 0)
(14.8808 -21.491 4.32657e-19)
(14.4287 -21.4919 -4.97709e-19)
(13.9814 -21.5099 -6.74216e-19)
(13.5527 -21.4788 -1.32989e-19)
(13.1345 -21.5078 -4.5758e-20)
(12.7791 -21.4312 5.60686e-19)
(12.3874 -21.414 7.92533e-19)
(11.9228 -21.6485 -7.36744e-19)
(10.0195 -8.96316 0)
(19.6506 -17.6058 -3.96951e-20)
(20.8782 -19.5503 0)
(20.0779 -19.6863 3.36149e-20)
(19.4335 -19.7438 -4.84036e-20)
(18.7367 -19.8708 1.32984e-20)
(18.1072 -19.9359 0)
(17.4873 -20.0001 -3.58038e-20)
(16.9063 -20.0688 4.50992e-20)
(16.3517 -20.1199 -5.33756e-20)
(15.8311 -20.1926 6.91208e-19)
(15.3474 -20.2583 5.40125e-20)
(14.8869 -20.3487 -5.90703e-19)
(14.4645 -20.4348 0)
(14.0544 -20.5105 8.27695e-20)
(13.644 -20.5489 8.69183e-20)
(13.2534 -20.5873 0)
(12.8925 -20.5694 -8.66831e-19)
(12.5392 -20.5397 -2.29792e-19)
(12.0791 -20.7391 8.90298e-19)
(10.2187 -8.39953 -8.99289e-21)
(19.6276 -16.3313 -1.1771e-19)
(20.7176 -18.0489 9.31698e-20)
(19.9 -18.2376 2.09513e-19)
(19.2076 -18.2909 -2.05694e-19)
(18.5132 -18.4359 0)
(17.8755 -18.5366 -7.51698e-19)
(17.2435 -18.6289 6.45918e-19)
(16.6583 -18.7347 -8.76073e-19)
(16.1244 -18.84 8.68501e-19)
(15.5972 -18.9408 8.51499e-19)
(15.1042 -19.0213 -7.41545e-20)
(14.6454 -19.1307 -7.46405e-19)
(14.212 -19.2199 0)
(13.7937 -19.3254 9.58575e-19)
(13.3985 -19.3977 -9.44076e-19)
(13.0122 -19.4945 0)
(12.7021 -19.5382 -1.97307e-20)
(12.3606 -19.6725 1.13491e-19)
(11.9307 -19.9355 -1.06543e-18)
(10.3535 -7.80675 -1.49617e-19)
(19.491 -15.0906 3.17316e-20)
(20.2662 -16.4211 3.18538e-19)
(19.4816 -16.7027 -3.15003e-19)
(18.8534 -16.8579 -2.89141e-19)
(18.1777 -17.0591 3.95543e-19)
(17.5575 -17.2063 5.57157e-19)
(16.9597 -17.351 -1.42691e-18)
(16.3937 -17.4962 1.20146e-18)
(15.8652 -17.6232 -1.12908e-19)
(15.3691 -17.7782 0)
(14.9087 -17.9068 1.21115e-19)
(14.469 -18.0582 -1.24298e-19)
(14.0604 -18.1868 0)
(13.6852 -18.351 1.13821e-18)
(13.3069 -18.4746 -9.68401e-19)
(12.9283 -18.5917 0)
(12.5592 -18.6045 1.3366e-19)
(12.1984 -18.6804 1.50048e-19)
(11.783 -18.9907 1.21641e-18)
(10.4524 -7.24507 0)
(19.1906 -13.6957 0)
(19.9038 -15.0031 -4.75468e-19)
(19.1037 -15.2446 3.27913e-19)
(18.4332 -15.4101 -6.59943e-19)
(17.7921 -15.6441 5.36593e-19)
(17.1915 -15.8614 0)
(16.5982 -16.0291 6.09392e-19)
(16.0379 -16.2303 -7.37104e-19)
(15.5188 -16.3972 -1.69872e-19)
(15.0138 -16.5819 -1.71611e-19)
(14.5309 -16.727 0)
(14.081 -16.9099 1.30631e-18)
(13.6504 -17.0459 -1.28591e-18)
(13.2339 -17.1997 0)
(12.8687 -17.3574 -1.46856e-18)
(12.5458 -17.5848 1.29644e-18)
(12.2625 -17.7421 1.31201e-18)
(11.9057 -17.8605 -1.42651e-18)
(11.4644 -18.1626 0)
(10.5842 -6.65928 0)
(18.7821 -12.3249 0)
(19.2785 -13.4363 0)
(18.5449 -13.8312 -3.72373e-20)
(17.9113 -14.0708 0)
(17.2506 -14.3289 0)
(16.6574 -14.5895 0)
(16.0839 -14.807 -1.94679e-19)
(15.5305 -15.0317 0)
(15.0265 -15.2343 1.69879e-19)
(14.5555 -15.4659 -2.60155e-20)
(14.1074 -15.6477 -1.6941e-18)
(13.702 -15.8706 1.27547e-18)
(13.3268 -16.0784 -1.69002e-18)
(12.9614 -16.2802 1.27482e-18)
(12.5627 -16.4072 0)
(12.172 -16.5433 -1.47374e-18)
(11.8773 -16.7084 1.26014e-18)
(11.5782 -16.8933 0)
(11.1622 -17.2204 -2.00509e-19)
(10.7601 -6.07741 6.74034e-19)
(18.2484 -10.984 1.99117e-19)
(18.6288 -12.0024 7.82143e-19)
(17.8597 -12.3664 -8.09622e-19)
(17.2415 -12.7059 -8.23927e-19)
(16.6379 -13.0036 1.64431e-18)
(16.077 -13.3346 -1.88601e-18)
(15.5354 -13.5936 1.75688e-19)
(15.0162 -13.8742 6.0874e-19)
(14.52 -14.0986 0)
(14.0631 -14.3657 -2.49999e-20)
(13.6134 -14.5802 -2.38253e-20)
(13.1624 -14.7896 1.97251e-19)
(12.759 -14.9933 1.64673e-18)
(12.4115 -15.2503 -1.44714e-18)
(12.1006 -15.5031 -1.85601e-18)
(11.7568 -15.7096 1.61724e-18)
(11.4397 -15.8648 -1.83335e-20)
(11.1412 -16.0587 -2.06024e-19)
(10.7529 -16.4064 -1.49453e-18)
(10.9897 -5.55807 -2.27873e-19)
(17.5876 -9.71101 3.95714e-20)
(17.7498 -10.5763 -2.47604e-19)
(17.0895 -11.0324 -9.84111e-19)
(16.5029 -11.4399 6.79698e-19)
(15.9055 -11.7799 0)
(15.3532 -12.1409 1.43643e-18)
(14.8383 -12.4485 -6.92625e-19)
(14.3374 -12.7722 4.74227e-19)
(13.8559 -13.0327 2.48601e-19)
(13.4114 -13.3225 -4.7447e-19)
(13.0113 -13.5888 1.14995e-18)
(12.6385 -13.8655 2.41755e-19)
(12.2544 -14.0766 -1.37897e-18)
(11.8687 -14.2776 3.86111e-18)
(11.536 -14.4944 -1.57481e-18)
(11.2155 -14.7351 2.00604e-18)
(10.9314 -14.9338 -1.31178e-18)
(10.6533 -15.1392 4.30586e-19)
(10.2791 -15.5043 2.09169e-18)
(11.1889 -5.05367 1.18215e-18)
(16.8241 -8.50641 -2.42544e-19)
(16.8044 -9.26576 -3.53153e-20)
(16.1566 -9.70778 5.35042e-19)
(15.5968 -10.1875 2.52303e-19)
(15.0716 -10.5796 2.82035e-19)
(14.5736 -11.0071 -1.32599e-18)
(14.079 -11.3464 8.03353e-19)
(13.6241 -11.713 -2.50344e-19)
(13.1832 -12.019 -2.4861e-19)
(12.7575 -12.3283 -2.46566e-19)
(12.3536 -12.6088 -2.65698e-19)
(11.9775 -12.9084 -5.03946e-19)
(11.6505 -13.2129 1.7568e-18)
(11.3267 -13.4856 -2.45645e-18)
(10.9988 -13.7259 -2.513e-19)
(10.6792 -13.9552 1.71723e-20)
(10.3896 -14.1644 -1.87177e-18)
(10.1272 -14.3722 1.39547e-18)
(9.79334 -14.7346 -2.23922e-18)
(11.3121 -4.62802 1.0663e-18)
(15.9213 -7.37378 -2.69855e-18)
(15.6949 -8.10523 1.79177e-18)
(15.1604 -8.58091 -2.84025e-19)
(14.6475 -9.10452 -3.1226e-19)
(14.1384 -9.51074 1.21721e-18)
(13.6621 -9.9647 -1.47516e-18)
(13.2263 -10.3473 0)
(12.802 -10.738 1.15131e-18)
(12.3923 -11.078 -1.13217e-18)
(11.9982 -11.4082 -8.30853e-19)
(11.6212 -11.7035 1.0829e-18)
(11.2451 -11.9753 2.62251e-19)
(10.915 -12.2574 -1.07258e-18)
(10.6065 -12.5474 2.54932e-19)
(10.3364 -12.8371 1.2914e-18)
(10.0528 -13.1022 -2.29424e-18)
(9.78515 -13.3389 1.51314e-18)
(9.54102 -13.5743 -1.46461e-20)
(9.23886 -13.9394 -2.12957e-18)
(11.2116 -4.20336 1.46908e-18)
(14.8593 -6.32156 -9.98788e-19)
(14.5654 -7.04574 6.72209e-19)
(14.0626 -7.50347 1.27329e-20)
(13.5886 -8.07348 -1.32522e-18)
(13.1417 -8.50599 -1.2685e-18)
(12.7157 -8.99619 1.57689e-18)
(12.3118 -9.40464 -9.33863e-19)
(11.923 -9.83816 1.2375e-18)
(11.5642 -10.2219 0)
(11.2187 -10.6075 1.95434e-20)
(10.8976 -10.9634 2.85779e-19)
(10.5725 -11.2886 2.99194e-19)
(10.2423 -11.5765 -2.93949e-19)
(9.94088 -11.8561 0)
(9.66631 -12.1431 2.83574e-19)
(9.40111 -12.4153 0)
(9.14352 -12.6587 5.32815e-19)
(8.90322 -12.8929 2.61187e-18)
(8.63695 -13.2466 -9.17671e-21)
(10.8731 -3.69152 8.12463e-19)
(13.7851 -5.40128 -1.71115e-19)
(13.4083 -6.09211 -2.53111e-18)
(12.9724 -6.58513 1.41804e-18)
(12.5261 -7.15355 3.38702e-19)
(12.1339 -7.59199 -3.34389e-19)
(11.7162 -8.08488 -1.36535e-18)
(11.3487 -8.50354 1.01683e-18)
(10.985 -8.93169 0)
(10.6409 -9.32338 0)
(10.2989 -9.69503 -1.58476e-18)
(10.0001 -10.074 1.25446e-18)
(9.71175 -10.4335 -2.99177e-19)
(9.44475 -10.7907 -9.12828e-19)
(9.15745 -11.0975 3.78333e-21)
(8.90206 -11.4227 2.04515e-18)
(8.6737 -11.7243 -1.14495e-18)
(8.4409 -12.0118 8.46103e-19)
(8.2247 -12.2664 -1.37176e-18)
(7.98092 -12.629 0)
(10.331 -3.15347 -7.09045e-19)
(12.5418 -4.53517 1.1583e-18)
(12.169 -5.28165 1.98393e-19)
(11.7467 -5.76594 1.95376e-19)
(11.4117 -6.39569 0)
(11.0391 -6.86221 1.47268e-18)
(10.6608 -7.37308 -1.44684e-18)
(10.3577 -7.83121 1.82137e-19)
(10.0234 -8.28113 0)
(9.74826 -8.70982 1.36774e-18)
(9.44241 -9.10666 -1.1735e-18)
(9.15281 -9.47066 1.31534e-18)
(8.87178 -9.82006 -1.29445e-18)
(8.61799 -10.1626 1.26418e-18)
(8.3649 -10.474 -1.08618e-18)
(8.12881 -10.7839 -1.21467e-18)
(7.91066 -11.083 2.3873e-18)
(7.71252 -11.3773 -1.02401e-18)
(7.5171 -11.6437 1.46175e-19)
(7.30473 -11.9957 1.23195e-18)
(9.58405 -2.60422 -5.67837e-19)
(11.2612 -3.74887 6.20134e-19)
(10.8893 -4.47043 -1.98426e-19)
(10.608 -5.00583 -1.95383e-19)
(10.213 -5.62218 0)
(9.93119 -6.14422 0)
(9.56573 -6.62935 0)
(9.26691 -7.11474 -3.72616e-19)
(8.96168 -7.55587 -1.46137e-18)
(8.68088 -8.00047 2.869e-18)
(8.43725 -8.42427 -1.58036e-18)
(8.20666 -8.84287 -1.75356e-19)
(7.9687 -9.21619 0)
(7.7631 -9.6013 0)
(7.54253 -9.93922 -3.23134e-19)
(7.3127 -10.2687 0)
(7.11026 -10.5777 1.23818e-18)
(6.91911 -10.8865 -1.52358e-18)
(6.7385 -11.169 -1.33284e-18)
(6.54859 -11.5194 1.28879e-18)
(8.68557 -2.06699 5.9228e-19)
(9.95009 -3.04826 1.08775e-18)
(9.6456 -3.78959 1.41557e-21)
(9.29531 -4.33571 1.50505e-22)
(8.99595 -4.9822 2.09668e-19)
(8.80718 -5.5621 -6.04134e-19)
(8.48054 -6.0908 0)
(8.24319 -6.5788 -5.85501e-19)
(7.98531 -7.04853 1.96827e-19)
(7.73941 -7.4734 7.47095e-19)
(7.49462 -7.88105 7.27851e-19)
(7.27686 -8.28736 -5.40713e-19)
(7.05394 -8.66014 1.39411e-18)
(6.854 -9.03914 -1.19856e-18)
(6.67767 -9.40301 1.49972e-18)
(6.49381 -9.74764 -2.78781e-18)
(6.30111 -10.0643 1.28713e-18)
(6.13363 -10.374 1.54532e-19)
(5.98397 -10.6712 1.22464e-18)
(5.81675 -11.0204 -1.32995e-18)
(7.6837 -1.57222 2.05967e-19)
(8.57316 -2.43065 -2.21299e-19)
(8.24762 -3.19113 8.91802e-19)
(8.02436 -3.77292 -8.75413e-19)
(7.66253 -4.34631 -4.28254e-19)
(7.48856 -4.97452 -1.04529e-18)
(7.27499 -5.53667 3.06518e-21)
(7.05762 -6.06524 8.07152e-19)
(6.85725 -6.5708 -1.93684e-19)
(6.66566 -7.04912 0)
(6.45368 -7.48635 0)
(6.27365 -7.91293 0)
(6.08293 -8.30777 0)
(5.88991 -8.67163 4.90178e-21)
(5.73615 -9.03686 0)
(5.5838 -9.38595 1.66308e-19)
(5.4374 -9.72271 6.58089e-19)
(5.27428 -10.0254 -1.93623e-18)
(5.12102 -10.321 1.42897e-18)
(4.97491 -10.6563 -1.35742e-18)
(6.59903 -1.13429 0)
(7.14785 -1.90984 -1.18926e-19)
(6.92068 -2.72681 0)
(6.79782 -3.41949 3.36545e-19)
(6.4409 -3.95234 -2.24993e-19)
(6.26525 -4.52392 -8.63859e-19)
(6.1004 -5.08226 3.75813e-21)
(5.93115 -5.6089 8.30342e-19)
(5.75607 -6.11272 -8.0772e-19)
(5.60401 -6.59872 1.58384e-18)
(5.44078 -7.05495 -4.83576e-21)
(5.28926 -7.47977 -7.59355e-19)
(5.16929 -7.91149 7.37431e-19)
(5.02264 -8.29335 -9.04533e-19)
(4.86992 -8.66875 0)
(4.73333 -9.01812 -6.89072e-19)
(4.61042 -9.37285 6.78781e-19)
(4.48847 -9.69159 0)
(4.37854 -10.0042 -1.59945e-19)
(4.23532 -10.3312 0)
(5.4981 -0.878756 1.18527e-19)
(5.51603 -1.53593 1.18996e-19)
(5.2216 -2.21423 0)
(5.33453 -3.02333 4.60281e-19)
(5.23341 -3.65151 -5.68927e-19)
(4.98414 -4.24799 3.30731e-19)
(4.85424 -4.81875 -9.76933e-19)
(4.70145 -5.34641 4.25195e-19)
(4.57218 -5.8501 -1.04491e-19)
(4.4526 -6.31945 0)
(4.35162 -6.78867 -9.9746e-20)
(4.20813 -7.20649 -9.74507e-20)
(4.09081 -7.63345 -9.52153e-20)
(3.987 -8.0263 0)
(3.88756 -8.42145 -7.18827e-19)
(3.77393 -8.76958 1.49937e-18)
(3.67381 -9.13221 -1.29206e-18)
(3.56777 -9.4505 6.76721e-19)
(3.47716 -9.77217 8.30691e-20)
(3.38433 -10.1059 7.07782e-19)
(4.05907 -0.658918 -1.838e-19)
(4.51013 -1.39418 -2.44703e-19)
(3.9614 -1.97883 5.16472e-22)
(3.90927 -2.58454 6.48333e-19)
(3.85031 -3.29937 -1.74983e-19)
(3.72733 -3.87235 -1.13304e-19)
(3.68268 -4.47989 1.10577e-19)
(3.60745 -5.01598 2.163e-19)
(3.52751 -5.55854 1.04483e-19)
(3.41768 -6.03806 -4.10416e-19)
(3.32834 -6.52082 4.52846e-19)
(3.23661 -6.95723 9.74507e-20)
(3.15058 -7.38506 4.77796e-19)
(3.05347 -7.77247 -2.8201e-21)
(2.97418 -8.16727 4.32827e-20)
(2.89552 -8.52321 -8.05454e-19)
(2.81413 -8.88532 2.20704e-19)
(2.74559 -9.21114 0)
(2.66866 -9.52993 -4.09984e-20)
(2.59977 -9.86924 -3.59079e-19)
(2.34877 -0.483253 6.28641e-20)
(2.75927 -1.40171 -1.24931e-19)
(2.667 -2.13163 2.45041e-19)
(2.48843 -2.65225 -5.99567e-20)
(2.47416 -3.33775 -5.9243e-20)
(2.3756 -3.84455 0)
(2.33084 -4.41661 -1.11488e-19)
(2.25884 -4.90609 2.18439e-19)
(2.23369 -5.44981 -1.0703e-19)
(2.19821 -5.90144 1.03833e-19)
(2.18236 -6.40049 -5.15389e-20)
(2.12035 -6.82797 -9.9023e-20)
(2.10396 -7.27884 1.94164e-19)
(2.03892 -7.67329 -1.89673e-19)
(2.00355 -8.07686 4.69384e-20)
(1.93848 -8.43869 3.22887e-34)
(1.8956 -8.80538 -4.41222e-20)
(1.83341 -9.13295 2.59154e-19)
(1.79062 -9.45209 -1.27672e-19)
(1.73106 -9.77919 -9.15515e-20)
(0.195356 -8.01038 0)
(1.32192 -23.9896 6.42228e-20)
(2.27121 -37.4491 0)
(2.43888 -41.7018 7.33619e-20)
(2.41579 -41.7213 6.73979e-20)
(2.31472 -41.1583 6.3651e-20)
(2.23812 -40.5749 0)
(2.16124 -40.025 5.60993e-20)
(2.08604 -39.5174 0)
(2.00798 -39.0157 0)
(1.93525 -38.5791 -4.39802e-20)
(1.86392 -38.1039 4.4102e-21)
(1.79346 -37.6701 8.23572e-20)
(1.73227 -37.229 0)
(1.64528 -36.7982 3.47623e-20)
(1.60141 -36.2732 3.25088e-20)
(1.47742 -35.6756 3.04467e-20)
(1.46211 -35.0873 0)
(1.30789 -34.6141 -5.28704e-20)
(1.32722 -34.1325 5.19086e-20)
(0.234681 -8.96408 2.44222e-19)
(2.5187 -25.1742 -2.7127e-19)
(3.63616 -38.1686 0)
(3.8239 -41.7427 -3.5877e-19)
(3.76968 -41.5387 3.40546e-19)
(3.61335 -40.9068 -5.76643e-19)
(3.50349 -40.3015 2.46061e-19)
(3.39383 -39.787 1.61144e-19)
(3.29569 -39.287 -7.21593e-19)
(3.18791 -38.8266 3.98268e-19)
(3.10116 -38.3523 -4.55728e-20)
(2.99 -37.9347 3.29126e-19)
(2.90171 -37.4965 -1.64778e-20)
(2.79568 -37.0511 -3.02533e-19)
(2.70266 -36.5657 -3.4761e-20)
(2.60632 -36.0537 -3.25099e-20)
(2.48561 -35.4893 -3.04487e-20)
(2.42634 -34.9176 0)
(2.27358 -34.4535 -2.06537e-19)
(2.26856 -33.9945 9.90312e-21)
(0.850799 -9.62092 -1.61358e-19)
(3.2326 -26.2481 0)
(5.09001 -38.6876 0)
(5.16625 -41.5719 -1.44239e-19)
(5.0879 -41.2556 1.36066e-19)
(4.91708 -40.6416 0)
(4.76152 -40.0856 -1.16643e-19)
(4.61257 -39.5431 3.18537e-19)
(4.4676 -39.0454 -3.16742e-19)
(4.32449 -38.5468 3.70356e-19)
(4.18779 -38.103 -4.51736e-19)
(4.05832 -37.618 0)
(3.9261 -37.186 -3.00274e-19)
(3.80717 -36.7551 -2.64905e-19)
(3.67149 -36.317 4.856e-19)
(3.56781 -35.8015 -4.88778e-19)
(3.39412 -35.2135 4.23762e-19)
(3.31663 -34.637 0)
(3.10749 -34.1785 -4.51193e-19)
(3.09677 -33.6983 7.73031e-19)
(1.26381 -10.1644 8.01304e-19)
(4.34293 -27.0512 0)
(6.5004 -38.9743 3.06113e-19)
(6.60924 -41.3421 4.18901e-19)
(6.44449 -40.8636 -8.11085e-19)
(6.22021 -40.2207 2.45525e-19)
(6.02487 -39.6126 1.16636e-19)
(5.84015 -39.1047 1.15471e-18)
(5.66788 -38.6161 -1.5968e-18)
(5.48861 -38.1616 -1.41674e-19)
(5.33588 -37.7101 7.97827e-19)
(5.16164 -37.3085 1.58168e-19)
(5.01578 -36.8733 -7.30661e-19)
(4.85124 -36.4404 7.11338e-19)
(4.70015 -35.9765 1.93872e-19)
(4.53759 -35.4678 -1.19057e-19)
(4.35462 -34.8993 1.68756e-19)
(4.23531 -34.3311 0)
(4.01578 -33.8785 -4.65312e-20)
(3.99583 -33.4331 0)
(1.74555 -10.6935 0)
(5.51291 -27.6924 1.23676e-18)
(7.94758 -38.951 -1.54836e-18)
(7.99772 -40.8589 1.37731e-18)
(7.76986 -40.3549 -1.0658e-18)
(7.51286 -39.7556 -2.45535e-19)
(7.26593 -39.2284 0)
(7.03685 -38.7038 5.99581e-19)
(6.81731 -38.2194 -7.97335e-19)
(6.60414 -37.7447 8.82641e-19)
(6.40155 -37.3016 -6.8843e-19)
(6.20667 -36.8331 -1.58159e-19)
(6.0101 -36.4227 7.10306e-19)
(5.83035 -36.0016 -1.21535e-18)
(5.6392 -35.5668 7.53287e-19)
(5.47001 -35.0692 -2.47144e-19)
(5.24763 -34.5093 -5.34724e-19)
(5.10999 -33.9509 1.20822e-18)
(4.8498 -33.5173 -6.82504e-19)
(4.81963 -33.0509 -7.82745e-19)
(2.26784 -11.1771 1.22469e-18)
(6.72909 -28.1923 1.20548e-18)
(9.35302 -38.8408 -1.2114e-18)
(9.37364 -40.3372 -2.69043e-19)
(9.08171 -39.7473 2.56849e-19)
(8.77165 -39.1369 9.12458e-19)
(8.47858 -38.5453 -8.96506e-19)
(8.21218 -38.0626 0)
(7.96463 -37.6106 7.26222e-19)
(7.7117 -37.1753 -7.14108e-19)
(7.48955 -36.7598 -6.25551e-19)
(7.25586 -36.3731 6.15423e-19)
(7.04851 -35.9478 0)
(6.83097 -35.5535 0)
(6.62664 -35.1316 1.05549e-18)
(6.4085 -34.6576 -1.0326e-18)
(6.17108 -34.1056 -8.07801e-19)
(5.98684 -33.5546 7.95953e-19)
(5.70865 -33.1158 -7.02282e-19)
(5.67271 -32.6877 8.72387e-19)
(2.7877 -11.5231 -8.88012e-19)
(7.96249 -28.447 3.31247e-19)
(10.7154 -38.4005 6.49463e-20)
(10.697 -39.595 1.36318e-18)
(10.3335 -39.0285 0)
(9.99686 -38.4638 0)
(9.66337 -37.9794 1.6221e-18)
(9.35482 -37.4868 -9.29969e-20)
(9.06201 -37.0264 -1.47572e-18)
(8.77783 -36.5929 1.28765e-18)
(8.51155 -36.1724 -1.2665e-18)
(8.24845 -35.7524 0)
(7.99172 -35.3776 1.02604e-18)
(7.74824 -34.9719 -1.0099e-18)
(7.49805 -34.5663 0)
(7.26263 -34.102 0)
(6.98842 -33.5791 0)
(6.78309 -33.0457 0)
(6.47346 -32.6348 0)
(6.42524 -32.1803 -8.29254e-20)
(3.3668 -11.8459 8.43506e-19)
(9.1964 -28.6365 -1.45476e-18)
(12.0549 -37.952 0)
(11.9705 -38.8239 0)
(11.5545 -38.2258 2.04257e-18)
(11.1633 -37.663 1.01329e-19)
(10.7774 -37.113 -1.83867e-18)
(10.4291 -36.6725 0)
(10.111 -36.2689 1.65011e-19)
(9.78933 -35.8707 -1.52405e-19)
(9.49711 -35.4915 0)
(9.20771 -35.1212 1.30156e-19)
(8.93458 -34.7269 -1.08717e-18)
(8.6694 -34.3804 1.9581e-18)
(8.41394 -34.0097 -5.22815e-20)
(8.15014 -33.5923 -8.16202e-19)
(7.86639 -33.0855 -8.80975e-20)
(7.61797 -32.5697 8.15429e-20)
(7.29143 -32.162 0)
(7.22069 -31.7215 7.14438e-20)
(3.92684 -12.0376 5.41584e-19)
(10.3972 -28.5472 4.56291e-19)
(13.2919 -37.149 -1.64511e-18)
(13.1865 -37.8518 4.69621e-19)
(12.7071 -37.307 2.0289e-19)
(12.2913 -36.7876 1.76993e-18)
(11.878 -36.3465 -2.45708e-18)
(11.4923 -35.9001 1.76964e-18)
(11.1304 -35.4828 -1.40569e-18)
(10.7763 -35.1024 1.65728e-18)
(10.4519 -34.7338 2.62596e-19)
(10.1251 -34.3813 1.08716e-18)
(9.81588 -34.0446 -6.16145e-19)
(9.51148 -33.6733 -1.14853e-18)
(9.20917 -33.3217 1.00832e-18)
(8.91513 -32.9188 0)
(8.59042 -32.4417 2.4952e-19)
(8.31006 -31.936 6.73656e-20)
(7.95221 -31.5379 -1.37914e-19)
(7.86818 -31.09 5.80573e-20)
(4.53 -12.2062 -1.01892e-18)
(11.5953 -28.4509 1.06607e-18)
(14.5103 -36.4441 -3.00354e-20)
(14.3084 -36.875 -9.10214e-19)
(13.7865 -36.3316 -8.34268e-19)
(13.3171 -35.8269 -3.96179e-19)
(12.8521 -35.3423 -2.50311e-20)
(12.4252 -34.9562 -3.35614e-19)
(12.0435 -34.599 0)
(11.6623 -34.256 -2.84875e-19)
(11.3044 -33.911 -2.62597e-19)
(10.9612 -33.5753 -1.99062e-20)
(10.6261 -33.2401 8.10018e-19)
(10.3143 -32.9353 -4.22584e-19)
(10.0075 -32.6179 -8.92345e-19)
(9.70447 -32.271 6.91745e-19)
(9.38258 -31.8377 4.33793e-19)
(9.07707 -31.3701 -7.35392e-19)
(8.7129 -30.9917 1.37928e-19)
(8.61804 -30.5565 8.25847e-19)
(5.10462 -12.2414 -2.43692e-18)
(12.6979 -28.0344 2.49032e-18)
(15.5765 -35.322 -2.70275e-18)
(15.3996 -35.6947 2.20441e-18)
(14.8052 -35.2213 1.90669e-18)
(14.3157 -34.7637 -1.47634e-18)
(13.8336 -34.365 -1.91352e-18)
(13.3741 -33.9822 8.32041e-20)
(12.9499 -33.6303 1.13718e-18)
(12.5319 -33.3099 -7.33169e-19)
(12.1538 -33.014 1.8491e-18)
(11.7736 -32.7206 -1.09998e-18)
(11.415 -32.4283 -2.04188e-19)
(11.0621 -32.1174 5.00232e-19)
(10.7176 -31.8298 -1.30763e-18)
(10.3839 -31.5117 6.20753e-19)
(10.0209 -31.1081 0)
(9.67492 -30.6528 -9.70534e-19)
(9.27565 -30.2696 9.55516e-19)
(9.15831 -29.8359 -7.36695e-19)
(5.70948 -12.2591 4.59171e-19)
(13.7976 -27.6792 5.20239e-19)
(16.6736 -34.3878 2.21999e-18)
(16.355 -34.5562 1.89171e-18)
(15.7331 -34.0978 -1.14619e-18)
(15.1776 -33.6702 1.57271e-18)
(14.6556 -33.2646 -9.27105e-19)
(14.157 -32.9363 1.0525e-18)
(13.7155 -32.622 -1.99626e-18)
(13.2835 -32.3467 7.05849e-19)
(12.8721 -32.0486 0)
(12.4789 -31.7777 0)
(12.0956 -31.5118 0)
(11.735 -31.2505 -1.21827e-18)
(11.3815 -30.9894 1.19945e-18)
(11.0417 -30.72 0)
(10.6906 -30.3835 0)
(10.3313 -29.9893 -9.95723e-20)
(9.93422 -29.6441 0)
(9.81017 -29.229 -8.11301e-19)
(6.2613 -12.163 -8.61102e-19)
(14.7826 -26.9948 -2.14228e-18)
(17.5008 -33.0084 -1.50839e-18)
(17.2385 -33.1895 -2.6367e-19)
(16.5715 -32.8109 1.95626e-18)
(16.0022 -32.4338 -4.03112e-19)
(15.4551 -32.089 -8.39182e-20)
(14.9348 -31.7891 -1.2451e-18)
(14.4573 -31.5165 0)
(13.9858 -31.2632 -5.87015e-19)
(13.5566 -31.0417 9.32559e-19)
(13.1326 -30.7945 0)
(12.7255 -30.5647 1.15603e-18)
(12.3378 -30.3285 -1.13794e-18)
(11.9558 -30.1056 9.45718e-19)
(11.5993 -29.8719 -1.68347e-18)
(11.215 -29.5621 8.4039e-19)
(10.8244 -29.187 9.95695e-20)
(10.3948 -28.833 -7.22935e-20)
(10.2479 -28.424 5.75507e-19)
(6.82254 -12.0532 -1.10596e-18)
(15.7576 -26.3667 8.16689e-20)
(18.4354 -31.9028 1.14234e-19)
(17.9989 -31.9268 2.57592e-18)
(17.3364 -31.5632 2.11048e-19)
(16.705 -31.2335 -1.34108e-18)
(16.137 -30.9086 -9.11218e-19)
(15.5777 -30.6426 3.0182e-19)
(15.0806 -30.3792 9.87684e-19)
(14.6037 -30.1723 -1.01785e-18)
(14.1548 -29.9534 4.88314e-19)
(13.7206 -29.7621 -1.21164e-18)
(13.3001 -29.5507 9.5141e-19)
(12.896 -29.3528 -8.6979e-19)
(12.505 -29.1646 7.66013e-19)
(12.1338 -28.9828 5.90171e-19)
(11.7642 -28.7574 -6.80849e-19)
(11.3647 -28.4598 4.82459e-19)
(10.9407 -28.1535 -4.61077e-19)
(10.781 -27.7511 -4.80815e-19)
(7.32543 -11.8425 -1.35104e-18)
(16.5887 -25.4625 -2.39205e-19)
(19.0381 -30.3325 1.30932e-18)
(18.6377 -30.4235 -1.08418e-18)
(17.9428 -30.1475 1.06466e-18)
(17.3059 -29.8654 2.4525e-19)
(16.7026 -29.5925 0)
(16.1333 -29.382 -1.66845e-19)
(15.6158 -29.1892 4.45216e-19)
(15.1031 -29.0067 -1.56499e-18)
(14.6283 -28.8454 1.09364e-18)
(14.173 -28.6692 2.30358e-19)
(13.7268 -28.5101 1.14571e-19)
(13.3058 -28.3217 0)
(12.889 -28.159 2.32687e-20)
(12.5119 -28.0042 5.17237e-19)
(12.1193 -27.8126 -6.27824e-20)
(11.7059 -27.5555 4.58754e-20)
(11.264 -27.2653 -3.755e-19)
(11.089 -26.8824 7.30955e-20)
(7.81644 -11.5894 1.18716e-18)
(17.376 -24.5809 -2.03738e-18)
(19.778 -29.0958 1.14134e-18)
(19.2205 -29.0419 9.29647e-19)
(18.5317 -28.7866 -8.71335e-20)
(17.854 -28.5635 -6.36902e-19)
(17.247 -28.3157 1.53123e-19)
(16.6416 -28.1277 1.66845e-19)
(16.0947 -27.9346 0)
(15.5778 -27.7936 0)
(15.0983 -27.6716 -7.68264e-19)
(14.6328 -27.5505 1.24441e-18)
(14.1832 -27.4211 -6.54555e-19)
(13.7516 -27.2999 0)
(13.3267 -27.1671 2.40626e-20)
(12.9318 -27.0525 -3.73294e-19)
(12.5515 -26.9373 3.60307e-19)
(12.1377 -26.7643 -4.09039e-20)
(11.7017 -26.5314 -1.73145e-19)
(11.5058 -26.1415 1.29953e-19)
(8.25614 -11.2649 -1.0212e-18)
(18.0094 -23.4901 1.28054e-18)
(20.1612 -27.4527 0)
(19.6148 -27.4896 0)
(18.9028 -27.3042 1.58696e-19)
(18.2118 -27.1302 -7.61818e-19)
(17.5699 -26.937 3.20198e-20)
(16.9581 -26.8001 5.01374e-19)
(16.4118 -26.6842 -7.54914e-19)
(15.8716 -26.5673 1.38345e-18)
(15.3621 -26.4607 -6.30606e-19)
(14.8874 -26.3725 1.21183e-19)
(14.4165 -26.2763 3.96462e-19)
(13.9652 -26.1576 -4.40589e-20)
(13.5238 -26.0681 -2.18255e-19)
(13.1152 -25.9638 3.44184e-20)
(12.7144 -25.8725 -1.22699e-19)
(12.2994 -25.7454 9.47521e-20)
(11.8761 -25.5785 2.09761e-20)
(11.6811 -25.2303 -1.26714e-20)
(8.67399 -10.9083 0)
(18.5812 -22.392 5.55448e-19)
(20.6439 -26.0232 -6.30986e-19)
(19.9961 -25.9649 0)
(19.2976 -25.8237 -1.58701e-19)
(18.5886 -25.7168 4.40993e-19)
(17.9523 -25.5548 -5.51147e-19)
(17.3198 -25.4627 0)
(16.7378 -25.3577 5.00362e-19)
(16.1895 -25.2935 -4.92039e-19)
(15.6808 -25.2496 2.82493e-20)
(15.1937 -25.1935 -4.65484e-20)
(14.7235 -25.1586 -3.6135e-20)
(14.2731 -25.0874 -2.67237e-20)
(13.8221 -25.028 -3.53571e-20)
(13.4106 -24.975 -2.11106e-20)
(13.0134 -24.9516 1.23812e-19)
(12.5991 -24.8982 -2.14377e-19)
(12.1736 -24.7885 1.17878e-19)
(11.9685 -24.4498 -1.45796e-20)
(9.0771 -10.5071 0)
(19.0114 -21.2469 -5.9761e-19)
(20.8332 -24.3916 3.33037e-19)
(20.1497 -24.4313 3.43938e-19)
(19.4392 -24.328 -7.18375e-20)
(18.7149 -24.2755 -6.46788e-20)
(18.0513 -24.1616 -2.87176e-19)
(17.4026 -24.0786 0)
(16.8298 -24.0338 0)
(16.277 -23.9837 0)
(15.746 -23.9579 -2.82485e-20)
(15.2564 -23.9317 0)
(14.7791 -23.9243 9.35242e-20)
(14.3127 -23.8864 -7.30996e-20)
(13.8479 -23.8411 1.88512e-19)
(13.4049 -23.7757 -4.2258e-19)
(12.9788 -23.7544 2.33381e-19)
(12.5662 -23.7504 3.65762e-19)
(12.1699 -23.7489 -6.62426e-19)
(11.9756 -23.4468 3.64126e-19)
(9.42393 -10.0112 0)
(19.3312 -20.0562 0)
(21.0148 -22.8061 1.20487e-19)
(20.2725 -22.8164 9.93821e-20)
(19.5991 -22.7742 0)
(18.8845 -22.7859 1.43279e-19)
(18.2426 -22.7341 -1.40769e-19)
(17.6085 -22.7277 0)
(17.0127 -22.7017 -1.76117e-20)
(16.4458 -22.6946 1.73185e-20)
(15.9194 -22.7093 0)
(15.4198 -22.7218 2.37138e-19)
(14.9326 -22.7391 4.4018e-20)
(14.475 -22.7502 -2.91999e-19)
(14.016 -22.757 0)
(13.5716 -22.7356 0)
(13.1217 -22.7434 0)
(12.6742 -22.6944 4.76802e-19)
(12.2533 -22.6487 -5.1902e-19)
(11.9624 -22.4712 0)
(0.646317 -32.6709 0)
(0.729698 -30.3822 0)
(0.200617 -29.5925 -1.59772e-21)
(0.25215 -28.4667 -8.22393e-22)
(-0.00338008 -27.7053 0)
(0.00731943 -26.8459 2.09776e-22)
(-0.0393357 -26.2662 -6.34722e-22)
(-0.0444837 -25.6993 0)
(-0.0329584 -25.3038 -1.50373e-21)
(-0.024042 -24.9659 0)
(-0.0244557 -24.7221 1.93712e-21)
(0.0142494 -24.4858 1.08624e-21)
(-0.0177833 -24.3551 -1.09199e-21)
(0.0772781 -24.118 -2.38865e-21)
(0.00323333 -23.9804 0)
(0.204534 -23.772 6.51536e-22)
(0.0790794 -23.0807 -3.24072e-21)
(0.367871 -20.7607 0)
(0.0949824 -15.0815 0)
(0.119635 -6.00206 -2.76395e-21)
(1.50314 -32.5665 2.14383e-20)
(1.40459 -30.3735 0)
(0.759562 -29.6031 6.30379e-21)
(0.673268 -28.502 -3.90659e-21)
(0.340808 -27.7252 0)
(0.275107 -26.8776 2.66272e-21)
(0.187014 -26.2897 -1.33307e-21)
(0.129838 -25.7188 0)
(0.112896 -25.3208 -1.7654e-21)
(0.0911351 -24.9815 3.28668e-21)
(0.0698316 -24.7318 -6.00294e-21)
(0.0902969 -24.488 8.45367e-21)
(0.0431077 -24.3649 -6.70239e-21)
(0.118795 -24.1236 2.2924e-21)
(0.0375493 -23.9949 2.43413e-21)
(0.23661 -23.7847 -2.60827e-21)
(0.0999103 -23.1046 5.23697e-21)
(0.395697 -20.7541 6.78837e-21)
(0.0907584 -15.0396 2.08144e-21)
(0.13153 -5.97269 3.44235e-21)
(2.09564 -32.3128 -1.47498e-20)
(1.82232 -30.1729 -1.63649e-20)
(1.09059 -29.4338 -5.74849e-21)
(0.914476 -28.3548 0)
(0.544945 -27.6285 0)
(0.425254 -26.8131 -3.70401e-21)
(0.314909 -26.2443 -1.54891e-21)
(0.224203 -25.6904 -1.2023e-21)
(0.19253 -25.3002 -1.01736e-21)
(0.153422 -24.9644 6.65462e-21)
(0.119603 -24.7231 0)
(0.128658 -24.488 0)
(0.0765411 -24.3618 0)
(0.153959 -24.1266 9.61427e-21)
(0.0683866 -24.0089 0)
(0.267058 -23.7986 1.03715e-20)
(0.120747 -23.1308 -1.05689e-20)
(0.424744 -20.776 -4.05763e-21)
(0.0935617 -15.021 0)
(0.152562 -5.94752 -1.10177e-20)
(2.92422 -32.1311 2.58761e-20)
(2.46756 -30.114 -4.68908e-20)
(1.63211 -29.4051 2.8824e-21)
(1.31693 -28.3581 8.30627e-21)
(0.880297 -27.6287 0)
(0.687595 -26.83 -5.89051e-21)
(0.536843 -26.2562 1.8788e-20)
(0.393724 -25.6994 -1.4701e-20)
(0.334679 -25.3096 1.20111e-20)
(0.264597 -24.9722 -7.55129e-21)
(0.209678 -24.7257 -3.6356e-22)
(0.202928 -24.485 8.83758e-21)
(0.134116 -24.3683 -8.87713e-21)
(0.194374 -24.131 -4.74695e-21)
(0.101665 -24.022 -4.88744e-21)
(0.297732 -23.8121 -9.62803e-21)
(0.143105 -23.1602 1.30751e-20)
(0.453283 -20.7771 -5.26755e-21)
(0.0787923 -15.002 3.52611e-22)
(0.171039 -5.92117 6.68097e-22)
(3.51632 -31.8008 7.7082e-20)
(2.87858 -29.854 1.02462e-20)
(1.96063 -29.1946 -8.03793e-21)
(1.55427 -28.1784 9.93277e-21)
(1.08551 -27.5136 0)
(0.836436 -26.7487 2.36187e-21)
(0.663328 -26.1978 -3.909e-21)
(0.48623 -25.6594 0)
(0.413023 -25.2807 1.054e-22)
(0.326454 -24.9476 0)
(0.257615 -24.7123 1.59948e-20)
(0.240666 -24.4805 0)
(0.168322 -24.3606 0)
(0.228611 -24.1312 1.94224e-20)
(0.132014 -24.0343 -9.79332e-21)
(0.322624 -23.8228 7.55303e-21)
(0.163815 -23.1907 0)
(0.47298 -20.7976 -2.29696e-21)
(0.0732169 -14.9855 0)
(0.191159 -5.89594 0)
(4.28307 -31.5224 2.70374e-20)
(3.48162 -29.7391 -1.83169e-20)
(2.47562 -29.1237 1.79392e-20)
(1.93878 -28.1489 -1.61492e-20)
(1.41021 -27.4925 -1.59071e-21)
(1.09175 -26.7495 -2.36922e-21)
(0.877838 -26.197 8.45742e-21)
(0.650577 -25.6576 1.1033e-20)
(0.550171 -25.2824 -6.42192e-21)
(0.432475 -24.9472 -1.54873e-20)
(0.345364 -24.7075 7.50542e-21)
(0.310985 -24.4728 0)
(0.220816 -24.3641 0)
(0.26598 -24.1332 -2.49327e-24)
(0.165138 -24.0423 9.13203e-21)
(0.334169 -23.8298 -5.06832e-21)
(0.183138 -23.2197 0)
(0.490989 -20.8021 1.42943e-20)
(0.0635805 -14.9803 1.45324e-20)
(0.210254 -5.87222 8.19417e-22)
(4.85925 -31.1166 -7.12163e-20)
(3.87675 -29.4284 6.25297e-20)
(2.79274 -28.8771 -9.18907e-21)
(2.16818 -27.9416 0)
(1.61481 -27.3602 1.59747e-21)
(1.23742 -26.6525 -1.39985e-20)
(1.00136 -26.1263 5.56374e-21)
(0.741505 -25.6071 -1.10641e-20)
(0.627272 -25.2454 0)
(0.495563 -24.9162 0)
(0.392947 -24.6897 -1.70296e-20)
(0.34953 -24.4629 1.7091e-20)
(0.254923 -24.3514 0)
(0.292001 -24.131 -2.67265e-20)
(0.192749 -24.0452 8.33908e-21)
(0.339487 -23.8476 5.51229e-21)
(0.188657 -23.2556 -3.7377e-21)
(0.505996 -20.8263 -1.57841e-20)
(0.0527509 -14.9763 -6.9903e-21)
(0.228557 -5.85154 -2.67018e-21)
(5.58667 -30.7593 0)
(4.44429 -29.2531 -2.42818e-20)
(3.27858 -28.764 2.436e-20)
(2.53026 -27.8802 0)
(1.9279 -27.3172 0)
(1.48284 -26.6358 1.48818e-20)
(1.20634 -26.1123 -1.49273e-20)
(0.900993 -25.5947 0)
(0.758001 -25.2396 -1.44145e-20)
(0.596528 -24.9076 3.04102e-20)
(0.476344 -24.6774 -1.60006e-20)
(0.41391 -24.4508 -1.82756e-20)
(0.302234 -24.3497 1.83138e-20)
(0.32319 -24.13 0)
(0.217408 -24.0475 0)
(0.355974 -23.8525 5.9172e-21)
(0.186404 -23.2932 -5.77238e-21)
(0.509776 -20.8488 -4.2977e-23)
(0.0386224 -14.9807 0)
(0.246067 -5.83118 -2.63242e-21)
(6.10263 -30.2783 3.75539e-20)
(4.81678 -28.8921 -3.75799e-20)
(3.58008 -28.481 -1.51033e-20)
(2.74892 -27.6496 8.00061e-21)
(2.1308 -27.1689 1.02769e-20)
(1.62505 -26.5236 6.41726e-21)
(1.32718 -26.0307 -1.58515e-20)
(0.992548 -25.5347 0)
(0.835725 -25.1951 0)
(0.66014 -24.8713 -1.57671e-20)
(0.525 -24.655 0)
(0.455581 -24.4351 0)
(0.336856 -24.3318 0)
(0.348568 -24.1245 0)
(0.242175 -24.0462 0)
(0.363719 -23.8664 0)
(0.197267 -23.3302 4.02981e-21)
(0.520733 -20.8793 -7.84987e-21)
(0.0227701 -14.99 7.67978e-22)
(0.263772 -5.8146 -2.5956e-21)
(6.77156 -29.8517 -5.52979e-20)
(5.33789 -28.6617 -4.67032e-20)
(4.02943 -28.3269 -6.83947e-22)
(3.08988 -27.5576 8.54809e-21)
(2.42985 -27.104 4.22377e-21)
(1.86021 -26.4885 -1.78183e-20)
(1.52139 -26.0037 -1.01102e-20)
(1.14799 -25.5124 0)
(0.960385 -25.1811 1.57662e-20)
(0.757523 -24.8546 -3.03897e-20)
(0.604031 -24.6361 -1.71983e-20)
(0.514527 -24.4184 -1.84663e-20)
(0.379745 -24.3244 0)
(0.375328 -24.1202 -1.73107e-20)
(0.263869 -24.0443 -1.42132e-20)