/*--------------------------------*- C++ -*----------------------------------*\
  =========                 |
  \\      /  F ield         | OpenFOAM: The Open Source CFD Toolbox
   \\    /   O peration     | Website:  https://openfoam.org
    \\  /    A nd           | Version:  9
     \\/     M anipulation  |
\*---------------------------------------------------------------------------*/
FoamFile
{
    format      ascii;
    class       volVectorField;
    location    "1.2";
    object      U;
}
// * * * * * * * * * * * * * * * * * * * * * * * * * * * * * * * * * * * * * //

dimensions      [0 1 -1 0 0 0 0];

internalField   nonuniform List<vector> 
46400
(
(7.79003 -7.61055 -1.6458e-19)
(16.2676 -15.4721 1.09251e-19)
(17.6182 -17.5122 -6.01446e-20)
(17.0745 -17.5899 -6.2504e-20)
(16.5822 -17.6124 -4.54738e-20)
(16.0361 -17.6673 1.16492e-19)
(15.5465 -17.6778 -9.30503e-20)
(15.0358 -17.6781 4.82051e-20)
(14.6093 -17.7331 -5.44451e-20)
(14.1856 -17.7748 5.9882e-20)
(13.7643 -17.7917 -6.45579e-20)
(13.3945 -17.8491 0)
(13.0315 -17.9022 4.4544e-19)
(12.6866 -17.9403 -5.09451e-19)
(12.3727 -18.0202 -6.45912e-19)
(12.0622 -18.0585 -1.09832e-19)
(11.7351 -18.1029 -2.89946e-20)
(11.4444 -18.0839 5.16443e-19)
(11.1635 -18.0779 7.06872e-19)
(10.7409 -18.2729 -6.53008e-19)
(8.12581 -7.32508 0)
(16.4644 -14.5512 -2.95812e-20)
(17.6375 -16.3659 0)
(17.0108 -16.4608 1.41796e-19)
(16.4299 -16.4593 -1.27668e-19)
(15.8536 -16.5386 3.26286e-20)
(15.3562 -16.5941 0)
(14.8738 -16.6732 -4.8203e-20)
(14.419 -16.741 5.44427e-20)
(13.9837 -16.7922 -5.98807e-20)
(13.5967 -16.9015 6.8577e-19)
(13.1936 -16.9245 3.6377e-20)
(12.8412 -17.0302 -5.65192e-19)
(12.5193 -17.1068 0)
(12.1941 -17.1878 7.77723e-20)
(11.9043 -17.2539 8.00681e-20)
(11.63 -17.3646 0)
(11.3905 -17.407 -7.53253e-19)
(11.1351 -17.4396 -1.94084e-19)
(10.8161 -17.6561 7.67073e-19)
(8.37465 -6.86326 5.63183e-20)
(16.4968 -13.6396 -1.65805e-19)
(17.388 -14.974 1.58677e-19)
(16.755 -15.1677 2.4846e-19)
(16.2828 -15.2765 -2.43925e-19)
(15.7299 -15.4114 0)
(15.2294 -15.5074 -7.59409e-19)
(14.7172 -15.5782 6.54994e-19)
(14.2903 -15.7183 -8.42073e-19)
(13.857 -15.8098 8.32969e-19)
(13.439 -15.9093 7.91825e-19)
(13.0699 -16.0216 -7.78033e-20)
(12.6867 -16.1126 -6.86733e-19)
(12.3516 -16.2198 0)
(12.0456 -16.3662 8.47722e-19)
(11.7276 -16.4416 -8.3487e-19)
(11.4115 -16.5398 0)
(11.1616 -16.6201 -1.5451e-20)
(10.8895 -16.7041 9.79606e-20)
(10.5218 -16.9433 -8.99171e-19)
(8.57906 -6.42613 -1.8753e-19)
(16.4197 -12.6186 4.3544e-20)
(17.1831 -13.8308 3.34484e-19)
(16.5007 -14.0209 -3.30418e-19)
(15.9217 -14.1188 -2.86465e-19)
(15.364 -14.2772 3.88486e-19)
(14.8723 -14.4374 5.29113e-19)
(14.3934 -14.5756 -1.33081e-18)
(13.9317 -14.7145 1.11377e-18)
(13.5146 -14.843 -1.04894e-19)
(13.1271 -15.014 0)
(12.7321 -15.0998 1.0961e-19)
(12.3859 -15.2623 -1.11246e-19)
(12.046 -15.3569 0)
(11.7408 -15.5169 9.84824e-19)
(11.4858 -15.6782 -8.39007e-19)
(11.2027 -15.8262 0)
(10.965 -15.9324 1.14441e-19)
(10.7266 -16.0641 1.27459e-19)
(10.383 -16.3429 1.02351e-18)
(8.72713 -5.98204 0)
(16.2294 -11.545 0)
(16.7115 -12.4922 -4.55854e-19)
(16.0745 -12.7632 3.17896e-19)
(15.6006 -12.9714 -6.1645e-19)
(15.055 -13.17 4.983e-19)
(14.5556 -13.36 0)
(14.0589 -13.5109 5.48426e-19)
(13.6372 -13.7295 -6.64385e-19)
(13.1996 -13.8668 -1.49622e-19)
(12.8006 -14.0567 -1.50161e-19)
(12.4452 -14.2339 0)
(12.0636 -14.386 1.13329e-18)
(11.7339 -14.5401 -1.11558e-18)
(11.3965 -14.6888 0)
(11.0912 -14.8256 -1.25198e-18)
(10.8023 -15.0011 1.10442e-18)
(10.5515 -15.1286 1.1056e-18)
(10.2944 -15.2691 -1.20505e-18)
(9.95725 -15.5763 0)
(8.92098 -5.52127 0)
(15.8689 -10.3664 0)
(16.3072 -11.3416 0)
(15.6191 -11.6029 -3.00216e-20)
(15.0376 -11.8189 0)
(14.5075 -12.0522 0)
(14.0277 -12.3139 0)
(13.5624 -12.5143 -1.71201e-19)
(13.1187 -12.7458 0)
(12.7234 -12.9403 1.49623e-19)
(12.3281 -13.1529 -2.07605e-20)
(11.957 -13.314 -1.45951e-18)
(11.6349 -13.5526 1.10005e-18)
(11.3045 -13.704 -1.44187e-18)
(11.0142 -13.9227 1.08866e-18)
(10.7513 -14.1119 0)
(10.4656 -14.2996 -1.24058e-18)
(10.2398 -14.4776 1.06153e-18)
(10.0031 -14.6381 0)
(9.66201 -14.9558 -1.67575e-19)
(9.15966 -5.12604 6.23649e-19)
(15.3918 -9.21067 1.80831e-19)
(15.5831 -10.0165 7.05057e-19)
(14.9793 -10.3747 -7.24723e-19)
(14.515 -10.7179 -7.30502e-19)
(13.9948 -10.9897 1.45343e-18)
(13.5134 -11.2844 -1.65657e-18)
(13.0457 -11.5138 1.58384e-19)
(12.6429 -11.8141 5.32129e-19)
(12.2353 -12.0255 0)
(11.8652 -12.2877 -2.01947e-20)
(11.5106 -12.493 -1.92322e-20)
(11.1472 -12.7029 1.68923e-19)
(10.8458 -12.9175 1.39753e-18)
(10.493 -13.0718 -1.22724e-18)
(10.2215 -13.2715 -1.56132e-18)
(9.94175 -13.4706 1.36045e-18)
(9.69728 -13.6375 -1.46547e-20)
(9.48778 -13.838 -1.72668e-19)
(9.17199 -14.165 -1.24637e-18)
(9.41162 -4.69448 -2.03709e-19)
(14.806 -8.18793 3.25818e-20)
(14.8936 -8.92645 -2.18881e-19)
(14.2605 -9.27912 -8.65033e-19)
(13.7097 -9.63062 6.00601e-19)
(13.2443 -9.94586 0)
(12.8006 -10.305 1.2485e-18)
(12.3615 -10.5652 -6.02784e-19)
(11.955 -10.8808 4.09187e-19)
(11.6017 -11.1533 2.12947e-19)
(11.2337 -11.4296 -4.04364e-19)
(10.9058 -11.665 9.82142e-19)
(10.594 -11.9401 2.04712e-19)
(10.318 -12.1855 -1.16328e-18)
(10.0548 -12.4582 3.25248e-18)
(9.77143 -12.6445 -1.32426e-18)
(9.5144 -12.8825 1.67422e-18)
(9.27216 -13.0552 -1.09553e-18)
(9.04724 -13.2536 3.58743e-19)
(8.77394 -13.5937 1.73524e-18)
(9.62427 -4.29738 1.04228e-18)
(14.0233 -7.10975 -2.15895e-19)
(13.8911 -7.75322 -2.90242e-20)
(13.4287 -8.18675 4.68442e-19)
(12.999 -8.66198 2.20749e-19)
(12.5408 -8.99738 2.44059e-19)
(12.1166 -9.388 -1.1448e-18)
(11.6967 -9.68257 6.92595e-19)
(11.3166 -10.0359 -2.15284e-19)
(10.9598 -10.319 -2.12943e-19)
(10.6414 -10.6545 -2.10382e-19)
(10.3074 -10.8942 -2.25022e-19)
(9.94952 -11.121 -4.26015e-19)
(9.66556 -11.3654 1.4757e-18)
(9.37854 -11.6076 -2.06383e-18)
(9.15431 -11.8699 -2.09823e-19)
(8.89186 -12.0904 1.37103e-20)
(8.6784 -12.3052 -1.5516e-18)
(8.45872 -12.5007 1.15697e-18)
(8.20276 -12.8237 -1.8444e-18)
(9.6984 -3.98932 9.33214e-19)
(13.1759 -6.16526 -2.36577e-18)
(12.9618 -6.85977 1.56613e-18)
(12.4622 -7.24802 -2.47724e-19)
(11.9813 -7.71002 -2.6968e-19)
(11.6079 -8.10381 1.0476e-18)
(11.2369 -8.54115 -1.27005e-18)
(10.8451 -8.8521 0)
(10.4821 -9.22129 9.82088e-19)
(10.1666 -9.53982 -9.65705e-19)
(9.86218 -9.89435 -7.04028e-19)
(9.6453 -10.2505 9.18215e-19)
(9.35032 -10.5472 2.2128e-19)
(9.07684 -10.8001 -8.99264e-19)
(8.81759 -11.082 2.16735e-19)
(8.57121 -11.3172 1.07875e-18)
(8.3656 -11.6135 -1.90378e-18)
(8.14282 -11.8144 1.25598e-18)
(7.9523 -12.0635 -1.16662e-20)
(7.70445 -12.3557 -1.75299e-18)
(9.50772 -3.60405 1.28744e-18)
(12.1422 -5.26494 -8.6895e-19)
(11.8242 -5.89857 5.80373e-19)
(11.5307 -6.39295 7.41657e-21)
(11.164 -6.92421 -1.14179e-18)
(10.7594 -7.30394 -1.08813e-18)
(10.4417 -7.78353 1.35169e-18)
(10.0946 -8.13402 -7.95123e-19)
(9.73981 -8.51389 1.05392e-18)
(9.41431 -8.82216 0)
(9.08656 -9.15016 1.57664e-20)
(8.82308 -9.45932 2.41232e-19)
(8.58113 -9.80196 2.5103e-19)
(8.3222 -10.0628 -2.45834e-19)
(8.07331 -10.3441 0)
(7.84904 -10.5967 2.35606e-19)
(7.62777 -10.8628 0)
(7.46166 -11.1289 4.40218e-19)
(7.27435 -11.376 2.1481e-18)
(7.09474 -11.7303 -1.45739e-20)
(9.07937 -3.14793 7.08851e-19)
(11.1366 -4.49241 -1.50428e-19)
(10.7969 -5.15453 -2.18422e-18)
(10.3791 -5.5798 1.2224e-18)
(10.0095 -6.1233 2.91218e-19)
(9.69567 -6.55599 -2.86651e-19)
(9.39601 -7.06152 -1.16412e-18)
(9.1038 -7.44303 8.67167e-19)
(8.81054 -7.87594 0)
(8.5654 -8.25456 0)
(8.28649 -8.636 -1.33527e-18)
(8.07254 -8.99274 1.05647e-18)
(7.85125 -9.36369 -2.51e-19)
(7.65613 -9.68965 -7.60598e-19)
(7.42433 -9.99153 6.46538e-21)
(7.21344 -10.2512 1.69699e-18)
(6.99467 -10.5138 -9.4863e-19)
(6.79292 -10.7231 6.95632e-19)
(6.61686 -10.9744 -1.12883e-18)
(6.40678 -11.2433 0)
(8.47455 -2.665 -6.1501e-19)
(9.97718 -3.72999 9.96839e-19)
(9.61393 -4.3742 1.70032e-19)
(9.426 -4.91061 1.67066e-19)
(9.11897 -5.48305 0)
(8.74951 -5.87545 1.25347e-18)
(8.52738 -6.42769 -1.2315e-18)
(8.25898 -6.83026 1.54273e-19)
(7.92814 -7.20926 0)
(7.66307 -7.55629 1.15214e-18)
(7.37627 -7.9051 -9.88882e-19)
(7.13243 -8.2273 1.10194e-18)
(6.9373 -8.60663 -1.08433e-18)
(6.76616 -8.95528 1.05296e-18)
(6.61141 -9.33715 -9.05109e-19)
(6.4471 -9.65822 -1.00549e-18)
(6.2959 -10.0062 1.97307e-18)
(6.13964 -10.2845 -8.45354e-19)
(5.9912 -10.5801 1.19882e-19)
(5.83546 -10.9073 1.0123e-18)
(7.66651 -2.17618 -4.91531e-19)
(8.84867 -3.11257 5.31953e-19)
(8.43971 -3.78168 -1.70027e-19)
(8.07265 -4.23824 -1.67056e-19)
(7.87743 -4.88773 0)
(7.5736 -5.32038 0)
(7.30474 -5.84951 0)
(7.21504 -6.40268 -3.14997e-19)
(7.0128 -6.90262 -1.23074e-18)
(6.81957 -7.31948 2.413e-18)
(6.59107 -7.71995 -1.32736e-18)
(6.34988 -8.02828 -1.46555e-19)
(6.11306 -8.35511 0)
(5.91337 -8.64529 0)
(5.72595 -8.96551 -2.68044e-19)
(5.56305 -9.25863 0)
(5.3971 -9.56834 1.01892e-18)
(5.26231 -9.85407 -1.2535e-18)
(5.11372 -10.1389 -1.09036e-18)
(4.9746 -10.4804 1.05986e-18)
(6.74281 -1.69489 5.11893e-19)
(7.58096 -2.49752 9.27118e-19)
(7.2657 -3.18803 -1.97883e-24)
(7.10435 -3.73349 -1.25381e-21)
(6.8832 -4.35232 1.7614e-19)
(6.62706 -4.79297 -5.12276e-19)
(6.27835 -5.21448 0)
(6.03478 -5.62007 -4.92492e-19)
(5.88263 -6.12852 1.66456e-19)
(5.74128 -6.57391 6.27515e-19)
(5.61429 -7.0618 6.08444e-19)
(5.47528 -7.47119 -4.52161e-19)
(5.31825 -7.88125 1.15932e-18)
(5.16365 -8.22804 -9.9733e-19)
(5.00863 -8.58364 1.24055e-18)
(4.86809 -8.89367 -2.30204e-18)
(4.71982 -9.21662 1.0615e-18)
(4.58689 -9.48789 1.26944e-19)
(4.45766 -9.77995 1.00143e-18)
(4.31242 -10.0839 -1.09347e-18)
(5.68068 -1.26787 1.78272e-19)
(6.26106 -2.03667 -1.88552e-19)
(5.90618 -2.69909 7.56441e-19)
(5.5822 -3.20279 -7.4234e-19)
(5.57596 -3.96023 -3.61645e-19)
(5.51458 -4.55381 -8.80911e-19)
(5.33478 -5.12062 4.34081e-21)
(5.12564 -5.53987 6.78365e-19)
(4.89503 -5.97942 -1.62551e-19)
(4.72023 -6.37024 0)
(4.55218 -6.78991 0)
(4.42022 -7.17405 0)
(4.2846 -7.57386 0)
(4.16752 -7.92902 3.50896e-21)
(4.04488 -8.29908 0)
(3.93686 -8.61924 1.37033e-19)
(3.83077 -8.96916 5.38843e-19)
(3.72472 -9.24731 -1.58255e-18)
(3.63112 -9.56073 1.16657e-18)
(3.51925 -9.85968 -1.10899e-18)
(4.6112 -0.939263 0)
(4.9804 -1.73263 -1.00192e-19)
(4.87105 -2.47299 0)
(4.50661 -2.88612 2.83241e-19)
(4.22112 -3.40429 -1.88754e-19)
(4.17233 -3.97146 -7.24105e-19)
(4.07295 -4.55199 4.44919e-21)
(4.01463 -5.07818 6.94764e-19)
(3.89541 -5.59353 -6.73058e-19)
(3.78891 -6.02714 1.31835e-18)
(3.66353 -6.48632 -5.54696e-21)
(3.55669 -6.86528 -6.29856e-19)
(3.44299 -7.2892 6.08634e-19)
(3.33557 -7.62623 -7.46561e-19)
(3.23863 -8.02197 0)
(3.13267 -8.32417 -5.64245e-19)
(3.04938 -8.69642 5.55823e-19)
(2.95369 -8.97007 0)
(2.87686 -9.29768 -1.30268e-19)
(2.78362 -9.60381 0)
(3.0277 -0.573759 1.0234e-19)
(3.25056 -1.31784 1.00167e-19)
(3.40216 -2.17588 0)
(3.40902 -2.81419 3.8585e-19)
(3.18817 -3.4009 -4.75954e-19)
(3.0403 -3.86504 2.76064e-19)
(2.92227 -4.43387 -8.13809e-19)
(2.80739 -4.86777 3.53937e-19)
(2.73614 -5.41217 -8.64703e-20)
(2.6413 -5.81099 0)
(2.57252 -6.30944 -8.21782e-20)
(2.48732 -6.67008 -8.00999e-20)
(2.42739 -7.12734 -7.80737e-20)
(2.34775 -7.45396 0)
(2.28861 -7.8681 -5.87292e-19)
(2.2184 -8.16807 1.22323e-18)
(2.15693 -8.54299 -1.05174e-18)
(2.09812 -8.81924 5.50039e-19)
(2.04073 -9.14332 6.70786e-20)
(1.98453 -9.44468 5.74249e-19)
(2.22776 -0.556263 -1.56109e-19)
(1.98701 -0.983824 -2.04926e-19)
(2.00214 -1.73903 6.05632e-22)
(1.96782 -2.29057 5.39624e-19)
(1.98991 -3.04024 -1.45108e-19)
(1.90494 -3.53375 -9.36089e-20)
(1.86141 -4.18534 9.21965e-20)
(1.79369 -4.63335 1.79044e-19)
(1.7393 -5.20848 8.64622e-20)
(1.67613 -5.62018 -3.37616e-19)
(1.62304 -6.12853 3.72827e-19)
(1.56312 -6.50487 8.00971e-20)
(1.51459 -6.95848 3.90538e-19)
(1.46701 -7.30793 -3.07356e-21)
(1.4209 -7.71468 3.43355e-20)
(1.38124 -8.03888 -6.53856e-19)
(1.33717 -8.4085 1.78933e-19)
(1.30068 -8.70403 0)
(1.26056 -9.02489 -3.32921e-20)
(1.2241 -9.33525 -2.90157e-19)
(0.249804 -0.98619 0)
(0.822398 -0.970066 -1.01204e-19)
(0.643523 -2.04846 1.3052e-19)
(0.680208 -2.35958 -4.97308e-20)
(0.520404 -3.13694 -4.8677e-20)
(0.542916 -3.52914 0)
(0.481618 -4.18413 -9.1654e-20)
(0.504536 -4.57823 1.79427e-19)
(0.47205 -5.15679 -8.78367e-20)
(0.50241 -5.53926 8.48717e-20)
(0.474599 -6.05913 -4.2043e-20)
(0.493857 -6.42199 -8.05843e-20)
(0.462509 -6.88865 1.57825e-19)
(0.471869 -7.2271 -1.53809e-19)
(0.442414 -7.64851 3.79546e-20)
(0.447772 -7.96067 2.59513e-34)
(0.423289 -8.34696 -3.53216e-20)
(0.427802 -8.63044 2.07962e-19)
(0.409223 -8.96804 -1.02612e-19)
(0.412913 -9.27191 -7.37339e-20)
(-0.17883 1.48747 5.01039e-20)
(-0.00992191 0.94992 0)
(0.524613 -1.30614 0)
(2.27938 -7.04466 4.4704e-21)
(5.44655 -16.2439 4.66277e-21)
(7.69365 -22.949 2.22555e-20)
(8.75011 -26.2492 0)
(9.1166 -27.406 2.03425e-20)
(9.18862 -27.7618 0)
(9.1888 -27.8275 0)
(9.14553 -27.8024 -1.68108e-20)
(9.07619 -27.7003 6.82098e-22)
(8.96828 -27.6011 3.60297e-20)
(8.94185 -27.5777 0)
(8.86631 -27.5779 1.58888e-20)
(8.80836 -27.5032 1.58472e-20)
(8.71848 -27.477 1.53719e-20)
(8.67463 -27.4304 0)
(8.58213 -27.4455 -2.78718e-20)
(8.5527 -27.3853 2.59756e-20)
(-0.169596 1.4292 7.51276e-20)
(0.305581 0.097312 -1.17637e-19)
(1.13959 -3.92472 0)
(4.24736 -12.7026 -1.15427e-19)
(7.08934 -20.9329 1.13532e-19)
(8.66045 -25.5174 -2.00539e-19)
(9.21699 -27.1735 8.54959e-20)
(9.35002 -27.6731 6.0525e-20)
(9.37091 -27.773 -2.58292e-19)
(9.33413 -27.744 1.41119e-19)
(9.24524 -27.6499 -1.84906e-20)
(9.17047 -27.521 1.43174e-19)
(9.10795 -27.5053 -2.8356e-21)
(9.0652 -27.4334 -1.35886e-19)
(8.96742 -27.3857 -1.64562e-20)
(8.93238 -27.3287 -1.54589e-20)
(8.85081 -27.3403 -1.45315e-20)
(8.81845 -27.2727 0)
(8.69928 -27.2383 -1.10054e-19)
(8.67106 -27.1551 1.93466e-21)
(-0.0453886 1.14304 -3.97644e-20)
(0.49951 -1.28133 0)
(2.43872 -7.44302 0)
(6.20169 -17.449 -2.3224e-20)
(8.33924 -23.8737 4.57577e-20)
(9.34844 -26.648 0)
(9.59923 -27.4922 -4.24983e-20)
(9.655 -27.6668 1.13407e-19)
(9.62402 -27.6466 -1.0834e-19)
(9.54754 -27.5469 1.46089e-19)
(9.46672 -27.427 -1.85185e-19)
(9.41415 -27.3757 0)
(9.32576 -27.2998 -1.34333e-19)
(9.2778 -27.2325 -1.26189e-19)
(9.18918 -27.2306 2.23448e-19)
(9.15342 -27.1706 -2.3637e-19)
(9.03927 -27.1412 2.04576e-19)
(8.98499 -27.017 0)
(8.86458 -27.015 -2.38168e-19)
(8.84482 -26.9438 3.90314e-19)
(0.319405 0.596265 2.54614e-19)
(0.901748 -3.20977 0)
(4.17699 -12.058 7.62149e-20)
(7.46871 -21.0599 1.39746e-19)
(9.22169 -25.7962 -2.78216e-19)
(9.71574 -27.276 8.57291e-20)
(9.86475 -27.6303 4.01183e-20)
(9.8379 -27.6165 4.03654e-19)
(9.78173 -27.5359 -6.06539e-19)
(9.69515 -27.394 -6.6682e-20)
(9.63669 -27.3259 3.28491e-19)
(9.55455 -27.2024 6.82094e-20)
(9.48865 -27.1552 -3.26864e-19)
(9.43945 -27.1052 3.19936e-19)
(9.34095 -27.0462 9.08523e-20)
(9.29878 -26.9574 -5.73528e-20)
(9.18068 -26.9139 8.36304e-20)
(9.15435 -26.8543 0)
(9.04256 -26.8407 -2.30342e-20)
(9.01707 -26.7223 0)
(0.414537 -0.5547 0)
(1.69227 -5.20865 3.97255e-19)
(5.73119 -15.7347 -4.8699e-19)
(8.71254 -23.5121 4.72661e-19)
(9.87627 -26.6291 -3.66604e-19)
(10.1823 -27.4619 -8.80555e-20)
(10.1855 -27.511 0)
(10.1556 -27.458 2.21328e-19)
(10.0706 -27.3169 -3.09579e-19)
(9.99285 -27.2131 3.65724e-19)
(9.90925 -27.08 -2.86391e-19)
(9.83951 -27.0188 -6.82089e-20)
(9.76267 -26.9556 3.18901e-19)
(9.68561 -26.8637 -5.54499e-19)
(9.59203 -26.8239 3.52793e-19)
(9.54088 -26.752 -1.15767e-19)
(9.41545 -26.7278 -2.67223e-19)
(9.37318 -26.6105 6.08303e-19)
(9.21848 -26.5857 -3.41407e-19)
(9.19033 -26.4425 -3.98062e-19)
(0.338804 -1.5211 4.1883e-19)
(2.71018 -8.19186 4.05534e-19)
(7.18301 -19.1254 -3.99793e-19)
(9.54228 -25.2794 -9.80996e-20)
(10.2913 -27.1952 9.10165e-20)
(10.4627 -27.5197 3.33666e-19)
(10.4424 -27.4814 -3.13267e-19)
(10.367 -27.3323 0)
(10.2823 -27.1874 3.00469e-19)
(10.1958 -27.0372 -2.95441e-19)
(10.128 -26.9574 -2.71464e-19)
(10.0389 -26.838 2.67062e-19)
(9.95821 -26.7563 0)
(9.88776 -26.6977 0)
(9.78922 -26.6304 5.03452e-19)
(9.71814 -26.5291 -4.93989e-19)
(9.58491 -26.4557 -4.05466e-19)
(9.54942 -26.3803 3.93492e-19)
(9.40293 -26.3567 -3.58522e-19)
(9.37299 -26.1935 4.32681e-19)
(0.473978 -2.4011 -3.22541e-19)
(3.97848 -11.0328 1.12693e-19)
(8.28697 -21.2736 9.24911e-21)
(10.3344 -26.193 4.99588e-19)
(10.8517 -27.3902 0)
(10.8889 -27.4452 0)
(10.8407 -27.3093 6.36236e-19)
(10.7305 -27.091 -2.57995e-20)
(10.6592 -26.9573 -6.15138e-19)
(10.5647 -26.8367 5.58251e-19)
(10.4646 -26.682 -5.49055e-19)
(10.3695 -26.5931 0)
(10.2828 -26.5218 4.72676e-19)
(10.1758 -26.4124 -4.65228e-19)
(10.0659 -26.3346 0)
(9.98178 -26.2463 0)
(9.84774 -26.2212 0)
(9.79799 -26.1115 0)
(9.60077 -26.0653 0)
(9.56021 -25.859 -4.20196e-20)
(0.828728 -3.29701 3.42961e-19)
(5.22067 -13.4817 -5.56531e-19)
(9.46703 -23.2177 0)
(11.0423 -26.9102 0)
(11.3125 -27.4502 8.20003e-19)
(11.2948 -27.3671 5.14312e-20)
(11.1698 -27.1242 -7.5992e-19)
(11.0786 -26.9481 0)
(10.9686 -26.782 7.29444e-20)
(10.8445 -26.5894 -6.82661e-20)
(10.7464 -26.4847 0)
(10.6336 -26.3602 5.99717e-20)
(10.5225 -26.2503 -5.08691e-19)
(10.4186 -26.1716 9.24544e-19)
(10.307 -26.0925 -1.76994e-20)
(10.1984 -25.9893 -3.95922e-19)
(10.0524 -25.8981 -4.40607e-20)
(9.98911 -25.8032 4.12785e-20)
(9.79085 -25.7524 0)
(9.7626 -25.5538 3.60775e-20)
(1.30309 -4.17553 2.3021e-19)
(6.561 -15.2455 1.94342e-19)
(10.5618 -24.1767 -6.8005e-19)
(11.847 -27.0099 2.06948e-19)
(11.936 -27.267 9.27327e-20)
(11.8494 -27.089 7.62227e-19)
(11.6884 -26.8348 -1.08214e-18)
(11.5446 -26.6126 7.87224e-19)
(11.4179 -26.4393 -6.33685e-19)
(11.2792 -26.2994 7.50827e-19)
(11.141 -26.1329 1.2213e-19)
(11.0046 -26.0197 5.10771e-19)
(10.8854 -25.9367 -2.8726e-19)
(10.7438 -25.8179 -5.5238e-19)
(10.6047 -25.7178 4.86816e-19)
(10.478 -25.6205 0)
(10.3358 -25.5854 1.25058e-19)
(10.2494 -25.4795 3.42324e-20)
(10.0255 -25.4153 -7.10558e-20)
(9.97623 -25.1834 2.92938e-20)
(2.10494 -5.38554 0)
(7.76667 -16.7315 3.85579e-19)
(11.6518 -25.0721 -1.20959e-21)
(12.5271 -27.0614 -4.03218e-19)
(12.4797 -27.0426 -3.66365e-19)
(12.3051 -26.7777 -1.7445e-19)
(12.1068 -26.5154 -5.29301e-21)
(11.9546 -26.3243 -1.51994e-19)
(11.7892 -26.1454 0)
(11.6073 -25.9337 -1.31192e-19)
(11.4615 -25.8142 -1.2212e-19)
(11.3072 -25.6878 -7.45494e-21)
(11.1535 -25.5671 3.91698e-19)
(11.0079 -25.4761 -2.02841e-19)
(10.8658 -25.3911 -4.38565e-19)
(10.7175 -25.2923 3.40766e-19)
(10.5547 -25.1955 2.19758e-19)
(10.4433 -25.0987 -3.71963e-19)
(10.224 -25.0356 7.11699e-20)
(10.1754 -24.8261 4.2303e-19)
(2.54346 -6.07201 -7.01467e-19)
(8.90438 -17.6499 8.93609e-19)
(12.6083 -25.1926 -1.28408e-18)
(13.2349 -26.645 1.02822e-18)
(13.1093 -26.5874 8.85555e-19)
(12.8945 -26.3092 -7.00039e-19)
(12.6704 -26.0755 -9.10471e-19)
(12.454 -25.8493 3.88443e-20)
(12.259 -25.661 5.42371e-19)
(12.0625 -25.5187 -3.50752e-19)
(11.8724 -25.354 8.88431e-19)
(11.6847 -25.231 -5.28956e-19)
(11.5207 -25.1452 -9.84326e-20)
(11.3385 -25.0284 2.45737e-19)
(11.161 -24.9256 -6.42863e-19)
(10.9906 -24.8302 3.06406e-19)
(10.8291 -24.7921 0)
(10.6925 -24.7014 -4.92465e-19)
(10.4588 -24.6353 4.84767e-19)
(10.3761 -24.4036 -3.73899e-19)
(3.27805 -7.02505 2.31107e-19)
(9.94635 -18.64 2.58766e-19)
(13.5607 -25.4066 1.09797e-18)
(13.8884 -26.3473 9.33256e-19)
(13.6388 -26.1337 -5.61175e-19)
(13.3734 -25.835 7.76919e-19)
(13.0939 -25.5771 -4.5928e-19)
(12.8685 -25.3891 5.14883e-19)
(12.6405 -25.218 -9.75461e-19)
(12.3923 -25.0097 3.45765e-19)
(12.1911 -24.8935 0)
(11.9859 -24.7768 0)
(11.7826 -24.6634 0)
(11.5916 -24.5747 -5.95827e-19)
(11.4074 -24.4943 5.8661e-19)
(11.2158 -24.4038 0)
(11.0257 -24.3117 0)
(10.8617 -24.2329 -4.84834e-20)
(10.629 -24.1746 0)
(10.5465 -23.9697 -3.97516e-19)
(3.79334 -7.42575 -4.49541e-19)
(10.9864 -18.8622 -1.11726e-18)
(14.3335 -24.9452 -7.66534e-19)
(14.5467 -25.6119 -1.23883e-19)
(14.2315 -25.4447 9.97106e-19)
(13.9512 -25.1845 -2.07425e-19)
(13.6433 -24.9725 -4.64427e-20)
(13.3498 -24.7633 -6.26053e-19)
(13.0865 -24.5833 0)
(12.8276 -24.4566 -2.89119e-19)
(12.5798 -24.3042 4.59237e-19)
(12.3377 -24.1877 0)
(12.125 -24.1152 5.61303e-19)
(11.8995 -24.0137 -5.52485e-19)
(11.6793 -23.9267 4.5544e-19)
(11.4675 -23.8452 -8.10804e-19)
(11.2782 -23.8125 4.03619e-19)
(11.0934 -23.7475 4.84817e-20)
(10.8522 -23.6996 -3.29588e-20)
(10.7497 -23.4781 2.67885e-19)
(4.46409 -7.96831 -6.08654e-19)
(12.0296 -19.2069 4.39863e-20)
(15.096 -24.6638 6.428e-20)
(15.1543 -25.0241 1.36753e-18)
(14.7127 -24.7803 1.01129e-19)
(14.3782 -24.5217 -7.00992e-19)
(14.0161 -24.2881 -4.64687e-19)
(13.7112 -24.1302 1.57484e-19)
(13.4219 -23.9876 4.96873e-19)
(13.1074 -23.804 -5.00874e-19)
(12.8503 -23.7124 2.40291e-19)
(12.5924 -23.614 -5.80302e-19)
(12.3387 -23.5193 4.576e-19)
(12.1043 -23.4473 -4.05698e-19)
(11.8757 -23.3848 3.59082e-19)
(11.6422 -23.3081 2.65219e-19)
(11.4179 -23.2312 -3.08013e-19)
(11.2082 -23.1859 2.11586e-19)
(10.9744 -23.161 -1.99139e-19)
(10.8607 -22.9702 -1.95182e-19)
(4.99321 -8.14772 -7.61776e-19)
(12.8642 -18.9637 -1.33648e-19)
(15.702 -23.8977 6.92974e-19)
(15.6742 -24.0798 -5.87642e-19)
(15.225 -23.9176 5.76902e-19)
(14.8717 -23.7102 1.28409e-19)
(14.4996 -23.5313 0)
(14.1291 -23.3554 -8.4167e-20)
(13.8046 -23.2057 2.18888e-19)
(13.4873 -23.1109 -7.61706e-19)
(13.1815 -22.9841 5.287e-19)
(12.8892 -22.8966 1.06759e-19)
(12.6298 -22.8526 5.34148e-20)
(12.3617 -22.7773 0)
(12.1009 -22.7205 1.42474e-20)
(11.853 -22.6626 2.06639e-19)
(11.6305 -22.6434 -3.44558e-20)
(11.4001 -22.6077 6.60036e-21)
(11.1589 -22.5985 -1.33204e-19)
(11.0413 -22.4029 2.09933e-20)
(5.59361 -8.33592 6.81847e-19)
(13.7375 -18.8454 -1.16304e-18)
(16.3363 -23.1808 6.34271e-19)
(16.1628 -23.2847 5.08374e-19)
(15.6309 -23.069 -5.84449e-20)
(15.2 -22.8722 -3.41903e-19)
(14.7758 -22.6822 7.75078e-20)
(14.3976 -22.5735 8.41586e-20)
(14.0502 -22.4711 0)
(13.6762 -22.3259 0)
(13.3685 -22.2751 -3.36082e-19)
(13.0596 -22.2008 5.31668e-19)
(12.7591 -22.1387 -2.7143e-19)
(12.4866 -22.0984 0)
(12.2168 -22.0701 1.54039e-20)
(11.9454 -22.0164 -9.64896e-20)
(11.685 -21.9618 9.07192e-20)
(11.4331 -21.9576 -1.18591e-20)
(11.208 -21.9868 1.09624e-20)
(11.0707 -21.8217 4.31871e-22)
(6.09198 -8.32343 -5.95385e-19)
(14.3926 -18.3101 7.43096e-19)
(16.7824 -22.0917 0)
(16.5154 -22.1401 0)
(16.013 -22.0347 8.34789e-20)
(15.5756 -21.9056 -3.89731e-19)
(15.1463 -21.7779 2.40347e-20)
(14.7082 -21.6539 2.43962e-19)
(14.3333 -21.5613 -3.27594e-19)
(13.9657 -21.5106 5.78994e-19)
(13.6062 -21.4218 -2.52654e-19)
(13.2743 -21.3822 4.01571e-20)
(12.9736 -21.3752 9.23698e-20)
(12.6661 -21.3299 -4.40945e-20)
(12.371 -21.314 -3.72438e-20)
(12.0963 -21.2947 5.82495e-21)
(11.837 -21.2954 6.21652e-20)
(11.5545 -21.2754 -6.23589e-20)
(11.3195 -21.3034 1.45505e-20)
(11.1954 -21.1733 -1.19403e-19)
(6.59362 -8.30956 0)
(15.0851 -17.8649 3.17047e-19)
(17.1763 -21.2243 -3.62516e-19)
(16.8417 -21.1937 0)
(16.2533 -21.0467 -8.34572e-20)
(15.7494 -20.9353 2.07712e-19)
(15.2845 -20.8095 -2.6046e-19)
(14.8485 -20.7601 0)
(14.4532 -20.7072 1.6512e-19)
(14.0356 -20.6153 -1.62366e-19)
(13.6863 -20.6139 -1.5487e-21)
(13.3319 -20.5692 -1.11019e-20)
(12.9964 -20.5594 -4.82468e-21)
(12.6948 -20.5637 7.76475e-22)
(12.3884 -20.5716 1.37066e-19)
(12.0874 -20.5496 -2.92481e-19)
(11.798 -20.5439 3.51016e-19)
(11.5146 -20.5775 -3.98439e-19)
(11.2739 -20.6252 1.8888e-19)
(11.1456 -20.5323 -2.44326e-20)
(7.00772 -8.12719 0)
(15.5547 -17.0699 -3.41448e-19)
(17.391 -19.9333 1.92045e-19)
(17.0001 -19.9375 1.69532e-19)
(16.4838 -19.8954 -5.23282e-20)
(15.9746 -19.8606 -4.6091e-20)
(15.5078 -19.795 -1.09145e-19)
(15.0199 -19.7317 0)
(14.6095 -19.7119 0)
(14.2048 -19.7095 0)
(13.8017 -19.6667 1.54853e-21)
(13.4411 -19.678 0)
(13.1036 -19.7073 2.39353e-19)
(12.7651 -19.7046 -2.03071e-19)
(12.4463 -19.7387 2.7422e-19)
(12.1482 -19.7567 -5.72323e-19)
(11.8469 -19.7884 2.97733e-19)
(11.5244 -19.7905 3.89629e-19)
(11.2584 -19.8474 -6.98115e-19)
(11.1358 -19.7458 3.7492e-19)
(7.43079 -7.97554 0)
(16.0561 -16.3588 0)
(17.6141 -18.8824 6.16216e-20)
(17.1234 -18.8848 4.67299e-20)
(16.5352 -18.8036 0)
(15.9764 -18.7906 9.24635e-21)
(15.4876 -18.7475 -9.08479e-21)
(15.0161 -18.759 0)
(14.5829 -18.7613 -1.86472e-19)
(14.1435 -18.7372 1.83362e-19)
(13.7647 -18.7885 0)
(13.3721 -18.7707 3.26797e-19)
(13.0129 -18.8156 8.55248e-21)
(12.6886 -18.8604 -3.57515e-19)
(12.3509 -18.8995 0)
(12.0246 -18.9055 0)
(11.7035 -18.9636 0)
(11.4067 -19.0026 4.43241e-19)
(11.075 -19.0015 -4.86876e-19)
(10.9139 -18.9553 0)
(7.87145 -27.1715 0)
(7.52693 -26.7422 0)
(6.7884 -26.7561 -2.22129e-21)
(6.34447 -26.7151 -2.11569e-21)
(5.72753 -26.6751 0)
(5.21257 -26.6065 -2.67203e-24)
(4.7401 -26.6106 1.89924e-21)
(4.26468 -26.6085 0)
(3.84776 -26.7023 1.65816e-21)
(3.44163 -26.7035 0)
(3.06114 -26.6817 -1.54212e-21)
(2.7181 -26.6399 -7.46953e-22)
(2.39431 -26.6394 7.51185e-22)
(2.1254 -26.6284 1.38532e-21)
(1.84716 -26.6278 0)
(1.62439 -26.5557 -3.23155e-22)
(1.36876 -26.2737 1.34205e-21)
(1.22041 -24.5624 0)
(0.720552 -19.3347 0)
(0.223399 -10.3003 1.18429e-21)
(8.03388 -26.9264 1.18815e-20)
(7.6601 -26.5559 0)
(6.82873 -26.5846 1.06174e-20)
(6.40419 -26.543 -6.32933e-21)
(5.76474 -26.5363 0)
(5.22202 -26.4862 -8.97967e-21)
(4.69966 -26.4864 3.56629e-21)
(4.20463 -26.4721 0)
(3.79512 -26.5723 1.49742e-21)
(3.39072 -26.5801 -3.17187e-21)
(3.01641 -26.5675 4.4835e-21)
(2.68211 -26.5436 -5.8031e-21)
(2.36801 -26.5592 4.23694e-21)
(2.10748 -26.5582 -1.43802e-21)
(1.83593 -26.5669 -1.33767e-21)
(1.62615 -26.4905 1.24225e-21)
(1.3813 -26.2194 -2.07656e-21)
(1.22363 -24.4598 -2.93726e-21)
(0.706724 -19.1581 -1.42911e-21)
(0.232565 -10.1576 -1.47704e-21)
(8.09557 -26.7122 -3.19858e-21)
(7.72453 -26.3788 -1.07037e-20)
(6.86906 -26.3942 -7.81367e-21)
(6.40606 -26.3822 0)
(5.74479 -26.3416 0)
(5.24515 -26.2948 1.02177e-20)
(4.76386 -26.3242 -3.18651e-22)
(4.29081 -26.3418 -2.46623e-22)
(3.87961 -26.4628 -2.50758e-22)
(3.46992 -26.4766 -5.97755e-21)
(3.09048 -26.474 0)
(2.74733 -26.4528 0)
(2.42366 -26.4711 0)
(2.1533 -26.476 -5.03061e-21)
(1.87259 -26.488 0)
(1.65134 -26.4266 -4.75441e-21)
(1.3938 -26.1658 3.73176e-21)
(1.22949 -24.3904 1.77309e-21)
(0.723531 -19.0739 2.88618e-21)
(0.239198 -10.0468 4.419e-21)
(8.25875 -26.4509 1.8475e-20)
(7.8646 -26.1782 -3.62024e-20)
(6.92652 -26.2032 3.56184e-22)
(6.46011 -26.1956 1.48337e-20)
(5.79825 -26.1986 0)
(5.26819 -26.1783 1.24422e-20)
(4.73109 -26.2002 -3.02883e-20)
(4.23448 -26.2071 1.77752e-20)
(3.82706 -26.3324 -1.13254e-20)
(3.41881 -26.3536 5.42787e-21)
(3.04532 -26.3608 -2.47603e-22)
(2.71012 -26.3563 -5.11968e-21)
(2.3955 -26.3905 5.14458e-21)
(2.13345 -26.4055 2.61044e-21)
(1.85875 -26.4282 2.4315e-21)
(1.65464 -26.36 4.75233e-21)
(1.40445 -26.1136 -4.5768e-21)
(1.23084 -24.2959 2.21724e-21)
(0.712078 -18.9164 -1.10295e-21)
(0.247217 -9.90969 -4.41205e-21)
(8.3535 -26.2199 4.15519e-20)
(7.92146 -25.9729 8.54025e-21)
(6.9635 -25.997 -1.43043e-20)
(6.475 -26.0314 2.02857e-20)
(5.78376 -26.0078 0)
(5.28532 -25.9844 -5.73805e-21)
(4.79065 -26.0348 5.86706e-21)
(4.31895 -26.0759 0)
(3.91104 -26.2223 3.73165e-22)
(3.49745 -26.2501 0)
(3.11829 -26.2673 -1.01013e-20)
(2.77445 -26.2661 0)
(2.44971 -26.3024 0)
(2.17717 -26.3229 -9.12082e-21)
(1.89396 -26.3493 4.61654e-21)
(1.67465 -26.2996 -4.33088e-21)
(1.41499 -26.0611 0)
(1.23402 -24.2331 1.05766e-21)
(0.726028 -18.8402 -1.05962e-21)
(0.253883 -9.79979 0)
(8.51662 -25.947 1.64386e-20)
(8.06325 -25.757 -1.48391e-20)
(7.03708 -25.7905 3.09687e-20)
(6.52451 -25.8316 -3.20038e-20)
(5.84136 -25.8596 1.07584e-20)
(5.30999 -25.8689 5.75582e-21)
(4.76181 -25.9114 -1.00493e-20)
(4.26615 -25.9425 -9.82651e-21)
(3.85913 -26.0913 5.15746e-21)
(3.4466 -26.1274 9.55047e-21)
(3.07281 -26.1549 -4.69186e-21)
(2.73623 -26.1697 0)
(2.42014 -26.2215 0)
(2.15577 -26.2522 3.37392e-22)
(1.87831 -26.2901 -4.37975e-21)
(1.67958 -26.2326 4.32689e-21)
(1.42406 -26.0097 0)
(1.23497 -24.1476 -7.99294e-21)
(0.716181 -18.7022 -7.44375e-21)
(0.260954 -9.66841 -5.04387e-22)
(8.64342 -25.6481 -4.05915e-20)
(8.11487 -25.5187 4.51026e-20)
(7.07676 -25.5685 -1.24164e-20)
(6.54715 -25.6607 0)
(5.83966 -25.6707 -1.08039e-20)
(5.33147 -25.673 1.98152e-20)
(4.8223 -25.7439 -9.80264e-21)
(4.34929 -25.8111 9.85411e-21)
(3.94217 -25.9804 0)
(3.52464 -26.0242 0)
(3.14454 -26.0615 8.7158e-21)
(2.79935 -26.0796 -8.74715e-21)
(2.47263 -26.133 0)
(2.19725 -26.1693 1.26684e-20)
(1.91113 -26.212 -4.13579e-21)
(1.69411 -26.1745 -3.96784e-21)
(1.43214 -25.959 3.19385e-21)
(1.23608 -24.0926 9.92424e-21)
(0.727301 -18.6342 5.01045e-21)
(0.267656 -9.56044 9.67094e-22)
(8.7709 -25.4 0)
(8.24817 -25.2892 -2.38108e-20)
(7.16203 -25.3489 2.38798e-20)
(6.59125 -25.4526 0)
(5.89493 -25.5174 0)
(5.34911 -25.556 -1.80747e-20)
(4.79325 -25.6195 1.81282e-20)
(4.29905 -25.6778 0)
(3.89119 -25.8487 8.40707e-21)
(3.47451 -25.9016 -1.66982e-20)
(3.09919 -25.9494 8.29092e-21)
(2.7607 -25.9834 8.00349e-21)
(2.44216 -26.0517 -8.02777e-21)
(2.1745 -26.0985 0)
(1.89487 -26.1528 0)
(1.69853 -26.1082 -3.777e-21)
(1.4386 -25.9091 4.53956e-21)
(1.23622 -24.0169 -8.71196e-24)
(0.718247 -18.516 -2.78939e-21)
(0.273986 -9.43509 9.2745e-22)
(8.92891 -25.0511 2.32021e-20)
(8.2911 -25.0256 -2.47953e-20)
(7.20719 -25.1113 -2.78734e-20)
(6.6171 -25.2717 3.68858e-20)
(5.90513 -25.3265 -3.47024e-20)
(5.37732 -25.3584 4.05078e-22)
(4.85766 -25.4528 1.6472e-20)
(4.38175 -25.5472 0)
(3.97305 -25.7372 0)
(3.55179 -25.7986 7.31896e-21)
(3.16943 -25.8562 0)
(2.82222 -25.8933 0)
(2.49274 -25.9627 0)
(2.21381 -26.0153 0)
(1.92489 -26.0754 0)
(1.7094 -26.0514 0)
(1.44403 -25.8601 -2.85892e-21)
(1.23574 -23.9701 3.56526e-21)
(0.726268 -18.4563 -8.86007e-22)
(0.280957 -9.32999 8.86492e-22)
(9.06074 -24.7785 -2.42858e-20)
(8.41844 -24.7786 -3.19205e-20)
(7.29214 -24.8802 -7.77531e-21)
(6.65362 -25.052 -6.92991e-21)
(5.96136 -25.174 7.89798e-21)
(5.38882 -25.2381 2.19855e-20)
(4.82799 -25.3259 6.80184e-21)
(4.33363 -25.4124 0)
(3.92323 -25.6047 -7.35635e-21)
(3.50285 -25.6763 1.34431e-20)
(3.12472 -25.7442 6.69247e-21)
(2.78369 -25.7973 6.60364e-21)
(2.46183 -25.881 0)
(2.19013 -25.9442 6.56532e-21)
(1.90798 -26.0157 6.65403e-21)
(1.71083 -25.9868 0)
(1.44798 -25.8118 0)
(1.23485 -23.9054 0)
(0.717202 -18.358 0)
(0.286633 -9.21108 0)
(9.23689 -24.3756 8.56925e-20)