/*--------------------------------*- C++ -*----------------------------------*\
  =========                 |
  \\      /  F ield         | OpenFOAM: The Open Source CFD Toolbox
   \\    /   O peration     | Website:  https://openfoam.org
    \\  /    A nd           | Version:  9
     \\/     M anipulation  |
\*---------------------------------------------------------------------------*/
FoamFile
{
    format      ascii;
    class       volScalarField;
    location    "8.6";
    object      nut;
}
// * * * * * * * * * * * * * * * * * * * * * * * * * * * * * * * * * * * * * //

dimensions      [0 2 -1 0 0 0 0];

internalField   nonuniform List<scalar> 
46400
(
0.0206715
0.00822705
0.00241902
0.00156552
0.00157816
0.00151402
0.00145829
0.00141747
0.00133727
0.00130465
0.00125445
0.00122527
0.00118439
0.00114234
0.00109891
0.00109377
0.00106901
0.00097657
0.00127658
0.00109229
0.0202493
0.00730971
0.00189724
0.00157942
0.00155999
0.00151328
0.00145435
0.00143588
0.00137119
0.00132318
0.0012693
0.00123475
0.00119779
0.00115471
0.00110762
0.00107941
0.00103195
0.000928145
0.00114643
0.00103914
0.019778
0.00621322
0.00148952
0.00163461
0.00157387
0.00154325
0.0014637
0.00143081
0.00136033
0.00132133
0.0012678
0.00123008
0.00119672
0.00115592
0.00110393
0.00107826
0.00103775
0.000961574
0.00124325
0.00109985
0.0192617
0.00547472
0.00145155
0.00165069
0.00154742
0.0015289
0.00145444
0.0014318
0.0013717
0.001335
0.00128315
0.00124498
0.00120997
0.00117881
0.00113617
0.0010943
0.00105185
0.000947963
0.00123656
0.00113893
0.0186823
0.00462319
0.00143618
0.00165203
0.00156503
0.00155173
0.00147782
0.00144679
0.0013747
0.00133378
0.00128665
0.001241
0.00120778
0.00117645
0.00115191
0.00112889
0.00108472
0.000993758
0.00125592
0.00113605
0.0179832
0.00472387
0.00148031
0.00167619
0.00155122
0.00152485
0.00145175
0.0014366
0.00138133
0.00134058
0.0013031
0.00126279
0.00121912
0.00117446
0.00114749
0.00113183
0.00110583
0.00101719
0.0012818
0.00118705
0.0172406
0.00522041
0.00156775
0.00167382
0.00158786
0.00157777
0.00148927
0.00145298
0.00139443
0.0013351
0.00129472
0.00126034
0.0012332
0.00117796
0.00113046
0.00110566
0.00108111
0.00101306
0.00124929
0.00116693
0.0164554
0.00500307
0.00159591
0.00171251
0.00157184
0.00153719
0.00147701
0.00143856
0.00140062
0.00135045
0.00129391
0.00125689
0.00124343
0.001215
0.00115987
0.00111278
0.00107026
0.000993316
0.00119806
0.00115132
0.0154224
0.00426145
0.00166315
0.00172977
0.00160365
0.00155993
0.00147285
0.00143095
0.00138323
0.00133959
0.00128376
0.00121358
0.0011939
0.00119108
0.00118208
0.00113667
0.00109521
0.00101075
0.00116274
0.00110996
0.0139079
0.00350847
0.00160718
0.00169948
0.00161967
0.00156066
0.00149601
0.00142312
0.00139044
0.00134507
0.00132519
0.0012325
0.00116161
0.00111716
0.00111949
0.00110634
0.00107515
0.00102194
0.00114391
0.0010974
0.0118866
0.00292181
0.0017338
0.00166422
0.00158026
0.00151582
0.0014704
0.00139985
0.001361
0.00131268
0.00131948
0.00130462
0.00121972
0.0011233
0.00106756
0.00105357
0.00101602
0.000968707
0.00108164
0.0010309
0.00950542
0.00240001
0.00164138
0.00160656
0.00159878
0.00152351
0.0014753
0.00139618
0.0013434
0.00127438
0.00125202
0.0012732
0.00127711
0.00122543
0.00115035
0.00109561
0.00106118
0.000989687
0.0010892
0.00104207
0.00761832
0.00206233
0.00166349
0.00159237
0.00154824
0.00150074
0.0014917
0.00141517
0.00137325
0.00128091
0.00119252
0.00115825
0.00118468
0.00118994
0.00118311
0.00112926
0.00109655
0.00103798
0.00110099
0.00104303
0.00618865
0.00184901
0.00165385
0.00154657
0.00152024
0.00145375
0.00147998
0.0014328
0.00140529
0.00136277
0.0012624
0.00114983
0.00110612
0.00108332
0.00108636
0.00108627
0.00105539
0.0010225
0.00108086
0.00101714
0.005136
0.00171866
0.00164614
0.00155353
0.00151036
0.00134446
0.00136473
0.00137222
0.00136984
0.00139535
0.00140662
0.00131819
0.00122719
0.00115596
0.00109181
0.00106055
0.00101769
0.000969546
0.00102498
0.000975739
0.00457282
0.0017253
0.00172433
0.00163926
0.00165934
0.00145699
0.0013005
0.00123472
0.00118079
0.00114513
0.00119462
0.00122964
0.00121105
0.0011873
0.00115747
0.00112349
0.00108676
0.00102379
0.00108347
0.00102031
0.00424416
0.00161123
0.00159119
0.00146547
0.00163915
0.00167159
0.0015335
0.00143212
0.00135694
0.00122877
0.0011262
0.0011071
0.00109961
0.00107504
0.0010609
0.00105254
0.00102983
0.000972031
0.0010077
0.000969713
0.00400948
0.00166412
0.00153886
0.00138549
0.00127446
0.00139246
0.00141746
0.00140035
0.00139993
0.00138403
0.00130578
0.00121704
0.00116928
0.00112385
0.00107252
0.00104574
0.00102775
0.000971579
0.0010066
0.000965814
0.0039331
0.00161359
0.0015877
0.00162782
0.00141568
0.00135282
0.001356
0.00130387
0.00125214
0.00124493
0.00124761
0.00120088
0.00116573
0.00113
0.001098
0.00104482
0.00101705
0.000964247
0.000987204
0.000956976
0.00220457
0.00183683
0.0017557
0.00159877
0.00154512
0.00144091
0.00137121
0.00133549
0.00126311
0.00123263
0.00119031
0.00119703
0.001147
0.00112262
0.00109722
0.0010661
0.00102312
0.000955662
0.000972115
0.00091996
0.00125811
0.00945137
0.0137016
0.011502
0.00567588
0.00127671
0.000144766
0.000335734
0.000530101
0.000593097
0.000531055
0.000530595
0.000498305
0.000507362
0.000521762
0.000576163
0.000555651
0.000603301
0.000745023
0.000712668
0.00272193
0.0109872
0.0140647
0.00946088
0.003266
0.000197451
0.000212642
0.000492467
0.000581392
0.000535626
0.000523585
0.000507668
0.000509637
0.000562769
0.000543495
0.000591303
0.000599575
0.000651761
0.00072093
0.000679322
0.00289077
0.012487
0.0135375
0.00735733
0.00132315
0.000232864
0.000425064
0.000552332
0.000578381
0.000570014
0.000567328
0.000573008
0.00055959
0.000574025
0.000583182
0.000622509
0.000584236
0.000670909
0.000767527
0.000704997
0.00417117
0.0135479
0.012304
0.00496316
0.000335556
0.00024431
0.000583946
0.000671894
0.000634983
0.000627106
0.00060453
0.000573857
0.000577357
0.000611567
0.000594571
0.000647433
0.000651649
0.000745169
0.000766226
0.000693162
0.00718842
0.0142631
0.0112005
0.00243856
0.000322311
0.000560557
0.000707729
0.000706788
0.000673615
0.000656846
0.000646039
0.000641592
0.000635634
0.00066156
0.000668795
0.000691082
0.000649475
0.00075301
0.000776122
0.000707619
0.00992191
0.014521
0.00986677
0.00109152
0.000313651
0.000738703
0.00082603
0.000768109
0.000767808
0.000752436
0.000714253
0.000684062
0.000688078
0.00069293
0.000669956
0.000712366
0.000701316
0.000809675
0.00079087
0.000719717
0.0126326
0.0145867
0.0085137
0.000451546
0.000564262
0.000894225
0.000906784
0.000844816
0.000812504
0.000773108
0.0007529
0.000728674
0.0007202
0.000747616
0.000747984
0.000760641
0.000722394
0.000834706
0.000797417
0.000737298
0.015728
0.0143523
0.0062172
0.000336418
0.000780576
0.000994571
0.000954987
0.000889352
0.000879081
0.000861733
0.000815142
0.000792345
0.000791119
0.000777786
0.000756273
0.000779657
0.000745226
0.000855681
0.000804883
0.000754224
0.0172708
0.0142528
0.00430845
0.000208711
0.000973378
0.00108219
0.00100682
0.000974795
0.000938267
0.000886444
0.000860971
0.000819658
0.000808624
0.000823764
0.000811796
0.000818227
0.000781773
0.000895964
0.000815676
0.000776668
0.0186664
0.0137642
0.003068
0.000322368
0.0010972
0.00115093
0.00107606
0.000997139
0.000978545
0.000950986
0.000901723
0.00088403
0.000870885
0.000852656
0.000838826
0.0008368
0.00078474
0.000896027
0.000804665
0.00078267
0.01931
0.013519
0.00206009
0.000560832
0.00116239
0.00118886
0.0011304
0.00107672
0.00104482
0.000994437
0.000958777
0.000907772
0.000892785
0.000886103
0.00086362
0.000866085
0.00081764
0.000921848
0.000803666
0.000794379
0.0199673
0.0129742
0.00159391
0.000715007
0.00130957
0.00124398
0.00119899
0.00110044
0.00106855
0.00103299
0.000985679
0.000959842
0.000934047
0.000920812
0.000905685
0.00088398
0.000830022
0.000926437
0.000791362
0.000787747
0.020722
0.0126096
0.00126282
0.000966365
0.00131421
0.00126757
0.00123532
0.00116584
0.00113143
0.00108748
0.00104574
0.00099816
0.000972243
0.000949569
0.000929522
0.000924208
0.000871314
0.000963574
0.000823851
0.000845139
0.0209671
0.0121118
0.00178832
0.00104425
0.00143771
0.00132066
0.00129788
0.00119644
0.00115168
0.00111262
0.00106562
0.00102989
0.000997125
0.000984958
0.000964488
0.000941796
0.000900792
0.000962361
0.000786107
0.000852127
0.0214089
0.0116853
0.00196329
0.0012215
0.00142415
0.00134712
0.00131732
0.0012471
0.0012006
0.00116143
0.00111965
0.00107694
0.00103489
0.00100482
0.000981556
0.00095472
0.000906422
0.000962768
0.000760569
0.000847098
0.0214301
0.0112324
0.00284297
0.00125651
0.00150703
0.00139372
0.00137662
0.00128509
0.00123198
0.00118956
0.00113882
0.00110214
0.00106295
0.00104481
0.00102469
0.000999726
0.0009738
0.000988858
0.000758839
0.00087819
0.0216105
0.0109647
0.00275137
0.00136653
0.00149539
0.00140898
0.00138293
0.00131949
0.00125907
0.00122665
0.00118672
0.00114739
0.00110041
0.00106728
0.00104029
0.00100636
0.000990683
0.000998253
0.000711913
0.000875867
0.0214232
0.0105113
0.00247785
0.00137429
0.00153703
0.00144444
0.00142604
0.0013576
0.00130061
0.00125486
0.00120582
0.00117454
0.0011314
0.00111055
0.00108553
0.00106265
0.00106045
0.00105031
0.000748832
0.000907605
0.0213254
0.00989062
0.0025251
0.00148393
0.00154214
0.00146613
0.00143641
0.00138488
0.00131248
0.00128533
0.00124191
0.00121206
0.00117074
0.0011377
0.00110893
0.00108543
0.0011024
0.00109276
0.000770266
0.000924858
0.0209796
0.00918451
0.00249735
0.00148549
0.00156486
0.00148103
0.00145183
0.00141322
0.0013543
0.00130986
0.00126584
0.00123881
0.0012077
0.00118622
0.00116411
0.0011773
0.0012005
0.00117122
0.000999715
0.00109895
0.00506345
0.00391213
0.00304375
0.00248227
0.00235211
0.00185585
0.00167461
0.00141092
0.00124702
0.00103069
0.000865286
0.000759527
0.000634625
0.000561014
0.000493002
0.000735538
0.00197236
0.0064912
0.0109975
0.015736
0.00494944
0.00375448
0.0031427
0.00256668
0.00238494
0.00187838
0.00169525
0.00141773
0.00124498
0.0010325
0.000863827
0.000763296
0.000635037
0.0005634
0.000493599
0.000752994
0.00189724
0.00648941
0.010964
0.0157092
0.00510231
0.00384641
0.00311215
0.00248188
0.00234629
0.00183582
0.00166529
0.00140313
0.00123687
0.00102745
0.000857513
0.000758415
0.000627658
0.000557219
0.000481758
0.000714016
0.00195487
0.00651004
0.0109741
0.0158091
0.00513467
0.00378529
0.00318692
0.00256375
0.00237796
0.0018676
0.0016941
0.00141758
0.00123908
0.00103528
0.000860311
0.000765747
0.000631546
0.000563791
0.000484742
0.00073278
0.00182399
0.00646901
0.0109284
0.015886
0.00522938
0.00385354
0.00321186
0.00251717
0.0023546
0.00182109
0.00165857
0.00140081
0.00122764
0.00102895
0.000852523
0.000760047
0.000624667
0.000558078
0.000474924
0.000701884
0.00178965
0.0064516
0.0108156
0.0159153
0.0054036
0.00380588
0.00319026
0.00253501
0.00237328
0.00185636
0.00168813
0.00142201
0.00123401
0.00104197
0.000859497
0.000770087
0.000631705
0.000566405
0.000478201
0.000719403
0.00169517
0.00642023
0.0108009
0.0157339
0.00544576
0.00392253
0.00331972
0.00253806
0.00235998
0.0018153
0.00164772
0.0014037
0.0012196
0.00103475
0.00085054
0.00076335
0.000625111
0.000560197
0.000466804
0.000686717
0.00164385
0.00638568
0.0108082
0.015667
0.00567803
0.0038217
0.00322497
0.00252701
0.00236396
0.00185166
0.00167438
0.00142937
0.00122866
0.0010516
0.000860934
0.000775361
0.00063506
0.000570921
0.000471489
0.000698884
0.00155557
0.00634267
0.0107925
0.0156236
0.0057373
0.00401217
0.00337073
0.0025475
0.00235521
0.00181785
0.00163042
0.00140988
0.00121251
0.00104423
0.000852
0.000768311
0.000629103
0.000564115
0.000458646
0.00066484
0.00148068
0.0062891
0.0108023
0.0155957
0.00589878
0.00389954
0.00329281
0.00254638
0.00235523
0.00185892
0.00165381
0.0014367
0.00122364
0.00106377
0.000866492
0.000782412
0.000641882
0.000576783
0.000463971
0.000673339
0.00137767
0.00622392
0.0107992
0.0155721
0.00598156
0.00407363
0.00338653
0.0025623
0.00234061
0.00183213
0.00160993
0.0014153
0.00120717
0.00105598
0.000858748
0.000776586
0.000638062
0.000570608
0.000450792
0.000639013
0.00129117
0.00614916
0.0108059
0.0155629
0.0059502
0.00396107
0.00334859
0.00258891
0.00234811
0.0018784
0.00163336
0.00144015
0.00121981
0.00107605
0.000876175
0.00079227
0.000654297
0.000588192
0.000458186
0.000644108
0.00118152
0.00608706
0.010815
0.0155604
0.00610554
0.00398706
0.00335682
0.00257305
0.0023247
0.00185499
0.0015938
0.00141736
0.00120358
0.00106705
0.000869583
0.00078748
0.000651753
0.000585374
0.000450881
0.000612076
0.00108776
0.00602765
0.0108271
0.0155702
0.00613363
0.00394751
0.00332536
0.00255899
0.00233167
0.00190333
0.00161741
0.00144017
0.00121674
0.00108583
0.000888165
0.000804945
0.000669282
0.000606933
0.00046618
0.000615806
0.000976878
0.00595953
0.0108467
0.015582
0.00631648
0.00400096
0.00332515
0.00252329
0.00227709
0.00188407
0.00158474
0.00141866
0.00120193
0.00107632
0.000882935
0.00080238
0.000668697
0.000607738
0.000464394
0.000585669
0.000880382
0.00590673
0.0108822
0.0156075
0.00615787
0.00389884
0.00330027
0.0025522
0.00227215
0.0019263
0.0016089
0.0014399
0.00121457
0.00109261
0.00090086
0.000820677
0.000687255
0.000631773
0.00048807
0.000584006
0.000768595
0.00583964
0.0109027
0.0156426
0.0064767
0.00390545
0.00322346
0.00252299
0.00220973
0.00190455
0.00158369
0.00142146
0.00120059
0.00108175
0.000895553
0.000817764
0.000686948
0.000634402
0.000492976
0.000560566
0.000666231
0.00573256
0.0108951
0.0156918
0.00622726
0.00378869
0.00320356
0.00256601
0.00221301
0.00194245
0.00161289
0.00144794
0.00121543
0.00109877
0.000914749
0.000838749
0.000706517
0.000660789
0.000523785
0.000569807
0.000551398
0.00579354
0.0109033
0.0157336
0.00641901
0.00381369
0.00305374
0.00251527
0.00212529
0.00190423
0.00159147
0.00143482
0.00120504
0.00108515
0.000909275
0.000835039
0.000707065
0.00066176
0.000535641
0.000551952
0.000460528
0.00565357
0.0110462
0.0158531
0.0065982
0.00369896
0.00298229
0.00253373
0.00212467
0.00191821
0.00161237
0.00145388
0.0012164
0.00109201
0.000921454
0.000849651
0.000722383
0.000684083
0.000570215
0.000569854
0.000332764
0.00529245
0.0108103
0.0155849
0.0170013
0.0367765
0.0289807
0.028044
0.0231644
0.0208103
0.0174884
0.0159292
0.0133797
0.0117362
0.00982715
0.00894332
0.00755477
0.00714802
0.00582709
0.00604749
0.00163992
0.0525441
0.102601
0.143339
0.0319304
0.0241793
0.0218378
0.019636
0.0162194
0.0134382
0.0124995
0.0109333
0.00932262
0.00819928
0.00740999
0.00686118
0.00625237
0.00587276
0.00542968
0.0053936
0.0153341
0.0502554
0.100351
0.141861
0.0129376
0.0156896
0.0149551
0.0124248
0.0119576
0.0108255
0.00984308
0.00911059
0.00838095
0.00789385
0.00741634
0.00715128
0.00667433
0.00620187
0.00603742
0.00560155
0.00993514
0.0476201
0.0984725
0.140965
0.0117112
0.0103172
0.00993615
0.0100113
0.00895925
0.00843897
0.00792417
0.00752612
0.00712889
0.00674579
0.00619171
0.00569601
0.00533891
0.00497251
0.00462666
0.00388479
0.0119308
0.0425586
0.0980834
0.13744
0.00616497
0.00736323
0.00785415
0.00689988
0.00696589
0.00647754
0.00618774
0.00594872
0.00573613
0.00551465
0.0053027
0.00513894
0.00499178
0.00490976
0.00466648
0.00412456
0.00619765
0.0405768
0.0976999
0.136352
0.00538104
0.0054884
0.00518881
0.00498626
0.00482711
0.00516022
0.00513204
0.00507978
0.00496194
0.00496011
0.00475349
0.00467952
0.00448577
0.00435501
0.00414948
0.00328059
0.00875835
0.0335189
0.0977845
0.135628
0.00300168
0.00366676
0.00411324
0.00434823
0.0042852
0.00405887
0.00410796
0.00412259
0.0040728
0.004163
0.0041723
0.00425857
0.00419331
0.00413915
0.00402297
0.00359555
0.00402506
0.0297984
0.0977867
0.137422
0.00291861
0.00294684
0.00278955
0.00269199
0.0030133
0.00338139
0.00348313
0.00375031
0.0037208
0.00389664
0.00384662
0.00402839
0.00395276
0.00423718
0.00410873
0.00362137
0.00514724
0.0224262
0.0966003
0.141599
0.00184237
0.00209026
0.00241424
0.00278327
0.00281139
0.00286915
0.00289926
0.00312396
0.00331038
0.00346939
0.00360081
0.00383371
0.00392667
0.00413799
0.00417696
0.00425397
0.00375308
0.0176752
0.0939548
0.149523
0.0016331
0.00164823
0.00164601
0.00172797
0.00194431
0.00240183
0.00258404
0.00267939
0.00285803
0.0031506
0.00326323
0.00357542
0.0037383
0.00419744
0.00420813
0.00498771
0.00386586
0.0113465
0.0859063
0.16036
0.00119917
0.00145819
0.00164875
0.00198277
0.00206408
0.00198718
0.0021896
0.00251749
0.0025833
0.00284226
0.00300409
0.0032631
0.00354626
0.00400707
0.0041853
0.00478049
0.00459457
0.00695636
0.0634387
0.173686
0.00102944
0.00109916
0.00121388
0.00131623
0.00151171
0.00178491
0.00175891
0.00196703
0.00221432
0.00240931
0.00265283
0.00285949
0.00325258
0.00372982
0.00421272
0.00431285
0.0053823
0.00767201
0.0459576
0.196014
0.000959557
0.00109134
0.00120255
0.00141157
0.00144745
0.00158775
0.00170559
0.00178193
0.00184189
0.00203096
0.00210761
0.00236919
0.00250117
0.00283412
0.00328163
0.00381
0.00462231
0.00783853
0.0219385
0.143705
0.000836317
0.000883898
0.000938533
0.000990012
0.00105304
0.00122752
0.00131598
0.00144615
0.00145653
0.00167281
0.00173322
0.00201214
0.00205015
0.00231363
0.00252755
0.00291902
0.0028713
0.00462676
0.00984304
0.0957017
0.000833586
0.000882042
0.000890261
0.000992188
0.000849099
0.000948668
0.000945914
0.00097151
0.0010258
0.00110487
0.00117328
0.00131028
0.00136845
0.00155183
0.00167456
0.0022098
0.0024245
0.00287215
0.00393405
0.0500834
0.000540718
0.000524568
0.000505305
0.000537596
0.000543658
0.000639918
0.000688684
0.000746391
0.000768806
0.000881157
0.000864333
0.00100531
0.000943704
0.00117027
0.00109838
0.00127466
0.000760977
0.00121806
0.00129423
0.0297585
0.000308174
0.0003627
0.00038015
0.000378855
0.00037684
0.000374237
0.000415806
0.000459352
0.000492801
0.000523806
0.000529973
0.000561116
0.000617167
0.000655183
0.000556128
0.000786698
0.000657551
0.000904001
0.000874104
0.014114
0.000159444
0.000185061
0.000201621
0.000220668
0.000252959
0.000289101
0.000275002
0.000364163
0.000352725
0.000390573
0.000393813
0.000449873
0.000453458
0.000477009
0.000490261
0.000415786
0.000794276
0.000269148
0.00155648
0.0036018
0.000149487
0.000148169
0.000158692
0.000147857
0.00015789
0.00013571
0.000237293
0.000236078
0.000264142
0.000263968
0.000303591
0.000296399
0.000347961
0.000325712
0.000366429
0.000467023
0.000424954
0.00067412
0.000714396
0.00151412
0.000194086
0.000222344
0.000239904
0.000265062
0.000281149
0.000301734
0.000313622
0.000315741
0.000343909
0.00035464
0.000364979
0.000387758
0.000403252
0.000432802
0.000365413
0.000339176
0.000301191
0.000233085
0.000116328
5.38032e-05
0.0140395
0.0141228
0.0140248
0.014139
0.0140346
0.0137568
0.014246
0.0140454
0.0134998
0.0134818
0.0144386
0.0142278
0.0139008
0.00901114
0.0118163
0.0116384
0.0120115
0.0112654
0.0104857
0.0099706
0.00690653
0.00694145
0.00689159
0.00687789
0.00677955
0.0067441
0.0068549
0.00660016
0.00628058
0.00694326
0.0082973
0.00849994
0.00656231
0.00617468
0.00763722
0.00811352
0.00796744
0.00747377
0.00635011
0.00705527
0.00409233
0.00414586
0.00415103
0.0042777
0.00433877
0.00437565
0.00440087
0.00471389
0.00477247
0.00430685
0.00386579
0.0039927
0.00448163
0.00550096
0.00516245
0.00511296
0.00286692
0.0037053
0.00310441
0.00295991
0.00260663
0.00260337
0.00259479
0.0026154
0.0025768
0.0025865
0.00255765
0.00238059
0.00223913
0.00275596
0.00304945
0.00263355
0.00232
0.00258975
0.00276014
0.00294813
0.00274327
0.00366064
0.00291876
0.00259453
0.00159078
0.00159877
0.00160022
0.00162075
0.00164697
0.00164727
0.00162218
0.00179812
0.00189831
0.00173293
0.00171334
0.00211462
0.00212525
0.00197336
0.00179281
0.00180521
0.00157228
0.00144234
0.00129293
0.0013634
0.00109628
0.00110403
0.00110154
0.00112107
0.00111724
0.00112947
0.00112823
0.00117749
0.0011401
0.00120198
0.00114362
0.000969454
0.000921186
0.00111253
0.00113872
0.00143281
0.00151325
0.00163242
0.00146906
0.00131858
0.000649291
0.000655858
0.000664965
0.000673642
0.000677374
0.000695119
0.000709263
0.000740015
0.000752266
0.000794094
0.000910364
0.00109561
0.000957005
0.00074625
0.000739942
0.000734818
0.000695782
0.000686529
0.000561977
0.000456993
0.000481882
0.000488672
0.000499993
0.000507575
0.000517519
0.000534357
0.000547034
0.000542385
0.000530841
0.00052754
0.000527331
0.000443872
0.000379419
0.000442692
0.000448506
0.000649225
0.000758278
0.000772798
0.000570121
0.000640564
0.000266227
0.000272198
0.000279957
0.000287418
0.000300108
0.000317439
0.000329732
0.000328818
0.000330637
0.000329866
0.000333782
0.000413999
0.000452613
0.000265449
0.000248619
0.000270503
0.000235025
0.000210397
0.000332807
0.00032242
0.000170308
0.000168493
0.000166262
0.000164882
0.000164895
0.000158462
0.000158098
0.000180244
0.000176632
0.000152328
0.000170915
0.000108759
0.000173157
0.000242427
0.000331555
0.000417113
0.000401804
0.000382958
0.00035391
0.000366604
0.000107817
0.000113429
0.000120218
0.00012667
0.000135293
0.000131882
0.000113027
0.000117804
0.000155688
0.000177599
0.000180072
0.000200358
0.000212951
0.000201919
0.000167452
0.000180912
0.000206357
0.000225136
0.000251017
0.000227484
8.8322e-05
9.55951e-05
0.000103496
0.000113123
0.000119799
0.000139835
0.000178178
0.000196002
0.000178204
0.000171012
0.000173998
0.000170858
0.000172396
0.000176182
0.000189152
0.000193236
0.000184021
0.000186696
0.000171473
0.000213397
0.000112824
0.000115931
0.000119184
0.000122466
0.000125945
0.000123808
0.000118431
0.000129303
0.000143996
0.000155233
0.000162299
0.000170053
0.000174458
0.000179891
0.000182884
0.000192294
0.000193877
0.000202832
0.000198275
0.00021388
0.000159697
0.000164108
0.000165041
0.000167666
0.000169947
0.000173402
0.000174604
0.00017601
0.000176848
0.000178235
0.000178324
0.000179417
0.000179572
0.00018118
0.000179519
0.000183019
0.00018264
0.00018947
0.000189115
0.000200107
0.000134594
0.000144199
0.00015095
0.000153509
0.00015654
0.000159906
0.000163013
0.000164073
0.000164906
0.000167761
0.00017087
0.000174278
0.000177713
0.000182921
0.000179551
0.000176556
0.000176906
0.000180806
0.000182334
0.000197913
0.000120963
0.000116532
0.000115751
0.000117265
0.000118052
0.000115999
0.000114657
0.000120757
0.000123392
0.000126364
0.000126349
0.000126744
0.000119948
0.000122324
0.000131974
0.000136502
0.000127622
0.000127507
0.000121727
0.000129783
9.85405e-05
9.57383e-05
9.25885e-05
8.963e-05
8.54301e-05
8.05083e-05
7.66197e-05
8.01065e-05
8.54641e-05
8.5918e-05
8.59327e-05
8.44354e-05
8.35552e-05
7.99079e-05
7.84771e-05
8.19404e-05
7.95692e-05
8.22618e-05
7.94394e-05
8.0338e-05
3.63072e-05
3.5533e-05
3.45596e-05
3.44252e-05
3.53394e-05
3.49215e-05
3.2591e-05
3.03037e-05
2.90179e-05
2.83927e-05
2.83065e-05
2.78464e-05
2.86864e-05
2.90794e-05
2.76417e-05
2.78464e-05
3.03087e-05
3.30921e-05
3.70849e-05
4.16533e-05
1.19965e-05
1.32681e-05
1.46856e-05
2.04775e-05
2.63454e-05
2.708e-05
2.77734e-05
2.82867e-05
2.93921e-05
3.02818e-05
3.1253e-05
3.12685e-05
3.23043e-05
3.15377e-05
3.39225e-05
2.13618e-05
3.2875e-05
1.82655e-05
2.72301e-05
3.77445e-05
3.58556e-06
3.62361e-06
4.05258e-06
4.75481e-06
5.9164e-06
7.52798e-06
9.39347e-06
1.14708e-05
1.38914e-05
1.63163e-05
1.92044e-05
2.18638e-05
2.49835e-05
2.79204e-05
3.08936e-05
3.46928e-05
3.58148e-05
4.0051e-05
4.03923e-05
4.47329e-05
0.00104021
0.00131522
0.000991267
0.00103458
0.00108792
0.00108126
0.00113148
0.00116336
0.0011882
0.00123953
0.00127699
0.00131849
0.00137822
0.00141058
0.00148716
0.0014587
0.0015638
0.0013066
0.00491256
0.0197923
0.000992075
0.0011199
0.000863689
0.000969026
0.00104166
0.00106923
0.00110038
0.00114077
0.00120277
0.00123492
0.00128079
0.00133254
0.00138255
0.00142272
0.00150524
0.00149553
0.00162288
0.00131764
0.00439046
0.0192669
0.00100949
0.00121654
0.000933189
0.00098132
0.0010469
0.00107309
0.00112561
0.00116578
0.00119119
0.00123771
0.00127196
0.00131181
0.00137307
0.00140846
0.00148157
0.00146477
0.00162974
0.00135852
0.0043777
0.0186647
0.00105794
0.00119674
0.000899511
0.000972808
0.00104674
0.00106954
0.00109329
0.00113987
0.00118939
0.00123088
0.00127859
0.00133773
0.00138253
0.0014352
0.00150822
0.00151623
0.00166656
0.00142825
0.00515943
0.0180024
0.00105132
0.0012112
0.000936477
0.0010132
0.00106166
0.00107885
0.00113606
0.00117401
0.00120564
0.00125195
0.00129098
0.00133354
0.00139026
0.00143836
0.00150229
0.00152102
0.00167752
0.00150771
0.00524842
0.0174126
0.00110617
0.00122878
0.000963605
0.00103145
0.00106331
0.00110158
0.00112426
0.00116
0.00119384
0.00123277
0.00126305
0.00130838
0.00135655
0.00141467
0.00147651
0.0015169
0.00169167
0.00154265
0.00465771
0.016435
0.00108059
0.00120443
0.000951295
0.000996465
0.00104738
0.00107937
0.00110821
0.00114792
0.0011766
0.00122195
0.00125104
0.00132131
0.00137657
0.00142998
0.00148619
0.00154359
0.00163742
0.00152204
0.00368072
0.0147084
0.00112261
0.00119619
0.000933125
0.00102436
0.00107643
0.00108961
0.00111243
0.00114283
0.00116895
0.00120942
0.00124995
0.00132366
0.0013612
0.00141934
0.00146272
0.00154017
0.00160248
0.00157132
0.00288475
0.0119068
0.00105531
0.00109351
0.00093236
0.0010237
0.00104346
0.00106305
0.00108827
0.00111634
0.00115844
0.00121517
0.00127293
0.00134312
0.00134978
0.00140473
0.00145683
0.0014997
0.00154198
0.00158407
0.00233154
0.00961103
0.00103514
0.00111981
0.000974116
0.00101722
0.00104834
0.00107308
0.00110273
0.00116529
0.00122737
0.00127599
0.00131443
0.00132772
0.0013386
0.0014184
0.00144642
0.00151504
0.00151163
0.0015645
0.00202304
0.00782592
0.00106143
0.00110735
0.00094701
0.00100657
0.00104194
0.00107491
0.00112872
0.00117521
0.00117782
0.00118754
0.0011873
0.00120809
0.00126307
0.00137557
0.00138149
0.00142332
0.00148808
0.00158455
0.00180036
0.00641366
0.00100576
0.0010387
0.000938451
0.00101598
0.00105345
0.00109457
0.00111334
0.0011176
0.00112487
0.00116587
0.00120761
0.00129618
0.00139061
0.00143807
0.00138763
0.0014897
0.00155557
0.00163109
0.00171792
0.00545896
0.00103709
0.00107181
0.000983026
0.00102726
0.00104166
0.00104968
0.00105331
0.00107843
0.00112738
0.00118846
0.00124586
0.00131324
0.00130963
0.00130948
0.00132341
0.00151623
0.00155692
0.00159567
0.00162792
0.00470373
0.000963915
0.00098025
0.000923572
0.000954577
0.000990608
0.00101667
0.00106223
0.00112795
0.00118672
0.00124133
0.00127963
0.001313
0.00131793
0.00139194
0.00151512
0.0016292
0.0015015
0.00153996
0.00158427
0.00428849
0.000977999
0.00102617
0.000958686
0.00101316
0.00105176
0.00108833
0.00113653
0.00118077
0.00120717
0.00123554
0.0012489
0.00126843
0.00132731
0.00139035
0.00144423
0.00141817
0.00137822
0.00162562
0.00165539
0.00409606
0.000941402
0.000990568
0.000933341
0.000988488
0.00102472
0.00105711
0.0010931
0.00112627
0.00115221
0.0011862
0.00121455
0.00126877
0.00130945
0.00135784
0.00138689
0.00140574
0.00157737
0.00168894
0.00163376
0.00386271
0.000938725
0.00102929
0.000966048
0.00103496
0.00106258
0.00109142
0.00110896
0.00113867
0.00116044
0.00120726
0.00124297
0.00131313
0.00131526
0.0013734
0.00136347
0.00142951
0.00146385
0.00141452
0.00160268
0.00428919
0.000919601
0.000994082
0.000932638
0.00100914
0.00101363
0.00105231
0.00105918
0.00110483
0.00112962
0.00117923
0.00121614
0.00125402
0.00129589
0.0013454
0.00136616
0.00143901
0.00150674
0.00176377
0.00203371
0.00259225
0.000958664
0.000983514
0.000960585
0.00102025
0.00105164
0.00110394
0.00114369
0.00120884
0.00123113
0.00130289
0.00131891
0.00138059
0.00142368
0.00148803
0.0015413
0.00157125
0.00156727
0.00148354
0.00142387
0.00142011
0.000934947
0.000989615
0.000959545
0.00100795
0.00104591
0.00104627
0.00109719
0.00111978
0.00116906
0.0012103
0.00127682
0.00134483
0.00138986
0.0014323
0.00153183
0.0016323
0.00162484
0.00160682
0.0016322
0.00114343
0.000867788
0.000985922
0.00102956
0.00097116
0.000908261
0.00085697
0.000865629
0.0008747
0.000898021
0.00087611
0.000916507
0.000974601
0.00100995
0.00105396
0.000901652
0.000525541
0.00146418
0.00998374
0.0133486
0.0118403
0.000869759
0.00098292
0.00103749
0.000984503
0.000974305
0.00090771
0.000883655
0.000879796
0.000899267
0.000943446
0.000942293
0.000987359
0.00103728
0.00108672
0.00100487
0.000426209
0.000537096
0.00902503
0.0136542
0.0137975
0.000858205
0.000970896
0.00106392
0.00100641
0.000970144
0.000920131
0.000922349
0.000931151
0.000912728
0.000892902
0.000977683
0.00103694
0.00104705
0.00112889
0.00109656
0.000708617
0.000273047
0.00787211
0.0138419
0.0155894
0.000871477
0.000963088
0.00105531
0.00102376
0.00100003
0.000930661
0.000906554
0.000912689
0.000961059
0.000984469
0.000964504
0.00102643
0.00109407
0.00113686
0.00115424
0.000914022
0.000478455
0.00578499
0.0137595
0.016777
0.000884248
0.000988147
0.00109266
0.00103723
0.00102261
0.000965072
0.000951246
0.000948842
0.000936138
0.000955708
0.00102823
0.00108202
0.00110338
0.0011454
0.00121044
0.00106231
0.000186772
0.00434862
0.0136557
0.0178181
0.000879866
0.000963549
0.00109686
0.00104887
0.00101471
0.000955432
0.000943433
0.000962612
0.000992088
0.000991135
0.00100647
0.00107729
0.00113625
0.00119478
0.00123325
0.00114701
0.000316342
0.00289098
0.0135016
0.0186158
0.000888392
0.000980714
0.00112213
0.00106028
0.00104158
0.000983117
0.000957214
0.000955807
0.00097967
0.00102028
0.0010495
0.00111304
0.00114457
0.00117728
0.0012466
0.00121695
0.000428518
0.0020448
0.0131895
0.0192425
0.000872318
0.000970149
0.00114045
0.001063
0.00102456
0.00097127
0.000970894
0.000992414
0.000994439
0.000998574
0.00105924
0.0011186
0.00116463
0.00124715
0.00126897
0.00128686
0.000699995
0.00134825
0.0129664
0.0200005
0.000892728
0.000970457
0.00114311
0.00107798
0.00104132
0.000984897
0.000964479
0.000980863
0.00103024
0.0010623
0.00106865
0.00114419
0.00118523
0.00122566
0.00127077
0.00131385
0.00085039
0.000990203
0.0125514
0.0204849
0.000869574
0.00095171
0.00116961
0.00107113
0.00102087
0.000981871
0.000986202
0.00100481
0.0010002
0.00103044
0.00110632
0.00115502
0.00119522
0.00127596
0.00129269
0.00137697
0.00101575
0.00089234
0.0122583
0.0210016
0.000871595
0.000941744
0.00116028
0.00107162
0.00101804
0.000975757
0.000978823
0.00101644
0.00106397
0.00107896
0.00109921
0.00117283
0.0012191
0.00128017
0.00130252
0.00139441
0.00113539
0.00141885
0.0118045
0.0212766
0.000877478
0.000932112
0.0011594
0.00104852
0.00100436
0.000997779
0.00101099
0.0010238
0.00103472
0.00108892
0.00115261
0.00119539
0.00123923
0.00129582
0.00131901