/*--------------------------------*- C++ -*----------------------------------*\
  =========                 |
  \\      /  F ield         | OpenFOAM: The Open Source CFD Toolbox
   \\    /   O peration     | Website:  https://openfoam.org
    \\  /    A nd           | Version:  9
     \\/     M anipulation  |
\*---------------------------------------------------------------------------*/
FoamFile
{
    format      ascii;
    class       surfaceScalarField;
    location    "8.6";
    object      phi;
}
// * * * * * * * * * * * * * * * * * * * * * * * * * * * * * * * * * * * * * //

dimensions      [0 3 -1 0 0 0 0];

internalField   nonuniform List<scalar> 
92080
(
-0.00134387
-0.490879
0.492223
-0.0252235
-1.00247
1.02634
-0.0671201
-1.11533
1.15723
-0.110957
-1.09795
1.14179
-0.153921
-1.07926
1.12223
-0.196247
-1.06272
1.10505
-0.237144
-1.04682
1.08772
-0.277334
-1.03011
1.0703
-0.316903
-1.01517
1.05474
-0.356296
-1.0011
1.0405
-0.395505
-0.988426
1.02764
-0.434428
-0.976451
1.01537
-0.472733
-0.965117
1.00342
-0.510834
-0.954419
0.992519
-0.548255
-0.945258
0.98268
-0.584456
-0.936278
0.972479
-0.61997
-0.92638
0.961893
-0.655137
-0.916364
0.951532
-0.688874
-0.906615
0.940352
-0.89929
0.930535
-0.720119
-0.0036739
-0.487206
-0.030863
-0.975276
-0.0753768
-1.07082
-0.119984
-1.05335
-0.164019
-1.03523
-0.207922
-1.01882
-0.251121
-1.00362
-0.293555
-0.987674
-0.335604
-0.973126
-0.377041
-0.959667
-0.418101
-0.947366
-0.458854
-0.935697
-0.499462
-0.924509
-0.539877
-0.914004
-0.580099
-0.905037
-0.619185
-0.897191
-0.656748
-0.888817
-0.693198
-0.879915
-0.728218
-0.871595
-0.865468
-0.762039
-0.0056688
-0.481537
-0.0353182
-0.945626
-0.0816051
-1.02453
-0.128972
-1.00598
-0.175324
-0.988876
-0.221004
-0.973139
-0.265484
-0.959139
-0.309118
-0.94404
-0.352263
-0.929981
-0.395047
-0.916883
-0.437162
-0.905251
-0.478583
-0.894276
-0.519535
-0.883557
-0.560399
-0.873139
-0.601089
-0.864347
-0.641482
-0.856798
-0.681169
-0.849131
-0.719909
-0.841175
-0.758634
-0.83287
-0.826158
-0.797944
-0.00768823
-0.473848
-0.0406004
-0.912714
-0.0892377
-0.975896
-0.137137
-0.95808
-0.184468
-0.941545
-0.231979
-0.925629
-0.278578
-0.91254
-0.323805
-0.898812
-0.368313
-0.885473
-0.412797
-0.872399
-0.457159
-0.860889
-0.501029
-0.850407
-0.544305
-0.840281
-0.587637
-0.829807
-0.631065
-0.82092
-0.673567
-0.814296
-0.715206
-0.807491
-0.755844
-0.800537
-0.795222
-0.793492
-0.786048
-0.835332
-0.0101219
-0.463727
-0.0475146
-0.875322
-0.0965468
-0.926863
-0.14592
-0.908707
-0.194135
-0.893329
-0.242132
-0.877633
-0.290372
-0.8643
-0.33778
-0.851404
-0.383654
-0.8396
-0.428674
-0.827378
-0.473567
-0.815996
-0.517928
-0.806045
-0.561379
-0.79683
-0.604503
-0.786683
-0.649072
-0.776351
-0.694239
-0.769129
-0.738545
-0.763185
-0.782349
-0.756733
-0.824768
-0.751073
-0.74431
-0.866507
-0.00931978
-0.454407
-0.0513354
-0.833306
-0.102152
-0.876047
-0.152635
-0.858224
-0.20243
-0.843535
-0.251469
-0.828593
-0.299803
-0.815966
-0.348567
-0.80264
-0.396603
-0.791564
-0.443654
-0.780327
-0.490651
-0.768998
-0.537728
-0.758969
-0.583753
-0.750806
-0.627633
-0.742802
-0.671269
-0.732715
-0.716578
-0.72382
-0.762215
-0.717548
-0.807709
-0.711239
-0.852484
-0.706297
-0.700452
-0.896341
-0.00865538
-0.445751
-0.0533759
-0.788586
-0.106342
-0.823081
-0.158647
-0.805919
-0.210026
-0.792155
-0.261332
-0.777288
-0.311664
-0.765634
-0.36098
-0.753324
-0.410277
-0.742267
-0.457648
-0.732956
-0.50431
-0.722336
-0.551488
-0.711791
-0.59947
-0.702824
-0.645918
-0.696354
-0.690151
-0.688482
-0.734601
-0.67937
-0.779901
-0.672248
-0.825854
-0.665286
-0.872108
-0.660044
-0.655129
-0.917431
-0.00630073
-0.439451
-0.0516273
-0.743259
-0.106634
-0.768074
-0.161327
-0.751226
-0.214149
-0.739333
-0.265927
-0.72551
-0.317698
-0.713862
-0.368752
-0.70227
-0.419831
-0.691188
-0.47037
-0.682418
-0.518438
-0.674268
-0.565781
-0.664448
-0.614233
-0.654372
-0.663268
-0.647318
-0.709974
-0.641776
-0.755113
-0.634231
-0.799766
-0.627595
-0.84433
-0.620722
-0.88973
-0.614644
-0.609627
-0.935232
-0.00509108
-0.43436
-0.054671
-0.693679
-0.113946
-0.708799
-0.170513
-0.69466
-0.225835
-0.684011
-0.27907
-0.672275
-0.330756
-0.662177
-0.381605
-0.651421
-0.432241
-0.640552
-0.483181
-0.631478
-0.532889
-0.62456
-0.579763
-0.617574
-0.626678
-0.607457
-0.675807
-0.598189
-0.72542
-0.592163
-0.7734
-0.586251
-0.82072
-0.580275
-0.866681
-0.574761
-0.912318
-0.569008
-0.56402
-0.957924
-0.00335652
-0.431003
-0.0545095
-0.642526
-0.113076
-0.650232
-0.170734
-0.637002
-0.227737
-0.627008
-0.283882
-0.61613
-0.338492
-0.607567
-0.39101
-0.598903
-0.442889
-0.588673
-0.494879
-0.579488
-0.547454
-0.571985
-0.596878
-0.56815
-0.642513
-0.561823
-0.68772
-0.552982
-0.734902
-0.544981
-0.782265
-0.538888
-0.829329
-0.533211
-0.876307
-0.527782
-0.922487
-0.522828
-0.517941
-0.968566
-0.00891706
-0.422086
-0.0644636
-0.58698
-0.126538
-0.588158
-0.18433
-0.57921
-0.240308
-0.57103
-0.295139
-0.561299
-0.349585
-0.553121
-0.402257
-0.546231
-0.453558
-0.537373
-0.504478
-0.528568
-0.557514
-0.518949
-0.611931
-0.513732
-0.663078
-0.510676
-0.710552
-0.505507
-0.756491
-0.499041
-0.803261
-0.492119
-0.849422
-0.48705
-0.895528
-0.481677
-0.941649
-0.476707
-0.472381
-0.987209
-0.0161286
-0.405957
-0.0715918
-0.531516
-0.130484
-0.529266
-0.188926
-0.520767
-0.246876
-0.51308
-0.303382
-0.504792
-0.359069
-0.497435
-0.413041
-0.492259
-0.465199
-0.485214
-0.514998
-0.478769
-0.564342
-0.469605
-0.616813
-0.461262
-0.670687
-0.456802
-0.723189
-0.453005
-0.772876
-0.449354
-0.821012
-0.443984
-0.869294
-0.438767
-0.91636
-0.434611
-0.963622
-0.429445
-0.424877
-1.01113
-0.0253644
-0.380593
-0.0819438
-0.474937
-0.141015
-0.470195
-0.198279
-0.463504
-0.254569
-0.456791
-0.310968
-0.448393
-0.367797
-0.440606
-0.423528
-0.436527
-0.478007
-0.430736
-0.530342
-0.426433
-0.579203
-0.420745
-0.628022
-0.412442
-0.678892
-0.405933
-0.731124
-0.400773
-0.783647
-0.396831
-0.834265
-0.393366
-0.884366
-0.388667
-0.933881
-0.385096
-0.981929
-0.381397
-0.376861
-1.02995
-0.0327285
-0.347865
-0.0900056
-0.41766
-0.149693
-0.410507
-0.207643
-0.405554
-0.263836
-0.400598
-0.318616
-0.393612
-0.375218
-0.384004
-0.431752
-0.379993
-0.487815
-0.374672
-0.543505
-0.370743
-0.595689
-0.368561
-0.644153
-0.363978
-0.691953
-0.358133
-0.739999
-0.352726
-0.789135
-0.347695
-0.838941
-0.34356
-0.88815
-0.339457
-0.938007
-0.33524
-0.98682
-0.332584
-0.328881
-1.0348
-0.0392454
-0.308619
-0.0972751
-0.35963
-0.155803
-0.351979
-0.214112
-0.347245
-0.270709
-0.344
-0.322907
-0.341415
-0.37594
-0.330971
-0.431066
-0.324867
-0.486415
-0.319324
-0.544162
-0.312996
-0.60302
-0.309703
-0.659297
-0.307701
-0.712544
-0.304886
-0.763967
-0.301303
-0.813647
-0.298016
-0.862791
-0.294416
-0.911024
-0.291224
-0.95897
-0.287294
-1.00721
-0.284341
-0.281574
-1.05452
-0.0443551
-0.264264
-0.105113
-0.298872
-0.167455
-0.289637
-0.229546
-0.285154
-0.292283
-0.281264
-0.349252
-0.284445
-0.399913
-0.280311
-0.450157
-0.274622
-0.498731
-0.270751
-0.546807
-0.26492
-0.597715
-0.258794
-0.651123
-0.254293
-0.704323
-0.251686
-0.757348
-0.248278
-0.809877
-0.245487
-0.86169
-0.242603
-0.912705
-0.240209
-0.962896
-0.237103
-1.01297
-0.234268
-0.231692
-1.06285
-0.04675
-0.217514
-0.106282
-0.23934
-0.162451
-0.233468
-0.21801
-0.229594
-0.28033
-0.218944
-0.345447
-0.219328
-0.406116
-0.219643
-0.463963
-0.216775
-0.520008
-0.214705
-0.57213
-0.212797
-0.621015
-0.20991
-0.670125
-0.205182
-0.719795
-0.202016
-0.769175
-0.198898
-0.818693
-0.195969
-0.868441
-0.192855
-0.917859
-0.190791
-0.966715
-0.188247
-1.01501
-0.185972
-0.183655
-1.06305
-0.0637143
-0.1538
-0.123875
-0.179179
-0.181182
-0.176161
-0.233626
-0.17715
-0.281997
-0.170574
-0.336724
-0.164601
-0.393235
-0.163131
-0.44995
-0.160061
-0.507465
-0.15719
-0.565397
-0.154866
-0.621089
-0.154218
-0.674241
-0.15203
-0.726395
-0.149862
-0.777745
-0.147548
-0.827777
-0.145937
-0.877475
-0.143157
-0.927128
-0.141139
-0.976253
-0.139121
-1.02503
-0.137191
-0.135161
-1.07353
-0.0629544
-0.0908454
-0.120589
-0.121544
-0.179472
-0.117278
-0.241623
-0.114999
-0.296609
-0.115588
-0.350368
-0.110842
-0.405161
-0.108338
-0.458782
-0.106439
-0.511494
-0.104478
-0.56453
-0.101829
-0.618761
-0.0999874
-0.671726
-0.0990652
-0.724296
-0.0972917
-0.776023
-0.095821
-0.827421
-0.0945393
-0.877155
-0.0934228
-0.926529
-0.0917649
-0.97551
-0.0901397
-1.02383
-0.088874
-0.0868338
-1.07215
-0.0466854
-0.04416
-0.114732
-0.0534979
-0.178111
-0.0538996
-0.238974
-0.0541355
-0.298328
-0.0562341
-0.355182
-0.0539883
-0.410476
-0.053044
-0.465569
-0.0513465
-0.518668
-0.051379
-0.571693
-0.0488045
-0.623599
-0.0480815
-0.676803
-0.0458613
-0.728615
-0.0454796
-0.780426
-0.0440099
-0.831848
-0.043117
-0.882764
-0.0425074
-0.932595
-0.0419338
-0.981562
-0.0411729
-1.02968
-0.0407536
-1.07666
-0.0398567
0.0444527
0.0528912
-0.0973439
0.139067
-0.134513
0.0398991
0.340379
-0.595506
0.394193
0.50646
-1.05411
0.888024
0.596711
-1.29229
1.20204
0.63095
-1.37034
1.3361
0.6423
-1.38576
1.37441
0.647084
-1.38463
1.37984
0.647039
-1.37723
1.37728
0.646743
-1.36882
1.36912
0.646402
-1.36181
1.36215
0.646287
-1.35561
1.35572
0.645965
-1.35026
1.35058
0.645429
-1.34448
1.34502
0.644147
-1.33925
1.34053
0.642195
-1.33235
1.3343
0.639406
-1.32661
1.3294
0.635933
-1.31858
1.32205
0.630653
-1.31152
1.3168
-1.29787
0.625158
1.30337
0.0511051
0.00178608
0.164926
-0.248334
0.351763
-0.782343
0.478951
-1.18129
0.533762
-1.3471
0.552069
-1.38865
0.558136
-1.39183
0.55969
-1.38618
0.559364
-1.37691
0.559673
-1.36913
0.559764
-1.3619
0.559342
-1.35519
0.558305
-1.34922
0.556604
-1.34278
0.553797
-1.33644
0.55055
-1.3291
0.54673
-1.32279
0.542495
-1.31435
0.53708
-1.3061
-1.29253
0.531731
0.0467922
-0.0450062
0.180592
-0.382134
0.333363
-0.935114
0.422219
-1.27015
0.456361
-1.38124
0.467246
-1.39953
0.472172
-1.39675
0.472882
-1.38689
0.473566
-1.37759
0.473428
-1.36899
0.472287
-1.36076
0.470627
-1.35352
0.468188
-1.34678
0.465187
-1.33978
0.461828
-1.33308
0.457907
-1.32518
0.453348
-1.31823
0.448181
-1.30918
0.441768
-1.29969
-1.28607
0.435316
0.047067
-0.0920732
0.180509
-0.515576
0.301845
-1.05645
0.365821
-1.33412
0.387092
-1.40251
0.394572
-1.40701
0.396484
-1.39866
0.396566
-1.38697
0.396033
-1.37706
0.394772
-1.36773
0.392995
-1.35899
0.390608
-1.35114
0.387783
-1.34396
0.384233
-1.33623
0.379499
-1.32835
0.374284
-1.31996
0.368332
-1.31228
0.361624
-1.30247
0.354121
-1.29218
-1.27901
0.34706
0.0456856
-0.137759
0.164389
-0.634279
0.261936
-1.154
0.30474
-1.37693
0.317035
-1.41481
0.321545
-1.41152
0.321373
-1.39849
0.3211
-1.3867
0.320054
-1.37601
0.317925
-1.3656
0.314882
-1.35594
0.311175
-1.34743
0.30634
-1.33912
0.300781
-1.33067
0.294762
-1.32233
0.288145
-1.31335
0.281035
-1.30517
0.273645
-1.29508
0.2656
-1.28414
-1.27093
0.257521
0.0468342
-0.184593
0.150809
-0.738254
0.226032
-1.22922
0.253561
-1.40446
0.260524
-1.42177
0.261392
-1.41239
0.260013
-1.39711
0.257857
-1.38454
0.254345
-1.3725
0.250063
-1.36132
0.244989
-1.35087
0.239161
-1.3416
0.233018
-1.33298
0.226167
-1.32382
0.218588
-1.31475
0.210735
-1.30549
0.202321
-1.29675
0.193336
-1.2861
0.183854
-1.27466
-1.26169
0.174607
0.0511618
-0.235755
0.134942
-0.822035
0.190496
-1.28477
0.205402
-1.41936
0.206769
-1.42314
0.203344
-1.40897
0.199321
-1.39309
0.194487
-1.37971
0.18928
-1.36729
0.183266
-1.35531
0.176755
-1.34436
0.169683
-1.33453
0.161605
-1.3249
0.153029
-1.31525
0.143822
-1.30554
0.133891
-1.29556
0.123581
-1.28644
0.113177
-1.27569
0.102484
-1.26397
-1.25099
0.0917902
0.0515681
-0.287323
0.119698
-0.890164
0.158347
-1.32342
0.163582
-1.4246
0.160698
-1.42026
0.154677
-1.40295
0.148474
-1.38689
0.141549
-1.37278
0.133531
-1.35928
0.124947
-1.34672
0.115493
-1.3349
0.105481
-1.32452
0.0952406
-1.31466
0.0843376
-1.30434
0.0732677
-1.29447
0.0621692
-1.28446
0.0506794
-1.27495
0.0390144
-1.26403
0.0271096
-1.25206
-1.23905
0.0151632
0.0419958
-0.329319
0.0962618
-0.94443
0.123532
-1.35069
0.123248
-1.42431
0.116224
-1.41323
0.107741
-1.39446
0.0985091
-1.37765
0.0885296
-1.3628
0.0782553
-1.349
0.0673726
-1.33584
0.0563323
-1.32386
0.044668
-1.31285
0.0324152
-1.30241
0.0199781
-1.29191
0.00683714
-1.28133
-0.00683409
-1.27079
-0.0205991
-1.26119
-0.0343048
-1.25032
-0.0479798
-1.23839
-1.22534
-0.0616839
0.0366464
-0.365965
0.0847364
-0.99252
0.0979837
-1.36394
0.0908943
-1.41722
0.0797089
-1.40205
0.068218
-1.38297
0.0560978
-1.36553
0.0435336
-1.35024
0.0304025
-1.33587
0.0169271
-1.32237
0.00270314
-1.30964
-0.01166
-1.29849
-0.0263841
-1.28768
-0.0415377
-1.27675
-0.0564567
-1.26641
-0.0714725
-1.25578
-0.0868063
-1.24585
-0.101841
-1.23529
-0.116805
-1.22342
-1.21035
-0.1318
0.0268378
-0.392803
0.0602209
-1.0259
0.0678756
-1.3716
0.0574929
-1.40684
0.0440295
-1.38858
0.0299717
-1.36891
0.0150433
-1.35061
-0.000431975
-1.33476
-0.0163387
-1.31996
-0.0326539
-1.30605
-0.0490419
-1.29325
-0.0660839
-1.28145
-0.0830759
-1.27069
-0.100207
-1.25962
-0.117764
-1.24886
-0.135329
-1.23821
-0.15283
-1.22835
-0.170185
-1.21793
-0.18712
-1.20649
-1.19351
-0.20396
0.0276117
-0.420415
0.0548785
-1.05317
0.0509164
-1.36763
0.0348296
-1.39076
0.0165361
-1.37029
-0.00146288
-1.35092
-0.0198059
-1.33226
-0.0385092
-1.31606
-0.0572008
-1.30127
-0.0761073
-1.28714
-0.0954092
-1.27395
-0.114688
-1.26217
-0.134459
-1.25092
-0.154218
-1.23986
-0.173809
-1.22927
-0.193698
-1.21832
-0.213746
-1.2083
-0.233228
-1.19845
-0.252614
-1.1871
-1.17394
-0.272179
0.0196582
-0.440073
0.0364229
-1.06993
0.0270355
-1.35825
0.00733813
-1.37106
-0.0128121
-1.35014
-0.0333155
-1.33041
-0.0543179
-1.31126
-0.0756376
-1.29474
-0.0974376
-1.27947
-0.119334
-1.26525
-0.141425
-1.25186
-0.164028
-1.23957
-0.186234
-1.22872
-0.208742
-1.21735
-0.231215
-1.20679
-0.253362
-1.19618
-0.275881
-1.18578
-0.2983
-1.17603
-0.320042
-1.16536
-1.15207
-0.34192
0.0176512
-0.457724
0.0287555
-1.08104
0.0129448
-1.34244
-0.0104477
-1.34767
-0.0347703
-1.32582
-0.0588013
-1.30638
-0.0830852
-1.28698
-0.107724
-1.2701
-0.132103
-1.25509
-0.156616
-1.24073
-0.180995
-1.22748
-0.205511
-1.21505
-0.230431
-1.2038
-0.254882
-1.1929
-0.279624
-1.18205
-0.304371
-1.17143
-0.328788
-1.16137
-0.353013
-1.15181
-0.376568
-1.1418
-1.12892
-0.39971
0.0125772
-0.470301
0.0163655
-1.08483
-0.00533184
-1.32074
-0.0324195
-1.32058
-0.0590324
-1.2992
-0.0857727
-1.27964
-0.112508
-1.26024
-0.1395
-1.24311
-0.166897
-1.2277
-0.194311
-1.21332
-0.221942
-1.19985
-0.24956
-1.18743
-0.276983
-1.17637
-0.304467
-1.16542
-0.331248
-1.15527
-0.357985
-1.14469
-0.38486
-1.13449
-0.411085
-1.12558
-0.436056
-1.11683
-1.10415
-0.460834
0.0104545
-0.480756
0.00946733
-1.08384
-0.0157695
-1.2955
-0.0461695
-1.29018
-0.0766268
-1.26875
-0.106502
-1.24977
-0.13654
-1.2302
-0.166761
-1.21289
-0.196664
-1.19779
-0.226559
-1.18343
-0.256221
-1.17019
-0.28623
-1.15742
-0.316304
-1.1463
-0.346226
-1.1355
-0.376472
-1.12503
-0.40612
-1.11504
-0.435927
-1.10468
-0.466067
-1.09544
-0.494938
-1.08796
-1.07635
-0.522728
0.00623305
-0.486989
-0.000659992
-1.07695
-0.0308804
-1.26528
-0.0642676
-1.25679
-0.0970696
-1.23594
-0.129581
-1.21725
-0.16154
-1.19824
-0.193876
-1.18055
-0.22647
-1.1652
-0.259017
-1.15088
-0.291532
-1.13767
-0.323778
-1.12518
-0.356227
-1.11385
-0.388283
-1.10344
-0.420117
-1.09319
-0.452134
-1.08303
-0.483563
-1.07325
-0.515072
-1.06393
-0.546125
-1.05691
-1.047
-0.575481
0.00417593
-0.491165
-0.00773188
-1.06504
-0.0409574
-1.23205
-0.0769363
-1.22081
-0.112453
-1.20043
-0.147389
-1.18232
-0.182196
-1.16344
-0.216954
-1.1458
-0.251745
-1.13041
-0.286528
-1.11609
-0.321338
-1.10286
-0.35635
-1.09017
-0.391357
-1.07884
-0.426508
-1.06829
-0.461298
-1.0584
-0.49621
-1.04812
-0.531532
-1.03793
-0.567013
-1.02845
-0.6031
-1.02082
-1.01258
-0.637521
0.000947529
-0.492112
-0.0161081
-1.04798
-0.0517967
-1.19637
-0.0904334
-1.18217
-0.128657
-1.1622
-0.16637
-1.14461
-0.203105
-1.1267
-0.239963
-1.10894
-0.276776
-1.0936
-0.313505
-1.07937
-0.349931
-1.06644
-0.386409
-1.05369
-0.423311
-1.04194
-0.46017
-1.03143
-0.497018
-1.02155
-0.533547
-1.01159
-0.570262
-1.00122
-0.607457
-0.991259
-0.646323
-0.981955
-0.974384
-0.684516
0.000111176
-0.0215282
-0.0606645
-0.101049
-0.141026
-0.180584
-0.219571
-0.25821
-0.297062
-0.335932
-0.374731
-0.413047
-0.451567
-0.490478
-0.529351
-0.56846
-0.607783
-0.64751
-0.689112
-0.732962
0.507441
-11.3503
11.468
0.413139
-10.8949
10.9892
0.337437
-10.7174
10.7931
0.276416
-10.5211
10.5821
0.224483
-10.3233
10.3752
0.183345
-10.1306
10.1717
0.147747
-9.98268
10.0183
0.118102
-9.8459
9.87554
0.0933218
-9.71886
9.74364
0.0728132
-9.6137
9.63421
0.0564044
-9.53407
9.55048
0.0426127
-9.45884
9.47263
0.0318177
-9.3983
9.4091
0.0230418
-9.34014
9.34891
0.0165499
-9.29514
9.30163
0.0113907
-9.2311
9.23625
0.00893065
-8.99603
8.99849
0.00498997
-8.01555
8.01949
-0.00173088
-5.68941
5.69613
-2.4172
2.41547
0.424401
-11.243
0.338942
-10.8094
0.265568
-10.644
0.206295
-10.4618
0.157557
-10.2745
0.119734
-10.0928
0.0880374
-9.95099
0.0626101
-9.82047
0.0424118
-9.69866
0.0264128
-9.5977
0.014689
-9.52235
0.00546878
-9.44962
-0.0006526
-9.39218
-0.00481027
-9.33598
-0.00642567
-9.29352
-0.00710095
-9.23042
-0.00439206
-8.99874
-0.00216391
-8.01778
-0.00402164
-5.68755
-2.42122
0.326726
-11.1344
0.239913
-10.7226
0.170102
-10.5742
0.116865
-10.4086
0.0747451
-10.2324
0.0436246
-10.0617
0.0183716
-9.92573
-0.00107802
-9.80102
-0.0155211
-9.68422
-0.0259543
-9.58727
-0.0321768
-9.51612
-0.0358585
-9.44594
-0.0364367
-9.3916
-0.0350951
-9.33732
-0.0313469
-9.29727
-0.0259375
-9.23583
-0.0168605
-9.00781
-0.00819735
-8.02644
-0.00475922
-5.69099
-2.42598
0.244033
-11.0314
0.164377
-10.643
0.0987882
-10.5086
0.0482065
-10.358
0.00892634
-10.1931
-0.0187634
-10.034
-0.0402352
-9.90426
-0.0557102
-9.78554
-0.0657217
-9.67421
-0.0718122
-9.58118
-0.0735099
-9.51443
-0.0727104
-9.44674
-0.0687625
-9.39555
-0.0628914
-9.34319
-0.0543113
-9.30585
-0.0444612
-9.24568
-0.0300361
-9.02224
-0.0150871
-8.04139
-0.00549957
-5.70058
-2.43148
0.15416
-10.928
0.0729971
-10.5618
0.00679357
-10.4424
-0.0393195
-10.3119
-0.0724705
-10.16
-0.0941561
-10.0123
-0.109261
-9.88916
-0.118888
-9.77592
-0.123195
-9.6699
-0.123783
-9.58059
-0.120029
-9.51818
-0.113754
-9.45302
-0.104299
-9.40501
-0.0930462
-9.35444
-0.0791524
-9.31974
-0.063672
-9.26116
-0.0429049
-9.04301
-0.0215396
-8.06276
-0.00486016
-5.71726
-2.43634
0.069953
-10.8234
-0.00475069
-10.4871
-0.0637586
-10.3834
-0.106706
-10.2689
-0.136525
-10.1301
-0.155176
-9.99363
-0.166577
-9.87776
-0.172376
-9.77012
-0.172431
-9.66984
-0.168843
-9.58418
-0.16072
-9.5263
-0.150082
-9.46365
-0.136229
-9.41886
-0.12054
-9.37013
-0.101844
-9.33844
-0.0819082
-9.2811
-0.0557701
-9.06914
-0.0279486
-8.09058
-0.00481505
-5.74039
-2.44116
-0.0123486
-10.7192
-0.090062
-10.4094
-0.150944
-10.3225
-0.191633
-10.2282
-0.216357
-10.1054
-0.22912
-9.98087
-0.234439
-9.87244
-0.234524
-9.77003
-0.228979
-9.67539
-0.220009
-9.59315
-0.206546
-9.53977
-0.190544
-9.47966
-0.171321
-9.43808
-0.150378
-9.39108
-0.126418
-9.3624
-0.100883
-9.30663
-0.0684109
-9.10162
-0.0341786
-8.12481
-0.00533277
-5.76924
-2.44649
-0.0940383
-10.61
-0.167582
-10.3358
-0.220203
-10.2699
-0.257016
-10.1914
-0.278787
-10.0837
-0.28862
-9.97104
-0.290271
-9.87079
-0.286658
-9.77365
-0.277019
-9.68503
-0.264036
-9.60613
-0.246383
-9.55742
-0.226156
-9.49988
-0.202685
-9.46155
-0.177421
-9.41634
-0.148751
-9.39107
-0.11877
-9.33661
-0.080972
-9.13941
-0.040585
-8.1652
-0.00618547
-5.80364
-2.45268
-0.169694
-10.502
-0.24887
-10.2567
-0.304856
-10.2139
-0.33911
-10.1572
-0.35614
-10.0666
-0.360572
-9.9666
-0.356456
-9.8749
-0.347289
-9.78281
-0.332218
-9.7001
-0.314021
-9.62433
-0.291201
-9.58024
-0.265777
-9.52531
-0.237094
-9.49024
-0.206702
-9.44673
-0.172884
-9.42489
-0.137496
-9.372
-0.0935504
-9.18336
-0.0469118
-8.21184
-0.00708636
-5.84346
-2.45976
-0.246707
-10.3871
-0.320359
-10.183
-0.370099
-10.1642
-0.401908
-10.1254
-0.416558
-10.052
-0.418359
-9.9648
-0.41065
-9.88261
-0.397845
-9.79562
-0.378834
-9.71911
-0.356777
-9.64639
-0.329968
-9.60705
-0.300471
-9.5548
-0.267686
-9.52302
-0.23315
-9.48127
-0.194814
-9.46322
-0.155218
-9.4116
-0.106142
-9.23244
-0.053367
-8.26461
-0.00820231
-5.88863
-2.46796
-0.320171
-10.2709
-0.400384
-10.1028
-0.452041
-10.1125
-0.48067
-10.0967
-0.490764
-10.0419
-0.487743
-9.96782
-0.47469
-9.89566
-0.456499
-9.81381
-0.432266
-9.74334
-0.405173
-9.67348
-0.373415
-9.63881
-0.338944
-9.58927
-0.301187
-9.56078
-0.261748
-9.52071
-0.218458
-9.50651
-0.173703
-9.45635
-0.11888
-9.28726
-0.0600885
-8.3234
-0.0094915
-5.93922
-2.47746
-0.388376
-10.1547
-0.464147
-10.027
-0.512155
-10.0645
-0.540305
-10.0686
-0.548778
-10.0334
-0.543481
-9.97312
-0.527038
-9.91211
-0.505257
-9.83559
-0.477231
-9.77137
-0.446402
-9.70431
-0.410846
-9.67436
-0.372481
-9.62764
-0.330818
-9.60244
-0.287506
-9.56402
-0.239982
-9.55404
-0.191237
-9.5051
-0.1317
-9.3468
-0.0669988
-8.38811
-0.0109117
-5.99531
-2.48837
-0.464854
-10.0318
-0.543754
-9.94813
-0.590428
-10.0178
-0.614975
-10.044
-0.619154
-10.0292
-0.609668
-9.98261
-0.588442
-9.93333
-0.561531
-9.8625
-0.528513
-9.80438
-0.49284
-9.73998
-0.452579
-9.71463
-0.409501
-9.67072
-0.363126
-9.64882
-0.315213
-9.61193
-0.263054
-9.6062
-0.209434
-9.55872
-0.144534
-9.4117
-0.0739689
-8.45867
-0.0123826
-6.0569
-2.50075
-0.529957
-9.90151
-0.605747
-9.87234
-0.648478
-9.9751
-0.67174
-10.0208
-0.674472
-10.0265
-0.662987
-9.99409
-0.638651
-9.95767
-0.608294
-9.89286
-0.571627
-9.84105
-0.532331
-9.77928
-0.488445
-9.75851
-0.441707
-9.71746
-0.391597
-9.69892
-0.34007
-9.66346
-0.284057
-9.66221
-0.22668
-9.61609
-0.15724
-9.48114
-0.0809687
-8.53494
-0.0139218
-6.12394
-2.51467
-0.598615
-9.76373
-0.681931
-9.78902
-0.723721
-9.93331
-0.742549
-10.002
-0.740523
-10.0285
-0.725428
-10.0092
-0.696945
-9.98615
-0.661833
-9.92797
-0.620445
-9.88244
-0.576522
-9.8232
-0.528182
-9.80685
-0.477031
-9.76861
-0.42246
-9.7535
-0.366657
-9.71926
-0.306384
-9.72248
-0.244435
-9.67804
-0.169916
-9.55566
-0.0880543
-8.6168
-0.0155054
-6.19649
-2.53018
-0.658924
-9.62753
-0.736132
-9.71181
-0.777771
-9.89167
-0.796611
-9.98312
-0.793057
-10.0321
-0.775906
-10.0263
-0.744686
-10.0174
-0.706394
-9.96626
-0.661514
-9.92732
-0.614076
-9.87064
-0.562247
-9.85868
-0.507654
-9.8232
-0.449513
-9.81164
-0.390346
-9.77843
-0.326655
-9.78618
-0.261246
-9.74345
-0.182277
-9.63462
-0.095225
-8.70386
-0.0173498
-6.27437
-2.54753
-0.726226
-9.47679
-0.8084
-9.62964
-0.846657
-9.85341
-0.861718
-9.96806
-0.854125
-10.0397
-0.833863
-10.0466
-0.799246
-10.052
-0.756778
-10.0087
-0.707518
-9.97658
-0.655693
-9.92246
-0.599666
-9.91471
-0.54093
-9.88194
-0.478599
-9.87397
-0.415471
-9.84156
-0.347942
-9.85371
-0.278362
-9.81303
-0.194465
-9.71852
-0.102318
-8.796
-0.0191493
-6.35754
-2.56668
-0.784423
-9.32989
-0.86045
-9.55361
-0.898311
-9.81555
-0.913208
-9.95316
-0.903862
-10.049
-0.881184
-10.0693
-0.844085
-10.0891
-0.798824
-10.054
-0.746271
-10.0291
-0.691078
-9.97766
-0.631713
-9.97407
-0.569767
-9.94388
-0.504039
-9.9397
-0.437769
-9.90783
-0.367231
-9.92424
-0.294546
-9.88571
-0.206041
-9.80703
-0.108996
-8.89305
-0.0209557
-6.44558
-2.58763
-0.845704
-9.1687
-0.930188
-9.46913
-0.964374
-9.78137
-0.975631
-9.9419
-0.962065
-10.0626
-0.935923
-10.0954
-0.895417
-10.1296
-0.846399
-10.103
-0.789735
-10.0858
-0.730374
-10.037
-0.666936
-10.0375
-0.601114
-10.0097
-0.531403
-10.0094
-0.461461
-9.97777
-0.387422
-9.99828
-0.31103
-9.96211
-0.217075
-9.90098
-0.115919
-8.9942
-0.023068
-6.53843
-2.6107
-0.889005
-9.01266
-0.973967
-9.38416
-1.00737
-9.74797
-1.01891
-9.93036
-1.00528
-10.0762
-0.977642
-10.1231
-0.936303
-10.1709
-0.885123
-10.1542
-0.825904
-10.145
-0.763088
-10.0998
-0.696665
-10.1039
-0.627705
-10.0787
-0.554969
-10.0821
-0.481889
-10.0508
-0.405537
-10.0746
-0.326394
-10.0412
-0.228461
-9.99892
-0.122346
-9.10032
-0.0246403
-6.63613
-2.63534
8.29708
-8.251
-9.05874
7.37954
-8.46663
6.48793
-8.85635
5.63349
-9.07592
4.86531
-9.30803
4.1779
-9.43564
3.55964
-9.55267
3.01336
-9.60791
2.53073
-9.66239
2.12628
-9.69539
1.76991
-9.74757
1.46292
-9.77167
1.18393
-9.80316
0.945288
-9.8122
0.721389
-9.85074
0.531527
-9.85139
0.354365
-9.82175
0.228186
-8.97414
0.123283
-6.53123
-2.51206
4.90727
-7.94274
-5.21553
4.58015
-8.13951
4.21187
-8.48807
3.81138
-8.67543
3.40463
-8.90128
3.01513
-9.04614
2.64476
-9.1823
2.31177
-9.27491
2.01469
-9.36531
1.75572
-9.43641
1.50866
-9.50051
1.2802
-9.54321
1.06076
-9.58373
0.865027
-9.61647
0.668625
-9.65433
0.493982
-9.67674
0.276261
-9.60403
0.131889
-8.82977
-0.0412723
-6.35807
-2.55333
3.58574
-7.91696
-3.61153
3.54471
-8.09848
3.38874
-8.3321
3.20795
-8.49464
2.97784
-8.67116
2.73297
-8.80127
2.47733
-8.92666
2.22515
-9.02274
1.97629
-9.11645
1.73238
-9.19251
1.48905
-9.25718
1.25271
-9.30687
1.02821
-9.35923
0.820586
-9.40884
0.613739
-9.44749
0.417613
-9.48062
0.248296
-9.43472
0.140621
-8.72209
0.0452507
-6.2627
-2.50808
2.37848
-7.98834
-2.3071
2.38918
-8.10917
2.32253
-8.26546
2.23163
-8.40374
2.1042
-8.54373
1.95715
-8.65422
1.79129
-8.76081
1.6189
-8.85035
1.44054
-8.93809
1.26335
-9.01531
1.09127
-9.0851
0.931376
-9.14698
0.779006
-9.20686
0.630208
-9.26004
0.484203
-9.30148
0.345893
-9.34231
0.210368
-9.29919
0.124962
-8.63669
0.0787337
-6.21647
-2.42935
1.79158
-8.04737
-1.73255
1.82099
-8.13859
1.82553
-8.26999
1.78979
-8.36801
1.7118
-8.46573
1.61356
-8.55599
1.49905
-8.6463
1.37528
-8.72657
1.24245
-8.80526
1.10375
-8.87661
0.960805
-8.94216
0.81666
-9.00283
0.667854
-9.05805
0.515777
-9.10796
0.371306
-9.15701
0.232476
-9.20348
0.111783
-9.1785
0.0587824
-8.58369
0.0576132
-6.2153
-2.37173
1.30818
-8.10164
-1.2539
1.34622
-8.17663
1.33024
-8.25402
1.2988
-8.33657
1.24589
-8.41282
1.17496
-8.48506
1.09
-8.56135
0.995427
-8.63199
0.891201
-8.70103
0.778195
-8.7636
0.662283
-8.82625
0.543383
-8.88393
0.426381
-8.94105
0.313512
-8.99509
0.202958
-9.04646
0.0928747
-9.09339
-0.0123205
-9.0733
-0.0358755
-8.56013
0.0403998
-6.29158
-2.33133
1.01006
-8.13816
-0.973545
1.0221
-8.18867
1.0205
-8.25241
0.99476
-8.31083
0.956941
-8.375
0.908242
-8.43636
0.843873
-8.49698
0.769673
-8.55779
0.684859
-8.61622
0.590535
-8.66928
0.489864
-8.72558
0.383015
-8.77708
0.273596
-8.83163
0.160565
-8.88206
0.0484629
-8.93435
-0.0630887
-8.98184
-0.153633
-8.98276
-0.160878
-8.55289
-0.0113344
-6.44112
-2.34267
0.791199
-8.16061
-0.768752
0.80374
-8.20121
0.797919
-8.24659
0.776432
-8.28934
0.736737
-8.33531
0.683241
-8.38286
0.619406
-8.43314
0.541777
-8.48016
0.457794
-8.53224
0.366917
-8.5784
0.272223
-8.63088
0.171637
-8.6765
0.0701503
-8.73014
-0.0356434
-8.77627
-0.139159
-8.83084
-0.241989
-8.87901
-0.332652
-8.89209
-0.331183
-8.55436
-0.106451
-6.66585
-2.44912
0.609671
-8.1629
-0.607381
0.601728
-8.19327
0.58211
-8.22697
0.552877
-8.26011
0.515597
-8.29803
0.468061
-8.33533
0.414542
-8.37963
0.348431
-8.41405
0.270712
-8.45452
0.186832
-8.49452
0.0933352
-8.53739
-0.00631291
-8.57685
-0.113873
-8.62258
-0.227734
-8.66241
-0.346578
-8.71199
-0.469631
-8.75596
-0.570056
-8.79167
-0.580507
-8.5439
-0.271815
-6.97455
-2.72093
0.499291
-8.15769
-0.504498
0.486299
-8.18028
0.465608
-8.20628
0.433625
-8.22812
0.39591
-8.26031
0.347067
-8.28648
0.283259
-8.31582
0.214032
-8.34483
0.13641
-8.37689
0.0505074
-8.40862
-0.0446669
-8.44221
-0.148309
-8.47321
-0.262889
-8.508
-0.384986
-8.54031
-0.511697
-8.58528
-0.659706
-8.60795
-0.798501
-8.65288
-0.839321
-8.50308
-0.50972
-7.30415
-3.23065
0.38812
-8.14103
-0.40478
0.362741
-8.1549
0.330068
-8.17361
0.294713
-8.19277
0.251271
-8.21687
0.20029
-8.2355
0.141407
-8.25693
0.0741048
-8.27752
0.000760811
-8.30355
-0.0833734
-8.32448
-0.176445
-8.34914
-0.278207
-8.37145
-0.39393
-8.39228
-0.521807
-8.41243
-0.667252
-8.43984
-0.823164
-8.45204
-0.995266
-8.48077
-1.0755
-8.42285
-0.809562
-7.57009
-4.04021
0.309083
-8.12414
-0.325974
0.287192
-8.133
0.259094
-8.14551
0.224443
-8.15812
0.178763
-8.17119
0.129601
-8.18634
0.078021
-8.20535
0.0168942
-8.2164
-0.054755
-8.2319
-0.134151
-8.24509
-0.223377
-8.25991
-0.322255
-8.27257
-0.435665
-8.27887
-0.567686
-8.28041
-0.714556
-8.29297
-0.868294
-8.2983
-1.05723
-8.29184
-1.20287
-8.2772
-1.01184
-7.76112
-5.05205
0.22901
-8.10015
-0.252996
0.200818
-8.10481
0.168793
-8.11349
0.13172
-8.12104
0.0931377
-8.13261
0.0458719
-8.13908
-0.00879602
-8.15069
-0.0663142
-8.15888
-0.128341
-8.16987
-0.196431
-8.177
-0.27032
-8.18602
-0.353371
-8.18952
-0.442445
-8.1898
-0.543159
-8.1797
-0.657063
-8.17906
-0.788477
-8.16689
-0.935907
-8.14441
-1.0788
-8.13432
-0.944791
-7.89512
-5.99684
0.162093
-8.08061
-0.181642
0.140592
-8.08331
0.115595
-8.08849
0.0875357
-8.09298
0.0529467
-8.09802
0.013285
-8.09941
-0.0300761
-8.10732
-0.077822
-8.11113
-0.129199
-8.1185
-0.186939
-8.11926
-0.249926
-8.12304
-0.31949
-8.11995
-0.391943
-8.11734
-0.467753
-8.10389
-0.552211
-8.09461
-0.642384
-8.07671
-0.733777
-8.05302
-0.831813
-8.03628
-0.77594
-7.951
-6.77278
0.0731958
-8.05788
-0.0959176
0.0486067
-8.05872
0.0226501
-8.06253
-0.00645208
-8.06388
-0.0360344
-8.06844
-0.0647913
-8.07066
-0.0960408
-8.07608
-0.128586
-8.07859
-0.165273
-8.08181
-0.20382
-8.08071
-0.245888
-8.08097
-0.290021
-8.07582
-0.334402
-8.07296
-0.378206
-8.06009
-0.424401
-8.04841
-0.469429
-8.03169
-0.513192
-8.00926
-0.55526
-7.99421
-0.53528
-7.97098
-7.30806
0.0243347
-8.04319
-0.0390324
0.00995444
-8.04434
-0.00562269
-8.04696
-0.0226308
-8.04687
-0.0420008
-8.04907
-0.0630175
-8.04964
-0.0881152
-8.05098
-0.113564
-8.05314
-0.141791
-8.05358
-0.171172
-8.05133
-0.201061
-8.05108
-0.231799
-8.04508
-0.259743
-8.04502
-0.285466
-8.03436
-0.305199
-8.02868
-0.321865
-8.01502
-0.322308
-8.00881
-0.322632
-7.99389
-0.302483
-7.99113
-7.61054
-0.0223008
-8.03327
0.0123797
-0.033136
-8.03351
-0.0452946
-8.0348
-0.0572334
-8.03493
-0.0698636
-8.03644
-0.0829307
-8.03657
-0.0978016
-8.03611
-0.1139
-8.03704
-0.13113
-8.03635
-0.148162
-8.03429
-0.164719
-8.03452
-0.179667
-8.03013
-0.195373
-8.02931
-0.207032
-8.0227
-0.213264
-8.02245
-0.215268
-8.01301
-0.211072
-8.01301
-0.220841
-7.98412
-0.222904
-7.98906
-7.83345
-0.0325842
-8.02758
0.0269023
-0.0389143