/*--------------------------------*- C++ -*----------------------------------*\
  =========                 |
  \\      /  F ield         | OpenFOAM: The Open Source CFD Toolbox
   \\    /   O peration     | Website:  https://openfoam.org
    \\  /    A nd           | Version:  9
     \\/     M anipulation  |
\*---------------------------------------------------------------------------*/
FoamFile
{
    format      ascii;
    class       volScalarField;
    location    "7.1";
    object      p;
}
// * * * * * * * * * * * * * * * * * * * * * * * * * * * * * * * * * * * * * //

dimensions      [0 2 -2 0 0 0 0];

internalField   nonuniform List<scalar> 
46400
(
40.4071
47.8746
59.3715
69.7471
78.7563
87.2768
94.8282
101.838
108.177
114.01
119.385
124.337
128.949
133.245
137.31
141.198
144.849
148.735
152.724
153.714
72.9282
78.8778
89.1445
98.6371
106.795
114.482
121.256
127.496
133.107
138.218
142.864
147.13
151.007
154.584
157.88
160.926
163.69
166.503
169.04
169.226
103.545
108.466
118.098
127.056
134.521
141.445
147.464
152.937
157.814
162.203
166.164
169.741
172.987
175.918
178.581
180.998
183.135
185.29
186.982
186.262
132.763
138.338
147.235
155.295
161.872
167.917
173.106
177.741
181.843
185.468
188.692
191.561
194.104
196.36
198.381
200.15
201.677
203.202
204.44
203.448
162.776
168.829
176.545
183.45
189.033
194.053
198.348
202.109
205.411
208.287
210.808
213.009
214.926
216.579
218.003
219.233
220.218
221.203
221.94
220.574
192.912
199.317
205.28
211.001
215.461
219.479
222.878
225.763
228.266
230.379
232.194
233.723
235.023
236.082
236.972
237.661
238.18
238.703
239.12
237.591
221.941
228.519
232.767
237.114
240.612
243.559
246.105
248.158
249.897
251.292
252.441
253.337
254.047
254.554
254.907
255.117
255.146
255.186
255.136
253.388
250.053
255.152
258.678
261.729
264.382
266.476
268.268
269.618
270.699
271.464
272.014
272.342
272.516
272.52
272.404
272.171
271.803
271.452
271.191
269.303
275.241
279.057
281.879
284.077
285.898
287.263
288.343
289.061
289.543
289.738
289.741
289.541
289.216
288.746
288.185
287.526
286.755
286.003
285.303
283.299
298.704
301.781
303.921
305.339
306.52
307.152
307.618
307.713
307.641
307.298
306.788
306.083
305.262
304.316
303.305
302.212
301.049
299.92
298.846
296.646
319.094
321.46
323.074
323.962
324.604
324.756
324.693
324.288
323.722
322.948
322.073
321.018
319.863
318.571
317.201
315.74
314.196
312.677
311.2
308.81
338.368
340.162
341.281
341.654
341.786
341.413
340.83
339.889
338.77
337.448
336.027
334.493
332.891
331.216
329.493
327.713
325.874
324.049
322.254
319.691
354.56
355.781
356.615
356.61
356.462
355.747
354.892
353.712
352.379
350.803
349.082
347.221
345.269
343.241
341.167
339.054
336.897
334.762
332.667
329.925
370.184
370.864
371.162
370.682
370.004
368.853
367.456
365.816
364.033
362.086
360.038
357.865
355.637
353.316
350.979
348.588
346.187
343.798
341.497
338.599
383.377
383.257
383.067
382.186
381.147
379.784
378.205
376.384
374.406
372.269
370.029
367.678
365.261
362.769
360.237
357.664
355.06
352.479
350.002
346.948
394.354
394.257
393.594
392.452
390.971
389.218
387.257
385.088
382.796
380.358
377.854
375.253
372.625
369.935
367.239
364.512
361.773
359.055
356.445
353.36
401.598
401.711
400.839
399.772
398.236
396.511
394.494
392.311
389.945
387.441
384.825
382.111
379.333
376.501
373.651
370.776
367.895
365.031
362.332
359.048
409.279
408.757
407.733
406.206
404.397
402.274
399.968
397.486
394.898
392.192
389.436
386.596
383.741
380.837
377.939
375.031
372.124
369.258
366.578
363.371
411.434
411.329
410.524
409.325
407.799
405.861
403.72
401.26
398.693
395.925
393.106
390.167
387.219
384.198
381.202
378.171
375.166
372.179
369.376
366.134
414.606
413.886
412.935
411.304
409.52
407.382
405.083
402.588
399.971
397.23
394.418
391.529
388.607
385.643
382.67
379.682
376.689
373.707
370.893
367.61
-324.162
-322.522
-316.736
-305.642
-291.687
-277.964
-264.916
-252.323
-240.468
-228.993
-218.05
-207.509
-197.421
-187.652
-178.368
-169.305
-160.74
-152.362
-144.441
-136.901
-324.21
-322.06
-313.191
-301.013
-286.435
-272.095
-258.866
-246.065
-233.881
-222.351
-211.214
-200.584
-190.415
-180.578
-171.261
-162.147
-153.615
-145.208
-137.383
-129.833
-321.735
-320.348
-308.483
-295.401
-280.653
-266.023
-252.336
-239.325
-226.889
-215.036
-203.764
-192.969
-182.68
-172.783
-163.415
-154.312
-145.803
-137.435
-129.722
-122.223
-318.815
-317.822
-305.969
-290.065
-274.602
-259.449
-245.129
-231.762
-219.045
-207.019
-195.546
-184.647
-174.257
-164.325
-154.923
-145.807
-137.32
-128.967
-121.349
-113.859
-315.484
-313.736
-300.924
-283.561
-266.921
-251.384
-236.679
-222.975
-210.031
-197.836
-186.261
-175.287
-164.883
-154.938
-145.561
-136.49
-128.098
-119.812
-112.318
-104.861
-308.877
-306.444
-292.287
-274.524
-257.538
-241.634
-226.787
-212.891
-199.829
-187.526
-175.9
-164.891
-154.451
-144.559
-135.198
-126.213
-117.901
-109.636
-102.338
-94.9284
-299.816
-296.601
-281.739
-263.425
-246.368
-230.272
-215.29
-201.35
-188.201
-175.937
-164.318
-153.368
-143.033
-133.228
-123.989
-115.133
-106.928
-98.8411
-91.7621
-84.4142
-289.625
-285.422
-269.434
-250.795
-233.411
-217.252
-202.199
-188.245
-175.157
-162.882
-151.375
-140.512
-130.269
-120.591
-111.469
-102.79
-94.7347
-86.8369
-79.9441
-72.7139
-275.411
-270.63
-254.007
-235.37
-218.201
-202.201
-187.261
-173.49
-160.538
-148.488
-137.147
-126.486
-116.459
-107.003
-98.0909
-89.6276
-81.7694
-74.0918
-67.4344
-60.3117
-259.717
-254.104
-237.043
-218.492
-201.353
-185.609
-170.815
-157.215
-144.476
-132.608
-121.514
-111.087
-101.307
-92.0979
-83.4416
-75.2631
-67.6631
-60.2617
-53.891
-46.9387
-240.752
-234.648
-217.239
-199.071
-182.213
-166.844
-152.399
-139.158
-126.782
-115.258
-104.507
-94.4007
-84.9382
-76.0561
-67.6979
-59.8305
-52.4938
-45.4091
-39.3288
-32.5883
-219.786
-213.157
-195.789
-178.066
-161.568
-146.672
-132.637
-119.763
-107.761
-96.6159
-86.2299
-76.5129
-67.4281
-58.9052
-50.913
-43.4017
-36.4028
-29.6528
-23.8637
-17.2979
-196.45
-189.541
-172.097
-155.054
-138.991
-124.608
-111.1
-98.7227
-87.2405
-76.5329
-66.6385
-57.3482
-48.6974
-40.6044
-33.0246
-25.9381
-19.3045
-12.978
-7.56665
-1.28758
-171.22
-164.122
-146.636
-130.541
-115.025
-101.257
-88.3398
-76.4726
-65.5121
-55.3339
-45.8946
-37.1052
-28.9171
-21.2732
-14.1318
-7.47488
-1.25615
4.63311
9.69588
15.6866
-144.6
-137.29
-119.587
-104.392
-89.5905
-76.4215
-64.2111
-52.9515
-42.6067
-32.969
-24.1168
-15.8473
-8.18177
-1.03808
5.60615
11.7841
17.57
22.9926
27.6619
33.3521
-116.385
-108.516
-90.9387
-76.7481
-62.8925
-50.4403
-38.9697
-28.3577
-18.6453
-9.61741
-1.29542
6.42168
13.5682
20.2083
26.3683
32.0617
37.3765
42.2758
46.5472
51.8948
-86.8419
-78.9614
-62.2258
-48.5658
-35.6074
-23.8218
-13.0729
-3.11329
5.96788
14.4015
22.1368
29.304
35.93
42.0671
47.7277
52.9498
57.8195
62.2307
66.0977
71.0576
-55.8743
-47.9786
-32.156
-19.3322
-7.28148
3.72877
13.6787
22.9272
31.3163
39.107
46.2475
52.8504
58.9219
64.5477
69.7126
74.467
78.8639
82.7094
86.1261
90.6728
-24.4537
-16.7007
-2.03772
10.1156
21.1799
31.4499
40.6553
49.2139
56.9741
64.1514
70.7498
76.8224
82.4393
87.6136
92.3671
96.7779
100.837
104.241
107.441
112.239
7.49396
15.6243
28.803
40.0417
50.0837
59.4776
67.844
75.6452
82.712
89.2652
95.2897
100.901
106.091
110.964
115.534
119.911
123.923
127.693
131.93
136.726
-99.8445
-58.3148
-18.894
6.00937
30.6363
46.5109
62.3089
73.029
83.3561
90.3862
97.104
101.913
106.367
109.545
112.419
114.396
116.599
117.267
117.893
118.345
-93.3572
-53.9322
-15.3511
8.41154
32.5581
47.9403
63.4539
73.9663
84.0888
91.0106
97.5508
102.366
106.651
109.728
112.467
114.413
116.403
117.15
117.683
118.15
-86.4485
-49.2327
-11.6438
11.1479
34.6828
49.5673
64.6848
74.9728
84.8175
91.6789
98.049
102.807
106.932
109.945
112.523
114.513
116.288
117.083
117.552
118.052
-78.9246
-44.1707
-7.67745
14.1043
36.8753
51.3733
66.0521
76.1174
85.6962
92.488
98.6227
103.369
107.307
110.213
112.614
114.608
116.09
117.103
117.412
117.927
-70.9218
-38.8036
-3.40641
17.2302
39.3539
53.2347
67.5086
77.308
86.5846
93.3057
99.2573
103.86
107.677
110.51
112.74
114.763
115.952
117.202
117.349
117.881
-62.1533
-33.0931
1.10808
20.5081
41.9365
55.2601
69.1287
78.6117
87.6265
94.2477
99.9584
104.364
108.187
110.842
112.953
114.881
115.786
117.382
117.277
117.762
-53.0102
-26.9125
5.95424
23.9264
44.7997
57.2924
70.8362
79.9518
88.6647
95.2132
100.709
104.925
108.692
111.222
113.178
115.047
115.751
117.614
117.186
117.952
-43.3116
-20.2969
10.9713
27.5564
47.6588
59.6015
72.6422
81.4595
89.8383
96.2637
101.549
105.674
109.312
111.627
113.55
115.193
115.692
117.843
117.089
118.039
-33.204
-13.2212
16.2106
31.4556
50.7491
61.9303
74.5297
83.0041
91.0129
97.3641
102.425
106.386
109.943
112.108
113.911
115.42
115.756
118.109
117.105
118.158
-22.5619
-5.80208
21.5685
35.5603
53.8477
64.5233
76.4814
84.7402
92.3142
98.5362
103.381
107.209
110.674
112.581
114.295
115.684
115.815
118.357
117.196
118.336
-11.1411
2.0767
27.1268
39.9375
57.0808
67.2176
78.5158
86.5038
93.6347
99.7517
104.403
108.021
111.423
113.154
114.733
115.979
115.916
118.68
117.251
118.536
0.588979
10.2458
32.8611
44.3933
60.4359
70.0202
80.6228
88.4509
95.0859
101.026
105.475
108.944
112.265
113.716
115.187
116.236
115.974
118.926
117.316
118.769
12.9735
18.8245
38.7889
49.0796
63.8789
72.9762
82.771
90.4118
96.5767
102.334
106.618
109.87
113.19
114.38
115.71
116.548
116.072
119.119
117.345
119.007
26.0337
27.6747
44.8493
53.8526
67.4458
76.0127
85.0497
92.4995
98.2163
103.697
107.794
110.872
114.129
115.068
116.268
116.88
116.102
119.311
117.353
119.288
39.6059
36.8439
51.0138
58.7638
71.0838
79.1559
87.3456
94.5719
99.8402
105.151
109.026
111.888
115.117
115.826
116.942
117.239
116.105
119.575
117.341
119.562
54.1072
46.4992
57.3191
63.7376
74.7884
82.3665
89.7463
96.7669
101.556
106.645
110.289
112.954
116.124
116.613
117.661
117.607
116.039
119.739
117.324
119.929
68.8294
56.5665
63.9333
69.0526
78.7319
85.8039
92.2606
99.0192
103.345
108.253
111.633
114.194
117.319
117.572
118.593
118.233
115.99
119.882
117.052
120.222
83.2357
65.7993
69.9887
74.0585
82.5859
89.2521
94.8157
101.348
105.198
109.907
113.037
115.322
118.447
118.472
119.475
118.619
115.84
119.976
117.031
120.833
102.499
76.7487
75.736
78.0157
85.6528
92.0636
96.8679
103.207
106.695
111.239
114.231
116.116
119.454
119.051
120.137
118.465
115.773
119.268
116.737
120.792
124.717
93.5661
85.5038
85.6177
90.8587
96.5268
100.368
106.159
108.988
113.227
115.751
117.858
120.656
120.795
121.466
120.27
117.654
119.698
115.047
121.736
166.307
167.241
147.806
145.343
133.168
134.515
129.504
131.302
129.785
132.471
130.938
135.059
132.828
137.408
134.885
140.88
139.323
142.813
119.942
147.182
211.77
201.686
179.499
172.628
160.462
156.549
150.66
148.665
145.345
144.509
142.793
142.747
141.09
142.286
140.268
142.514
139.477
141.786
138.922
141.643
222.836
212.256
199.82
191.393
182.655
176.705
170.877
167.322
163.888
161.857
159.802
158.949
157.716
157.67
156.755
157.659
156.97
155.604
154.054
154.938
224.448
217.018
207.463
200.088
192.795
187.428
182.205
178.094
174.21
171.235
168.447
166.255
164.163
162.644
161.359
160.261
159.228
158.749
157.888
158.051
221.395
214.755
209.131
203.6
198.65
193.96
189.912
186.131
182.978
180.138
177.659
175.536
173.511
171.864
170.091
168.739
167.065
165.633
164.543
164.597
219.364
215.26
211.288
206.715
202.763
198.737
195.192
191.861
188.714
185.865
183.184
180.786
178.513
176.41
174.521
172.512
170.945
169.084
168.094
167.612
216.297
212.991
209.881
206.711
203.862
200.988
198.298
195.709
193.229
190.924
188.596
186.575
184.4
182.538
180.398
178.513
176.392
174.312
172.849
172.167
215.375
213.17
211.354
208.97
206.47
203.96
201.65
199.399
197.125
195.09
192.892
191.014
188.822
187.04
184.781
182.976
180.555
178.524
176.453
175.777
213.955
212.036
210.371
208.493
206.906
205.321
203.609
202.009
200.329
198.791
197.006
195.513
193.681
192.27
190.217
188.769
186.272
184.828
182.274
181.765
214.003
213.057
211.997
210.885
209.555
208.131
206.645
205.238
203.82
202.597
201.207
200.046
198.504
197.38
195.638
194.526
192.225
191.261
187.899
187.787
214.118
213.229
212.169
211.249
210.306
209.54
208.687
207.919
206.91
206.109
205.098
204.392
203.338
202.722
201.526
201.01
199.214
199.256
195.836
197.615
214.784
214.395
213.884
213.413
212.781
212.106
211.368
210.789
210.181
209.733
209.238
208.927
208.542
208.363
208.125
208.171
208.028
208.351
209.258
211.073
215.71
215.376
214.92
214.618
214.191
213.957
213.556
213.373
212.996
212.936
212.721
212.852
212.93
213.246
213.815
214.223
215.688
216.016
219.042
219.824
216.515
216.328
216.032
215.84
215.607
215.485
215.354
215.387
215.361
215.594
215.692
216.217
216.515
217.426
218.053
219.484
220.682
222.743
225.644
226.898
217.511
217.422
217.269
217.235
217.145
217.208
217.197
217.401
217.493
217.909
218.147
218.857
219.312
220.397
221.207
222.709
224.153
226.314
228.177
232.386
218.247
218.207
218.149
218.162
218.18
218.283
218.403
218.636
218.881
219.28
219.677
220.293
220.861
221.786
222.493
223.906
224.616
226.572
227.193
238.933
218.975
218.983
218.998
219.087
219.18
219.368
219.55
219.862
220.144
220.619
221.013
221.692
222.212
223.125
223.787
224.946
225.738
227.178
227.944
229.741
219.504
219.563
219.594
219.657
219.764
219.934
220.145
220.43
220.75
221.153
221.588
222.117
222.669
223.34
223.995
224.819
225.543
226.702
227.287
228.836
219.86
219.853
219.917
220.068
220.254
220.477
220.742
221.035
221.346
221.759
222.149
222.676
223.144
223.788
224.283
225.026
225.48
226.148
226.637
227.165
219.973
220.032
220.129
220.249
220.387
220.582
220.802
221.101
221.447
221.82
222.256
222.714
223.213
223.738
224.29
224.868
225.419
225.997
226.456
226.976
329.153
328.108
326.159
323.845
320.695
316.952
312.492
307.439
301.564
295.192
288.171
280.36
271.665
262.743
253.202
242.836
232.251
220.964
209.59
197.511
301.285
300.574
299.609
298.33
296.68
294.845
292.536
290.117
287.187
284.156
280.67
275.677
270.289
266.613
262.113
257.688
252.77
247.882
242.225
235.808
262.881
262.489
261.914
261.281
260.438
259.554
258.445
257.303
255.916
254.515
252.806
251.118
249.3
247.515
245.32
243.344
240.759
238.446
235.558
233.421
251.175
250.822
250.435
249.965
249.445
248.85
248.177
247.443
246.595
245.718
244.68
243.686
242.475
241.376
240.005
238.8
237.285
235.91
233.775
231.823
234.792
234.588
234.322
234.046
233.691
233.342
232.897
232.48
231.943
231.46
230.851
230.301
229.625
229.024
228.268
227.63
226.795
226.159
225.243
224.652
229.544
229.37
229.158
228.936
228.683
228.411
228.116
227.796
227.452
227.087
226.666
226.247
225.732
225.273
224.684
224.177
223.519
222.998
222.272
221.745
223.159
223.017
222.868
222.691
222.5
222.29
222.06
221.816
221.546
221.275
220.971
220.666
220.319
220
219.627
219.294
218.87
218.523
218.028
217.68
220.816
220.698
220.56
220.417
220.259
220.094
219.915
219.73
219.533
219.325
219.102
218.876
218.624
218.362
218.057
217.78
217.441
217.153
216.789
216.475
218.377
218.296
218.196
218.091
217.971
217.843
217.701
217.551
217.387
217.214
217.028
216.832
216.618
216.406
216.146
215.942
215.548
215.21
214.822
214.503
217.382
217.301
217.218
217.126
217.028
216.922
216.808
216.688
216.56
216.424
216.28
216.13
215.964
215.79
215.61
215.436
215.25
215.063
214.849
214.646
217.057
216.985
216.899
216.812
216.718
216.621
216.516
216.409
216.297
216.178
216.052
215.923
215.786
215.646
215.497
215.342
215.177
215.008
214.829
214.646
217.138
217.067
216.993
216.912
216.827
216.737
216.642
216.545
216.435
216.322
216.202
216.082
215.957
215.83
215.703
215.585
215.472
215.355
215.238
215.113
217.491
217.444
217.394
217.341
217.284
217.223
217.16
217.092
217.022
216.947
216.87
216.787
216.702
216.61
216.518
216.418
216.319
216.212
216.109
215.993
217.877
217.832
217.786
217.737
217.686
217.633
217.579
217.522
217.464
217.403
217.342
217.278
217.214
217.145
217.079
217.007
216.938
216.861
216.791
216.708
218.539
218.5
218.459
218.417
218.375
218.331
218.287
218.241
218.196
218.148
218.101
218.052
218.004
217.952
217.904
217.85
217.801
217.745
217.696
217.636
219.01
218.968
218.928
218.889
218.85
218.812
218.774
218.737
218.701
218.664
218.629
218.593
218.559
218.523
218.49
218.454
218.423
218.385
218.356
218.317
219.636
219.597
219.558
219.52
219.482
219.445
219.409
219.373
219.34
219.305
219.272
219.239
219.207
219.174
219.146
219.116
219.091
219.064
219.043
219.017
219.832
219.794
219.757
219.725
219.696
219.669
219.644
219.62
219.598
219.578
219.561
219.546
219.533
219.522
219.515
219.507
219.504
219.499
219.499
219.495
220.287
220.25
220.216
220.182
220.15
220.12
220.091
220.065
220.04
220.017
219.995
219.976
219.958
219.941
219.927
219.913
219.902
219.889
219.88
219.875
220.408
220.373
220.34
220.309
220.278
220.249
220.22
220.192
220.166
220.141
220.117
220.095
220.074
220.054
220.035
220.018
220.002
219.989
219.98
219.976
164.431
162.031
156.612
151.533
146.537
141.185
135.559
129.564
123.153
116.216
108.729
100.547
91.677
81.9036
71.3008
59.5519
46.6104
32.6314
15.8763
7.50411
178.04
176.752
173.003
169.038
164.971
160.516
155.692
150.465
144.784
138.596
131.858
124.481
116.478
107.622
98.0289
87.2824
75.5902
62.7209
47.2627
38.5783
193.571
193.275
190.398
187.16
183.796
180.027
175.903
171.384
166.453
161.039
155.134
148.617
141.489
133.555
124.9
115.179
104.619
92.8242
78.9476
70.2687
209.776
209.786
207.361
204.77
202.035
198.945
195.52
191.746
187.564
182.937
177.812
172.117
165.857
158.86
151.244
142.591
133.302
122.653
110.454
102.573
226.132
226.599
224.715
222.717
220.585
218.117
215.336
212.216
208.715
204.792
200.424
195.541
190.121
184.019
177.268
169.58
161.248
151.602
140.82
134.338
242.455
243.066
241.601
240.06
238.42
236.505
234.297
231.807
228.969
225.772
222.14
218.038
213.41
208.138
202.269
195.489
188.106
179.347
169.567
164.09
258.029
258.912
257.933
256.917
255.823
254.474
252.871
251.017
248.848
246.341
243.455
240.133
236.333
231.941
226.956
221.125
214.626
206.834
197.658
192.446
273.048
274.153
273.613
273.07
272.459
271.636
270.587
269.332
267.785
265.974
263.782
261.231
258.192
254.65
250.529
245.643
240.178
233.418
225.449
219.851
286.727
288.106
288.104
288.055
287.97
287.694
287.237
286.592
285.715
284.568
283.11
281.313
279.101
276.444
273.251
269.426
264.998
259.406
253.042
246.961
299.931
301.566
301.991
302.399
302.786
303.028
303.11
303.042
302.739
302.224
301.412
300.319
298.832
297
294.652
291.819
288.356
284.057
279.194
273.264
311.524
313.439
314.359
315.267
316.159
316.909
317.509
317.955
318.198
318.248
318.055
317.633
316.908
315.859
314.381
312.473
309.989
306.915
303.147
298.351
322.463
324.735
326.102
327.451
328.757
329.922
330.959
331.868
332.62
333.227
333.632
333.85
333.751
333.383
332.584
331.452
329.777
327.674
324.832
321.149
333.241
335.625
337.056
338.558
340.076
341.512
342.875
344.168
345.337
346.399
347.272
347.967
348.393
348.599
348.419
347.963
346.974
345.639
343.574
340.668
341.581
343.994
345.843
347.757
349.688
351.561
353.378
355.117
356.758
358.288
359.658
360.87
361.837
362.571
362.948
363.057
362.682
361.994
360.55
358.314
348.816
351.558
353.767
356.013
358.249
360.426
362.533
364.583
366.532
368.383
370.057
371.587
372.859
373.954
374.751
375.384
375.487
375.321
374.362
372.723
355.295
358.196
360.554
363.008
365.462
367.885
370.252
372.584
374.813
376.962
378.963
380.866
382.569
384.164
385.461
386.591
387.166
387.455
386.924
385.851
360.509
363.498
365.987
368.591
371.222
373.806
376.363
378.873
381.323
383.713
386.005
388.208
390.242
392.138
393.689
394.994
395.812
396.471
396.394
396.234
364.141
367.165
369.819
372.595
375.395
378.173
380.938
383.679
386.373
389.019
391.558
394.004
396.263
398.344
400.141
401.679
402.866
403.835
404.207
404.25
366.678
369.831
372.607
375.505
378.415
381.304
384.176
387.019
389.809
392.534
395.165
397.693
400.056
402.278
404.248
406.02
407.48
408.57
409.235
409.202
367.692
370.856
373.697
376.666
379.657
382.646
385.611
388.58
391.479
394.357
397.107
399.811
402.301
404.726
406.843
408.924
410.496
412.104
413.143
413.868
-59.7446
-64.9829
-70.4972
-76.2599
-82.0504
-88.18
-94.2904
-100.689
-107.132
-113.76
-120.495
-127.321
-134.201
-141
-147.874
-154.323
-158.905
-160.761
-160.752
-160.971
-55.7493
-61.2011
-66.868
-72.9236
-78.9582
-85.4293
-91.9141
-98.7288
-105.65
-112.801
-120.098
-127.553
-135.19
-142.766
-150.53
-157.496
-163.814
-168.567
-168.32
-169.255
-51.4971
-57.1857
-63.0582
-69.4059
-75.7637
-82.5858
-89.4857
-96.7454
-104.201
-111.938
-119.941
-128.195
-136.682
-145.465
-154.407
-163.498
-172.307
-179.208
-180.203
-181.037
-47.1183
-53.0463
-59.0901
-65.7357
-72.3871
-79.5828
-86.9401
-94.7158
-102.783
-111.232
-120.054
-129.24
-138.871
-148.976
-159.283
-170.297
-181.521
-191.064
-195.262
-195.936
-42.1398
-48.3142
-54.5567
-61.4993
-68.4931
-76.0565
-83.8536
-92.1119
-100.754
-109.85
-119.43
-129.545
-140.274
-151.605
-163.655
-176.72
-190.632
-202.996
-211.123
-212.231
-36.741
-43.1556
-49.5449
-56.7315
-63.98
-71.85
-80.033
-88.7289
-97.8849
-107.575
-117.854
-128.75
-140.346
-152.705
-166.074
-180.416
-195.911
-210.588
-223.223
-224.341
-30.3757
-36.9988
-43.5062
-50.9058
-58.4169
-66.5555
-75.0761
-84.1439
-93.744
-103.94
-114.787
-126.34
-138.701
-151.931
-166.18
-181.461
-197.759
-214.092
-230.132
-232.359
-23.4993
-30.2937
-36.7588
-44.4277
-52.0341
-60.3405
-69.0829
-78.4102
-88.3285
-98.8977
-110.192
-122.266
-135.253
-149.221
-164.318
-180.706
-198.442
-217.592
-232.14
-235.948
-15.2854
-22.1824
-28.7346
-36.3549
-44.125
-52.5303
-61.447
-70.9667
-81.1095
-91.9572
-103.559
-115.993
-129.383
-143.756
-159.311
-176.314
-194.706
-213.965
-231.205
-236.655
-6.41093
-13.3791
-19.8681
-27.4343
-35.2147
-43.6368
-52.6044
-62.1925
-72.4288
-83.4017
-95.1797
-107.824
-121.489
-136.192
-152.223
-169.603
-188.135
-208.68
-226.438
-230.548
3.89332
-3.06398
-9.46093
-16.9304
-24.6695
-33.0184
-41.9428
-51.5069
-61.7483
-72.7444
-84.5531
-97.2726
-111.013
-125.833
-142.005
-159.496
-178.745
-199.614
-218.322
-223.447
15.0086
8.11308
1.92087
-5.35683
-12.948
-21.1386
-29.9418
-39.3881
-49.5162
-60.4156
-72.1467
-84.7912
-98.4835
-113.238
-129.384
-146.826
-165.725
-186.829
-206.215
-211.875
27.9291
21.0346
15.0065
7.94199
0.504231
-7.50146
-16.1067
-25.3618
-35.2988
-46.0102
-57.5352
-70.0102
-83.4984
-98.1015
-114.099
-131.201
-150.377
-170.926
-190.526
-197.354
41.8242
34.9916
29.1001
22.284
15.0635
7.32308
-1.02749
-10.014
-19.6704
-30.0936
-41.3449
-53.5096
-66.6953
-80.974
-96.5639
-113.458
-132.058
-152.146
-171.534
-178.684
56.3674
49.7891
44.2937
37.9008
31.0351
23.6542
15.6683
7.03954
-2.25
-12.3077
-23.1469
-34.9232
-47.6726
-61.5186
-76.7064
-92.9829
-111.259
-130.963
-150.65
-158.274
72.3751
65.9518
60.6975
54.655
48.0867
41.0519
33.4267
25.1844
16.3017
6.68294
-3.72483
-15.0239
-27.2635
-40.5849
-55.0715
-70.7844
-88.3018
-106.682
-126.548
-134.125
89.1901
83.0172
78.1732
72.6276
66.4659
59.8506
52.6629
44.8543
36.4204
27.2579
17.3616
6.58767
-5.08382
-17.7844
-31.6821
-46.7323
-63.4765
-81.2577
-101.17
-109.062
106.837
100.896
96.3584
91.2667
85.4416
79.1914
72.4179
65.052
57.0937
48.4607
39.1134
28.9271
17.9093
5.85447
-7.24251
-21.4859
-37.2828
-54.0673
-73.2714
-81.2924
126.754
120.384
116.03
111.409
105.923
99.9938
93.6162
86.6781
79.1764
71.024
62.2104
52.5977
42.1941
30.8201
18.4288
4.89885
-10.1356
-26.2245
-44.7555
-53.0173
150.222
143.834
138.094
132.898
127.331
121.342
115.062
108.376
101.229
93.5505
85.292
76.324
66.6616
56.0488
44.5544
31.9247
17.9484
3.02668
-14.7664
-23.0303
131.283
131.16
130.599
129.146
127.352
124.609
122.354
118.742
115.618
110.938
106.261
100.198
92.8219
84.8427
72.861
62.0404
42.63
25.7183
-3.65646
-33.7097
131.693
131.632
131.094
129.668
127.996
125.331
123.209
119.696
116.706
112.147
107.646
101.744
94.6029
86.8763
75.1732
64.7889
45.698
29.6484
0.273586
-29.1423
132.171
132.176
131.624
130.195
128.619
126.051
124.053
120.648
117.8
113.363
109.038
103.29
96.3839
88.9036
77.4538
67.5632
48.6905
33.294
4.20376
-24.0856
132.629
132.72
132.145
130.757
129.288
126.81
124.945
121.644
118.934
114.621
110.483
104.888
98.2474
90.9897
79.8736
70.4294
51.8228
37.3667
8.43225
-19.1562
133.135
133.312
132.676
131.316
129.934
127.562
125.825
122.639
120.072
115.883
111.931
106.483
100.107
93.0556
82.2911
73.2554
55.0085
41.3552
12.6541
-13.6663
133.61
133.889
133.208
131.881
130.643
128.355
126.754
123.678
121.252
117.191
113.433
108.133
102.05
95.1942
84.832
76.1441
58.356
45.6056
16.977
-7.91981
134.105
134.464
133.726
132.436
131.318
129.141
127.674
124.718
122.435
118.501
114.935
109.778
103.987
97.3133
87.3716
79.0405
61.791
49.7666
21.6181
-1.5249
134.57
134.986
134.23
132.996
132.051
129.972
128.642
125.801
123.658
119.859
116.49
111.481
106.002
99.5064
90.029
82.0041
65.3228
54.111
26.5682
4.99574
135.015
135.442
134.726
133.538
132.759
130.792
129.603
126.887
124.884
121.218
118.041
113.181
108.012
101.683
92.6884
84.9773
68.9745
58.5313
31.8992
12.2231
135.396
135.851
135.207
134.105
133.517
131.662
130.611
128.016
126.15
122.624
119.642
114.938
110.091
103.933
95.4588
88.0175
72.7032
63.0801
37.4276
19.8075
135.784
136.223
135.685
134.672
134.248
132.524
131.615
129.148
127.418
124.032
121.238
116.694
112.167
106.172
98.2335
91.0585
76.5638
67.7779
43.3685
28.0025
136.155
136.571
136.159
135.262
135.022
133.432
132.667
130.322
128.723
125.484
122.88
118.506
114.301
108.482
101.105
94.1682
80.4996
72.502
49.4308
36.9934
136.507
136.892
136.625
135.851
135.807
134.34
133.716
131.5
130.031
126.938
124.516
120.318
116.432
110.79
103.983
97.2719
84.5392
77.3549
56.0787
47.5797
136.845
137.185
137.091
136.439
136.681
135.307
134.815
132.719
131.373
128.435
126.194
122.186
118.614
113.169
106.946
100.456
88.7235
82.9135
62.6589
57.7447
137.167
137.455
137.563
137.01
137.577
136.264
135.908
133.94
132.714
129.928
127.861
124.05
120.784
115.542
109.888
103.583
92.9901
88.9746
69.8821
68.9722
137.473
137.702
137.937
137.592
138.565
137.291
137.044
135.193
134.081
131.451
129.556
125.954
122.986
117.972
112.884
106.761
97.3539
93.9953
77.3334
81.045
137.763
137.861
138.363
138.204
139.526
138.326
138.192
136.47
135.475
133.006
131.287
127.913
125.255
120.508
115.997
110.1
102.013
99.3091
85.3108
93.6394
138.086
138.224
139.43
138.763
140.523
139.427
139.382
137.778
136.891
134.586
133.039
129.899
127.516
123.015
118.966
113.177
106.245
104.152
92.585
106.245
138.224
138.179
139.445
139.184
141.335
140.406
140.433
138.933
138.119
135.936
134.512
131.573
129.377
125.045
121.234
115.414
109.657
108.279
101.316
124.341
138.947
137.221
138.564
139.857
142.212
141.623
141.703
140.336
139.656
137.652
136.413
133.758
131.979
128.202
125.281
120.438
116.838
116.753
115.071
144.593
154.211
146.676
151.201
149.948
151.488
150.887
151.71
151.532
152.306
152.326
153.51
153.459
155.664
156.212
160.716
162.932
171.128
174.2
186.615
178.883
155.815
153.556
155.854
155.233
156.781
157
158.152
158.829
160.229
161.46
163.779
166.207
170.362
173.904
180.588
185.091
196.115
202.771
221.766
230.339
169.555
169.011
169.079
169.761
170.368
171.304
172.393
173.698
175.361
177.176
179.844
182.351
185.892
189.219
194.376
199.157
207.036
213.465
224.843
233.121
173.243
173.364
173.478
174.369
175.334
176.526
178.155
179.969
182.36
184.898
187.879
190.936
194.895
198.855
204.157
209.044
215.983
221.532
230.364
234.916
180.209
180.315
180.87
182.242
183.085
184.521
185.87
187.51
189.37
191.307
193.671
196.171
199.124
202.276
205.831
209.634
213.821
218.097
222.759
228.497
183.509
183.764
184.451
185.617
186.888
188.368
190.108
191.91
194.066
196.154
198.728
201.122
204.157
206.861
210.333
213.303
217.027
220.25
223.82
226.55
187.347
187.564
188.538
189.798
191.229
192.678
194.323
195.865
197.641
199.352
201.291
203.23
205.314
207.474
209.67
211.989
214.23
216.594
218.529
220.979
189.498
189.948
191.055
192.443
194.077
195.582
197.381
198.864
200.792
202.342
204.357
205.966
208.036
209.69
211.727
213.416
215.202
217.038
218.505
220.218
191.924
192.488
193.92
195.423
197.294
198.644
200.41
201.71
203.37
204.656
206.228
207.523
209.032
210.319
211.784
212.997
214.427
215.446
216.359
217.062
193.443
194.056
196.125
197.699
199.869
201.247
203.093
204.296
205.926
207.028
208.5
209.525
210.872
211.818
213.027
213.879
214.891
215.62
216.552
216.969
196.871
197.5
200.138
201.464
203.837
204.925
206.656
207.562
208.92
209.735
210.847
211.602
212.561
213.252
214.102
214.714
215.468
215.979
216.442
216.672
200.358
200.438
204.548
205.353
207.706
208.541
209.984
210.65
211.695
212.235
213.072
213.55
214.262
214.679
215.299
215.617
216.129
216.344
216.761
216.924
212.708
210.034
212.993
212.341
214.067
214.105
214.937
215.058
215.596
215.761
216.172
216.323
216.673
216.797
217.083
217.201
217.45
217.535
217.74
217.714
224.728
222.25
220.513
220.369
219.589
219.368
219
218.792
218.622
218.462
218.418
218.295
218.325
218.225
218.305
218.233
218.323
218.23
218.309
218.184
233.091
232.424
229.157
227.903
226.075
224.659
223.851
222.823
222.411
221.657
221.381
220.849
220.664
220.274
220.147
219.827
219.711
219.443
219.359
219.118
241.541
237.586
234.566
231.207
230.09
228.092
227.119
225.636
224.912
223.9
223.34
222.596
222.15
221.59
221.243
220.803
220.575
220.291
220.143
219.899
248.451
235.089
234.122
232.217
230.825
229.144
228.119
226.876
226.048
225.101
224.472
223.764
223.28
222.75
222.375
221.978
221.667
221.277
220.98
220.597
238.199
235.814
234.922
232.883
232.031
230.337
229.514
228.162
227.419
226.364
225.695
224.869
224.287
223.625
223.123
222.587
222.157
221.727
221.406
221.077
237.222
234.902
234.319
232.584
231.785
230.449
229.572
228.475
227.65
226.741
226.017
225.268
224.656
224.05
223.544
223.055
222.649
222.241
221.927
221.561
237.522
234.153
233.733
232.596
231.803
230.661
229.846
228.805
228.017
227.119
226.393
225.634
224.994
224.358
223.811
223.282
222.824
222.393
222.008
221.666
208.513
219.88
230.996
241.867
251.947
263.221
273.483
281.603
290.13
297.614
303.736
309.349
314.163
318.411
321.991
324.848
327.062
328.584
329.451
329.702
250.641
256.419
261.382
265.514
269.55
272.957
276.702
280.304
284.983
289.019
291.144