/*--------------------------------*- C++ -*----------------------------------*\
  =========                 |
  \\      /  F ield         | OpenFOAM: The Open Source CFD Toolbox
   \\    /   O peration     | Website:  https://openfoam.org
    \\  /    A nd           | Version:  9
     \\/     M anipulation  |
\*---------------------------------------------------------------------------*/
FoamFile
{
    format      ascii;
    class       surfaceScalarField;
    location    "7.1";
    object      phi;
}
// * * * * * * * * * * * * * * * * * * * * * * * * * * * * * * * * * * * * * //

dimensions      [0 3 -1 0 0 0 0];

internalField   nonuniform List<scalar> 
92080
(
-0.00634813
-0.477762
0.48411
-0.0351753
-0.918752
0.94758
-0.079158
-0.978712
1.02269
-0.122217
-0.962856
1.00591
-0.164381
-0.946378
0.988542
-0.20669
-0.929897
0.972206
-0.249094
-0.915417
0.957821
-0.2908
-0.902308
0.944015
-0.331881
-0.889724
0.930805
-0.373173
-0.87807
0.919361
-0.413312
-0.86883
0.908969
-0.453104
-0.85777
0.897562
-0.492626
-0.848368
0.88789
-0.531927
-0.839373
0.878673
-0.570676
-0.831404
0.870153
-0.607376
-0.824108
0.860808
-0.642917
-0.814424
0.849965
-0.679076
-0.804755
0.840913
-0.714258
-0.796875
0.832057
-0.79146
0.823311
-0.74611
-0.00783985
-0.469922
-0.0410811
-0.885511
-0.0862895
-0.933503
-0.131749
-0.917396
-0.175593
-0.902535
-0.218451
-0.887038
-0.26132
-0.872548
-0.304224
-0.859404
-0.346591
-0.847357
-0.388696
-0.835965
-0.430291
-0.827235
-0.47065
-0.817411
-0.510925
-0.808093
-0.550444
-0.799854
-0.590116
-0.791732
-0.628682
-0.785541
-0.664702
-0.778405
-0.69948
-0.769976
-0.733387
-0.762968
-0.758219
-0.766627
-0.00636441
-0.463558
-0.0445129
-0.847363
-0.0915651
-0.886451
-0.138275
-0.870687
-0.183763
-0.857047
-0.228248
-0.842553
-0.272297
-0.828499
-0.316017
-0.815684
-0.359721
-0.803653
-0.403615
-0.792071
-0.447028
-0.783822
-0.489506
-0.774933
-0.531419
-0.76618
-0.57287
-0.758402
-0.613873
-0.750729
-0.654586
-0.744829
-0.693794
-0.739196
-0.731654
-0.732116
-0.769139
-0.725483
-0.720936
-0.806423
-0.000337406
-0.46322
-0.0417981
-0.805902
-0.0909922
-0.837257
-0.140224
-0.821455
-0.188589
-0.808681
-0.235059
-0.796084
-0.280607
-0.78295
-0.325521
-0.77077
-0.369488
-0.759685
-0.413877
-0.747682
-0.45815
-0.739549
-0.501631
-0.731452
-0.544494
-0.723317
-0.586602
-0.716295
-0.628864
-0.708467
-0.671697
-0.701996
-0.713311
-0.697583
-0.752908
-0.692519
-0.792123
-0.686267
-0.681504
-0.831555
0.00218638
-0.465407
-0.0399946
-0.763721
-0.0930441
-0.784208
-0.14578
-0.768719
-0.197156
-0.757305
-0.24647
-0.746771
-0.293951
-0.735469
-0.340654
-0.724068
-0.38609
-0.714249
-0.43132
-0.702452
-0.477222
-0.693647
-0.522173
-0.686501
-0.567149
-0.678341
-0.611055
-0.672388
-0.653303
-0.666219
-0.695938
-0.659361
-0.739944
-0.653577
-0.782774
-0.649689
-0.823521
-0.645521
-0.640702
-0.864323
0.00352987
-0.468937
-0.0410447
-0.719146
-0.0954566
-0.729796
-0.147899
-0.716277
-0.200659
-0.704544
-0.252461
-0.694968
-0.302315
-0.685614
-0.35085
-0.675533
-0.397681
-0.667418
-0.443291
-0.656841
-0.489486
-0.647453
-0.535371
-0.640616
-0.580683
-0.633029
-0.626892
-0.626179
-0.67229
-0.620822
-0.716091
-0.615559
-0.759413
-0.610255
-0.804415
-0.604687
-0.848688
-0.601248
-0.597751
-0.891639
0.00230499
-0.471242
-0.0451648
-0.671676
-0.100245
-0.674716
-0.154497
-0.662025
-0.208118
-0.650923
-0.260955
-0.642132
-0.312732
-0.633838
-0.363518
-0.624747
-0.412434
-0.618502
-0.459283
-0.609993
-0.505759
-0.600977
-0.552185
-0.594189
-0.597564
-0.587651
-0.642663
-0.58108
-0.687915
-0.57557
-0.733382
-0.570092
-0.777664
-0.565972
-0.820778
-0.561573
-0.865571
-0.556456
-0.553366
-0.909956
-0.00742404
-0.463818
-0.0574628
-0.621638
-0.112606
-0.619573
-0.165218
-0.609414
-0.218067
-0.598073
-0.271012
-0.589187
-0.322773
-0.582076
-0.374762
-0.572758
-0.426008
-0.567255
-0.474733
-0.561268
-0.522759
-0.552952
-0.570816
-0.546132
-0.618449
-0.540018
-0.665715
-0.533814
-0.712635
-0.52865
-0.75865
-0.524077
-0.805405
-0.519217
-0.850663
-0.516315
-0.894458
-0.512661
-0.508462
-0.939362
-0.0160167
-0.447801
-0.0688941
-0.56876
-0.12496
-0.563506
-0.177399
-0.556975
-0.228775
-0.546696
-0.280243
-0.537719
-0.330768
-0.531551
-0.381113
-0.522414
-0.432699
-0.515669
-0.482006
-0.51196
-0.528899
-0.506059
-0.575227
-0.499804
-0.621019
-0.494226
-0.66627
-0.488564
-0.712156
-0.482763
-0.75816
-0.478073
-0.803746
-0.473632
-0.850854
-0.469206
-0.89658
-0.466935
-0.463935
-0.941107
-0.025936
-0.421865
-0.0822878
-0.512409
-0.140214
-0.50558
-0.195594
-0.501595
-0.248126
-0.494165
-0.300442
-0.485403
-0.35173
-0.480264
-0.401051
-0.473092
-0.452928
-0.463792
-0.506257
-0.458631
-0.557858
-0.454458
-0.607815
-0.449847
-0.656594
-0.445447
-0.703735
-0.441422
-0.749033
-0.437466
-0.79426
-0.432845
-0.838513
-0.429379
-0.882698
-0.425021
-0.928122
-0.421511
-0.41895
-0.973108
-0.0327416
-0.389123
-0.0879059
-0.457244
-0.144024
-0.449462
-0.198916
-0.446703
-0.252116
-0.440964
-0.304092
-0.433427
-0.355966
-0.42839
-0.403674
-0.425384
-0.449042
-0.418424
-0.496809
-0.410864
-0.545885
-0.405382
-0.595423
-0.400309
-0.645152
-0.395718
-0.695395
-0.391179
-0.744715
-0.388145
-0.792914
-0.384647
-0.840381
-0.381912
-0.886115
-0.379287
-0.931249
-0.376377
-0.373764
-0.976435
-0.0397496
-0.349374
-0.0957125
-0.401281
-0.152965
-0.39221
-0.209442
-0.390226
-0.264672
-0.385734
-0.318949
-0.379151
-0.375688
-0.37165
-0.432216
-0.368857
-0.483716
-0.366924
-0.531999
-0.362581
-0.579243
-0.358138
-0.625881
-0.353671
-0.671962
-0.349637
-0.718366
-0.344775
-0.765736
-0.340775
-0.813231
-0.337152
-0.861264
-0.33388
-0.909155
-0.331396
-0.956339
-0.329193
-0.327304
-1.0028
-0.0424111
-0.306963
-0.0952709
-0.348422
-0.150298
-0.337183
-0.208305
-0.332218
-0.263737
-0.330303
-0.31584
-0.327047
-0.366786
-0.320705
-0.421254
-0.314388
-0.47693
-0.311248
-0.530888
-0.308624
-0.583209
-0.305816
-0.633863
-0.303017
-0.683044
-0.300457
-0.730273
-0.297545
-0.777007
-0.294041
-0.823314
-0.290846
-0.869759
-0.287435
-0.91663
-0.284525
-0.963855
-0.281968
-0.279881
-1.01128
-0.0474013
-0.259561
-0.10316
-0.292663
-0.156604
-0.283739
-0.212745
-0.276078
-0.27281
-0.270238
-0.330375
-0.269482
-0.384456
-0.266624
-0.436402
-0.262442
-0.48893
-0.25872
-0.542094
-0.25546
-0.594539
-0.253371
-0.647024
-0.250532
-0.698509
-0.248972
-0.749093
-0.246962
-0.797974
-0.24516
-0.845891
-0.242929
-0.892636
-0.240689
-0.93898
-0.238181
-0.984972
-0.235975
-0.2336
-1.03125
-0.0499621
-0.209599
-0.113059
-0.229566
-0.172031
-0.224766
-0.225429
-0.22268
-0.278722
-0.216945
-0.334564
-0.21364
-0.389735
-0.211453
-0.443024
-0.209153
-0.494741
-0.207003
-0.546269
-0.203931
-0.597367
-0.202273
-0.648388
-0.19951
-0.699552
-0.197809
-0.750547
-0.195966
-0.801153
-0.194554
-0.85099
-0.193092
-0.899824
-0.191855
-0.947884
-0.190121
-0.994982
-0.188877
-0.18676
-1.04182
-0.0572698
-0.152329
-0.117393
-0.169444
-0.178261
-0.163897
-0.238062
-0.162879
-0.292411
-0.162596
-0.347217
-0.158833
-0.401421
-0.157249
-0.45579
-0.154784
-0.50931
-0.153483
-0.561694
-0.151547
-0.613572
-0.150395
-0.664297
-0.148786
-0.714778
-0.147327
-0.764935
-0.14581
-0.814878
-0.144611
-0.864646
-0.143324
-0.914054
-0.142447
-0.962659
-0.141517
-1.01082
-0.140715
-0.139917
-1.05766
-0.0610177
-0.0913116
-0.118525
-0.111937
-0.17329
-0.109132
-0.22882
-0.107349
-0.284495
-0.106921
-0.338939
-0.104389
-0.393168
-0.103021
-0.447082
-0.100871
-0.501429
-0.0991361
-0.555113
-0.0978631
-0.609075
-0.0964324
-0.661783
-0.0960786
-0.71402
-0.0950895
-0.765132
-0.094698
-0.815717
-0.0940263
-0.865579
-0.0934618
-0.915113
-0.0929129
-0.964303
-0.0923267
-1.01315
-0.091867
-0.0913041
-1.06176
-0.0558244
-0.0354871
-0.124196
-0.0435649
-0.186394
-0.0469347
-0.247062
-0.0466801
-0.306284
-0.0476992
-0.362555
-0.0481184
-0.417651
-0.0479252
-0.471073
-0.0474482
-0.523952
-0.0462571
-0.575919
-0.045896
-0.627641
-0.044711
-0.678983
-0.0447366
-0.729765
-0.0443073
-0.779997
-0.0444663
-0.829859
-0.0441636
-0.878698
-0.0446234
-0.927346
-0.0442648
-0.974863
-0.0448092
-1.02222
-0.044506
-0.0450171
-1.06851
-0.0418355
0.00634838
-0.0976487
0.0122483
-0.154882
0.0102984
-0.212836
0.0112738
-0.273416
0.0128814
-0.333747
0.0122127
-0.393178
0.0115057
-0.45141
0.0107841
-0.508364
0.0106965
-0.563927
0.00966721
-0.618277
0.00963914
-0.671773
0.00875909
-0.724761
0.00868068
-0.777018
0.00779103
-0.828391
0.00720902
-0.879336
0.00632157
-0.929372
0.00577173
-0.978675
0.00449362
-1.02729
0.00410992
0.0025211
-1.07483
-0.0543354
0.0606838
-0.120537
0.0784495
-0.182542
0.0723041
-0.241378
0.0701093
-0.300161
0.0716649
-0.356233
0.0682845
-0.412654
0.067926
-0.467411
0.0655413
-0.521129
0.0644148
-0.57502
0.0635583
-0.627633
0.0622524
-0.680123
0.0612486
-0.731528
0.0600856
-0.78209
0.0583535
-0.832547
0.0576663
-0.882321
0.0560952
-0.931479
0.0549297
-0.980751
0.0537651
-1.02919
0.052545
-1.07818
0.0515109
0.0308518
-0.153532
0.12268
0.126582
-0.572386
0.476656
0.219891
-1.04584
0.952526
0.270441
-1.29325
1.2427
0.286645
-1.34936
1.33316
0.29348
-1.3494
1.34257
0.295231
-1.33734
1.33559
0.297018
-1.32146
1.31968
0.298047
-1.30849
1.30746
0.299446
-1.29775
1.29635
0.299183
-1.28643
1.28669
0.298645
-1.27563
1.27617
0.29855
-1.26668
1.26678
0.297693
-1.25654
1.25739
0.295995
-1.24642
1.24812
0.293856
-1.23594
1.23807
0.290883
-1.22617
1.22914
0.287258
-1.21291
1.21653
0.282539
-1.19949
1.20421
-1.18416
0.278148
1.18855
0.0392433
-0.192775
0.126931
-0.660074
0.205318
-1.12422
0.239101
-1.32703
0.248133
-1.3584
0.251542
-1.35281
0.250563
-1.33636
0.249768
-1.32067
0.249397
-1.30812
0.247683
-1.29604
0.246431
-1.28518
0.24558
-1.27478
0.243475
-1.26458
0.240783
-1.25385
0.238162
-1.2438
0.235463
-1.23324
0.232149
-1.22286
0.227796
-1.20855
0.222804
-1.1945
-1.18025
0.218893
0.0400321
-0.232807
0.118141
-0.738183
0.178784
-1.18487
0.198614
-1.34686
0.202852
-1.36263
0.20281
-1.35277
0.201425
-1.33498
0.200725
-1.31997
0.198496
-1.30589
0.196624
-1.29417
0.19415
-1.2827
0.190535
-1.27116
0.186903
-1.26094
0.183365
-1.25031
0.179353
-1.23979
0.174787
-1.22867
0.169256
-1.21733
0.163369
-1.20267
0.1578
-1.18893
-1.175
0.152553
0.0349266
-0.267734
0.100656
-0.803912
0.151246
-1.23546
0.165623
-1.36124
0.168134
-1.36514
0.166248
-1.35088
0.163962
-1.33269
0.160723
-1.31673
0.15753
-1.3027
0.153348
-1.28998
0.14864
-1.27799
0.144243
-1.26677
0.13947
-1.25617
0.133898
-1.24474
0.12803
-1.23392
0.12187
-1.22251
0.115291
-1.21075
0.108231
-1.19561
0.100421
-1.18112
-1.16751
0.0929295
0.0348468
-0.302581
0.0905535
-0.859619
0.126498
-1.2714
0.132316
-1.36706
0.130366
-1.36319
0.125643
-1.34616
0.121152
-1.3282
0.116271
-1.31185
0.110585
-1.29701
0.104596
-1.28399
0.0986317
-1.27203
0.0921175
-1.26025
0.084803
-1.24886
0.077567
-1.2375
0.070349
-1.22671
0.062907
-1.21507
0.0548703
-1.20271
0.0466695
-1.18741
0.0388204
-1.17327
-1.16018
0.0314875
0.0342782
-0.336859
0.0842142
-0.909555
0.10818
-1.29537
0.107936
-1.36681
0.102327
-1.35759
0.0952824
-1.33911
0.0883264
-1.32124
0.0815115
-1.30503
0.0740284
-1.28953
0.0662511
-1.27622
0.057935
-1.26371
0.0492876
-1.25161
0.040837
-1.24041
0.0321298
-1.22879
0.0230047
-1.21758
0.0133594
-1.20542
0.00366454
-1.19301
-0.00626337
-1.17748
-0.0162221
-1.16331
-1.14994
-0.0264604
0.0281851
-0.365044
0.0678745
-0.949244
0.0833847
-1.31088
0.079097
-1.36253
0.0706264
-1.34911
0.0619488
-1.33044
0.0529437
-1.31224
0.0430415
-1.29513
0.0333128
-1.2798
0.0229841
-1.26589
0.0127221
-1.25345
0.00266409
-1.24155
-0.00808501
-1.22966
-0.0189919
-1.21789
-0.0297186
-1.20685
-0.0402448
-1.1949
-0.0511126
-1.18215
-0.0621059
-1.16648
-0.0733583
-1.15206
-1.1389
-0.0844027
0.026105
-0.391149
0.0597008
-0.98284
0.0663306
-1.31751
0.0570173
-1.35321
0.0449804
-1.33708
0.0330983
-1.31855
0.0211343
-1.30028
0.0101158
-1.28411
-0.00186336
-1.26782
-0.0139038
-1.25385
-0.0261852
-1.24117
-0.0390482
-1.22868
-0.0517591
-1.21695
-0.064414
-1.20523
-0.0772331
-1.19404
-0.0904174
-1.18171
-0.103486
-1.16908
-0.116309
-1.15366
-0.129025
-1.13934
-1.12617
-0.141754
0.0217139
-0.412863
0.0478084
-1.00893
0.0483586
-1.31806
0.0362091
-1.34106
0.0219998
-1.32287
0.00788448
-1.30444
-0.00649278
-1.2859
-0.0216413
-1.26896
-0.0359569
-1.2535
-0.0507993
-1.239
-0.065643
-1.22633
-0.0799715
-1.21436
-0.0945007
-1.20242
-0.109054
-1.19068
-0.123451
-1.17964
-0.13773
-1.16743
-0.15184
-1.15497
-0.16615
-1.13935
-0.181102
-1.12439
-1.11122
-0.19605
0.0192734
-0.432136
0.0384388
-1.0281
0.0317542
-1.31137
0.0150994
-1.32441
-0.00258543
-1.30518
-0.0198603
-1.28716
-0.0368622
-1.2689
-0.0531627
-1.25266
-0.0702275
-1.23644
-0.0870653
-1.22217
-0.103924
-1.20947
-0.121048
-1.19723
-0.138107
-1.18536
-0.155056
-1.17373
-0.171759
-1.16294
-0.188222
-1.15097
-0.204625
-1.13857
-0.220534
-1.12344
-0.236142
-1.10878
-1.09549
-0.251867
0.0160038
-0.44814
0.0295157
-1.04161
0.0182795
-1.30014
-0.000960472
-1.30517
-0.0209174
-1.28523
-0.0407701
-1.26731
-0.0609089
-1.24876
-0.0808987
-1.23267
-0.0999577
-1.21738
-0.119498
-1.20263
-0.139067
-1.1899
-0.158246
-1.17805
-0.177176
-1.16643
-0.196081
-1.15482
-0.214895
-1.14412
-0.233523
-1.13234
-0.251367
-1.12072
-0.269048
-1.10576
-0.28718
-1.09065
-1.07717
-0.305501
0.0134033
-0.461544
0.0203757
-1.04858
0.0036251
-1.28338
-0.0191086
-1.28243
-0.0421522
-1.26218
-0.0648712
-1.24459
-0.0870663
-1.22656
-0.10947
-1.21027
-0.131817
-1.19503
-0.153661
-1.18078
-0.17541
-1.16815
-0.196964
-1.1565
-0.218317
-1.14508
-0.23941
-1.13373
-0.260082
-1.12345
-0.280449
-1.11197
-0.300626
-1.10054
-0.320286
-1.0861
-0.340174
-1.07076
-1.05749
-0.359856
0.0107503
-0.472294
0.0132617
-1.0511
-0.00748292
-1.26264
-0.0331763
-1.25674
-0.05904
-1.23632
-0.0845469
-1.21908
-0.110065
-1.20104
-0.134703
-1.18563
-0.159081
-1.17066
-0.183566
-1.1563
-0.208102
-1.14362
-0.232506
-1.13209
-0.256367
-1.12122
-0.280138
-1.10996
-0.303698
-1.09989
-0.326608
-1.08907
-0.348507
-1.07864
-0.369435
-1.06517
-0.390272
-1.04992
-1.03644
-0.411322
0.0079822
-0.480276
0.0050337
-1.04815
-0.0201599
-1.23745
-0.0482984
-1.2286
-0.0765712
-1.20805
-0.104568
-1.19109
-0.132156
-1.17346
-0.160389
-1.1574
-0.187578
-1.14347
-0.214455
-1.12942
-0.241181
-1.11689
-0.267615
-1.10566
-0.293776
-1.09505
-0.319485
-1.08425
-0.344898
-1.07448
-0.370054
-1.06391
-0.394487
-1.05421
-0.417986
-1.04168
-0.441381
-1.02653
-1.01311
-0.464715
0.00618635
-0.486462
-4.24804e-05
-1.04192
-0.0289352
-1.20855
-0.0605381
-1.197
-0.0919225
-1.17666
-0.123023
-1.15999
-0.153379
-1.1431
-0.183058
-1.12772
-0.213178
-1.11335
-0.242493
-1.10011
-0.271878
-1.0875
-0.301247
-1.07629
-0.32998
-1.06632
-0.358539
-1.05569
-0.386691
-1.04633
-0.414435
-1.03617
-0.441414
-1.02723
-0.466708
-1.01638
-0.49138
-1.00186
-0.988332
-0.516153
0.00340294
-0.489865
-0.00787099
-1.03064
-0.0400215
-1.1764
-0.0737878
-1.16323
-0.107115
-1.14334
-0.140239
-1.12686
-0.173183
-1.11016
-0.206126
-1.09478
-0.238068
-1.0814
-0.270172
-1.068
-0.301878
-1.0558
-0.333679
-1.04449
-0.365225
-1.03478
-0.396337
-1.02458
-0.427246
-1.01542
-0.457698
-1.00571
-0.487671
-0.997259
-0.516024
-0.988028
-0.542802
-0.975078
-0.961528
-0.569606
0.00125165
-0.491117
-0.0143616
-1.01503
-0.048421
-1.14234
-0.0844882
-1.12717
-0.12039
-1.10743
-0.156214
-1.09104
-0.190985
-1.07538
-0.225732
-1.06003
-0.260656
-1.04648
-0.29441
-1.03425
-0.328103
-1.0221
-0.361801
-1.01079
-0.395241
-1.00134
-0.428503
-0.991316
-0.461658
-0.982262
-0.494837
-0.972534
-0.527655
-0.964442
-0.559034
-0.956648
-0.588441
-0.945671
-0.932517
-0.617453
-0.000709808
-0.490407
-0.0200379
-0.995703
-0.0577819
-1.1046
-0.0962833
-1.08866
-0.134084
-1.06963
-0.17195
-1.05317
-0.209526
-1.03781
-0.246256
-1.0233
-0.282918
-1.00982
-0.319648
-0.997518
-0.35577
-0.985983
-0.392177
-0.974385
-0.428386
-0.965127
-0.464266
-0.955435
-0.499952
-0.946575
-0.53571
-0.936777
-0.572023
-0.928128
-0.607032
-0.92164
-0.63967
-0.913033
-0.90076
-0.671426
-0.00245795
-0.487949
-0.0250109
-0.97315
-0.0643737
-1.06524
-0.1043
-1.04874
-0.143828
-1.03011
-0.183463
-1.01354
-0.222638
-0.998633
-0.261836
-0.984101
-0.300463
-0.971192
-0.338645
-0.959336
-0.376266
-0.948362
-0.414014
-0.936638
-0.451958
-0.927183
-0.489678
-0.917715
-0.527387
-0.908866
-0.565076
-0.899088
-0.60414
-0.889064
-0.643917
-0.881863
-0.6825
-0.87445
-0.865139
-0.718122
-0.00383901
-0.0294097
-0.0719523
-0.114776
-0.156339
-0.197671
-0.238483
-0.27857
-0.318957
-0.358932
-0.398324
-0.4374
-0.476693
-0.515735
-0.554447
-0.592727
-0.631826
-0.672776
-0.71517
-0.756997
0.222069
-10.2784
10.3344
0.188028
-9.68587
9.71991
0.166525
-9.58672
9.60822
0.151812
-9.22607
9.24078
0.14216
-9.18667
9.19632
0.131438
-8.99071
9.00143
0.123562
-8.93841
8.94629
0.116881
-8.81475
8.82143
0.109622
-8.80896
8.81622
0.099162
-8.69087
8.70133
0.09401
-8.58323
8.58838
0.0891781
-8.54885
8.55368
0.0800109
-8.56291
8.57208
0.0739746
-8.5568
8.56284
0.066305
-8.60617
8.61384
0.0553783
-8.52899
8.53992
0.0511306
-8.59885
8.6031
0.0309294
-7.6604
7.6806
0.016062
-5.59374
5.60861
-2.28907
2.30514
0.155009
-10.2145
0.119172
-9.65003
0.0983208
-9.56587
0.0848483
-9.21259
0.0768698
-9.17869
0.068392
-8.98223
0.0636595
-8.93368
0.0599528
-8.81104
0.0553566
-8.80436
0.049658
-8.68517
0.0506127
-8.58418
0.0505234
-8.54876
0.0456268
-8.55802
0.0446003
-8.55578
0.0415536
-8.60313
0.035821
-8.52326
0.0366822
-8.59971
0.0226637
-7.64638
0.013047
-5.58412
-2.27603
0.0866584
-10.1486
0.0489906
-9.61236
0.0274496
-9.54433
0.0150143
-9.20016
0.00753648
-9.17121
0.00257525
-8.97727
0.00153285
-8.93264
0.00247499
-8.81199
0.00177373
-8.80366
0.0015869
-8.68499
0.00856298
-8.59116
0.0135591
-8.55375
0.0131189
-8.55758
0.0169418
-8.5596
0.0187327
-8.60492
0.0170502
-8.52158
0.0216924
-8.60436
0.0138514
-7.63854
0.0108033
-5.58107
-2.26522
0.0208437
-10.0765
-0.0180525
-9.57347
-0.0404292
-9.52195
-0.052764
-9.18782
-0.0578383
-9.16614
-0.0600499
-8.97506
-0.0578052
-8.93488
-0.0537795
-8.81601
-0.0512989
-8.80614
-0.0470887
-8.6892
-0.0349896
-8.60326
-0.0252794
-8.56346
-0.0210873
-8.56177
-0.0125357
-8.56815
-0.0060019
-8.61145
-0.00239525
-8.52519
0.00710866
-8.61386
0.00544104
-7.63687
0.00769491
-5.58333
-2.25753
-0.0453092
-9.99971
-0.0883555
-9.53042
-0.111022
-9.49928
-0.123071
-9.17577
-0.126621
-9.16259
-0.125012
-8.97667
-0.118683
-8.94121
-0.110812
-8.82388
-0.104341
-8.81261
-0.094825
-8.69871
-0.0777037
-8.62038
-0.062571
-8.5786
-0.0530175
-8.57132
-0.04006
-8.58111
-0.0285769
-8.62294
-0.0209379
-8.53282
-0.00735569
-8.62744
-0.00271886
-7.64151
0.00560904
-5.59166
-2.25192
-0.109954
-9.91621
-0.156858
-9.48352
-0.179234
-9.47691
-0.189823
-9.16519
-0.190872
-9.16154
-0.186916
-8.98062
-0.17762
-8.95051
-0.166028
-8.83547
-0.156311
-8.82233
-0.143041
-8.71198
-0.12097
-8.64245
-0.101475
-8.59809
-0.0871518
-8.58564
-0.069468
-8.59879
-0.0530709
-8.63933
-0.0402385
-8.54566
-0.0215612
-8.64612
-0.0105537
-7.65252
0.00248609
-5.60469
-2.24943
-0.173372
-9.82724
-0.223911
-9.43298
-0.247333
-9.45348
-0.258283
-9.15424
-0.257764
-9.16206
-0.250602
-8.98779
-0.237482
-8.96363
-0.221916
-8.85104
-0.207569
-8.83668
-0.189417
-8.73013
-0.162738
-8.66913
-0.138279
-8.62255
-0.118879
-8.60504
-0.0969114
-8.62076
-0.0755381
-8.66071
-0.0585932
-8.5626
-0.0362525
-8.66846
-0.0189494
-7.66982
0.000414177
-5.62406
-2.24902
-0.236586
-9.73241
-0.29097
-9.37859
-0.314134
-9.43032
-0.323673
-9.1447
-0.320435
-9.16529
-0.311088
-8.99713
-0.295032
-8.97968
-0.27601
-8.87006
-0.258557
-8.85413
-0.236465
-8.75223
-0.205231
-8.70036
-0.177087
-8.6507
-0.153037
-8.62909
-0.126326
-8.64747
-0.0998031
-8.68723
-0.0775239
-8.58488
-0.0506302
-8.69535
-0.0271221
-7.69333
-0.00280346
-5.64838
-2.25182
-0.298366
-9.6301
-0.356146
-9.32081
-0.380369
-9.4061
-0.389686
-9.13538
-0.385473
-9.16951
-0.37339
-9.00921
-0.35375
-8.99932
-0.330416
-8.8934
-0.307592
-8.87695
-0.281316
-8.7785
-0.246536
-8.73514
-0.213505
-8.68373
-0.184315
-8.65828
-0.153984
-8.6778
-0.122515
-8.7187
-0.0954833
-8.61191
-0.0652415
-8.7256
-0.0357457
-7.72282
-0.00534235
-5.67878
-2.25716
-0.358452
-9.52351
-0.419289
-9.25998
-0.444803
-9.38058
-0.453087
-9.1271
-0.44618
-9.17641
-0.431642
-9.02375
-0.409392
-9.02157
-0.383427
-8.91936
-0.357573
-8.90281
-0.326872
-8.8092
-0.288178
-8.77384
-0.251956
-8.71995
-0.217781
-8.69246
-0.182808
-8.71277
-0.146511
-8.755
-0.114094
-8.64433
-0.0794941
-8.7602
-0.0441607
-7.75816
-0.00802915
-5.71491
-2.26519
-0.417551
-9.41146
-0.481678
-9.19585
-0.509003
-9.35326
-0.516793
-9.11931
-0.508504
-9.1847
-0.491087
-9.04117
-0.466175
-9.04649
-0.435937
-8.9496
-0.404669
-8.93408
-0.369888
-8.84398
-0.328074
-8.81565
-0.287247
-8.76078
-0.247949
-8.73176
-0.209899
-8.75082
-0.169082
-8.79581
-0.131841
-8.68157
-0.0929242
-8.79911
-0.050945
-7.80014
-0.00945507
-5.7564
-2.27465
-0.477172
-9.29415
-0.542706
-9.13032
-0.571148
-9.32482
-0.577806
-9.11265
-0.567201
-9.19531
-0.547043
-9.06133
-0.519765
-9.07376
-0.487787
-8.98158
-0.453472
-8.96839
-0.414347
-8.88311
-0.369214
-8.86078
-0.324889
-8.8051
-0.28016
-8.77649
-0.237792
-8.79319
-0.19249
-8.84112
-0.150124
-8.72394
-0.106065
-8.84317
-0.0577136
-7.84849
-0.0110261
-5.80309
-2.28568
-0.532652
-9.17282
-0.601189
-9.06178
-0.631652
-9.29435
-0.638106
-9.10619
-0.626128
-9.20729
-0.603631
-9.08382
-0.57384
-9.10355
-0.537623
-9.01779
-0.498579
-9.00743
-0.45604
-8.92565
-0.407957
-8.90887
-0.359275
-8.85378
-0.309346
-8.82641
-0.26394
-8.8386
-0.214541
-8.89051
-0.16752
-8.77096
-0.119198
-8.89149
-0.0645533
-7.90313
-0.0126195
-5.85502
-2.29829
-0.59074
-9.04679
-0.660209
-8.99231
-0.691328
-9.26323
-0.696416
-9.10111
-0.681995
-9.22171
-0.656631
-9.10919
-0.624982
-9.1352
-0.587305
-9.05547
-0.545581
-9.04916
-0.499349
-8.97188
-0.447857
-8.96036
-0.395619
-8.90602
-0.340316
-8.88172
-0.290804
-8.88811
-0.237344
-8.94397
-0.18527
-8.82303
-0.132264
-8.9445
-0.0708622
-7.96454
-0.0136285
-5.91226
-2.31192
-0.645779
-8.91717
-0.716314
-8.92177
-0.748263
-9.23128
-0.752925
-9.09644
-0.737549
-9.23708
-0.710135
-9.1366
-0.675528
-9.16981
-0.633842
-9.09716
-0.588214
-9.09479
-0.539063
-9.02103
-0.484216
-9.01521
-0.428457
-8.96178
-0.368942
-8.94123
-0.315957
-8.9411
-0.258247
-9.00168
-0.201911
-8.87937
-0.144814
-9.0016
-0.0774023
-8.03195
-0.0150494
-5.97461
-2.32697
-0.701648
-8.78512
-0.772912
-8.85051
-0.804848
-9.19935
-0.807742
-9.09355
-0.789844
-9.25498
-0.759927
-9.16652
-0.72411
-9.20562
-0.681253
-9.14001
-0.632733
-9.14331
-0.579985
-9.07378
-0.521991
-9.0732
-0.46305
-9.02072
-0.399066
-9.00522
-0.342198
-8.99796
-0.280277
-9.0636
-0.219024
-8.94062
-0.157638
-9.06298
-0.0842638
-8.10532
-0.0160743
-6.0428
-2.34305
-0.755886
-8.64669
-0.82721
-8.77919
-0.85874
-9.16782
-0.860763
-9.09153
-0.841947
-9.2738
-0.809652
-9.19882
-0.770619
-9.24466
-0.724309
-9.18632
-0.672587
-9.19503
-0.617167
-9.1292
-0.556213
-9.13416
-0.494093
-9.08284
-0.426246
-9.07306
-0.365891
-9.05832
-0.300042
-9.12945
-0.235066
-9.0056
-0.170337
-9.12771
-0.0906713
-8.18499
-0.0166023
-6.11687
-2.35965
-0.813244
-8.50487
-0.883494
-8.70894
-0.912549
-9.13876
-0.912165
-9.09191
-0.891187
-9.29478
-0.856788
-9.23321
-0.816595
-9.28485
-0.768889
-9.23403
-0.714417
-9.2495
-0.655478
-9.18814
-0.591911
-9.19772
-0.527078
-9.14767
-0.454788
-9.14536
-0.390701
-9.12241
-0.32127
-9.19888
-0.252062
-9.0748
-0.183204
-9.19657
-0.0978371
-8.27035
-0.0169164
-6.19779
-2.37657
-0.859977
-8.36302
-0.936532
-8.63238
-0.966711
-9.10858
-0.965058
-9.09356
-0.941843
-9.31799
-0.904159
-9.2709
-0.86036
-9.32865
-0.80943
-9.28496
-0.752096
-9.30684
-0.690555
-9.24968
-0.623985
-9.26429
-0.556643
-9.21502
-0.480792
-9.22121
-0.413872
-9.18933
-0.341733
-9.27102
-0.269487
-9.14705
-0.196117
-9.26994
-0.105085
-8.36139
-0.0182024
-6.28467
-2.39477
-0.903316
-8.2167
-0.980991
-8.55471
-1.01064
-9.07893
-1.00787
-9.09633
-0.985589
-9.34028
-0.946634
-9.30985
-0.902149
-9.37314
-0.849693
-9.33742
-0.790333
-9.3662
-0.725953
-9.31406
-0.656709
-9.33354
-0.586398
-9.28533
-0.507357
-9.30025
-0.437027
-9.25966
-0.362731
-9.34532
-0.28663
-9.22315
-0.207894
-9.34868
-0.110966
-8.45831
-0.0167178
-6.37892
-2.41149
6.71395
-7.65722
-7.27343
6.00388
-7.84463
5.22817
-8.30322
4.5811
-8.44926
3.95066
-8.70984
3.39837
-8.75756
2.90696
-8.88173
2.48602
-8.91647
2.11084
-8.99102
1.79776
-9.00098
1.51347
-9.04924
1.28805
-9.0599
1.09402
-9.10622
0.922649
-9.08829
0.711309
-9.13398
0.603789
-9.11563
0.39342
-9.13831
0.30346
-8.36835
0.194212
-6.26967
-2.21727
3.69976
-7.4832
-3.87379
3.49959
-7.64446
3.20194
-8.00557
2.93049
-8.17781
2.60428
-8.38363
2.32259
-8.47586
2.03887
-8.59802
1.78483
-8.66243
1.53649
-8.74268
1.32892
-8.79341
1.13749
-8.85781
0.972242
-8.89466
0.817665
-8.95164
0.6911
-8.96172
0.559843
-9.00272
0.461689
-9.01748
0.306347
-8.98296
0.227385
-8.28939
-0.0304818
-6.01181
-2.24776
2.40307
-7.53173
-2.35454
2.46098
-7.70237
2.38301
-7.9276
2.27576
-8.07056
2.11001
-8.21788
1.95241
-8.31827
1.77368
-8.41928
1.60827
-8.49702
1.44032
-8.57474
1.28443
-8.63751
1.12556
-8.69894
0.976582
-8.74568
0.815637
-8.79069
0.678014
-8.8241
0.544937
-8.86964
0.423805
-8.89635
0.317804
-8.87696
0.21698
-8.18857
0.0385086
-5.83333
-2.20925
1.40976
-7.66873
-1.27276
1.49725
-7.78986
1.48298
-7.91333
1.44197
-8.02955
1.36613
-8.14205
1.2768
-8.22894
1.17106
-8.31354
1.05856
-8.38452
0.94474
-8.46092
0.835389
-8.52816
0.722287
-8.58584
0.615989
-8.63938
0.512057
-8.68676
0.41818
-8.73022
0.327489
-8.77895
0.253603
-8.82246
0.176928
-8.80029
0.130609
-8.14225
0.0810195
-5.78374
-2.12823
0.810296
-7.78164
-0.69739
0.892598
-7.87216
0.944387
-7.96512
0.968099
-8.05326
0.952349
-8.1263
0.913037
-8.18962
0.858907
-8.25941
0.799318
-8.32493
0.725742
-8.38734
0.645233
-8.44765
0.559491
-8.5001
0.475112
-8.555
0.393256
-8.60491
0.311565
-8.64853
0.226787
-8.69417
0.145601
-8.74127
0.0602108
-8.7149
0.044535
-8.12657
0.0527723
-5.79198
-2.07545
0.398846
-7.89435
-0.286137
0.484533
-7.95785
0.527012
-8.0076
0.529593
-8.05584
0.508253
-8.10496
0.480686
-8.16206
0.442748
-8.22148
0.404724
-8.2869
0.361064
-8.34368
0.308083
-8.39467
0.253717
-8.44574
0.194326
-8.49561
0.130748
-8.54133
0.0670363
-8.58482
0.00281638
-8.62995
-0.0558173
-8.68264
-0.111664
-8.65905
-0.0924168
-8.14582
0.0194948
-5.90389
-2.05596
0.115172
-7.96321
-0.0463026
0.159888
-8.00256
0.187975
-8.03569
0.211916
-8.07978
0.229438
-8.12248
0.2347
-8.16732
0.225255
-8.21203
0.19769
-8.25934
0.156743
-8.30273
0.110981
-8.34891
0.0583831
-8.39314
-0.00288704
-8.43434
-0.0626401
-8.48157
-0.123435
-8.52403
-0.1795
-8.57389
-0.241545
-8.6206
-0.293579
-8.60702
-0.255349
-8.18405
-0.0517505
-6.10749
-2.10771
-0.0942414
-8.01894
0.149969
-0.05074
-8.04606
-0.0185658
-8.06786
-0.00091202
-8.09744
0.000945207
-8.12433
-0.0130062
-8.15337
-0.0329108
-8.19213
-0.0590951
-8.23316
-0.0901479
-8.27168
-0.131207
-8.30785
-0.176911
-8.34743
-0.226023
-8.38523
-0.277927
-8.42967
-0.334789
-8.46716
-0.401959
-8.50672
-0.475157
-8.5474
-0.523695
-8.55848
-0.479403
-8.22834
-0.178386
-6.40851
-2.2861
-0.224175
-8.05026
0.255496
-0.203698
-8.06654
-0.189836
-8.08172
-0.183528
-8.10374
-0.181722
-8.12614
-0.184102
-8.15099
-0.193544
-8.18268
-0.214886
-8.21181
-0.243465
-8.2431
-0.281943
-8.26937
-0.326304
-8.30307
-0.381135
-8.3304
-0.444172
-8.36663
-0.515144
-8.39619
-0.587571
-8.43429
-0.668345
-8.46662
-0.733961
-8.49286
-0.694111
-8.26819
-0.330836
-6.77178
-2.61693
-0.311178
-8.07116
0.332079
-0.29659
-8.08113
-0.284787
-8.09353
-0.279986
-8.10854
-0.281058
-8.12507
-0.288812
-8.14323
-0.30563
-8.16587
-0.335802
-8.18164
-0.374632
-8.20427
-0.418014
-8.22599
-0.467257
-8.25383
-0.520918
-8.27674
-0.581175
-8.30638
-0.648331
-8.32904
-0.721497
-8.36112
-0.799172
-8.38895
-0.877932
-8.4141
-0.88275
-8.26337
-0.541274
-7.11326
-3.15821
-0.355286
-8.07791
0.362027
-0.352549
-8.08387
-0.352857
-8.09322
-0.358813
-8.10259
-0.368149
-8.11573
-0.384071
-8.12731
-0.409041
-8.1409
-0.436045
-8.15464
-0.467355
-8.17296
-0.504662
-8.18868
-0.55024
-8.20825
-0.602843
-8.22414
-0.668212
-8.24101
-0.741989
-8.25526
-0.829201
-8.27391
-0.932181
-8.28597
-1.044
-8.30229
-1.07954
-8.22783
-0.790922
-7.40188
-3.94913
-0.380331
-8.07851
0.380936
-0.382065
-8.08213
-0.386424
-8.08886
-0.394631
-8.09438
-0.405849
-8.10451
-0.421948
-8.11121
-0.442252
-8.12059
-0.469919
-8.12697
-0.504143
-8.13874
-0.544692
-8.14813
-0.593675
-8.15927
-0.649406
-8.1684
-0.714063
-8.17635
-0.783355
-8.18597
-0.867142
-8.19013
-0.960446
-8.19266
-1.0854
-8.17733
-1.16978
-8.14345
-0.957799
-7.61386
-4.90693
-0.380787
-8.07306
0.375338
-0.388621
-8.0743
-0.398491
-8.07899
-0.411441
-8.08143
-0.427818
-8.08814
-0.44762
-8.09141
-0.470625
-8.09759
-0.496003
-8.10159
-0.52551
-8.10923
-0.559656
-8.11399
-0.598546
-8.12038
-0.644464
-8.12249
-0.695628
-8.12519
-0.758213
-8.12338
-0.830546
-8.11779
-0.910152
-8.11306
-0.989252
-8.09823
-1.07364
-8.05906
-0.917929
-7.76958
-5.82486
-0.350132
-8.06312
0.340187
-0.360611
-8.06382
-0.37224
-8.06736
-0.384377
-8.0693
-0.399134
-8.07338
-0.414193
-8.07635
-0.431191
-8.08059
-0.45052
-8.08226
-0.473985
-8.08577
-0.502615
-8.08536
-0.534766
-8.08823
-0.572866
-8.08439
-0.612838
-8.08521
-0.662586
-8.07363
-0.709169
-8.07121
-0.777122
-8.04511
-0.836651
-8.0387
-0.900746
-7.99496
-0.790373
-7.87995
-6.61523
-0.284001
-8.05352
0.274405
-0.294219
-8.0536
-0.305979
-8.0556
-0.318749
-8.05652
-0.334046
-8.05808
-0.350859
-8.05954
-0.368738
-8.06271
-0.387884
-8.06312
-0.408021
-8.06563
-0.429641
-8.06374
-0.453408
-8.06446
-0.478945
-8.05885
-0.506141
-8.05802
-0.53551
-8.04426
-0.567238
-8.03948
-0.597476
-8.01487
-0.632362
-8.00382
-0.662916
-7.96441
-0.60809
-7.93478
-7.22332
-0.20991
-8.0436
0.199984
-0.219512
-8.044
-0.230333
-8.04478
-0.240795
-8.04606
-0.250581
-8.0483
-0.261884
-8.04824
-0.275289
-8.04931
-0.28947
-8.04894
-0.305791
-8.04931
-0.321957
-8.04757
-0.33911
-8.04731
-0.354721
-8.04324
-0.372038
-8.0407
-0.383667
-8.03263
-0.396286
-8.02686
-0.396507
-8.01465
-0.394458
-8.00587
-0.374329
-7.98454
-0.347769
-7.96134
-7.57109
-0.129481
-8.0336
0.119485
-0.139213
-8.03427
-0.149248
-8.03474
-0.1603
-8.03501
-0.172527
-8.03607
-0.184508
-8.03626
-0.196478
-8.03733
-0.208497
-8.03692
-0.220589
-8.03722