/*--------------------------------*- C++ -*----------------------------------*\
  =========                 |
  \\      /  F ield         | OpenFOAM: The Open Source CFD Toolbox
   \\    /   O peration     | Website:  https://openfoam.org
    \\  /    A nd           | Version:  9
     \\/     M anipulation  |
\*---------------------------------------------------------------------------*/
FoamFile
{
    format      ascii;
    class       surfaceScalarField;
    location    "4.9";
    object      phi;
}
// * * * * * * * * * * * * * * * * * * * * * * * * * * * * * * * * * * * * * //

dimensions      [0 3 -1 0 0 0 0];

internalField   nonuniform List<scalar> 
92080
(
-0.00646112
-0.540617
0.547078
-0.0361522
-1.06094
1.09063
-0.0834049
-1.15046
1.19771
-0.130879
-1.13023
1.1777
-0.177428
-1.11162
1.15816
-0.22359
-1.09292
1.13908
-0.269103
-1.07603
1.12154
-0.313349
-1.05921
1.10346
-0.35743
-1.04332
1.0874
-0.401094
-1.0288
1.07247
-0.444376
-1.01503
1.05831
-0.48711
-1.00268
1.04542
-0.529053
-0.990403
1.03235
-0.570142
-0.978813
1.0199
-0.610388
-0.96699
1.00724
-0.649621
-0.95601
0.995243
-0.687286
-0.944555
0.98222
-0.725011
-0.932566
0.970292
-0.762398
-0.921206
0.958592
-0.913803
0.946604
-0.795199
-0.00794828
-0.532669
-0.0397444
-1.02914
-0.0885706
-1.10163
-0.137819
-1.08098
-0.186237
-1.0632
-0.233597
-1.04556
-0.28053
-1.0291
-0.326862
-1.01288
-0.372406
-0.997773
-0.417263
-0.983947
-0.461811
-0.97048
-0.505642
-0.958852
-0.548573
-0.947473
-0.590729
-0.936656
-0.631771
-0.925948
-0.672169
-0.915613
-0.71108
-0.905643
-0.747257
-0.896389
-0.780644
-0.887819
-0.879933
-0.814514
-0.00986093
-0.522808
-0.0452767
-0.993724
-0.0950568
-1.05185
-0.144719
-1.03132
-0.193919
-1.014
-0.242473
-0.997007
-0.290035
-0.981537
-0.336579
-0.966334
-0.38262
-0.951732
-0.427954
-0.938613
-0.472953
-0.925481
-0.517819
-0.913985
-0.562393
-0.902899
-0.606086
-0.892963
-0.648643
-0.883391
-0.690149
-0.874107
-0.731613
-0.864179
-0.773634
-0.854369
-0.814471
-0.846982
-0.841028
-0.853375
-0.0101298
-0.512678
-0.0511348
-0.952719
-0.101527
-1.00146
-0.151363
-0.981482
-0.201073
-0.964287
-0.250833
-0.947247
-0.300422
-0.931948
-0.348756
-0.918
-0.396769
-0.903719
-0.443641
-0.891742
-0.489905
-0.879217
-0.535579
-0.868311
-0.580672
-0.857806
-0.625788
-0.847847
-0.670439
-0.83874
-0.713573
-0.830973
-0.754576
-0.823176
-0.794689
-0.814256
-0.835603
-0.806068
-0.799595
-0.877036
-0.00645318
-0.506225
-0.0506418
-0.90853
-0.10374
-0.94836
-0.156547
-0.928674
-0.207706
-0.913128
-0.257659
-0.897295
-0.308167
-0.881441
-0.358069
-0.868098
-0.407265
-0.854523
-0.455807
-0.843199
-0.503385
-0.831639
-0.550388
-0.821308
-0.59669
-0.811504
-0.642442
-0.802094
-0.688266
-0.792916
-0.73475
-0.784489
-0.78067
-0.777256
-0.825099
-0.769827
-0.868119
-0.763048
-0.756767
-0.910947
-0.00233225
-0.503892
-0.0499832
-0.86088
-0.105993
-0.89235
-0.160505
-0.874162
-0.214415
-0.859218
-0.266523
-0.845187
-0.31764
-0.830324
-0.367905
-0.817833
-0.417888
-0.804539
-0.467311
-0.793776
-0.515904
-0.783047
-0.564325
-0.772886
-0.611864
-0.763966
-0.658758
-0.755199
-0.704717
-0.746958
-0.749986
-0.73922
-0.795144
-0.732097
-0.840651
-0.72432
-0.885932
-0.717767
-0.711991
-0.930709
0.00062158
-0.504514
-0.0469345
-0.813323
-0.105418
-0.833867
-0.16246
-0.817121
-0.218141
-0.803537
-0.271829
-0.791499
-0.324605
-0.777548
-0.376307
-0.766131
-0.427454
-0.753391
-0.47841
-0.742821
-0.528333
-0.733123
-0.577815
-0.723404
-0.626744
-0.715037
-0.675267
-0.706677
-0.723655
-0.69857
-0.771953
-0.690922
-0.819006
-0.685044
-0.864879
-0.678448
-0.910943
-0.671703
-0.666233
-0.9567
0.00084675
-0.505361
-0.0503377
-0.762139
-0.111245
-0.77296
-0.169148
-0.759217
-0.225315
-0.74737
-0.28023
-0.736584
-0.334191
-0.723587
-0.38687
-0.713452
-0.437836
-0.702425
-0.489065
-0.691592
-0.539
-0.683188
-0.588686
-0.673718
-0.638192
-0.665531
-0.686599
-0.65827
-0.734396
-0.650773
-0.782641
-0.642678
-0.831512
-0.636173
-0.879421
-0.630538
-0.926722
-0.624403
-0.618788
-0.974167
-0.00197449
-0.503386
-0.0549318
-0.709182
-0.114653
-0.713238
-0.173295
-0.700575
-0.231119
-0.689547
-0.28639
-0.681313
-0.34051
-0.669468
-0.39433
-0.659632
-0.446523
-0.650233
-0.498681
-0.639434
-0.550698
-0.631172
-0.601253
-0.623163
-0.65177
-0.615014
-0.702124
-0.607916
-0.75105
-0.601847
-0.798844
-0.594884
-0.847049
-0.587968
-0.895179
-0.582408
-0.942836
-0.576747
-0.571284
-0.990339
-0.0115196
-0.491867
-0.0647569
-0.655944
-0.123453
-0.654542
-0.18162
-0.642408
-0.239346
-0.63182
-0.295038
-0.625622
-0.348586
-0.615919
-0.402016
-0.606201
-0.453924
-0.598326
-0.504798
-0.588559
-0.556349
-0.579621
-0.607275
-0.572237
-0.657629
-0.564659
-0.708218
-0.557327
-0.758576
-0.551489
-0.807867
-0.545593
-0.856408
-0.539427
-0.904794
-0.534021
-0.952457
-0.529084
-0.524083
-0.999658
-0.0212509
-0.470616
-0.0784827
-0.598713
-0.138062
-0.594962
-0.193805
-0.586665
-0.25074
-0.574885
-0.308073
-0.568289
-0.362521
-0.561471
-0.416352
-0.55237
-0.469213
-0.545464
-0.520037
-0.537736
-0.570525
-0.529132
-0.621359
-0.521403
-0.671265
-0.514753
-0.721114
-0.507478
-0.771271
-0.501332
-0.820627
-0.496238
-0.869403
-0.490651
-0.917861
-0.485564
-0.965727
-0.481218
-0.476683
-1.01313
-0.0290823
-0.441534
-0.0862266
-0.541568
-0.144287
-0.536902
-0.200591
-0.530362
-0.256621
-0.518856
-0.313766
-0.511143
-0.369584
-0.505653
-0.424141
-0.497813
-0.478589
-0.491015
-0.531554
-0.484771
-0.582504
-0.478182
-0.632766
-0.471141
-0.682579
-0.46494
-0.731052
-0.459005
-0.779824
-0.45256
-0.828614
-0.447447
-0.876905
-0.44236
-0.925261
-0.437208
-0.973603
-0.432875
-0.428656
-1.02163
-0.0364346
-0.405099
-0.0948124
-0.483191
-0.153786
-0.477929
-0.210754
-0.473393
-0.265851
-0.463759
-0.322419
-0.454575
-0.378381
-0.449691
-0.432547
-0.443647
-0.485978
-0.437584
-0.538673
-0.432076
-0.590665
-0.42619
-0.641283
-0.420524
-0.691797
-0.414426
-0.741358
-0.409444
-0.790113
-0.403805
-0.838983
-0.398578
-0.887139
-0.394204
-0.934861
-0.389485
-0.98219
-0.385546
-0.381382
-1.02946
-0.0415041
-0.363595
-0.0991404
-0.425554
-0.157863
-0.419206
-0.215075
-0.416182
-0.269533
-0.409301
-0.324792
-0.399316
-0.380269
-0.394214
-0.435418
-0.388499
-0.490218
-0.382783
-0.544048
-0.378246
-0.597572
-0.372666
-0.650083
-0.368013
-0.701959
-0.362549
-0.753278
-0.358124
-0.803261
-0.353822
-0.852533
-0.349306
-0.901502
-0.345235
-0.949919
-0.341068
-0.998025
-0.33744
-0.333685
-1.04572
-0.0444792
-0.319116
-0.103437
-0.366596
-0.162596
-0.360047
-0.222006
-0.356772
-0.27799
-0.353317
-0.331967
-0.345339
-0.387169
-0.339013
-0.441589
-0.334079
-0.496127
-0.328245
-0.550241
-0.324132
-0.603081
-0.319826
-0.65519
-0.315904
-0.706272
-0.311468
-0.75722
-0.307176
-0.807889
-0.303154
-0.857752
-0.299442
-0.907202
-0.295785
-0.956069
-0.292202
-1.00484
-0.288671
-0.285273
-1.05325
-0.0459086
-0.273207
-0.107156
-0.305349
-0.168102
-0.299101
-0.23008
-0.294794
-0.291129
-0.292268
-0.348706
-0.287761
-0.404651
-0.283068
-0.458852
-0.279878
-0.511889
-0.275208
-0.564667
-0.271355
-0.617436
-0.267057
-0.669585
-0.263755
-0.720714
-0.260339
-0.77124
-0.25665
-0.821305
-0.253089
-0.871312
-0.249434
-0.9207
-0.246398
-0.969641
-0.24326
-1.01779
-0.240523
-0.237479
-1.06558
-0.0432938
-0.229913
-0.104134
-0.244509
-0.164034
-0.239201
-0.221466
-0.237361
-0.280625
-0.233109
-0.338549
-0.229838
-0.394719
-0.226897
-0.45099
-0.223607
-0.506159
-0.220039
-0.560144
-0.21737
-0.613503
-0.213698
-0.666721
-0.210537
-0.719281
-0.207779
-0.770974
-0.204957
-0.821632
-0.202431
-0.871844
-0.199222
-0.921844
-0.196398
-0.971822
-0.193282
-1.02171
-0.19064
-0.187858
-1.07133
-0.0566912
-0.173222
-0.111499
-0.189701
-0.170692
-0.180008
-0.229674
-0.17838
-0.289476
-0.173306
-0.348011
-0.171303
-0.405436
-0.169472
-0.462117
-0.166927
-0.516796
-0.16536
-0.571497
-0.162669
-0.624254
-0.160941
-0.676626
-0.158165
-0.728439
-0.155966
-0.780169
-0.153227
-0.831484
-0.151117
-0.881876
-0.148831
-0.931682
-0.146591
-0.980716
-0.144249
-1.02938
-0.141972
-0.139383
-1.07786
-0.0657705
-0.107452
-0.122072
-0.133399
-0.180829
-0.121251
-0.240173
-0.119036
-0.296238
-0.117241
-0.349952
-0.11759
-0.403771
-0.115652
-0.457382
-0.113316
-0.510155
-0.112587
-0.563849
-0.108975
-0.616839
-0.10795
-0.669704
-0.1053
-0.721888
-0.103782
-0.773552
-0.101562
-0.824957
-0.0997122
-0.876082
-0.0977049
-0.926649
-0.096024
-0.976759
-0.0941386
-1.02616
-0.0925693
-0.0906609
-1.07488
-0.066322
-0.0411296
-0.138863
-0.0608578
-0.193511
-0.0666038
-0.248542
-0.0640048
-0.300668
-0.0651152
-0.353592
-0.0646649
-0.407873
-0.0613714
-0.461625
-0.0595643
-0.516332
-0.0578801
-0.569336
-0.0559705
-0.623078
-0.0542092
-0.67569
-0.0526877
-0.728212
-0.0512603
-0.77966
-0.0501141
-0.83069
-0.0486825
-0.880691
-0.0477033
-0.930604
-0.0461113
-0.979514
-0.0452283
-1.02834
-0.0437387
-1.07611
-0.0428945
0.0299787
-0.369555
0.339576
0.0776421
-1.02172
0.974061
0.106526
-1.53304
1.50416
0.109192
-1.67016
1.66749
0.106301
-1.66211
1.665
0.101283
-1.63709
1.64211
0.0967344
-1.61216
1.6167
0.0925428
-1.59023
1.59442
0.088781
-1.5697
1.57346
0.0846594
-1.54934
1.55347
0.080592
-1.52985
1.53391
0.0762492
-1.5113
1.51565
0.0715931
-1.49311
1.49777
0.0670272
-1.47514
1.4797
0.0626265
-1.45707
1.46147
0.0581839
-1.43598
1.44043
0.0534445
-1.41414
1.41888
0.0485798
-1.39147
1.39634
0.0433662
-1.37288
1.37809
-1.35444
0.0378386
1.35996
0.023301
-0.392856
0.0636755
-1.0621
0.0900898
-1.55946
0.0914396
-1.67151
0.0867135
-1.65738
0.0812093
-1.63159
0.0757296
-1.60668
0.0698502
-1.58435
0.0634109
-1.56326
0.0570446
-1.54298
0.0506012
-1.5234
0.0442943
-1.505
0.0383855
-1.4872
0.0323792
-1.46913
0.0261628
-1.45085
0.0196463
-1.42947
0.012784
-1.40728
0.00572657
-1.38441
-0.00123045
-1.36592
-1.34798
-0.0076818
0.0228779
-0.415734
0.0577027
-1.09692
0.0749668
-1.57672
0.0720181
-1.66856
0.0644098
-1.64977
0.0566427
-1.62382
0.0485596
-1.59859
0.0405337
-1.57632
0.0328783
-1.55561
0.0252877
-1.53539
0.0177327
-1.51585
0.0099156
-1.49718
0.00184399
-1.47913
-0.00650578
-1.46078
-0.0150245
-1.44234
-0.023507
-1.42099
-0.031893
-1.3989
-0.0400902
-1.37622
-0.0482953
-1.35772
-1.33977
-0.0565133
0.023114
-0.438848
0.0554562
-1.12927
0.0661809
-1.58744
0.0587347
-1.66111
0.0480404
-1.63908
0.0375896
-1.61337
0.0271949
-1.5882
0.0168835
-1.56601
0.00651685
-1.54524
-0.00401638
-1.52485
-0.0144276
-1.50544
-0.0247064
-1.4869
-0.0346225
-1.46922
-0.0440993
-1.45131
-0.0532795
-1.43316
-0.0622521
-1.41201
-0.0714514
-1.3897
-0.0808546
-1.36681
-0.0904142
-1.34816
-1.33023
-0.0999462
0.0196066
-0.458454
0.0464006
-1.15606
0.0516522
-1.5927
0.0415368
-1.651
0.0293268
-1.62687
0.0172549
-1.6013
0.0051956
-1.57614
-0.0070051
-1.55381
-0.0192378
-1.53301
-0.0310436
-1.51305
-0.0427746
-1.49371
-0.0545062
-1.47517
-0.0660783
-1.45764
-0.0778849
-1.4395
-0.0898441
-1.4212
-0.101804
-1.40005
-0.113643
-1.37786
-0.125458
-1.355
-0.137355
-1.33626
-1.31902
-0.148566
0.018625
-0.477079
0.0420184
-1.17945
0.0418661
-1.59254
0.0279595
-1.63709
0.0122955
-1.6112
-0.00289731
-1.58611
-0.0181056
-1.56093
-0.0329575
-1.53896
-0.0472331
-1.51873
-0.0616307
-1.49865
-0.075703
-1.47963
-0.089791
-1.46108
-0.103739
-1.44369
-0.117124
-1.42611
-0.130042
-1.40828
-0.142326
-1.38777
-0.154333
-1.36585
-0.16621
-1.34312
-0.178252
-1.32422
-1.3069
-0.190375
0.0160339
-0.493113
0.0352815
-1.1987
0.030454
-1.58772
0.0143621
-1.621
-0.00262202
-1.59422
-0.0194177
-1.56931
-0.0358908
-1.54446
-0.0525468
-1.5223
-0.0695076
-1.50177
-0.08612
-1.48204
-0.102564
-1.46319
-0.118749
-1.4449
-0.134505
-1.42794
-0.14995
-1.41067
-0.165067
-1.39316
-0.179857
-1.37298
-0.194452
-1.35126
-0.209089
-1.32849
-0.224059
-1.30925
-1.29176
-0.239202
0.0145826
-0.507696
0.0291451
-1.21326
0.0191121
-1.57768
-0.000715557
-1.60117
-0.0208609
-1.57407
-0.0406414
-1.54953
-0.0603734
-1.52473
-0.0796597
-1.50302
-0.0980922
-1.48334
-0.116225
-1.4639
-0.133934
-1.44548
-0.151606
-1.42723
-0.169256
-1.41029
-0.186661
-1.39326
-0.203646
-1.37618
-0.219966
-1.35666
-0.235749
-1.33547
-0.251229
-1.313
-0.266851
-1.29363
-1.27582
-0.282784
0.01278
-0.520476
0.0240051
-1.22449
0.0106684
-1.56435
-0.0109635
-1.57954
-0.032964
-1.55207
-0.054712
-1.52778
-0.0760514
-1.50339
-0.0974391
-1.48163
-0.118924
-1.46185
-0.140375
-1.44245
-0.16147
-1.42439
-0.182283
-1.40641
-0.202725
-1.38985
-0.222419
-1.37357
-0.241422
-1.35717
-0.259605
-1.33848
-0.277301
-1.31778
-0.295038
-1.29527
-0.313262
-1.2754
-1.2575
-0.33158
0.0108356
-0.531311
0.0169979
-1.23065
-0.00159264
-1.54576
-0.026786
-1.55434
-0.0516155
-1.52724
-0.0759791
-1.50342
-0.099957
-1.47941
-0.123653
-1.45793
-0.146696
-1.43881
-0.169032
-1.42012
-0.190974
-1.40245
-0.212497
-1.38489
-0.233893
-1.36845
-0.255306
-1.35216
-0.276173
-1.33631
-0.296329
-1.31832
-0.315748
-1.29836
-0.334722
-1.27629
-0.354127
-1.256
-1.23807
-0.373559
0.00951633
-0.540828
0.0123918
-1.23353
-0.00865104
-1.52471
-0.0356236
-1.52737
-0.0627733
-1.50009
-0.089557
-1.47664
-0.115961
-1.45301
-0.142098
-1.43179
-0.167821
-1.41309
-0.193568
-1.39437
-0.218796
-1.37722
-0.243839
-1.35985
-0.268566
-1.34372
-0.292699
-1.32802
-0.316297
-1.31271
-0.338705
-1.29591
-0.36015
-1.27691
-0.381151
-1.25529
-0.402354
-1.23479
-1.21689
-0.423542
0.00724158
-0.548069
0.0053367
-1.23162
-0.0211388
-1.49824
-0.0509511
-1.49756
-0.0801856
-1.47086
-0.109036
-1.44779
-0.137129
-1.42491
-0.165301
-1.40362
-0.193258
-1.38513
-0.220496
-1.36713
-0.247371
-1.35034
-0.273521
-1.33369
-0.299281
-1.31796
-0.324724
-1.30258
-0.349592
-1.28784
-0.373724
-1.27178
-0.396803
-1.25383
-0.419316
-1.23278
-0.442448
-1.21166
-1.19425
-0.465086
0.00622591
-0.554295
0.00131043
-1.22671
-0.0270381
-1.46989
-0.0597541
-1.46484
-0.0918525
-1.43876
-0.123678
-1.41596
-0.155027
-1.39356
-0.185707
-1.37294
-0.215661
-1.35518
-0.245311
-1.33748
-0.274469
-1.32119
-0.303476
-1.30469
-0.332187
-1.28925
-0.360646
-1.27412
-0.388645
-1.25984
-0.415576
-1.24485
-0.441081
-1.22833
-0.465241
-1.20862
-0.489534
-1.18737
-1.16989
-0.513888
0.00367724
-0.557972
-0.00630764
-1.21672
-0.038239
-1.43796
-0.0728193
-1.43026
-0.106449
-1.40513
-0.139557
-1.38285
-0.171987
-1.36113
-0.204614
-1.34032
-0.237222
-1.32257
-0.269404
-1.3053
-0.300982
-1.28961
-0.331937
-1.27373
-0.36251
-1.25868
-0.392462
-1.24417
-0.421973
-1.23033
-0.450679
-1.21614
-0.478187
-1.20082
-0.504376
-1.18243
-0.530373
-1.16137
-1.14427
-0.555998
0.00244029
-0.560413
-0.0107433
-1.20354
-0.0449305
-1.40377
-0.082485
-1.39271
-0.11931
-1.36831
-0.155829
-1.34633
-0.191459
-1.3255
-0.226444
-1.30533
-0.26093
-1.28808
-0.294889
-1.27134
-0.328543
-1.25595
-0.361495
-1.24078
-0.394133
-1.22604
-0.426703
-1.2116
-0.458926
-1.19811
-0.490497
-1.18457
-0.520617
-1.1707
-0.548624
-1.15442
-0.576305
-1.13369
-1.11658
-0.603991
0.000170903
-0.560584
-0.0170892
-1.18628
-0.0537863
-1.36707
-0.09259
-1.35391
-0.130261
-1.33063
-0.167573
-1.30902
-0.204613
-1.28846
-0.241252
-1.26869
-0.277666
-1.25167
-0.313934
-1.23508
-0.349745
-1.22014
-0.385322
-1.2052
-0.420372
-1.19099
-0.454821
-1.17715
-0.488981
-1.16395
-0.522587
-1.15097
-0.555377
-1.13791
-0.585915
-1.12388
-0.614712
-1.1049
-1.08784
-0.643448
-0.00090332
-0.55968
-0.0210644
-1.16612
-0.0605194
-1.32762
-0.102266
-1.31216
-0.143112
-1.28979
-0.18329
-1.26884
-0.222502
-1.24925
-0.261744
-1.22945
-0.300735
-1.21268
-0.339117
-1.19669
-0.377163
-1.1821
-0.414436
-1.16793
-0.451492
-1.15394
-0.488183
-1.14046
-0.524613
-1.12752
-0.560586
-1.11499
-0.595921
-1.10258
-0.6293
-1.09051
-0.660395
-1.0738
-1.05711
-0.691134
-0.00266506
-0.557015
-0.025466
-1.14332
-0.0666638
-1.28642
-0.109627
-1.26919
-0.151564
-1.24785
-0.19325
-1.22716
-0.234386
-1.20811
-0.274439
-1.1894
-0.314327
-1.17279
-0.354071
-1.15695
-0.393683
-1.14248
-0.432782
-1.12883
-0.471636
-1.11508
-0.510269
-1.10183
-0.548703
-1.08908
-0.586977
-1.07672
-0.624999
-1.06455
-0.661671
-1.05383
-0.695384
-1.04009
-1.02406
-0.728429
-0.00462665
-0.552389
-0.0298145
-1.11813
-0.0734304
-1.2428
-0.118318
-1.22431
-0.162108
-1.20406
-0.205066
-1.1842
-0.247674
-1.16551
-0.290272
-1.1468
-0.33257
-1.13049
-0.374499
-1.11502
-0.416279
-1.1007
-0.457801
-1.08731
-0.498614
-1.07427
-0.539124
-1.06132
-0.579564
-1.04864
-0.619885
-1.0364
-0.660742
-1.0237
-0.701481
-1.01309
-0.739754
-1.00182
-0.988008
-0.775806
-0.00531054
-0.0328108
-0.0779063
-0.124512
-0.170409
-0.215524
-0.259486
-0.302828
-0.345923
-0.388475
-0.430868
-0.472762
-0.514683
-0.5561
-0.597506
-0.638662
-0.68014
-0.722942
-0.766166
-0.807569
-0.0145331
-11.6502
11.7026
-0.0407913
-10.8187
10.8449
-0.059015
-10.5284
10.5466
-0.0613424
-10.1272
10.1296
-0.0617292
-9.86911
9.8695
-0.0572219
-9.54685
9.54234
-0.0527824
-9.35881
9.35437
-0.0471761
-9.16229
9.15668
-0.0417476
-9.03124
9.02581
-0.0353752
-8.91258
8.90621
-0.0290851
-8.83089
8.8246
-0.0234932
-8.75857
8.75298
-0.0168976
-8.71986
8.71326
-0.0106189
-8.66296
8.65668
-0.00151983
-8.62559
8.61649
0.00521197
-8.56759
8.56086
0.0139678
-8.30414
8.29538
0.0140748
-7.2754
7.27529
0.00910859
-5.21626
5.22122
-2.14224
2.15135
-0.0602276
-11.5977
-0.0930745
-10.7858
-0.114188
-10.5072
-0.1181
-10.1233
-0.117285
-9.86993
-0.110615
-9.55351
-0.103908
-9.36551
-0.0954827
-9.17071
-0.0868338
-9.03988
-0.0772832
-8.92213
-0.0675978
-8.84057
-0.0585434
-8.76762
-0.0482465
-8.73015
-0.0377987
-8.67341
-0.0241905
-8.6392
-0.0127213
-8.57906
0.00170824
-8.31857
0.00810798
-7.2818
0.00794384
-5.21609
-2.13429
-0.125216
-11.529
-0.161818
-10.7492
-0.183758
-10.4853
-0.186359
-10.1207
-0.182798
-9.87349
-0.173714
-9.5626
-0.163501
-9.37573
-0.151042
-9.18317
-0.13801
-9.05292
-0.124024
-8.93612
-0.109419
-8.85518
-0.0954338
-8.78161
-0.0803766
-8.74521
-0.0651708
-8.68861
-0.0469066
-8.65746
-0.0306457
-8.59532
-0.010526
-8.33869
0.00214172
-7.29447
0.0068759
-5.22083
-2.12742
-0.172434
-11.4565
-0.214774
-10.7069
-0.239423
-10.4607
-0.243762
-10.1164
-0.238991
-9.87826
-0.227469
-9.57412
-0.21471
-9.38848
-0.199522
-9.19836
-0.183363
-9.06908
-0.166168
-8.95332
-0.148285
-8.87306
-0.130837
-8.79906
-0.111859
-8.76419
-0.0923791
-8.70809
-0.0696278
-8.68021
-0.048622
-8.61633
-0.022757
-8.36455
-0.00414256
-7.31308
0.0053411
-5.23031
-2.12208
-0.235393
-11.3697
-0.281202
-10.6611
-0.307236
-10.4346
-0.310576
-10.1131
-0.303685
-9.88515
-0.28996
-9.58785
-0.273669
-9.40477
-0.254492
-9.21754
-0.234027
-9.08954
-0.21241
-8.97493
-0.189528
-8.89594
-0.167228
-8.82136
-0.143774
-8.78764
-0.119671
-8.73219
-0.0923376
-8.70755
-0.066584
-8.64208
-0.0350764
-8.39606
-0.0103615
-7.33779
0.00400184
-5.24468
-2.11808
-0.283898
-11.2761
-0.334861
-10.6101
-0.363224
-10.4063
-0.368374
-10.1079
-0.360163
-9.89336
-0.343668
-9.60434
-0.324761
-9.42368
-0.302949
-9.23935
-0.279338
-9.11315
-0.254528
-8.99974
-0.228431
-8.92204
-0.202589
-8.8472
-0.17515
-8.81508
-0.146843
-8.7605
-0.115105
-8.73928
-0.0844744
-8.67271
-0.047207
-8.43333
-0.0165411
-7.36846
0.00252122
-5.26374
-2.11555
-0.344575
-11.1708
-0.399816
-10.5549
-0.428967
-10.3771
-0.433024
-10.1038
-0.423601
-9.90278
-0.405095
-9.62285
-0.382536
-9.44624
-0.35685
-9.26503
-0.329006
-9.141
-0.299884
-9.02886
-0.268965
-8.95296
-0.238482
-8.87768
-0.206798
-8.84677
-0.173991
-8.79331
-0.137633
-8.77564
-0.102219
-8.70812
-0.0594543
-8.47609
-0.0227281
-7.40519
0.00117374
-5.28764
-2.11438
-0.39349
-11.0601
-0.453499
-10.4949
-0.48468
-10.3459
-0.490219
-10.0983
-0.479606
-9.9134
-0.458538
-9.64392
-0.433314
-9.47146
-0.404876
-9.29347
-0.373936
-9.17194
-0.341718
-9.06108
-0.307579
-8.9871
-0.273466
-8.91179
-0.237768
-8.88246
-0.200863
-8.83021
-0.160674
-8.81583
-0.120216
-8.74858
-0.0717773
-8.52453
-0.0290865
-7.44788
-0.000660966
-5.31606
-2.11504
-0.452937
-10.9387
-0.516258
-10.4316
-0.547715
-10.3145
-0.552506
-10.0935
-0.541104
-9.9248
-0.518259
-9.66676
-0.489523
-9.5002
-0.457335
-9.32566
-0.422229
-9.20704
-0.385734
-9.09758
-0.347116
-9.02572
-0.308634
-8.95028
-0.268877
-8.92222
-0.227525
-8.87157
-0.183652
-8.8597
-0.138675
-8.79356
-0.0849408
-8.57826
-0.0357967
-7.49702
-0.00212124
-5.34974
-2.11716
-0.50231
-10.81
-0.569522
-10.3643
-0.602457
-10.2815
-0.608462
-10.0875
-0.595892
-9.93737
-0.570934
-9.69172
-0.5396
-9.53153
-0.504504
-9.36076
-0.466395
-9.24515
-0.426802
-9.13717
-0.385026
-9.06749
-0.342991
-8.99231
-0.299522
-8.96569
-0.254259
-8.91683
-0.206236
-8.90773
-0.157284
-8.84251
-0.0986357
-8.63691
-0.0434608
-7.5522
-0.00431283
-5.38889
-2.12148
-0.560098
-10.6734
-0.629366
-10.2951
-0.662912
-10.248
-0.668369
-10.0821
-0.65486
-9.95088
-0.628383
-9.7182
-0.593898
-9.56602
-0.555012
-9.39964
-0.512911
-9.28725
-0.469349
-9.18073
-0.423337
-9.1135
-0.377024
-9.03863
-0.329657
-9.01306
-0.280413
-8.96607
-0.228431
-8.95971
-0.175086
-8.89586
-0.111804
-8.70019
-0.0510202
-7.61298
-0.00629764
-5.43361
-2.12777
-0.608873
-10.5296
-0.680864
-10.2231
-0.716163
-10.2127
-0.722952
-10.0753
-0.707922
-9.96591
-0.679721
-9.7464
-0.642827
-9.60291
-0.601008
-9.44146
-0.555944
-9.33232
-0.509254
-9.22742
-0.460153
-9.1626
-0.410356
-9.08842
-0.359374
-9.06404
-0.306359
-9.01909
-0.250297
-9.01577
-0.192847
-8.95331
-0.125474
-8.76757
-0.0590766
-7.67938
-0.00849826
-5.48419
-2.13627
-0.665174
-10.3783
-0.738647
-10.1496
-0.774035
-10.1773
-0.780378
-10.0689
-0.764327
-9.98196
-0.73436
-9.77636
-0.694631
-9.64264
-0.649305
-9.48679
-0.600425
-9.38119
-0.550046
-9.2778
-0.496964
-9.21569
-0.443013
-9.14237
-0.388428
-9.11862
-0.331666
-9.07585
-0.271645
-9.07579
-0.210032
-9.01492
-0.138389
-8.83921
-0.0663657
-7.7514
-0.0103772
-5.54018
-2.14665
-0.712636
-10.2217
-0.788342
-10.0739
-0.825872
-10.1398
-0.833515
-10.0613
-0.815662
-9.99981
-0.78401
-9.80802
-0.741944
-9.68471
-0.693818
-9.53491
-0.642028
-9.43298
-0.588498
-9.33133
-0.532326
-9.27186
-0.474965
-9.19973
-0.416844
-9.17675
-0.35655
-9.13614
-0.292685
-9.13966
-0.226883
-9.08072
-0.151453
-8.91464
-0.0737568
-7.8291
-0.0122248
-5.60171
-2.15887
-0.767322
-10.0584
-0.843612
-9.99761
-0.880576
-10.1028
-0.888017
-10.0538
-0.869234
-10.0186
-0.835538
-9.84171
-0.790917
-9.72933
-0.739609
-9.58622
-0.684218
-9.48838
-0.627147
-9.3884
-0.567325
-9.33168
-0.506137
-9.26092
-0.444669
-9.23821
-0.380891
-9.19992
-0.313158
-9.20739
-0.243346
-9.15053
-0.163096
-8.99489
-0.07993
-7.91226
-0.0142608
-5.66738
-2.17313
-0.81401
-9.8878
-0.892995
-9.91863
-0.931158
-10.0646
-0.939554
-10.0454
-0.918925
-10.0392
-0.883214
-9.87742
-0.836324
-9.77622
-0.782366
-9.64018
-0.724215
-9.54653
-0.664064
-9.44855
-0.601121
-9.39462
-0.536523
-9.32552
-0.47146
-9.30328
-0.40447
-9.26691
-0.333332
-9.27853
-0.259593
-9.22427
-0.174874
-9.07961
-0.0863941
-8.00074
-0.0165948
-5.73718
-2.18973
-0.866238
-9.7127
-0.944314
-9.84055
-0.981241
-10.0277
-0.989796
-10.0369
-0.969075
-10.0599
-0.931307
-9.91519
-0.881933
-9.82559
-0.825155
-9.69696
-0.763745
-9.60794
-0.700264
-9.51204
-0.634192
-9.46069
-0.566072
-9.39364
-0.497591
-9.37176
-0.427467
-9.33704
-0.353018
-9.35298
-0.275569
-9.30172
-0.186395
-9.16878
-0.0929901
-8.09415
-0.0195009
-5.81067
-2.20923
-0.916227
-9.5249
-0.996485
-9.76029
-1.03128
-9.99293
-1.03926
-10.0289
-1.01654
-10.0827
-0.976541
-9.95519
-0.92502
-9.87711
-0.865701
-9.75628
-0.801659
-9.67198
-0.73521
-9.57849
-0.665985
-9.52992
-0.594689
-9.46494
-0.522684
-9.44376
-0.449176
-9.41054
-0.372049
-9.43011
-0.29121
-9.38256
-0.198086
-9.26191
-0.0996656
-8.19257
-0.0226014
-5.88773
-2.23183
-0.959508
-9.3412
-1.04752
-9.67228
-1.08084
-9.9596
-1.08831
-10.0214
-1.06529
-10.1057
-1.02291
-9.99757
-0.968519
-9.93151
-0.906276
-9.81852
-0.839056
-9.7392
-0.769301
-9.64824
-0.697113
-9.60211
-0.622544
-9.53951
-0.547409
-9.5189
-0.470784
-9.48717
-0.39066
-9.51023
-0.306431
-9.46679
-0.209744
-9.3586
-0.106763
-8.29555
-0.0256292
-5.96886
-2.25746
-0.996718
-9.15205
-1.08905
-9.57995
-1.1219
-9.92675
-1.12866
-10.0147
-1.10673
-10.1276
-1.06329
-10.041
-1.00803
-9.98677
-0.943402
-9.88314
-0.874263
-9.80834
-0.801608
-9.7209
-0.726694
-9.67702
-0.649002
-9.6172
-0.570538
-9.59736
-0.490689
-9.56702
-0.408709
-9.59221
-0.321103
-9.55439
-0.220614
-9.45908
-0.113094
-8.40307
-0.0272463
-6.05471
-2.28471
7.81489
-8.30327
-8.66366
6.78414
-8.5492
5.78198
-8.92459
4.86318
-9.09588
4.0106
-9.27504
3.28531
-9.31572
2.6802
-9.38166
2.1826
-9.38554
1.77523
-9.40097
1.44655
-9.39222
1.16876
-9.39923
0.949551
-9.39799
0.770748
-9.41856
0.622499
-9.41877
0.485185
-9.4549
0.378442
-9.44765
0.304663
-9.38531
0.217905
-8.31631
0.0702492
-5.90706
-2.21446
4.50021
-7.9568
-4.84668
4.1029
-8.15189
3.65699
-8.47868
3.20524
-8.64413
2.75206
-8.82186
2.35251
-8.91617
1.98727
-9.01641
1.67792
-9.07619
1.41079
-9.13384
1.19151
-9.17293
1.00448
-9.2122
0.852692
-9.2462
0.714828
-9.28069
0.598048
-9.30199
0.48041
-9.33726
0.381922
-9.34916
0.256402
-9.25979
0.136404
-8.19631
-0.0689161
-5.70174
-2.28337
3.14769
-7.87804
-3.22645
3.04976
-8.05396
2.83122
-8.26014
2.6065
-8.41941
2.36156
-8.57691
2.12499
-8.67961
1.88526
-8.77668
1.66185
-8.85278
1.45036
-8.92235
1.25839
-8.98097
1.07728
-9.03108
0.911411
-9.08033
0.750868
-9.12015
0.608712
-9.15983
0.473399
-9.20194
0.350096
-9.22586
0.223204
-9.13289
0.134722
-8.10783
0.0249522
-5.59197
-2.25842
1.95693
-7.91042
-1.92455
1.94581
-8.04285
1.86863
-8.18296
1.76589
-8.31667
1.62739
-8.4384
1.48471
-8.53693
1.33033
-8.6223
1.18265
-8.7051
1.03612
-8.77582
0.898233
-8.84309
0.766944
-8.89979
0.646421
-8.95981
0.535345
-9.00907
0.436716
-9.0612
0.353007
-9.11824
0.277347
-9.1502
0.18034
-9.03589
0.138043
-8.06553
0.0868751
-5.5408
-2.17155
1.20745
-7.97702
-1.14085
1.24759
-8.08299
1.26439
-8.19975
1.23797
-8.29025
1.16752
-8.36796
1.0919
-8.46131
1.00551
-8.53591
0.911435
-8.61103
0.813509
-8.67789
0.709118
-8.73869
0.610094
-8.80077
0.506953
-8.85667
0.408375
-8.9105
0.312504
-8.96533
0.211499
-9.01723
0.122399
-9.0611
0.0447806
-8.95827
0.0543607
-8.07511
0.0543827
-5.54082
-2.11716
0.80666
-8.04953
-0.734157
0.851393
-8.12772
0.832149
-8.18051
0.80202
-8.26012
0.768508
-8.33445
0.712682
-8.40549
0.652552
-8.47578
0.58228
-8.54075
0.504463
-8.60008
0.424053
-8.65828
0.339454
-8.71617
0.253415
-8.77063
0.170286
-8.82737
0.0867748
-8.88182
0.00624275
-8.9367
-0.0752452
-8.97961
-0.131194
-8.90232
-0.0693966
-8.13691
0.0324533
-5.64267
-2.08471
0.436024
-8.09425
-0.391298
0.456571
-8.14827
0.47806
-8.202
0.483267
-8.26532
0.476212
-8.32739
0.452598
-8.38187
0.410268
-8.43345
0.358144
-8.48863
0.297883
-8.53981
0.233878
-8.59428
0.165394
-8.64769
0.0960768
-8.70131
0.0217169
-8.75301
-0.0570993
-8.80301
-0.140074
-8.85372
-0.225398
-8.89429
-0.282571
-8.84515
-0.210116
-8.20937
-0.00538622
-5.8474
-2.0901
0.262116
-8.13351
-0.222857
0.285853
-8.172
0.299193
-8.21534
0.290908
-8.25704
0.264706
-8.30119
0.235044
-8.35221
0.200775
-8.39918
0.15322
-8.44108
0.105085
-8.49168
0.0481313
-8.53733
-0.00999806
-8.58956
-0.0778766
-8.63344
-0.149927
-8.68096
-0.225738
-8.72719
-0.305158
-8.7743
-0.378702
-8.82074
-0.424058
-8.79979
-0.348777
-8.28465
-0.066775
-6.1294
-2.15687
0.0998505
-8.14772
-0.0856441
0.105411
-8.17757
0.104077
-8.21401
0.100147
-8.25311
0.0902763
-8.29132
0.0657762
-8.32771
0.0330246
-8.36643
-0.00395312
-8.4041
-0.0483776
-8.44725
-0.0971104
-8.48859
-0.155357
-8.53131
-0.219329
-8.56946
-0.286275
-8.61401
-0.358805
-8.65466
-0.425226
-8.70788
-0.498752
-8.74722
-0.556337
-8.74221
-0.478451
-8.36253
-0.1504
-6.45745
-2.30727
0.0347673
-8.1591
-0.0233852
0.0413704
-8.18417
0.0395838
-8.21222
0.0257969
-8.23932
0.00274467
-8.26827
-0.030344
-8.29462
-0.0704187
-8.32636
-0.112188
-8.36233
-0.158303
-8.40114
-0.210825
-8.43607
-0.267836
-8.4743
-0.326705
-8.51059
-0.388802
-8.55191
-0.458174
-8.58529
-0.535244
-8.63081
-0.610943
-8.67152
-0.663678
-8.68947
-0.603941
-8.42227
-0.263293
-6.7981
-2.57057
-0.0109309
-8.15582
0.00765422
-0.0213514
-8.17375
-0.038897
-8.19467
-0.0632457
-8.21497
-0.0911638
-8.24035
-0.121243
-8.26454
-0.153653
-8.29395
-0.19462
-8.32136
-0.242848
-8.35291
-0.298013
-8.38091
-0.359045
-8.41327
-0.426273
-8.44337
-0.500566
-8.47762
-0.576729
-8.50913
-0.661164
-8.54638
-0.747393
-8.58529
-0.817435
-8.61943
-0.792191
-8.44751
-0.439577
-7.15072
-3.01014
-0.0213433
-8.14434
0.00985668
-0.0374788
-8.15761
-0.0568132
-8.17534
-0.0804909
-8.1913
-0.108844
-8.212
-0.14123
-8.23216
-0.181303
-8.25387
-0.226465
-8.2762
-0.279421
-8.29996
-0.338176
-8.32215
-0.404231
-8.34721
-0.474673
-8.37293
-0.552346
-8.39995
-0.632689
-8.42879
-0.720032
-8.45903
-0.819926
-8.48539
-0.929174
-8.51018
-0.944719
-8.43197
-0.640708
-7.45473
-3.65085
-0.00476273
-8.12429
-0.0152783
-0.0273478
-8.13503
-0.0530276
-8.14966
-0.0809661
-8.16336
-0.112995
-8.17997
-0.149777
-8.19538
-0.191833
-8.21182
-0.241101
-8.22693
-0.296269
-8.24479
-0.35647
-8.26195
-0.422779
-8.2809
-0.495967
-8.29974
-0.576944
-8.31897
-0.665356
-8.34037
-0.76853
-8.35586
-0.87578
-8.37814
-1.00113
-8.38483
-1.07356
-8.35954
-0.855542
-7.67274
-4.50639
0.0280378
-8.1047
-0.047634
0.00499514
-8.11198
-0.02217
-8.12249
-0.052948
-8.13258
-0.089519
-8.1434
-0.131545
-8.15335
-0.177174
-8.16619
-0.227495
-8.17661
-0.282615
-8.18967
-0.342441
-8.20212
-0.407749
-8.2156
-0.479806
-8.22768
-0.560254
-8.23852
-0.64745
-8.25318
-0.747142
-8.25617
-0.850242
-8.27504
-0.96634
-8.26873
-1.05568
-8.2702
-0.888817
-7.83961
-5.39521
0.0431986
-8.08164
-0.0662561
0.0178753
-8.08666
-0.0100176
-8.0946
-0.041566
-8.10103
-0.0751896
-8.10977
-0.11231
-8.11623
-0.153083
-8.12542
-0.19587
-8.13382
-0.242028
-8.14351
-0.29355
-8.1506
-0.349257
-8.15989
-0.410872
-8.16606
-0.476323
-8.17307
-0.550174
-8.17933
-0.623573
-8.18277
-0.710769
-8.18785
-0.799195
-8.18031
-0.889854
-8.17954
-0.776487
-7.95298
-6.1717
0.0620981
-8.06192
-0.081824
0.0411447
-8.06571
0.0166949
-8.07015
-0.0113611
-8.07298
-0.0418734
-8.07926
-0.0742245
-8.08388
-0.10913
-8.09051
-0.149594
-8.09336
-0.192305
-8.1008
-0.23922
-8.10369
-0.289103
-8.11001
-0.344132
-8.11104
-0.399973
-8.11723
-0.463292
-8.11601
-0.525252
-8.12081
-0.600012
-8.11309
-0.664345
-8.11598
-0.750626
-8.09325
-0.683757
-8.01985
-6.85545
0.0589442
-8.04619
-0.0746646
0.0407832
-8.04755
0.0201453
-8.04951
-0.00318124
-8.04965
-0.0295982
-8.05284
-0.0581905
-8.05529
-0.0888433
-8.05986
-0.121159