/*--------------------------------*- C++ -*----------------------------------*\
  =========                 |
  \\      /  F ield         | OpenFOAM: The Open Source CFD Toolbox
   \\    /   O peration     | Website:  https://openfoam.org
    \\  /    A nd           | Version:  9
     \\/     M anipulation  |
\*---------------------------------------------------------------------------*/
FoamFile
{
    format      ascii;
    class       volVectorField;
    location    "10.2";
    object      U;
}
// * * * * * * * * * * * * * * * * * * * * * * * * * * * * * * * * * * * * * //

dimensions      [0 1 -1 0 0 0 0];

internalField   nonuniform List<vector> 
46400
(
(9.83919 -9.5687 -7.24794e-19)
(19.627 -18.9182 7.34085e-19)
(21.0106 -21.1656 -7.82795e-20)
(20.2122 -21.2604 4.84701e-20)
(19.5437 -21.2623 -6.13527e-20)
(18.8254 -21.3304 -7.4403e-19)
(18.1917 -21.346 3.7952e-19)
(17.5556 -21.3583 -5.76858e-20)
(16.972 -21.3894 4.67111e-20)
(16.4298 -21.4079 -3.68215e-20)
(15.9016 -21.451 2.79375e-20)
(15.433 -21.4845 0)
(14.9567 -21.5234 -1.70611e-19)
(14.5075 -21.5378 1.80399e-19)
(14.0594 -21.5449 7.45838e-20)
(13.6383 -21.5441 -5.23891e-20)
(13.2011 -21.5406 -4.6837e-20)
(12.8163 -21.4288 4.82918e-21)
(12.4078 -21.4115 1.12425e-19)
(11.9557 -21.6766 -9.82118e-20)
(10.1109 -9.02706 0)
(19.7335 -17.675 -4.00794e-20)
(20.947 -19.6068 0)
(20.1435 -19.7542 -4.6707e-19)
(19.4808 -19.797 3.44178e-19)
(18.7579 -19.8848 -8.37115e-20)
(18.1005 -19.9315 0)
(17.4801 -19.9993 5.76855e-20)
(16.8849 -20.0682 -4.67099e-20)
(16.3335 -20.1357 3.68201e-20)
(15.8047 -20.214 -1.01534e-19)
(15.3082 -20.2785 5.47271e-20)
(14.8256 -20.3413 4.748e-21)
(14.3987 -20.4118 0)
(13.9573 -20.4451 -2.46821e-23)
(13.5628 -20.4858 5.46943e-21)
(13.1984 -20.5642 0)
(12.8633 -20.5561 -2.4177e-19)
(12.5241 -20.5355 -7.86562e-20)
(12.0388 -20.7158 2.48436e-19)
(10.3043 -8.45945 -2.71151e-19)
(19.7253 -16.447 2.19986e-19)
(20.6655 -17.9791 -3.06884e-19)
(19.8291 -18.1952 -1.85249e-19)
(19.1868 -18.3024 1.81873e-19)
(18.4913 -18.4592 0)
(17.8621 -18.5617 8.59595e-20)
(17.2496 -18.6583 -8.63674e-20)
(16.6602 -18.7553 -6.89019e-20)
(16.1348 -18.8523 7.48434e-20)
(15.6197 -18.9663 1.58964e-19)
(15.1664 -19.0727 1.13574e-20)
(14.7234 -19.2013 -1.59911e-19)
(14.3025 -19.2931 0)
(13.8886 -19.4033 3.11422e-19)
(13.472 -19.4374 -3.06705e-19)
(13.0668 -19.5157 0)
(12.7439 -19.5432 -2.07493e-20)
(12.408 -19.6989 3.83115e-20)
(11.989 -19.9689 -4.31779e-19)
(10.4354 -7.87428 1.09966e-19)
(19.586 -15.1622 -5.47875e-20)
(20.3359 -16.4817 -7.61877e-20)
(19.5103 -16.6962 7.53481e-20)
(18.8794 -16.8502 -2.34498e-21)
(18.2142 -17.0449 2.07029e-20)
(17.5818 -17.2131 9.72456e-20)
(16.9912 -17.3549 -3.44377e-19)
(16.4177 -17.5154 3.15036e-19)
(15.8904 -17.6376 -2.52543e-20)
(15.3788 -17.7947 0)
(14.9087 -17.9128 3.6445e-20)
(14.439 -18.0521 -4.10526e-20)
(14.0286 -18.1723 0)
(13.6368 -18.3247 4.97652e-19)
(13.2723 -18.4505 -4.15721e-19)
(12.9072 -18.5693 0)
(12.5464 -18.5747 5.69641e-20)
(12.1953 -18.6624 7.67861e-20)
(11.7799 -18.9714 5.89234e-19)
(10.5676 -7.29376 0)
(19.2942 -13.7375 0)
(19.9213 -14.954 -8.61122e-20)
(19.0991 -15.2308 3.78402e-20)
(18.4442 -15.4183 -1.88611e-19)
(17.7737 -15.6315 1.66845e-19)
(17.1591 -15.8464 0)
(16.5883 -16.0345 2.54258e-19)
(16.0136 -16.2295 -3.00061e-19)
(15.4969 -16.4009 -8.47592e-20)
(14.9985 -16.592 -8.79647e-20)
(14.55 -16.7705 0)
(14.1328 -16.9633 6.56149e-19)
(13.7235 -17.125 -6.45892e-19)
(13.3203 -17.275 0)
(12.9443 -17.4282 -7.7065e-19)
(12.6088 -17.6265 6.85901e-19)
(12.3096 -17.7633 7.10982e-19)
(11.9597 -17.8906 -7.66688e-19)
(11.533 -18.2001 0)
(10.7829 -6.69776 0)
(18.9083 -12.3958 0)
(19.3319 -13.4297 0)
(18.511 -13.7471 -3.89343e-20)
(17.9011 -14.0305 0)
(17.2805 -14.3019 0)
(16.6712 -14.5624 0)
(16.1155 -14.7917 -1.07818e-19)
(15.5664 -15.0226 0)
(15.0765 -15.2305 8.47637e-20)
(14.587 -15.4427 -2.72384e-20)
(14.1532 -15.6434 -9.58802e-19)
(13.7155 -15.8542 7.11325e-19)
(13.3318 -16.0521 -9.78702e-19)
(12.9648 -16.2641 7.2888e-19)
(12.5777 -16.3969 0)
(12.2095 -16.5629 -8.70517e-19)
(11.9021 -16.696 7.39521e-19)
(11.5921 -16.8863 0)
(11.1886 -17.2186 -1.23182e-19)
(11.0167 -6.17694 3.05507e-19)
(18.3363 -11.0062 1.0707e-19)
(18.6778 -11.9993 4.07017e-19)
(17.8886 -12.3379 -4.40191e-19)
(17.2509 -12.6597 -4.59817e-19)
(16.6477 -12.9655 9.29304e-19)
(16.052 -13.268 -1.09688e-18)
(15.5372 -13.5484 8.85e-20)
(15.0116 -13.829 3.54262e-19)
(14.519 -14.0722 0)
(14.0508 -14.3326 -2.61771e-20)
(13.6029 -14.5512 -2.50033e-20)
(13.2028 -14.806 1.17539e-19)
(12.8199 -15.026 1.02393e-18)
(12.4756 -15.2913 -9.12261e-19)
(12.1539 -15.5266 -1.17868e-18)
(11.8181 -15.7475 1.02371e-18)
(11.505 -15.8963 -1.94236e-20)
(11.1957 -16.0907 -1.3473e-19)
(10.8104 -16.4383 -9.5608e-19)
(11.3068 -5.65795 -1.37038e-19)
(17.7078 -9.78492 4.13509e-20)
(17.7813 -10.5822 -1.55994e-19)
(17.0815 -11.0104 -6.20121e-19)
(16.4789 -11.4053 4.09864e-19)
(15.9395 -11.7645 0)
(15.3854 -12.1064 9.16665e-19)
(14.8765 -12.4175 -4.36416e-19)
(14.3683 -12.718 3.07106e-19)
(13.9132 -12.9909 1.67039e-19)
(13.4727 -13.2758 -3.12766e-19)
(13.0681 -13.527 7.5214e-19)
(12.6678 -13.7864 1.64261e-19)
(12.2745 -14.0038 -9.18201e-19)
(11.9167 -14.2408 2.57701e-18)
(11.5773 -14.4701 -1.05452e-18)
(11.266 -14.7319 1.34789e-18)
(10.9803 -14.9363 -8.78952e-19)
(10.6838 -15.1468 2.88338e-19)
(10.3213 -15.5266 1.40299e-18)
(11.5293 -5.19219 7.3484e-19)
(16.8421 -8.53429 -1.50088e-19)
(16.8086 -9.32528 -3.6611e-20)
(16.1699 -9.73802 3.55213e-19)
(15.5975 -10.2039 1.63314e-19)
(15.0961 -10.6044 1.95783e-19)
(14.5516 -10.9889 -8.99115e-19)
(14.0841 -11.3263 5.52749e-19)
(13.6405 -11.6977 -1.67355e-19)
(13.1863 -11.9789 -1.67039e-19)
(12.7695 -12.3102 -1.66402e-19)
(12.3622 -12.5783 -1.88026e-19)
(11.9978 -12.891 -3.50109e-19)
(11.665 -13.1634 1.22858e-18)
(11.3296 -13.4414 -1.71246e-18)
(11.0041 -13.6663 -1.7861e-19)
(10.6968 -13.9228 1.8234e-20)
(10.4266 -14.1411 -1.30423e-18)
(10.1571 -14.3613 9.76784e-19)
(9.80499 -14.7321 -1.56222e-18)
(11.6057 -4.79162 7.27899e-19)
(15.9519 -7.41082 -1.87909e-18)
(15.6954 -8.13411 1.2504e-18)
(15.2201 -8.62963 -1.94729e-19)
(14.6572 -9.10008 -2.25635e-19)
(14.2062 -9.54512 8.75358e-19)
(13.7668 -9.98657 -1.05458e-18)
(13.3037 -10.3325 0)
(12.8756 -10.7225 8.26138e-19)
(12.4587 -11.036 -8.12393e-19)
(12.0587 -11.3643 -5.94893e-19)
(11.6837 -11.6526 7.72959e-19)
(11.3207 -11.9445 1.85868e-19)
(10.9686 -12.214 -7.74214e-19)
(10.6767 -12.5197 1.80784e-19)
(10.3865 -12.7918 9.29668e-19)
(10.0816 -13.0521 -1.65434e-18)
(9.82452 -13.2876 1.09297e-18)
(9.57243 -13.5313 -1.56472e-20)
(9.26849 -13.8897 -1.53534e-18)
(11.4387 -4.30855 1.06689e-18)
(14.8594 -6.36543 -7.28758e-19)
(14.5879 -7.094 4.93816e-19)
(14.107 -7.57267 1.26981e-20)
(13.6089 -8.11235 -9.82433e-19)
(13.1819 -8.55104 -9.29238e-19)
(12.7639 -9.06896 1.16116e-18)
(12.3366 -9.44293 -6.88575e-19)
(11.958 -9.88414 9.16804e-19)
(11.594 -10.2397 0)
(11.2306 -10.6143 2.06527e-20)
(10.8917 -10.9359 2.09133e-19)
(10.5575 -11.2686 2.24883e-19)
(10.236 -11.5435 -2.20876e-19)
(9.92557 -11.8373 0)
(9.66047 -12.1197 2.12894e-19)
(9.39943 -12.4044 0)
(9.15181 -12.6374 3.95016e-19)
(8.92486 -12.8955 1.9345e-18)
(8.65812 -13.2392 -8.24464e-21)
(11.0738 -3.77228 6.12102e-19)
(13.783 -5.41263 -1.26609e-19)
(13.4024 -6.12169 -1.91481e-18)
(13.0448 -6.63747 1.07204e-18)
(12.5867 -7.18538 2.53252e-19)
(12.1445 -7.63094 -2.50464e-19)
(11.8085 -8.15511 -1.03816e-18)
(11.4412 -8.57568 7.76265e-19)
(11.075 -9.00456 0)
(10.7323 -9.38868 0)
(10.3906 -9.76523 -1.20276e-18)
(10.0684 -10.1018 9.54297e-19)
(9.78336 -10.4554 -2.2489e-19)
(9.49284 -10.7599 -6.95837e-19)
(9.21026 -11.0596 3.46905e-21)
(8.96657 -11.345 1.55426e-18)
(8.72485 -11.6471 -8.68517e-19)
(8.49945 -11.8936 6.42874e-19)
(8.28997 -12.1672 -1.03682e-18)
(8.05321 -12.5106 0)
(10.5172 -3.21933 -5.49377e-19)
(12.5296 -4.52974 8.93966e-19)
(12.1726 -5.23836 1.55139e-19)
(11.8561 -5.80993 1.52944e-19)
(11.4163 -6.40183 0)
(11.0454 -6.85163 1.14403e-18)
(10.7192 -7.3796 -1.12394e-18)
(10.3917 -7.83677 1.42791e-19)
(10.0839 -8.28535 0)
(9.79714 -8.70742 1.06194e-18)
(9.52262 -9.10131 -9.10028e-19)
(9.23843 -9.46797 1.0199e-18)
(8.9717 -9.81252 -1.0037e-18)
(8.73015 -10.1603 9.78535e-19)
(8.47507 -10.4648 -8.39826e-19)
(8.21804 -10.7595 -9.38376e-19)
(8.00679 -11.0602 1.84338e-18)
(7.79221 -11.3351 -7.89469e-19)
(7.58261 -11.5981 1.13505e-19)
(7.37704 -11.9415 9.4695e-19)
(9.78013 -2.67547 -4.47737e-19)
(11.3608 -3.74118 4.89385e-19)
(10.9127 -4.40316 -1.55165e-19)
(10.5894 -4.9706 -1.52955e-19)
(10.345 -5.62053 0)
(9.99615 -6.10007 0)
(9.66465 -6.61795 0)
(9.39684 -7.09332 -2.94478e-19)
(9.10007 -7.55875 -1.15448e-18)
(8.83617 -7.99186 2.2657e-18)
(8.57773 -8.42638 -1.24646e-18)
(8.3199 -8.81674 -1.39213e-19)
(8.07122 -9.1975 0)
(7.83803 -9.56052 0)
(7.62699 -9.9105 -2.53873e-19)
(7.40246 -10.2298 0)
(7.18703 -10.5282 9.70249e-19)
(7.00269 -10.8256 -1.19367e-18)
(6.83401 -11.1077 -1.0408e-18)
(6.63449 -11.4487 1.0066e-18)
(8.88824 -2.15016 4.712e-19)
(10.1136 -3.07875 8.72108e-19)
(9.63788 -3.75501 1.63935e-21)
(9.34902 -4.27978 3.54053e-22)
(9.08281 -4.96211 1.69428e-19)
(8.81173 -5.52458 -4.83771e-19)
(8.54519 -6.05151 0)
(8.27414 -6.55485 -4.70322e-19)
(8.03744 -7.02209 1.59076e-19)
(7.79189 -7.46584 5.9841e-19)
(7.58021 -7.89908 5.81948e-19)
(7.37989 -8.30496 -4.33338e-19)
(7.1563 -8.6813 1.11221e-18)
(6.97161 -9.04827 -9.55494e-19)
(6.7902 -9.40445 1.19264e-18)
(6.62109 -9.7542 -2.21759e-18)
(6.44076 -10.0722 1.02281e-18)
(6.24777 -10.3704 1.21792e-19)
(6.08035 -10.6551 9.68764e-19)
(5.91013 -10.9957 -1.05254e-18)
(7.81299 -1.6403 1.65493e-19)
(8.78424 -2.52867 -1.78334e-19)
(8.37678 -3.26661 7.24983e-19)
(8.00963 -3.74057 -7.11638e-19)
(7.72483 -4.37584 -3.47914e-19)
(7.57752 -4.96828 -8.48058e-19)
(7.35613 -5.51753 2.87598e-21)
(7.1525 -6.06074 6.55187e-19)
(6.97542 -6.54287 -1.56146e-19)
(6.74615 -7.00916 0)
(6.57346 -7.42455 0)
(6.39788 -7.8678 0)
(6.21825 -8.24886 0)
(6.0254 -8.63202 5.41727e-21)
(5.83374 -8.97331 0)
(5.67858 -9.33159 1.33004e-19)
(5.52792 -9.66244 5.28084e-19)
(5.39307 -9.98727 -1.55219e-18)
(5.24829 -10.279 1.14545e-18)
(5.08945 -10.6141 -1.0847e-18)
(6.61632 -1.15254 0)
(7.29976 -2.05098 -9.81846e-20)
(7.06891 -2.8853 0)
(6.89902 -3.47203 2.75879e-19)
(6.51905 -4.00166 -1.85667e-19)
(6.36565 -4.55194 -7.08574e-19)
(6.16408 -5.06554 3.54506e-21)
(5.99918 -5.57686 6.80591e-19)
(5.88286 -6.0739 -6.60935e-19)
(5.74142 -6.57311 1.29535e-18)
(5.56859 -6.9987 -4.64146e-21)
(5.40371 -7.45048 -6.20035e-19)
(5.27821 -7.84757 6.00643e-19)
(5.14481 -8.26792 -7.35977e-19)
(5.01188 -8.62092 0)
(4.86202 -8.98817 -5.58844e-19)
(4.733 -9.31754 5.50492e-19)
(4.59479 -9.65139 0)
(4.4884 -9.95761 -1.28626e-19)
(4.36127 -10.305 0)
(5.34511 -0.79856 9.7633e-20)
(5.47956 -1.58438 9.82938e-20)
(5.48087 -2.30365 0)
(5.50603 -3.10215 3.80862e-19)
(5.32911 -3.66319 -4.71978e-19)
(5.20558 -4.2699 2.73404e-19)
(5.04579 -4.8138 -8.08594e-19)
(4.86725 -5.33586 3.51626e-19)
(4.69314 -5.80765 -8.65951e-20)
(4.57515 -6.30075 0)
(4.46222 -6.74283 -8.24839e-20)
(4.34648 -7.17742 -8.04886e-20)
(4.21189 -7.57642 -7.85397e-20)
(4.0961 -7.97516 0)
(3.99284 -8.35186 -5.8875e-19)
(3.87532 -8.7166 1.22739e-18)
(3.77643 -9.05888 -1.05564e-18)
(3.66135 -9.38987 5.52596e-19)
(3.56183 -9.6924 6.79031e-20)
(3.45331 -10.036 5.75224e-19)
(4.15003 -0.530657 -1.52466e-19)
(4.46481 -1.2706 -2.04987e-19)
(4.14483 -1.82775 4.28776e-22)
(4.16946 -2.54537 5.40772e-19)
(4.08296 -3.17476 -1.46459e-19)
(3.91489 -3.75228 -9.47054e-20)
(3.81718 -4.35372 9.19389e-20)
(3.75531 -4.90148 1.80127e-19)
(3.67174 -5.43327 8.65875e-20)
(3.56762 -5.9245 -3.40774e-19)
(3.4901 -6.40837 3.75558e-19)
(3.38559 -6.86332 8.04789e-20)
(3.30863 -7.30638 3.94957e-19)
(3.20926 -7.70722 -2.77616e-21)
(3.12362 -8.1095 3.53808e-20)
(3.04013 -8.47319 -6.63497e-19)
(2.96038 -8.83816 1.81951e-19)
(2.87682 -9.16909 0)
(2.80432 -9.48698 -3.32905e-20)
(2.71274 -9.82055 -2.93892e-19)
(2.66444 -0.386624 5.26626e-20)
(2.78216 -1.42007 -1.04932e-19)
(2.7376 -1.9372 2.05823e-19)
(2.65908 -2.6035 -5.02183e-20)
(2.68956 -3.21586 -4.99029e-20)
(2.62024 -3.81278 0)
(2.48858 -4.35969 -9.33997e-20)
(2.4456 -4.86552 1.82914e-19)
(2.34844 -5.39095 -8.95801e-20)
(2.30969 -5.8497 8.67105e-20)
(2.24724 -6.3249 -4.31845e-20)
(2.18746 -6.75645 -8.2491e-20)
(2.1571 -7.1876 1.6164e-19)
(2.09716 -7.5938 -1.57688e-19)
(2.06667 -7.98194 3.91346e-20)
(2.00875 -8.35674 2.68346e-34)
(1.96904 -8.70955 -3.65781e-20)
(1.91476 -9.05303 2.14142e-19)
(1.87067 -9.36153 -1.05417e-19)
(1.81937 -9.70044 -7.55183e-20)
(0.0420264 -8.31865 0)
(1.50971 -24.3734 7.39224e-20)
(2.24205 -37.6887 0)
(2.40575 -41.7815 9.0558e-20)
(2.37905 -41.7455 8.42519e-20)
(2.26881 -41.1724 8.03698e-20)
(2.18548 -40.5494 0)
(2.10814 -40.0162 7.21596e-20)
(2.03496 -39.55 0)
(1.95551 -39.0479 0)
(1.87305 -38.6218 -5.92742e-20)
(1.80483 -38.1664 4.50522e-21)
(1.73531 -37.7134 1.117e-19)
(1.66416 -37.2797 0)
(1.59217 -36.8497 4.87606e-20)
(1.53443 -36.3254 4.62498e-20)
(1.41764 -35.7601 4.39416e-20)
(1.39571 -35.1897 0)
(1.23951 -34.7057 -7.90607e-20)
(1.26101 -34.2425 7.76668e-20)
(0.412695 -9.30029 2.95816e-19)
(2.24701 -25.6828 -3.41587e-19)
(3.6386 -38.5469 0)
(3.701 -41.8795 -4.44928e-19)
(3.67454 -41.6657 4.25211e-19)
(3.54239 -41.0466 -7.26732e-19)
(3.43744 -40.4748 3.11338e-19)
(3.33393 -39.9101 2.08729e-19)
(3.22813 -39.3402 -9.39781e-19)
(3.12382 -38.8618 5.20897e-19)
(3.04204 -38.3756 -6.0687e-20)
(2.92693 -37.9485 4.46626e-19)
(2.84179 -37.5224 -1.68482e-20)
(2.73491 -37.0735 -4.15979e-19)
(2.6442 -36.6234 -4.87593e-20)
(2.54473 -36.0879 -4.62505e-20)
(2.42795 -35.5375 -4.39448e-20)
(2.37388 -34.9884 0)
(2.21899 -34.5615 -3.09767e-19)
(2.219 -34.1081 1.02408e-20)
(0.80953 -9.82249 -1.94979e-19)
(3.3254 -26.4952 0)
(5.06337 -38.8691 0)
(5.18536 -41.6736 -1.77814e-19)
(5.06169 -41.3051 1.69484e-19)
(4.88137 -40.679 0)
(4.71919 -40.0786 -1.48348e-19)
(4.55894 -39.5294 4.12478e-19)
(4.41884 -39.058 -4.08692e-19)
(4.27546 -38.5947 4.90455e-19)
(4.13359 -38.1364 -5.99109e-19)
(4.00512 -37.6695 0)
(3.87675 -37.229 -4.13627e-19)
(3.74991 -36.7959 -3.75851e-19)
(3.62511 -36.3643 6.77529e-19)
(3.50933 -35.8546 -7.03242e-19)
(3.35079 -35.3022 6.08839e-19)
(3.27057 -34.7459 0)
(3.05644 -34.2655 -6.79768e-19)
(3.04631 -33.7855 1.17535e-18)
(1.33097 -10.4735 9.66953e-19)
(4.29778 -27.4843 0)
(6.52298 -39.213 3.73621e-19)
(6.54625 -41.4005 5.19673e-19)
(6.40276 -40.9401 -1.00664e-18)
(6.19059 -40.3321 3.09273e-19)
(5.99669 -39.7572 1.48353e-19)
(5.8215 -39.2217 1.49297e-18)
(5.6373 -38.6827 -2.07992e-18)
(5.45644 -38.1792 -1.99641e-19)
(5.30374 -37.7376 1.05972e-18)
(5.12712 -37.3279 2.14664e-19)
(4.98107 -36.9006 -1.00936e-18)
(4.81342 -36.4706 9.85513e-19)
(4.67058 -36.0354 2.74421e-19)
(4.50143 -35.5054 -1.71498e-19)
(4.31924 -34.9472 2.46438e-19)
(4.19988 -34.3916 0)
(3.97717 -33.9656 -7.10224e-20)
(3.96472 -33.5246 0)
(1.77497 -10.9269 0)
(5.58133 -27.9432 1.50393e-18)
(7.92761 -39.1399 -1.88475e-18)
(7.99451 -40.9747 1.70646e-18)
(7.73802 -40.4318 -1.32248e-18)
(7.47438 -39.815 -3.09232e-19)
(7.21996 -39.2494 0)
(6.97398 -38.7032 7.80322e-19)
(6.76092 -38.2177 -1.03513e-18)
(6.55017 -37.7975 1.17385e-18)
(6.35036 -37.3248 -9.17085e-19)
(6.15134 -36.8695 -2.14649e-19)
(5.96594 -36.4568 9.85362e-19)
(5.77841 -36.0363 -1.70154e-18)
(5.59985 -35.6122 1.07119e-18)
(5.4193 -35.1138 -3.51481e-19)
(5.21302 -34.5829 -7.90421e-19)
(5.07266 -34.0456 1.81057e-18)
(4.807 -33.595 -1.02818e-18)
(4.77223 -33.1167 -1.22248e-18)
(2.30794 -11.4007 1.48081e-18)
(6.77389 -28.4608 1.46694e-18)
(9.37417 -38.9566 -1.47476e-18)
(9.34696 -40.3282 -3.33063e-19)
(9.06755 -39.7729 3.20608e-19)
(8.77214 -39.2075 1.16022e-18)
(8.48214 -38.6521 -1.13987e-18)
(8.22569 -38.1607 0)
(7.96762 -37.6808 9.594e-19)
(7.70775 -37.1869 -9.43422e-19)
(7.48027 -36.7921 -8.49943e-19)
(7.2464 -36.3991 8.36193e-19)
(7.03395 -35.9838 0)
(6.81251 -35.5861 0)
(6.61559 -35.1851 1.52474e-18)
(6.38877 -34.6991 -1.49446e-18)
(6.15184 -34.1522 -1.20978e-18)
(5.96209 -33.6009 1.19203e-18)
(5.67688 -33.1714 -1.09071e-18)
(5.64763 -32.7473 1.35789e-18)
(2.84643 -11.7532 -1.07708e-18)
(8.02648 -28.7306 3.96007e-19)
(10.7133 -38.608 6.57912e-20)
(10.6804 -39.7312 1.68303e-18)
(10.2983 -39.1272 0)
(9.95337 -38.5489 0)
(9.61215 -38.0308 2.09963e-18)
(9.28575 -37.512 -9.44071e-20)
(8.99494 -37.0283 -1.93584e-18)
(8.71442 -36.639 1.73778e-18)
(8.45731 -36.1853 -1.70922e-18)
(8.18658 -35.7708 0)
(7.9462 -35.3959 1.45154e-18)
(7.69738 -35.0027 -1.4287e-18)
(7.46134 -34.6068 0)
(7.21456 -34.1336 0)
(6.95348 -33.6309 0)
(6.74712 -33.1139 0)
(6.43296 -32.6911 0)
(6.38037 -32.2237 -1.31234e-19)
(3.41114 -12.0175 1.02823e-18)
(9.2492 -28.7958 -1.77278e-18)
(12.0673 -37.9587 0)
(11.9626 -38.7587 0)
(11.555 -38.2039 2.59146e-18)
(11.1806 -37.6879 1.59497e-19)
(10.8014 -37.1801 -2.36725e-18)
(10.4597 -36.7443 0)
(10.1374 -36.3307 2.21027e-19)
(9.80469 -35.8903 -2.07362e-19)
(9.50592 -35.5311 0)
(9.21513 -35.1542 1.83097e-19)
(8.93772 -34.7707 -1.55753e-18)
(8.66473 -34.4132 2.83185e-18)
(8.41646 -34.0582 -5.32556e-20)
(8.1408 -33.6315 -1.21348e-18)
(7.85872 -33.1253 -1.36475e-19)
(7.59768 -32.6055 1.2909e-19)
(7.26125 -32.1872 0)
(7.18936 -31.7521 1.18368e-19)
(3.99536 -12.2494 6.6265e-19)
(10.4823 -28.8436 5.78396e-19)
(13.309 -37.3828 -2.01943e-18)
(13.169 -38.0001 5.91717e-19)
(12.671 -37.4152 2.61584e-19)
(12.2465 -36.8881 2.29908e-18)
(11.8264 -36.4204 -3.20977e-18)
(11.4273 -35.9533 2.33623e-18)
(11.0605 -35.5042 -1.9061e-18)
(10.709 -35.1343 2.25739e-18)
(10.395 -34.7422 3.68698e-19)
(10.062 -34.3886 1.55834e-18)
(9.76662 -34.0514 -8.75174e-19)
(9.46371 -33.7017 -1.70488e-18)
(9.17434 -33.3555 1.50549e-18)
(8.87041 -32.9384 0)
(8.55192 -32.4693 3.93147e-19)
(8.27307 -31.9679 1.13442e-19)
(7.90926 -31.5561 -2.29766e-19)
(7.8259 -31.0963 1.03522e-19)
(4.58267 -12.3403 -1.25799e-18)
(11.6425 -28.5446 1.3125e-18)
(14.4894 -36.3692 -3.23061e-20)
(14.307 -36.7734 -1.15193e-18)
(13.7814 -36.2737 -1.07114e-18)
(13.3335 -35.8137 -5.13198e-19)
(12.8782 -35.3769 -2.68914e-20)
(12.4534 -35.0019 -4.47983e-19)
(12.0748 -34.6494 0)
(11.6822 -34.2932 -3.92976e-19)
(11.3196 -33.956 -3.68687e-19)
(10.9712 -33.6109 -2.15299e-20)
(10.6372 -33.2846 1.21348e-18)
(10.3129 -32.9694 -6.21946e-19)
(10.0152 -32.6646 -1.38185e-18)
(9.69857 -32.3038 1.07658e-18)
(9.3788 -31.8722 7.16e-19)
(9.05899 -31.4038 -1.20089e-18)
(8.68256 -31.0035 2.30031e-19)
(8.58125 -30.5723 1.46955e-18)
(5.18455 -12.4273 -3.02116e-18)
(12.7899 -28.3048 3.09329e-18)
(15.6374 -35.556 -3.43096e-18)
(15.3951 -35.8409 2.79804e-18)
(14.785 -35.3213 2.48939e-18)
(14.2845 -34.8586 -1.93342e-18)
(13.7978 -34.4414 -2.58473e-18)
(13.3318 -34.0504 8.41146e-20)
(12.8976 -33.6694 1.56865e-18)
(12.4769 -33.326 -1.05092e-18)
(12.1076 -33.0281 2.67929e-18)
(11.7255 -32.7308 -1.61045e-18)
(11.3721 -32.4295 -3.04886e-19)
(11.0269 -32.1406 7.93761e-19)
(10.6932 -31.8652 -2.07934e-18)
(10.3493 -31.5236 1.00019e-18)
(9.98388 -31.1068 0)
(9.63409 -30.6497 -1.70183e-18)
(9.22356 -30.2433 1.67281e-18)
(9.1048 -29.8046 -1.37011e-18)
(5.76416 -12.3783 5.74252e-19)
(13.8481 -27.7476 6.39221e-19)
(16.6054 -34.2662 2.81345e-18)
(16.3331 -34.4492 2.47395e-18)
(15.7036 -34.0256 -1.49132e-18)
(15.172 -33.6357 2.13209e-18)
(14.6613 -33.2794 -1.25631e-18)
(14.162 -32.9607 1.48291e-18)
(13.7302 -32.6666 -2.8416e-18)
(13.2919 -32.3991 1.0163e-18)
(12.8761 -32.0917 0)
(12.4763 -31.8156 0)
(12.1 -31.557 0)
(11.7253 -31.2821 -1.98968e-18)
(11.3828 -31.0351 1.95894e-18)
(11.0341 -30.7574 0)
(10.6833 -30.4101 0)
(10.3168 -30.0057 -1.89033e-19)
(9.90702 -29.6355 0)
(9.78198 -29.2166 -1.61714e-18)
(6.33969 -12.3227 -1.08799e-18)
(14.8723 -27.1985 -2.72536e-18)
(17.5809 -33.2273 -1.97492e-18)
(17.2535 -33.3125 -3.79483e-19)
(16.5786 -32.8865 2.63207e-18)
(15.9987 -32.5042 -5.15017e-19)
(15.4531 -32.1475 -8.46294e-20)
(14.9312 -31.8526 -1.77643e-18)
(14.442 -31.5568 0)
(13.9605 -31.2684 -8.94777e-19)
(13.5367 -31.0634 1.43479e-18)
(13.113 -30.8127 0)
(12.7011 -30.5691 1.93064e-18)
(12.3218 -30.3457 -1.90046e-18)
(11.9481 -30.1441 1.6932e-18)
(11.5813 -29.8917 -3.06269e-18)
(11.1864 -29.5695 1.56364e-18)
(10.7853 -29.1838 1.89022e-19)
(10.3349 -28.7928 -1.58568e-19)
(10.1842 -28.3812 1.27992e-18)
(6.88184 -12.1613 -1.44056e-18)
(15.809 -26.4362 8.30084e-20)
(18.3515 -31.7786 1.15546e-19)
(17.9662 -31.8498 3.48083e-18)
(17.287 -31.5087 3.21702e-19)
(16.674 -31.2005 -1.88403e-18)
(16.115 -30.9164 -1.33678e-18)
(15.5543 -30.6505 4.08128e-19)
(15.071 -30.4214 1.49978e-18)
(14.5955 -30.2236 -1.62126e-18)
(14.1399 -29.9809 7.84069e-19)
(13.7029 -29.7963 -2.08345e-18)
(13.2942 -29.5984 1.6199e-18)
(12.8767 -29.375 -1.61845e-18)
(12.4957 -29.1925 1.41173e-18)
(12.1227 -29.0074 1.22212e-18)
(11.748 -28.7598 -1.39303e-18)
(11.3469 -28.4531 1.09472e-18)
(10.9099 -28.1149 -1.05966e-18)
(10.756 -27.7142 -1.26083e-18)
(7.39644 -11.9645 -1.78901e-18)
(16.6705 -25.6068 -3.50008e-19)
(19.1196 -30.5041 1.75985e-18)
(18.6669 -30.4981 -1.5291e-18)
(17.9704 -30.1816 1.50158e-18)
(17.3288 -29.8956 3.53123e-19)
(16.7375 -29.6204 0)
(16.1685 -29.4222 -2.69075e-19)
(15.641 -29.2124 7.47473e-19)
(15.1154 -29.0143 -2.65543e-18)
(14.6393 -28.8667 1.87369e-18)
(14.1803 -28.6804 4.21623e-19)
(13.7234 -28.5272 2.09215e-19)
(13.3097 -28.3551 0)
(12.8964 -28.2116 2.46057e-20)
(12.5163 -28.0449 1.23043e-18)
(12.1092 -27.8442 -6.38745e-20)
(11.6879 -27.5724 2.17234e-19)
(11.214 -27.232 -1.04975e-18)
(11.0352 -26.8402 2.43866e-19)
(7.87995 -11.6905 1.62126e-18)
(17.4322 -24.6369 -2.8165e-18)
(19.7139 -29.0251 1.58752e-18)
(19.1963 -29.0301 1.36842e-18)
(18.4892 -28.7795 -8.8031e-20)
(17.8144 -28.561 -9.5447e-19)
(17.2095 -28.3309 2.55706e-19)
(16.6015 -28.1277 2.69075e-19)
(16.0668 -27.9618 0)
(15.5579 -27.8178 0)
(15.074 -27.6787 -1.53485e-18)
(14.6059 -27.5525 2.56309e-18)
(14.1666 -27.4261 -1.3955e-18)
(13.7264 -27.2944 0)
(13.3089 -27.1754 2.53528e-20)
(12.9162 -27.0682 -1.16284e-18)
(12.5237 -26.9209 1.13783e-18)
(12.1125 -26.7496 -1.26547e-19)
(11.6644 -26.4753 -9.16652e-19)
(11.4771 -26.0908 6.34265e-19)
(8.32466 -11.3677 -1.44727e-18)
(18.0833 -23.5777 1.82309e-18)
(20.2167 -27.5333 0)
(19.6474 -27.4921 0)
(18.9365 -27.2859 2.6377e-19)
(18.2486 -27.1133 -1.28108e-18)
(17.6315 -26.9411 3.11836e-20)
(17.0234 -26.8203 9.01116e-19)
(16.4708 -26.6969 -1.53838e-18)
(15.9215 -26.5896 2.92303e-18)
(15.4044 -26.4826 -1.38719e-18)
(14.9261 -26.3894 3.06862e-19)
(14.4392 -26.2959 1.21643e-18)
(13.9891 -26.1758 4.39628e-20)
(13.546 -26.1001 -7.47955e-19)
(13.1493 -26.0176 1.21704e-19)
(12.7342 -25.9238 -8.90553e-19)
(12.318 -25.7961 7.66721e-19)
(11.8538 -25.5672 2.20653e-20)
(11.6534 -25.1958 6.5222e-19)
(8.75119 -11.0177 0)
(18.652 -22.4766 8.67704e-19)
(20.6174 -26.0239 -9.55206e-19)
(19.9909 -26.0262 0)
(19.2793 -25.868 -2.63765e-19)
(18.5556 -25.7504 8.50167e-19)
(17.9124 -25.5801 -1.05428e-18)
(17.2758 -25.4647 0)
(16.6957 -25.3578 1.27316e-18)
(16.1575 -25.2815 -1.25198e-18)
(15.651 -25.2451 1.20751e-19)
(15.1554 -25.1633 -1.3872e-19)
(14.6922 -25.1268 -1.26704e-19)
(14.2425 -25.0631 -1.15735e-19)
(13.7881 -24.9883 -8.17037e-19)
(13.3835 -24.9517 1.34508e-18)
(12.974 -24.8986 -1.21982e-18)
(12.5746 -24.8662 1.10752e-18)
(12.1497 -24.7464 -4.41996e-19)
(11.9486 -24.3974 6.73848e-20)
(9.14782 -10.5677 0)
(19.0638 -21.3205 -9.96428e-19)
(20.8492 -24.3928 5.46543e-19)
(20.1567 -24.3887 6.58848e-19)
(19.4595 -24.2857 -7.27142e-20)
(18.7457 -24.2354 -6.53746e-20)
(18.1169 -24.1691 -6.82509e-19)
(17.484 -24.1101 0)
(16.9121 -24.0679 0)
(16.3524 -24.0144 0)
(15.8146 -23.9715 -1.20748e-19)
(15.3339 -23.9698 0)
(14.8329 -23.9302 -7.037e-19)
(14.3645 -23.899 6.24959e-19)
(13.8985 -23.8637 -4.97169e-19)
(13.4725 -23.8318 9.27171e-19)
(13.0365 -23.8161 -4.30992e-19)
(12.6183 -23.8 -3.67713e-19)
(12.1875 -23.7531 6.04582e-19)
(11.987 -23.414 -2.8534e-19)
(9.51008 -10.0952 0)
(19.4131 -20.1221 0)
(21.0489 -22.8563 2.25695e-19)
(20.3201 -22.9095 2.03342e-19)
(19.621 -22.8456 0)
(18.8761 -22.8243 5.40465e-19)
(18.2116 -22.7466 -5.31013e-19)
(17.5721 -22.7333 0)
(16.9701 -22.7046 7.33238e-19)
(16.4138 -22.7062 -7.21029e-19)
(15.8804 -22.709 0)
(15.3671 -22.6902 -4.74095e-19)
(14.8817 -22.7097 1.33052e-19)
(14.4232 -22.6995 3.96005e-19)
(13.947 -22.6813 0)
(13.5144 -22.6636 0)
(13.0649 -22.6692 0)
(12.6522 -22.6654 -8.60813e-20)
(12.2601 -22.6712 1.15693e-19)
(11.9679 -22.4472 0)
(0.560708 -32.8309 0)
(0.621902 -30.5273 0)
(0.0495329 -29.6832 -4.28586e-21)
(0.122952 -28.5474 -3.46809e-21)
(-0.13079 -27.7443 0)
(-0.137145 -26.8273 2.20031e-22)
(-0.167068 -26.2315 1.9514e-21)
(-0.188486 -25.6755 0)
(-0.169257 -25.287 1.0202e-21)
(-0.168489 -24.9254 0)
(-0.141131 -24.6784 -5.5949e-22)
(-0.115781 -24.4276 -1.53773e-22)
(-0.151134 -24.2677 1.54596e-22)
(-0.0629989 -24.0637 8.89352e-23)
(-0.106001 -23.9227 0)
(0.101797 -23.6793 3.18326e-23)
(0.0212266 -23.0607 -1.8526e-22)
(0.302135 -20.6489 0)
(0.0706179 -14.9727 0)
(0.123498 -6.11441 -2.66267e-22)
(1.40278 -32.7181 3.26639e-20)
(1.28302 -30.4892 0)
(0.575725 -29.6683 1.95977e-20)
(0.529992 -28.5892 -1.19185e-20)
(0.183542 -27.7792 0)
(0.131838 -26.8772 -1.0185e-20)
(0.0501496 -26.2717 3.81645e-21)
(-0.0103221 -25.7077 0)
(-0.024015 -25.3135 7.2281e-22)
(-0.0496063 -24.9494 -1.75243e-21)
(-0.0511227 -24.7014 1.46035e-21)
(-0.0386356 -24.4375 -1.48752e-21)
(-0.0925505 -24.2824 7.40665e-22)
(-0.0161444 -24.0773 -2.02434e-22)
(-0.0702989 -23.9453 -4.31134e-23)
(0.135237 -23.6985 -1.34189e-22)
(0.0398169 -23.091 2.83038e-22)
(0.329753 -20.6493 5.67195e-22)
(0.0656616 -14.9478 1.99997e-22)
(0.137491 -6.08775 3.32474e-22)
(2.01419 -32.4445 -1.52685e-20)
(1.71555 -30.296 -2.74245e-20)
(0.940111 -29.5153 -1.63369e-20)
(0.78907 -28.4461 0)
(0.417197 -27.6675 0)
(0.29492 -26.8009 1.16491e-20)
(0.183511 -26.2103 -1.67574e-21)
(0.0945861 -25.6673 -1.32521e-21)
(0.0633031 -25.2837 -1.12531e-21)
(0.0215701 -24.9293 -3.39829e-21)
(0.00733809 -24.6834 0)
(0.00852617 -24.4254 0)
(-0.05043 -24.2728 0)
(0.0259516 -24.0791 -2.39408e-22)
(-0.0338871 -23.9632 0)
(0.166771 -23.7169 4.76158e-22)
(0.0590311 -23.1223 -6.60683e-22)
(0.348509 -20.6726 -3.23037e-22)
(0.0668916 -14.9363 -3.26995e-22)
(0.156 -6.06562 -1.10049e-21)
(2.83791 -32.2523 4.73311e-20)
(2.35581 -30.21 -8.97888e-20)
(1.45437 -29.4681 3.07128e-21)
(1.18018 -28.4529 2.93553e-20)
(0.727238 -27.6833 0)
(0.554832 -26.8325 1.4459e-20)
(0.398197 -26.2372 -3.20133e-20)
(0.267977 -25.6889 1.56401e-20)
(0.205581 -25.3012 -8.08855e-21)
(0.136213 -24.945 2.37959e-21)
(0.0936485 -24.6992 -4.24686e-22)
(0.0813895 -24.4305 -1.01841e-21)
(0.00671058 -24.2845 1.02305e-21)
(0.0721949 -24.0899 2.05071e-22)
(0.000868531 -23.9823 3.44601e-23)
(0.196679 -23.7339 -4.75876e-22)
(0.0779957 -23.1549 8.55758e-22)
(0.373775 -20.6795 -4.61565e-22)
(0.0617934 -14.9274 1.12713e-22)
(0.171567 -6.04032 1.09615e-21)
(3.43106 -31.9011 1.20428e-19)
(2.77287 -29.9519 2.08996e-20)
(1.8111 -29.2636 -2.89686e-20)
(1.43669 -28.2791 4.1204e-20)
(0.958395 -27.5549 0)
(0.714356 -26.7431 -7.80786e-21)
(0.531889 -26.166 6.25894e-21)
(0.372084 -25.6396 0)
(0.290219 -25.2641 1.39421e-22)
(0.206413 -24.9171 0)
(0.152326 -24.6756 -3.83107e-21)
(0.130571 -24.4152 0)
(0.0527772 -24.2716 0)
(0.113667 -24.0895 -1.17551e-22)
(0.0349435 -23.997 1.191e-23)
(0.223132 -23.7501 5.70458e-22)
(0.0969643 -23.1892 0)
(0.392931 -20.7082 -2.61442e-22)
(0.0594012 -14.9249 1.39833e-22)
(0.187241 -6.01994 0)
(4.20407 -31.608 4.82042e-20)
(3.37295 -29.8205 -3.92506e-20)
(2.30982 -29.1859 6.97761e-20)
(1.81036 -28.2528 -6.82188e-20)
(1.26977 -27.55 1.8892e-20)
(0.963344 -26.7558 7.83218e-21)
(0.743262 -26.1793 -1.17507e-20)
(0.539475 -25.6496 -9.02672e-21)
(0.427415 -25.2719 3.59402e-21)
(0.315946 -24.9252 4.31566e-21)
(0.234551 -24.6849 -2.46837e-21)
(0.198094 -24.416 0)
(0.105916 -24.2795 0)
(0.156536 -24.0956 -7.62607e-24)
(0.068456 -24.0116 5.1199e-23)
(0.248508 -23.7667 -5.6991e-22)
(0.114617 -23.2256 0)
(0.416098 -20.723 2.09504e-21)
(0.0571418 -14.9251 1.51359e-21)
(0.199663 -5.99711 1.42382e-22)
(4.77555 -31.1858 -1.34572e-19)
(3.78035 -29.5004 1.25734e-19)
(2.64533 -28.9333 -3.01251e-20)
(2.05709 -28.0512 0)
(1.49794 -27.4041 -1.89722e-20)
(1.12194 -26.6529 2.64691e-20)
(0.874866 -26.0997 -1.47757e-20)
(0.640939 -25.5914 9.05217e-21)
(0.511499 -25.2281 0)
(0.386079 -24.8898 0)
(0.291943 -24.6558 2.67037e-21)
(0.249274 -24.3979 -2.67998e-21)
(0.151172 -24.2639 0)
(0.194411 -24.0928 -5.36969e-23)
(0.0987662 -24.023 1.16407e-22)
(0.270329 -23.7808 6.72364e-22)
(0.131479 -23.2634 -6.53068e-22)
(0.43531 -20.7509 -1.93159e-21)
(0.0556067 -14.9335 -1.39016e-21)
(0.211636 -5.97898 -2.90338e-22)
(5.50702 -30.8108 0)
(4.33771 -29.3222 -6.58467e-20)
(3.13525 -28.8218 6.60604e-20)
(2.41487 -27.9961 0)
(1.80777 -27.3793 0)
(1.35954 -26.6451 -2.55602e-20)
(1.08146 -26.0979 2.56387e-20)
(0.801357 -25.5898 0)
(0.642756 -25.2265 5.46427e-21)
(0.490468 -24.8901 -9.29818e-21)
(0.370631 -24.6589 3.82896e-21)
(0.311181 -24.3942 1.31179e-21)
(0.199783 -24.2664 -1.31384e-21)
(0.232101 -24.0938 0)
(0.12672 -24.0316 0)
(0.28751 -23.7849 5.20136e-22)
(0.149306 -23.3001 -1.01004e-21)
(0.442244 -20.7768 -5.98809e-23)
(0.066293 -14.9421 6.96096e-22)
(0.2212 -5.95915 -2.94551e-22)
(6.02024 -30.3176 7.9253e-20)
(4.7207 -28.9428 -7.93137e-20)
(3.44279 -28.5255 -7.69489e-20)
(2.65888 -27.7669 9.02479e-20)
(2.03025 -27.2152 -7.14545e-20)
(1.51689 -26.5295 6.76607e-21)
(1.20969 -26.0113 2.46937e-20)
(0.901191 -25.5229 0)
(0.726781 -25.1767 0)
(0.561347 -24.848 4.04897e-21)
(0.428908 -24.6245 0)
(0.363416 -24.3729 0)
(0.243659 -24.2481 0)
(0.264771 -24.0881 0)
(0.15362 -24.0361 0)
(0.292739 -23.8058 0)
(0.162916 -23.3382 5.56647e-22)
(0.445203 -20.82 -8.20962e-22)
(0.0676902 -14.9597 3.00516e-22)
(0.229798 -5.94118 -2.9849e-22)
(6.69565 -29.8675 -7.63789e-20)
(5.23828 -28.7216 -1.089e-19)
(3.91055 -28.3818 -2.10603e-20)
(2.99155 -27.687 -1.15506e-20)
(2.33336 -27.1686 2.49218e-20)
(1.74533 -26.4993 4.31997e-20)
(1.4076 -25.9933 1.00709e-20)
(1.05624 -25.5102 0)
(0.851905 -25.1661 -4.07861e-21)
(0.661658 -24.8409 9.38656e-21)
(0.502975 -24.6214 2.48856e-21)
(0.421915 -24.364 1.1555e-21)
(0.290216 -24.2435 0)