/*--------------------------------*- C++ -*----------------------------------*\
  =========                 |
  \\      /  F ield         | OpenFOAM: The Open Source CFD Toolbox
   \\    /   O peration     | Website:  https://openfoam.org
    \\  /    A nd           | Version:  9
     \\/     M anipulation  |
\*---------------------------------------------------------------------------*/
FoamFile
{
    format      ascii;
    class       volScalarField;
    location    "5.2";
    object      nut;
}
// * * * * * * * * * * * * * * * * * * * * * * * * * * * * * * * * * * * * * //

dimensions      [0 2 -1 0 0 0 0];

internalField   nonuniform List<scalar> 
46400
(
0.0173447
0.00599073
0.00170897
0.00138385
0.00133449
0.001305
0.00122586
0.00120266
0.00114398
0.00111404
0.00105708
0.00101945
0.000986542
0.000962254
0.000934007
0.000913482
0.000871209
0.000816523
0.00105938
0.000941851
0.0169405
0.00492662
0.00129629
0.00143388
0.00134978
0.00133926
0.00126366
0.00123932
0.0011957
0.00117562
0.00114455
0.00110585
0.00106432
0.00102096
0.000988518
0.000953803
0.000897149
0.000821969
0.00104251
0.000923884
0.0165014
0.00425931
0.0012306
0.00142089
0.0013294
0.00132582
0.00125827
0.00123052
0.00117467
0.00113343
0.00107939
0.0010397
0.00101213
0.000989499
0.000952931
0.000938625
0.000889714
0.00082252
0.00110314
0.00102536
0.0159752
0.00394886
0.0013276
0.0014889
0.00137404
0.00135449
0.00128375
0.00125339
0.00120875
0.00118427
0.00114861
0.00110331
0.00104955
0.00100717
0.000977825
0.000959644
0.000939303
0.000834517
0.001068
0.000991531
0.0153109
0.00464239
0.00134406
0.00143834
0.00134941
0.00133719
0.00127535
0.00124627
0.00119559
0.00115511
0.00110807
0.0010657
0.0010395
0.000997573
0.000959124
0.000933867
0.000914077
0.000861182
0.00109839
0.00104072
0.014626
0.00441912
0.0014565
0.00154162
0.0014288
0.00139458
0.0013127
0.00126918
0.00122205
0.00119368
0.00117335
0.00112406
0.00108588
0.00106234
0.00101821
0.000963437
0.000902453
0.000827984
0.00102685
0.000979991
0.0138016
0.00411978
0.00145827
0.00152583
0.00139938
0.00136775
0.00130352
0.00124854
0.00120153
0.00114261
0.0011189
0.00109006
0.00104694
0.001014
0.00102608
0.00101028
0.000973644
0.00090623
0.00106648
0.00101511
0.0126835
0.00338195
0.00148985
0.00156295
0.00148204
0.00141674
0.0013607
0.0012884
0.00123683
0.00118056
0.0011434
0.00113115
0.00111428
0.00104151
0.00100442
0.000999701
0.000960597
0.000910699
0.00106807
0.00102383
0.0105787
0.00259261
0.00152852
0.00149499
0.00144138
0.00138201
0.00133592
0.00128453
0.00124372
0.00117764
0.00110104
0.0010343
0.00102193
0.00101366
0.000957864
0.000924535
0.000918085
0.000862375
0.000996238
0.000983376
0.0085198
0.0021974
0.00156386
0.00151112
0.00147838
0.00141754
0.00138999
0.00131319
0.00129896
0.00127654
0.00125233
0.00117479
0.00110311
0.00105768
0.00104421
0.000976849
0.000924691
0.000880025
0.000945749
0.000921812
0.00655434
0.00186006
0.00154906
0.00144205
0.00141568
0.00133064
0.00132205
0.00125904
0.00119901
0.0011765
0.00117837
0.00116258
0.00115267
0.00109865
0.00107216
0.00106228
0.00100729
0.000957882
0.00102886
0.000961391
0.0052915
0.00168314
0.00156812
0.00147702
0.00144933
0.00136531
0.00135003
0.00131769
0.00124592
0.00113965
0.00111967
0.00107336
0.00106137
0.00105073
0.00102394
0.00099845
0.000993034
0.000939649
0.00101788
0.000989449
0.00436136
0.00160298
0.00158713
0.00147641
0.00144926
0.00133648
0.00128759
0.00126488
0.00130136
0.00123576
0.00119303
0.00113834
0.00109576
0.00103611
0.00102909
0.0009912
0.000955601
0.000924349
0.000951346
0.000938058
0.00398444
0.00160302
0.00161188
0.00150025
0.00152354
0.00143466
0.00136775
0.00125087
0.00122125
0.00118005
0.00116034
0.0011099
0.00109517
0.00106116
0.00101582
0.00101701
0.000977042
0.000949755
0.00099206
0.000947007
0.00385274
0.0014628
0.00140119
0.00133661
0.00135846
0.00140471
0.00139264
0.00133153
0.00130167
0.0012361
0.00120822
0.00117144
0.00111652
0.00109825
0.00104892
0.00101076
0.000983046
0.000928259
0.000965261
0.00094606
0.00427565
0.00166736
0.00156219
0.00145942
0.00137759
0.00131258
0.00133077
0.00129273
0.00127178
0.00124836
0.00118072
0.0011624
0.00111388
0.00107949
0.00105593
0.0010248
0.000990159
0.000942792
0.000964626
0.000912045
0.00280227
0.00158606
0.00150219
0.00159601
0.00154612
0.0014142
0.00138596
0.00130738
0.00125357
0.0012277
0.00119502
0.00116353
0.00112908
0.00109138
0.00105389
0.00102805
0.000991979
0.000937213
0.000960582
0.000912397
0.00183936
0.00174926
0.00158114
0.00144428
0.00147035
0.0014118
0.00136825
0.0013267
0.0012888
0.00123975
0.00120868
0.00117021
0.00113849
0.00110231
0.00106627
0.00103344
0.00100012
0.00094916
0.00096205
0.000925216
0.00110949
0.00186888
0.00169921
0.00148396
0.00143277
0.00138715
0.00134494
0.00131477
0.00126913
0.00122952
0.00118561
0.00114713
0.00111817
0.00109086
0.00105862
0.0010413
0.00100412
0.000964792
0.000984977
0.000930396
0.00210508
0.00143328
0.00162575
0.00163878
0.00153671
0.00152343
0.00143298
0.00138761
0.00132939
0.00128362
0.0012362
0.00119901
0.00115957
0.00112601
0.00109444
0.00105917
0.00103431
0.000973803
0.000993512
0.000937705
3.39469e-24
0.00170103
0.00628112
0.0109428
0.0109308
0.00655116
0.00267004
0.000874723
0.000149233
0.000360813
0.000403718
0.000314657
0.000317661
0.000329356
0.000308175
0.000353164
0.000406258
0.000386806
0.00034158
0.000400429
0.000137337
0.00347936
0.00892451
0.0118583
0.00842648
0.0039017
0.00125794
8.21714e-05
0.000270351
0.000359052
0.000318005
0.000334003
0.00029429
0.000323724
0.000338942
0.000394433
0.000354271
0.000303369
0.000311535
0.000408599
0.000940897
0.00626632
0.0111614
0.0107155
0.00573318
0.0018321
0.000198006
0.000174428
0.000304043
0.000350535
0.000333192
0.000306226
0.000309751
0.000334466
0.000330521
0.000353789
0.000332067
0.000349899
0.000341734
0.000430318
0.00162694
0.00889485
0.0119785
0.00863486
0.00366818
0.000616246
0.000132004
0.000266567
0.000358535
0.000371143
0.000303944
0.000313157
0.000288222
0.000315917
0.000338673
0.00039091
0.000331888
0.000305855
0.000330034
0.000457152
0.00342634
0.0100888
0.0117604
0.00653567
0.00166764
7.0387e-05
0.000202018
0.000346012
0.000385427
0.000316988
0.000317258
0.00030028
0.000319539
0.000367794
0.000377031
0.00037131
0.000309272
0.000349332
0.000426301
0.000513641
0.00274195
0.0114267
0.0105276
0.00445749
0.0004456
4.26729e-05
0.000322171
0.000390787
0.000395214
0.000383466
0.000344607
0.00035748
0.000349331
0.00036536
0.000372601
0.000397093
0.000330301
0.000368704
0.000464888
0.000547547
0.00590739
0.0120665
0.00935442
0.00211421
0.000155381
0.000289924
0.000437805
0.00049644
0.000464024
0.000412339
0.000387024
0.000359879
0.000372881
0.000417502
0.000424601
0.000415504
0.000355322
0.000463306
0.000575497
0.000596716
0.00847125
0.0122797
0.00795355
0.000892457
6.61938e-05
0.000475363
0.0005636
0.000516742
0.000507681
0.000468551
0.000432255
0.000443968
0.000445889
0.00045544
0.00046069
0.000464958
0.000396146
0.000506504
0.000583132
0.000605572
0.010842
0.0122608
0.00596552
0.000371483
0.000395737
0.000599779
0.000623993
0.000621793
0.000602204
0.000548582
0.000506836
0.000471092
0.000470861
0.000493764
0.000489589
0.000478806
0.000435393
0.00057985
0.000631134
0.000617786
0.0136069
0.011921
0.00399903
0.000233662
0.000607394
0.000728173
0.00072662
0.000689637
0.000656632
0.000591259
0.000547436
0.000547276
0.000542874
0.000548456
0.000560105
0.00054561
0.000481488
0.000590299
0.000604645
0.000613861
0.0149256
0.011722
0.00258879
0.000314368
0.000772679
0.000790797
0.000761466
0.000757035
0.000732344
0.000685607
0.000637898
0.000604228
0.000597899
0.000596859
0.000582605
0.000563671
0.000525363
0.000644074
0.000623804
0.000632384
0.0161625
0.0111022
0.00165055
0.000381754
0.000858677
0.000866504
0.000871342
0.000830398
0.000795989
0.000719284
0.000667934
0.000651673
0.000630414
0.000634731
0.000649398
0.000619138
0.000567626
0.000652461
0.000583378
0.000617198
0.016703
0.01079
0.00105176
0.000639237
0.000967027
0.00089181
0.000896974
0.000871086
0.000848088
0.000811368
0.000759217
0.000731673
0.000714977
0.000692967
0.000677582
0.000648871
0.000614983
0.000682903
0.000568955
0.000629168
0.0172378
0.0102482
0.00126065
0.000751491
0.00108731
0.000966678
0.000993012
0.000957071
0.000916276
0.000847828
0.000790633
0.000757043
0.000723129
0.000716648
0.00072299
0.000686772
0.000666558
0.000690909
0.000520997
0.000626142
0.0177207
0.00984988
0.00147828
0.000956902
0.00113571
0.00102031
0.00100756
0.000983321
0.000956581
0.000919767
0.000863552
0.000837573
0.000807952
0.000781581
0.000766097
0.000729067
0.000726881
0.000724225
0.00051409
0.000643665
0.017876
0.00946576
0.00250724
0.00103749
0.00120507
0.00108336
0.00109125
0.00105998
0.00102274
0.000976015
0.000914855
0.000875487
0.000833354
0.000811619
0.00080447
0.000757384
0.000774513
0.000741039
0.000485772
0.000675006
0.0181123
0.0092422
0.00228184
0.00114897
0.00125924
0.00112829
0.00109863
0.00108025
0.00104171
0.00100778
0.000952662
0.000923452
0.000895626
0.000870255
0.000842718
0.000809185
0.000813764
0.000784548
0.000508073
0.000565751
0.017999
0.00876769
0.00200455
0.00114676
0.00129662
0.00119647
0.0011681
0.00114839
0.00111626
0.00108948
0.00103295
0.000995859
0.000948903
0.000924599
0.000894748
0.000849744
0.000884208
0.000845688
0.000536526
0.000631817
0.0179516
0.00785711
0.0021963
0.00126963
0.00131717
0.0012345
0.00117158
0.00115819
0.00110851
0.00108598
0.00103534
0.00100989
0.000995137
0.000978031
0.000964759
0.000944222
0.000968671
0.000944492
0.00067077
0.000720701
0.0176438
0.00671249
0.00184344
0.00129251
0.00132824
0.00129121
0.00122862
0.00121344
0.00117907
0.00116232
0.00112314
0.0010905
0.00106224
0.0010536
0.00104328
0.00108547
0.0011363
0.00103792
0.00109321
0.00113475
0.00416033
0.00282875
0.00223909
0.00195437
0.00182173
0.00170568
0.0016005
0.0013939
0.00123976
0.00110723
0.000968519
0.000881776
0.00073241
0.000687307
0.000572882
0.0009173
0.00185592
0.00651379
0.0105239
0.0151517
0.00429912
0.00282745
0.00221268
0.00193774
0.00185819
0.00171938
0.0015755
0.00135082
0.00119464
0.00107926
0.000943423
0.00087109
0.000721056
0.000683793
0.000561161
0.000917986
0.00176295
0.0065252
0.0104449
0.0150794
0.00429605
0.00271672
0.00225274
0.0019603
0.00184204
0.00169467
0.00156529
0.00136309
0.00121617
0.00110527
0.000960783
0.000885401
0.000730042
0.000691859
0.000560013
0.000904417
0.00171276
0.00649267
0.0105109
0.0150203
0.00446885
0.00264315
0.00220014
0.00197678
0.00191253
0.00175225
0.00156169
0.00134345
0.00118399
0.00108593
0.000944133
0.000878841
0.000722627
0.000693248
0.000554315
0.000884429
0.00162616
0.00646306
0.0104786
0.0149714
0.00432693
0.00261389
0.0022836
0.00199613
0.00188847
0.00170703
0.00152568
0.0013421
0.00119381
0.00110433
0.000955485
0.000890821
0.000733519
0.000701159
0.000554653
0.000876547
0.00156905
0.00644877
0.0105004
0.0149259
0.00435861
0.00255819
0.00227417
0.0020211
0.00191998
0.0017441
0.00151639
0.0013351
0.0011735
0.00109507
0.000949026
0.000887543
0.000731163
0.000702652
0.000548403
0.000849224
0.00148215
0.0064188
0.0105262
0.0148828
0.00424965
0.00244317
0.00231289
0.00207793
0.00195766
0.00173143
0.00149296
0.0013347
0.00117749
0.00110803
0.000958473
0.000896685
0.000741639
0.00070596
0.000542856
0.000841581
0.0014178
0.00638907
0.0105371
0.0148666
0.00439344
0.00249109
0.00235574
0.00206072
0.00190717
0.00170818
0.00146307
0.00132466
0.00116554
0.00110764
0.000962948
0.000897307
0.000744136
0.000705251
0.00053057
0.000810509
0.00132491
0.00635351
0.0105563
0.014839
0.00442736
0.00242921
0.00234065
0.00214028
0.00200189
0.00172583
0.00146684
0.00132842
0.00116841
0.00111684
0.000973159
0.000902643
0.000751387
0.00070468
0.000520516
0.000794479
0.00125367
0.00630883
0.0105593
0.0148357
0.00446745
0.00258602
0.00243556
0.00213348
0.00193284
0.00167142
0.00144015
0.00131365
0.0011652
0.00112476
0.000987177
0.000907476
0.00075833
0.000707168
0.000511109
0.000765613
0.0011544
0.00626583
0.0105665
0.0148285
0.00452768
0.00256123
0.00241564
0.00219816
0.00199257
0.00166999
0.00145143
0.00131394
0.00116434
0.00112986
0.000996254
0.000906929
0.000760412
0.000708493
0.000510481
0.000757696
0.00107205
0.00621177
0.0105763
0.0148287
0.00458516
0.00270187
0.00249498
0.00223251
0.0019632
0.00163648
0.00144227
0.00130956
0.00116899
0.00114273
0.00101368
0.000912731
0.000767917
0.000716681
0.000516605
0.000737487
0.000962276
0.00612184
0.0105907
0.014828
0.00468393
0.00272994
0.00251259
0.00229525
0.00195414
0.00160864
0.00143667
0.00130495
0.0011631
0.00114193
0.0010159
0.000903585
0.000762397
0.000718514
0.000528958
0.000709836
0.000872662
0.00605867
0.0106017
0.014833
0.00484854
0.00282978
0.00250213
0.00230905
0.00195241
0.00160946
0.00144426
0.00131505
0.00117404
0.00115424
0.00102859
0.000905835
0.000767406
0.000728162
0.000546329
0.000691044
0.00075577
0.00601911
0.0106196
0.0148374
0.0049171
0.00293336
0.00252429
0.00238263
0.00190994
0.00157687
0.00142559
0.00130684
0.00116557
0.0011447
0.00101849
0.000889301
0.000758189
0.000729289
0.000563884
0.000681435
0.000646429
0.00595827
0.0106436
0.0148497
0.0052147
0.00296625
0.00237464
0.00233522
0.00188232
0.0015994
0.00143896
0.00132709
0.00118051
0.00115169
0.00102094
0.000887065
0.000761963
0.000738028
0.000581074
0.000665871
0.000553336
0.00589423
0.0106599
0.0148722
0.00532471
0.00312434
0.00245787
0.00239527
0.00184784
0.00158039
0.00142078
0.00132027
0.00117134
0.00113252
0.000998718
0.000869373
0.000754759
0.000740582
0.000603983
0.000643286
0.000414688
0.00576539
0.0106794
0.014858
0.00541174
0.00277464
0.00218322
0.00228396
0.00180455
0.00161526
0.00143869
0.00135138
0.00119112
0.00113791
0.000996351
0.000870798
0.000760946
0.000752919
0.000625301
0.000673636
0.000269463
0.00584531
0.0107018
0.0149344
0.00498816
0.00301641
0.0023996
0.00227465
0.00173445
0.00158536
0.00140587
0.00133424
0.00117885
0.00110607
0.000959269
0.00085114
0.000754956
0.000745742
0.000623201
0.000657782
0.000202627
0.00572867
0.010836
0.0150376
0.00506969
0.00275221
0.00224312
0.00209055
0.00168586
0.00161891
0.00142377
0.0013644
0.00119846
0.00110429
0.000947309
0.000855833
0.000765088
0.000757629
0.000667532
0.000661197
0.000129778
0.00539114
0.0106147
0.0146965
0.0205909
0.0289225
0.0152665
0.0217518
0.0166955
0.0184351
0.0156184
0.0147376
0.012806
0.0111961
0.00929655
0.00871865
0.00790393
0.0077353
0.00723567
0.00721114
0.00618488
0.0537969
0.101156
0.135802
0.0261596
0.0203759
0.01977
0.0165031
0.0151539
0.0131435
0.0115047
0.00948361
0.00898179
0.008129
0.00737834
0.00713129
0.00661992
0.00641639
0.00611348
0.00561396
0.0160068
0.0522063
0.0986312
0.13453
0.012672
0.0141644
0.0130538
0.0115217
0.0106914
0.00943844
0.00912119
0.00865192
0.0079531
0.00744062
0.00713012
0.00686247
0.00650521
0.00621473
0.00583718
0.00558447
0.0102213
0.0513585
0.0966278
0.133058
0.0130176
0.0102131
0.00929928
0.00850715
0.00820433
0.00775867
0.00729283
0.00666761
0.00651105
0.00620562
0.00584508
0.00550128
0.00516561
0.00488026
0.00451935
0.00370659
0.012662
0.0461752
0.0963771
0.12938
0.00549918
0.00710889
0.0071033
0.00588553
0.00590937
0.00565631
0.00575934
0.00550388
0.00526471
0.00502563
0.00486325
0.00470612
0.00459966
0.00431547
0.00437514
0.0038125
0.00556737
0.0452461
0.0962194
0.127279
0.0056889
0.00547495
0.0046673
0.00455264
0.00461376
0.00432367
0.00439966
0.00433273
0.00438693
0.00434727
0.00423476
0.0041223
0.00409164
0.00383994
0.00346222
0.00250264
0.00715619
0.0414036
0.096775
0.124901
0.0027737
0.00343767
0.00340026
0.00365203
0.0037198
0.00360037
0.00353999
0.00371485
0.00365054
0.00364996
0.00362627
0.00358249
0.0034641
0.00346366
0.00353683
0.00247195
0.00443518
0.0375416
0.0969985
0.125546
0.00271248
0.00281519
0.00269865
0.00257089
0.00263265
0.00276811
0.002842
0.00306557
0.00318878
0.00332286
0.00333652
0.00341173
0.0034535
0.00343647
0.00332754
0.00243646
0.00389425
0.0328227
0.0972037
0.126551
0.00151215
0.00175599
0.00176567
0.00223645
0.00256408
0.00270666
0.00267237
0.00273558
0.00288839
0.00299314
0.00310598
0.00326465
0.00325238
0.00346984
0.00354545
0.00242382
0.00123959
0.0277299
0.0972211
0.130214
0.00126007
0.00150438
0.00161837
0.00155564
0.00162004
0.00195974
0.00203647
0.0023552
0.0024725
0.00283692
0.00290147
0.00325441
0.00336871
0.00369819
0.00398262
0.00377063
0.00143399
0.0210532
0.0955352
0.136266
0.000902661
0.00105415
0.00124138
0.0016147
0.00178361
0.00197303
0.00198078
0.00214994
0.00227958
0.00252974
0.00273298
0.00308707
0.0033237
0.00391288
0.00408139
0.00450711
0.00299536
0.0151964
0.0914132
0.149757
0.000785626
0.000882689
0.000872925
0.000803848
0.00106097
0.00133704
0.00154853
0.00176008
0.00194812
0.00223239
0.00240899
0.00283227
0.00306404
0.00378418
0.00419824
0.00528267
0.00427528
0.00897557
0.0744081
0.163015
0.000566883
0.000695573
0.000881592
0.00107684
0.00108936
0.00122958
0.001314
0.00152315
0.00161567
0.0018619
0.00201278
0.00231294
0.00256132
0.00299156
0.00348991
0.00407604
0.0051564
0.00526568
0.0563891
0.185554
0.000430649
0.000496888
0.000501495
0.000614843
0.000703584
0.000880408
0.000967972
0.00116789
0.00129476
0.00150836
0.00171179
0.0019451
0.00224449
0.00244572
0.0029298
0.00332445
0.00455354
0.00895755
0.0258946
0.148609
0.000414255
0.000520833
0.000570105
0.000645556
0.00062521
0.000708253
0.000772701
0.000901896
0.000948601
0.00113796
0.0011692
0.0014721
0.00148318
0.00197605
0.0021402
0.00311301
0.0025776
0.00535871
0.0126669
0.0959424
0.000293595
0.000346303
0.000355281
0.000424037
0.00054975
0.000590323
0.000645776
0.000712985
0.00079143
0.000889606
0.000990827
0.00114943
0.00123808
0.00157058
0.0015953
0.00185934
0.00220571
0.00284246
0.00240914
0.0517053
0.000308883
0.000314429
0.000226873
0.000352977
0.00033282
0.000401001
0.000415849
0.000494859
0.000514929
0.000629322
0.00065536
0.000811895
0.000854776
0.000968237
0.000964775
0.00130322
0.00139885
0.0020066
0.00386261
0.0271937
0.000335329
0.000366632
0.000399399
0.000429048
0.00045355
0.000491863
0.000533501
0.000584168
0.000603045
0.000671322
0.000654463
0.000707219
0.000756271
0.000760302
0.000910725
0.000776954
0.00107794
0.000929356
0.00170496
0.0127272
0.000398094
0.000405281
0.000417399
0.000447438
0.000462004
0.000486868
0.000498535
0.000545896
0.000559809
0.000585851
0.000616305
0.000603703
0.000623787
0.000684975
0.000626619
0.000716011
0.000533228
0.000712755
0.00115054
0.00473118
0.000547684
0.000549676
0.000585168
0.000587161
0.000609694
0.000628635
0.00064033
0.000659464
0.000670241
0.000683012
0.000696202
0.000702928
0.000721891
0.000719983
0.000696279
0.000605988
0.000560675
0.000543041
0.000399608
0.00330069
0.0141358
0.0140658
0.0139778
0.0139083
0.0137089
0.0136663
0.0135086
0.0133042
0.0133367
0.0129945
0.0122187
0.0131705
0.0121643
0.010135
0.0100316
0.00942818
0.0113199
0.0119483
0.00899398
0.00871848
0.00699221
0.00697763
0.00693253
0.00693162
0.00682729
0.00688
0.00669666
0.00659692
0.00648093
0.00653633
0.00626857
0.00632397
0.00589624
0.00551065
0.00607341
0.00834414
0.00859672
0.00595852
0.00580332
0.00786172
0.00420136
0.00420517
0.00418596
0.00425612
0.00425985
0.00431279
0.00431447
0.00440812
0.00442966
0.00442784
0.00436352
0.00449208
0.00434421
0.00434466
0.00381896
0.00378239
0.0039415
0.00486973
0.00436303
0.00356275
0.00270908
0.00269284
0.00265811
0.0026215
0.00255836
0.00250327
0.00245152
0.00237081
0.00232025
0.0023625
0.00241457
0.0024062
0.00240079
0.00240686
0.00234464
0.00245303
0.00225253
0.00251045
0.00222653
0.00274715
0.00163215
0.00162901
0.00162282
0.00161685
0.00160895
0.00160659
0.00160439
0.00167636
0.00171848
0.0017446
0.00169687
0.00168914
0.00161753
0.00167632
0.00163066
0.00170032
0.00177466
0.00179031
0.00155232
0.00153249
0.00115417
0.00114993
0.00114357
0.00113889
0.00113512
0.00113523
0.00113444
0.00113842
0.00109684
0.0010931
0.00107022
0.00109402
0.00110293
0.00109039
0.00104691
0.000984177
0.000867473
0.000981857
0.00105469
0.00115021
0.000670933
0.000671366
0.000670703
0.000671809
0.000673347
0.000677299
0.000679465
0.000686038
0.000690654
0.000702222
0.000692418
0.000710393
0.000669662
0.000707262
0.000722639
0.000764291
0.000841713
0.000826893
0.000620478
0.000625784
0.000468451
0.000464678
0.000466049
0.00046591
0.000471414
0.000473519
0.000480145
0.000484818
0.000495921
0.000498809
0.000496634
0.000504498
0.000496149
0.00049405
0.00044504
0.000449681
0.000425337
0.000515347
0.000620139
0.000614428
0.000239462
0.000239067
0.000237208
0.000239022
0.000239323
0.000242138
0.000243522
0.000250101
0.000257309
0.00026801
0.00026977
0.000275177
0.000298376
0.000298576
0.000290848
0.000376472
0.000378808
0.000322659
0.000252717
0.000278828
0.000151768
0.000137897
0.000140355
0.000139754
0.000142129
0.000143507
0.000148408
0.000154605
0.000157479
0.000158643
0.000154897
0.000153697
0.000157296
0.00015675
0.000144622
0.000136413
0.000209791
0.000315985
0.000206871
0.000273158
2.42938e-05
3.04196e-05
4.24188e-05
4.93907e-05
5.54125e-05
6.13711e-05
6.77514e-05
7.46925e-05
7.39533e-05
8.11449e-05
8.82078e-05
0.000121924
0.000158419
0.000181381
0.000174498
0.000142161
0.000119698
2.72027e-05
0.000121813
0.000129442
2.28117e-05
2.83061e-05
3.54566e-05
4.12634e-05
5.0561e-05
6.2003e-05
7.81194e-05
8.85316e-05
9.38716e-05
0.000101404
7.25752e-05
8.01689e-05
7.01224e-05
6.6639e-05
9.4241e-05
0.000152967
0.000212621
0.000235579
0.000166775
0.000174481
6.34221e-05
6.00729e-05
5.7554e-05
5.29714e-05
4.88528e-05
4.78749e-05
4.98225e-05
5.319e-05
5.98099e-05
6.22256e-05
7.67823e-05
7.62806e-05
7.53653e-05
8.29594e-05
6.17435e-05
6.37022e-05
7.074e-05
9.76608e-05
0.000106481
0.00011555
9.03557e-05
8.84455e-05
8.57497e-05
7.8093e-05
7.5377e-05
6.35412e-05
6.04294e-05
5.94618e-05
6.07599e-05
6.26242e-05
6.77233e-05
6.9355e-05
7.21582e-05
7.30719e-05
7.42631e-05
7.6944e-05
7.87427e-05
7.76181e-05
8.66834e-05
9.88095e-05
7.86022e-05
7.65082e-05
7.51726e-05
7.39083e-05
7.27137e-05
7.0485e-05
7.02263e-05
6.96212e-05
6.62118e-05
6.75081e-05
6.98205e-05
7.11196e-05
7.24493e-05
6.63289e-05
6.18271e-05
6.04256e-05
5.624e-05
5.44654e-05
4.99256e-05
8.92552e-05
7.67738e-05
7.54083e-05
7.39217e-05
7.22637e-05
7.1966e-05
7.18051e-05
7.22352e-05
7.16024e-05
7.05782e-05
6.96528e-05
7.15864e-05
7.23461e-05
7.27922e-05
7.28367e-05
7.11866e-05
6.99238e-05
6.78377e-05
6.91753e-05
7.07769e-05
7.28715e-05
6.75988e-05
6.79805e-05
6.72552e-05
6.97488e-05
7.07047e-05
7.08217e-05
7.30116e-05
7.36993e-05
7.57012e-05
7.62029e-05
7.83833e-05
7.75556e-05
7.34252e-05
6.94739e-05
6.4121e-05
6.15451e-05
5.80272e-05
5.49658e-05
5.14092e-05
5.34525e-05
6.93216e-05
7.08442e-05
7.29006e-05
7.29864e-05
7.36677e-05
7.24342e-05
7.28224e-05
7.18344e-05
7.36383e-05
7.40139e-05
7.52601e-05
7.43275e-05
7.52314e-05
7.82968e-05
8.32342e-05
8.55054e-05
8.27126e-05
7.73526e-05
6.04467e-05
6.35461e-05
8.86556e-05
9.01696e-05
9.08411e-05
9.1155e-05
9.07975e-05
9.05151e-05
8.86378e-05
8.85129e-05
9.26185e-05
9.38134e-05
9.18309e-05
9.02669e-05
8.87173e-05
8.6877e-05
8.55041e-05
8.70308e-05
8.99585e-05
9.08276e-05
0.000107543
0.000108269
0.000105964
0.000106287
0.000107162
0.000109151
0.000111077
0.000113152
0.00011491
0.000116595
0.00011726
0.000117731
0.000119206
0.000121248
0.000122887
0.000124311
0.000125901
0.000127321
0.00012884
0.00012941
0.000131916
0.000129458
0.00117384
0.00156842
0.00117912
0.00116579
0.001235
0.00124042
0.00127682
0.00130245
0.00132371
0.00137235
0.00140936
0.00145781
0.00153247
0.0015478
0.00163813
0.00165344
0.00167939
0.00214207
0.00734576
0.0224496
0.00115979
0.00132935
0.00096548
0.00104486
0.0011516
0.00117853
0.00120876
0.00125687
0.00131695
0.00135021
0.0014131
0.0014601
0.00152247
0.0015573
0.0016607
0.00167628
0.00175524
0.00189616
0.00668085
0.0219591
0.001138
0.00142612
0.00107426
0.00108067
0.00117286
0.00120509
0.00124728
0.00128533
0.00130741
0.00135622
0.00139975
0.00145354
0.00152299
0.00154176
0.00164823
0.00162274
0.00172188
0.00146733
0.00537495
0.0214558
0.00118806
0.00140272
0.0010168
0.00103605
0.00113541
0.00115992
0.00118271
0.00123051
0.00128819
0.00133821
0.00139532
0.00145379
0.00150688
0.00155586
0.00164718
0.0016322
0.00177508
0.00148571
0.00500553
0.0208448
0.00116981
0.00140677
0.00104599
0.0010774
0.00116396
0.0011945
0.0012397
0.00128919
0.00132259
0.00136865
0.00142139
0.00147445
0.00153216
0.00156219
0.00164892
0.00161919
0.00177266
0.0015208
0.00500422
0.0201684
0.00120405
0.00140874
0.00106417
0.00107999
0.00116499
0.00118978
0.00120771
0.00126053
0.00130178
0.00136236
0.00141074
0.00146301
0.00150778
0.0015609
0.00163153
0.001634
0.00181274
0.00156857
0.00556674
0.0194417
0.00119144
0.00139161
0.00105414
0.00109782
0.00117871
0.00120491
0.00126482
0.00130974
0.0013461
0.00139201
0.00142478
0.00147291
0.00151141
0.00155505
0.0016322
0.00164925
0.00181968
0.0016319
0.00552373
0.0187746
0.00122574
0.00139894
0.00108259
0.00113738
0.00119148
0.00122226
0.00124093
0.00127132
0.00130839
0.00134278
0.00138052
0.00142308
0.00146821
0.00154283
0.00159926
0.00163858
0.00182104
0.00162261
0.00496185
0.0176384
0.00121389
0.00134877
0.00107116
0.0011171
0.00117202
0.00121696
0.00124711
0.00129118
0.0013071
0.00134387
0.00137616
0.00142981
0.00148142
0.00153936
0.00160841
0.00168401
0.00176951
0.00161975
0.00393329
0.016107
0.00121161
0.00133074
0.00105995
0.00110961
0.00117831
0.00119406
0.00119146
0.00121573
0.00123919
0.00129205
0.00132382
0.00138619
0.00142695
0.00150905
0.00156413
0.00161582
0.00171528
0.0016745
0.00321982
0.0135263
0.00114247
0.00121576
0.00102159
0.00108791
0.00113344
0.00112925
0.00116233
0.00121108
0.00125194
0.00129582
0.00134164
0.00142347
0.00147438
0.00156329
0.00158997
0.00163947
0.00165748
0.00166675
0.00264024
0.0108741
0.00112088
0.0012007
0.00104237
0.00107443
0.00109911
0.0011285
0.00118126
0.00123146
0.00127374
0.0013222
0.00137568
0.00142328
0.00145117
0.00150341
0.0014986
0.00158035
0.00161713
0.00165328
0.00230088
0.00913962
0.00108844
0.00115852
0.00102511
0.00106244
0.00111727
0.0011699
0.00121343
0.00123618
0.00125204
0.00129398
0.00133688
0.00138333
0.00140804
0.00143614
0.00145972
0.00151399
0.00155767
0.00168934
0.00203965
0.00744788
0.00106856
0.00110658
0.00100195
0.00104915
0.00109739
0.00111731
0.00112179
0.00114465
0.00119469
0.00126182
0.00129173
0.00132472
0.00134348
0.00142587
0.00146366
0.00156974
0.00161793
0.00166044
0.00183011
0.00628602
0.00102635
0.00107931
0.00101424
0.00104384
0.0010715
0.00108912
0.00112184
0.00118331
0.00123219
0.0012691
0.00128129
0.00132948
0.00138062
0.00145219
0.00149309
0.00157724
0.00161109
0.00171977
0.00177323
0.00536454
0.00102164
0.00107227
0.00100875
0.00103976
0.00108278
0.00111955
0.00116603
0.00120329
0.00122461
0.00124662
0.00128297
0.00134496
0.00141195
0.00142068
0.0014427
0.00152988
0.00151369
0.00167325
0.00169652
0.00463006
0.000988643
0.00105439
0.00100869
0.0010474
0.00108757
0.0011078
0.00113671
0.00114988
0.00117952
0.00122776
0.00127932
0.00131988
0.00132851
0.00137707
0.00148786
0.0015639
0.00159588
0.00169286
0.00165529
0.00453572
0.000964148
0.00103303
0.000992466
0.0010349
0.00107097
0.00109843
0.0011357
0.00117148
0.00122856
0.00125728
0.00129438
0.00131957
0.00138639
0.0014585
0.00154941
0.00148707
0.00147181
0.00150868
0.00151945
0.00401493
0.000938558
0.00100919
0.000961764
0.00100791
0.00104437
0.00106924
0.00110881
0.00114233
0.00118324
0.0012115
0.00127154
0.00130452
0.00137534
0.00138565
0.0013718
0.00139873
0.0014248
0.00145049
0.00172619
0.00419224
0.000921189
0.000972334
0.000949905
0.00100613
0.00103343
0.0010699
0.00109573
0.00113389
0.00116748
0.00120023
0.00124045
0.00125428
0.0012927
0.00131107
0.00137848
0.0014959
0.00168352
0.00163146
0.00180051
0.00342961
0.00100832
0.00114967
0.00119972
0.00115717
0.00116076
0.0010913
0.00106657
0.00102099
0.00104591
0.00111771
0.00112009
0.00115286
0.00123187
0.00129066
0.00119736
0.000683358
0.000519609
0.0106156
0.0154695
0.0139543
0.00100236
0.00114879
0.00126583
0.00123745
0.00115401
0.00104961
0.00108494
0.00111768
0.0011059
0.00108976
0.00114024
0.00119776
0.00123842
0.00130617
0.00125657
0.000795936
0.000200918
0.00979936
0.0157165
0.0164933
0.00101293
0.00114143
0.00123777
0.00121348
0.00123885
0.00112771
0.00107533
0.00106832
0.00110377
0.00113939
0.00116543
0.00121808
0.00127745
0.00135095
0.00137477
0.000985378
0.000613852
0.00807647
0.0156889
0.0189871
0.00102955
0.00115312
0.0012928
0.00124557
0.00118757
0.00111373
0.00114342
0.00114824
0.00114095
0.00116352
0.00119322
0.00124173
0.00130329
0.00131561
0.00136611
0.00116633
0.000132795
0.00602777
0.0156276
0.0194994
0.00100616
0.00113322
0.00129223
0.00125107
0.0012619
0.00113797
0.00109355
0.0011205
0.00115113
0.00115891
0.00120866
0.00127141
0.00131641
0.0014028
0.00148322
0.00136258
0.000796816
0.00457047
0.0155261
0.0205696
0.00103687
0.00114793
0.0013281
0.00127105
0.00124386
0.00117778
0.00117808
0.00116478
0.00117387
0.00122392
0.00123812
0.001287
0.00135155
0.00135763
0.00143439
0.00139597
0.000448346
0.00328169
0.0151956
0.0212078
0.00100649
0.00112365
0.00134772
0.00127821
0.00124698
0.00113562
0.00112331
0.00117011
0.00119191
0.00118328
0.00124753
0.00130868
0.00134555
0.00145805
0.00152039
0.00149873
0.000603202
0.00244553
0.015043
0.0219867
0.00103066
0.00113129
0.00134755
0.00128404
0.00127728
0.00121644
0.00119003
0.00117037
0.00119639
0.00125748
0.00127017
0.00132097
0.00138174
0.00140225
0.00148066
0.0015283
0.000834038
0.00167028
0.014653
0.0225573
0.00101698
0.00111001
0.00138477
0.00129308
0.00122417
0.00113933
0.00115655
0.00121072
0.00122955
0.00122113
0.00128662
0.0013387
0.0013784
0.00149768
0.00153396
0.00156939
0.000972787
0.00133241
0.0143685
0.0231408
0.0010276
0.00110853
0.00136158
0.00128115
0.00127468
0.00122243
0.00118925
0.00117764
0.00121536
0.00126999
0.00129242
0.00134297
0.00140332
0.00145189
0.00152427
0.00161227
0.00116474
0.00120359
0.0139738
0.0235552
0.00101788
0.00107554
0.00138403
0.00127777
0.00118975
0.00113988
0.00117963
0.0012324
0.00125401
0.0012602
0.00131895
0.00136398
0.00141609
0.00152365
0.0015435
0.00161062
0.00122692
0.0014904
0.013577
0.0238673
0.00103176
0.00108107
0.00135978
0.00125816
0.00124367
0.00121199
0.00118947
0.00119519
0.00124081
0.00127708