/*--------------------------------*- C++ -*----------------------------------*\
  =========                 |
  \\      /  F ield         | OpenFOAM: The Open Source CFD Toolbox
   \\    /   O peration     | Website:  https://openfoam.org
    \\  /    A nd           | Version:  9
     \\/     M anipulation  |
\*---------------------------------------------------------------------------*/
FoamFile
{
    format      ascii;
    class       volScalarField;
    location    "5.2";
    object      p;
}
// * * * * * * * * * * * * * * * * * * * * * * * * * * * * * * * * * * * * * //

dimensions      [0 2 -2 0 0 0 0];

internalField   nonuniform List<scalar> 
46400
(
105.533
111.248
121.771
130.34
137.962
144.899
151.001
156.576
161.543
166.056
170.108
173.789
177.148
180.241
183.136
185.889
188.494
191.346
194.301
195.011
127.355
133.488
142.559
150.468
157.252
163.53
169.013
173.992
178.407
182.397
185.955
189.163
192.047
194.646
196.972
199.052
200.89
202.634
204.153
203.956
149.827
155.008
162.892
169.937
175.953
181.445
186.223
190.527
194.305
197.679
200.66
203.303
205.655
207.747
209.63
211.31
212.767
214.15
215.425
214.9
171.959
175.997
183.044
189.442
194.773
199.635
203.792
207.482
210.674
213.46
215.874
217.959
219.762
221.298
222.612
223.713
224.593
225.413
226.186
225.375
192.174
195.681
202.382
208.065
212.744
216.887
220.369
223.396
225.961
228.158
230.017
231.568
232.861
233.925
234.804
235.503
236.014
236.485
236.941
235.901
212.004
215.851
221.84
226.862
230.822
234.287
237.124
239.499
241.464
243.046
244.332
245.328
246.098
246.624
246.98
247.16
247.183
247.179
247.173
245.873
231.462
236.031
240.786
244.904
248.029
250.656
252.741
254.401
255.701
256.692
257.421
257.9
258.174
258.265
258.209
258.001
257.632
257.235
256.799
255.213
251.439
256.125
259.508
262.604
264.924
266.749
268.155
269.132
269.816
270.173
270.335
270.258
270.017
269.595
269.068
268.402
267.633
266.85
266.032
264.207
270.143
273.835
276.442
278.492
280.074
281.144
281.881
282.246
282.354
282.199
281.842
281.297
280.619
279.812
278.895
277.865
276.746
275.629
274.487
272.53
287.77
290.432
292.296
293.531
294.423
294.834
294.989
294.778
294.364
293.673
292.82
291.761
290.596
289.305
287.934
286.478
284.95
283.432
281.887
279.668
302.113
304.107
305.372
306.032
306.371
306.29
305.962
305.33
304.507
303.473
302.311
300.98
299.539
297.959
296.298
294.533
292.702
290.851
288.98
286.516
315.403
316.83
317.627
317.685
317.527
316.874
316.065
314.914
313.621
312.103
310.492
308.751
306.94
305.043
303.094
301.091
299.018
296.971
294.922
292.344
325.795
326.637
327.073
326.766
326.266
325.305
324.176
322.763
321.218
319.454
317.582
315.559
313.473
311.291
309.069
306.792
304.481
302.174
299.908
297.203
335.94
335.923
335.855
335.055
334.101
332.74
331.175
329.381
327.456
325.379
323.201
320.928
318.581
316.181
313.741
311.267
308.761
306.275
303.836
300.982
341.551
341.456
341.117
340.225
339.182
337.743
336.146
334.218
332.162
329.904
327.555
325.087
322.568
319.977
317.364
314.722
312.056
309.423
306.868
303.939
346.093
346.173
345.676
344.56
343.173
341.456
339.55
337.41
335.131
332.693
330.166
327.536
324.855
322.118
319.363
316.579
313.787
311.018
308.364
305.301
349.726
349.122
348.14
346.951
345.397
343.509
341.431
339.13
336.704
334.142
331.491
328.767
325.983
323.164
320.32
317.473
314.603
311.789
309.088
306.022
350.032
349.533
348.561
347.152
345.49
343.511
341.349
338.97
336.453
333.812
331.073
328.267
325.401
322.506
319.582
316.661
313.718
310.825
308.043
304.951
347.93
347.723
346.768
345.396
343.642
341.651
339.406
337.006
334.446
331.775
329.016
326.187
323.318
320.405
317.487
314.542
311.601
308.675
305.871
302.684
343.465
343.315
342.526
341.435
339.833
337.96
335.807
333.468
330.947
328.316
325.569
322.761
319.892
316.992
314.067
311.137
308.188
305.284
302.468
299.348
10.2583
10.6135
10.6401
10.9719
10.5472
11.5653
12.8686
14.6852
16.0824
17.9433
20.0584
21.9537
23.8485
25.7882
27.6412
29.5773
31.4713
33.3538
35.2647
37.0589
11.2329
11.8558
11.3176
11.95
12.2826
13.2229
15.2554
17.0068
18.7641
20.9778
23.0526
25.1779
27.1693
29.2581
31.2444
33.282
35.2428
37.17
39.0512
40.9317
12.81
13.0578
13.2469
12.2033
13.7612
15.3882
17.0844
18.971
21.2664
23.5309
25.7833
28.0173
30.2411
32.4902
34.6431
36.8511
38.9367
41.0407
43.0724
45.0887
11.9242
11.9435
13.0821
12.7595
14.0331
16.0847
18.2138
20.6756
23.0551
25.6197
28.0788
30.5835
32.994
35.4588
37.7798
40.1374
42.3542
44.5411
46.5832
48.6573
8.88587
9.19361
9.33675
10.8644
12.8276
15.3721
18.2605
21.1884
24.2374
27.1013
29.9981
32.8175
35.5834
38.3049
40.8873
43.4893
45.8757
48.2707
50.5108
52.7193
3.32499
4.05384
3.99693
7.06087
10.5662
13.9963
17.7398
21.3822
24.9536
28.4248
31.7509
35.0057
38.1234
41.1746
44.0439
46.8782
49.4784
52.0768
54.4344
56.7839
-4.28704
-3.51904
-1.94939
2.34569
7.17134
12.1096
16.7481
21.2973
25.6183
29.6909
33.6043
37.3267
40.8806
44.281
47.4804
50.6105
53.4401
56.3183
58.8768
61.4357
-14.327
-13.3343
-8.86068
-2.47631
4.19317
10.3812
16.2265
21.6225
26.7057
31.4448
35.8901
40.0892
44.0516
47.8079
51.3328
54.7132
57.7955
60.923
63.5977
66.4222
-21.7515
-21.0437
-13.6425
-5.61374
2.45036
9.81198
16.6523
22.8651
28.6367
33.9623
38.9204
43.5606
47.8947
51.96
55.7575
59.3541
62.6226
65.9105
68.6935
71.6479
-27.1408
-25.1147
-15.8595
-6.30418
2.77897
11.0421
18.632
25.5188
31.8604
37.6638
43.0295
48.0051
52.6405
56.9498
60.961
64.7132
68.1374
71.5649
74.3602
77.4762
-27.7051
-24.688
-15.2013
-4.52511
5.33585
14.2765
22.4182
29.7762
36.5344
42.7049
48.3684
53.6278
58.4712
62.9668
67.1351
70.9835
74.5174
77.9663
80.8117
84.0148
-24.6901
-21.8903
-10.4027
0.549495
10.572
19.7507
28.2026
35.8148
42.8214
49.2044
55.0589
60.4468
65.412
69.9898
74.2232
78.1104
81.6971
85.1217
87.9307
91.2431
-19.3621
-16.2426
-5.32433
6.66091
17.2941
26.7495
35.5778
43.4667
50.6646
57.2168
63.1757
68.6635
73.6714
78.2892
82.5358
86.3983
89.9814
93.3241
96.0875
99.4584
-11.9174
-7.59946
4.28572
15.6809
26.7776
36.2389
45.0545
52.9807
60.1792
66.728
72.6757
78.1177
83.0867
87.6293
91.7925
95.5615
99.0737
102.222
104.844
108.299
-0.487117
4.00419
15.4669
26.9602
37.8367
47.4372
56.2369
64.1504
71.301
77.7812
83.6325
88.9778
93.8205
98.2571
102.29
105.926
109.345
112.272
114.781
118.261
12.243
17.1656
29.4173
40.8595
51.5459
60.7817
69.3297
77.0133
83.949
90.2485
95.9194
101.082
105.75
109.986
113.814
117.258
120.485
123.04
125.314
128.895
28.2946
33.3286
45.6542
56.3138
66.5819
75.557
83.7315
91.1576
97.8105
103.849
109.269
114.186
118.613
122.621
126.209
129.427
132.376
134.641
136.616
139.896
45.0898
50.3704
63.1207
73.3984
83.2162
91.8124
99.6098
106.675
113.008
118.747
123.882
128.529
132.697
136.436
139.752
142.703
145.335
147.19
148.795
151.868
64.2459
70.04
82.3229
91.835
100.872
108.962
116.2
122.844
128.788
134.21
139.078
143.5
147.491
151.093
154.313
157.219
159.757
161.562
163.451
166.832
84.4009
90.012
101.529
110.805
119.232
126.873
133.663
139.864
145.421
150.497
155.09
159.324
163.233
166.882
170.322
173.629
176.701
179.674
183.738
186.906
45.0536
55.1631
67.0288
72.063
79.5616
82.6669
87.0823
89.4484
91.9026
93.7973
95.2378
96.8108
97.7373
99.1112
99.7882
101.124
102.086
102.088
103.1
102.577
49.7074
58.8941
70.3721
74.8459
82.2282
85.0593
89.216
91.3616
93.5912
95.3605
96.6404
98.103
98.8807
100.151
100.637
101.919
102.645
102.653
103.459
102.968
54.1074
62.2776
73.7976
77.7818
84.923
87.3883
91.3087
93.2975
95.3445
96.9707
98.0801
99.4172
100.041
101.198
101.485
102.715
103.138
103.321
103.882
103.38
58.6388
65.8725
77.3838
80.6531
87.5799
89.7763
93.4392
95.2189
97.0302
98.529
99.4717
100.704
101.179
102.227
102.311
103.508
103.63
103.926
104.197
103.74
62.8914
69.3552
80.9465
83.523
90.2671
92.106
95.5128
97.1263
98.7539
100.115
100.892
102.007
102.335
103.261
103.143
104.3
104.108
104.576
104.545
104.113
67.6196
73.0262
84.4086
86.4319
92.9446
94.4533
97.6144
99.0418
100.437
101.66
102.28
103.286
103.477
104.284
103.96
105.095
104.608
105.097
104.861
104.447
72.7979
76.5578
88.0345
89.2686
95.6613
96.7862
99.6942
100.951
102.142
103.23
103.69
104.577
104.633
105.31
104.784
105.888
105.066
105.623
105.174
104.79
78.1718
80.2939
91.5869
92.1776
98.2916
99.1248
101.747
102.842
103.821
104.758
105.075
105.85
105.783
106.33
105.601
106.686
105.521
106.135
105.467
105.115
83.4674
83.9761
95.1757
95.1544
100.989
101.498
103.825
104.746
105.513
106.303
106.473
107.131
106.944
107.354
106.43
107.478
105.928
106.655
105.74
105.445
88.783
88.0289
98.6983
98.0822
103.587
103.816
105.86
106.616
107.192
107.812
107.853
108.4
108.104
108.375
107.267
108.279
106.347
107.211
106.03
105.762
94.4233
92.0565
102.309
101.138
106.283
106.211
107.936
108.505
108.884
109.327
109.237
109.672
109.27
109.399
108.124
109.074
106.71
107.804
106.353
106.087
100.711
96.4253
105.853
104.089
108.854
108.522
109.963
110.356
110.561
110.814
110.608
110.937
110.439
110.424
109.004
109.879
107.084
108.347
106.672
106.413
107.335
100.856
109.481
107.191
111.552
110.927
112.037
112.224
112.255
112.294
111.972
112.201
111.61
111.453
109.914
110.657
107.468
108.832
106.983
106.726
114.685
105.477
113.073
110.157
114.098
113.242
114.062
114.055
113.94
113.755
113.325
113.463
112.787
112.491
110.862
111.489
107.896
109.33
107.298
107.035
122.546
110.378
116.697
113.217
116.753
115.627
116.122
115.887
115.631
115.192
114.652
114.711
113.955
113.526
111.839
112.408
108.316
109.798
107.576
107.332
131.349
115.749
120.491
116.236
119.286
117.955
118.156
117.701
117.329
116.624
115.972
115.961
115.128
114.577
112.843
113.168
108.759
110.195
107.823
107.587
140.189
121.391
124.122
119.345
122.056
120.443
120.289
119.554
119.072
118.086
117.32
117.249
116.329
115.675
113.929
114.137
109.13
110.693
108.034
107.832
148.576
125.675
127.793
121.816
124.325
122.625
122.254
121.256
120.763
119.442
118.562
118.47
117.496
116.72
115.012
115.439
109.542
111.47
108.254
108.189
161.597
132.151
133.609
124.073
126.149
124.418
123.957
122.672
122.229
120.496
119.48
119.439
118.483
117.57
115.945
116.216
109.909
111.473
107.991
108.136
177.352
145.447
141.007
130.231
129.999
127.988
126.746
125.206
124.219
122.481
121.183
121.047
119.881
119.047
117.197
117.368
111.145
111.709
106.819
109.226
190.421
195.257
172.639
173.363
159.67
156.016
148.728
146.125
140.973
139.703
135.704
133.859
130.75
130.458
126.952
128.294
123.941
126.275
111.46
130.847
213.332
203.771
189.331
182.639
172.387
166.375
159.008
154.527
149.222
145.554
141.662
139.217
136.071
134.719
131.967
131.554
128.629
129.312
126.447
128.867
202.443
193.214
185.455
179.332
173.178
168.206
163.34
159.414
155.788
152.56
149.537
147.195
144.764
142.912
140.942
139.733
138.061
137.362
136.693
136.989
193.52
188.734
185.162
179.513
175.061
170.169
166.133
162.094
158.484
155.45
152.379
149.806
147.35
145.418
143.541
142.185
140.933
139.741
139.415
139.188
180.138
176.046
173.869
170.47
167.973
165.128
162.586
160.05
157.646
155.412
153.303
151.38
149.535
147.856
146.427
144.911
144.054
142.679
142.175
141.715
172.067
170.949
170.511
168.378
166.764
164.124
162.414
160.041
158.02
155.967
153.919
152.1
150.249
148.59
147.029
145.551
144.408
143.086
142.429
142.256
164.071
162.857
162.435
161.547
160.374
159.269
157.914
156.719
155.355
154.058
152.611
151.246
149.769
148.368
146.892
145.437
144.023
142.875
141.84
141.661
159.413
159.509
160
159.284
158.807
158.094
157.223
156.269
155.072
154.012
152.597
151.426
149.892
148.572
146.997
145.475
143.928
142.342
141.341
140.823
155.199
155.345
155.495
155.631
155.411
155.193
154.575
153.998
153.311
152.577
151.561
150.682
149.363
148.229
146.593
145.155
143.188
141.352
139.685
139.127
153.307
153.912
154.214
154.421
154.409
154.384
154.097
153.813
153.275
152.827
151.908
151.233
149.951
148.934
147.228
145.662
143.367
140.946
138.968
137.012
151.311
151.837
152.442
153.11
153.403
153.572
153.511
153.589
153.224
153.053
152.456
152.054
151.103
150.428
148.934
147.868
145.298
143.953
139.347
138.291
150.798
151.594
152.168
152.593
152.957
153.335
153.524
153.834
153.814
153.985
153.743
153.77
153.291
153.138
152.308
151.914
150.1
150.216
146.663
148.761
150.497
151.409
152.23
152.928
153.528
154.035
154.466
154.927
155.226
155.587
155.824
156.137
156.26
156.581
156.524
156.924
156.622
157.276
157.551
159.872
150.506
151.306
152.014
152.801
153.445
154.211
154.781
155.53
156.098
156.821
157.429
158.147
158.884
159.641
160.676
161.56
163.126
164.104
166.854
168.61
150.986
151.882
152.672
153.514
154.284
155.151
155.89
156.778
157.493
158.498
159.224
160.475
161.262
162.903
163.871
165.835
167.264
169.957
172.986
174.41
151.274
152.178
153.02
153.961
154.817
155.744
156.599
157.558
158.453
159.484
160.439
161.628
162.613
164.145
165.125
167.338
168.52
171.355
172.63
181.978
151.684
152.55
153.364
154.255
155.058
156.008
156.861
157.9
158.809
159.977
160.961
162.315
163.406
165.03
166.245
168.237
169.555
171.962
173.577
176.645
152.041
152.906
153.771
154.679
155.58
156.53
157.469
158.471
159.451
160.522
161.545
162.712
163.77
165.073
166.134
167.646
168.654
170.514
171.831
174.033
152.256
153.099
153.948
154.843
155.725
156.678
157.602
158.624
159.593
160.698
161.707
162.91
163.941
165.263
166.248
167.725
168.542
169.96
170.379
171.407
152.401
153.239
154.105
154.993
155.903
156.839
157.794
158.781
159.779
160.817
161.852
162.94
163.994
165.129
166.159
167.339
168.234
169.525
170.002
172.949
262.824
265.851
268.156
269.866
270.973
271.466
271.257
270.619
268.968
267.405
264.165
261.752
257.218
251.973
247.725
242.482
236.734
230.561
222.715
215.192
230.557
232.676
234.488
236.043
237.231
238.238
238.855
239.313
239.413
239.352
238.911
238.433
237.39
236.61
235.042
234.123
232.342
229.067
225.511
223.849
194.949
196.66
198.232
199.722
201.034
202.306
203.358
204.409
205.199
206.039
206.536
207.164
207.377
207.76
207.746
207.849
207.485
207.548
206.876
206.906
181.405
182.693
183.925
185.086
186.194
187.226
188.187
189.09
189.878
190.656
191.294
191.951
192.441
192.99
193.313
193.849
194.091
194.499
194.439
194.922
165.628
166.667
167.642
168.614
169.513
170.422
171.264
172.11
172.895
173.698
174.426
175.181
175.839
176.53
177.079
177.755
178.235
178.916
179.269
180.033
159.409
160.243
161.067
161.86
162.639
163.393
164.122
164.841
165.518
166.192
166.799
167.433
167.97
168.593
169.103
169.682
170.102
170.663
170.989
171.601
152.514
153.215
153.891
154.559
155.199
155.832
156.437
157.036
157.606
158.177
158.714
159.263
159.771
160.298
160.789
161.316
161.772
162.293
162.69
163.246
149.495
150.077
150.656
151.217
151.774
152.315
152.85
153.373
153.885
154.388
154.877
155.364
155.822
156.299
156.699
157.145
157.495
157.937
158.248
158.691
146.852
147.359
147.849
148.333
148.798
149.257
149.699
150.134
150.553
150.968
151.364
151.755
152.122
152.483
152.821
153.18
153.517
153.881
154.179
154.526
145.607
146.047
146.483
146.907
147.327
147.735
148.14
148.532
148.921
149.295
149.665
150.024
150.379
150.734
151.072
151.41
151.696
152.013
152.279
152.609
145.015
145.377
145.728
146.074
146.408
146.738
147.055
147.366
147.684
148.008
148.338
148.68
148.987
149.266
149.542
149.818
150.073
150.333
150.555
150.779
145.09
145.415
145.736
146.05
146.361
146.665
146.964
147.257
147.545
147.821
148.075
148.332
148.59
148.847
149.097
149.342
149.577
149.812
150.018
150.258
145.231
145.514
145.792
146.069
146.34
146.608
146.873
147.132
147.387
147.632
147.879
148.12
148.35
148.58
148.803
149.03
149.234
149.454
149.68
149.909
145.784
146.037
146.287
146.534
146.777
147.018
147.254
147.49
147.72
147.96
148.203
148.436
148.661
148.877
149.081
149.283
149.484
149.675
149.858
150.037
146.318
146.548
146.777
147.005
147.232
147.458
147.683
147.906
148.129
148.351
148.573
148.792
149.01
149.226
149.44
149.651
149.861
150.068
150.271
150.472
146.926
147.133
147.339
147.545
147.752
147.957
148.162
148.366
148.569
148.771
148.973
149.175
149.376
149.576
149.775
149.975
150.172
150.371
150.567
150.763
147.448
147.642
147.837
148.033
148.229
148.426
148.623
148.82
149.018
149.216
149.414
149.612
149.81
150.007
150.204
150.401
150.596
150.791
150.986
151.18
147.905
148.086
148.269
148.452
148.638
148.824
149.012
149.2
149.39
149.58
149.772
149.964
150.158
150.351
150.546
150.741
150.937
151.134
151.331
151.527
148.204
148.378
148.553
148.73
148.909
149.09
149.272
149.455
149.64
149.826
150.013
150.202
150.392
150.583
150.775
150.968
151.162
151.356
151.552
151.748
148.369
148.539
148.71
148.884
149.059
149.236
149.415
149.596
149.778
149.963
150.149
150.336
150.525
150.716
150.908
151.102
151.297
151.493
151.691
151.889
-6.52229
-8.87856
-15.1051
-21.7935
-27.9577
-34.4459
-41.2583
-48.3905
-55.9334
-63.9854
-72.5872
-81.8607
-91.8501
-102.757
-114.454
-127.431
-141.359
-156.713
-174.644
-184.854
12.3877
10.8461
6.35197
1.24728
-3.76876
-9.11785
-14.8587
-20.9992
-27.6088
-34.7081
-42.3793
-50.6792
-59.6432
-69.4618
-80.0292
-91.7559
-104.349
-118.327
-134.494
-144.929
33.458
33.1856
29.9928
25.7074
21.5168
16.9243
11.9096
6.53404
0.717871
-5.56767
-12.3776
-19.7735
-27.819
-36.6608
-46.1927
-56.8812
-68.2085
-81.0512
-95.4818
-104.303
54.8675
54.8449
52.1402
48.6253
45.1681
41.3911
37.2685
32.7769
27.8728
22.5277
16.6655
10.2429
3.18047
-4.62601
-13.1427
-22.7215
-32.9789
-44.754
-57.7319
-65.0627
76.6644
77.2162
75.2279
72.4552
69.7411
66.7083
63.2793
59.5401
55.3828
50.8144
45.7377
40.1401
33.9194
26.9983
19.3778
10.6779
1.36997
-9.64706
-21.7172
-28.0221
98.0848
98.8782
97.3602
95.1447
92.996
90.5702
87.8686
84.8508
81.4892
77.7388
73.5473
68.8725
63.607
57.7084
51.1021
43.5486
35.3066
25.3655
14.3663
7.58179
119.163
120.335
119.31
117.752
116.242
114.507
112.447
110.149
107.487
104.5
101.074
97.216
92.8131
87.8709
82.2678
75.8216
68.7683
60.1063
50.6404
43.2524
139.834
141.171
140.487
139.407
138.382
137.127
135.661
133.958
131.969
129.691
127.057
124.072
120.622
116.721
112.195
107.023
101.194
93.9859
86.4058
78.7155
159.44
160.928
160.659
160.095
159.598
158.927
158.056
156.992
155.681
154.137
152.277
150.116
147.538
144.585
141.072
137.051
132.377
126.731
120.881
112.997
177.774
179.49
179.585
179.525
179.498
179.322
178.973
178.467
177.763
176.858
175.703
174.292
172.548
170.475
167.924
164.976
161.382
157.276
152.619
146.202
195.051
196.862
197.378
197.735
198.168
198.483
198.673
198.748
198.668
198.426
197.958
197.269
196.267
194.958
193.214
191.081
188.421
185.254
181.403
176.519
210.975
213.043
214
214.838
215.719
216.52
217.207
217.796
218.229
218.517
218.593
218.468
218.042
217.339
216.244
214.832
212.882
210.576
207.514
203.52
225.402
227.642
229.021
230.281
231.606
232.85
234.002
235.051
235.973
236.763
237.354
237.772
237.902
237.827
237.37
236.655
235.449
233.851
231.498
228.267
239.202
241.623
243.304
244.904
246.537
248.102
249.583
250.993
252.301
253.496
254.535
255.41
256.069
256.513
256.654
256.518
255.887
254.925
253.152
250.58
250.99
253.579
255.627
257.593
259.602
261.551
263.453
265.28
267.029
268.656
270.141
271.475
272.611
273.552
274.181
274.552
274.431
273.997
272.779
270.82
262.407
265.193
267.463
269.693
271.945
274.16
276.31
278.408
280.409
282.332
284.132
285.814
287.303
288.59
289.626
290.372
290.721
290.749
290.02
288.653
272.096
275.027
277.506
279.979
282.475
284.936
287.351
289.714
292.02
294.233
296.355
298.328
300.161
301.8
303.22
304.382
305.131
305.642
305.394
304.928
280.942
283.938
286.512
289.115
291.772
294.39
296.997
299.559
302.082
304.523
306.889
309.126
311.246
313.16
314.862
316.238
317.337
318.098
318.474
318.577
288.545
291.649
294.271
297.001
299.766
302.528
305.258
307.972
310.63
313.223
315.728
318.108
320.354
322.397
324.252
325.859
327.204
328.302
328.907
329.111
294.509
297.565
300.289
303.106
305.976
308.823
311.674
314.49
317.288
320.013
322.687
325.247
327.713
330.018
332.175
334.105
335.794
337.046
337.883
338.001
-366.199
-376.908
-388.074
-400.084
-412.517
-425.783
-439.524
-454.001
-469.144
-485.073
-501.737
-519.295
-537.791
-557.29
-578.023
-600.121
-622.84
-643.597
-660.791
-663.833
-357.99
-368.743
-379.88
-391.932
-404.373
-417.698
-431.556
-446.172
-461.479
-477.55
-494.496
-512.315
-531.152
-551.071
-572.339
-594.948
-618.523
-641.591
-659.946
-663.771
-348.882
-359.67
-370.747
-382.822
-395.304
-408.662
-422.584
-437.29
-452.745
-469.047
-486.202
-504.322
-523.467
-543.784
-565.392
-588.292
-612.208
-636.653
-656.2
-659.087
-339.099
-349.78
-360.68
-372.679
-385.067
-398.369
-412.311
-427.03
-442.53
-458.884
-476.171
-494.439
-513.859
-534.499
-556.522
-580.025
-604.958
-631.384
-651.025
-654.616
-328.019
-338.72
-349.416
-361.346
-373.671
-386.907
-400.784
-415.491
-431.004
-447.406
-464.763
-483.153
-502.69
-523.497
-545.648
-569.456
-594.728
-621.81
-642.581
-646.545
-315.631
-326.294
-336.871
-348.645
-360.869
-373.979
-387.776
-402.344
-417.753
-434.079
-451.358
-469.696
-489.25
-510.048
-532.386
-556.405
-582.032
-609.615
-631.662
-636.7
-302.627
-313.179
-323.436
-334.962
-346.975
-359.838
-373.428
-387.841
-403.087
-419.248
-436.417
-454.644
-474.074
-494.796
-516.975
-540.784
-566.178
-593.697
-616.497
-622.32
-288.022
-298.416
-308.446
-319.719
-331.532
-344.155
-357.5
-371.633
-386.611
-402.549
-419.419
-437.404
-456.61
-477.059
-499.116
-522.769
-548.148
-575.748
-599.35
-606.077
-272.54
-282.769
-292.457
-303.378
-314.862
-327.131
-340.158
-353.985
-368.652
-384.221
-400.811
-418.467
-437.321
-457.47
-479.135
-502.315
-527.258
-554.41
-578.371
-585.895
-255.706
-265.714
-275.098
-285.664
-296.848
-308.757
-321.379
-334.795
-349.028
-364.23
-380.341
-397.577
-415.98
-435.641
-456.884
-479.617
-504.185
-530.926
-555.155
-563.334
-237.925
-247.679
-256.665
-266.778
-277.52
-288.962
-301.157
-314.117
-327.901
-342.57
-358.225
-374.934
-392.805
-411.949
-432.609
-454.665
-478.642
-504.845
-529.06
-537.827
-218.928
-228.381
-236.987
-246.633
-256.965
-267.94
-279.6
-292.041
-305.266
-319.43
-334.478
-350.631
-367.871
-386.388
-406.378
-427.745
-451.129
-476.411
-500.589
-509.726
-198.967
-208.116
-216.301
-225.426
-235.24
-245.669
-256.809
-268.683
-281.34
-294.861
-309.301
-324.766
-341.329
-359.135
-378.376
-398.978
-421.685
-445.888
-470.089
-479.487
-177.905
-186.678
-194.428
-202.987
-212.284
-222.153
-232.667
-243.927
-255.944
-268.833
-282.579
-297.383
-313.194
-330.281
-348.691
-368.496
-390.253
-413.184
-437.277
-446.799
-155.823
-164.262
-171.588
-179.599
-188.337
-197.631
-207.572
-218.222
-229.594
-241.803
-254.846
-268.873
-283.909
-300.131
-317.666
-336.557
-357.306
-379.253
-403.139
-412.805
-132.715
-140.774
-147.669
-155.084
-163.254
-171.948
-181.248
-191.234
-201.946
-213.441
-225.751
-239.047
-253.261
-268.72
-285.354
-303.325
-323.013
-343.86
-366.988
-376.821
-108.977
-116.576
-122.999
-129.835
-137.414
-145.539
-154.237
-163.61
-173.644
-184.46
-196.037
-208.534
-221.951
-236.5
-252.193
-269.232
-287.925
-307.79
-330.202
-340.142
-84.4565
-91.6325
-97.5409
-103.752
-110.753
-118.287
-126.378
-135.093
-144.486
-154.572
-165.405
-177.123
-189.667
-203.373
-218.091
-234.118
-251.607
-270.162
-291.771
-302.119
-57.3006
-64.7513
-70.5747
-76.4133
-82.9753
-90.1413
-97.7792
-105.987
-114.779
-124.252
-134.395
-145.354
-157.132
-169.951
-183.727
-198.822
-215.223
-232.882
-253.324
-263.529
-27.2553
-34.5617
-41.5657
-47.8912
-54.4113
-61.4401
-68.8442
-76.6512
-84.9677
-93.8167
-103.276
-113.454
-124.34
-136.233
-148.974
-162.959
-178.129
-194.465
-213.778
-224.232
-12.7665
-13.0462
-15.1152
-17.1091
-20.2906
-24.5504
-28.3214
-34.462
-40.0186
-48.2992
-56.7225
-68.0816
-80.8623
-96.6504
-116.51
-138.926
-170.744
-205.302
-256.785
-314.373
-12.6606
-12.7796
-14.8009
-16.8769
-19.8166
-24.1009
-27.661
-33.7464
-39.1485
-47.3139
-55.5473
-66.7107
-79.2031
-94.6761
-114.124
-135.922
-167.209
-200.541
-251.363
-306.621
-12.5188
-12.518
-14.4351
-16.604
-19.3017
-23.6017
-26.9821
-32.9956
-38.2562
-46.2754
-54.3264
-65.3137
-77.5217
-92.6819
-111.687
-132.884
-163.478
-195.514
-245.43
-298.288
-12.3466
-12.2679
-14.0554
-16.3025
-18.7671
-23.0638
-26.2445
-32.1678
-37.2754
-45.1533
-53.0022
-63.7857
-75.6612
-90.5159
-109.013
-129.622
-159.488
-190.318
-239.075
-289.04
-12.1131
-11.9438
-13.6188
-15.9564
-18.1894
-22.4871
-25.475
-31.2954
-36.2643
-43.9798
-51.6336
-62.2283
-73.7838
-88.3259
-106.288
-126.304
-155.282
-184.778
-232.128
-279.562
-11.8241
-11.6601
-13.1782
-15.5805
-17.5832
-21.8696
-24.6383
-30.3604
-35.171
-42.7246
-50.166
-60.5463
-71.7336
-85.9721
-103.337
-122.784
-150.862
-179.045
-224.769
-269.068
-11.4918
-11.4335
-12.6927
-15.199
-16.9795
-21.2138
-23.7755
-29.3669
-34.0386
-41.4201
-48.6533
-58.8308
-69.6679
-83.5904
-100.331
-119.19
-146.195
-172.967
-216.9
-258.1
-11.167
-11.1993
-12.1999
-14.826
-16.3393
-20.5177
-22.8597
-28.3065
-32.8308
-40.0377
-47.0494
-56.9978
-67.4411
-81.0532
-97.1171
-115.417
-141.342
-166.677
-208.549
-246.362
-10.7991
-10.9314
-11.5223
-14.3775
-15.4658
-19.7669
-21.9129
-27.1862
-31.5794
-38.6037
-45.3992
-55.1274
-65.1995
-78.4843
-93.8426
-111.556
-136.241
-160.065
-199.819
-233.985
-10.4188
-10.6841
-10.7877
-13.8163
-14.4625
-18.9286
-20.8588
-25.9879
-30.2619
-37.0958
-43.6664
-53.1472
-62.8117
-75.767
-90.3829
-107.542
-130.957
-153.229
-190.552
-220.91
-10.0039
-10.4663
-10.1498
-13.2008
-13.4949
-18.05
-19.8221
-24.7307
-28.9046
-35.5391
-41.8876
-51.1275
-60.4097
-73.0153
-86.8629
-103.429
-125.439
-146.124
-181.049
-207.09
-9.57546
-10.2397
-9.52547
-12.6183
-12.4693
-17.0838
-18.7632
-23.4463
-27.4735
-33.9076
-40.0341
-49.0065
-57.8797
-70.1215
-83.1832
-99.1894
-119.742
-138.8
-171.003
-192.555
-9.11928
-10.0387
-8.86478
-12.0023
-11.467
-16.0449
-17.6525
-22.0942
-25.9793
-32.2468
-38.1363
-46.8441
-55.3336
-67.1865
-79.443
-94.8338
-113.814
-131.269
-160.805
-177.275
-8.63742
-9.83743
-8.17487
-11.372
-10.4752
-14.9195
-16.4736
-20.6781
-24.4556
-30.514
-36.1686
-44.5874
-52.6767
-64.1154
-75.5713
-90.3792
-107.739
-123.597
-150.156
-161.23
-8.11829
-9.6416
-7.44085
-10.6698
-9.49765
-13.7663
-15.2325
-19.2453
-22.8856
-28.7552
-34.1698
-42.3044
-50.0228
-61.0264
-71.6825
-85.8454
-101.503
-115.839
-139.326
-144.296
-7.55007
-9.42406
-6.70533
-9.89225
-8.54553
-12.5672
-13.9111
-17.7869
-21.2826
-26.9322
-32.1081
-39.9355
-47.2705
-57.7929
-67.6594
-81.1571
-95.0429
-107.825
-127.827
-126.404
-6.95468
-9.1706
-5.91828
-9.02864
-7.46208
-11.3351
-12.5267
-16.2832
-19.5954
-25.0352
-29.9525
-37.4538
-44.4003
-54.3908
-63.4392
-76.1584
-88.2278
-99.657
-116.402
-108.262
-6.20702
-8.79145
-4.91113
-8.12355
-6.32295
-10.1032
-11.1228
-14.7589
-17.8898
-23.1139
-27.7881
-34.9901
-41.5849
-51.0756
-59.4186
-71.5455
-82.0794
-92.5206
-105.653
-89.5608
-5.66613
-8.50525
-4.16384
-7.22631
-5.28123
-8.9303
-9.8661
-13.3925
-16.3701
-21.4158
-25.9271
-32.9232
-39.3102
-48.3824
-56.1787
-67.6827
-76.6717
-85.9014
-92.634
-64.9712
-4.75088
-8.36984
-3.96278
-6.0857
-3.95872
-7.45715
-8.27405
-11.72
-14.4841
-19.2479
-23.4287
-29.9189
-35.7828
-43.9428
-50.8036
-60.5992
-66.8436
-73.4877
-72.7088
-39.6078
10.1911
3.15718
7.04358
4.17443
6.5475
3.82942
4.39614
1.94876
1.56646
-0.857278
-1.41474
-3.14041
-2.69067
-3.2892
-1.11449
0.73039
7.28749
12.9017
30.5334
19.5723
15.277
13.5964
15.2471
14.4449
15.6698
15.1584
15.5923
15.5859
15.8959
16.5008
17.7876
19.2198
22.0845
24.9145
30.8603
36.0885
47.681
56.6002
80.3627
91.4926
35.1262
35.1322
34.6553
35.1466
35.3118
35.7439
36.7713
37.3891
39.2763
40.7669
43.3539
45.9002
49.914
54.329
60.8116
68.2328
78.5359
89.6028
104.625
118.561
42.784
42.9579
43.0775
44.1716
44.981
46.3727
47.8852
50.1308
52.4924
55.3001
58.7629
62.7063
67.5933
72.9588
79.7913
86.7062
96.1265
105.159
118.607
129.506
55.3054
55.4742
56.2284
57.559
58.8885
60.4701
62.3674
64.4075
66.8942
69.6921
73.0432
76.7619
81.1365
86.0788
91.6775
98.0584
105.111
112.841
121.246
129.949
62.7229
62.911
63.7948
65.1607
66.7234
68.9722
71.1539
73.7943
76.6158
79.7808
83.2997
87.1453
91.4753
96.0761
101.286
106.683
112.832
118.946
126.399
132.992
71.1712
71.5563
72.807
74.6876
76.8913
78.9844
81.4334
83.7864
86.5916
89.3766
92.5646
95.8498
99.5276
103.358
107.59
111.984
116.618
121.45
125.864
130.71
77.473
78.0542
79.4766
81.6867
83.8219
86.1173
88.5321
91.0016
93.6895
96.3754
99.4058
102.444
105.816
109.194
112.887
116.475
120.538
124.722
129.273
132.988
84.9166
85.6879
87.5281
89.5588
92.0424
94.0887
96.5456
98.6776
101.197
103.53
106.2
108.753
111.586
114.405
117.419
120.467
123.62
126.342
129.269
132.273
91.0437
91.72
94.1901
96.0709
98.6181
100.55
102.86
104.83
107.115
109.189
111.506
113.718
116.18
118.532
121.105
123.55
126.311
128.945
131.668
133.905
99.6309
100.176
102.995
104.153
106.668
108.101
110.174
111.692
113.649
115.282
117.258
119.025
121.055
122.951
125.085
127.086
129.187
131.052
133.195
134.999
107.658
107.321
111.163
111.927
113.885
115.028
116.535
117.763
119.19
120.512
121.982
123.385
124.979
126.478
128.157
129.704
131.474
133.079
134.903
136.493
121.329
119.951
120.829
121.021
122.02
122.591
123.459
124.178
125.129
125.969
127.033
128.021
129.187
130.284
131.573
132.755
134.133
135.342
136.771
137.981
134.443
132.935
130.965
130.991
130.073
130.145
129.961
130.167
130.453
130.844
131.42
132.006
132.773
133.521
134.46
135.335
136.41
137.359
138.528
139.51
141.772
141.463
138.512
137.672
136.501
135.768
135.389
134.979
135.023
134.932
135.261
135.455
136.005
136.439
137.132
137.74
138.555
139.28
140.193
140.982
148.491
147.061
144.807
142.966
141.769
140.528
139.866
139.099
138.829
138.467
138.486
138.466
138.728
138.952
139.394
139.812
140.402
140.964
141.679
142.327
153.815
150.247
148.783
146.395
145.216
143.711
143.066
142.039
141.711
141.103
141.015
140.729
140.861
140.894
141.182
141.448
141.891
142.313
142.881
143.414
158.196
150.419
149.553
147.778
147.055
145.655
144.963
144.069
143.574
143.03
142.77
142.46
142.44
142.386
142.56
142.717
143.042
143.391
143.843
144.313
153.189
151.474
150.609
148.924
148.106
146.862
146.181
145.296
144.838
144.209
143.959
143.653
143.524
143.438
143.513
143.651
143.873
144.147
144.511
144.917
156.303
151.798
151.049
149.481
148.623
147.473
146.712
145.875
145.289
144.792
144.412
144.177
144.01
143.953
143.935
144.038
144.211
144.472
144.812
145.208