/*--------------------------------*- C++ -*----------------------------------*\
  =========                 |
  \\      /  F ield         | OpenFOAM: The Open Source CFD Toolbox
   \\    /   O peration     | Website:  https://openfoam.org
    \\  /    A nd           | Version:  9
     \\/     M anipulation  |
\*---------------------------------------------------------------------------*/
FoamFile
{
    format      ascii;
    class       surfaceScalarField;
    location    "5.2";
    object      phi;
}
// * * * * * * * * * * * * * * * * * * * * * * * * * * * * * * * * * * * * * //

dimensions      [0 3 -1 0 0 0 0];

internalField   nonuniform List<scalar> 
92080
(
-0.00147941
-0.416705
0.418185
-0.0240521
-0.836871
0.859444
-0.0628403
-0.912282
0.95107
-0.102544
-0.897159
0.936863
-0.141717
-0.882277
0.92145
-0.180636
-0.867703
0.906622
-0.218908
-0.855961
0.894232
-0.256989
-0.844222
0.882303
-0.294262
-0.834246
0.871518
-0.330657
-0.823303
0.859698
-0.366461
-0.812903
0.848707
-0.40232
-0.803098
0.838957
-0.43768
-0.79503
0.83039
-0.472571
-0.786835
0.821726
-0.507042
-0.779946
0.814417
-0.540916
-0.773461
0.807335
-0.575459
-0.766982
0.801525
-0.60901
-0.761335
0.794886
-0.639468
-0.756464
0.786922
-0.751466
0.781891
-0.669892
-0.0038319
-0.412873
-0.0309678
-0.809735
-0.0736537
-0.869596
-0.115916
-0.854897
-0.156597
-0.841595
-0.197172
-0.827129
-0.237951
-0.815182
-0.278329
-0.803844
-0.318344
-0.794231
-0.357489
-0.784157
-0.396205
-0.774187
-0.434603
-0.764701
-0.472984
-0.756649
-0.511052
-0.748767
-0.549493
-0.741505
-0.586776
-0.736178
-0.622796
-0.730963
-0.659608
-0.724523
-0.695666
-0.720405
-0.717477
-0.729656
-0.00602966
-0.406844
-0.0363543
-0.77941
-0.0785298
-0.82742
-0.121156
-0.812271
-0.163236
-0.799515
-0.204448
-0.785917
-0.245479
-0.774151
-0.286641
-0.762682
-0.327321
-0.753551
-0.366904
-0.744574
-0.405477
-0.735613
-0.443708
-0.72647
-0.481547
-0.71881
-0.518638
-0.711676
-0.555532
-0.704611
-0.593482
-0.698227
-0.629868
-0.694578
-0.664801
-0.689589
-0.70141
-0.683797
-0.679665
-0.739221
-0.00774811
-0.399096
-0.044045
-0.743113
-0.0900716
-0.781394
-0.135347
-0.766996
-0.179395
-0.755467
-0.222778
-0.742534
-0.265637
-0.731291
-0.308212
-0.720107
-0.351013
-0.71075
-0.393432
-0.702155
-0.434692
-0.694354
-0.475055
-0.686107
-0.51511
-0.678755
-0.554882
-0.671904
-0.593905
-0.665587
-0.633325
-0.658808
-0.674235
-0.653668
-0.713377
-0.650447
-0.750668
-0.646506
-0.642757
-0.787576
-0.00678554
-0.39231
-0.0458843
-0.704015
-0.0913479
-0.73593
-0.137105
-0.721239
-0.182127
-0.710445
-0.225917
-0.698744
-0.26934
-0.687869
-0.312493
-0.676953
-0.355268
-0.667975
-0.397934
-0.659489
-0.440091
-0.652197
-0.481378
-0.64482
-0.521983
-0.63815
-0.561595
-0.632292
-0.600461
-0.626721
-0.638505
-0.620763
-0.677373
-0.614801
-0.717671
-0.610149
-0.758087
-0.60609
-0.602721
-0.798123
-0.00580469
-0.386505
-0.0477328
-0.662087
-0.0977384
-0.685925
-0.14675
-0.672227
-0.195254
-0.661941
-0.242571
-0.651427
-0.28819
-0.64225
-0.333308
-0.631836
-0.378141
-0.623142
-0.422779
-0.614852
-0.467162
-0.607814
-0.510764
-0.601219
-0.554436
-0.594477
-0.598577
-0.588151
-0.641427
-0.583871
-0.682605
-0.579585
-0.722516
-0.57489
-0.761801
-0.570864
-0.800862
-0.567029
-0.563797
-0.839785
-0.00233121
-0.384174
-0.0450542
-0.619364
-0.0970821
-0.633897
-0.147835
-0.621474
-0.196984
-0.612792
-0.245127
-0.603284
-0.292104
-0.595272
-0.337451
-0.586488
-0.382107
-0.578487
-0.426
-0.570959
-0.470336
-0.563477
-0.51415
-0.557405
-0.556012
-0.552615
-0.597957
-0.546206
-0.641967
-0.539861
-0.685677
-0.535875
-0.729049
-0.531518
-0.772221
-0.527693
-0.814845
-0.524405
-0.521938
-0.856704
-0.0022437
-0.38193
-0.0496896
-0.571918
-0.104437
-0.57915
-0.157074
-0.568837
-0.209705
-0.560161
-0.260752
-0.552237
-0.310664
-0.54536
-0.359322
-0.537831
-0.406804
-0.531005
-0.452949
-0.524814
-0.49798
-0.518446
-0.544641
-0.510744
-0.591573
-0.505683
-0.635513
-0.502266
-0.678391
-0.496982
-0.722478
-0.491788
-0.76584
-0.488156
-0.809007
-0.484526
-0.852478
-0.480934
-0.478841
-0.895575
-0.00539557
-0.376535
-0.0542174
-0.523096
-0.109619
-0.523748
-0.162797
-0.515659
-0.214841
-0.508117
-0.266461
-0.500617
-0.316865
-0.494956
-0.366233
-0.488462
-0.414983
-0.482255
-0.462674
-0.477123
-0.507821
-0.473299
-0.550574
-0.467991
-0.594595
-0.461662
-0.639729
-0.457132
-0.682845
-0.453866
-0.725035
-0.449598
-0.768257
-0.444934
-0.810788
-0.441994
-0.853666
-0.438057
-0.435338
-0.897169
-0.0146961
-0.361839
-0.0672203
-0.470572
-0.123114
-0.467854
-0.177831
-0.460942
-0.231581
-0.454367
-0.284762
-0.447437
-0.337502
-0.442216
-0.388817
-0.437147
-0.440064
-0.431008
-0.491908
-0.425278
-0.543585
-0.421623
-0.593322
-0.418254
-0.640263
-0.414721
-0.68655
-0.410845
-0.733525
-0.406891
-0.778372
-0.404751
-0.822066
-0.40124
-0.865633
-0.398428
-0.907866
-0.395823
-0.39298
-0.950224
-0.0224406
-0.339398
-0.0755535
-0.417459
-0.131486
-0.411922
-0.184646
-0.407782
-0.237113
-0.401899
-0.288068
-0.396482
-0.339264
-0.391021
-0.388978
-0.387433
-0.436551
-0.383436
-0.484576
-0.377252
-0.533356
-0.372844
-0.58261
-0.369
-0.632365
-0.364965
-0.680729
-0.362481
-0.728443
-0.359178
-0.776836
-0.356357
-0.823811
-0.354266
-0.8703
-0.351938
-0.916216
-0.349908
-0.348275
-0.96092
-0.0326052
-0.306793
-0.0871042
-0.36296
-0.143351
-0.355675
-0.19901
-0.352123
-0.252991
-0.347918
-0.305942
-0.343531
-0.358485
-0.338478
-0.411823
-0.334095
-0.462688
-0.33257
-0.510577
-0.329363
-0.558401
-0.32502
-0.605288
-0.322113
-0.652077
-0.318177
-0.69954
-0.315017
-0.746531
-0.312187
-0.792916
-0.309972
-0.840098
-0.307083
-0.886409
-0.305627
-0.933109
-0.303208
-0.3017
-0.979684
-0.038379
-0.268414
-0.0937435
-0.307595
-0.150768
-0.29865
-0.206834
-0.296058
-0.26156
-0.293192
-0.31414
-0.290951
-0.364873
-0.287745
-0.416317
-0.282652
-0.469671
-0.279216
-0.521707
-0.277328
-0.57241
-0.274316
-0.622359
-0.272164
-0.671154
-0.269381
-0.718574
-0.267598
-0.766323
-0.264438
-0.81334
-0.262955
-0.859608
-0.260815
-0.906061
-0.259174
-0.951325
-0.257945
-0.256143
-0.996882
-0.0452906
-0.223123
-0.103797
-0.249089
-0.161416
-0.241031
-0.218791
-0.238683
-0.27651
-0.235472
-0.332754
-0.234707
-0.386907
-0.233592
-0.437782
-0.231776
-0.488284
-0.228714
-0.538447
-0.227165
-0.588601
-0.224162
-0.637536
-0.223229
-0.686624
-0.220293
-0.735151
-0.21907
-0.7825
-0.21709
-0.830525
-0.21493
-0.877782
-0.213557
-0.925271
-0.211686
-0.972601
-0.210614
-0.209516
-1.01923
-0.0564638
-0.16666
-0.109912
-0.195641
-0.16112
-0.189822
-0.212467
-0.187337
-0.264429
-0.183511
-0.320063
-0.179072
-0.375297
-0.178358
-0.429896
-0.177178
-0.483636
-0.174974
-0.536042
-0.174759
-0.587924
-0.17228
-0.63951
-0.171644
-0.689566
-0.170237
-0.739826
-0.16881
-0.788857
-0.16806
-0.83697
-0.166817
-0.884795
-0.165732
-0.931813
-0.164668
-0.978773
-0.163654
-0.162516
-1.02577
-0.0616874
-0.104972
-0.120918
-0.13641
-0.178313
-0.132427
-0.234121
-0.131529
-0.287119
-0.130512
-0.339204
-0.126988
-0.3927
-0.124861
-0.445878
-0.124
-0.498957
-0.121895
-0.552205
-0.121511
-0.603573
-0.120912
-0.655112
-0.120104
-0.705471
-0.119878
-0.755292
-0.118989
-0.804823
-0.118529
-0.85381
-0.11783
-0.902056
-0.117486
-0.950052
-0.116673
-0.99713
-0.116575
-0.115737
-1.04391
-0.0484596
-0.0565125
-0.105852
-0.0790177
-0.162767
-0.0755123
-0.222865
-0.0714302
-0.282405
-0.0709725
-0.33837
-0.0710231
-0.393908
-0.0693235
-0.447798
-0.07011
-0.500344
-0.0693491
-0.552832
-0.0690229
-0.604872
-0.0688717
-0.656454
-0.0685226
-0.707535
-0.0687968
-0.757844
-0.0686798
-0.807507
-0.0688659
-0.856613
-0.0687246
-0.905173
-0.0689255
-0.952987
-0.0688582
-1.00045
-0.069115
-0.0691724
-1.04701
-0.0508972
-0.00561534
-0.114911
-0.0150043
-0.173545
-0.0168778
-0.228823
-0.0161522
-0.285647
-0.0141483
-0.341689
-0.0149809
-0.396772
-0.0142414
-0.451394
-0.0154879
-0.505393
-0.0153494
-0.558394
-0.0160225
-0.611062
-0.0162034
-0.662976
-0.0166091
-0.714502
-0.0172708
-0.765277
-0.0179042
-0.815507
-0.018636
-0.86491
-0.0193221
-0.913847
-0.0199878
-0.962118
-0.0205875
-1.00995
-0.0212877
-0.0218655
-1.05725
-0.0510909
0.0454755
-0.11803
0.0519352
-0.181315
0.0464071
-0.237734
0.0402667
-0.293596
0.0417141
-0.348467
0.0398898
-0.402993
0.0402842
-0.457083
0.038602
-0.510479
0.0380467
-0.563176
0.0366749
-0.615041
0.0356609
-0.666249
0.0345991
-0.717002
0.0334827
-0.767515
0.0326083
-0.817359
0.0312078
-0.867222
0.0305416
-0.916193
0.0289827
-0.965226
0.0284458
-1.0135
0.0269839
0.0263752
-1.06174
-0.0428819
0.0883575
-0.0944368
0.10349
-0.155175
0.107146
-0.216453
0.101545
-0.276027
0.101287
-0.335636
0.0994992
-0.393131
0.0977793
-0.449646
0.0951167
-0.505072
0.0934728
-0.559427
0.0910301
-0.612992
0.089226
-0.665814
0.0874208
-0.718015
0.0856835
-0.769563
0.0841569
-0.820694
0.0823389
-0.870965
0.0808119
-0.921066
0.0790843
-0.970106
0.0774858
-1.01895
0.0758266
-1.06683
0.0742547
-0.0114731
0.0968413
-0.0853682
0.0275603
0.0658878
-0.104921
0.131279
-0.0782618
-0.0254573
0.357256
-0.414266
0.18829
0.584748
-0.785176
0.557684
0.724259
-1.0116
0.872087
0.785392
-1.10524
1.04411
0.810614
-1.13681
1.11159
0.82014
-1.14504
1.13551
0.821391
-1.14371
1.14246
0.821872
-1.14114
1.14066
0.824097
-1.14003
1.13781
0.825989
-1.14014
1.13825
0.827844
-1.13989
1.13803
0.829465
-1.14067
1.13905
0.830105
-1.13895
1.1383
0.829088
-1.13738
1.13839
0.828219
-1.13507
1.13594
0.828406
-1.13633
1.13614
-1.13571
0.827355
1.13676
0.00740306
0.0894383
0.06845
0.00484086
0.21861
-0.228421
0.445788
-0.641444
0.60646
-0.945848
0.682768
-1.08791
0.711227
-1.1337
0.720977
-1.14656
0.723141
-1.1472
0.723896
-1.14447
0.724886
-1.14213
0.725764
-1.14091
0.72661
-1.14099
0.727213
-1.14049
0.726745
-1.1402
0.725413
-1.13761
0.724356
-1.13632
0.724532
-1.13524
0.724251
-1.13605
-1.1338
0.722338
0.0257894
0.0636489
0.102656
-0.072026
0.290679
-0.416444
0.472347
-0.823113
0.572326
-1.04583
0.610265
-1.12585
0.62362
-1.14705
0.627573
-1.15051
0.628962
-1.14859
0.628801
-1.14431
0.628499
-1.14183
0.628407
-1.14082
0.62787
-1.14045
0.627056
-1.13968
0.6258
-1.13895
0.624115
-1.13593
0.622322
-1.13453
0.620435
-1.13335
0.618126
-1.13374
-1.13018
0.614503
0.0452478
0.0184011
0.139593
-0.166371
0.325206
-0.602057
0.453903
-0.95181
0.510804
-1.10273
0.531409
-1.14645
0.537638
-1.15328
0.53964
-1.15251
0.538561
-1.14751
0.537409
-1.14315
0.536535
-1.14095
0.53557
-1.13986
0.534429
-1.13931
0.532983
-1.13823
0.530473
-1.13643
0.527493
-1.13295
0.524631
-1.13167
0.522343
-1.13107
0.519561
-1.13096
-1.12472
0.5141
0.043597
-0.0251959
0.162031
-0.284806
0.316299
-0.756325
0.404545
-1.04006
0.438653
-1.13684
0.448773
-1.15657
0.452236
-1.15675
0.451931
-1.15221
0.45081
-1.14639
0.44977
-1.14211
0.448231
-1.13942
0.446203
-1.13783
0.443358
-1.13646
0.439774
-1.13465
0.435496
-1.13216
0.431083
-1.12854
0.427084
-1.12767
0.422961
-1.12694
0.417434
-1.12543
-1.11691
0.409624
0.0437788
-0.0689746
0.172619
-0.413646
0.290751
-0.874457
0.348424
-1.09773
0.366852
-1.15526
0.371644
-1.16136
0.372876
-1.15798
0.371672
-1.151
0.369964
-1.14468
0.367222
-1.13937
0.363916
-1.13611
0.360004
-1.13392
0.355687
-1.13215
0.350978
-1.12994
0.345756
-1.12693
0.340488
-1.12327
0.334885
-1.12206
0.328734
-1.12079
0.321023
-1.11772
-1.10702
0.311139
0.0438417
-0.112816
0.161151
-0.530955
0.250411
-0.963717
0.287824
-1.13514
0.297632
-1.16507
0.300395
-1.16413
0.299102
-1.15668
0.296603
-1.1485
0.293116
-1.1412
0.289064
-1.13532
0.284447
-1.13149
0.279298
-1.12877
0.273365
-1.12621
0.266795
-1.12337
0.259437
-1.11958
0.251634
-1.11546
0.243752
-1.11418
0.235096
-1.11214
0.224512
-1.10714
-1.09528
0.212771
0.0427016
-0.155518
0.143067
-0.63132
0.209985
-1.03064
0.231772
-1.15693
0.235752
-1.16905
0.234752
-1.16313
0.231633
-1.15357
0.227958
-1.14483
0.223195
-1.13643
0.217376
-1.1295
0.210576
-1.12469
0.202912
-1.1211
0.19462
-1.11792
0.185666
-1.11441
0.176447
-1.11036
0.167176
-1.10619
0.157235
-1.10424
0.146567
-1.10147
0.13456
-1.09513
-1.08297
0.12225
0.0470206
-0.202539
0.125833
-0.710132
0.171616
-1.07642
0.181725
-1.16704
0.181416
-1.16874
0.177249
-1.15896
0.172346
-1.14866
0.166024
-1.1385
0.158576
-1.12898
0.150249
-1.12117
0.141342
-1.11579
0.131764
-1.11152
0.121623
-1.10778
0.111234
-1.10402
0.100198
-1.09932
0.0885695
-1.09457
0.0766335
-1.09231
0.0641029
-1.08894
0.0509277
-1.08195
-1.06969
0.0376463
0.0465258
-0.249064
0.107462
-0.771069
0.136772
-1.10573
0.138252
-1.16852
0.132976
-1.16347
0.125436
-1.15142
0.117336
-1.14056
0.108384
-1.12955
0.0986931
-1.11929
0.0882866
-1.11077
0.0769094
-1.10441
0.0648799
-1.09949
0.0520634
-1.09496
0.0384292
-1.09039
0.0248216
-1.08571
0.0110751
-1.08082
-0.00331467
-1.07792
-0.0178827
-1.07437
-0.0322479
-1.06759
-1.05563
-0.046312
0.0405801
-0.289645
0.0877076
-0.818196
0.104751
-1.12277
0.100092
-1.16386
0.090771
-1.15414
0.0808538
-1.1415
0.0701438
-1.12985
0.0586258
-1.11803
0.0460762
-1.10674
0.0326022
-1.09729
0.0184909
-1.0903
0.00347309
-1.08448
-0.0118069
-1.07968
-0.0272513
-1.07495
-0.0433236
-1.06964
-0.0596022
-1.06454
-0.0759217
-1.0616
-0.0923613
-1.05793
-0.108587
-1.05136
-1.03997
-0.124244
0.0343075
-0.323952
0.0732557
-0.857144
0.0775314
-1.12705
0.0664515
-1.15278
0.0525491
-1.14024
0.0384751
-1.12743
0.0240534
-1.11543
0.00919557
-1.10318
-0.00591326
-1.09164
-0.0215865
-1.08162
-0.0379391
-1.07394
-0.0546479
-1.06777
-0.0722234
-1.06211
-0.0903145
-1.05685
-0.108228
-1.05173
-0.126815
-1.04595
-0.145974
-1.04244
-0.164673
-1.03923
-0.182262
-1.03377
-1.02331
-0.198916
0.0239819
-0.347934
0.0474832
-0.880646
0.0469408
-1.12651
0.033609
-1.13945
0.018091
-1.12472
0.0021881
-1.11153
-0.0143884
-1.09885
-0.0315148
-1.08605
-0.049548
-1.0736
-0.0683196
-1.06285
-0.0878888
-1.05438
-0.108345
-1.04731
-0.128707
-1.04175
-0.1494
-1.03616
-0.17034
-1.03079
-0.190955
-1.02534
-0.211976
-1.02141
-0.233183
-1.01802
-0.252981
-1.01397
-1.0049
-0.271397
0.0230566
-0.370991
0.0399885
-0.897578
0.0291238
-1.11564
0.0101539
-1.12048
-0.0104184
-1.10415
-0.0309521
-1.09099
-0.0514079
-1.0784
-0.0720196
-1.06544
-0.0926463
-1.05298
-0.113898
-1.0416
-0.135454
-1.03282
-0.157418
-1.02535
-0.180173
-1.01899
-0.202753
-1.01358
-0.225392
-1.00815
-0.248814
-1.00192
-0.272457
-0.997772
-0.295819
-0.994663
-0.318082
-0.991712
-0.984277
-0.338703
0.0157643
-0.386755
0.0230533
-0.904867
0.00642956
-1.09902
-0.0155439
-1.0985
-0.0377925
-1.0819
-0.0608321
-1.06795
-0.084096
-1.05514
-0.107417
-1.04212
-0.131108
-1.02928
-0.155133
-1.01757
-0.179967
-1.00798
-0.205304
-1.00001
-0.230708
-0.993587
-0.256825
-0.987465
-0.282409
-0.982566
-0.307806
-0.976519
-0.334142
-0.971436
-0.360317
-0.968488
-0.385129
-0.9669
-0.960981
-0.408424
0.013818
-0.400573
0.016753
-0.907802
-0.00454208
-1.07772
-0.0313679
-1.07168
-0.0584961
-1.05477
-0.0852787
-1.04117
-0.111917
-1.0285
-0.138509
-1.01553
-0.165031
-1.00276
-0.192185
-0.990419
-0.219374
-0.980796
-0.247188
-0.972197
-0.275307
-0.965468
-0.303118
-0.959653
-0.331358
-0.954326
-0.359146
-0.948731
-0.386962
-0.94362
-0.415485
-0.939965
-0.443154
-0.939231
-0.935437
-0.468698
0.00838353
-0.408956
0.0034048
-0.902823
-0.0234262
-1.05089
-0.0527612
-1.04234
-0.0821409
-1.0254
-0.112053
-1.01126
-0.141614
-0.998936
-0.170795
-0.986345
-0.199553
-0.974004
-0.228393
-0.961578
-0.257986
-0.951203
-0.287765
-0.942418
-0.318387
-0.934847
-0.349576
-0.928464
-0.380205
-0.923698
-0.41108
-0.917855
-0.441527
-0.913173
-0.472115
-0.909378
-0.503288
-0.908058
-0.90592
-0.532805
0.00633236
-0.415289
-0.0022923
-0.894198
-0.0321894
-1.02099
-0.064707
-1.00982
-0.0970446
-0.993058
-0.129498
-0.978805
-0.162106
-0.966328
-0.194658
-0.953793
-0.227075
-0.941587
-0.259605
-0.929049
-0.292251
-0.918557
-0.325427
-0.909242
-0.358459
-0.901815
-0.39212
-0.894803
-0.425915
-0.889902
-0.459043
-0.884727
-0.49292
-0.879295
-0.526977
-0.875321
-0.561445
-0.87359
-0.872344
-0.595021
0.00277612
-0.418065
-0.0119117
-0.87951
-0.0460447
-0.986861
-0.0816786
-0.974191
-0.1167
-0.958037
-0.152021
-0.943484
-0.186719
-0.93163
-0.220896
-0.919616
-0.25419
-0.908293
-0.287478
-0.89576
-0.321133
-0.884902
-0.355287
-0.875088
-0.390512
-0.86659
-0.426442
-0.858874
-0.463524
-0.85282
-0.500608
-0.847643
-0.537572
-0.842332
-0.576439
-0.836454
-0.6174
-0.832629
-0.832373
-0.657371
0.000119842
-0.019947
-0.0557377
-0.0930653
-0.129652
-0.166513
-0.20391
-0.241223
-0.277998
-0.31406
-0.350254
-0.386386
-0.422585
-0.459733
-0.498136
-0.538444
-0.57925
-0.620818
-0.666526
-0.717009
0.697569
-9.91394
10.0437
0.602527
-9.52758
9.62262
0.527374
-9.64776
9.72291
0.458059
-9.57509
9.6444
0.397875
-9.62723
9.68741
0.340171
-9.56373
9.62144
0.288913
-9.52755
9.5788
0.244255
-9.46742
9.51208
0.205812
-9.41117
9.44961
0.171088
-9.36748
9.4022
0.141447
-9.336
9.36564
0.114747
-9.29406
9.32076
0.092919
-9.27648
9.29831
0.0731561
-9.23865
9.25841
0.0579849
-9.22518
9.24035
0.0417792
-9.14891
9.16511
0.0326158
-8.91153
8.92069
0.0231666
-7.82573
7.83518
0.0155433
-5.51077
5.51839
-2.39035
2.40589
0.598969
-9.79057
0.507728
-9.43634
0.437446
-9.57748
0.37317
-9.51081
0.316951
-9.57101
0.263554
-9.51034
0.217799
-9.48179
0.17954
-9.42916
0.147649
-9.37928
0.118981
-9.33881
0.0951344
-9.31216
0.0738446
-9.27277
0.0574049
-9.26004
0.0428528
-9.2241
0.0331741
-9.2155
0.0223541
-9.13809
0.0185332
-8.90771
0.0155935
-7.82279
0.0137482
-5.50893
-2.3766
0.498449
-9.67452
0.415626
-9.35351
0.349836
-9.51169
0.289736
-9.45071
0.23886
-9.52014
0.191871
-9.46335
0.15233
-9.44225
0.119463
-9.3963
0.092404
-9.35222
0.0684465
-9.31485
0.0495357
-9.29325
0.0332438
-9.25648
0.0218628
-9.24866
0.012371
-9.21461
0.0079189
-9.21105
0.00257737
-9.13275
0.00487759
-8.91001
0.00907156
-7.82699
0.0125777
-5.51243
-2.36402
0.402381
-9.5628
0.325596
-9.27673
0.265773
-9.45186
0.210091
-9.39503
0.162677
-9.47272
0.11892
-9.41959
0.0841502
-9.40748
0.0567552
-9.3689
0.0356572
-9.33112
0.0173597
-9.29656
0.00385574
-9.27974
-0.00724777
-9.24538
-0.0134195
-9.24249
-0.0178751
-9.21015
-0.0170604
-9.21186
-0.0169366
-9.13287
-0.009105
-8.91784
0.00177396
-7.83787
0.0107535
-5.52141
-2.35327
0.308067
-9.46124
0.236028
-9.20469
0.178756
-9.39459
0.126393
-9.34267
0.0835758
-9.4299
0.0462406
-9.38225
0.0180354
-9.37928
-0.00373539
-9.34713
-0.019722
-9.31513
-0.033138
-9.28314
-0.0416265
-9.27125
-0.0477254
-9.23928
-0.0490215
-9.24119
-0.0484662
-9.21071
-0.0425127
-9.21782
-0.0368137
-9.13857
-0.0230035
-8.93165
-0.00548432
-7.85538
0.00909607
-5.53599
-2.34417
0.214907
-9.36501
0.147973
-9.13776
0.0944773
-9.34109
0.0465911
-9.29478
0.00862456
-9.39194
-0.024333
-9.3493
-0.0475138
-9.3561
-0.0642792
-9.33036
-0.0748077
-9.3046
-0.0830195
-9.27493
-0.0865796
-9.26769
-0.0876661
-9.23819
-0.083978
-9.24488
-0.0783944
-9.21629
-0.067132
-9.22908
-0.0561627
-9.14954
-0.0367437
-8.95107
-0.0127801
-7.87935
0.00720114
-5.55597
-2.33697
0.123164
-9.27541
0.0634099
-9.078
0.0139121
-9.2916
-0.0318174
-9.24905
-0.0673763
-9.35638
-0.0956894
-9.32098
-0.113104
-9.33868
-0.124536
-9.31893
-0.129907
-9.29923
-0.133165
-9.27167
-0.131739
-9.26912
-0.127877
-9.24205
-0.119387
-9.25337
-0.108722
-9.22696
-0.0922509
-9.24555
-0.0758335
-9.16596
-0.0503117
-8.97659
-0.0202752
-7.90938
0.00494227
-5.58119
-2.33203
0.0326593
-9.18581
-0.0259624
-9.01938
-0.0734652
-9.24409
-0.114165
-9.20835
-0.142137
-9.32841
-0.16447
-9.29865
-0.176402
-9.32675
-0.182833
-9.3125
-0.183145
-9.29892
-0.181661
-9.27315
-0.175753
-9.27503
-0.167106
-9.2507
-0.15385
-9.26663
-0.138149
-9.24266
-0.116344
-9.26736
-0.0948657
-9.18744
-0.0636814
-9.00778
-0.0275819
-7.94548
0.002755
-5.61153
-2.32927
-0.051178
-9.09699
-0.105483
-8.96508
-0.146554
-9.20302
-0.186997
-9.16791
-0.214888
-9.30052
-0.233587
-9.27995
-0.240884
-9.31945
-0.242328
-9.31106
-0.237576
-9.30367
-0.231154
-9.27958
-0.22042
-9.28576
-0.206847
-9.26427
-0.188787
-9.28469
-0.168003
-9.26344
-0.141078
-9.29428
-0.114237
-9.21428
-0.0768662
-9.04515
-0.0348837
-7.98747
0.000379812
-5.64679
-2.32889
-0.132867
-9.01044
-0.191823
-8.90612
-0.232612
-9.16223
-0.267269
-9.13325
-0.287128
-9.28066
-0.299367
-9.26771
-0.301576
-9.31724
-0.298105
-9.31453
-0.288716
-9.31306
-0.27801
-9.29028
-0.263188
-9.30058
-0.245087
-9.28237
-0.222497
-9.30728
-0.196929
-9.28901
-0.164962
-9.32625
-0.133093
-9.24615
-0.0898953
-9.08834
-0.0419745
-8.03539
-0.00185037
-5.68692
-2.33074
-0.212136
-8.92254
-0.267871
-8.85038
-0.30415
-9.12595
-0.33929
-9.09811
-0.358714
-9.26123
-0.366853
-9.25957
-0.364886
-9.31921
-0.35657
-9.32284
-0.342124
-9.32751
-0.326521
-9.30588
-0.307011
-9.32009
-0.283985
-9.3054
-0.256567
-9.3347
-0.226196
-9.31938
-0.189571
-9.36287
-0.152342
-9.28338
-0.10279
-9.1379
-0.0489205
-8.08926
-0.00399723
-5.73184
-2.33474
-0.286835
-8.83462
-0.347108
-8.79011
-0.382894
-9.09017
-0.41268
-9.06833
-0.425758
-9.24816
-0.428571
-9.25676
-0.422332
-9.32545
-0.409716
-9.33546
-0.391022
-9.3462
-0.37146
-9.32545
-0.348097
-9.34346
-0.320765
-9.33273
-0.288991
-9.36647
-0.254273
-9.3541
-0.21323
-9.40391
-0.171041
-9.32557
-0.115619
-9.19332
-0.0558106
-8.14907
-0.00597752
-5.78167
-2.34072
-0.362759
-8.74326
-0.420634
-8.73224
-0.454219
-9.05658
-0.485418
-9.03713
-0.496624
-9.23695
-0.494741
-9.25864
-0.484059
-9.33613
-0.466755
-9.35277
-0.443011
-9.36995
-0.418563
-9.3499
-0.390513
-9.37151
-0.358239
-9.36501
-0.321605
-9.4031
-0.28241
-9.39329
-0.237255
-9.44907
-0.189954
-9.37287
-0.128734
-9.25454
-0.0632995
-8.2145
-0.00799265
-5.83698
-2.34871
-0.434151
-8.64781
-0.495784
-8.6706
-0.525684
-9.02668
-0.551163
-9.01165
-0.558012
-9.2301
-0.552309
-9.26435
-0.538097
-9.35034
-0.517226
-9.37364
-0.489581
-9.39759
-0.461313
-9.37816
-0.42946
-9.40336
-0.39303
-9.40144
-0.352182
-9.44395
-0.308956
-9.43652
-0.259933
-9.49809
-0.208073
-9.42473
-0.141639
-9.32097
-0.0705364
-8.2856
-0.00974978
-5.89777
-2.35846
-0.50665
-8.54959
-0.566149
-8.6111
-0.595193
-8.99764
-0.622012
-8.98483
-0.626438
-9.22567
-0.616298
-9.27449
-0.597562
-9.36908
-0.572272
-9.39893
-0.539734
-9.43013
-0.50653
-9.41137
-0.46986
-9.44003
-0.428537
-9.44276
-0.382964
-9.48953
-0.335511
-9.48397
-0.282726
-9.55088
-0.226113
-9.48134
-0.15414
-9.39295
-0.0773508
-8.36239
-0.0113288
-5.96379
-2.36979
-0.578255
-8.44003
-0.64004
-8.54932
-0.661313
-8.97637
-0.681826
-8.96432
-0.682558
-9.22494
-0.669906
-9.28714
-0.648136
-9.39085
-0.619922
-9.42714
-0.583837
-9.46621
-0.546863
-9.44834
-0.506358
-9.48053
-0.461032
-9.48809
-0.411451
-9.53911
-0.360203
-9.53522
-0.303864
-9.60721
-0.243314
-9.54189
-0.166488
-9.46977
-0.0843368
-8.44454
-0.0129734
-6.03515
-2.38276
-0.643839
-8.329
-0.706163
-8.48699
-0.727629
-8.9549
-0.747667
-8.94428
-0.746183
-9.22643
-0.730066
-9.30326
-0.704319
-9.41659
-0.672199
-9.45926
-0.631555
-9.50686
-0.589596
-9.4903
-0.544198
-9.52593
-0.494235
-9.53805
-0.440285
-9.59306
-0.385112
-9.59039
-0.325509
-9.66682
-0.26067
-9.60673
-0.178618
-9.55182
-0.0909549
-8.53221
-0.0143278
-6.11178
-2.39709
-0.717254
-8.20677
-0.781
-8.42325
-0.791392
-8.94451
-0.803908
-8.93176
-0.798126
-9.23221
-0.779857
-9.32152
-0.751267
-9.44518
-0.716807
-9.49372
-0.672948
-9.55072
-0.62733
-9.53592
-0.578091
-9.57517
-0.524363
-9.59178
-0.46664
-9.65078
-0.40787
-9.64916
-0.344874
-9.72981
-0.276505
-9.6751
-0.190669
-9.63766
-0.0975245
-8.62535
-0.0159843
-6.19332
-2.41308
-0.765808
-8.09833
-0.839171
-8.34989
-0.853929
-8.92975
-0.866543
-8.91915
-0.858088
-9.24066
-0.836776
-9.34284
-0.804204
-9.47776
-0.766257
-9.53167
-0.718184
-9.59879
-0.667745
-9.58636
-0.613556
-9.62936
-0.555485
-9.64985
-0.493681
-9.71258
-0.431086
-9.71176
-0.364417
-9.79648
-0.292419
-9.74709
-0.202038
-9.72804
-0.104262
-8.72313
-0.0176347
-6.27995
-2.43071
-0.824826
-7.99051
-0.900967
-8.27374
-0.910703
-8.92002
-0.913182
-8.91667
-0.902221
-9.25163
-0.879837
-9.36522
-0.845758
-9.51183
-0.806069
-9.57136
-0.755936
-9.64892
-0.701647
-9.64065
-0.644043
-9.68696
-0.582539
-9.71135
-0.51774
-9.77738
-0.45156
-9.77794
-0.383508
-9.86454
-0.308531
-9.82207
-0.213823
-9.82275
-0.111312
-8.82564
-0.0193169
-6.37194
-2.45003
6.82497
-7.57447
-7.241
6.32275
-7.77153
5.63924
-8.23651
5.1159
-8.39333
4.54837
-8.6841
4.00948
-8.82633
3.50748
-9.00984
3.03999
-9.10386
2.59622
-9.20515
2.23255
-9.27698
1.90906
-9.36348
1.62089
-9.42318
1.33634
-9.49283
1.08691
-9.52851
0.81204
-9.58966
0.596236
-9.60627
0.387776
-9.61429
0.247749
-8.68561
0.137088
-6.26128
-2.31294
3.88597
-7.47792
-3.98253
3.79531
-7.68087
3.5459
-7.9871
3.33816
-8.18559
3.06973
-8.41566
2.80967
-8.56627
2.52692
-8.72709
2.26837
-8.84531
2.02281
-8.95959
1.80266
-9.05683
1.58286
-9.14368
1.36894
-9.20927
1.15163
-9.27551
0.949585
-9.32646
0.735375
-9.37545
0.549247
-9.42014
0.30419
-9.36923
0.156251
-8.53767
-0.050987
-6.05404
-2.36393
2.7374
-7.54933
-2.66598
2.80324
-7.74671
2.76616
-7.95001
2.69463
-8.11406
2.55945
-8.28048
2.40661
-8.41343
2.22396
-8.54444
2.03521
-8.65656
1.84198
-8.76636
1.63931
-8.85417
1.42934
-8.9337
1.22239
-9.00232
1.01852
-9.07164
0.821577
-9.12952
0.629843
-9.18372
0.4418
-9.2321
0.268838
-9.19627
0.157166
-8.426
0.0383614
-5.93524
-2.32557
1.68835
-7.70595
-1.53173
1.77635
-7.83471
1.81697
-7.99064
1.80497
-8.10205
1.74721
-8.22272
1.66278
-8.32899
1.56303
-8.44469
1.4473
-8.54084
1.31515
-8.6342
1.17819
-8.71722
1.03957
-8.79508
0.906516
-8.86927
0.770931
-8.93606
0.636548
-8.99514
0.502437
-9.04961
0.371474
-9.10113
0.237838
-9.06263
0.148543
-8.33671
0.0830875
-5.86978
-2.24248
1.1961
-7.8265
-1.07554
1.28501
-7.92363
1.33987
-8.0455
1.36208
-8.12425
1.35588
-8.21652
1.32412
-8.29724
1.26221
-8.38278
1.1852
-8.46382
1.09318
-8.54219
0.991152
-8.61519
0.881299
-8.68522
0.763223
-8.75119
0.637297
-8.81013
0.514936
-8.87278
0.388642
-8.92332
0.262346
-8.97484
0.169152
-8.96944
0.110477
-8.27803
0.075679
-5.83498
-2.1668
0.789117
-7.9357
-0.679924
0.868929
-8.00344
0.901153
-8.07773
0.91224
-8.13534
0.910261
-8.21455
0.894642
-8.28162
0.857643
-8.34578
0.805003
-8.41118
0.740977
-8.47816
0.667747
-8.54196
0.589576
-8.60705
0.506043
-8.66766
0.423202
-8.72729
0.339449
-8.78903
0.258002
-8.84187
0.182013
-8.89885
0.0925421
-8.87997
0.061936
-8.24742
0.0692371
-5.84228
-2.09756
0.548386
-8.01014
-0.473943
0.598963
-8.05402
0.630257
-8.10902
0.651165
-8.15625
0.650721
-8.2141
0.636637
-8.26754
0.609841
-8.31898
0.571525
-8.37287
0.524457
-8.43109
0.469427
-8.48693
0.406547
-8.54417
0.338966
-8.60008
0.26745
-8.65578
0.190207
-8.71178
0.114328
-8.76599
0.0436765
-8.8282
-0.024937
-8.81135
-0.029048
-8.24331
0.0306705
-5.902
-2.06689
0.362182
-8.06206
-0.310261
0.404886
-8.09672
0.424055
-8.12819
0.430422
-8.16261
0.42076
-8.20444
0.400483
-8.24726
0.37626
-8.29476
0.340048
-8.33666
0.297954
-8.389
0.247884
-8.43686
0.193625
-8.48991
0.136082
-8.54253
0.0780217
-8.59772
0.0201179
-8.65388
-0.0335856
-8.71229
-0.0886626
-8.77312
-0.138841
-8.76118
-0.117751
-8.2644
0.00174776
-6.0215
-2.06514
0.199414
-8.09012
-0.171358
0.213459
-8.11077
0.221771
-8.1365
0.220604
-8.16145
0.208735
-8.19257
0.191198
-8.22973
0.165061
-8.26862
0.13423
-8.30583
0.0936988
-8.34847
0.0475295
-8.39069
-0.0033396
-8.43904
-0.0589436
-8.48693
-0.116351
-8.54031
-0.177292
-8.59294
-0.235199
-8.65438
-0.285533
-8.72279
-0.317384
-8.72933
-0.266696
-8.31509
-0.0680751
-6.22012
-2.13322
0.0869134
-8.09915
-0.0778796
0.0893511
-8.1132
0.0877891
-8.13494
0.0833607
-8.15702
0.0712672
-8.18048
0.0494068
-8.20787
0.0211328
-8.24035
-0.0169778
-8.26772
-0.0604512
-8.30499
-0.112814
-8.33833
-0.16899
-8.38287
-0.233462
-8.42246
-0.30042
-8.47335
-0.368944
-8.52441
-0.436824
-8.5865
-0.506761
-8.65285
-0.551097
-8.68499
-0.500503
-8.36568
-0.208812
-6.51181
-2.34203
-0.0314608
-8.09677
0.029083
-0.0369738
-8.10769
-0.0477751
-8.12414
-0.0690449
-8.13575
-0.0938032
-8.15572
-0.123288
-8.17838
-0.157975
-8.20566
-0.197225
-8.22847
-0.243527
-8.25869
-0.295707
-8.28614
-0.358764
-8.31981
-0.428655
-8.35257
-0.508372
-8.39363
-0.59856
-8.43423
-0.695982
-8.48908
-0.809356
-8.53947
-0.906272
-8.58807
-0.897419
-8.37454
-0.474405
-6.93483
-2.81643
-0.111054
-8.09246
0.106742
-0.117219
-8.10153
-0.127921
-8.11343
-0.141206
-8.12247
-0.161241
-8.13568
-0.189505
-8.15012
-0.229118
-8.16605
-0.273136
-8.18445
-0.327542
-8.20429
-0.389155
-8.22453
-0.460542
-8.24842
-0.542535
-8.27057
-0.636972
-8.2992
-0.75049
-8.32071
-0.883069
-8.3565
-1.04191
-8.38063
-1.20241
-8.42758
-1.23505
-8.3419
-0.834998
-7.33488
-3.65143
-0.162864
-8.07931
0.149716
-0.180083
-8.08431
-0.20302
-8.0905
-0.228378
-8.09711
-0.255686
-8.10837
-0.28989
-8.11591
-0.326193
-8.12975
-0.370769
-8.13987
-0.419683
-8.15537
-0.477879
-8.16634
-0.542906
-8.1834
-0.618946
-8.19453
-0.707494
-8.21065
-0.809443
-8.21876
-0.93485
-8.23109
-1.07515
-8.24034
-1.2617
-8.24102
-1.38228
-8.22131
-1.11606
-7.6011
-4.7675
-0.197769
-8.06791
0.186364
-0.211322
-8.07075
-0.226765
-8.07505
-0.246338
-8.07753
-0.269921
-8.08479
-0.297499
-8.08834
-0.330511
-8.09674
-0.369532
-8.10085
-0.415181
-8.10972
-0.467516
-8.114
-0.528459
-8.12245
-0.59744
-8.12555
-0.676834
-8.13126
-0.763743
-8.13185
-0.865768
-8.12907
-0.980249
-8.12586
-1.12556
-8.09572
-1.26009
-8.08677
-1.06731
-7.79388
-5.8348
-0.218119
-8.05341
0.203628
-0.235592
-8.05328
-0.25539
-8.05526
-0.276125
-8.0568
-0.297437
-8.06348
-0.321583
-8.06419
-0.349492
-8.06883
-0.380454
-8.06989
-0.415334
-8.07484
-0.454109
-8.07523
-0.497158
-8.0794
-0.545429
-8.07728
-0.598077
-8.07861
-0.657823
-8.0721
-0.72423
-8.06266
-0.806216
-8.04387
-0.878314
-8.02362
-0.96075
-8.00434
-0.850889
-7.90375
-6.68569
-0.214081
-8.04292
0.203591
-0.225806
-8.04156
-0.238597
-8.04246
-0.253107
-8.04229
-0.272644
-8.04394
-0.2928
-8.04403
-0.315305
-8.04632
-0.338896
-8.0463
-0.365285
-8.04845
-0.392957
-8.04755
-0.423718
-8.04864
-0.455644
-8.04535
-0.490085
-8.04417
-0.52542
-8.03677
-0.556815
-8.03126
-0.585727
-8.01496
-0.602327
-8.00702
-0.63748
-7.96919
-0.591399
-7.94983
-7.27709
-0.209024
-8.03265
0.19875
-0.219163
-8.03142
-0.229516
-8.03211
-0.240443
-8.03136
-0.251758
-8.03263
-0.263385
-8.03241
-0.276006
-8.0337
-0.289198
-8.03311
-0.303426
-8.03422
-0.318295
-8.03268
-0.333709
-8.03323
-0.349346
-8.02972
-0.364844
-8.02867
-0.37939
-8.02222
-0.38816
-8.02249
-0.39358
-8.00954
-0.394417