/*--------------------------------*- C++ -*----------------------------------*\
  =========                 |
  \\      /  F ield         | OpenFOAM: The Open Source CFD Toolbox
   \\    /   O peration     | Website:  https://openfoam.org
    \\  /    A nd           | Version:  9
     \\/     M anipulation  |
\*---------------------------------------------------------------------------*/
FoamFile
{
    format      ascii;
    class       volScalarField;
    location    "19";
    object      nut;
}
// * * * * * * * * * * * * * * * * * * * * * * * * * * * * * * * * * * * * * //

dimensions      [0 2 -1 0 0 0 0];

internalField   nonuniform List<scalar> 
46400
(
0.0207447
0.0049602
0.00136397
0.00161363
0.00149285
0.00155727
0.00144913
0.00143779
0.00138099
0.00133325
0.00130074
0.00122659
0.0012021
0.00119131
0.00114546
0.00114706
0.00109468
0.00107901
0.0014631
0.0011042
0.0202024
0.0047904
0.00137686
0.00168478
0.00155061
0.00154027
0.00146171
0.00143399
0.00136722
0.00130986
0.00127212
0.00123792
0.00117562
0.00112923
0.00110199
0.00106715
0.000979617
0.0008903
0.00120395
0.00106772
0.019614
0.00437658
0.00142775
0.00170122
0.0014912
0.00154565
0.00144935
0.00142971
0.00138155
0.00133033
0.00129348
0.00123632
0.0012046
0.00116976
0.00112099
0.00109369
0.00101444
0.000974629
0.00129828
0.00105582
0.0189236
0.00528886
0.00140647
0.00169913
0.00156603
0.00154978
0.00147528
0.00143453
0.00138678
0.00131724
0.00127582
0.00123023
0.00117774
0.00112726
0.00110335
0.00108065
0.00100339
0.000944437
0.00129195
0.00113019
0.0183383
0.00545403
0.00158844
0.00177546
0.00154465
0.0015344
0.00145712
0.00140206
0.00136914
0.00133051
0.00128689
0.0012437
0.00120501
0.0011685
0.00111147
0.00108471
0.00102057
0.00095925
0.00127473
0.00108831
0.0173571
0.00506228
0.00150673
0.0016969
0.00159944
0.00156293
0.00148618
0.0014317
0.00135801
0.00130754
0.00127354
0.00122785
0.00119289
0.00115198
0.00113209
0.00109444
0.00103738
0.000979047
0.00128862
0.00114135
0.0162835
0.00439131
0.00153125
0.00174105
0.00157934
0.00153603
0.00148639
0.00142048
0.00137584
0.00129401
0.00126359
0.00121204
0.0011821
0.00114815
0.00112072
0.00109277
0.00103135
0.000965918
0.00124549
0.00111673
0.0133163
0.00320911
0.0015986
0.00157671
0.00154207
0.00149805
0.00145501
0.00141876
0.00138321
0.00131845
0.0012716
0.00123219
0.00118221
0.00114269
0.0011218
0.00111035
0.00106351
0.000979938
0.00125189
0.00115306
0.0110433
0.0026892
0.00158491
0.00160056
0.0015209
0.00145704
0.00143044
0.00136392
0.00136508
0.00130844
0.00126169
0.00121739
0.00118187
0.00112942
0.00109351
0.00107508
0.00104776
0.000978757
0.00119138
0.00111105
0.00889004
0.00226109
0.00169013
0.0015675
0.00152421
0.00144721
0.00141245
0.00133826
0.00131688
0.00129551
0.00127268
0.00124232
0.00121707
0.00117068
0.00112394
0.00109377
0.00104802
0.000996184
0.0012015
0.00112707
0.00720662
0.00191129
0.0016667
0.00160035
0.0015269
0.00144458
0.00141418
0.00133772
0.00127758
0.00123214
0.00119428
0.00116103
0.00115147
0.00114243
0.00111304
0.00108336
0.00104318
0.000976001
0.00113195
0.00110213
0.00581863
0.00164784
0.00160921
0.00162611
0.00159434
0.00149403
0.00147552
0.0014176
0.00136798
0.00129061
0.00124373
0.00117686
0.00112786
0.0010914
0.00107745
0.00105361
0.00102102
0.000972358
0.00108139
0.00104204
0.00509368
0.00159919
0.00153251
0.00148959
0.00158935
0.0014578
0.00141308
0.00135105
0.00132749
0.00129859
0.00126166
0.00123169
0.00118921
0.00113931
0.00109702
0.00106996
0.00102857
0.000983144
0.00108323
0.00104343
0.00463468
0.00165458
0.00153283
0.0013741
0.00146615
0.00146818
0.00144822
0.00137611
0.00132282
0.00125502
0.00121332
0.00116851
0.00113995
0.00111461
0.00107949
0.00105434
0.00101877
0.000971047
0.00104216
0.0010223
0.00461367
0.00176788
0.00173248
0.00145022
0.0013614
0.00134005
0.00134967
0.00134717
0.00130846
0.00127612
0.001231
0.00118218
0.00113205
0.00109468
0.00106571
0.00103546
0.00101135
0.000964421
0.00102449
0.000982184
0.00429306
0.00167014
0.00177228
0.00170674
0.00152398
0.00138168
0.00128718
0.00127858
0.00123833
0.00123489
0.00119301
0.0011777
0.00113908
0.00109735
0.00106392
0.00102524
0.000995301
0.000942365
0.00100975
0.000960303
0.00411676
0.00152145
0.00138534
0.00150627
0.00149221
0.00144845
0.00136922
0.00131999
0.00127998
0.00124333
0.00122882
0.00117825
0.00116846
0.00112541
0.0011027
0.00106845
0.00103689
0.000978459
0.00103363
0.000959912
0.00395606
0.00196305
0.00141074
0.00141267
0.00138587
0.00141246
0.0013704
0.00130693
0.00126292
0.0012053
0.0011661
0.00112962
0.00108802
0.001067
0.00102689
0.00101568
0.000982806
0.000930284
0.000985058
0.000928502
0.00208801
0.00146845
0.0015582
0.00159848
0.00151859
0.00150985
0.00148088
0.00139978
0.00135689
0.00128689
0.0012227
0.00118408
0.00113908
0.00111179
0.00107619
0.001051
0.00102127
0.000962449
0.000994551
0.000942489
0.00125229
0.00153042
0.00176061
0.00159495
0.00150972
0.00145452
0.0013562
0.00135302
0.00129514
0.00126655
0.00122176
0.00118771
0.00115887
0.00112019
0.00108442
0.00105407
0.0010159
0.000968616
0.000978523
0.000955266
0.0132453
0.0142169
0.00982114
0.000705678
0.000582784
0.00106401
0.00115035
0.00106682
0.00101778
0.000964895
0.000935852
0.000930416
0.000943724
0.000948704
0.000945536
0.00100356
0.00106288
0.00111301
0.00107144
0.000920008
0.01619
0.014426
0.00891021
0.000186554
0.000715732
0.00114951
0.00117796
0.00108449
0.00104522
0.00100215
0.000973173
0.000995986
0.000958366
0.000946673
0.000966343
0.0010556
0.00112439
0.00115239
0.00106984
0.000920944
0.0170946
0.0144407
0.00689492
0.000528195
0.000897045
0.00119925
0.00119724
0.00114485
0.00106765
0.00101817
0.00102137
0.000980667
0.000954779
0.000978934
0.00101399
0.00109729
0.00113018
0.00116033
0.00106148
0.0009134
0.0182881
0.0143434
0.00514047
0.000645587
0.00113145
0.00130784
0.00122205
0.00113169
0.00109348
0.00105265
0.000995519
0.00102776
0.00103111
0.00100926
0.00101227
0.00108162
0.00113674
0.00117692
0.00103893
0.000899672
0.0190977
0.0141625
0.00362494
0.000305342
0.00117052
0.0012877
0.00123801
0.00120677
0.00113046
0.00107207
0.00108457
0.00104533
0.000982374
0.000995319
0.00105077
0.00115134
0.00118283
0.00119868
0.00103359
0.000906955
0.0198512
0.0139629
0.00273558
0.000383873
0.00131778
0.00137721
0.00129639
0.00118774
0.00114132
0.00110056
0.00103465
0.00104921
0.00107461
0.00105746
0.00105932
0.0011132
0.00114196
0.00118792
0.000993297
0.000876345
0.0205146
0.0136961
0.0016471
0.000623658
0.00132454
0.00133155
0.00129163
0.00123856
0.00117395
0.00112084
0.00111612
0.00109459
0.00102587
0.00101241
0.00105613
0.00114506
0.00118739
0.00120404
0.000991419
0.000893484
0.0210862
0.0133599
0.00137158
0.000753786
0.00141139
0.00139937
0.00134918
0.00124846
0.00118935
0.00113606
0.00108359
0.00107639
0.00108768
0.00107673
0.00108761
0.00113093
0.0011422
0.00119284
0.000969975
0.000879442
0.0216397
0.0130658
0.00087604
0.00100547
0.00142513
0.00137043
0.00134714
0.00126092
0.00120244
0.00116556
0.00112549
0.0011211
0.00107571
0.00103303
0.00104906
0.00111102
0.00116379
0.00120464
0.000953458
0.000884862
0.0219885
0.0126351
0.00125872
0.00104543
0.00146493
0.00140713
0.00138783
0.00130593
0.00123195
0.00116614
0.00112841
0.00110306
0.00108621
0.00107456
0.00108817
0.00111702
0.0011279
0.00118948
0.000953594
0.000895022
0.0223122
0.0123173
0.0011382
0.00123255
0.00149196
0.00139877
0.00138386
0.00128573
0.00122833
0.00120041
0.00112805
0.00112839
0.00111336
0.00105277
0.0010441
0.00107669
0.00112891
0.00120118
0.000921497
0.000886625
0.0224959
0.011851
0.00193437
0.00124145
0.00151632
0.0014125
0.00141681
0.00134864
0.00126161
0.00119901
0.00116351
0.00112558
0.00108691
0.00106493
0.00106858
0.00107784
0.00109626
0.00117378
0.00092532
0.000900728
0.0226052
0.0116304
0.00180075
0.001339
0.00156129
0.0014254
0.00140611
0.001327
0.00126143
0.00123091
0.00114332
0.00113337
0.00113911
0.00107597
0.001049
0.00105001
0.00108959
0.00118742
0.000905156
0.00090001
0.0226667
0.0114391
0.00243919
0.00135674
0.00155307
0.00142851
0.00142621
0.00137265
0.00128211
0.00123493
0.00119125
0.00114572
0.0011045
0.00107228
0.00106012
0.0010494
0.00106211
0.00114187
0.000884416
0.000912797
0.0225678
0.0110849
0.0021886
0.0013577
0.00159536
0.00146433
0.00142592
0.00137889
0.00130146
0.00126786
0.00118386
0.00114821
0.00115603
0.0011042
0.00106324
0.00103708
0.0010578
0.00115374
0.000880091
0.000917476
0.0224808
0.0107373
0.00200598
0.00146119
0.00156272
0.00146608
0.0014265
0.00138908
0.00130185
0.00126933
0.00122163
0.0011752
0.0011395
0.00110301
0.00107962
0.00105309
0.00104707
0.00109927
0.000838372
0.000935269
0.0221946
0.00933985
0.00176585
0.00142421
0.00157228
0.00149856
0.00144201
0.00142027
0.00133775
0.00130577
0.00124109
0.0011791
0.00117678
0.0011447
0.00109518
0.00105743
0.00105855
0.00110757
0.000823077
0.000945099
0.0219585
0.0088451
0.00212332
0.00157334
0.00158065
0.00150762
0.00143107
0.0014127
0.00132494
0.00129347
0.00125376
0.00121327
0.00117991
0.00114634
0.00112137
0.00109245
0.00107706
0.00107561
0.000769777
0.000958074
0.0215801
0.0071282
0.00148579
0.00151086
0.00153925
0.00154333
0.00145423
0.00144638
0.00137304
0.0013357
0.00129322
0.00121855
0.00120392
0.00118939
0.00113447
0.00110804
0.00111503
0.00112463
0.000768451
0.000935302
0.021168
0.0067373
0.00181746
0.00166571
0.0015725
0.00153975
0.00144544
0.00143441
0.00135585
0.00131581
0.00128766
0.00126062
0.00122801
0.00120537
0.00119217
0.00119444
0.0011789
0.00116145
0.000898959
0.00100064
0.00620222
0.00420168
0.00333609
0.00237669
0.00201811
0.00171341
0.00142494
0.00110548
0.000930854
0.000735305
0.000605471
0.000469956
0.000313869
0.0003195
0.000327181
0.000488466
0.00128989
0.00563788
0.00999079
0.01484
0.00618908
0.00409761
0.00326446
0.00240355
0.00206435
0.00173614
0.00145165
0.00112616
0.000956655
0.000750481
0.000595085
0.000465182
0.000318928
0.000324556
0.000323962
0.000494011
0.00128674
0.00563879
0.0100008
0.0148012
0.00624399
0.00420872
0.00341036
0.00238004
0.00204149
0.00169098
0.00141006
0.00108655
0.00091686
0.000738471
0.000584901
0.000454137
0.000309617
0.00032161
0.000307323
0.000493682
0.00126992
0.00562674
0.00989308
0.014559
0.00618826
0.00404949
0.00330598
0.00234331
0.00204414
0.00170315
0.00142639
0.00111437
0.000936521
0.000750839
0.000581209
0.000464412
0.000310347
0.000318584
0.000298372
0.00050885
0.00128523
0.00562298
0.00984725
0.0145804
0.00588121
0.00414415
0.00339715
0.00234545
0.00202643
0.00165572
0.00137981
0.00108525
0.000907988
0.000749237
0.000567802
0.000459074
0.000291439
0.00030863
0.000282096
0.000516526
0.00128052
0.00562706
0.00988197
0.014497
0.00608827
0.00410738
0.00334343
0.00229614
0.00202954
0.00168138
0.00139762
0.00111091
0.000912187
0.000759507
0.000565663
0.000472478
0.000294978
0.000312301
0.000269624
0.000531443
0.00128123
0.00562197
0.00988266
0.0144516
0.00637024
0.00411097
0.00338253
0.0022706
0.00201602
0.00164648
0.00136162
0.00109162
0.00089128
0.00076021
0.000565612
0.000465852
0.000288037
0.000300528
0.000248256
0.000515703
0.00127015
0.00560354
0.00990254
0.0143932
0.00634383
0.00413164
0.00340416
0.00227289
0.00196338
0.00166797
0.00137147
0.00111424
0.000899386
0.000769369
0.000568605
0.000474977
0.000291085
0.000308534
0.00023978
0.00050378
0.00122328
0.00557604
0.00991403
0.0143408
0.00644514
0.00416297
0.00341845
0.00226553
0.00199898
0.00165745
0.00135112
0.00110109
0.000885054
0.000769665
0.000565531
0.000467975
0.000276018
0.000246584
0.000225009
0.000471454
0.00120646
0.00553957
0.00992583
0.0143015
0.00637406
0.00417518
0.00347372
0.00224996
0.0019729
0.00168034
0.00136198
0.00112013
0.00089112
0.000774086
0.000574857
0.000483545
0.000296179
0.000192882
0.000196236
0.000435585
0.00115785
0.00550261
0.00993107
0.0142635
0.00653713
0.00420381
0.0034544
0.00223739
0.001965
0.00167589
0.00134591
0.00111976
0.000888651
0.000778041
0.000570743
0.000481095
0.000255442
0.000182557
0.00015337
0.00041436
0.00111622
0.00550503
0.0099343
0.0142312
0.00644948
0.00420714
0.00352437
0.00220152
0.00199457
0.00170598
0.00135966
0.00113951
0.000897687
0.000788678
0.000586349
0.000495022
0.000277107
0.000257508
0.000124323
0.000382857
0.00106636
0.00549415
0.00995862
0.0142038
0.00652706
0.00415936
0.00349681
0.00223036
0.00191705
0.00168288
0.00133965
0.00113962
0.00089409
0.000785553
0.000587952
0.000502802
0.000307404
0.000292614
8.02961e-05
0.000334331
0.000997556
0.00545073
0.00997106
0.0141853
0.00654739
0.00412205
0.00347747
0.00218122
0.00188555
0.00171813
0.00134695
0.0011653
0.000907396
0.000796259
0.000600398
0.000523766
0.000345102
0.000326913
6.39018e-05
0.00029926
0.000918902
0.00539247
0.00999002
0.0141627
0.00653946
0.00402915
0.00346282
0.00224301
0.00186866
0.00170041
0.00132821
0.00116149
0.000909125
0.000794543
0.000600727
0.000529181
0.00035399
0.000345917
4.62023e-05
0.000261242
0.000835431
0.00538681
0.0100139
0.0141525
0.00663759
0.00394121
0.00334991
0.00220865
0.00184889
0.00171716
0.00133633
0.00117316
0.000925957
0.000807466
0.000615044
0.000544065
0.000371933
0.000365157
7.09795e-05
0.000238714
0.000734869
0.00535671
0.0100368
0.014161
0.00671492
0.00384426
0.0032778
0.0022512
0.00184092
0.0017034
0.00132614
0.00117352
0.000925505
0.000806031
0.000618318
0.000550841
0.000379711
0.000378102
8.2835e-05
0.000209838
0.000628275
0.00528758
0.0100464
0.0141366
0.00679764
0.0037616
0.00313899
0.00225562
0.00186093
0.00171467
0.00134564
0.00120132
0.000947945
0.000831059
0.000635093
0.000572348
0.000398795
0.000395639
9.70756e-05
0.000186827
0.0005285
0.00535694
0.0100589
0.0142399
0.00674791
0.0037285
0.0029479
0.00223423
0.00186317
0.00168615
0.00132941
0.00119815
0.000954842
0.000824013
0.000641197
0.000576434
0.000412292
0.00041182
8.79938e-05
0.000161521
0.000395244
0.00531688
0.010082
0.0142909
0.00720619
0.00376876
0.00281686
0.00225804
0.00187871
0.00164517
0.00128946
0.00116226
0.000949913
0.000813561
0.000638058
0.000580248
0.000425691
0.000423518
0.000135118
0.000142483
0.000278065
0.00506269
0.00999151
0.0140859
0.0148455
0.0365905
0.0274333
0.0247748
0.0212427
0.0189702
0.0146869
0.012855
0.0104653
0.00890167
0.00703861
0.00639871
0.00492934
0.00504267
0.00198713
0.00189833
0.000199549
0.0500203
0.0946189
0.129916
0.0318843
0.0226293
0.0196451
0.0177573
0.0153442
0.01292
0.0102145
0.00884194
0.00756338
0.00628909
0.00525375
0.00444495
0.00415461
0.00369377
0.00331229
0.00286361
0.0120764
0.0532291
0.093088
0.127026
0.0167159
0.0155487
0.0143067
0.0115334
0.00975882
0.00858594
0.00806808
0.0069562
0.00612273
0.00569392
0.00515319
0.00456284
0.0042619
0.00388382
0.00370084
0.00304232
0.0077984
0.054689
0.0913684
0.125898
0.0115428
0.00944459
0.00860169
0.00888386
0.00769256
0.00713578
0.00683249
0.00620874
0.00565938
0.00497016
0.00475474
0.00431524
0.00402399
0.0035994
0.00296494
0.00164188
0.00721146
0.0542462
0.0910229
0.120537
0.00512637
0.00740328
0.00772947
0.00709664
0.00591316
0.00490505
0.00502274
0.00483988
0.00456227
0.00435849
0.00399596
0.00389572
0.00376913
0.00386636
0.00367633
0.00193699
0.00726039
0.0533191
0.0921279
0.11869
0.00573299
0.00528381
0.0041698
0.00395803
0.00419395
0.00444073
0.00428898
0.00431048
0.00401596
0.00393373
0.0039264
0.00365333
0.00364871
0.00346838
0.00345837
0.00187614
0.00420492
0.0525062
0.0934615
0.117901
0.00294145
0.00330164
0.00370957
0.00409692
0.00368253
0.0033787
0.00334649
0.00325819
0.00327764
0.00323906
0.00315582
0.0032785
0.00323565
0.00337951
0.00328604
0.00200947
0.00435678
0.0448841
0.0950882
0.120147
0.00252115
0.00263457
0.00236385
0.00227269
0.00245912
0.00260592
0.00256666
0.00278188
0.00282491
0.00302228
0.00311523
0.00312234
0.00308033
0.00308154
0.00314581
0.00216316
0.00272736
0.0369399
0.0959318
0.12498
0.0013987
0.00152061
0.00172084
0.0020612
0.00217205
0.00235171
0.00234097
0.00236659
0.00234508
0.00262769
0.00252469
0.00281194
0.00273214
0.00304525
0.00275279
0.00241614
0.00135007
0.0288133
0.0960488
0.132162
0.00103546
0.00112878
0.00122786
0.00138633
0.00138797
0.00146512
0.00158149
0.00188796
0.00206285
0.00223545
0.0024142
0.00263539
0.00277695
0.00304725
0.00287422
0.00235677
0.00363694
0.0189096
0.0936598
0.14142
0.000488053
0.000609478
0.000751073
0.00104643
0.00107788
0.00142024
0.00132909
0.00174212
0.00179361
0.00203806
0.00208936
0.00245868
0.00256071
0.00301817
0.00332923
0.00329903
0.00165503
0.0130064
0.0884043
0.155068
0.000341906
0.000473188
0.000564861
0.000763192
0.000831603
0.000974123
0.001104
0.00133226
0.0014874
0.00179427
0.00189898
0.00227805
0.00242159
0.00291257
0.00325739
0.00422228
0.00200372
0.00744205
0.0686027
0.168472
0.000361105
0.000537108
0.000600833
0.000736718
0.000795371
0.000970917
0.00105588
0.00140111
0.00140765
0.00167675
0.00156854
0.0020687
0.00184875
0.00267348
0.00296761
0.00386732
0.0046323
0.0057629
0.0534772
0.1905
0.000364861
0.000493606
0.000530747
0.00070212
0.000762985
0.00100969
0.00103302
0.00126871
0.00128494
0.00159948
0.00153921
0.00193349
0.00190185
0.00233533
0.00245641
0.00320406
0.00397411
0.0093514
0.0269355
0.13818
0.000511613
0.000581428
0.000606326
0.00071526
0.000759168
0.00090445
0.000937304
0.00104273
0.00107059
0.0014034
0.00137479
0.00174777
0.00166191
0.0022903
0.00204619
0.00281634
0.00320639
0.00577038
0.0107292
0.0870854
0.000519006
0.000573772
0.000607627
0.000666522
0.000713158
0.000758394
0.00084109
0.00101153
0.00111694
0.00118816
0.00130549
0.00145172
0.00157046
0.00165143
0.00191676
0.0020205
0.00269416
0.00293742
0.00301611
0.0486024
0.000363572
0.000431586
0.000506667
0.000595738
0.000620157
0.000715884
0.000734784
0.000788244
0.000774904
0.000849689
0.000973359
0.00100987
0.00125626
0.00123726
0.00167591
0.00144405
0.00214479
0.00176124
0.00295647
0.0235743
0.000300028
0.000338546
0.000342739
0.000359086
0.000411768
0.000496306
0.000543607
0.000600282
0.000674935
0.000771718
0.000756664
0.000855451
0.000829125
0.000963129
0.000875331
0.00125866
0.00106482
0.00115078
0.000725836
0.00737592
0.000193902
0.000185759
0.00018222
0.00020463
0.000252584
0.000257787
0.000290103
0.000325958
0.000370883
0.000357634
0.000460543
0.000445825
0.000598951
0.00055024
0.000585845
0.000646368
0.000481055
0.000774977
0.000893537
0.00166311
0.000136197
0.000100384
0.000112364
0.000135418
0.000123017
0.000130382
0.000139516
0.000184729
0.0002104
0.000269698
0.000299138
0.000342351
0.000397669
0.0004015
0.000454835
0.000410308
0.000427321
0.000293832
0.000315189
0.00063842
0.0140862
0.0141471
0.0142007
0.0141297
0.014003
0.0140147
0.0139684
0.0136147
0.0132836
0.0134544
0.0125849
0.0120463
0.0119255
0.0116861
0.0118904
0.0109371
0.0112587
0.0098449
0.00950382
0.0100457
0.00696704
0.00692456
0.00692079
0.00681409
0.00677773
0.00679099
0.00672512
0.00679276
0.00704015
0.0072328
0.00667462
0.00656095
0.00681392
0.00708647
0.00687526
0.00691642
0.00689722
0.00680681
0.00640896
0.00752674
0.00414492
0.00412648
0.00415383
0.00421857
0.00426876
0.00431665
0.0043532
0.00440936
0.00441787
0.00418674
0.00396097
0.00411164
0.00398997
0.00416262
0.00374418
0.00334733
0.00323861
0.00366119
0.00336951
0.00394091
0.00263779
0.00264834
0.00262467
0.00262384
0.002578
0.00257006
0.00251821
0.00249368
0.00238859
0.00237586
0.0022586
0.00233002
0.00236048
0.0024824
0.00270287
0.002856
0.00272276
0.0030303
0.00259692
0.00281837
0.00162543
0.00161996
0.00161287
0.00161215
0.00160578
0.00161226
0.00162131
0.00162135
0.00168442
0.00179303
0.00193772
0.00189043
0.00172761
0.00170671
0.00145103
0.00147887
0.00139494
0.00147424
0.0015057
0.00146285
0.00115388
0.00114687
0.00114878
0.00114683
0.00114707
0.00114539
0.00113979
0.001137
0.00112515
0.0011002
0.000979013
0.000902167
0.000913285
0.00106635
0.00124679
0.00113186
0.00105844
0.00109889
0.00102798
0.00125585
0.000681965
0.000676955
0.000675465
0.000672635
0.000670665
0.000667162
0.000673448
0.000661587
0.00068679
0.00067353
0.000719912
0.000779103
0.000757915
0.000763237
0.000674577
0.000800112
0.000737944
0.000662861
0.000654114
0.000657657
0.000476896
0.000471996
0.000469922
0.000468412
0.000467057
0.000467661
0.000471011
0.000475026
0.0004798
0.000485395
0.000489216
0.000492741
0.000458331
0.000491699
0.000474069
0.000443937
0.000512505
0.000596723
0.000507563
0.000515616
0.000237013
0.000234107
0.000233285
0.000233377
0.00025144
0.000235955
0.000240735
0.000242503
0.000247285
0.000251381
0.000264146
0.000264488
0.000299432
0.000275405
0.000270182
0.000322342
0.000268554
0.000260943
0.000276338
0.000293808
0.000121103
0.000118922
0.000118802
0.000119839
0.000120798
0.000121639
0.000121317
0.000124902
0.000125035
0.000138087
0.000139176
0.000172186
0.00014222
0.000145592
0.000161599
0.00016127
0.000168669
0.000190932
0.00017479
0.000211689
8.08615e-05
7.38739e-05
6.75986e-05
6.44895e-05
5.82442e-05
5.13306e-05
3.99674e-05
3.31428e-05
3.01441e-05
3.22336e-05
3.64735e-05
3.7234e-05
3.9895e-05
4.65715e-05
4.37605e-05
5.25058e-05
6.53379e-05
0.000102969
0.000105687
0.000129119
0.000104664
9.72742e-05
8.13909e-05
6.7715e-05
6.20865e-05
5.5576e-05
5.15337e-05
4.11557e-05
3.29009e-05
2.44541e-05
2.49725e-05
1.59274e-05
1.81961e-05
2.51999e-05
4.08712e-05
3.92844e-05
4.49446e-05
4.23375e-05
5.19082e-05
7.55193e-05
0.000104461
9.94284e-05
9.20492e-05
8.75221e-05
9.54335e-05
9.61316e-05
0.000100384
8.87127e-05
6.78738e-05
7.09048e-05
7.26335e-05
7.33155e-05
7.91823e-05
5.70117e-05
5.90065e-05
5.76417e-05
7.10548e-05
6.35381e-05
7.40505e-05
7.57555e-05
0.000128358
0.000121797
0.000119563
0.000102259
0.000101217
0.000101528
9.70126e-05
9.0682e-05
9.04777e-05
8.85596e-05
9.00934e-05
8.97141e-05
9.09409e-05
8.91589e-05
9.45267e-05
8.88837e-05
9.23908e-05
8.30716e-05
8.79975e-05
9.27725e-05
0.000108824
0.000104641
8.13482e-05
4.6714e-05
6.01507e-05
6.50489e-05
6.50711e-05
7.29591e-05
8.20879e-05
9.04962e-05
0.000102596
0.000107564
0.000112079
0.000111666
0.000115017
0.000110973
0.000118303
0.000108936
0.00011915
0.000121987
4.48592e-05
3.66547e-05
3.67241e-05
5.06065e-05
5.67305e-05
5.73495e-05
6.57176e-05
7.36699e-05
8.30042e-05
9.05093e-05
9.68824e-05
0.000101464
0.000104718
0.000104154
0.000108994
0.000106985
0.000111565
0.000107867
0.000118309
0.000122969
4.56891e-05
4.92078e-05
5.4165e-05
5.92983e-05
6.25428e-05
6.42989e-05
6.39984e-05
6.40045e-05
6.28685e-05
6.18985e-05
6.03838e-05
6.01755e-05
6.2771e-05
6.28158e-05
6.56451e-05
6.6461e-05
7.08041e-05
7.2885e-05
7.87048e-05
8.3048e-05
4.09651e-05
4.4788e-05
4.71067e-05
4.83953e-05
4.98243e-05
5.09504e-05
5.15874e-05
5.19228e-05
5.21926e-05
5.25093e-05
5.28831e-05
5.34995e-05
5.28932e-05
5.06779e-05
4.80516e-05
4.72568e-05
4.47901e-05
4.55769e-05
4.20233e-05
4.49822e-05
3.41739e-05
3.62542e-05
3.81621e-05
3.89587e-05
3.91247e-05
3.93339e-05
3.9294e-05
3.95984e-05
3.96042e-05
4.07242e-05
4.15911e-05
4.28041e-05
4.23701e-05
4.26678e-05
4.2297e-05
4.13395e-05
3.97246e-05
3.63568e-05
3.31495e-05
3.18274e-05
7.62484e-05
7.50391e-05
7.39143e-05
7.24727e-05
7.10021e-05
6.95226e-05
6.8051e-05
6.65443e-05
6.50161e-05
6.34594e-05
6.21017e-05
6.07336e-05
5.93927e-05
5.79353e-05
5.54784e-05
5.17796e-05
4.85701e-05
4.49812e-05
4.21099e-05
3.96715e-05
0.00098887
0.00107717
0.000848323
0.000893137
0.000956957
0.000986319
0.00101981
0.00104594
0.00109273
0.0011286
0.00120465
0.00125725
0.00130583
0.0013202
0.00139537
0.00145104
0.00141453
0.00228588
0.00782052
0.0191076
0.000962201
0.0010289
0.000825644
0.000975956
0.0010209
0.00106583
0.00111046
0.00115338
0.00119409
0.00121807
0.00124876
0.00128359
0.00131668
0.00133327
0.00142789
0.0014568
0.00145786
0.00157926
0.00669758
0.0187089
0.00103478
0.00112363
0.000858238
0.00094553
0.000992481
0.00100846
0.00103856
0.00105256
0.00109566
0.00114043
0.00121184
0.0012638
0.00130606
0.00133697
0.0014282
0.00143227
0.00150309
0.00137862
0.00577795
0.0182779
0.00104811
0.00113297
0.000907961
0.00102556
0.00103588
0.0010649
0.00109647
0.00114858
0.00120347
0.00122433
0.00125912
0.001287
0.00133306
0.00136571
0.00145756
0.00145724
0.00154749
0.00137772
0.00495689
0.0178187
0.00115029
0.00120674
0.000940222
0.000994173
0.00101678
0.00104711
0.00107662
0.00110491
0.00111983
0.00115999
0.00122067
0.00127203
0.00131405
0.00134588
0.00142394
0.00142279
0.00153417
0.00134122
0.00427067
0.0172756
0.00104972
0.00111136
0.000894496
0.000985296
0.00104218
0.00107576
0.00110277
0.00112668
0.00117708
0.00120984
0.00125092
0.00129105
0.00134311
0.0013924
0.00148026
0.00147752
0.00157789
0.00142918
0.00452515
0.0166074
0.0010972
0.00113174
0.000934076
0.00102607
0.00105365
0.00106245
0.00108069
0.00112308
0.00115161
0.00120118
0.00126391
0.00132116
0.00135958
0.00139436
0.0014531
0.00145788
0.00157523
0.00148597
0.00490255
0.0158785
0.0010208
0.00105669
0.000923355
0.000994999
0.00101642
0.00104428
0.00109891
0.00114923
0.00118888
0.00124381
0.00128312
0.0013185
0.0013555
0.00141307
0.00148174
0.00150674
0.00162963
0.00154474
0.00452879
0.0151404
0.000996256
0.00105011
0.000916154
0.000960814
0.000999028
0.00105878
0.00109947
0.00113832
0.00118864
0.001244
0.00127749
0.0013201
0.00135109
0.00139937
0.00145818
0.00150321
0.00162132
0.0015694
0.00385818
0.0140496
0.00101612
0.00107403
0.000945443
0.00101767
0.00107324
0.00111172
0.00113917
0.001199
0.00124266
0.00125932
0.00127176
0.00130662
0.00135421
0.00143432
0.00147649
0.00154913
0.00161796
0.0015925
0.00316563
0.0126089
0.00100337
0.00105287
0.000983959
0.00106685
0.00109476
0.00112746
0.00115323
0.00117184
0.00116635
0.00117863
0.0012103
0.00128251
0.00133257
0.0013708
0.00144011
0.00151478
0.00156898
0.00163515
0.00264065
0.0105357
0.00102046
0.00108365
0.00100776
0.00103006
0.00104442
0.00105325
0.00104964
0.00108187
0.00111846
0.00117997
0.00124688
0.00132511
0.00133297
0.0014257
0.00148398
0.00153099
0.00157779
0.00162579
0.00220049
0.00850252
0.000989505
0.00103097
0.000931069
0.000970811
0.00100023
0.00101974
0.00107935
0.0011467
0.00118172
0.00123635
0.00128407
0.00130308
0.00133778
0.00144573
0.00145823
0.00153218
0.00154028
0.00157825
0.00189429
0.00673199
0.00097337
0.000979209
0.000925253
0.00100297
0.00103909
0.00110044
0.00113719
0.00114703
0.00116986
0.00121471
0.00123383
0.00128226
0.0013747
0.00143047
0.00142464
0.00146327
0.00147019
0.00161784
0.00174419
0.00555093
0.000942797
0.000977244
0.000973767
0.00102331
0.00106123
0.00108341
0.00107646
0.00112969
0.00116629
0.00122902
0.00127001
0.00135535
0.00137277
0.00137122
0.00135313
0.00144578
0.00150567
0.00161415
0.00166711
0.00462367
0.000978109
0.00102129
0.000984077
0.00102021
0.00104402
0.00104324
0.00109697
0.00114237
0.00117784
0.00122552
0.0012379
0.00127133
0.00127247
0.00132332
0.00139378
0.00153288
0.00151088
0.00162809
0.0016438
0.00429677
0.000974439
0.00098016
0.000951601
0.00100549
0.00102567
0.00107302
0.00111652
0.00114013
0.00117459
0.00119681
0.00122937
0.00129508
0.00132974
0.00139616
0.00148188
0.00143848
0.00141378
0.0014439
0.00153608
0.00411126
0.000952881
0.000991862
0.000975208
0.00102632
0.00106311
0.00109172
0.00111367
0.00114252
0.00117803
0.00121084
0.00127011
0.00128261
0.00130037
0.00132785
0.00131244
0.00130643
0.00139478
0.00153185
0.00169197
0.00431231
0.000940326
0.000974735
0.000956356
0.0010076
0.00103571
0.00105577
0.00109048
0.00112026
0.00115949
0.00119192
0.00121571
0.0012353
0.00127797
0.00135195
0.00136799
0.00152415
0.00159814
0.00168657
0.00174255
0.0025788
0.000930226
0.000957007
0.00093482
0.000987569
0.00101825
0.00104765
0.00108612
0.00111994
0.00116444
0.00119006
0.00123314
0.00127641
0.00135059
0.00139257
0.00147126
0.00156281
0.00157723
0.00166408
0.00178638
0.00120436
0.00046769
0.000357405
0.000365373
0.000414146
0.000356299
0.000324458
0.000350475
0.000383381
0.000415953
0.000427369
0.000360407
0.000117497
0.000705978
0.00261255
0.0066391
0.0114327
0.0123907
0.00764553
0.00241352
1.95974e-24
0.00054187
0.000496803
0.000390359
0.000363249
0.000401221
0.000380093
0.000344361
0.000318857
0.000396936
0.000411747
0.000416711
0.000309886
7.00987e-05
0.00112032
0.00394472
0.00885188
0.0129323
0.0102221
0.00444683
0.000805403
0.000469506
0.000450992
0.00045162
0.00040899
0.000386286
0.000359422
0.000389059
0.000349119
0.000348512
0.000350269
0.000417776
0.000356427
0.000203109
0.000121288
0.00187446
0.00611681
0.0114147
0.012348
0.00734824
0.00123385
0.000553423
0.000502483
0.000418009
0.000387022
0.000424748
0.000390545
0.000373056
0.000358395
0.000415901
0.000390718
0.000390736
0.000413503
0.000302263
8.63792e-05
0.00060374
0.0036566
0.00951286
0.0130724
0.00962242
0.00176797
0.000512003
0.000522021
0.000516352
0.000435334
0.000426092
0.000386465
0.000412759
0.000347876
0.000354417
0.000401472
0.000411204
0.000455269
0.000404964
0.000231123
8.94e-05
0.00170209
0.0072161
0.0128989
0.0111308
0.00389031
0.000568178
0.000518571
0.000470446
0.000427625
0.000477572
0.00045152
0.000439669
0.00041802
0.000431213
0.00040545
0.000412386
0.000455391
0.00048326
0.000406252
9.05469e-05
0.000518636
0.0049987
0.0115719
0.0124281
0.00280797
0.000574056
0.000575759
0.000563349
0.000475952
0.000469329
0.000434044
0.00047661
0.000437279
0.000447748
0.000496221
0.000495508
0.000513885
0.000551542
0.000497476
0.000346159
0.000212621
0.00246808
0.0104125
0.0131271
0.00579733
0.00060031
0.000559779
0.000540342
0.000484156
0.000543889
0.000525951
0.000510945
0.000486004
0.00049102
0.000493977
0.000523362
0.000591848
0.00061714
0.000654054
0.000550966
0.000212722
0.00113148
0.00897956
0.0134054
0.00873878
0.000623802
0.000620588
0.000618785
0.000530658
0.000542914
0.000520531
0.000574771
0.000568663
0.000569986
0.000602238
0.000611183
0.000647628
0.000681705
0.000709891
0.000697482
0.000443585
0.00047703
0.00710972
0.0133952
0.0113998
0.000652182
0.000620021
0.000633731
0.000553855
0.000611923
0.00060916
0.000597406
0.000577833
0.000595348
0.000622807
0.00065675
0.000737919
0.000776449
0.000805996
0.000815833
0.000638937
0.000304475
0.0051668
0.0131592
0.0142113
0.000675295
0.000630744
0.000672842
0.000589053
0.000625081
0.000628525
0.000675414
0.000689496
0.000684772
0.000705104
0.000730855
0.000785193
0.000828749
0.000850032
0.000909326
0.000841968
0.000423328
0.00338259
0.0129052
0.0159398
0.000695862
0.000618738
0.000687099
0.000622361
0.000667027
0.000691046
0.000694696
0.000686486
0.000719178
0.000758451