/*--------------------------------*- C++ -*----------------------------------*\
  =========                 |
  \\      /  F ield         | OpenFOAM: The Open Source CFD Toolbox
   \\    /   O peration     | Website:  https://openfoam.org
    \\  /    A nd           | Version:  9
     \\/     M anipulation  |
\*---------------------------------------------------------------------------*/
FoamFile
{
    format      ascii;
    class       volScalarField;
    location    "19";
    object      p;
}
// * * * * * * * * * * * * * * * * * * * * * * * * * * * * * * * * * * * * * //

dimensions      [0 2 -2 0 0 0 0];

internalField   nonuniform List<scalar> 
46400
(
-90.3373
-81.7456
-68.1736
-55.9796
-45.4344
-35.3517
-26.4212
-18.0714
-10.4952
-3.48941
3.00268
9.02697
14.6537
19.9554
24.9999
29.8181
34.3525
39.2469
44.0253
45.2555
-53.4452
-46.2284
-34.1373
-23.08
-13.4503
-4.32946
3.77208
11.2551
18.0527
24.2419
29.9534
35.1414
39.9628
44.4064
48.5367
52.3837
55.9464
59.6016
62.905
63.5225
-17.8293
-11.9966
-0.98882
9.56087
18.2677
26.5313
33.7515
40.3791
46.3343
51.7404
56.6878
61.2008
65.3182
69.1014
72.5917
75.7693
78.6144
81.5293
83.7789
83.2756
15.6679
21.7238
32.0579
41.5518
49.4233
56.7066
63.0601
68.7727
73.9007
78.4499
82.571
86.2573
89.6012
92.6227
95.3711
97.86
100.085
102.348
104.203
103.516
49.5556
56.0475
65.0598
73.4347
80.1942
86.4066
91.807
96.5962
100.873
104.637
108.015
110.994
113.652
115.983
118.092
119.92
121.489
123.104
124.304
123.169
83.1407
90.2427
97.8084
104.832
110.464
115.544
119.935
123.751
127.12
130.045
132.619
134.883
136.852
138.578
140.06
141.361
142.421
143.535
144.34
142.99
116.317
123.612
129.151
134.739
139.274
143.235
146.712
149.634
152.185
154.334
156.18
157.731
159.05
160.127
161.035
161.739
162.254
162.81
163.12
161.503
148.288
154.709
159.223
163.304
166.824
169.781
172.35
174.48
176.262
177.722
178.9
179.843
180.58
181.133
181.525
181.783
181.87
181.978
182.048
180.232
177.921
182.7
186.45
189.527
192.182
194.304
196.096
197.48
198.59
199.385
199.955
200.287
200.453
200.454
200.335
200.107
199.744
199.449
199.158
197.311
204.854
208.864
211.853
214.177
216.055
217.442
218.537
219.266
219.766
220
220.042
219.88
219.562
219.093
218.512
217.827
217.031
216.277
215.52
213.389
229.443
232.637
235.018
236.63
237.904
238.644
239.107
239.216
239.109
238.759
238.262
237.591
236.809
235.902
234.908
233.817
232.636
231.5
230.371
228.125
251.746
254.375
256.221
257.318
258.124
258.322
258.308
257.884
257.295
256.434
255.446
254.291
253.053
251.71
250.309
248.832
247.287
245.775
244.276
241.839
271.85
273.823
275.087
275.666
275.975
275.798
275.314
274.533
273.531
272.322
270.959
269.445
267.825
266.102
264.322
262.474
260.579
258.709
256.852
254.239
290.748
292.097
292.786
292.709
292.482
291.788
290.871
289.622
288.19
286.568
284.817
282.955
281.008
278.99
276.919
274.797
272.626
270.478
268.341
265.583
307.197
307.692
307.945
307.34
306.613
305.512
304.266
302.763
301.087
299.214
297.211
295.076
292.858
290.559
288.221
285.831
283.408
280.998
278.619
275.711
322.598
322.526
322.16
321.207
319.878
318.293
316.497
314.566
312.49
310.301
308.02
305.638
303.21
300.708
298.193
295.633
293.058
290.501
288.035
284.979
332.558
332.497
331.971
331.028
329.821
328.26
326.451
324.419
322.217
319.886
317.424
314.895
312.266
309.61
306.895
304.18
301.419
298.711
296.121
292.945
343.24
342.8
341.752
340.462
338.789
336.946
334.806
332.517
330.06
327.509
324.869
322.173
319.442
316.678
313.91
311.136
308.353
305.621
303.061
299.916
349.175
348.825
348.043
346.929
345.391
343.595
341.479
339.178
336.662
334.029
331.281
328.468
325.608
322.709
319.802
316.882
313.956
311.059
308.313
305.119
353.392
353.321
352.68
351.57
349.912
347.99
345.754
343.357
340.781
338.107
335.32
332.498
329.599
326.698
323.751
320.824
317.862
314.942
312.137
308.989
-547.367
-544.809
-530.37
-513.512
-494.805
-476.47
-459.325
-443.146
-427.692
-413.036
-399.029
-385.669
-372.926
-360.697
-349.071
-337.844
-327.3
-317.108
-307.603
-298.506
-543.689
-542.096
-526.99
-507.972
-488.678
-469.957
-452.228
-435.612
-419.861
-404.897
-390.682
-377.126
-364.254
-351.932
-340.259
-329.019
-318.506
-308.33
-298.931
-289.854
-539.513
-537.794
-522.695
-501.491
-481.166
-461.98
-443.873
-426.911
-410.887
-395.737
-381.358
-367.687
-354.718
-342.354
-330.632
-319.384
-308.873
-298.698
-289.37
-280.28
-533.696
-531.077
-514.436
-492.566
-471.786
-452.186
-433.863
-416.656
-400.461
-385.197
-370.731
-357.04
-344.075
-331.728
-320.043
-308.877
-298.477
-288.399
-279.274
-270.168
-525.785
-522.157
-504.479
-481.87
-460.706
-440.789
-422.29
-404.985
-388.682
-373.332
-358.855
-345.113
-332.136
-319.831
-308.206
-297.125
-286.811
-276.816
-267.865
-258.888
-514.313
-509.94
-491.204
-468.401
-447.172
-427.254
-408.692
-391.41
-375.156
-359.921
-345.481
-331.918
-319.108
-306.969
-295.481
-284.566
-274.408
-264.604
-255.858
-246.937
-500.828
-495.635
-476.14
-453.126
-431.897
-412.025
-393.541
-376.358
-360.206
-345.038
-330.783
-317.292
-304.607
-292.625
-281.321
-270.629
-260.659
-251.066
-242.561
-233.772
-484.427
-478.406
-458.244
-435.324
-414.205
-394.622
-376.252
-359.305
-343.374
-328.473
-314.474
-301.293
-288.898
-277.205
-266.155
-255.718
-245.978
-236.637
-228.396
-219.721
-465.277
-458.642
-438.155
-415.544
-394.723
-375.44
-357.411
-340.736
-325.144
-310.52
-296.829
-283.913
-271.794
-260.382
-249.631
-239.518
-230.064
-221.031
-213.08
-204.593
-443.723
-436.439
-415.699
-393.491
-372.994
-354.211
-336.536
-320.295
-305.087
-290.873
-277.597
-265.096
-253.383
-242.375
-231.993
-222.232
-213.087
-204.387
-196.744
-188.454
-419.555
-411.815
-391.208
-369.517
-349.543
-331.298
-314.168
-298.364
-283.665
-269.903
-257.057
-244.991
-233.692
-223.088
-213.113
-203.767
-195.005
-186.697
-179.413
-171.359
-393.231
-385.192
-364.487
-343.623
-324.109
-306.541
-289.99
-274.787
-260.639
-247.414
-235.133
-223.573
-212.774
-202.667
-193.164
-184.27
-175.908
-168.039
-161.124
-153.362
-364.772
-356.534
-335.929
-316.185
-297.308
-280.372
-264.49
-249.835
-236.299
-223.645
-211.885
-200.891
-190.616
-181.011
-172.003
-163.592
-155.69
-148.289
-141.775
-134.311
-334.561
-326.172
-305.639
-286.849
-268.763
-252.585
-237.492
-223.554
-210.7
-198.687
-187.586
-177.171
-167.46
-158.415
-149.946
-142.051
-134.618
-127.715
-121.605
-114.481
-303.174
-294.666
-273.966
-256.29
-239.059
-223.625
-209.279
-196.029
-183.857
-172.504
-162.006
-152.233
-143.124
-134.648
-126.738
-119.383
-112.473
-106.113
-100.426
-93.6581
-270.167
-260.905
-240.796
-224.155
-208.082
-193.508
-180.118
-167.638
-156.244
-145.588
-135.777
-126.633
-118.112
-110.211
-102.857
-96.0201
-89.6005
-83.741
-78.4483
-72.0134
-235.919
-226.878
-207.642
-191.654
-176.493
-162.695
-150.038
-138.328
-127.617
-117.665
-108.489
-99.9894
-92.0932
-84.7805
-78.0028
-71.7241
-65.8555
-60.5749
-55.7266
-49.7197
-200.321
-191.156
-172.945
-158.111
-144.053
-131.18
-119.532
-108.607
-98.7211
-89.4847
-80.9948
-73.1448
-65.8292
-59.0747
-52.8367
-47.0507
-41.6748
-36.9147
-32.5332
-26.9889
-164.363
-155.445
-138.395
-124.234
-111.29
-99.2223
-88.3857
-78.2952
-69.1083
-60.6048
-52.7578
-45.516
-38.8022
-32.5954
-26.8637
-21.527
-16.6201
-12.3986
-8.38346
-2.61286
-128.011
-118.668
-103.207
-90.1969
-78.4069
-67.3422
-57.4494
-48.177
-39.7602
-31.9366
-24.6907
-18.0008
-11.7124
-5.85807
-0.368043
4.85357
9.64229
14.1581
19.0815
24.8422
-254.494
-204.995
-160.251
-129.795
-102.014
-81.9801
-64.0837
-49.9318
-38.2692
-28.0298
-20.2643
-12.8503
-7.68085
-2.26448
1.19824
5.05347
8.03107
9.36294
11.4969
11.4381
-246.618
-198.994
-155.256
-126.052
-98.9811
-79.6002
-62.0977
-48.3053
-36.9223
-26.878
-19.3227
-12.0279
-7.0171
-1.66984
1.61848
5.48056
8.27137
9.64105
11.8
11.654
-237.836
-192.891
-150.26
-122.271
-95.8005
-77.0851
-60.0652
-46.598
-35.5229
-25.6695
-18.3141
-11.1508
-6.31433
-1.0449
2.05464
5.93624
8.51841
10.0741
12.0882
11.8018
-228.706
-186.247
-144.78
-118.184
-92.4741
-74.4398
-57.8884
-44.7779
-34.0251
-24.379
-17.2431
-10.21
-5.53963
-0.361673
2.5359
6.44247
8.76482
10.479
12.3201
12.0192
-218.83
-179.124
-139.235
-114.075
-89.0191
-71.6865
-55.6713
-42.887
-32.471
-23.0268
-16.1053
-9.22527
-4.73238
0.348465
3.03791
6.991
9.0424
10.9012
12.6294
12.247
-208.505
-171.631
-133.216
-109.637
-85.4136
-68.7706
-53.3091
-40.8789
-30.8218
-21.6013
-14.9011
-8.16842
-3.84794
1.12261
3.57985
7.55759
9.34167
11.2973
12.8678
12.4601
-197.427
-163.644
-127.098
-105.21
-81.7319
-65.7746
-50.9144
-38.8142
-29.1177
-20.112
-13.6389
-7.07355
-2.93123
1.92727
4.13249
8.15051
9.66471
11.7059
13.0794
12.7258
-185.933
-155.277
-120.62
-100.291
-77.8804
-62.5891
-48.3701
-36.631
-27.32
-18.5544
-12.3038
-5.90073
-1.93815
2.79711
4.72705
8.97285
10.0185
12.1411
13.2449
12.951
-173.648
-146.499
-113.946
-95.4904
-73.9991
-59.35
-45.8027
-34.4014
-25.4722
-16.9365
-10.9247
-4.69135
-0.911068
3.68929
5.37095
9.92123
10.4798
12.6075
13.4239
13.2396
-160.97
-137.344
-107.054
-90.0458
-69.9632
-55.9138
-43.0853
-32.0532
-23.5334
-15.249
-9.46377
-3.40766
0.19861
4.70181
6.12012
10.8543
10.9611
13.1445
13.6324
13.5128
-147.451
-127.844
-100.162
-84.5742
-65.866
-52.4495
-40.3492
-29.6677
-21.551
-13.5092
-7.95314
-2.09171
1.34686
5.86258
7.07398
11.8308
11.3763
13.7168
13.8207
13.8207
-133.491
-117.983
-92.8833
-78.8139
-61.5855
-48.8031
-37.4687
-27.168
-19.4835
-11.7008
-6.36544
-0.696974
2.57898
7.07445
8.14453
12.7464
11.7799
14.2895
14.0144
14.1383
-118.765
-107.847
-85.6648
-72.8671
-57.2662
-45.1428
-34.5767
-24.6353
-17.3764
-9.85544
-4.76147
0.736712
3.85848
8.29343
9.19851
13.6653
12.1889
14.9105
14.217
14.4709
-103.47
-97.3929
-78.1477
-66.7711
-52.7164
-41.311
-31.5468
-21.9929
-15.1787
-7.93693
-3.08483
2.23223
5.20624
9.49929
10.2763
14.6162
12.6396
15.4942
14.4212
14.8065
-87.4288
-86.7364
-70.7129
-60.571
-48.182
-37.489
-28.5224
-19.3385
-12.9557
-5.99533
-1.38444
3.7522
6.57805
10.7061
11.3968
15.5512
13.1717
16.0902
14.6542
15.1753
-70.4453
-75.5471
-63.0349
-54.2266
-43.4317
-33.5146
-25.3829
-16.6036
-10.66
-3.99099
0.3708
5.3184
7.99324
11.9669
12.4836
16.5366
13.7078
16.7024
14.9207
15.5588
-53.1763
-64.0923
-55.1932
-47.5772
-38.4814
-29.3994
-22.1138
-13.776
-8.27852
-1.92763
2.18951
6.93642
9.45258
13.2674
13.5547
17.6019
14.294
17.3283
15.2195
15.9315
-36.0273
-53.3947
-48.0356
-41.2951
-33.5829
-25.3027
-18.8313
-10.8991
-5.82937
0.197599
4.05924
8.60671
10.9657
14.6065
14.7001
18.7075
14.9189
18.2766
15.5961
16.6271
-13.4004
-41.1862
-41.592
-36.1221
-29.4531
-21.9618
-16.1642
-8.52289
-3.73339
2.02166
5.72227
10.0963
12.3461
15.8009
15.8124
19.7944
15.3705
18.5433
15.897
16.7973
11.9556
-22.8376
-30.0725
-27.175
-22.6587
-16.6175
-12.0419
-5.19793
-0.952157
4.36264
7.73733
11.9119
13.9605
17.2891
17.2025
21.1241
16.1204
18.9276
15.9663
17.5728
64.495
66.924
48.1317
40.1205
30.1711
29.4239
24.5945
24.8715
23.3471
24.9343
24.6406
26.8829
26.8199
29.3177
28.5459
31.4029
28.6956
33.9893
24.3331
36.7971
121.19
110.43
85.2324
76.0106
63.2801
57.6227
51.3803
48.4092
45.0086
43.3442
41.6802
40.7542
39.975
39.8532
39.0872
39.8232
38.3633
39.4075
37.2788
40.1349
141.505
128.3
113.399
102.568
92.0763
84.5922
77.6448
73.074
68.6343
65.9519
63.0765
61.511
59.4458
58.7818
57.4962
57.2485
56.5696
56.4977
56.5528
57.1205
149.372
138.393
126.171
116.955
107.719
100.854
94.0606
88.793
83.9026
79.8946
76.4178
73.4578
71.0133
68.5977
66.9262
65.2323
64.1726
63.4221
63.033
62.974
147.948
139.203
131.681
124.235
117.658
111.399
105.956
100.931
96.6075
92.8436
89.417
86.5588
83.8339
81.5416
79.3052
77.2522
75.3745
73.9839
73.252
73.2989
148.888
143.111
136.573
130.139
124.497
119.236
114.337
109.944
105.756
101.918
98.5106
95.2097
92.5232
89.7173
87.5176
85.149
83.2135
81.2324
80.3817
80.1385
146.76
141.606
137.439
133.194
128.87
124.675
120.712
116.988
113.464
110.241
107.113
104.358
101.555
99.1844
96.6779
94.5189
92.3816
89.9941
89.0445
88.4235
147.653
144.355
140.553
136.497
132.516
129.044
125.544
122.424
119.165
116.354
113.39
110.825
108.183
105.758
103.435
101.002
99.0774
96.8909
95.4558
94.791
146.704
143.73
140.891
138.468
135.831
133.173
130.353
127.789
125.084
122.651
120.079
117.873
115.345
113.399
110.796
109.006
106.251
104.657
102.396
101.947
147.879
145.819
143.389
141.17
138.69
136.375
133.942
131.712
129.498
127.543
125.26
123.515
121.168
119.533
117.105
115.502
112.838
111.185
108.426
108.054
148.628
146.991
145.218
143.539
141.658
139.974
138.079
136.504
134.454
133.018
131.015
129.691
127.666
126.427
124.218
122.94
120.188
118.848
115.526
115.299
150.015
148.68
147.028
145.683
144.047
142.763
141.185
140.019
138.527
137.511
136.045
135.2
133.702
133.031
131.445
130.922
128.704
128.951
124.989
126.989
151.215
150.2
148.981
147.978
146.792
145.869
144.719
143.943
142.837
142.254
141.259
140.914
140.052
139.984
139.302
139.444
139.007
139.461
139.961
141.969
152.662
151.855
150.838
150.081
149.127
148.486
147.622
147.164
146.425
146.201
145.634
145.693
145.418
145.82
146.03
146.713
147.956
148.587
151.852
152.718
153.922
153.275
152.514
151.961
151.283
150.887
150.304
150.143
149.669
149.841
149.493
150.136
150.035
151.115
151.426
153.037
154.165
156.216
159.086
160.921
155.037
154.528
153.94
153.536
153.045
152.786
152.407
152.352
152.111
152.321
152.25
152.855
152.851
154.026
154.305
156.019
156.654
159.075
160.139
171.978
156.028
155.617
155.176
154.854
154.491
154.333
154.115
154.176
154.103
154.432
154.656
155.185
155.785
156.683
157.442
158.873
159.854
162.123
163.013
166.594
156.793
156.411
156.03
155.756
155.551
155.442
155.359
155.434
155.482
155.78
155.868
156.49
156.686
157.622
158.098
159.283
160.065
161.856
162.986
165.036
157.332
157.01
156.713
156.507
156.305
156.188
156.163
156.213
156.335
156.555
156.905
157.321
157.819
158.492
159.025
159.95
160.489
161.203
161.96
162.738
157.565
157.251
156.983
156.787
156.646
156.584
156.479
156.595
156.697
156.97
157.18
157.637
157.981
158.568
159.104
159.837
160.444
161.179
161.656
162.203
271.65
268.536
264.7
260.464
255.257
249.719
243.1
236.096
227.999
219.679
210.081
200.188
189.945
178.702
167.179
154.6
142.031
128.22
114.804
100.424
242.323
240.273
237.948
235.295
232.337
229.074
225.491
221.69
217.639
213.066
207.259
202.433
197.339
191.951
186.325
180.332
174.382
167.616
159.413
150.63
205.264
203.859
202.268
200.624
198.776
196.886
194.765
192.625
190.194
187.764
184.946
182.347
179.237
175.864
171.784
168.349
165.105
161.912
158.116
154.854
193.112
191.953
190.73
189.433
188.069
186.622
185.093
183.48
181.767
180.007
178.136
176.225
174.195
172.255
169.788
167.373
164.972
162.801
160.089
157.847
176.631
175.759
174.862
173.929
172.944
171.946
170.877
169.814
168.66
167.542
166.244
165.063
163.666
162.392
160.802
159.442
157.562
155.851
154.171
152.702
171.16
170.409
169.622
168.826
167.997
167.156
166.285
165.4
164.486
163.558
162.581
161.594
160.54
159.526
158.413
157.36
156.238
155.086
153.764
152.736
164.071
163.479
162.89
162.266
161.638
160.982
160.315
159.629
158.923
158.216
157.452
156.732
155.856
155.08
153.987
152.981
151.987
151.039
150.16
149.316
161.477
160.958
160.419
159.883
159.326
158.77
158.196
157.617
157.025
156.428
155.818
155.204
154.564
153.91
153.234
152.564
151.853
151.184
150.452
149.801
158.624
158.205
157.776
157.332
156.869
156.382
155.832
155.238
154.653
154.079
153.524
152.972
152.442
151.914
151.376
150.837
150.279
149.706
149.094
148.498
157.693
157.307
156.915
156.515
156.108
155.694
155.274
154.85
154.415
153.973
153.522
153.067
152.606
152.139
151.664
151.184
150.699
150.219
149.735
149.251
156.779
156.475
156.164
155.845
155.518
155.183
154.841
154.491
154.137
153.772
153.405
153.026
152.647
152.253
151.863
151.457
151.047
150.629
150.21
149.788
157.158
156.87
156.578
156.281
155.981
155.675
155.368
155.054
154.739
154.418
154.096
153.766
153.437
153.099
152.763
152.417
152.074
151.719
151.368
151.004
157.068
156.827
156.583
156.336
156.087
155.836
155.583
155.318
155.047
154.784
154.521
154.247
153.978
153.7
153.425
153.14
152.861
152.57
152.287
151.99
157.819
157.597
157.365
157.12
156.888
156.66
156.428
156.195
155.963
155.728
155.493
155.256
155.02
154.78
154.541
154.297
154.056
153.808
153.566
153.314
157.957
157.758
157.555
157.37
157.233
157.102
156.955
156.799
156.634
156.456
156.269
156.071
155.869
155.663
155.46
155.253
155.053
154.845
154.648
154.44
158.886
158.688
158.484
158.274
158.06
157.845
157.637
157.437
157.246
157.063
156.891
156.724
156.566
156.406
156.249
156.088
155.931
155.768
155.611
155.447
159.213
159.039
158.867
158.7
158.536
158.375
158.216
158.061
157.907
157.756
157.607
157.46
157.316
157.171
157.031
156.891
156.754
156.617
156.485
156.355
159.621
159.473
159.327
159.181
159.036
158.892
158.75
158.61
158.471
158.335
158.201
158.069
157.939
157.811
157.686
157.563
157.442
157.323
157.206
157.086
159.903
159.759
159.618
159.48
159.344
159.21
159.079
158.949
158.822
158.697
158.574
158.453
158.335
158.219
158.105
157.994
157.886
157.78
157.678
157.578
160.039
159.9
159.763
159.628
159.496
159.365
159.237
159.111
158.987
158.866
158.748
158.632
158.518
158.408
158.3
158.194
158.091
157.991
157.894
157.799
173.964
172.843
168.608
164.335
160.39
156.356
152.154
147.69
142.914
137.712
132.055
125.837
119.034
111.47
103.268
94.0977
83.8863
73.0338
59.2553
52.5824
184.135
183.597
180.979
178.339
175.399
172.123
168.525
164.57
160.255
155.521
150.364
144.669
138.42
131.464
123.899
115.353
106.033
95.7358
83.118
76.5524
195.88
195.691
193.45
191.139
188.672
185.904
182.892
179.588
175.963
171.947
167.521
162.599
157.156
151.057
144.386
136.776
128.469
119.034
107.787
100.761
207.429
207.772
206.223
204.643
202.882
200.821
198.454
195.778
192.757
189.361
185.563
181.279
176.496
171.103
165.17
158.365
151.022
142.51
132.87
126.277
220.353
220.812
219.418
218.108
216.665
214.964
213.043
210.867
208.4
205.593
202.424
198.833
194.786
190.182
185.056
179.114
172.631
165.002
156.456
151.38
231.516
232.254
231.472
230.723
229.877
228.824
227.523
225.981
224.139
221.997
219.51
216.609
213.251
209.354
204.929
199.721
193.958
187.036
179.19
174.826
243.114
244.148
243.782
243.415
242.975
242.314
241.465
240.421
239.139
237.578
235.689
233.436
230.772
227.617
223.954
219.544
214.579
208.526
201.215
196.975
253.503
254.838
254.964
255.101
255.171
255.088
254.821
254.389
253.692
252.756
251.508
249.935
247.937
245.514
242.592
239.037
234.964
229.782
223.593
218.856
263.641
265.204
265.737
266.266
266.763
267.107
267.293
267.323
267.153
266.765
266.102
265.145
263.853
262.197
260.092
257.422
254.248
250.127
245.37
240.319
272.934
274.823
275.812
276.783
277.726
278.541
279.216
279.762
280.099
280.253
280.144
279.824
279.158
278.213
276.804
275.018
272.655
269.643
266.01
261.436
281.234
283.41
284.787
286.157
287.477
288.671
289.73
290.657
291.42
292.037
292.46
292.685
292.643
292.34
291.668
290.613
289.078
287.036
284.332
280.827
289.563
291.895
293.437
295.027
296.597
298.071
299.463
300.781
301.979
303.076
303.996
304.769
305.266
305.568
305.464
305.119
304.223
302.988
301.004
298.338
296.034
298.476
300.309
302.221
304.124
305.985
307.767
309.494
311.1
312.606
313.938
315.111
316.057
316.782
317.182
317.264
316.901
316.186
314.833
312.746
302.038
304.677
306.747
308.895
311.067
313.164
315.21
317.191
319.079
320.883
322.54
324.093
325.41
326.569
327.358
327.974
328.105
328.027
327.174
325.731
306.595
309.336
311.605
313.983
316.358
318.701
320.995
323.257
325.435
327.553
329.524
331.385
333.011
334.479
335.631
336.633
337.161
337.52
337.082
336.195
310.024
312.918
315.412
317.982
320.566
323.102
325.616
328.074
330.481
332.784
334.997
337.073
339.009
340.775
342.35
343.71
344.695
345.516
345.557
345.606
312.371
315.334
317.924
320.63
323.347
326.039
328.705
331.347
333.915
336.439
338.846
341.174
343.319
345.345
347.085
348.63
349.805
350.779
351.259
351.422
313.512
316.623
319.297
322.12
324.95
327.764
330.55
333.309
336.012
338.653
341.195
343.626
345.913
348.04
349.961
351.682
353.114
354.299
354.941
354.822
313.277
316.375
319.1
321.964
324.865
327.738
330.613
333.457
336.276
339.027
341.722
344.315
346.809
349.169
351.355
353.366
355.035
356.528
357.255
357.873
312.059
315.204
317.952
320.858
323.795
326.725
329.645
332.56
335.424
338.253
340.997
343.663
346.202
348.6
350.797
352.757
354.401
355.647
356.523
356.962
7.55854
5.43073
3.2999
1.24185
-0.970862
-3.18664
-5.36708
-7.67869
-9.93542
-12.2842
-14.8122
-17.2334
-18.8742
-21.2315
-23.2145
-24.0257
-22.0926
-22.5088
-22.0911
-25.6677
11.8204
9.59725
7.27959
4.92845
2.58533
0.096985
-2.33052
-4.8851
-7.35237
-9.95112
-12.5195
-15.2404
-17.7214
-19.7469
-21.9023
-22.9237
-23.491
-23.4455
-22.2884
-23.637
15.6763
13.2819
10.7829
8.18064
5.64133
2.95175
0.328801
-2.46818
-5.16698
-7.98352
-10.7495
-13.6553
-16.4528
-18.8737
-21.3358
-23.4453
-25.1685
-23.0914
-22.9561
-23.6406
19.5866
16.9927
14.3302
11.5325
8.75406
5.74384
2.83885
-0.256298
-3.31077
-6.42372
-9.57234
-12.8081
-15.9527
-18.9853
-21.5571
-24.11
-25.652
-25.1518
-25.8771
-25.8871
23.3247
20.5442
17.6724
14.5566
11.5568
8.26954
5.03457
1.59953
-1.8247
-5.39577
-8.98513
-12.5981
-16.3632
-19.9064
-23.5279
-26.8177
-29.098
-30.6312
-30.3699
-30.9286
27.2432
24.23
21.1738
17.8049
14.5018
10.876
7.27475
3.4288
-0.497187
-4.54541
-8.76201
-13.0779
-17.5186
-22.0655
-26.679
-30.9362
-35.1189
-38.7634
-38.5494
-39.4552
31.2683
28.0372
24.7991
21.1522
17.5865
13.6418
9.63738
5.35932
0.934737
-3.73789
-8.60367
-13.6915
-19.0643
-24.71
-30.472
-36.6144
-42.8181
-48.0463
-49.8586
-50.5065
35.6169
32.2142
28.8299
24.9501
21.1022
16.8439
12.4655
7.77255
2.82024
-2.39449
-7.96696
-13.8411
-20.1546
-26.8413
-34.0038
-41.6992
-49.9537
-57.5389
-62.583
-63.6585
40.7362
37.1375
33.6125
29.4895
25.4026
20.863
16.1153
11.0148
5.61039
-0.175798
-6.34493
-12.9569
-20.0983
-27.7718
-36.2013
-45.3115
-55.3014
-64.771
-73.6822
-74.8719
46.787
42.8148
39.212
34.8476
30.5059
25.7228
20.6592
15.2297
9.40144
3.17633
-3.54772
-10.7457
-18.5836
-27.0302
-36.3033
-46.3507
-57.189
-68.3297
-80.3263
-82.1353
53.673
49.4546
45.7659
41.2582
36.7096
31.7633
26.4618
20.7587
14.6518
8.05665
0.946993
-6.74315
-15.1498
-24.2823
-34.3399
-45.3725
-57.3555
-70.669
-81.8102
-84.9377
61.4405
57.0075
53.1995
48.6311
43.9331
38.8691
33.4117
27.5467
21.2075
14.3716
6.97596
-1.01932
-9.77295
-19.2257
-29.6925
-41.1107
-53.5045
-67.3137
-80.8167
-84.6176
69.722
65.1452
61.4252
56.9255
52.1934
47.1529
41.6582
35.7249
29.3279
22.3771
14.8388
6.63525
-2.35926
-12.1266
-23.0451
-34.7767
-47.7576
-62.5704
-75.8808
-78.9138
78.7871
74.1336
70.5558
66.2695
61.6034
56.6666
51.241
45.3531
38.9586
31.9874
24.4132
16.1482
7.09398
-2.80165
-13.8254
-25.5528
-39.3312
-53.4703
-67.6183
-72.47
89.1931
84.4445
81.0054
76.954
72.3523
67.5489
62.2395
56.4467
50.1542
43.2737
35.7568
27.5348
18.4901
8.54255
-2.45336
-14.3893
-27.9497
-41.9844
-55.6455
-60.7942
99.8144
94.9884
91.8769
88.3852
84.0334
79.5008
74.4718
68.9187
62.8576
56.1799
48.8886
40.8644
32.0324
22.3135
11.5021
-0.218846
-13.5906
-27.8053
-42.343
-48.0516
111.165
107.014
104.39
101.286
97.3007
93.0031
88.2079
82.8734
77.011
70.5497
63.4531
55.6492
47.0727
37.6099
27.1962
15.868
3.07998
-10.5449
-25.1596
-30.8289
123.102
119.498
117.37
114.841
111.262
107.301
102.873
97.871
92.3518
86.2262
79.4993
72.0571
63.8532
54.771
44.7228
33.7801
21.2915
8.18228
-6.9803
-13.0525
140.699
136.863
134.092
131.603
128.145
124.145
119.732
114.797
109.362
103.366
96.8015
89.5831
81.6875
72.9649
63.4555
53.0316
41.348
28.9812
14.2156
7.89686
167.055
163.328
156.693
152.233
147.618
142.732
137.721
132.482
126.96
121.053
114.731
107.849
100.361
92.0947
83.0594
73.1098
61.879
49.9086
35.6133
29.2861
99.6257
100.11
98.9796
97.7172
95.8177
93.841
92.2244
90.123
88.1747
85.8015
83.1311
80.3211
76.3131
72.7757
66.5024
61.7663
52.021
44.9124
30.5679
18.0138
100.026
100.498
99.5122
98.3813
96.7147
94.8147
93.3816
91.412
89.6202
87.392
84.9005
82.2847
78.5325
75.1969
69.2447
64.9423
55.5594
48.8411
34.7422
22.9112
100.419
100.956
100.239
98.9913
97.6047
95.7753
94.535
92.7047
91.0724
88.9938
86.7291
84.2294
80.7202
77.6224
71.9785
67.9636
58.842
52.7433
38.6885
27.6292
100.755
101.292
100.789
99.6022
98.4902
96.7233
95.6794
93.9851
92.5035
90.5654
88.4654
86.1656
82.9119
79.9804
74.6495
71.021
62.3145
56.6705
42.8279
32.2116
101.081
101.607
101.331
100.184
99.3663
97.6731
96.8154
95.2707
93.9392
92.1483
90.2146
88.0762
85.0815
82.3934
77.3987
74.0639
65.6346
60.5046
46.703
36.7405
101.364
101.882
101.816
100.747
100.24
98.6052
97.9457
96.549
95.3596
93.7111
91.9622
89.9819
87.2367
84.7124
80.0153
77.0236
68.9965
64.3241
50.8434
41.2665
101.634
102.187
102.299
101.273
101.101
99.547
99.0693
97.832
96.7822
95.2771
93.7139
91.8699
89.3931
87.0864
82.7704
80.0753
72.3642
68.2908
54.8682
45.8176
101.877
102.42
102.769
101.817
101.96
100.483
100.192
99.1138
98.1942
96.8308
95.4347
93.7463
91.5302
89.3655
85.3946
82.9431
75.6007
72.2165
58.9982
50.3083
102.118
102.652
103.273
102.337
102.809
101.428
101.309
100.398
99.6059
98.3825
97.165
95.6098
93.6644
91.696
88.1348
85.9454
79.1116
76.4837
63.192
55.7026
102.35
102.892
103.788
102.875
103.666
102.383
102.43
101.687
101.011
99.9269
98.8661
97.459
95.7772
93.9532
90.7692
88.7646
82.3724
80.2961
67.6091
62.6382
102.591
103.081
104.342
103.394
104.515
103.351
103.547
102.975
102.414
101.465
100.569
99.2961
97.8814
96.2462
93.4822
91.7009
85.958
84.2542
72.0934
69.3327
102.854
103.304
104.912
103.937
105.378
104.338
104.671
104.271
103.814
102.998
102.247
101.116
99.9647
98.4877
96.1195
94.5033
89.2978
88.0378
76.8811
75.8077
103.107
103.529
105.518
104.461
106.232
105.345
105.795
105.565
105.209
104.522
103.92
102.924
102.036
100.754
98.805
97.4029
92.9283
92.0055
81.7349
82.2307
103.359
103.774
106.193
104.986
107.138
106.382
106.931
106.869
106.606
106.044
105.573
104.715
104.09
102.987
101.438
100.22
96.3332
95.7897
86.9561
89.4435
103.582
103.972
106.843
105.474
108.063
107.431
108.061
108.164
107.987
107.544
107.201
106.482
106.119
105.225
104.079
103.084
99.9282
99.6839
92.2017
97.2245
103.774
104.092
107.396
106.024
108.98
108.498
109.2
109.464
109.367
109.036
108.807
108.226
108.133
107.439
106.681
105.9
103.339
103.598
98.098
106.165
103.974
104.079
107.996
106.59
109.971
109.612
110.387
110.787
110.792
110.567
110.468
110.034
110.216
109.751
109.437
108.941
107.111
107.764
104.195
114.883
104.253
104.073
108.995
107.226
111.021
110.754
111.542
112.118
112.162
112.045
112.022
111.741
112.187
111.92
111.956
111.706
110.31
111.106
109.664
122.873
103.81
103.649
109.451
107.724
111.758
111.734
112.409
113.219
113.197
113.168
113.106
112.989
113.668
113.635
113.882
113.776
112.668
114.073
116.216
134.946
104.807
102.333
109.783
108.418
113.036
112.933
114.016
114.587
115.029
114.99
115.279
115.201
116.328
116.633
117.721
117.954
117.963
121.574
128.966
150.899
129.803
107.129
123.702
117.987
125.536
123.131
127.919
127.082
131.238
131.663
136.231
137.587
142.057
143.75
150.24
153.613
162.275
167.767
184.542
179.484
127.651
124.961
127.792
126.969
129.705
129.815
132.727
133.77
137.091
139.081
143.254
146.316
152.17
156.478
163.04
169.067
178.778
186.761
200.26
211.965
137.276
136.73
137.585
138.043
139.941
141.071
143.291
144.988
147.564
149.772
153.001
156.047
160.077
163.52
168.463
173.524
179.616
186.257
194.062
203.186
139.8
139.964
140.642
141.553
142.987
144.518
146.578
148.63
151.357
154.059
157.484
160.54
164.455
168.3
173.05
177.686
182.752
188.769
193.119
199.189
143.161
143.401
144.404
145.888
147.432
149.023
150.893
152.638
154.808
156.8
159.175
161.452
164.188
166.817
169.801
172.759
175.924
179.064
182.184
186.537
144.445
144.822
145.775
147.457
148.979
150.786
152.632
154.569
156.695
158.717
161.1
163.301
165.798
168.2
170.651
173.307
175.294
178.337
179.921
181.066
145.194
146.003
147.143
149.051
150.808
152.45
154.235
155.739
157.461
158.931
160.581
162.01
163.555
164.909
166.281
167.463
168.67
170.471
171.584
173.258
145.309
146.212
148.005
149.901
152.039
153.636
155.552
156.984
158.74
160.067
161.686
162.94
164.374
165.609
166.711
168.01
168.748
169.755
169.556
169.688
146.992
147.586
150.03
151.72
154.007
155.378
157.092
158.18
159.521
160.427
161.479
162.231
163.04
163.631
164.202
164.676
165.102
164.852
165.28
165.456
149.455
149.817
153.037
154.214
156.506
157.524
159.041
159.828
160.977
161.589
162.482
162.906
163.557
163.808
164.15
164.231
164.429
164.533
164.387
164.028
155.757
154.556
158.66
158.985
160.708
161.211
162.174
162.543
163.138
163.366
163.724
163.819
164.053
163.982
164.204
164.056
163.973
163.176
162.907
162.467
167.379
165.608
165.27
164.675
165.244
164.877
165.125
164.848
164.963
164.691
164.785
164.454
164.518
164.167
163.925
163.578
163.225
162.973
162.624
162.137
175.666
174.521
171.879
171.72
170.139
169.796
168.851
168.426
167.841
167.387
166.981
166.485
165.971
165.606
165.049
164.578
164.101
163.341
162.678
161.721
180.65
179.911
176.843
174.9
173.553
171.94
171.107
169.853
169.25
168.254
167.706
166.892
166.308
165.567
165.022
164.376
163.916
163.255
162.688
162.054
187.383
183.259
180.872
178.423
176.758
174.895
173.608
172.166
171.189
170.092
169.312
168.431
167.766
166.992
166.32
165.558
164.755
164.011
163.261
162.465
192.342
180.584
179.839
177.267
176.437
174.433
173.767
172.305
171.592
170.398
169.667
168.632
167.909
166.986
166.289
165.44
164.78
164.04
163.43
162.729
184.065
181.432
180.897
177.915
177.493
174.735
174.13
172.751
172.019
170.899
170.16
169.21
168.494
167.612
166.914
166.091
165.389
164.572
163.873
163.122
184.35
179.252
180.394
176.443
175.91
174.574
173.897
172.744
171.987
170.969
170.192
169.261
168.503
167.674
166.94
166.164
165.451
164.698
163.987
163.254
178.194
177.423
177.057
175.952
175.594
174.495
173.862
172.836
172.102
171.16
170.386
169.504
168.725
167.886
167.131
166.332
165.611
164.866
164.173
163.466
181.774
177.253
177.014
175.915
175.413
174.419
173.721
172.802
172.029
171.154
170.362
169.524
168.742
167.941
167.18
166.415
165.681
164.949
164.242
163.547
201.623
209.121
218.047
226.096
234.742
241.152
248.125
253.622
259.021
263.98
267.668
270.763
273.511