/*--------------------------------*- C++ -*----------------------------------*\
  =========                 |
  \\      /  F ield         | OpenFOAM: The Open Source CFD Toolbox
   \\    /   O peration     | Website:  https://openfoam.org
    \\  /    A nd           | Version:  9
     \\/     M anipulation  |
\*---------------------------------------------------------------------------*/
FoamFile
{
    format      ascii;
    class       surfaceScalarField;
    location    "19";
    object      phi;
}
// * * * * * * * * * * * * * * * * * * * * * * * * * * * * * * * * * * * * * //

dimensions      [0 3 -1 0 0 0 0];

internalField   nonuniform List<scalar> 
92080
(
-0.00693906
-0.510334
0.517273
-0.0361306
-0.986847
1.01604
-0.0819791
-1.05282
1.09867
-0.127453
-1.03384
1.07931
-0.17204
-1.01749
1.06207
-0.216191
-1.00051
1.04466
-0.259657
-0.985087
1.02855
-0.302418
-0.970668
1.01343
-0.344977
-0.955499
0.998058
-0.386462
-0.943274
0.984759
-0.427329
-0.930765
0.971632
-0.467816
-0.918051
0.958539
-0.507704
-0.908337
0.948225
-0.546885
-0.897172
0.936353
-0.586182
-0.886488
0.925784
-0.62524
-0.876884
0.915942
-0.663239
-0.867582
0.905581
-0.701312
-0.857561
0.895634
-0.738618
-0.847941
0.885247
-0.841972
0.875673
-0.772319
-0.00771686
-0.502617
-0.040924
-0.95364
-0.0861989
-1.00754
-0.13247
-0.987568
-0.178241
-0.971717
-0.22334
-0.955415
-0.268716
-0.939711
-0.312892
-0.926492
-0.35625
-0.912141
-0.399965
-0.899559
-0.441861
-0.888869
-0.483804
-0.876108
-0.525011
-0.867129
-0.564722
-0.857462
-0.603767
-0.847442
-0.642188
-0.838463
-0.679611
-0.830159
-0.715114
-0.822058
-0.748614
-0.814441
-0.808367
-0.78222
-0.00735292
-0.495264
-0.0461222
-0.914871
-0.0954842
-0.95818
-0.143946
-0.939107
-0.191068
-0.924594
-0.236899
-0.909585
-0.282579
-0.894031
-0.32846
-0.880611
-0.372988
-0.867612
-0.417251
-0.855297
-0.460992
-0.845128
-0.50396
-0.83314
-0.547449
-0.82364
-0.589512
-0.815399
-0.630706
-0.806248
-0.671536
-0.797633
-0.711671
-0.790025
-0.751312
-0.782416
-0.790073
-0.77568
-0.770329
-0.82811
-0.00196215
-0.493302
-0.0447076
-0.872125
-0.0928853
-0.910003
-0.142136
-0.889856
-0.191801
-0.874929
-0.240047
-0.861339
-0.287158
-0.846921
-0.333983
-0.833785
-0.380684
-0.820912
-0.426763
-0.809217
-0.471507
-0.800384
-0.514901
-0.789747
-0.558483
-0.780058
-0.601577
-0.772304
-0.643413
-0.764412
-0.684968
-0.756079
-0.726023
-0.74897
-0.766505
-0.741934
-0.806389
-0.735796
-0.730031
-0.846687
0.000486999
-0.493789
-0.0448626
-0.826776
-0.10004
-0.854825
-0.152866
-0.83703
-0.203912
-0.823883
-0.253596
-0.811655
-0.301992
-0.798524
-0.3493
-0.786477
-0.395551
-0.774661
-0.442939
-0.761829
-0.489917
-0.753406
-0.535747
-0.743916
-0.58101
-0.734795
-0.626169
-0.727146
-0.669931
-0.72065
-0.713059
-0.712951
-0.755829
-0.7062
-0.798072
-0.699691
-0.839785
-0.694083
-0.689112
-0.880705
0.000877242
-0.494666
-0.0442832
-0.781615
-0.0979996
-0.801109
-0.151283
-0.783746
-0.205207
-0.76996
-0.257445
-0.759417
-0.307877
-0.748092
-0.357693
-0.736662
-0.405025
-0.727328
-0.451746
-0.715109
-0.499125
-0.706026
-0.545073
-0.697968
-0.591086
-0.688782
-0.637256
-0.680976
-0.682988
-0.674918
-0.727047
-0.668892
-0.771141
-0.662106
-0.81481
-0.656022
-0.858385
-0.650507
-0.645796
-0.901701
0.000293101
-0.494959
-0.0485731
-0.732749
-0.105044
-0.744638
-0.159091
-0.729699
-0.21297
-0.71608
-0.266874
-0.705513
-0.318942
-0.696025
-0.370373
-0.685231
-0.420332
-0.677369
-0.467912
-0.667528
-0.515992
-0.657946
-0.563144
-0.650817
-0.60898
-0.642945
-0.655071
-0.634886
-0.701904
-0.628085
-0.747942
-0.622853
-0.79258
-0.617469
-0.836896
-0.611706
-0.881278
-0.606125
-0.60169
-0.925384
-0.00498643
-0.489973
-0.0570182
-0.680717
-0.11539
-0.686266
-0.16906
-0.676029
-0.221545
-0.663596
-0.27443
-0.652628
-0.326347
-0.644107
-0.378093
-0.633485
-0.429784
-0.625678
-0.47925
-0.618062
-0.528048
-0.609149
-0.5768
-0.602064
-0.624317
-0.595428
-0.670903
-0.5883
-0.717526
-0.581463
-0.764819
-0.575559
-0.811691
-0.570598
-0.857182
-0.566214
-0.902216
-0.561091
-0.556106
-0.947799
-0.0129563
-0.477017
-0.0652689
-0.628405
-0.121711
-0.629824
-0.176922
-0.620818
-0.229944
-0.610573
-0.282842
-0.59973
-0.335046
-0.591904
-0.386007
-0.582524
-0.438083
-0.573602
-0.489088
-0.567057
-0.538759
-0.559478
-0.588104
-0.552719
-0.636612
-0.54692
-0.683926
-0.540985
-0.730889
-0.5345
-0.777559
-0.52889
-0.824824
-0.523333
-0.87205
-0.518988
-0.917881
-0.51526
-0.511317
-0.962671
-0.0194027
-0.457614
-0.0750788
-0.572729
-0.135636
-0.569266
-0.192081
-0.564373
-0.246409
-0.556245
-0.299514
-0.546625
-0.352215
-0.539203
-0.40289
-0.531849
-0.453555
-0.522936
-0.504855
-0.515758
-0.555691
-0.508642
-0.606578
-0.501832
-0.657357
-0.496142
-0.706937
-0.491405
-0.75508
-0.486356
-0.802876
-0.481094
-0.84996
-0.476249
-0.897481
-0.471467
-0.945539
-0.467202
-0.46408
-0.992776
-0.025963
-0.431651
-0.0803886
-0.518303
-0.139652
-0.510003
-0.197983
-0.506042
-0.253143
-0.501086
-0.307041
-0.492726
-0.360558
-0.485686
-0.412445
-0.479962
-0.462406
-0.472976
-0.511829
-0.466334
-0.560528
-0.459943
-0.60895
-0.453411
-0.657935
-0.447156
-0.707663
-0.441677
-0.756804
-0.437216
-0.805034
-0.432864
-0.852809
-0.428474
-0.899562
-0.424714
-0.946048
-0.420716
-0.417015
-0.993112
-0.0325838
-0.399067
-0.0850877
-0.465799
-0.141745
-0.453346
-0.202087
-0.445701
-0.260423
-0.442749
-0.316586
-0.436563
-0.372561
-0.429711
-0.428155
-0.424369
-0.482144
-0.418987
-0.534654
-0.413824
-0.585765
-0.408832
-0.6353
-0.403876
-0.683459
-0.398997
-0.731274
-0.393862
-0.779482
-0.389008
-0.827491
-0.384856
-0.875203
-0.380762
-0.922888
-0.377029
-0.969599
-0.374004
-0.370964
-1.01565
-0.0387624
-0.360305
-0.0924589
-0.412103
-0.145756
-0.400048
-0.200475
-0.390982
-0.259641
-0.383583
-0.315119
-0.381085
-0.369304
-0.375527
-0.42255
-0.371122
-0.475641
-0.365897
-0.528618
-0.360846
-0.581006
-0.356444
-0.633262
-0.35162
-0.684539
-0.34772
-0.734595
-0.343806
-0.78355
-0.340053
-0.832125
-0.336281
-0.879954
-0.332933
-0.92759
-0.329393
-0.975289
-0.326305
-0.323562
-1.02269
-0.0455099
-0.314795
-0.103289
-0.354323
-0.157869
-0.345469
-0.20941
-0.339442
-0.264254
-0.328739
-0.321519
-0.32382
-0.378198
-0.318847
-0.433349
-0.315971
-0.487003
-0.312243
-0.539157
-0.308692
-0.590425
-0.305176
-0.640678
-0.301367
-0.690805
-0.297594
-0.74077
-0.293841
-0.790161
-0.290661
-0.839141
-0.287301
-0.887616
-0.284457
-0.935497
-0.281512
-0.982935
-0.278866
-0.276063
-1.03043
-0.0478116
-0.266983
-0.111471
-0.290664
-0.173525
-0.283415
-0.228646
-0.28432
-0.279756
-0.277629
-0.332325
-0.271251
-0.385972
-0.2652
-0.440896
-0.261047
-0.495042
-0.258097
-0.54885
-0.254884
-0.601711
-0.252315
-0.653523
-0.249554
-0.704019
-0.247098
-0.753786
-0.244075
-0.803106
-0.241341
-0.851835
-0.238573
-0.90044
-0.235851
-0.94854
-0.233413
-0.996384
-0.231022
-0.228722
-1.04372
-0.0522626
-0.214721
-0.113253
-0.229674
-0.1782
-0.218468
-0.24263
-0.219891
-0.301071
-0.219188
-0.354885
-0.217436
-0.40629
-0.213795
-0.458122
-0.209216
-0.509596
-0.206623
-0.561688
-0.202792
-0.613063
-0.20094
-0.664689
-0.197928
-0.7156
-0.196187
-0.765754
-0.193921
-0.81524
-0.191855
-0.863913
-0.1899
-0.912085
-0.187679
-0.959791
-0.185707
-1.00728
-0.183534
-0.181392
-1.05461
-0.0597121
-0.155008
-0.115277
-0.174109
-0.166018
-0.167727
-0.223416
-0.162492
-0.281042
-0.161563
-0.338128
-0.16035
-0.393016
-0.158907
-0.446969
-0.155262
-0.500413
-0.153179
-0.553141
-0.150064
-0.606364
-0.147718
-0.658164
-0.146128
-0.710566
-0.143784
-0.761757
-0.14273
-0.813033
-0.140578
-0.863296
-0.139638
-0.913246
-0.137729
-0.962472
-0.136481
-1.01116
-0.134846
-0.133295
-1.05926
-0.0702808
-0.0847276
-0.141128
-0.103263
-0.194263
-0.114592
-0.24742
-0.109335
-0.301503
-0.10748
-0.356919
-0.104934
-0.412211
-0.103615
-0.465751
-0.101723
-0.518752
-0.100177
-0.570335
-0.0984815
-0.621377
-0.0966756
-0.671816
-0.0956892
-0.721407
-0.094193
-0.770931
-0.093206
-0.819598
-0.091912
-0.868344
-0.0908909
-0.916458
-0.089615
-0.964354
-0.0885858
-1.01185
-0.087351
-0.0863902
-1.05875
-0.0460091
-0.0387186
-0.0985716
-0.0507
-0.156763
-0.0563998
-0.216412
-0.0496861
-0.274781
-0.0491106
-0.333522
-0.0461932
-0.392573
-0.0445632
-0.449418
-0.044878
-0.505778
-0.043817
-0.560322
-0.0439375
-0.613387
-0.0436109
-0.665787
-0.0432893
-0.717198
-0.042782
-0.76835
-0.0420538
-0.818803
-0.0414596
-0.868909
-0.0407847
-0.918472
-0.0400513
-0.967447
-0.0396114
-1.01595
-0.0388503
-0.0385526
-1.06379
-0.0423185
0.00359997
-0.0975573
0.00453873
-0.162467
0.00850996
-0.222442
0.0102886
-0.281085
0.00953234
-0.338243
0.0109657
-0.393138
0.0103317
-0.448528
0.0105112
-0.502881
0.0105368
-0.55679
0.00997124
-0.610074
0.00967296
-0.662586
0.00922321
-0.715006
0.00963729
-0.766424
0.00936406
-0.81744
0.00955693
-0.86766
0.00943537
-0.917234
0.00952271
-0.966297
0.0094516
-1.01478
0.00963077
-1.06294
0.00961248
0.0415233
-0.253654
0.212131
0.11443
-0.797656
0.724749
0.175885
-1.2869
1.22544
0.198303
-1.47044
1.44802
0.204109
-1.48603
1.48022
0.204556
-1.47305
1.4726
0.203693
-1.45267
1.45354
0.202766
-1.43517
1.4361
0.202195
-1.41958
1.42015
0.20043
-1.40488
1.40664
0.199004
-1.39178
1.39321
0.197511
-1.37864
1.38013
0.194886
-1.36491
1.36753
0.191754
-1.35191
1.35504
0.188243
-1.33866
1.34217
0.184621
-1.32424
1.32787
0.180368
-1.30792
1.31218
0.175511
-1.28848
1.29334
0.170312
-1.27163
1.27683
-1.25408
0.165559
1.25883
0.0373471
-0.291001
0.102769
-0.863077
0.152109
-1.33624
0.164813
-1.48314
0.166571
-1.48779
0.164508
-1.47099
0.162587
-1.45075
0.160339
-1.43292
0.157187
-1.41643
0.154343
-1.40203
0.150623
-1.38806
0.146051
-1.37406
0.141764
-1.36062
0.137773
-1.34792
0.133462
-1.33434
0.128374
-1.31916
0.122237
-1.30179
0.1158
-1.28205
0.109218
-1.26505
-1.24798
0.103123
0.0329119
-0.323913
0.0887045
-0.91887
0.128517
-1.37605
0.137107
-1.49173
0.137026
-1.48771
0.133104
-1.46707
0.129154
-1.4468
0.124752
-1.42852
0.120513
-1.41219
0.115641
-1.39716
0.110683
-1.3831
0.105995
-1.36938
0.100608
-1.35523
0.0943145
-1.34163
0.0874464
-1.32748
0.08021
-1.31192
0.072813
-1.29439
0.0652778
-1.27451
0.057583
-1.25735
-1.24105
0.0506524
0.0321011
-0.356014
0.0807756
-0.967544
0.108065
-1.40334
0.109443
-1.49311
0.104566
-1.48283
0.0983816
-1.46088
0.0923831
-1.44081
0.0860375
-1.42217
0.079221
-1.40537
0.0721784
-1.39012
0.0648469
-1.37577
0.0569416
-1.36147
0.0488856
-1.34718
0.0412881
-1.33403
0.0336797
-1.31987
0.025885
-1.30413
0.0174438
-1.28595
0.00869365
-1.26576
0.000118101
-1.24878
-1.23289
-0.0080439
0.0291155
-0.385129
0.0702527
-1.00868
0.0880302
-1.42112
0.0855457
-1.49062
0.0785164
-1.4758
0.0712242
-1.45359
0.0632119
-1.43279
0.0550035
-1.41396
0.0464148
-1.39678
0.0377775
-1.38148
0.0287769
-1.36677
0.0197787
-1.35247
0.0106451
-1.33804
0.000960126
-1.32434
-0.00897834
-1.30993
-0.0193342
-1.29377
-0.029738
-1.27554
-0.0399748
-1.25552
-0.0501334
-1.23862
-1.22352
-0.0595068
0.02542
-0.410549
0.0607749
-1.04404
0.072014
-1.43236
0.0649661
-1.48357
0.0543383
-1.46517
0.0436031
-1.44285
0.0326965
-1.42189
0.0214357
-1.4027
0.0105315
-1.38588
-0.000807927
-1.37014
-0.0121488
-1.35543
-0.0233775
-1.34124
-0.0350087
-1.32641
-0.0465477
-1.3128
-0.0580209
-1.29846
-0.0691223
-1.28267
-0.0801038
-1.26456
-0.0910073
-1.24462
-0.101685
-1.22794
-1.21327
-0.111935
0.022546
-0.433095
0.051037
-1.07253
0.0544657
-1.43579
0.0437632
-1.47287
0.0310651
-1.45248
0.0186873
-1.43048
0.00618634
-1.40939
-0.00632276
-1.39019
-0.0196753
-1.37252
-0.032731
-1.35708
-0.0460567
-1.34211
-0.0596867
-1.32761
-0.0730347
-1.31306
-0.0862609
-1.29958
-0.0993739
-1.28534
-0.112605
-1.26944
-0.12574
-1.25143
-0.138553
-1.23181
-0.151261
-1.21523
-1.20079
-0.163742
0.0194578
-0.452553
0.0421946
-1.09526
0.0402102
-1.4338
0.0264358
-1.4591
0.010971
-1.43701
-0.00444281
-1.41506
-0.0201945
-1.39363
-0.0362074
-1.37418
-0.051459
-1.35727
-0.067202
-1.34134
-0.0827789
-1.32653
-0.0977579
-1.31264
-0.113117
-1.29771
-0.12867
-1.28403
-0.14389
-1.27012
-0.158513
-1.25481
-0.172427
-1.23751
-0.186088
-1.21815
-0.199729
-1.20159
-1.18754
-0.212977
0.0169103
-0.469464
0.0342315
-1.11259
0.0264321
-1.426
0.00908743
-1.44175
-0.00883659
-1.41909
-0.0262841
-1.39762
-0.0434738
-1.37644
-0.0606856
-1.35697
-0.0786614
-1.3393
-0.0961244
-1.32388
-0.113753
-1.3089
-0.131716
-1.29467
-0.149326
-1.2801
-0.166519
-1.26683
-0.18344
-1.2532
-0.199986
-1.23827
-0.216047
-1.22145
-0.231624
-1.20257
-0.247104
-1.18611
-1.17203
-0.262614
0.0144523
-0.483916
0.026005
-1.12414
0.0137205
-1.41372
-0.00614762
-1.42189
-0.0265866
-1.39865
-0.047041
-1.37716
-0.0675954
-1.35589
-0.0880895
-1.33648
-0.108072
-1.31931
-0.128419
-1.30353
-0.148384
-1.28893
-0.167477
-1.27558
-0.186566
-1.26101
-0.205799
-1.2476
-0.224578
-1.23442
-0.242933
-1.21991
-0.260447
-1.20394
-0.27755
-1.18546
-0.29476
-1.1689
-1.15514
-0.311646
0.0122194
-0.496135
0.0193727
-1.13129
0.00267957
-1.39702
-0.0203472
-1.39886
-0.0433477
-1.37565
-0.0656916
-1.35482
-0.0876242
-1.33396
-0.109715
-1.31439
-0.131977
-1.29705
-0.153893
-1.28162
-0.17611
-1.26672
-0.198407
-1.25328
-0.220372
-1.23904
-0.241857
-1.22611
-0.262745
-1.21354
-0.282837
-1.19982
-0.302087
-1.18469
-0.32079
-1.16676
-0.339562
-1.15013
-1.13639
-0.358319
0.00990998
-0.506045
0.01166
-1.13304
-0.00958559
-1.37578
-0.035096
-1.37335
-0.0606287
-1.35012
-0.0860862
-1.32936
-0.111234
-1.30881
-0.135971
-1.28965
-0.160684
-1.27234
-0.185337
-1.25696
-0.209455
-1.2426
-0.232971
-1.22977
-0.256165
-1.21585
-0.279475
-1.2028
-0.302359
-1.19065
-0.324778
-1.1774
-0.346116
-1.16335
-0.36656
-1.14632
-0.387157
-1.12953
-1.11573
-0.407809
0.00804284
-0.514088
0.00677158
-1.13177
-0.0167651
-1.35224
-0.0448883
-1.34522
-0.0729276
-1.32208
-0.100416
-1.30187
-0.127465
-1.28176
-0.154701
-1.26241
-0.181475
-1.24556
-0.208274
-1.23016
-0.235287
-1.21559
-0.261808
-1.20325
-0.288016
-1.18964
-0.313918
-1.1769
-0.339278
-1.16529
-0.363909
-1.15277
-0.387623
-1.13964
-0.410395
-1.12355
-0.432866
-1.10706
-1.09342
-0.455182
0.00546037
-0.519549
-0.00130859
-1.125
-0.0308235
-1.32273
-0.0618637
-1.31418
-0.092167
-1.29177
-0.122238
-1.2718
-0.151577
-1.25242
-0.180348
-1.23364
-0.209576
-1.21634
-0.238304
-1.20143
-0.266941
-1.18695
-0.295388
-1.1748
-0.323072
-1.16195
-0.35072
-1.14926
-0.377907
-1.1381
-0.404571
-1.12611
-0.430062
-1.11415
-0.454364
-1.09925
-0.478581
-1.08284
-1.06905
-0.502951
0.00443706
-0.523986
-0.00442773
-1.11614
-0.0337313
-1.29342
-0.0669783
-1.28094
-0.0998856
-1.25887
-0.132555
-1.23913
-0.164841
-1.22013
-0.196923
-1.20156
-0.228142
-1.18512
-0.259731
-1.16985
-0.291238
-1.15544
-0.322138
-1.1439
-0.352715
-1.13138
-0.383149
-1.11882
-0.413171
-1.10808
-0.442671
-1.09661
-0.471286
-1.08553
-0.498271
-1.07226
-0.524433
-1.05668
-1.04291
-0.550568
0.00170776
-0.525693
-0.0121857
-1.10224
-0.0477453
-1.25786
-0.0842914
-1.24439
-0.119494
-1.22366
-0.154079
-1.20455
-0.187741
-1.18647
-0.220924
-1.16838
-0.254412
-1.15163
-0.286935
-1.13732
-0.320177
-1.1222
-0.353645
-1.11043
-0.385978
-1.09904
-0.418198
-1.0866
-0.45009
-1.07619
-0.481537
-1.06516
-0.512337
-1.05473
-0.541696
-1.0429
-0.569794
-1.02858
-1.01488
-0.59783
0.000329803
-0.526023
-0.0170345
-1.08488
-0.0515763
-1.22332
-0.0889834
-1.20698
-0.126172
-1.18647
-0.163338
-1.16738
-0.200209
-1.1496
-0.236428
-1.13216
-0.272173
-1.11589
-0.30791
-1.10159
-0.342921
-1.08719
-0.378303
-1.07505
-0.413461
-1.06388
-0.448301
-1.05176
-0.482906
-1.04158
-0.517021
-1.03104
-0.550502
-1.02125
-0.582525
-1.01088
-0.612784
-0.998325
-0.984952
-0.642708
-0.00143998
-0.524583
-0.0215663
-1.06475
-0.0619445
-1.18294
-0.103125
-1.1658
-0.142796
-1.1468
-0.181578
-1.1286
-0.219503
-1.11168
-0.257112
-1.09455
-0.294477
-1.07852
-0.33118
-1.06488
-0.368191
-1.05018
-0.405328
-1.03791
-0.442059
-1.02715
-0.478747
-1.01507
-0.515434
-1.0049
-0.551972
-0.994507
-0.58835
-0.984871
-0.623682
-0.975549
-0.656979
-0.965028
-0.952378
-0.689553
-0.00343526
-0.521148
-0.0265431
-1.04164
-0.0668241
-1.14266
-0.108587
-1.12404
-0.149994
-1.1054
-0.191459
-1.08713
-0.232268
-1.07087
-0.271958
-1.05486
-0.31193
-1.03855
-0.351315
-1.0255
-0.38989
-1.0116
-0.429018
-0.998786
-0.467702
-0.988469
-0.506296
-0.976481
-0.544785
-0.966408
-0.583243
-0.956049
-0.622111
-0.946002
-0.660837
-0.936822
-0.698415
-0.927451
-0.916996
-0.733797
-0.00387493
-0.0294805
-0.0734773
-0.118205
-0.161526
-0.203995
-0.246309
-0.287739
-0.328229
-0.368968
-0.40894
-0.449187
-0.489431
-0.529559
-0.570183
-0.610289
-0.650711
-0.691899
-0.734103
-0.775426
0.11405
-10.8721
10.9236
0.0857069
-10.2383
10.2666
0.0592246
-10.0174
10.0439
0.0430121
-9.61524
9.63145
0.0301361
-9.50513
9.51801
0.0222203
-9.23196
9.23988
0.0159953
-9.10316
9.10939
0.0132581
-8.93309
8.93582
0.0109988
-8.84922
8.85147
0.0110368
-8.73596
8.73592
0.0128183
-8.68128
8.6795
0.0168895
-8.60174
8.59767
0.0216328
-8.56435
8.55961
0.0244158
-8.53372
8.53094
0.0291992
-8.48133
8.47655
0.0325088
-8.44113
8.43782
0.0318082
-8.29229
8.29299
0.0236827
-7.38654
7.39466
0.012934
-5.39798
5.40873
-2.23321
2.24614
0.0443848
-10.8134
0.0143593
-10.2083
-0.0100096
-9.99301
-0.0224664
-9.60278
-0.0322304
-9.49537
-0.0365324
-9.22766
-0.0394273
-9.10027
-0.0386599
-8.93385
-0.0374606
-8.85041
-0.0338487
-8.73957
-0.0281346
-8.687
-0.0199701
-8.60991
-0.0107843
-8.57354
-0.00320546
-8.5413
0.00701884
-8.49155
0.0151858
-8.4493
0.019844
-8.29695
0.0175709
-7.38426
0.0110264
-5.39143
-2.22218
-0.0131555
-10.7496
-0.0455953
-10.1758
-0.071599
-9.96701
-0.0858054
-9.58858
-0.0949376
-9.48624
-0.0966336
-9.22597
-0.0958244
-9.10108
-0.091314
-8.93836
-0.0857338
-8.85599
-0.0784079
-8.7469
-0.0691445
-8.69626
-0.0572362
-8.62182
-0.0434976
-8.58728
-0.0309975
-8.5538
-0.0156095
-8.50694
-0.00248955
-8.46242
0.00765516
-8.30709
0.0105941
-7.3872
0.0097423
-5.39058
-2.21244
-0.0756242
-10.682
-0.112861
-10.1386
-0.140124
-9.93975
-0.15216
-9.57654
-0.157765
-9.48063
-0.155868
-9.22786
-0.15186
-9.10509
-0.143891
-8.94633
-0.134385
-8.8655
-0.123041
-8.75824
-0.109773
-8.70953
-0.0937025
-8.63789
-0.0755848
-8.6054
-0.0585535
-8.57083
-0.038225
-8.52727
-0.0201556
-8.48049
-0.00445048
-8.3228
0.00423552
-7.39589
0.00808704
-5.39443
-2.20435
-0.136337
-10.6052
-0.176566
-10.0984
-0.202888
-9.91342
-0.215195
-9.56423
-0.219939
-9.47589
-0.215497
-9.2323
-0.207572
-9.11301
-0.19573
-8.95818
-0.182112
-8.87912
-0.167275
-8.77308
-0.150383
-8.72642
-0.13069
-8.65758
-0.108311
-8.62778
-0.0865158
-8.59263
-0.0610302
-8.55276
-0.0378659
-8.50365
-0.0165507
-8.34411
-0.00199231
-7.41045
0.00746198
-5.40389
-2.19689
-0.192616
-10.5245
-0.239445
-10.0515
-0.270623
-9.88225
-0.281798
-9.55306
-0.282966
-9.47472
-0.275068
-9.2402
-0.263772
-9.12431
-0.24821
-8.97374
-0.230368
-8.89696
-0.211436
-8.79201
-0.190478
-8.74738
-0.166613
-8.68144
-0.140113
-8.65428
-0.113977
-8.61876
-0.0838076
-8.58292
-0.0556775
-8.53179
-0.0285121
-8.37128
-0.00848949
-7.43047
0.00609895
-5.41848
-2.19079
-0.255063
-10.4332
-0.304888
-10.0017
-0.33446
-9.85267
-0.344157
-9.54336
-0.343633
-9.47524
-0.333407
-9.25043
-0.318381
-9.13933
-0.299287
-8.99283
-0.277666
-8.91858
-0.255191
-8.81449
-0.230461
-8.77211
-0.202973
-8.70893
-0.172395
-8.68485
-0.141692
-8.64947
-0.106611
-8.61801
-0.0733913
-8.565
-0.0403872
-8.40428
-0.0147252
-7.45613
0.00503359
-5.43823
-2.18576
-0.309088
-10.3371
-0.366271
-9.94453
-0.401701
-9.81724
-0.410296
-9.53477
-0.405957
-9.47958
-0.392562
-9.26382
-0.374042
-9.15785
-0.351108
-9.01577
-0.325188
-8.9445
-0.298357
-8.84132
-0.269562
-8.8009
-0.238023
-8.74047
-0.203582
-8.71929
-0.168919
-8.68413
-0.129524
-8.6574
-0.0912842
-8.60324
-0.0523418
-8.44322
-0.0211383
-7.48733
0.00358117
-5.46295
-2.18218
-0.370112
-10.2296
-0.431081
-9.88356
-0.464662
-9.78366
-0.471649
-9.52778
-0.465572
-9.48566
-0.449504
-9.27989
-0.427347
-9.18001
-0.401052
-9.04206
-0.371613
-8.97394
-0.341289
-8.87164
-0.308786
-8.8334
-0.273693
-8.77557
-0.235189
-8.7578
-0.196016
-8.7233
-0.15268
-8.70074
-0.109632
-8.64629
-0.0644526
-8.4884
-0.0276312
-7.52416
0.00208902
-5.49267
-2.18009
-0.423953
-10.1173
-0.490522
-9.81699
-0.529272
-9.74491
-0.534786
-9.52226
-0.525463
-9.49498
-0.506887
-9.29847
-0.481638
-9.20526
-0.451722
-9.07198
-0.418117
-9.00755
-0.383386
-8.90637
-0.346858
-8.86993
-0.308008
-8.81442
-0.266072
-8.79973
-0.222848
-8.76653
-0.175251
-8.74833
-0.128055
-8.69349
-0.0768888
-8.53957
-0.0343253
-7.56672
0.000335846
-5.52734
-2.17975
-0.482945
-9.99262
-0.552981
-9.74695
-0.590808
-9.70709
-0.59506
-9.51801
-0.583902
-9.50614
-0.562269
-9.3201
-0.533478
-9.23405
-0.500429
-9.10503
-0.463506
-9.04447
-0.425208
-8.94467
-0.384845
-8.9103
-0.342375
-8.85689
-0.297005
-8.8451
-0.249779
-8.81375
-0.197884
-8.80023
-0.14639
-8.74498
-0.0895695
-8.59639
-0.0409139
-7.61538
-0.00125301
-5.567
-2.18101
-0.536322
-9.86411
-0.610494
-9.67278
-0.652242
-9.66534
-0.655167
-9.51509
-0.640908
-9.5204
-0.617154
-9.34385
-0.58563
-9.26557
-0.549114
-9.14154
-0.508356
-9.08523
-0.465923
-8.9871
-0.421686
-8.95453
-0.375619
-8.90295
-0.327089
-8.89363
-0.276385
-8.86446
-0.220242
-8.85637
-0.164493
-8.80073
-0.102023
-8.65886
-0.0470653
-7.67033
-0.00277375
-5.61129
-2.18378
-0.592098
-9.7272
-0.667062
-9.59782
-0.70914
-9.62326
-0.713023
-9.51121
-0.69745
-9.53597
-0.670514
-9.37079
-0.635725
-9.30036
-0.596252
-9.18102
-0.552246
-9.12923
-0.506142
-9.03321
-0.458401
-9.00227
-0.408842
-8.95251
-0.356617
-8.94586
-0.302425
-8.91865
-0.242284
-8.91651
-0.182385
-8.86063
-0.114361
-8.72688
-0.053333
-7.73136
-0.00455634
-5.66006
-2.18834
-0.6468
-9.58335
-0.724502
-9.52011
-0.767523
-9.58024
-0.769972
-9.50876
-0.752139
-9.5538
-0.723279
-9.39965
-0.685534
-9.33811
-0.64267
-9.22388
-0.595262
-9.17664
-0.545285
-9.08318
-0.493791
-9.05377
-0.440753
-9.00555
-0.385292
-9.00132
-0.327952
-8.97599
-0.263981
-8.98049
-0.200144
-8.92447
-0.126922
-8.80011
-0.0599579
-7.79833
-0.0064272
-5.7136
-2.19476
-0.69902
-9.43489
-0.775947
-9.44319
-0.820074
-9.53611
-0.824836
-9.50399
-0.805767
-9.57287
-0.774067
-9.43135
-0.733438
-9.37873
-0.687689
-9.26963
-0.637367
-9.22696
-0.583798
-9.13675
-0.528755
-9.10881
-0.472251
-9.06205
-0.413163
-9.06041
-0.352796
-9.03636
-0.285487
-9.04779
-0.217672
-8.99228
-0.139845
-8.87793
-0.0671095
-7.87106
-0.00849097
-5.77221
-2.20325
-0.754164
-9.27856
-0.831965
-9.36539
-0.874345
-9.49373
-0.878577
-9.49976
-0.858473
-9.59298
-0.824555
-9.46527
-0.780866
-9.42242
-0.731734
-9.31876
-0.678205
-9.28049
-0.621129
-9.19383
-0.562552
-9.16739
-0.502642
-9.12196
-0.440335
-9.12271
-0.376806
-9.09989
-0.306668
-9.11793
-0.235224
-9.06373
-0.152344
-8.96081
-0.0739527
-7.94945
-0.0107471
-5.83542
-2.214
-0.805151
-9.11612
-0.881801
-9.28874
-0.923125
-9.45241
-0.928862
-9.49403
-0.90826
-9.61358
-0.871957
-9.50157
-0.826101
-9.46828
-0.77436
-9.3705
-0.717985
-9.33687
-0.657583
-9.25423
-0.59564
-9.22933
-0.532452
-9.18515
-0.466643
-9.18852
-0.39979
-9.16674
-0.327163
-9.19056
-0.252487
-9.1384
-0.164888
-9.04841
-0.0810792
-8.03326
-0.0132442
-5.90325
-2.22725
-0.861619
-8.94405
-0.937153
-9.2132
-0.973723
-9.41584
-0.979156
-9.48859
-0.958605
-9.63413
-0.919654
-9.54052
-0.870683
-9.51725
-0.815581
-9.4256
-0.756292
-9.39616
-0.692734
-9.31779
-0.627535
-9.29453
-0.561103
-9.25158
-0.492245
-9.25738
-0.422131
-9.23685
-0.347126
-9.26556
-0.269503
-9.21603
-0.177589
-9.14033
-0.0882259
-8.12262
-0.0159186
-5.97556
-2.24316
-0.905694
-8.77215
-0.988862
-9.13003
-1.02312
-9.38158
-1.02771
-9.484
-1.00654
-9.6553
-0.965547
-9.58152
-0.914112
-9.56869
-0.856304
-9.48341
-0.794198
-9.45827
-0.727429
-9.38456
-0.658845
-9.36311
-0.589169
-9.32126
-0.517135
-9.32942
-0.444056
-9.30993
-0.366718
-9.3429
-0.286134
-9.29661
-0.189785
-9.23667
-0.0951003
-8.21731
-0.0182422
-6.05242
-2.26141
-0.94619
-8.60139
-1.03145
-9.04477
-1.06293
-9.35011
-1.06872
-9.4782
-1.05002
-9.67401
-1.00771
-9.62383
-0.954432
-9.62196
-0.89364
-9.5442
-0.829552
-9.52235
-0.759958
-9.45415
-0.688544
-9.43453
-0.615705
-9.3941
-0.541028
-9.40409
-0.464576
-9.38638
-0.385618
-9.42186
-0.302185
-9.38004
-0.201997
-9.33686
-0.101003
-8.3183
-0.0206261
-6.1328
-2.28203
7.14726
-7.9146
-7.83405
6.2337
-8.13122
5.39854
-8.51494
4.62175
-8.70142
3.87681
-8.92907
3.23341
-8.98043
2.69948
-9.08802
2.25602
-9.10075
1.87431
-9.14064
1.56849
-9.14833
1.30895
-9.17499
1.09236
-9.1775
0.906385
-9.21812
0.742764
-9.22276
0.594789
-9.27389
0.479174
-9.26443
0.379744
-9.23743
0.282823
-8.22138
0.0972693
-5.94724
-2.18476
3.93234
-7.66187
-4.18506
3.65856
-7.85744
3.31441
-8.17079
2.96561
-8.35263
2.57956
-8.54301
2.23911
-8.63998
1.91896
-8.76787
1.6515
-8.83329
1.41077
-8.89991
1.21127
-8.94883
1.03925
-9.00298
0.899129
-9.03738
0.761414
-9.08041
0.648175
-9.10952
0.531342
-9.15705
0.442018
-9.1751
0.309265
-9.10468
0.192774
-8.10489
-0.076105
-5.67836
-2.26087
2.55655
-7.65947
-2.55895
2.54684
-7.84773
2.42693
-8.05088
2.28721
-8.21291
2.10454
-8.36035
1.91967
-8.45511
1.71535
-8.56355
1.5314
-8.64933
1.35367
-8.72218
1.19148
-8.78663
1.03329
-8.84478
0.894549
-8.89864
0.755714
-8.94157
0.639196
-8.99301
0.518382
-9.03624
0.413246
-9.06997
0.300276
-8.99171
0.1961
-8.00071
0.0469634
-5.52923
-2.2139
1.51404
-7.76247
-1.41104
1.55498
-7.88867
1.5137
-8.00959
1.45092
-8.15013
1.36912
-8.27855
1.2745
-8.36049
1.15647
-8.44552
1.04092
-8.53378
0.924058
-8.60532
0.818262
-8.68084
0.708641
-8.73516
0.611365
-8.80136
0.525289
-8.8555
0.447881
-8.9156
0.387465
-8.97582
0.328123
-9.01063
0.236979
-8.90056
0.179676
-7.94341
0.104461
-5.45401
-2.10944
0.832992
-7.85645
-0.739011
0.906209
-7.96189
0.957947
-8.06133
0.966285
-8.15847
0.930961
-8.24323
0.887368
-8.3169
0.825506
-8.38366
0.756409
-8.46469
0.683209
-8.53212
0.603204
-8.60083
0.528507
-8.66047
0.452316
-8.72517
0.372314
-8.77549
0.294619
-8.8379
0.212971
-8.89417
0.145042
-8.9427
0.0858968
-8.84142
0.0880629
-7.94558
0.0679296
-5.43388
-2.04151
0.454144
-7.95679
-0.353798
0.52311
-8.03085
0.55151
-8.08973
0.550045
-8.157
0.526257
-8.21944
0.496855
-8.28749
0.465398
-8.3522
0.420577
-8.41987
0.370688
-8.48223
0.312126
-8.54227
0.252013
-8.60035
0.186627
-8.65978
0.124686
-8.71355
0.062481
-8.7757
-0.00350388
-8.82819
-0.0634375
-8.88277
-0.0996037
-8.80525
-0.0368499
-8.00833
0.040844
-5.51157
-2.00067
0.14634
-8.02002
-0.0831112
0.187168
-8.07168
0.21216
-8.11472
0.230426
-8.17527
0.242164
-8.23118
0.242393
-8.28772
0.227589
-8.3374
0.199785
-8.39206
0.159761
-8.44221
0.115529
-8.49804
0.065666
-8.55049
0.0139965
-8.60811
-0.0377792
-8.66178
-0.099097
-8.71438
-0.160301
-8.76698
-0.229016
-8.81405
-0.27868
-8.75559
-0.195564
-8.09145
-0.00371861
-5.70342
-2.00439
-0.00758159
-8.07428
0.0618357
0.0310903
-8.11035
0.0600038
-8.14364
0.0660466
-8.18131
0.0590142
-8.22415
0.0421463
-8.27085
0.0234917
-8.31874
-0.00456077
-8.36401
-0.0357609
-8.41101
-0.0764531
-8.45735
-0.115239
-8.5117
-0.165064
-8.55829
-0.218944
-8.6079
-0.279271
-8.65405
-0.343283
-8.70297
-0.410027
-8.74731
-0.441935
-8.72368
-0.348109
-8.18527
-0.0693318
-5.9822
-2.07372
-0.143689
-8.1019
0.171317
-0.127868
-8.12617
-0.118682
-8.15282
-0.112294
-8.1877
-0.110986
-8.22546
-0.118522
-8.26332
-0.135798
-8.30147
-0.161226
-8.33858
-0.194525
-8.37771
-0.232216
-8.41966
-0.280544
-8.46338
-0.335428
-8.5034
-0.391182
-8.55214
-0.448099
-8.59714
-0.501479
-8.64959
-0.56291
-8.68587
-0.605192
-8.6814
-0.507407
-8.28306
-0.163442
-6.32616
-2.23716
-0.196391
-8.11937
0.213856
-0.184115
-8.13845
-0.174778
-8.16216
-0.173507
-8.18897
-0.181543
-8.21742
-0.200415
-8.24445
-0.2295
-8.27238
-0.265367
-8.30272
-0.303843
-8.33923
-0.347968
-8.37553
-0.400146
-8.4112
-0.452883
-8.45067
-0.513985
-8.49104
-0.57986
-8.53126
-0.64907
-8.58038
-0.710291
-8.62465
-0.754781
-8.63691
-0.675512
-8.36233
-0.299427
-6.70225
-2.53659
-0.217666
-8.12325
0.221547
-0.218495
-8.13762
-0.223955
-8.1567
-0.237396
-8.17553
-0.2578
-8.19702
-0.28404
-8.21821
-0.312644
-8.24378
-0.345541
-8.26982
-0.385659
-8.29911
-0.434219
-8.32697
-0.489866
-8.35555
-0.556109
-8.38442
-0.632181
-8.41497
-0.714003
-8.44944
-0.804394
-8.48999
-0.888482
-8.54056
-0.94794
-8.57745
-0.908597
-8.40167
-0.517738
-7.09311
-3.05433
-0.211454
-8.11658
0.204786
-0.220328
-8.12875
-0.233113
-8.14391
-0.251335
-8.15731
-0.27374
-8.17461
-0.300472
-8.19147
-0.33321
-8.21104
-0.371563
-8.23147
-0.418055
-8.25262
-0.472255
-8.27277
-0.534312
-8.29349
-0.604661
-8.31407
-0.683104
-8.33653
-0.77232
-8.36022
-0.88081
-8.3815
-1.01041
-8.41097
-1.14064
-8.44722
-1.16551
-8.37681
-0.834187
-7.42443
-3.88851
-0.174689
-8.10335
0.161453
-0.192032
-8.1114
-0.213262
-8.12269
-0.237007
-8.13356
-0.263645
-8.14797
-0.293865
-8.16125
-0.328161
-8.17674
-0.372219
-8.18741
-0.420478
-8.20436
-0.47563
-8.21762
-0.535406
-8.23372
-0.604911
-8.24457
-0.682459
-8.25898
-0.77436
-8.26832
-0.882497
-8.27337
-1.0164
-8.27707
-1.18316
-8.28046
-1.30145
-8.25852
-1.07443
-7.65145
-4.96294
-0.13662
-8.08969
0.122963
-0.153181
-8.09484
-0.172728
-8.10314
-0.196168
-8.11012
-0.223883
-8.12026
-0.258228
-8.12691
-0.29626
-8.13871
-0.339788
-8.14388
-0.387091
-8.15706
-0.441963
-8.16275
-0.4986
-8.17708
-0.565185
-8.17798
-0.634602
-8.18956
-0.715081
-8.18784
-0.800166
-8.18828
-0.906887
-8.17034
-1.03089
-8.15645
-1.18788
-8.10153
-1.02055
-7.81878
-5.98349
-0.0963041
-8.07144
0.0780546
-0.115898
-8.07525
-0.137385
-8.08165
-0.161628
-8.08588
-0.188828
-8.09306
-0.219683
-8.09605
-0.254302
-8.10409
-0.289578
-8.1086
-0.329093
-8.11755
-0.375838
-8.116
-0.42603
-8.12689
-0.48273
-8.12128
-0.54003
-8.13226
-0.611349
-8.11652
-0.670064
-8.12957
-0.750828
-8.08958
-0.816124
-8.09116
-0.907638
-8.01001
-0.80455
-7.92187
-6.78804
-0.0358761
-8.05407
0.0185071
-0.0546903
-8.05643
-0.0761945
-8.06015
-0.0987025
-8.06337
-0.123843
-8.06792
-0.148567
-8.07133
-0.176906
-8.07575
-0.20916
-8.07635
-0.246289
-8.08042
-0.28316
-8.07913
-0.326246
-8.0838
-0.369811
-8.07772
-0.418332
-8.08374
-0.467114
-8.06774
-0.515322
-8.08136
-0.558956
-8.04595
-0.595941
-8.05417
-0.620147
-7.98581
-0.572823
-7.96919
-7.36086
0.000532049
-8.04101
-0.0135912
-0.0138643
-8.04204
-0.0310914
-8.04292
-0.0506961
-8.04377
-0.0721182
-8.0465
-0.0959339
-8.04751
-0.121324
-8.05036
-0.146361