/*--------------------------------*- C++ -*----------------------------------*\
  =========                 |
  \\      /  F ield         | OpenFOAM: The Open Source CFD Toolbox
   \\    /   O peration     | Website:  https://openfoam.org
    \\  /    A nd           | Version:  9
     \\/     M anipulation  |
\*---------------------------------------------------------------------------*/
FoamFile
{
    format      ascii;
    class       volVectorField;
    location    "19";
    object      U;
}
// * * * * * * * * * * * * * * * * * * * * * * * * * * * * * * * * * * * * * //

dimensions      [0 1 -1 0 0 0 0];

internalField   nonuniform List<vector> 
46400
(
(9.27325 -8.89746 -3.72045e-19)
(17.9734 -17.4803 3.34114e-19)
(18.838 -19.0204 -5.63268e-20)
(18.0915 -19.2062 -6.42801e-21)
(17.5478 -19.2607 -4.36858e-20)
(16.8862 -19.3474 -2.75959e-19)
(16.2967 -19.3903 1.26266e-19)
(15.7336 -19.4436 -3.42158e-21)
(15.1714 -19.4843 -3.72936e-21)
(14.6726 -19.5372 1.00699e-20)
(14.1597 -19.5607 -1.57292e-20)
(13.6965 -19.5967 0)
(13.2877 -19.6767 1.02657e-19)
(12.8461 -19.6858 -1.25892e-19)
(12.4404 -19.7202 -2.29296e-19)
(12.0735 -19.7764 -6.92585e-20)
(11.6876 -19.8224 -3.2769e-20)
(11.3384 -19.7876 2.09642e-19)
(10.9651 -19.7783 3.34531e-19)
(10.5042 -20.0338 -3.04821e-19)
(9.49284 -8.38292 0)
(18.015 -16.2739 -3.23176e-20)
(18.8687 -17.7323 0)
(18.0636 -17.8426 -1.21482e-19)
(17.4059 -17.8786 7.74136e-20)
(16.7464 -17.9723 -2.06302e-20)
(16.1555 -18.0675 0)
(15.5923 -18.1699 3.4216e-21)
(15.0279 -18.2289 3.72947e-21)
(14.5455 -18.3376 -1.00704e-20)
(14.0803 -18.4514 2.64233e-19)
(13.6087 -18.4948 3.76077e-20)
(13.1843 -18.6038 -2.52385e-19)
(12.7952 -18.6774 0)
(12.3954 -18.7369 3.29382e-20)
(12.0238 -18.7829 3.62615e-20)
(11.6741 -18.8591 0)
(11.3732 -18.8841 -4.37674e-19)
(11.0826 -18.9158 -1.18199e-19)
(10.6654 -19.1302 4.4013e-19)
(9.69078 -7.83355 -7.28094e-20)
(17.9337 -15.0573 -7.69951e-21)
(18.4466 -16.1518 -2.84318e-20)
(17.6304 -16.3834 5.99614e-20)
(17.0864 -16.536 -5.88715e-20)
(16.4558 -16.6947 0)
(15.8481 -16.7953 -3.52298e-19)
(15.3233 -16.9482 2.97621e-19)
(14.7779 -17.0852 -4.46449e-19)
(14.2692 -17.1672 4.4384e-19)
(13.8005 -17.3231 4.5009e-19)
(13.333 -17.3927 -3.68184e-20)
(12.9343 -17.5541 -3.96114e-19)
(12.5319 -17.6593 0)
(12.1356 -17.7561 5.31578e-19)
(11.7867 -17.8585 -5.23523e-19)
(11.4313 -17.9672 0)
(11.1276 -18.0214 -1.82992e-20)
(10.8078 -18.1234 6.05722e-20)
(10.4188 -18.3992 -5.96723e-19)
(9.94096 -7.29182 -6.83763e-20)
(17.6847 -13.6609 5.03725e-21)
(18.1867 -14.7602 1.60625e-19)
(17.4374 -14.9818 -1.58689e-19)
(16.7927 -15.1588 -1.56059e-19)
(16.1837 -15.3609 2.20659e-19)
(15.5822 -15.5365 3.18767e-19)
(15.0229 -15.6757 -8.37563e-19)
(14.4886 -15.8581 7.08761e-19)
(14.0174 -16.0268 -6.31759e-20)
(13.5703 -16.2137 0)
(13.1244 -16.3388 6.92473e-20)
(12.6925 -16.4659 -7.1597e-20)
(12.3474 -16.6458 0)
(11.9809 -16.7804 6.92398e-19)
(11.6158 -16.8885 -5.85825e-19)
(11.2878 -17.0304 0)
(10.9892 -17.1246 7.87187e-20)
(10.7007 -17.2381 9.48468e-20)
(10.2876 -17.5282 7.40045e-19)
(10.2539 -6.86026 0)
(17.3282 -12.3202 0)
(17.6447 -13.3214 -3.02175e-19)
(16.7953 -13.5828 2.02485e-19)
(16.2071 -13.838 -4.21326e-19)
(15.6379 -14.1019 3.46435e-19)
(15.0593 -14.3251 0)
(14.5515 -14.5367 3.96498e-19)
(14.0217 -14.7237 -4.76021e-19)
(13.5288 -14.8855 -1.13881e-19)
(13.1099 -15.1372 -1.14854e-19)
(12.6836 -15.3062 0)
(12.2804 -15.5032 8.48959e-19)
(11.8988 -15.6644 -8.35688e-19)
(11.5406 -15.8549 0)
(11.2097 -15.9977 -9.47985e-19)
(10.8729 -16.1691 8.39225e-19)
(10.587 -16.2832 8.4732e-19)
(10.3039 -16.4419 -9.19023e-19)
(9.93348 -16.748 0)
(10.5609 -6.42319 0)
(16.7885 -11.0109 0)
(16.9313 -11.835 0)
(16.2918 -12.203 -3.30514e-20)
(15.7006 -12.5314 0)
(15.1463 -12.8499 0)
(14.5945 -13.14 0)
(14.0768 -13.3817 -1.37237e-19)
(13.5917 -13.6531 0)
(13.0995 -13.8133 1.13886e-19)
(12.6745 -14.0692 -2.29901e-20)
(12.2798 -14.2754 -1.15828e-18)
(11.8695 -14.476 8.6789e-19)
(11.5378 -14.6922 -1.14994e-18)
(11.2193 -14.9308 8.6356e-19)
(10.8778 -15.0985 0)
(10.5646 -15.2898 -9.94069e-19)
(10.2783 -15.4437 8.48168e-19)
(10.0049 -15.6093 0)
(9.63938 -15.9458 -1.34842e-19)
(10.8564 -5.94356 4.97976e-19)
(16.232 -9.86088 1.53873e-19)
(16.2838 -10.6162 5.77921e-19)
(15.5013 -10.9087 -6.00567e-19)
(14.8731 -11.2528 -5.98136e-19)
(14.3928 -11.6161 1.19044e-18)
(13.8768 -11.9836 -1.36083e-18)
(13.4027 -12.267 1.26245e-19)
(12.9638 -12.6099 4.33688e-19)
(12.5045 -12.8338 0)
(12.0845 -13.0876 -2.20916e-20)
(11.7205 -13.3505 -2.11148e-20)
(11.3362 -13.5682 1.36756e-19)
(10.9579 -13.7668 1.14948e-18)
(10.6354 -13.9948 -1.01596e-18)
(10.3655 -14.2518 -1.2949e-18)
(10.0474 -14.4437 1.12633e-18)
(9.77324 -14.625 -1.64576e-20)
(9.51614 -14.8026 -1.4432e-19)
(9.18548 -15.1585 -1.01974e-18)
(11.0481 -5.5649 -1.66633e-19)
(15.3883 -8.6253 3.2814e-20)
(15.1886 -9.33615 -1.89785e-19)
(14.7081 -9.78445 -7.4157e-19)
(14.1533 -10.1624 5.09009e-19)
(13.6318 -10.5092 0)
(13.1828 -10.8976 1.05985e-18)
(12.7054 -11.2085 -5.09704e-19)
(12.3003 -11.5698 3.47073e-19)
(11.8955 -11.8814 1.83001e-19)
(11.4769 -12.145 -3.44164e-19)
(11.1225 -12.4338 8.32424e-19)
(10.7807 -12.7066 1.76101e-19)
(10.4486 -12.9495 -9.91042e-19)
(10.1231 -13.1826 2.77243e-18)
(9.81819 -13.4138 -1.13054e-18)
(9.5675 -13.6846 1.43065e-18)
(9.29554 -13.8883 -9.35211e-19)
(9.03276 -14.0631 3.05256e-19)
(8.70067 -14.4272 1.46441e-18)
(10.9943 -5.12188 8.71371e-19)
(14.5723 -7.56041 -1.87573e-19)
(14.3626 -8.25924 -2.89022e-20)
(13.828 -8.67073 4.07949e-19)
(13.2698 -9.1071 1.9007e-19)
(12.8153 -9.46694 2.14105e-19)
(12.3698 -9.89509 -9.92472e-19)
(11.9312 -10.2136 6.03629e-19)
(11.5263 -10.5818 -1.84997e-19)
(11.166 -10.935 -1.83006e-19)
(10.7899 -11.2498 -1.80841e-19)
(10.4471 -11.5517 -1.97324e-19)
(10.1258 -11.8507 -3.70225e-19)
(9.80018 -12.1156 1.28512e-18)
(9.49565 -12.367 -1.79493e-18)
(9.22127 -12.6237 -1.84368e-19)
(8.93519 -12.8605 1.52793e-20)
(8.72189 -13.1245 -1.35052e-18)
(8.49912 -13.3387 1.00934e-18)
(8.18684 -13.6848 -1.59278e-18)
(10.7882 -4.59434 8.31025e-19)
(13.5327 -6.49865 -2.10265e-18)
(13.1765 -7.20043 1.38843e-18)
(12.7848 -7.71817 -2.17688e-19)
(12.3482 -8.21884 -2.40349e-19)
(11.8628 -8.60352 9.29905e-19)
(11.4793 -9.03919 -1.12475e-18)
(11.0789 -9.42011 0)
(10.6716 -9.74777 8.68209e-19)
(10.3332 -10.1265 -8.53695e-19)
(9.99308 -10.459 -6.21196e-19)
(9.66529 -10.8024 8.08862e-19)
(9.37986 -11.1261 1.94109e-19)
(9.10187 -11.4613 -7.96312e-19)
(8.81137 -11.7266 1.89879e-19)
(8.53094 -12.0045 9.54299e-19)
(8.28393 -12.2616 -1.68746e-18)
(8.02626 -12.5034 1.11437e-18)
(7.83551 -12.7455 -1.31654e-20)
(7.59179 -13.138 -1.54068e-18)
(10.3983 -4.041 1.17987e-18)
(12.4746 -5.54424 -7.83117e-19)
(12.0867 -6.1846 5.21002e-19)
(11.7613 -6.76305 6.22623e-21)
(11.3339 -7.2854 -1.02721e-18)
(10.9522 -7.73736 -9.72486e-19)
(10.5701 -8.18246 1.21012e-18)
(10.2363 -8.61469 -7.11078e-19)
(9.87532 -8.98065 9.44412e-19)
(9.52395 -9.33187 0)
(9.20482 -9.66292 1.69021e-20)
(8.88858 -9.9857 2.1487e-19)
(8.60523 -10.2915 2.26418e-19)
(8.34921 -10.626 -2.21842e-19)
(8.12542 -10.9417 0)
(7.88045 -11.244 2.12916e-19)
(7.64614 -11.5151 0)
(7.43042 -11.7898 3.96049e-19)
(7.20242 -11.9996 1.9356e-18)
(6.96204 -12.3634 -1.1008e-20)
(9.82709 -3.48516 6.54989e-19)
(11.3722 -4.67126 -1.37068e-19)
(10.8676 -5.24833 -1.9808e-18)
(10.5633 -5.79926 1.10759e-18)
(10.2857 -6.46792 2.62587e-19)
(9.88935 -6.9195 -2.58399e-19)
(9.54105 -7.43375 -1.05475e-18)
(9.24121 -7.89485 7.87012e-19)
(8.92579 -8.35222 0)
(8.64479 -8.75856 0)
(8.35874 -9.14707 -1.20903e-18)
(8.07957 -9.49783 9.57672e-19)
(7.79934 -9.81846 -2.26431e-19)
(7.52951 -10.1198 -6.91816e-19)
(7.28924 -10.4185 5.15542e-21)
(7.07734 -10.7262 1.5434e-18)
(6.87248 -11.0116 -8.62419e-19)
(6.68254 -11.294 6.34935e-19)
(6.52403 -11.5551 -1.02721e-18)
(6.30805 -11.8908 0)
(9.07706 -2.91817 -5.72903e-19)
(10.328 -3.93449 9.11973e-19)
(9.79514 -4.53837 1.5603e-19)
(9.38365 -4.94984 1.53265e-19)
(9.08158 -5.58825 0)
(8.82645 -6.13094 1.14628e-18)
(8.49173 -6.61135 -1.12622e-18)
(8.20635 -7.07785 1.41625e-19)
(7.94654 -7.51738 0)
(7.68042 -7.95242 1.05466e-18)
(7.44421 -8.35976 -9.04696e-19)
(7.21661 -8.76345 1.0093e-18)
(7.01217 -9.14469 -9.93273e-19)
(6.79752 -9.50456 9.65298e-19)
(6.58129 -9.82735 -8.29211e-19)
(6.37297 -10.1437 -9.23008e-19)
(6.17381 -10.4411 1.8119e-18)
(5.98461 -10.7233 -7.76061e-19)
(5.81351 -10.9894 1.10783e-19)
(5.64647 -11.3413 9.18304e-19)
(8.14021 -2.35225 -4.61076e-19)
(9.02833 -3.26812 4.91676e-19)
(8.57656 -3.94039 -1.56035e-19)
(8.27675 -4.39365 -1.53298e-19)
(7.86795 -4.91792 0)
(7.68738 -5.47169 0)
(7.44119 -6.03101 0)
(7.22819 -6.5333 -2.90329e-19)
(6.96234 -7.00306 -1.13474e-18)
(6.72449 -7.43326 2.22516e-18)
(6.50257 -7.84485 -1.22379e-18)
(6.25943 -8.22407 -1.35749e-19)
(6.05119 -8.58795 0)
(5.8581 -8.95064 0)
(5.6905 -9.29539 -2.47815e-19)
(5.51913 -9.62776 0)
(5.36984 -9.94752 9.44104e-19)
(5.21038 -10.2477 -1.16153e-18)
(5.06766 -10.5245 -1.01186e-18)
(4.89727 -10.8584 9.6821e-19)
(7.06011 -1.79608 4.82383e-19)
(7.78285 -2.67043 8.62959e-19)
(7.42724 -3.44973 -3.83222e-22)
(7.16705 -4.03881 -1.43592e-21)
(6.77848 -4.53687 1.63967e-19)
(6.45871 -5.00527 -4.74555e-19)
(6.19143 -5.50573 0)
(6.01274 -6.003 -4.57685e-19)
(5.849 -6.5104 1.54929e-19)
(5.69034 -6.96249 5.82715e-19)
(5.52049 -7.42353 5.65506e-19)
(5.37902 -7.82933 -4.20639e-19)
(5.20844 -8.23585 1.07871e-18)
(5.03905 -8.58223 -9.27329e-19)
(4.87346 -8.9472 1.15528e-18)
(4.71686 -9.26495 -2.14593e-18)
(4.56383 -9.59833 9.89563e-19)
(4.42933 -9.89565 1.18066e-19)
(4.29953 -10.1916 9.35551e-19)
(4.16715 -10.5198 -1.00631e-18)
(5.88212 -1.3471 1.69786e-19)
(6.03692 -2.10609 -1.76231e-19)
(5.73546 -2.81005 7.06811e-19)
(5.76973 -3.60136 -6.93743e-19)
(5.59895 -4.24586 -3.37846e-19)
(5.39631 -4.80141 -8.22541e-19)
(5.16731 -5.28562 3.80879e-21)
(4.94986 -5.74222 6.33834e-19)
(4.77311 -6.21299 -1.51448e-19)
(4.59676 -6.63404 0)
(4.45413 -7.09221 0)
(4.29919 -7.47298 0)
(4.17671 -7.90821 0)
(4.05371 -8.25615 4.33411e-21)
(3.92888 -8.64596 0)
(3.81767 -8.96193 1.28271e-19)
(3.69486 -9.31236 5.07248e-19)
(3.58804 -9.59902 -1.49069e-18)
(3.47476 -9.90471 1.09968e-18)
(3.35931 -10.2244 -1.02971e-18)
(4.67075 -1.01384 0)
(5.021 -1.82522 -9.42374e-20)
(4.55106 -2.35084 0)
(4.36616 -2.91388 2.65896e-19)
(4.27648 -3.59971 -1.77914e-19)
(4.20712 -4.14603 -6.80963e-19)
(4.06853 -4.7626 3.9244e-21)
(3.90666 -5.20635 6.53658e-19)
(3.78495 -5.76647 -6.33918e-19)
(3.63536 -6.16404 1.24201e-18)
(3.52909 -6.68079 -4.76594e-21)
(3.41059 -7.05775 -5.93991e-19)
(3.30375 -7.52002 5.74886e-19)
(3.20026 -7.87857 -7.04727e-19)
(3.09448 -8.29488 0)
(3.00481 -8.62757 -5.34345e-19)
(2.90145 -9.00677 5.26364e-19)
(2.81654 -9.30796 0)
(2.72089 -9.63737 -1.23235e-19)
(2.62682 -9.9625 0)
(2.88169 -0.614014 9.78215e-20)
(3.26872 -1.75559 9.44157e-20)
(3.29451 -2.3736 0)
(3.09153 -2.94406 3.64287e-19)
(2.9973 -3.52496 -4.50323e-19)
(2.88361 -4.0674 2.6089e-19)
(2.81414 -4.65406 -7.70593e-19)
(2.68638 -5.14194 3.35098e-19)
(2.57943 -5.65449 -8.22802e-20)
(2.47513 -6.09461 0)
(2.34941 -6.54484 -7.83206e-20)
(2.29612 -6.94774 -7.64091e-20)
(2.18042 -7.35855 -7.45483e-20)
(2.14486 -7.7203 0)
(2.04531 -8.10588 -5.6008e-19)
(2.00858 -8.42752 1.16751e-18)
(1.9249 -8.79623 -1.00458e-18)
(1.87517 -9.08317 5.2583e-19)
(1.80794 -9.40907 6.44945e-20)
(1.7439 -9.71946 5.40983e-19)
(1.32091 -0.350981 -1.48229e-19)
(1.72175 -0.978924 -1.95137e-19)
(2.15126 -1.67111 5.20698e-22)
(1.98518 -2.34549 5.13816e-19)
(1.88011 -3.00012 -1.38731e-19)
(1.7721 -3.58878 -8.96453e-20)
(1.67494 -4.2168 8.7496e-20)
(1.62331 -4.7644 1.70861e-19)
(1.56764 -5.31199 8.22644e-20)
(1.51267 -5.80644 -3.22903e-19)
(1.47498 -6.28474 3.5615e-19)
(1.4141 -6.71408 7.64005e-20)
(1.38934 -7.15052 3.74218e-19)
(1.31851 -7.53228 -2.64186e-21)
(1.29279 -7.93662 3.34272e-20)
(1.22797 -8.28151 -6.28484e-19)
(1.19119 -8.65612 1.72225e-19)
(1.14436 -8.9713 0)
(1.1014 -9.29623 -3.17676e-20)
(1.06902 -9.62293 -2.75458e-19)
(0.600994 -0.239714 5.01313e-20)
(0.742938 -0.83541 -9.88723e-20)
(0.539795 -1.58492 1.93686e-19)
(0.314534 -2.33779 -4.7452e-20)
(0.346003 -2.93045 -4.68349e-20)
(0.261592 -3.59173 0)
(0.23486 -4.11584 -8.80224e-20)
(0.260229 -4.67947 1.72382e-19)
(0.22231 -5.1823 -8.44223e-20)
(0.244163 -5.68332 8.17146e-20)
(0.228456 -6.14765 -4.05947e-20)
(0.237568 -6.59923 -7.77453e-20)
(0.202914 -7.02291 1.52348e-19)
(0.20459 -7.43956 -1.4864e-19)
(0.169295 -7.82189 3.68104e-20)
(0.170665 -8.20118 2.52592e-34)
(0.141862 -8.55054 -3.44307e-20)
(0.139916 -8.89292 2.01998e-19)
(0.119823 -9.2006 -9.95039e-20)
(0.111195 -9.53887 -7.04931e-20)
(-0.0279518 -5.73401 3.76641e-20)
(1.54679 -18.9663 4.43131e-20)
(2.52632 -31.3991 0)
(3.05753 -36.4868 6.86765e-20)
(3.12216 -37.0595 6.37383e-20)
(3.08208 -36.8042 6.01968e-20)
(3.01141 -36.2878 0)
(2.96102 -35.855 5.51673e-20)
(2.90236 -35.4545 0)
(2.8531 -35.103 0)
(2.78142 -34.7706 -4.6541e-20)
(2.73985 -34.4581 3.06573e-21)
(2.66893 -34.1255 8.76653e-20)
(2.61318 -33.7831 0)
(2.52488 -33.4545 3.85929e-20)
(2.48265 -33.0971 3.67617e-20)
(2.37032 -32.7141 3.50617e-20)
(2.34631 -32.242 0)
(2.19725 -31.826 -6.38975e-20)
(2.18936 -31.3856 6.23035e-20)
(0.246827 -6.88469 2.21333e-19)
(2.22276 -20.7473 -2.38372e-19)
(3.7198 -32.7574 0)
(4.12692 -36.8136 -3.37092e-19)
(4.1499 -37.0196 3.18785e-19)
(4.07584 -36.6306 -5.4103e-19)
(3.97595 -36.1324 2.35646e-19)
(3.90298 -35.6908 1.59662e-19)
(3.8187 -35.3165 -7.20924e-19)
(3.73075 -34.9358 4.00404e-19)
(3.65872 -34.6184 -4.71321e-20)
(3.56239 -34.2772 3.48249e-19)
(3.46915 -33.9293 -1.16461e-20)
(3.39405 -33.6261 -3.25846e-19)
(3.30002 -33.2992 -3.85921e-20)
(3.23763 -32.9401 -3.67593e-20)
(3.10019 -32.517 -3.50589e-20)
(3.04753 -32.0198 0)
(2.87115 -31.606 -2.48288e-19)
(2.85637 -31.1697 7.32619e-21)
(0.704845 -7.6431 -1.45676e-19)
(2.87778 -22.1201 0)
(4.92701 -33.6116 0)
(5.26407 -36.8491 -1.33886e-19)
(5.26359 -36.8629 1.2659e-19)
(5.15184 -36.4222 0)
(5.02683 -35.924 -1.12131e-19)
(4.91068 -35.4859 3.14844e-19)
(4.7959 -35.0478 -3.11094e-19)
(4.69532 -34.7219 3.7725e-19)
(4.58032 -34.353 -4.60807e-19)
(4.48131 -34.0074 0)
(4.37894 -33.6959 -3.22218e-19)
(4.27769 -33.3759 -2.95223e-19)
(4.15165 -33.0385 5.29968e-19)
(4.05103 -32.6478 -5.54091e-19)
(3.88952 -32.2221 4.79771e-19)
(3.81663 -31.7382 0)
(3.6141 -31.328 -5.404e-19)
(3.59533 -30.9105 9.29877e-19)
(1.07636 -8.46767 7.22963e-19)
(3.97708 -23.3307 0)
(6.16213 -34.3333 2.76938e-19)
(6.43974 -36.8639 3.86386e-19)
(6.34913 -36.6641 -7.46596e-19)
(6.17274 -36.0995 2.31514e-19)
(6.01158 -35.6122 1.12125e-19)
(5.86834 -35.1599 1.13294e-18)
(5.72355 -34.8069 -1.58257e-18)
(5.58144 -34.4054 -1.5524e-19)
(5.44736 -34.0962 8.11641e-19)
(5.31405 -33.7794 1.64897e-19)
(5.1646 -33.4098 -7.8098e-19)
(5.03601 -33.0722 7.63098e-19)
(4.89772 -32.7291 2.13534e-19)
(4.78275 -32.3628 -1.33615e-19)
(4.61189 -31.9463 1.93037e-19)
(4.50908 -31.451 0)
(4.28629 -31.0491 -5.54167e-20)
(4.26105 -30.6494 0)
(1.52115 -9.15571 0)
(5.03345 -24.2311 1.1196e-18)
(7.38127 -34.5771 -1.39643e-18)
(7.59394 -36.5071 1.268e-18)
(7.45094 -36.2213 -9.83195e-19)
(7.25976 -35.731 -2.32233e-19)
(7.06766 -35.2571 0)
(6.88567 -34.8179 5.9082e-19)
(6.70413 -34.3712 -7.83606e-19)
(6.53764 -34.0479 8.94934e-19)
(6.37536 -33.6781 -6.99132e-19)
(6.20601 -33.3166 -1.64892e-19)
(6.05509 -33.0085 7.58993e-19)
(5.90759 -32.7234 -1.3129e-18)
(5.74334 -32.3973 8.28889e-19)
(5.58866 -32.0089 -2.71998e-19)
(5.38022 -31.5646 -6.16633e-19)
(5.25087 -31.0738 1.41453e-18)
(4.99942 -30.6907 -8.03358e-19)
(4.97559 -30.2964 -9.56139e-19)
(1.98031 -9.76207 1.10899e-18)
(6.14751 -24.951 1.09219e-18)
(8.63666 -34.6649 -1.09257e-18)
(8.80209 -36.2092 -2.46894e-19)
(8.57285 -35.8169 2.38774e-19)
(8.32157 -35.2658 8.69507e-19)
(8.0668 -34.7685 -8.54247e-19)
(7.84448 -34.3288 0)
(7.63226 -33.9792 7.25756e-19)
(7.43016 -33.5985 -7.13652e-19)
(7.23148 -33.2893 -6.46849e-19)
(7.05578 -32.9937 6.36348e-19)
(6.85715 -32.638 0)
(6.67025 -32.2924 0)
(6.48169 -31.9543 1.17428e-18)
(6.30493 -31.585 -1.15142e-18)
(6.09735 -31.1833 -9.36415e-19)
(5.94408 -30.7103 9.22578e-19)
(5.68165 -30.3338 -8.48161e-19)
(5.6608 -29.9666 1.04874e-18)
(2.50788 -10.2776 -8.07415e-19)
(7.28831 -25.5145 2.9269e-19)
(9.86134 -34.5553 4.64441e-20)
(9.90549 -35.5907 1.2461e-18)
(9.62453 -35.1588 0)
(9.3552 -34.6853 0)
(9.07553 -34.2339 1.57352e-18)
(8.82315 -33.8005 -6.69594e-20)
(8.57421 -33.3951 -1.45438e-18)
(8.33665 -33.0698 1.31216e-18)
(8.11784 -32.7238 -1.29057e-18)
(7.88596 -32.3845 0)
(7.67146 -32.075 1.10419e-18)
(7.47888 -31.8108 -1.08685e-18)
(7.27338 -31.5056 0)
(7.07305 -31.154 0)
(6.82793 -30.7335 0)
(6.63966 -30.2628 0)
(6.35499 -29.9132 0)
(6.31651 -29.541 -1.00925e-19)
(3.02634 -10.6557 7.70157e-19)
(8.41694 -25.7671 -1.31718e-18)
(11.0191 -34.135 0)
(11.0572 -35.0042 0)
(10.6983 -34.5565 1.92231e-18)
(10.3818 -34.0549 1.21266e-19)
(10.0411 -33.584 -1.76279e-18)
(9.73835 -33.1782 0)
(9.45751 -32.8154 1.64989e-19)
(9.19373 -32.4821 -1.55074e-19)
(8.93699 -32.1845 0)
(8.70411 -31.9049 1.37424e-19)
(8.46237 -31.5891 -1.17614e-18)
(8.22267 -31.276 2.14111e-18)
(7.98766 -30.9661 -3.8493e-20)
(7.75369 -30.6137 -9.20561e-19)
(7.50707 -30.2372 -1.03376e-19)
(7.30088 -29.7996 9.7919e-20)
(7.0009 -29.4531 0)
(6.96237 -29.0958 8.92331e-20)
(3.59225 -10.9793 4.96793e-19)
(9.56522 -25.9672 4.29694e-19)
(12.1955 -33.6996 -1.49548e-18)
(12.0953 -34.182 4.36284e-19)
(11.6823 -33.7214 1.92182e-19)
(11.3385 -33.2815 1.70369e-18)
(10.9743 -32.8573 -2.38255e-18)
(10.6443 -32.445 1.73412e-18)
(10.3364 -32.1109 -1.42008e-18)
(10.0319 -31.7902 1.68111e-18)
(9.75291 -31.4827 2.74215e-19)
(9.47561 -31.1959 1.16441e-18)
(9.19625 -30.8949 -6.55093e-19)
(8.95365 -30.6444 -1.27912e-18)
(8.70574 -30.3802 1.12943e-18)
(8.46297 -30.0831 0)
(8.18991 -29.7193 2.95845e-19)
(7.94521 -29.2855 8.41198e-20)
(7.62921 -28.962 -1.72607e-19)
(7.57464 -28.6113 7.62493e-20)
(4.15264 -11.1815 -9.37679e-19)
(10.647 -25.8663 9.70962e-19)
(13.2185 -32.9144 -2.56784e-20)
(13.1276 -33.3417 -8.48392e-19)
(12.6579 -32.9185 -7.89183e-19)
(12.2736 -32.4847 -3.79406e-19)
(11.8581 -32.0666 -2.20901e-20)
(11.4782 -31.7049 -3.31872e-19)
(11.1265 -31.3399 0)
(10.8017 -31.0723 -2.91883e-19)
(10.4904 -30.8004 -2.74219e-19)
(10.1978 -30.5407 -1.82799e-20)
(9.91427 -30.2739 8.98936e-19)
(9.63484 -30.0113 -4.61698e-19)
(9.36017 -29.7424 -1.02944e-18)
(9.08186 -29.4355 8.0129e-19)
(8.79898 -29.1079 5.32866e-19)
(8.5384 -28.7214 -8.96683e-19)
(8.20429 -28.4074 1.72287e-19)
(8.13307 -28.0536 1.0858e-18)
(4.72498 -11.3226 -2.24483e-18)
(11.7253 -25.6964 2.28095e-18)
(14.2801 -32.2032 -2.51861e-18)
(14.0596 -32.3443 2.0531e-18)
(13.537 -31.9244 1.82473e-18)
(13.1158 -31.528 -1.41622e-18)
(12.6817 -31.1488 -1.89281e-18)
(12.2738 -30.7846 6.12659e-20)
(11.9135 -30.5168 1.14917e-18)
(11.5484 -30.2157 -7.72006e-19)
(11.2129 -29.9646 1.96501e-18)
(10.9005 -29.7517 -1.18275e-18)
(10.5664 -29.485 -2.25106e-19)
(10.271 -29.2593 5.82052e-19)
(9.9854 -29.0471 -1.52844e-18)
(9.70341 -28.8011 7.35475e-19)
(9.40788 -28.5045 0)
(9.1125 -28.1217 -1.25345e-18)
(8.7628 -27.823 1.23143e-18)
(8.68865 -27.4921 -1.0038e-18)
(5.29021 -11.3722 4.23271e-19)
(12.7136 -25.3196 4.6816e-19)
(15.1362 -31.143 2.05246e-18)
(14.9298 -31.3 1.79658e-18)
(14.3618 -30.9424 -1.08531e-18)
(13.9117 -30.596 1.54599e-18)
(13.438 -30.2449 -9.10373e-19)
(12.987 -29.9302 1.07527e-18)
(12.5731 -29.6006 -2.06016e-18)
(12.1943 -29.3954 7.35289e-19)
(11.8312 -29.1505 0)
(11.4855 -28.9274 0)
(11.1588 -28.7153 0)
(10.846 -28.5107 -1.4407e-18)
(10.5365 -28.3051 1.41839e-18)
(10.2265 -28.0691 0)
(9.91673 -27.8114 0)
(9.60882 -27.4855 -1.35378e-19)
(9.24542 -27.1971 0)
(9.1418 -26.8535 -1.15889e-18)
(5.83639 -11.3477 -7.98211e-19)
(13.6608 -24.8158 -1.98311e-18)
(16.0433 -30.1675 -1.42608e-18)
(15.7418 -30.1385 -2.7252e-19)
(15.126 -29.7962 1.89412e-18)
(14.6199 -29.4634 -3.73432e-19)
(14.1323 -29.1509 -6.24063e-20)
(13.6518 -28.8628 -1.27059e-18)
(13.2356 -28.6441 0)
(12.8164 -28.3928 -6.40582e-19)
(12.4299 -28.212 1.02239e-18)
(12.0867 -28.0666 0)
(11.7111 -27.8553 1.37409e-18)
(11.3663 -27.6628 -1.35259e-18)
(11.0455 -27.5075 1.2026e-18)
(10.7265 -27.3207 -2.17612e-18)
(10.4102 -27.1095 1.10965e-18)
(10.0708 -26.8095 1.3538e-19)
(9.68802 -26.5367 -1.10452e-19)
(9.58029 -26.2129 8.96704e-19)
(6.36571 -11.2699 -1.04106e-18)
(14.5491 -24.2336 6.3157e-20)
(16.7062 -28.9752 8.59355e-20)
(16.372 -28.9542 2.47622e-18)
(15.7461 -28.6667 2.27121e-19)
(15.2252 -28.4189 -1.33203e-18)
(14.7121 -28.1414 -9.42129e-19)
(14.2013 -27.8785 2.91455e-19)
(13.7399 -27.6243 1.05206e-18)
(13.3143 -27.4668 -1.135e-18)
(12.9007 -27.2626 5.46918e-19)
(12.5139 -27.1092 -1.44962e-18)
(12.1467 -26.9568 1.13079e-18)
(11.7989 -26.808 -1.12236e-18)
(11.46 -26.6677 9.81094e-19)
(11.1246 -26.5037 8.4153e-19)
(10.7961 -26.3229 -9.61628e-19)
(10.4555 -26.0817 7.53673e-19)
(10.0717 -25.839 -7.2531e-19)
(9.94063 -25.5147 -8.53843e-19)
(6.85016 -11.0984 -1.28142e-18)
(15.3369 -23.4323 -2.39515e-19)
(17.3855 -27.6959 1.24268e-18)
(17.0246 -27.6448 -1.06848e-18)
(16.3748 -27.3973 1.04907e-18)
(15.7869 -27.152 2.47595e-19)
(15.2597 -26.928 0)
(14.7226 -26.7307 -1.82562e-19)
(14.2464 -26.5441 5.08817e-19)
(13.7864 -26.3705 -1.81047e-18)
(13.3511 -26.2441 1.27753e-18)
(12.9753 -26.1534 2.85665e-19)
(12.574 -26.0243 1.43536e-19)
(12.1888 -25.8779 0)
(11.8373 -25.7878 2.10916e-20)
(11.4915 -25.6663 8.18234e-19)
(11.1608 -25.5507 -4.6126e-20)
(10.7961 -25.3515 1.40086e-19)
(10.3907 -25.1167 -6.91092e-19)
(10.2453 -24.8012 1.5784e-19)
(7.32927 -10.9281 1.13878e-18)
(16.1044 -22.6489 -1.91519e-18)
(17.9323 -26.4601 1.09586e-18)
(17.4143 -26.3511 9.32336e-19)
(16.7773 -26.1388 -6.49088e-20)
(16.1809 -25.9915 -6.50094e-19)
(15.6391 -25.7931 1.68649e-19)
(15.0821 -25.6057 1.82563e-19)
(14.5886 -25.454 0)
(14.1209 -25.3296 0)
(13.6649 -25.1871 -1.00214e-18)
(13.2489 -25.1126 1.66817e-18)
(12.8465 -25.0252 -9.04968e-19)
(12.4633 -24.93 0)
(12.0959 -24.8545 2.18287e-20)
(11.7354 -24.7573 -7.29064e-19)
(11.3891 -24.6584 7.12768e-19)
(11.0348 -24.539 -8.12699e-20)
(10.6452 -24.3677 -5.58809e-19)
(10.4848 -24.0577 3.86777e-19)
(7.78296 -10.5782 -9.93757e-19)
(16.6461 -21.6888 1.18268e-18)
(18.3248 -24.9517 0)
(17.8379 -24.9472 0)
(17.2051 -24.7955 1.69697e-19)
(16.5654 -24.6568 -8.35649e-19)
(16.0098 -24.5296 1.88446e-20)
(15.4395 -24.4178 5.79083e-19)
(14.909 -24.276 -9.68448e-19)
(14.4284 -24.2056 1.83035e-18)
(13.942 -24.0975 -8.63663e-19)
(13.5275 -24.0484 1.87731e-19)
(13.1195 -24.0219 7.26969e-19)
(12.7014 -23.9312 1.41558e-20)
(12.3251 -23.9044 -4.43733e-19)
(11.9594 -23.8489 7.39913e-20)
(11.6135 -23.8077 -5.07027e-19)
(11.2439 -23.7236 4.33016e-19)
(10.8455 -23.5832 1.91497e-20)
(10.6732 -23.2877 3.57185e-19)
(8.21136 -10.2875 0)
(17.1791 -20.6945 5.24189e-19)
(18.7461 -23.6819 -6.25135e-19)
(18.0578 -23.5859 0)
(17.4102 -23.4443 -1.69684e-19)
(16.7559 -23.3912 5.21463e-19)
(16.1919 -23.2756 -6.50027e-19)
(15.6083 -23.1862 0)
(15.0883 -23.1236 7.43134e-19)
(14.5933 -23.053 -7.30743e-19)
(14.1152 -23.0062 6.38406e-20)
(13.6683 -22.9621 -8.13033e-20)
(13.237 -22.9386 -7.29805e-20)
(12.8313 -22.9069 -6.54388e-20)
(12.4361 -22.894 -4.16554e-19)
(12.0575 -22.8651 6.6564e-19)
(11.6891 -22.8454 -5.81627e-19)
(11.3347 -22.8393 5.07076e-19)
(10.9631 -22.7886 -1.9464e-19)
(10.7851 -22.5164 3.22978e-20)
(8.59771 -9.84556 0)
(17.5411 -19.6699 -5.75179e-19)
(18.8213 -22.0207 3.40181e-19)
(18.1954 -22.099 3.92501e-19)
(17.6051 -22.0484 -5.29705e-20)
(16.9352 -22.0316 -4.76398e-20)
(16.3612 -22.0027 -3.83371e-19)
(15.7768 -21.9647 0)
(15.2112 -21.8984 0)
(14.7201 -21.9159 0)
(14.199 -21.8497 -6.38368e-20)
(13.7497 -21.8533 0)
(13.3383 -21.8916 -2.87353e-19)
(12.8942 -21.8575 2.59872e-19)
(12.4974 -21.8807 -1.73429e-19)
(12.1157 -21.8793 3.05439e-19)
(11.7451 -21.9003 -1.32623e-19)
(11.3711 -21.9249 -7.01318e-20)
(10.996 -21.934 1.05897e-19)
(10.8144 -21.6734 -3.74608e-20)
(8.9723 -9.40336 0)
(17.8241 -18.5496 0)
(19.0866 -20.7227 1.31937e-19)
(18.2755 -20.717 1.15599e-19)
(17.62 -20.6493 0)
(16.9405 -20.6734 2.59574e-19)
(16.3584 -20.6656 -2.55029e-19)
(15.7795 -20.6875 0)
(15.2253 -20.6785 2.83132e-19)
(14.7236 -20.6881 -2.78412e-19)
(14.2417 -20.7332 0)
(13.7635 -20.7124 -1.11681e-19)
(13.3171 -20.7599 6.82359e-20)
(12.8946 -20.7745 6.39915e-20)
(12.4755 -20.8146 0)
(12.0744 -20.8275 0)
(11.6569 -20.8462 0)
(11.2855 -20.8786 1.13025e-19)
(10.9044 -20.9063 -1.12146e-19)
(10.6847 -20.7631 0)
(1.55526 -30.2814 0)
(1.57639 -28.491 0)
(1.02928 -27.8379 -3.66638e-21)
(0.96196 -26.6648 -2.98889e-21)
(0.699712 -26.3661 0)
(0.635211 -25.6175 1.83316e-22)
(0.506971 -25.2626 1.73298e-21)
(0.453917 -24.7931 0)
(0.400743 -24.5649 9.01599e-22)
(0.363555 -24.2517 0)
(0.342584 -24.1003 -4.79707e-22)
(0.357364 -23.878 -1.25031e-22)
(0.361723 -23.7778 1.257e-22)
(0.413342 -23.6967 4.84375e-23)
(0.357797 -23.5485 0)
(0.468698 -23.4401 4.07008e-23)
(0.374178 -23.0317 -2.43175e-22)
(0.39248 -20.5288 0)
(0.166615 -15.0105 0)
(0.113014 -6.21867 -2.91582e-22)
(2.09037 -30.1114 2.62622e-20)
(1.96062 -28.372 0)
(1.33869 -27.7962 1.67528e-20)
(1.22833 -26.7387 -1.01618e-20)
(0.926331 -26.4268 0)
(0.820293 -25.6582 -8.95607e-21)
(0.666189 -25.2963 3.36397e-21)
(0.576541 -24.8216 0)
(0.507516 -24.5836 6.28424e-22)
(0.439182 -24.2677 -1.53827e-21)
(0.407274 -24.1157 1.23958e-21)
(0.402728 -23.8963 -1.22773e-21)
(0.399704 -23.7886 5.72752e-22)
(0.44301 -23.6997 -1.54738e-22)
(0.386838 -23.5568 -6.00072e-25)
(0.503019 -23.4424 -1.71105e-22)
(0.392787 -23.0237 3.59676e-22)
(0.417044 -20.4977 6.10812e-22)
(0.172597 -14.9652 2.23502e-22)
(0.114105 -6.18317 3.62744e-22)
(2.72683 -29.9013 -1.11886e-20)
(2.45519 -28.2895 -2.23563e-20)
(1.74178 -27.6674 -1.37384e-20)
(1.5061 -26.5569 0)
(1.15444 -26.2685 0)
(0.975139 -25.5507 1.01918e-20)
(0.814124 -25.2056 -1.44907e-21)
(0.680378 -24.7556 -1.1724e-21)
(0.609842 -24.5303 -1.00476e-21)
(0.516087 -24.2304 -2.95235e-21)
(0.472255 -24.0902 0)
(0.443234 -23.8819 0)
(0.432456 -23.7879 0)
(0.471456 -23.6982 -6.92434e-23)
(0.410817 -23.5646 0)
(0.533494 -23.4453 6.15828e-22)
(0.40738 -23.0176 -7.89362e-22)
(0.441339 -20.4779 -3.34299e-22)
(0.159934 -14.9476 -3.96677e-22)
(0.145928 -6.14936 -1.19243e-21)
(3.28311 -29.6884 3.83785e-20)
(2.88416 -28.1143 -7.31764e-20)
(2.05548 -27.5697 2.48037e-21)
(1.75771 -26.5818 2.46652e-20)
(1.37442 -26.3022 0)
(1.1536 -25.5761 1.25396e-20)
(0.966237 -25.2271 -2.7781e-20)
(0.794516 -24.7747 1.35915e-20)
(0.708101 -24.5429 -6.98302e-21)
(0.591989 -24.2375 2.00983e-21)
(0.537268 -24.0969 -4.01309e-22)
(0.490885 -23.8923 -7.6782e-22)
(0.472904 -23.7946 7.71601e-22)
(0.502597 -23.6993 1.2281e-22)
(0.436211 -23.5726 -5.38397e-23)
(0.561774 -23.4466 -6.15458e-22)
(0.423135 -23.0127 9.71808e-22)
(0.464574 -20.456 -4.7605e-22)
(0.158444 -14.9191 2.29608e-22)
(0.158427 -6.10966 1.19596e-21)
(3.87002 -29.4129 9.47024e-20)
(3.30349 -27.978 1.70459e-20)
(2.42445 -27.4178 -2.42494e-20)
(2.0171 -26.3925 3.43347e-20)
(1.59194 -26.1349 0)
(1.30127 -25.4604 -6.67174e-21)
(1.10757 -25.1288 5.418e-21)
(0.899229 -24.7007 0)
(0.809419 -24.4845 1.54224e-22)
(0.667446 -24.195 0)
(0.599178 -24.0654 -3.1252e-21)
(0.533318 -23.8735 0)
(0.502806 -23.7914 0)
(0.528103 -23.6959 2.39208e-22)
(0.456635 -23.5807 -1.67526e-22)
(0.589497 -23.4492 7.22776e-22)
(0.436998 -23.0096 0)
(0.488138 -20.4417 -2.57741e-22)
(0.160028 -14.9055 2.02504e-22)
(0.18939 -6.08002 0)
(4.45683 -29.13 3.79103e-20)
(3.76673 -27.7594 -3.1428e-20)
(2.7364 -27.2823 5.73133e-20)
(2.25237 -26.3752 -5.64026e-20)
(1.80253 -26.142 1.58637e-20)
(1.46962 -25.4686 6.69262e-21)
(1.2493 -25.1392 -9.97232e-21)
(1.00846 -24.7108 -7.65627e-21)
(0.902503 -24.4898 3.05212e-21)
(0.744382 -24.1928 3.53452e-21)
(0.661091 -24.064 -2.04164e-21)
(0.584373 -23.875 0)
(0.542004 -23.7922 0)
(0.558716 -23.6943 -3.65929e-24)
(0.478575 -23.5885 2.32374e-22)
(0.61351 -23.4515 -7.22071e-22)
(0.450511 -23.0089 0)
(0.512961 -20.4294 1.98776e-21)
(0.154247 -14.8939 1.6299e-21)
(0.212386 -6.03768 1.58316e-22)
(4.98339 -28.7939 -1.06032e-19)
(4.13884 -27.5532 9.96831e-20)
(3.05729 -27.0861 -2.45752e-20)
(2.48756 -26.1767 0)
(2.01442 -25.9686 -1.59313e-20)
(1.61624 -25.3467 2.23242e-20)
(1.38609 -25.0355 -1.2397e-20)
(1.11315 -24.6315 7.67699e-21)
(0.996399 -24.4283 0)
(0.816406 -24.1455 0)
(0.718671 -24.0274 2.01628e-21)
(0.62887 -23.8529 -2.0235e-21)
(0.570511 -23.7855 0)
(0.584575 -23.6885 -5.97841e-22)
(0.495618 -23.5957 2.98999e-22)
(0.638614 -23.4555 8.76715e-22)
(0.462341 -23.0112 -7.53651e-22)
(0.539311 -20.4208 -2.5174e-21)
(0.1509 -14.8894 -9.59551e-22)
(0.239034 -6.00674 -3.21454e-22)
(5.55021 -28.4358 0)
(4.58017 -27.2933 -5.23645e-20)
(3.35448 -26.9218 5.24378e-20)
(2.69983 -26.1214 0)
(2.22033 -25.9521 0)
(1.77581 -25.3349 -2.13229e-20)
(1.51996 -25.0336 2.13853e-20)
(1.21945 -24.6305 0)
(1.08508 -24.4251 4.44637e-21)
(0.892959 -24.1349 -7.45956e-21)
(0.782528 -24.0187 3.00915e-21)
(0.681163 -23.8455 7.66596e-22)
(0.611429 -23.7798 -7.69103e-22)
(0.613548 -23.6833 0)
(0.513552 -23.6024 0)
(0.659708 -23.4509 7.31175e-22)
(0.472024 -23.0162 -1.2836e-21)
(0.564465 -20.4161 -6.93418e-23)
(0.143436 -14.8901 7.71604e-22)
(0.260813 -5.96691 -3.255e-22)
(6.03812 -28.0345 6.11547e-20)
(4.91192 -27.0175 -6.12314e-20)
(3.63707 -26.6714 -6.11788e-20)
(2.9227 -25.9233 7.26532e-20)
(2.4155 -25.777 -5.83568e-20)
(1.91792 -25.208 5.44657e-21)
(1.65086 -24.9263 2.03552e-20)
(1.32311 -24.5479 0)
(1.17373 -24.3615 0)
(0.962197 -24.0849 3.13665e-21)
(0.836251 -23.9785 0)
(0.724526 -23.8201 0)
(0.637761 -23.7688 0)
(0.640142 -23.6742 0)
(0.529978 -23.6067 0)
(0.670488 -23.4573 0)
(0.478789 -23.0223 8.53512e-22)
(0.587642 -20.4149 -9.89491e-22)
(0.135244 -14.8953 3.16925e-22)
(0.282524 -5.93437 -3.30087e-22)
(6.53237 -27.6026 -5.591e-20)
(5.31666 -26.7116 -8.31313e-20)
(3.926 -26.4862 -1.67277e-20)
(3.13141 -25.8253 -9.71402e-21)
(2.62977 -25.7373 1.97918e-20)
(2.07879 -25.1777 3.4982e-20)
(1.78335 -24.912 8.11626e-21)
(1.42737 -24.5352 0)
(1.25856 -24.3488 -3.17023e-21)
(1.03614 -24.0663 7.24633e-21)
(0.899189 -23.9622 1.70446e-21)
(0.77554 -23.8043 5.38679e-22)
(0.67474 -23.757 0)