/*--------------------------------*- C++ -*----------------------------------*\
  =========                 |
  \\      /  F ield         | OpenFOAM: The Open Source CFD Toolbox
   \\    /   O peration     | Website:  https://openfoam.org
    \\  /    A nd           | Version:  9
     \\/     M anipulation  |
\*---------------------------------------------------------------------------*/
FoamFile
{
    format      ascii;
    class       volScalarField;
    location    "8.4";
    object      p;
}
// * * * * * * * * * * * * * * * * * * * * * * * * * * * * * * * * * * * * * //

dimensions      [0 2 -2 0 0 0 0];

internalField   nonuniform List<scalar> 
46400
(
-109.241
-99.2138
-81.6208
-66.507
-52.8812
-40.1172
-28.6382
-17.9354
-8.15281
0.948626
9.37582
17.2525
24.6463
31.6093
38.2927
44.6533
50.7081
57.2648
63.3758
65.6291
-69.3971
-59.018
-43.2215
-29.5128
-17.19
-5.69389
4.64572
14.2756
23.0605
31.1933
38.687
45.6273
52.0765
58.0677
63.661
68.8709
73.7303
78.7067
83.0763
84.5042
-28.8947
-20.5451
-6.51314
6.13763
17.2287
27.7397
37.1036
45.783
53.6785
60.9418
67.6268
73.7662
79.4791
84.7228
89.6376
94.1341
98.2359
102.412
105.549
105.727
9.88625
16.8865
29.6979
41.3205
51.4219
60.8347
69.1832
76.8313
83.7296
90.0086
95.7201
100.915
105.671
110.028
114.014
117.669
121.003
124.423
127.008
126.968
46.2865
52.48
64.4193
75.323
84.4847
93.0399
100.528
107.32
113.42
118.896
123.881
128.327
132.396
136.025
139.345
142.272
144.878
147.525
149.38
148.691
81.9211
88.9716
99.6447
109.378
117.424
124.78
131.2
136.927
142.031
146.561
150.631
154.254
157.505
160.443
163.065
165.425
167.516
169.676
171.197
170.343
117.605
125.114
134.314
142.747
149.6
155.848
161.279
166.068
170.332
174.047
177.361
180.235
182.773
184.973
186.918
188.557
189.968
191.436
192.348
191.126
153.249
161.017
168.121
175.008
180.592
185.544
189.87
193.595
196.898
199.752
202.286
204.469
206.376
208.011
209.431
210.631
211.618
212.641
213.355
211.957
187.22
195.094
200.664
206.033
210.508
214.326
217.67
220.458
222.885
224.896
226.63
228.072
229.274
230.25
231.036
231.652
232.086
232.616
232.883
231.42
220.191
226.257
230.73
234.6
238.024
240.833
243.257
245.213
246.862
248.165
249.221
250.025
250.641
251.066
251.343
251.444
251.4
251.395
251.237
249.481
249.828
254.53
258.258
261.285
263.824
265.816
267.453
268.645
269.552
270.149
270.518
270.673
270.663
270.507
270.241
269.857
269.36
268.945
268.389
266.549
276.552
280.402
283.292
285.452
287.271
288.573
289.573
290.189
290.544
290.607
290.479
290.126
289.637
288.982
288.243
287.383
286.445
285.546
284.531
282.415
301.054
304.111
306.377
307.79
308.895
309.463
309.823
309.78
309.549
309.031
308.355
307.496
306.507
305.39
304.177
302.882
301.514
300.209
298.796
296.536
323.085
325.499
327.144
327.98
328.522
328.554
328.346
327.839
327.133
326.204
325.109
323.863
322.509
321.046
319.506
317.877
316.184
314.527
312.796
310.327
343.043
344.829
345.987
346.324
346.37
345.909
345.177
344.153
342.932
341.537
339.977
338.294
336.492
334.622
332.676
330.684
328.633
326.622
324.536
321.915
360.291
361.599
362.286
362.218
361.915
361.155
360.143
358.806
357.256
355.512
353.645
351.656
349.578
347.416
345.205
342.937
340.635
338.359
336.053
333.231
376.367
376.767
376.928
376.31
375.462
374.259
372.853
371.236
369.408
367.419
365.28
363.037
360.704
358.303
355.855
353.362
350.841
348.349
345.875
342.925
390.286
390.148
389.741
388.849
387.591
386.014
384.181
382.183
380.022
377.747
375.345
372.874
370.315
367.725
365.083
362.435
359.748
357.12
354.519
351.555
399.683
399.588
398.963
398.032
396.723
395.174
393.286
391.212
388.925
386.519
383.984
381.366
378.677
375.935
373.165
370.362
367.542
364.743
362.009
358.874
408.853
408.594
407.612
406.284
404.612
402.719
400.577
398.247
395.769
393.16
390.468
387.694
384.882
382.026
379.16
376.276
373.387
370.526
367.759
364.65
-586.199
-583.632
-567.12
-546.827
-524.596
-502.984
-482.718
-463.626
-445.448
-428.207
-411.831
-396.212
-381.345
-367.104
-353.595
-340.566
-328.329
-316.479
-305.477
-294.905
-586.609
-582.946
-564.714
-542.31
-519.293
-497.124
-476.302
-456.811
-438.346
-420.865
-404.268
-388.483
-373.459
-359.095
-345.459
-332.351
-320.073
-308.179
-297.195
-286.558
-582.052
-579.238
-560.283
-536.131
-512.709
-490.264
-469.041
-449.078
-430.226
-412.424
-395.548
-379.554
-364.366
-349.888
-336.186
-323.065
-310.782
-298.88
-287.964
-277.31
-577.89
-574.208
-554.786
-528.854
-504.303
-481.212
-459.604
-439.341
-420.262
-402.286
-385.316
-369.214
-353.969
-339.471
-325.744
-312.645
-300.397
-288.545
-277.81
-267.236
-569.527
-565.676
-545.244
-518.598
-493.741
-470.326
-448.537
-428.088
-408.841
-390.763
-373.684
-357.576
-342.317
-327.829
-314.145
-301.123
-288.984
-277.231
-266.69
-256.124
-559.412
-554.47
-532.795
-505.729
-480.563
-456.956
-435.009
-414.551
-395.329
-377.254
-360.265
-344.172
-329.012
-314.648
-301.058
-288.147
-276.058
-264.43
-253.998
-243.452
-545.459
-539.67
-517.184
-490.047
-465.012
-441.565
-419.71
-399.339
-380.181
-362.243
-345.344
-329.444
-314.433
-300.227
-286.815
-274.136
-262.285
-250.914
-240.8
-230.341
-528.902
-522.245
-498.973
-471.857
-446.907
-423.647
-401.957
-381.807
-362.898
-345.165
-328.566
-312.876
-298.143
-284.218
-271.086
-258.681
-247.036
-235.94
-226.091
-215.821
-509.067
-501.61
-477.953
-451.169
-426.568
-403.731
-382.373
-362.554
-343.969
-326.567
-310.242
-294.896
-280.456
-266.825
-253.973
-241.865
-230.515
-219.722
-210.136
-200.001
-486.332
-478.197
-454.294
-427.999
-403.813
-381.446
-360.529
-341.138
-323.013
-306.027
-290.159
-275.214
-261.211
-248.008
-235.593
-223.902
-212.901
-202.505
-193.299
-183.398
-461.097
-452.404
-428.482
-402.661
-379.009
-357.28
-336.921
-318.087
-300.479
-283.998
-268.598
-254.12
-240.553
-227.77
-215.746
-204.448
-193.817
-183.821
-174.933
-165.275
-432.909
-423.85
-399.94
-375.097
-352.054
-331.032
-311.34
-293.086
-276.109
-260.208
-245.384
-231.475
-218.464
-206.23
-194.76
-183.989
-173.824
-164.319
-155.845
-146.474
-402.859
-393.526
-369.664
-345.843
-323.473
-303.174
-284.219
-266.685
-250.358
-235.095
-220.884
-207.531
-195.075
-183.36
-172.39
-162.106
-152.414
-143.416
-135.365
-126.327
-370.209
-360.788
-336.985
-314.428
-292.988
-273.516
-255.387
-238.573
-223.021
-208.467
-194.936
-182.28
-170.459
-159.38
-149.019
-139.327
-130.165
-121.714
-114.072
-105.368
-336.498
-326.914
-303.311
-281.711
-261.257
-242.63
-225.345
-209.346
-194.513
-180.67
-167.829
-155.783
-144.598
-134.113
-124.343
-115.203
-106.604
-98.7331
-91.5531
-83.2171
-300.653
-290.875
-268.032
-247.492
-228.103
-210.433
-194.069
-178.877
-164.905
-151.84
-139.729
-128.428
-117.889
-108.048
-98.8718
-90.3222
-82.2634
-74.9442
-68.1577
-60.1762
-264.257
-254.369
-232.183
-212.608
-194.14
-177.341
-161.865
-147.512
-134.293
-121.979
-110.6
-99.9571
-90.1046
-80.9117
-72.3798
-64.4197
-56.9844
-50.2872
-43.995
-36.4908
-226.267
-215.844
-194.427
-176.277
-159.104
-143.365
-128.935
-115.477
-103.154
-91.6385
-80.9946
-71.0752
-61.8395
-53.2522
-45.275
-37.8662
-30.9847
-24.874
-19.0905
-12.028
-187.782
-177.676
-157.483
-140.083
-123.964
-109.098
-95.5418
-82.9259
-71.3602
-60.5906
-50.6466
-41.3608
-32.7457
-24.729
-17.2509
-10.2472
-3.81526
1.90008
7.58071
14.9232
-148.557
-138.068
-119.059
-103.057
-88.1774
-74.4469
-61.9732
-50.295
-39.6029
-29.6059
-20.3331
-11.6466
-3.49247
4.17229
11.4349
18.3131
24.6602
30.8344
37.6377
44.8161
-243.801
-186.617
-135.379
-101.471
-69.7686
-47.5393
-27.7042
-11.9967
0.750731
12.0736
20.4836
28.777
34.308
40.4368
44.0991
48.4852
51.555
53.4085
55.5572
55.6695
-235.814
-180.964
-130.503
-97.8368
-66.6723
-45.0714
-25.6896
-10.2967
2.15961
13.2884
21.4934
29.6592
35.0341
41.0921
44.5779
48.9499
51.7916
53.7606
55.8055
55.8617
-227.321
-174.961
-125.372
-94.0226
-63.5484
-42.5592
-23.6332
-8.55514
3.59615
14.533
22.5502
30.582
35.8067
41.7752
45.0929
49.4538
52.0674
54.1553
56.1203
56.0631
-217.9
-168.424
-120.1
-89.9478
-60.2087
-39.8143
-21.4247
-6.65824
5.16027
15.8958
23.6947
31.5804
36.6454
42.5186
45.646
49.9886
52.3683
54.5692
56.408
56.3134
-208.194
-161.33
-114.431
-85.6597
-56.797
-37.0191
-19.1733
-4.72311
6.75494
17.2881
24.8839
32.6204
37.5332
43.2935
46.2377
50.5662
52.716
55.0198
56.6771
56.5982
-197.65
-153.923
-108.631
-81.1727
-53.2134
-34.0057
-16.7769
-2.63868
8.47394
18.7944
26.1612
33.7345
38.4866
44.1332
46.8645
51.1755
53.1019
55.4977
56.9087
56.8903
-186.374
-145.861
-102.413
-76.4322
-49.5235
-30.9359
-14.3358
-0.518062
10.2253
20.3297
27.4832
34.8886
39.4897
45.0126
47.5239
51.78
53.498
56.0137
57.1701
57.2348
-174.605
-137.528
-96.0548
-71.5267
-45.6978
-27.663
-11.7556
1.74208
12.0974
21.9733
28.8936
36.1139
40.5564
45.9563
48.2162
52.4567
53.8824
56.5649
57.4419
57.5887
-161.993
-128.612
-89.3232
-66.3578
-41.7505
-24.332
-9.1276
4.03589
14.0035
23.6443
30.3459
37.3798
41.6671
46.9458
48.9807
53.3516
54.3193
57.283
57.6674
57.9833
-148.902
-119.343
-82.4006
-61.0267
-37.6897
-20.8159
-6.36596
6.4574
16.0261
25.4165
31.8793
38.7156
42.8636
47.9786
49.8239
54.3795
54.9044
57.994
57.891
58.3898
-134.888
-109.734
-75.1848
-55.4485
-33.5078
-17.2457
-3.55416
8.90891
18.0835
27.2151
33.456
40.0908
44.1146
49.0291
50.7225
55.388
55.5427
58.6251
58.1257
58.817
-120.379
-99.6139
-67.7544
-49.6947
-29.2283
-13.5146
-0.614752
11.4735
20.2507
29.1072
35.1091
41.543
45.4457
50.1096
51.6974
56.4085
56.1237
59.2593
58.3577
59.2775
-104.921
-89.3993
-60.097
-43.7102
-24.8275
-9.73208
2.37981
14.0666
22.4535
31.0253
36.7924
43.0316
46.8286
51.2167
52.7545
57.4094
56.7342
59.9296
58.5897
59.7616
-88.9579
-78.6338
-52.292
-37.5558
-20.3454
-5.81808
5.49683
16.759
24.7604
33.0318
38.5513
44.5724
48.2416
52.4425
53.9319
58.3828
57.388
60.629
58.8249
60.287
-71.9202
-67.8421
-44.3698
-31.2345
-15.7824
-1.89342
8.64407
19.4592
27.0871
35.0543
40.3376
46.1426
49.6567
53.7392
55.1224
59.3254
58.1168
61.3587
59.0658
60.8683
-54.1096
-56.246
-36.2045
-24.6639
-11.0816
2.16123
11.9236
22.2491
29.51
37.1557
42.1893
47.7671
51.1272
55.0723
56.3492
60.2827
58.9189
62.0808
59.3177
61.4645
-35.9543
-44.8817
-27.8676
-17.7682
-6.11188
6.38804
15.3713
25.1591
32.0325
39.3368
44.1143
49.4538
52.6459
56.4699
57.5905
61.3447
59.8089
62.8477
59.6012
62.0678
-17.3483
-34.1132
-20.5056
-11.4289
-1.5188
10.4096
18.7202
28.0183
34.559
41.5448
46.067
51.1702
54.197
57.8782
58.7875
62.4653
60.7323
63.847
60.0139
62.8549
7.07072
-21.0943
-13.542
-5.65477
2.42264
13.6802
21.4854
30.3673
36.7046
43.4623
47.8037
52.6927
55.5899
59.1215
59.9575
63.5089
61.6188
64.5697
60.3306
63.4587
32.5336
-1.12366
-1.20272
4.30013
9.59253
19.0536
25.966
33.8829
39.7152
45.9804
50.0183
54.6265
57.328
60.7282
61.4665
64.8158
62.8027
64.7495
60.4608
64.3551
90.7581
101.409
82.2258
77.271
70.7744
68.4544
66.0227
66.4179
65.9267
67.532
68.1794
70.5192
70.9246
73.3206
72.8336
75.4102
73.2172
75.8309
72.1088
78.8109
161.36
150.753
126.675
117.7
105.978
100.639
94.6519
91.5917
88.6365
87.118
85.7258
85.0733
84.6407
84.5741
84.0649
84.5232
83.2415
83.823
82.2574
83.8671
188.893
174.764
159.657
148.427
138.139
130.639
124.139
119.636
115.529
112.836
110.17
108.502
106.589
105.747
104.657
103.988
103.824
103.064
103.465
103.504
199.592
188.633
175.209
166.133
156.644
149.568
142.671
137.187
132.25
128.197
124.664
121.779
119.26
116.998
115.204
113.729
112.571
111.657
111.243
110.989
200.081
191.347
182.947
175.167
168.142
161.695
156.003
151.045
146.577
142.803
139.28
136.374
133.654
131.495
129.332
127.487
125.783
124.172
123.271
123.125
203.154
196.63
189.083
183.006
176.766
171.436
166.17
161.517
157.121
153.236
149.67
146.461
143.556
140.752
138.497
136.097
134.381
132.705
131.596
131.197
201.051
196.079
191.641
186.828
182.181
177.761
173.58
169.713
166.006
162.697
159.409
156.621
153.71
151.344
148.644
146.52
144.134
142.066
140.684
139.945
203.357
199.746
195.208
191.06
186.944
183.382
179.676
176.336
172.971
169.945
166.911
164.19
161.405
158.94
156.309
153.999
151.431
149.161
147.129
146.39
202.705
199.695
196.773
194.112
191.075
188.067
185.11
182.36
179.58
177.102
174.467
172.224
169.695
167.638
165.07
163.085
160.238
158.296
155.62
154.927
204.432
202.265
199.617
197.015
194.339
191.966
189.503
187.246
184.921
182.815
180.639
178.686
176.544
174.745
172.482
170.776
167.96
166.483
163.072
162.701
205.608
203.82
201.799
200.023
198.011
196.118
194.133
192.385
190.546
188.976
187.273
185.885
184.282
183.044
181.43
180.334
178.226
177.751
173.522
174.934
207.007
205.511
203.747
202.284
200.607
199.2
197.675
196.369
195.02
193.873
192.733
191.784
190.865
190.128
189.444
188.96
188.433
188.396
188.648
190.382
208.548
207.398
206.077
204.938
203.696
202.629
201.521
200.609
199.684
198.985
198.32
197.86
197.555
197.358
197.573
197.584
198.663
198.654
201.36
202.293
209.848
208.9
207.788
206.894
205.888
205.117
204.268
203.676
203.023
202.691
202.281
202.303
202.24
202.749
203.126
204.27
205.295
207.282
210.157
211.142
211.321
210.539
209.682
208.975
208.242
207.686
207.109
206.755
206.368
206.298
206.17
206.481
206.715
207.428
208.067
209.487
210.647
213.103
214.594
218.762
212.332
211.675
210.943
210.366
209.76
209.313
208.842
208.578
208.309
208.301
208.248
208.558
208.69
209.444
209.955
211.195
211.985
213.862
214.832
225.861
213.36
212.792
212.205
211.74
211.263
210.929
210.618
210.502
210.374
210.451
210.509
210.823
211.086
211.808
212.293
213.338
214.013
215.732
217.136
219.867
214.036
213.504
212.995
212.57
212.188
211.917
211.656
211.51
211.35
211.392
211.398
211.72
211.843
212.397
212.735
213.469
213.944
214.759
214.876
223.746
214.538
214.042
213.578
213.186
212.834
212.564
212.334
212.203
212.114
212.169
212.24
212.429
212.641
213.011
213.297
213.79
213.985
215.265
215.397
216.179
214.763
214.282
213.841
213.464
213.135
212.883
212.671
212.575
212.477
212.547
212.562
212.727
212.866
213.159
213.4
213.792
214.103
214.621
214.761
221.729
329.3
325.031
320.205
314.563
308.442
301.325
293.777
285.25
276.208
266.376
255.474
244.353
232.344
219.512
206.183
191.694
177.267
161.397
146.16
130.119
298.539
295.859
292.803
289.507
285.872
281.903
277.769
273.102
268.574
263.039
257.073
252.13
246.147
240.459
234.283
228.037
220.693
212.03
202.528
191.915
263.151
261.239
259.183
257.067
254.726
252.436
249.791
247.219
244.353
241.182
238.022
234.354
229.952
226.127
222.502
218.98
215.04
211.366
207.047
202.995
250.263
248.844
247.349
245.796
244.155
242.459
240.648
238.791
236.774
234.747
232.464
230.426
227.844
225.221
222.749
220.221
217.448
214.846
211.887
209.215
234.724
233.617
232.48
231.314
230.084
228.872
227.54
226.3
224.867
223.48
221.949
220.42
218.555
216.527
214.538
212.7
210.965
209.4
207.576
205.927
228.777
227.898
226.981
226.057
225.098
224.129
223.125
222.113
221.043
219.987
218.782
217.59
216.433
215.169
213.795
212.591
211.301
210.017
208.66
207.414
222.047
221.315
220.564
219.806
219.005
218.229
217.37
216.58
215.673
214.725
213.6
212.452
211.309
210.211
209.169
208.184
207.188
206.194
205.16
204.188
219.208
218.605
217.987
217.359
216.722
216.07
215.406
214.715
214.038
213.332
212.628
211.92
211.174
210.453
209.69
208.953
208.178
207.426
206.612
205.844
216.676
216.155
215.623
215.08
214.515
213.96
213.345
212.714
212.115
211.491
210.85
210.206
209.544
208.872
208.185
207.496
206.807
206.121
205.425
204.723
215.534
215.084
214.628
214.169
213.705
213.238
212.763
212.288
211.804
211.313
210.816
210.306
209.795
209.277
208.76
208.227
207.673
207.111
206.547
205.992
214.979
214.609
214.231
213.84
213.442
213.035
212.623
212.207
211.789
211.367
210.944
210.517
210.089
209.658
209.229
208.787
208.35
207.896
207.432
206.948
215.096
214.767
214.433
214.095
213.753
213.405
213.053
212.695
212.334
211.964
211.595
211.214
210.836
210.445
210.052
209.659
209.267
208.871
208.48
208.081
215.3
215.011
214.721
214.427
214.132
213.834
213.534
213.231
212.926
212.619
212.31
211.998
211.686
211.368
211.053
210.729
210.411
210.082
209.76
209.425
215.717
215.466
215.214
214.956
214.695
214.431
214.167
213.899
213.63
213.359
213.087
212.813
212.539
212.261
211.985
211.705
211.428
211.145
210.869
210.584
216.291
216.057
215.824
215.592
215.361
215.13
214.899
214.667
214.437
214.204
213.974
213.742
213.512
213.279
213.05
212.819
212.594
212.363
212.141
211.911
216.772
216.562
216.353
216.144
215.935
215.726
215.518
215.31
215.103
214.896
214.69
214.484
214.28
214.076
213.875
213.671
213.468
213.263
213.061
212.854
217.288
217.091
216.895
216.7
216.506
216.314
216.122
215.932
215.744
215.557
215.371
215.187
215.004
214.824
214.645
214.468
214.294
214.121
213.952
213.782
217.649
217.464
217.28
217.097
216.916
216.736
216.558
216.382
216.207
216.035
215.864
215.695
215.528
215.363
215.2
215.039
214.881
214.724
214.571
214.419
217.939
217.76
217.582
217.406
217.233
217.061
216.891
216.723
216.557
216.393
216.232
216.073
215.916
215.761
215.61
215.46
215.313
215.168
215.027
214.887
218.066
217.891
217.717
217.546
217.376
217.209
217.043
216.879
216.718
216.559
216.402
216.247
216.095
215.945
215.798
215.653
215.51
215.371
215.233
215.099
263.742
262.945
259.92
257.033
254.409
251.621
248.677
245.531
242.107
238.354
234.222
229.627
224.579
218.906
212.704
205.66
197.908
189.28
178.561
172.804
273.023
273.137
271.506
269.703
267.776
265.606
263.184
260.489
257.501
254.187
250.518
246.419
241.888
236.779
231.16
224.723
217.783
209.701
200.333
194.327
283.808
284.236
282.87
281.406
279.878
278.128
276.175
274.012
271.582
268.862
265.789
262.328
258.45
254.048
249.158
243.552
237.418
230.235
222.161
216.645
294.379
295.142
294.297
293.418
292.462
291.276
289.875
288.244
286.34
284.14
281.613
278.71
275.408
271.602
267.328
262.345
256.906
250.377
243.247
239.061
304.861
305.811
305.253
304.706
304.123
303.352
302.398
301.254
299.873
298.241
296.296
294.018
291.356
288.235
284.635
280.395
275.587
269.8
263.038
259.513
314.855
316.121
316.087
316.049
315.982
315.746
315.32
314.709
313.847
312.749
311.359
309.661
307.584
305.076
302.114
298.509
294.405
289.248
283.104
279.358
324.14
325.692
326.075
326.409
326.708
326.838
326.817
326.653
326.304
325.756
324.949
323.879
322.484
320.724
318.528
315.79
312.531
308.288
303.285
298.838
333.264
335.057
335.828
336.562
337.282
337.898
338.375
338.745
338.93
338.941
338.696
338.235
337.435
336.327
334.792
332.814
330.348
327.097
323.468
318.801
341.565
343.488
344.591
345.67
346.753
347.743
348.621
349.374
349.983
350.445
350.709
350.768
350.565
350.104
349.268
348.096
346.397
344.202
341.394
337.593
348.805
351.011
352.526
354.02
355.517
356.94
358.263
359.5
360.594
361.582
362.366
362.984
363.33
363.451
363.219
362.689
361.702
360.321
358.326
355.531
355.739
358.21
360.058
361.874
363.662
365.369
366.972
368.492
369.876
371.147
372.251
373.221
373.972
374.527
374.778
374.771
374.331
373.56
372.177
370.078
361.622
364.189
366.193
368.199
370.226
372.194
374.107
375.977
377.757
379.467
381.04
382.515
383.756
384.855
385.611
386.19
386.268
386.101
385.21
383.662
366.656
369.364
371.594
373.873
376.157
378.408
380.602
382.749
384.796
386.763
388.587
390.284
391.789
393.142
394.223
395.1
395.526
395.749
395.231
394.296
370.531
373.39
375.792
378.249
380.73
383.177
385.593
387.96
390.279
392.518
394.669
396.715
398.609
400.361
401.857
403.157
404.031
404.768
404.783
404.697
373.623
376.563
379.081
381.69
384.326
386.945
389.522
392.08
394.558
396.983
399.283
401.493
403.488
405.356
406.909
408.311
409.326
410.189
410.472
410.504
375.04
378.086
380.708
383.448
386.219
388.977
391.711
394.421
397.08
399.688
402.205
404.628
406.917
409.058
410.999
412.751
414.189
415.353
415.962
415.948
375.934
378.987
381.689
384.499
387.357
390.191
393.021
395.821
398.591
401.298
403.931
406.472
408.874
411.151
413.186
415.064
416.531
417.789
418.633
418.998
374.744
377.866
380.682
383.605
386.549
389.493
392.412
395.332
398.193
401.024
403.756
406.417
408.919
411.3
413.454
415.416
417.058
418.414
419.249
419.592
372.788
375.99
378.794
381.723
384.676
387.628
390.557
393.48
396.355
399.191
401.957
404.628
407.206
409.596
411.855
413.822
415.545
416.812
417.639
417.785
369.748
372.878
375.645
378.529
381.472
384.405
387.335
390.25
393.127
395.957
398.703
401.357
403.858
406.206
408.328
410.195
411.786
412.958
413.826
414.098
106.414
104.664
102.768
100.929
99.1279
97.2757
95.5437
93.7397
92.0356
90.2435
88.3221
86.9648
85.6141
83.8327
82.6673
81.4697
81.6614
81.5665
81.4404
81.1659
110.618
108.796
106.938
105.029
103.144
101.197
99.2933
97.3186
95.4224
93.4458
91.4822
89.4259
87.851
85.9887
83.9181
82.9664
82.8781
82.0686
82.6303
82.085
114.97
112.971
110.992
108.941
106.9
104.768
102.69
100.521
98.3879
96.2344
94.1036
91.9219
89.6003
87.8359
86.2182
84.6559
83.1417
83.906
83.8499
83.4962
118.687
116.659
114.643
112.495
110.346
108.048
105.8
103.407
101.066
98.6424
96.2473
93.737
91.3179
88.9319
86.8685
84.704
83.4052
84.1029
83.1135
83.1232
122.848
120.653
118.461
116.101
113.757
111.226
108.702
106.056
103.354
100.608
97.7781
94.9998
92.0005
89.046
86.3686
84.0355
82.0676
80.8659
80.5453
80.4276
126.915
124.593
122.282
119.759
117.22
114.461
111.681
108.71
105.687
102.52
99.3022
95.9313
92.4679
88.9962
85.4319
82.2005
78.9519
76.2407
76.4628
75.7005
131.536
129.016
126.502
123.682
120.912
117.85
114.725
111.417
107.938
104.323
100.508
96.561
92.4073
88.0498
83.6476
79.0572
74.6056
70.7075
69.659
68.734
136.554
133.743
131.107
128.041
125.017
121.708
118.268
114.592
110.726
106.611
102.272
97.6392
92.6937
87.4521
81.8209
75.8558
69.4179
63.5084
59.4512
58.4451
141.729
138.796
136.02
132.761
129.547
126.003
122.272
118.288
114.02
109.472
104.597
99.3736
93.7255
87.6851
81.0424
73.8605
66.0328
58.4548
51.2099
50.3323
147.546
144.398
141.643
138.229
134.834
131.13
127.167
122.915
118.351
113.434
108.138
102.402
96.1636
89.4082
81.9562
73.8757
65.0188
55.8647
46.3233
44.5243
153.889
150.68
147.86
144.414
140.909
137.091
132.957
128.509
123.701
118.49
112.859
106.721
100.018
92.7475
84.7065
75.8705
66.1694
55.6236
46.2298
43.472
161.066
157.732
154.909
151.493
147.903
144.041
139.826
135.271
130.332
124.967
119.127
112.759
105.775
98.2038
89.7816
80.6148
70.5968
59.5776
48.1145
45.3499
169.178
165.744
162.964
159.613
156.017
152.154
147.903
143.281
138.266
132.768
126.801
120.239
113.043
105.178
96.3786
86.9318
76.3316
64.3104
53.4083
50.4624
177.935
174.431
171.757
168.588
165.03
161.251
157.067
152.505
147.519
142.056
136.078
129.499
122.269
114.33
105.481
95.9812
84.8131
73.3493
61.4946
57.247
187.748
184.166
181.618
178.688
175.229
171.568
167.507
163.035
158.155
152.764
146.868
140.325
133.128
125.171
116.322
106.652
95.6826
84.1997
72.8046
68.3375
198.201
194.663
192.329
189.683
186.422
182.939
179.066
174.782
170.065
164.845
159.106
152.739
145.741
138.011
129.399
120.067
109.326
97.7426
85.4496
80.6226
209.124
205.83
203.806
201.48
198.462
195.198
191.559
187.494
183.004
178.018
172.528
166.404
159.682
152.181
143.909
134.839
124.468
113.671
101.388
96.4159
220.566
217.521
215.964
214.108
211.447
208.465
205.112
201.322
197.099
192.382
187.166
181.345
174.938
167.797
159.912
151.213
141.269
130.844
118.065
112.835
235.415
232.101
230.266
228.466
225.906
222.968
219.708
216.059
212.007
207.515
202.571
197.069
191.053
184.323
176.98
168.781
159.615
150.028
137.586
131.743
255.73
252.413
248.342
245.374
242.258
238.892
235.393
231.675
227.685
223.364
218.673
213.503
207.85
201.542
194.633
186.865
178.298
168.868
157.206
151.621
171.675
172.174
171.673
171.363
170.816
169.398
169.116
167.701
167.066
165.522
164.368
162.499
160.304
157.921
153.577
150.292
142.425
137.316
125.041
114.017
172.011
172.416
172.207
171.909
171.604
170.221
170.136
168.822
168.342
166.897
165.901
164.144
162.159
159.97
155.911
153.084
145.461
140.671
128.846
118.943
172.39
172.76
172.797
172.391
172.411
171.049
171.177
169.963
169.64
168.32
167.503
165.892
164.109
162.098
158.257
155.605
148.212
144.156
132.31
123.715
172.732
172.967
173.396
172.834
173.208
171.83
172.194
171.075
170.914
169.688
169.034
167.531
165.969
164.13
160.559
158.35
151.227
147.685
136.039
128.464
173.121
173.273
174.05
173.221
174.014
172.637
173.216
172.206
172.206
171.098
170.616
169.256
167.898
166.239
162.9
160.942
154.027
151.261
139.581
132.96
173.476
173.578
174.641
173.628
174.799
173.43
174.215
173.334
173.473
172.465
172.14
170.898
169.764
168.259
165.201
163.64
157.015
154.813
143.322
137.579
173.867
173.86
175.282
174.042
175.588
174.245
175.224
174.469
174.754
173.865
173.708
172.607
171.692
170.376
167.58
166.298
159.871
158.362
146.98
142.674
174.226
174.157
175.916
174.474
176.358
175.061
176.22
175.601
176.018
175.231
175.221
174.258
173.554
172.378
169.895
168.923
162.859
162.061
150.752
148.259
174.601
174.497
176.57
174.891
177.129
175.897
177.225
176.737
177.291
176.619
176.766
175.953
175.479
174.48
172.289
171.6
165.856
165.639
154.556
153.589
174.944
174.835
177.159
175.309
177.883
176.751
178.223
177.873
178.553
177.983
178.267
177.617
177.333
176.491
174.627
174.176
168.865
169.232
158.635
158.963
175.286
175.179
177.749
175.718
178.631
177.627
179.229
179.009
179.819
179.357
179.784
179.316
179.246
178.578
177.039
176.875
171.962
172.865
162.789
164.516
175.594
175.517
178.337
176.124
179.363
178.538
180.232
180.148
181.081
180.712
181.268
180.987
181.093
180.598
179.377
179.426
174.974
176.44
167.19
170.719
175.907
175.847
178.904
176.477
180.145
179.478
181.241
181.282
182.342
182.067
182.755
182.693
182.989
182.695
181.809
182.137
178.142
180.116
171.702
177.241
176.211
176.164
179.462
176.833
181.013
180.461
182.252
182.42
183.606
183.407
184.219
184.382
184.827
184.721
184.146
184.674
181.143
183.685
176.411
184.438
176.507
176.439
179.982
177.201
181.762
181.453
183.253
183.541
184.856
184.726
185.667
186.093
186.69
186.812
186.567
187.357
184.298
187.37
181.324
192.201
176.762
176.67
180.427
177.591
182.727
182.511
184.264
184.667
186.116
186.04
187.109
187.808
188.52
188.857
188.918
189.901
187.334
191.155
186.68
200.852
177.047
176.8
180.936
178.033
184.067
183.629
185.312
185.816
187.411
187.388
188.582
189.573
190.397
191.014
191.43
192.677
190.519
194.745
192.571
209.531
177.543
176.909
181.702
178.507
185.019
184.741
186.254
186.908
188.654
188.607
189.951
191.29
192.128
193.003
193.652
194.979
192.991
198.273
196.776
217.82
177.275
176.606
181.8
178.865
185.549
185.695
186.917
187.742
189.657
189.516
191.043
192.817
193.631
194.791
195.576
196.932
195.257
204.078
203.128
230.369
178.24
175.485
182.062
180.07
186.891
187.015
188.45
189.155
191.254
191.394
193.068
194.866
196.139
197.576
199.076
200.699
201.25
211.686
215.966
246.374
201.488
180.153
196.355
193.389
198.902
196.929
200.996
201.798
204.299
206.473
210.05
211.432
216.171
218.83
225.586
229.372
242.379
242.263
263.737
263.717
199.124
196.752
199.51
198.96
201.838
202.254
205.111
206.506
209.663
212.084
215.905
219.584
224.683
229.236
236.363
242.557
252.411
259.322
273.428
283.501
207.054
206.665
207.478
207.925
209.918
211.028
213.154
215.04
217.505
219.822
222.831
226.007
229.553
233.429
238.181
243.093
249.111
255.205
262.998
272.31
209.174
209.283
209.752
210.819
212.331
213.67
215.632
217.592
220.061
222.658
225.698
228.736
232.328
236.386
240.388
245.354
249.764
255.456
258.996
263.688
211.874
212.536
212.86
214.49
215.236
216.743
218.128
219.808
221.639
223.545
225.643
227.857
230.243
232.754
235.253
238.104
240.568
243.915
246.131
250.28
212.4
212.63
213.312
214.592
215.706
217.247
218.777
220.499
222.319
224.189
226.224
228.311
230.319
232.765
234.395
237.226
238.75
240.946
241.295
242.313
211.486
211.664
212.76
213.958
215.499
216.966
218.498
219.904
221.416
222.779
224.236
225.528
226.878
228.077
229.434
230.52
231.801
232.584
233.151
234.237
210.8
211.345
212.32
214.071
215.588
217.224
218.743
220.158
221.648
222.872
224.271
225.337
226.556
227.462
228.383
229.011
229.581
230.285
229.85
229.772
208.725
209.402
211.106
213.145
215.116
216.692
218.319
219.527
220.834
221.767
222.774
223.524
224.208
224.803
225.408
225.668
225.864
225.765
225.489
225.394
207.032
209.036
211.1
213.568
215.917
217.506
219.211
220.252
221.514
222.205
223.125
223.55
224.135
224.354
224.588
224.683
224.657
224.483
224.204
223.592
208.698
209.706
214.725
215.594
218.34
219.277
220.77
221.434
222.34
222.761
223.292
223.511
223.75
223.793
223.958
223.69
223.47
222.709
222.225
221.591
219.893
217.729
221.069
220.907
222.488
222.857
223.563
223.71
224.104
224.071
224.267
224.106
224.081
223.804
223.597
223.228
222.826
222.46
221.904
221.11
230.666
228.46
227.927
227.338
227.446
227.07
227.018
226.694
226.536
226.218
225.946
225.588
225.262
224.799
224.32
223.818
223.196
222.469
221.608
220.688
238.991
237.418
234.532
233.577
231.941
231.045
229.975
229.195
228.451
227.726
227.092
226.371
225.761
225.017
224.403
223.67
223.034
222.27
221.577
220.812
244.844
243.339
240.374
237.591
236.192
234.236
233.195
231.563
230.736
229.49
228.768
227.743
227.066
226.146
225.454
224.553
223.759
222.904
222.097
221.204
252.413
242.487
241.226
238.681
237.287
235.295
234.236
232.775
231.769
230.576
229.627
228.595
227.695
226.745
225.879
224.956
224.094
223.158
222.312
221.407
246.324
243.521
241.945
239.71
238.331
236.437
235.2
233.609
232.526
231.173
230.189
229.015
228.102
227.051
226.194
225.227
224.415
223.511
222.686
221.808
244.5
242.05
240.796
238.885
237.776
236.288
235.184
233.882
232.812
231.644
230.617
229.547
228.562
227.562
226.616
225.666
224.755
223.842
222.965
222.089
241.613
240.373
239.879
238.671
237.745
236.377
235.368
234.081
233.048
231.858
230.842
229.74
228.763
227.736
226.801
225.839
224.943
224.036
223.171
222.311
244.658
240.027
239.568
238.28
237.422
236.226
235.218
234.078
233.034
231.944
230.913
229.872
228.873
227.882
226.922
225.977
225.057
224.157
223.277
222.422
284.387
292.032
299.893
306.045
311.994
317.108
321.517
326.48
330.996
333.364
336.781
338.337
340.078
340.78
341.031
340.647
339.568
338.008
335.727
332.756
293.48
295.309
298.331
301.741
304.487
305.293
306.848
307.687
308.762
309.243
309.731
309.758
309.723
309.215
308.656
307.603
306.462
304.871
303.094
300.976
276.778
276.669
277.398
277.302
277.688
277.582
277.674
277.249
277.023