/*--------------------------------*- C++ -*----------------------------------*\
  =========                 |
  \\      /  F ield         | OpenFOAM: The Open Source CFD Toolbox
   \\    /   O peration     | Website:  https://openfoam.org
    \\  /    A nd           | Version:  9
     \\/     M anipulation  |
\*---------------------------------------------------------------------------*/
FoamFile
{
    format      ascii;
    class       surfaceScalarField;
    location    "8.4";
    object      phi;
}
// * * * * * * * * * * * * * * * * * * * * * * * * * * * * * * * * * * * * * //

dimensions      [0 3 -1 0 0 0 0];

internalField   nonuniform List<scalar> 
92080
(
-0.00586215
-0.542629
0.548491
-0.0333365
-1.07261
1.10008
-0.077795
-1.16953
1.21399
-0.123485
-1.14999
1.19568
-0.168224
-1.13057
1.17531
-0.212515
-1.11115
1.15544
-0.256505
-1.09374
1.13773
-0.299849
-1.07729
1.12064
-0.342372
-1.06116
1.10368
-0.384278
-1.04608
1.08799
-0.426413
-1.03138
1.07352
-0.467768
-1.01916
1.06051
-0.508584
-1.00677
1.04758
-0.548479
-0.995705
1.0356
-0.587326
-0.984648
1.02349
-0.625718
-0.972471
1.01086
-0.663947
-0.961192
0.99942
-0.701977
-0.949516
0.987546
-0.73956
-0.938123
0.975706
-0.931445
0.964405
-0.772519
-0.00645583
-0.536173
-0.0372007
-1.04186
-0.0855063
-1.12123
-0.133465
-1.10203
-0.180446
-1.08359
-0.226789
-1.06481
-0.272567
-1.04797
-0.317146
-1.03271
-0.361062
-1.01725
-0.403988
-1.00316
-0.446521
-0.988849
-0.489023
-0.976656
-0.53105
-0.964741
-0.572888
-0.953867
-0.612981
-0.944554
-0.651381
-0.934072
-0.688497
-0.924075
-0.723331
-0.914683
-0.755432
-0.906022
-0.898483
-0.788394
-0.00890323
-0.527269
-0.0418735
-1.00889
-0.089839
-1.07326
-0.138304
-1.05356
-0.185451
-1.03644
-0.232181
-1.01808
-0.279113
-1.00104
-0.325411
-0.986413
-0.370579
-0.972079
-0.415285
-0.95845
-0.459142
-0.944993
-0.502503
-0.933294
-0.545176
-0.922069
-0.588102
-0.91094
-0.630542
-0.902115
-0.672188
-0.892425
-0.713496
-0.882767
-0.75485
-0.873329
-0.794942
-0.86593
-0.860274
-0.83315
-0.00937
-0.517899
-0.0476265
-0.970637
-0.0974649
-1.02342
-0.147112
-1.00392
-0.196203
-0.987351
-0.244174
-0.970106
-0.291937
-0.953272
-0.339757
-0.938593
-0.386884
-0.924951
-0.432414
-0.912921
-0.477931
-0.899476
-0.522744
-0.888481
-0.566405
-0.878407
-0.609879
-0.867466
-0.652987
-0.859007
-0.694212
-0.8512
-0.734211
-0.842768
-0.773956
-0.833584
-0.814553
-0.825332
-0.819186
-0.855641
-0.00663492
-0.511265
-0.0472275
-0.930045
-0.0979747
-0.972678
-0.14911
-0.952782
-0.199316
-0.937144
-0.248991
-0.920431
-0.298225
-0.904038
-0.347148
-0.88967
-0.396209
-0.87589
-0.444268
-0.864861
-0.490728
-0.853016
-0.53812
-0.84109
-0.58396
-0.832567
-0.629401
-0.822025
-0.675529
-0.812879
-0.721855
-0.804874
-0.766538
-0.798085
-0.809597
-0.790526
-0.851786
-0.783144
-0.776954
-0.894019
-0.00225323
-0.509011
-0.0477844
-0.884514
-0.102103
-0.918359
-0.155791
-0.899093
-0.207894
-0.885042
-0.258144
-0.87018
-0.307997
-0.854185
-0.3575
-0.840168
-0.407121
-0.826269
-0.456703
-0.815278
-0.504353
-0.805367
-0.551529
-0.793914
-0.598849
-0.785247
-0.644306
-0.776568
-0.689543
-0.767643
-0.73468
-0.759737
-0.780391
-0.752373
-0.825733
-0.745183
-0.870455
-0.738422
-0.732142
-0.915267
0.000721976
-0.509733
-0.0443943
-0.839397
-0.100746
-0.862008
-0.156472
-0.843367
-0.211738
-0.829776
-0.264685
-0.817234
-0.315943
-0.802927
-0.366235
-0.789876
-0.416337
-0.776167
-0.467484
-0.764131
-0.518029
-0.754822
-0.567364
-0.744579
-0.616617
-0.735994
-0.665143
-0.728042
-0.712886
-0.719899
-0.760654
-0.711969
-0.806857
-0.706169
-0.852754
-0.699287
-0.898366
-0.69281
-0.686623
-0.943885
0.000907438
-0.510641
-0.0491113
-0.789379
-0.108035
-0.803085
-0.16471
-0.786691
-0.220321
-0.774166
-0.274301
-0.763254
-0.326597
-0.75063
-0.377167
-0.739306
-0.426003
-0.727332
-0.475128
-0.715006
-0.524654
-0.705295
-0.574338
-0.694895
-0.623679
-0.686653
-0.672726
-0.678995
-0.720379
-0.672247
-0.768759
-0.663588
-0.817953
-0.656975
-0.865514
-0.651725
-0.912235
-0.646089
-0.639767
-0.959091
0.000127131
-0.510768
-0.0523834
-0.736868
-0.112402
-0.743066
-0.17023
-0.728864
-0.22815
-0.716245
-0.284146
-0.707257
-0.338494
-0.696283
-0.392142
-0.685657
-0.443451
-0.676024
-0.493764
-0.664693
-0.543229
-0.65583
-0.592557
-0.645567
-0.642732
-0.636478
-0.692846
-0.628881
-0.742287
-0.622806
-0.789434
-0.616442
-0.837757
-0.608652
-0.886866
-0.602616
-0.934814
-0.598141
-0.593273
-0.981308
-0.00813077
-0.502637
-0.0618299
-0.683169
-0.120568
-0.684328
-0.177357
-0.672075
-0.233914
-0.659688
-0.290298
-0.650874
-0.344199
-0.642381
-0.397341
-0.632515
-0.449371
-0.623993
-0.500125
-0.613939
-0.55028
-0.605675
-0.598458
-0.59739
-0.646903
-0.588033
-0.696062
-0.579722
-0.746015
-0.572853
-0.795043
-0.567414
-0.842184
-0.561511
-0.890139
-0.554661
-0.939338
-0.548942
-0.544099
-0.988512
-0.0174399
-0.485197
-0.0722188
-0.62839
-0.130863
-0.625683
-0.18834
-0.614598
-0.245117
-0.602912
-0.302351
-0.59364
-0.358897
-0.585835
-0.413713
-0.577699
-0.46756
-0.570147
-0.51986
-0.561638
-0.571943
-0.553592
-0.622439
-0.546894
-0.670989
-0.539483
-0.719174
-0.531537
-0.767839
-0.524188
-0.817147
-0.518106
-0.865417
-0.513241
-0.911876
-0.508202
-0.957625
-0.503194
-0.497842
-1.00388
-0.0253318
-0.459865
-0.0816488
-0.572073
-0.139676
-0.567655
-0.194997
-0.559277
-0.250453
-0.547455
-0.305814
-0.538279
-0.36132
-0.530329
-0.416224
-0.522796
-0.469887
-0.516484
-0.522808
-0.508718
-0.575155
-0.501244
-0.627272
-0.494777
-0.67774
-0.489016
-0.726536
-0.48274
-0.77445
-0.476274
-0.822968
-0.469588
-0.872075
-0.464134
-0.921409
-0.458868
-0.969666
-0.454936
-0.450328
-1.01718
-0.0326372
-0.427228
-0.0906682
-0.514042
-0.150851
-0.507473
-0.208092
-0.502036
-0.261595
-0.493952
-0.315585
-0.484289
-0.369136
-0.476777
-0.42393
-0.468002
-0.477557
-0.462857
-0.529606
-0.456668
-0.581418
-0.449431
-0.633403
-0.442792
-0.685385
-0.437034
-0.7364
-0.431724
-0.785759
-0.426915
-0.833699
-0.421647
-0.881124
-0.416709
-0.928397
-0.411595
-0.976094
-0.40724
-0.403214
-1.02321
-0.0381037
-0.389124
-0.0967086
-0.455437
-0.15695
-0.447232
-0.217155
-0.44183
-0.274592
-0.436516
-0.32959
-0.429291
-0.382897
-0.42347
-0.435666
-0.415234
-0.490001
-0.408522
-0.542545
-0.404124
-0.593295
-0.398681
-0.643172
-0.392916
-0.693012
-0.387194
-0.743079
-0.381657
-0.793225
-0.376769
-0.842683
-0.37219
-0.891421
-0.367971
-0.939304
-0.363712
-0.986725
-0.359819
-0.355666
-1.03427
-0.0420227
-0.347102
-0.101397
-0.396063
-0.161432
-0.387197
-0.221422
-0.381841
-0.280874
-0.377064
-0.3389
-0.371265
-0.394538
-0.367833
-0.446176
-0.363595
-0.498611
-0.356087
-0.551961
-0.350775
-0.604768
-0.345874
-0.656341
-0.341343
-0.706823
-0.336713
-0.756338
-0.332142
-0.805683
-0.327424
-0.854855
-0.323018
-0.903965
-0.318861
-0.95279
-0.314887
-1.00129
-0.311318
-0.307787
-1.04917
-0.0439428
-0.303159
-0.0994287
-0.340577
-0.154561
-0.332064
-0.210123
-0.326279
-0.266501
-0.320686
-0.324402
-0.313364
-0.384695
-0.307539
-0.44302
-0.305271
-0.49763
-0.301477
-0.551513
-0.296891
-0.605104
-0.292282
-0.658337
-0.288109
-0.71081
-0.28424
-0.762435
-0.280516
-0.812885
-0.276974
-0.862697
-0.273205
-0.911842
-0.269716
-0.960632
-0.266096
-1.00911
-0.26284
-0.259359
-1.05754
-0.0473698
-0.255789
-0.112295
-0.275652
-0.175009
-0.26935
-0.233444
-0.267844
-0.288577
-0.265553
-0.340494
-0.261447
-0.393782
-0.254251
-0.449425
-0.249628
-0.504523
-0.246379
-0.558426
-0.242989
-0.610892
-0.239817
-0.662949
-0.236052
-0.714358
-0.232831
-0.765521
-0.229353
-0.816128
-0.226367
-0.866186
-0.223148
-0.915715
-0.220187
-0.964783
-0.217029
-1.01343
-0.214195
-0.211162
-1.06162
-0.0522788
-0.20351
-0.111038
-0.216892
-0.170004
-0.210384
-0.231242
-0.206607
-0.292469
-0.204326
-0.350065
-0.20385
-0.40356
-0.200756
-0.45715
-0.196038
-0.510907
-0.192622
-0.565119
-0.188777
-0.618766
-0.18617
-0.671882
-0.182936
-0.72431
-0.180404
-0.77584
-0.177823
-0.826939
-0.175269
-0.877058
-0.173028
-0.926696
-0.170549
-0.975378
-0.168347
-1.02369
-0.165881
-0.163707
-1.07115
-0.0575235
-0.145987
-0.114396
-0.16002
-0.168903
-0.155877
-0.224282
-0.151227
-0.282272
-0.146336
-0.341039
-0.145084
-0.398412
-0.143384
-0.453293
-0.141157
-0.507188
-0.138728
-0.560153
-0.135811
-0.612719
-0.133604
-0.664816
-0.130839
-0.716334
-0.128886
-0.767481
-0.126676
-0.818185
-0.124564
-0.868764
-0.122449
-0.918908
-0.120405
-0.968978
-0.118277
-1.01852
-0.116344
-0.114081
-1.06814
-0.0657986
-0.0801883
-0.133289
-0.0925292
-0.191871
-0.0972951
-0.248046
-0.0950523
-0.301192
-0.0931895
-0.355742
-0.0905336
-0.410758
-0.0883676
-0.465513
-0.0864019
-0.519536
-0.0847042
-0.572718
-0.0826294
-0.625309
-0.0810133
-0.67677
-0.0793781
-0.727628
-0.0780283
-0.778019
-0.0762843
-0.827776
-0.0748075
-0.877199
-0.0730255
-0.926159
-0.071445
-0.974794
-0.0696422
-1.02306
-0.0680781
-1.07086
-0.0662847
0.0425273
-0.266695
0.224168
0.115835
-0.857964
0.784656
0.180828
-1.38916
1.32417
0.203986
-1.59224
1.56908
0.209992
-1.609
1.60299
0.210944
-1.59489
1.59394
0.211722
-1.57329
1.57251
0.212265
-1.55444
1.55389
0.211741
-1.53616
1.53668
0.211302
-1.51925
1.51969
0.20975
-1.50316
1.50471
0.207864
-1.48814
1.49003
0.206067
-1.47437
1.47617
0.203704
-1.4601
1.46246
0.200322
-1.44525
1.44863
0.196
-1.42916
1.43348
0.191035
-1.41219
1.41715
0.186053
-1.39214
1.39712
0.180823
-1.37477
1.38
-1.3572
0.175657
1.36236
0.0426806
-0.309376
0.108835
-0.924118
0.160874
-1.4412
0.175641
-1.607
0.177978
-1.61134
0.175682
-1.5926
0.173011
-1.57062
0.169919
-1.55135
0.167254
-1.53349
0.163898
-1.5159
0.160942
-1.5002
0.157817
-1.48501
0.153908
-1.47046
0.149713
-1.4559
0.145479
-1.44102
0.141496
-1.42517
0.136717
-1.40741
0.130978
-1.3864
0.124698
-1.36849
-1.35112
0.118616
0.0356639
-0.34504
0.0940198
-0.982474
0.13414
-1.48132
0.141787
-1.61465
0.14104
-1.61059
0.1372
-1.58876
0.133884
-1.5673
0.130381
-1.54784
0.126089
-1.5292
0.121774
-1.51158
0.116545
-1.49498
0.110929
-1.4794
0.10546
-1.46499
0.0998523
-1.4503
0.0937521
-1.43492
0.0865289
-1.41795
0.0784719
-1.39935
0.0704724
-1.3784
0.0623923
-1.36041
-1.34331
0.054587
0.0320226
-0.377063
0.0828914
-1.03334
0.113267
-1.51169
0.116003
-1.61739
0.111716
-1.6063
0.105546
-1.58259
0.0994156
-1.56117
0.0928277
-1.54125
0.0862235
-1.5226
0.0791872
-1.50455
0.0723359
-1.48812
0.0652815
-1.47234
0.0576086
-1.45732
0.0495433
-1.44223
0.0412076
-1.42658
0.0332462
-1.40999
0.0250445
-1.39115
0.0162712
-1.36963
0.0071333
-1.35127
-1.33432
-0.00185755
0.0291174
-0.40618
0.0722505
-1.07648
0.0933009
-1.53274
0.0913228
-1.61541
0.083984
-1.59896
0.0761807
-1.57478
0.0678045
-1.5528
0.0592698
-1.53272
0.0505892
-1.51392
0.0417504
-1.49571
0.0324094
-1.47878
0.0229346
-1.46287
0.0134227
-1.44781
0.0039083
-1.43272
-0.00559446
-1.41708
-0.0158111
-1.39977
-0.0265825
-1.38038
-0.0373511
-1.35886
-0.0480459
-1.34057
-1.32383
-0.0585323
0.0272409
-0.433421
0.0641202
-1.11336
0.0758665
-1.54449
0.068405
-1.60795
0.0573459
-1.5879
0.0462776
-1.56371
0.0353288
-1.54185
0.0243574
-1.52175
0.0130881
-1.50265
0.00182513
-1.48444
-0.00957635
-1.46738
-0.021298
-1.45115
-0.033175
-1.43593
-0.0452359
-1.42066
-0.0575636
-1.40475
-0.0695914
-1.38774
-0.0817431
-1.36823
-0.0940595
-1.34654
-0.106807
-1.32783
-1.3114
-0.119236
0.0233362
-0.456757
0.0540456
-1.14406
0.0598329
-1.55028
0.0496557
-1.59777
0.0368127
-1.57506
0.023955
-1.55086
0.0105492
-1.52844
-0.00315946
-1.50804
-0.0164965
-1.48931
-0.030062
-1.47088
-0.0435676
-1.45388
-0.0569923
-1.43772
-0.0707268
-1.4222
-0.0844088
-1.40697
-0.0977276
-1.39143
-0.111004
-1.37447
-0.124116
-1.35511
-0.13723
-1.33343
-0.150224
-1.31483
-1.29874
-0.162893
0.0206517
-0.477409
0.0450794
-1.16849
0.0433122
-1.54851
0.028172
-1.58263
0.0115791
-1.55847
-0.00473596
-1.53454
-0.0207685
-1.51241
-0.0364769
-1.49233
-0.052567
-1.47322
-0.0682331
-1.45521
-0.084233
-1.43788
-0.100433
-1.42152
-0.11637
-1.40626
-0.132326
-1.39102
-0.148298
-1.37546
-0.16402
-1.35875
-0.179623
-1.33951
-0.194857
-1.31819
-0.210448
-1.29924
-1.28327
-0.225914
0.0179969
-0.495406
0.037486
-1.18798
0.0313618
-1.54239
0.014414
-1.56568
-0.00370012
-1.54035
-0.0217973
-1.51644
-0.0402979
-1.49391
-0.0591385
-1.47349
-0.0773139
-1.45505
-0.095767
-1.43676
-0.113707
-1.41994
-0.131499
-1.40373
-0.14959
-1.38817
-0.167497
-1.37311
-0.184936
-1.35802
-0.201697
-1.34198
-0.217933
-1.32327
-0.234229
-1.3019
-0.250804
-1.28267
-1.26666
-0.267412
0.0150341
-0.51044
0.0282295
-1.20118
0.0155174
-1.52967
-0.00607024
-1.54409
-0.0277339
-1.51869
-0.04914
-1.49504
-0.0701432
-1.47291
-0.0907414
-1.45289
-0.111661
-1.43413
-0.131774
-1.41665
-0.152247
-1.39946
-0.172667
-1.38331
-0.192727
-1.36811
-0.212747
-1.35309
-0.232514
-1.33825
-0.251925
-1.32257
-0.270647
-1.30455
-0.288578
-1.28397
-0.30651
-1.26473
-1.24897
-0.324198
0.013301
-0.523741
0.0223705
-1.21025
0.00674737
-1.51405
-0.0163528
-1.52099
-0.0397815
-1.49526
-0.0629993
-1.47182
-0.0865449
-1.44936
-0.110202
-1.42924
-0.133195
-1.41113
-0.15643
-1.39341
-0.17883
-1.37706
-0.201099
-1.36104
-0.223379
-1.34583
-0.245421
-1.33105
-0.267214
-1.31646
-0.288
-1.30179
-0.308215
-1.28434
-0.328234
-1.26395
-0.348772
-1.2442
-1.22855
-0.369196
0.0102176
-0.533958
0.0134085
-1.21344
-0.00792363
-1.49272
-0.0348718
-1.49405
-0.0616242
-1.46851
-0.0880678
-1.44538
-0.113927
-1.4235
-0.139735
-1.40343
-0.165637
-1.38523
-0.190651
-1.3684
-0.215794
-1.35192
-0.240533
-1.3363
-0.264921
-1.32144
-0.288968
-1.307
-0.312585
-1.29284
-0.335746
-1.27862
-0.357546
-1.26254
-0.378424
-1.24307
-0.399269
-1.22335
-1.20767
-0.420147
0.00896862
-0.542927
0.00869028
-1.21316
-0.015437
-1.46859
-0.0440768
-1.46541
-0.0725697
-1.44002
-0.10063
-1.41732
-0.128847
-1.39528
-0.156734
-1.37554
-0.184338
-1.35763
-0.212055
-1.34068
-0.238959
-1.32502
-0.265752
-1.30951
-0.292391
-1.2948
-0.318932
-1.28046
-0.345399
-1.26638
-0.370946
-1.25308
-0.395673
-1.23781
-0.419335
-1.21941
-0.443107
-1.19958
-1.18401
-0.466768
0.005788
-0.548715
0.000251801
-1.20762
-0.0284356
-1.4399
-0.0604537
-1.43339
-0.0919992
-1.40847
-0.123249
-1.38607
-0.153914
-1.36462
-0.18488
-1.34457
-0.215479
-1.32703
-0.24552
-1.31064
-0.275338
-1.2952
-0.304413
-1.28043
-0.332973
-1.26624
-0.36081
-1.25262
-0.388379
-1.23881
-0.415667
-1.22579
-0.441555
-1.21192
-0.466326
-1.19463
-0.4909
-1.17501
-1.15929
-0.51562
0.00482804
-0.553543
-0.00325535
-1.19954
-0.0339112
-1.40925
-0.0679129
-1.39939
-0.101339
-1.37505
-0.134192
-1.35321
-0.166767
-1.33205
-0.198873
-1.31247
-0.231259
-1.29464
-0.263398
-1.2785
-0.295177
-1.26342
-0.326896
-1.24871
-0.358487
-1.23465
-0.389808
-1.2213
-0.420686
-1.20793
-0.451072
-1.1954
-0.480479
-1.18252
-0.508001
-1.16711
-0.53478
-1.14823
-1.13253
-0.561545
0.00165904
-0.555202
-0.0127731
-1.18511
-0.0471449
-1.37488
-0.0838887
-1.36264
-0.119967
-1.33897
-0.1556
-1.31758
-0.19068
-1.29696
-0.22587
-1.27728
-0.260417
-1.2601
-0.295033
-1.24388
-0.328988
-1.22947
-0.362215
-1.21549
-0.39511
-1.20176
-0.42747
-1.18894
-0.459623
-1.17578
-0.491383
-1.16364
-0.522401
-1.1515
-0.552094
-1.13742
-0.580707
-1.11961
-1.10411
-0.609128
0.00129031
-0.556492
-0.0147915
-1.16903
-0.0503131
-1.33936
-0.0885897
-1.32437
-0.126454
-1.3011
-0.163936
-1.2801
-0.200675
-1.26023
-0.237154
-1.2408
-0.274145
-1.22311
-0.310634
-1.2074
-0.347408
-1.19269
-0.383633
-1.17926
-0.419684
-1.16571
-0.455446
-1.15318
-0.490789
-1.14043
-0.525939
-1.12849
-0.559868
-1.11757
-0.591884
-1.1054
-0.622061
-1.08944
-1.07389
-0.652278
-0.00120129
-0.555291
-0.0215022
-1.14872
-0.0621105
-1.29875
-0.103654
-1.28282
-0.144005
-1.26075
-0.183843
-1.24026
-0.222986
-1.22108
-0.261496
-1.20229
-0.299422
-1.18518
-0.337802
-1.16902
-0.375711
-1.15478
-0.413386
-1.14159
-0.450554
-1.12854
-0.487498
-1.11624
-0.524451
-1.10348
-0.561671
-1.09127
-0.599112
-1.08013
-0.635079
-1.06944
-0.668448
-1.05607
-1.04089
-0.701445
-0.00260439
-0.552687
-0.0256135
-1.12572
-0.0654975
-1.25886
-0.107525
-1.24079
-0.149102
-1.21918
-0.190465
-1.1989
-0.231025
-1.18052
-0.271347
-1.16197
-0.31192
-1.14461
-0.351825
-1.12911
-0.392428
-1.11418
-0.432642
-1.10137
-0.472835
-1.08834
-0.512396
-1.07668
-0.551482
-1.0644
-0.590637
-1.05212
-0.630006
-1.04076
-0.669749
-1.02969
-0.70703
-1.01879
-1.00538
-0.742544
-0.00419596
-0.0298283
-0.0746986
-0.119816
-0.163682
-0.207138
-0.249927
-0.291257
-0.33218
-0.373301
-0.413964
-0.454823
-0.495584
-0.53666
-0.577562
-0.618815
-0.660155
-0.702302
-0.745383
-0.786357
0.111672
-11.7525
11.8165
0.0654347
-10.9856
11.0318
0.0337497
-10.6758
10.7075
0.023079
-10.3308
10.3415
0.00655362
-10.0368
10.0533
-0.00046513
-9.74402
9.75104
-0.00639441
-9.5542
9.56013
-0.0117927
-9.35734
9.36274
-0.0147942
-9.22244
9.22545
-0.0147498
-9.08454
9.08449
-0.0135382
-9.01253
9.01132
-0.0135526
-8.91399
8.91401
-0.0105518
-8.85868
8.85568
-0.00608521
-8.78168
8.77721
0.000199233
-8.73963
8.73335
0.00607637
-8.66686
8.66099
0.0133408
-8.46686
8.45959
0.0158005
-7.58089
7.57843
0.00997686
-5.55477
5.56059
-2.27653
2.28651
0.0450427
-11.6789
0.00209594
-10.9426
-0.0269039
-10.6468
-0.0377777
-10.3199
-0.052743
-10.0218
-0.0580161
-9.73875
-0.0608104
-9.55141
-0.0628583
-9.35529
-0.0622325
-9.22307
-0.0583182
-9.08845
-0.0533757
-9.01747
-0.0494094
-8.91796
-0.0423582
-8.86573
-0.0335955
-8.79044
-0.0225926
-8.75063
-0.0115433
-8.67791
0.00147405
-8.47987
0.00949259
-7.58891
0.00817604
-5.55345
-2.26835
-0.0195514
-11.6048
-0.0683072
-10.8939
-0.0998545
-10.6152
-0.11065
-10.3091
-0.121415
-10.0111
-0.122229
-9.73794
-0.120942
-9.5527
-0.11839
-9.35784
-0.112929
-9.22853
-0.104246
-9.09713
-0.0950406
-9.02667
-0.0863237
-8.92667
-0.0744482
-8.87761
-0.0608182
-8.80407
-0.0449922
-8.76646
-0.0293549
-8.69355
-0.0108893
-8.49834
0.00269406
-7.60249
0.0067975
-5.55756
-2.26156
-0.0891587
-11.5175
-0.133997
-10.849
-0.161305
-10.5879
-0.172269
-10.2982
-0.180969
-10.0024
-0.179807
-9.7391
-0.175473
-9.55703
-0.169488
-9.36383
-0.160487
-9.23753
-0.148072
-9.10955
-0.135081
-9.03967
-0.122324
-8.93943
-0.106246
-8.89369
-0.0883352
-8.82198
-0.0677584
-8.78704
-0.0473164
-8.71399
-0.0229955
-8.52266
-0.00375392
-7.62173
0.00509815
-5.56641
-2.25646
-0.144849
-11.4312
-0.199485
-10.7944
-0.231826
-10.5556
-0.243011
-10.287
-0.247878
-9.99751
-0.24284
-9.74414
-0.234701
-9.56517
-0.224216
-9.37431
-0.21054
-9.25121
-0.193596
-9.12649
-0.176304
-9.05696
-0.15876
-8.95698
-0.13806
-8.91439
-0.115437
-8.84461
-0.0901561
-8.81232
-0.0653475
-8.7388
-0.0355672
-8.55244
-0.0105805
-7.64672
0.00362516
-5.58061
-2.25283
-0.215058
-11.3353
-0.265471
-10.744
-0.294581
-10.5265
-0.305087
-10.2765
-0.307543
-9.99505
-0.300477
-9.7512
-0.28916
-9.57649
-0.275202
-9.38827
-0.257915
-9.2685
-0.237332
-9.14708
-0.216253
-9.07804
-0.194558
-8.97867
-0.169667
-8.93928
-0.142816
-8.87146
-0.112811
-8.84232
-0.0831745
-8.76844
-0.0478203
-8.58779
-0.017322
-7.67722
0.00189339
-5.59983
-2.25094
-0.270029
-11.2282
-0.329286
-10.6847
-0.362767
-10.493
-0.373124
-10.2661
-0.372259
-9.99592
-0.362126
-9.76133
-0.347208
-9.5914
-0.328864
-9.40662
-0.306986
-9.29037
-0.282162
-9.1719
-0.256788
-9.10341
-0.230324
-9.00513
-0.201187
-8.96841
-0.169942
-8.9027
-0.135259
-8.87701
-0.101081
-8.80262
-0.0604013
-8.62847
-0.0243839
-7.71323
0.000169261
-5.62438
-2.25077
-0.333531
-11.1206
-0.393741
-10.6245
-0.426007
-10.4607
-0.435279
-10.2569
-0.432155
-9.99904
-0.419569
-9.77392
-0.401303
-9.60967
-0.379351
-9.42857
-0.353767
-9.31596
-0.325428
-9.20024
-0.296254
-9.13259
-0.26559
-9.0358
-0.232294
-9.00171
-0.196977
-8.93802
-0.157819
-8.91616
-0.118972
-8.84146
-0.0728542
-8.67459
-0.031263
-7.75483
-0.00154992
-5.6541
-2.25232
-0.391194
-10.9968
-0.45715
-10.5586
-0.49227
-10.4256
-0.500069
-10.2491
-0.494482
-10.0046
-0.479534
-9.78887
-0.457829
-9.63138
-0.431573
-9.45482
-0.401629
-9.3459
-0.36924
-9.23263
-0.335758
-9.16607
-0.300566
-9.07099
-0.263342
-9.03893
-0.223956
-8.97741
-0.180822
-8.9593
-0.137366
-8.88492
-0.0855571
-8.7264
-0.0377224
-7.80266
-0.0028515
-5.68897
-2.25517
-0.449212
-10.8718
-0.519639
-10.4881
-0.555198
-10.3901
-0.562335
-10.2419
-0.553969
-10.013
-0.536102
-9.80674
-0.511
-9.65648
-0.481173
-9.48465
-0.447607
-9.37947
-0.411647
-9.26859
-0.374257
-9.20346
-0.334985
-9.11026
-0.293823
-9.08009
-0.250445
-9.02079
-0.203561
-9.00618
-0.155629
-8.93285
-0.0985369
-8.78349
-0.0446827
-7.85651
-0.0043223
-5.72933
-2.25949
-0.507355
-10.7336
-0.581074
-10.4144
-0.618248
-10.3529
-0.623544
-10.2366
-0.613747
-10.0228
-0.593894
-9.82659
-0.565444
-9.68493
-0.531638
-9.51846
-0.494039
-9.41707
-0.454081
-9.30854
-0.412474
-9.24507
-0.369013
-9.15372
-0.324024
-9.12508
-0.276767
-9.06804
-0.225937
-9.05701
-0.174096
-8.98469
-0.111614
-8.84597
-0.0519175
-7.91621
-0.00627178
-5.77497
-2.26576
-0.563646
-10.5901
-0.641855
-10.3362
-0.679973
-10.3148
-0.685208
-10.2314
-0.67197
-10.036
-0.648765
-9.84979
-0.617068
-9.71662
-0.57991
-9.55562
-0.538739
-9.45824
-0.495165
-9.35212
-0.449732
-9.2905
-0.402325
-9.20113
-0.353549
-9.17386
-0.302506
-9.11909
-0.247878
-9.11164
-0.191985
-9.04059
-0.124133
-8.91383
-0.0586936
-7.98165
-0.0081361
-5.82553
-2.2739
-0.618932
-10.438
-0.699462
-10.2557
-0.738486
-10.2757
-0.742891
-10.227
-0.729322
-10.0496
-0.703985
-9.87513
-0.668957
-9.75165
-0.628311
-9.59626
-0.583373
-9.50317
-0.535899
-9.39959
-0.486476
-9.33992
-0.435165
-9.25244
-0.382692
-9.22633
-0.328051
-9.17373
-0.269388
-9.1703
-0.209659
-9.10032
-0.137119
-8.98637
-0.0658661
-8.0529
-0.0101171
-5.88128
-2.28402
-0.675048
-10.2785
-0.758721
-10.172
-0.798441
-10.236
-0.802873
-10.2226
-0.785436
-10.067
-0.756611
-9.90396
-0.718614
-9.78965
-0.674687
-9.64019
-0.62635
-9.55151
-0.57537
-9.45057
-0.522299
-9.39299
-0.467114
-9.30763
-0.410962
-9.28248
-0.35309
-9.2316
-0.290662
-9.23273
-0.22698
-9.164
-0.149878
-9.06347
-0.0729546
-8.12983
-0.0123056
-5.94193
-2.29632
-0.726617
-10.1135
-0.811415
-10.0872
-0.851715
-10.1957
-0.857303
-10.217
-0.840022
-10.0843
-0.808994
-9.93498
-0.767875
-9.83077
-0.720779
-9.68729
-0.668987
-9.6033
-0.614229
-9.50533
-0.557381
-9.44984
-0.498491
-9.36652
-0.438712
-9.34226
-0.377413
-9.2929
-0.311488
-9.29866
-0.24398
-9.23151
-0.16307
-9.14438
-0.0803065
-8.21259
-0.0145989
-6.00764
-2.31092
-0.782367
-9.94023
-0.86936
-10.0002
-0.909422
-10.1557
-0.914578
-10.2118
-0.893373
-10.1055
-0.85902
-9.96934
-0.815241
-9.87455
-0.764819
-9.73771
-0.709859
-9.65826
-0.65178
-9.56341
-0.591524
-9.5101
-0.529067
-9.42897
-0.465732
-9.4056
-0.400959
-9.35767
-0.331858
-9.36776
-0.260664
-9.3027
-0.176441
-9.2286
-0.0878125
-8.30122
-0.0170686
-6.07838
-2.32799
-0.831186
-9.76132
-0.917807
-9.91359
-0.95749
-10.116
-0.965126
-10.2042
-0.94454
-10.1261
-0.908056
-10.0058
-0.861427
-9.92118
-0.808138
-9.791
-0.750006
-9.71639
-0.688413
-9.625
-0.624662
-9.57385
-0.558722
-9.49491
-0.491825
-9.47249
-0.4236
-9.4259
-0.351832
-9.43953
-0.277273
-9.37726
-0.190481
-9.31539
-0.0960244
-8.39568
-0.0198086
-6.1546
-2.3478
-0.889632
-9.57314
-0.977515
-9.82571
-1.0139
-10.0796
-1.01968
-10.1984
-0.995206
-10.1506
-0.955359
-10.0457
-0.906235
-9.9703
-0.849628
-9.8476
-0.788569
-9.77745
-0.723878
-9.68969
-0.656973
-9.64075
-0.587709
-9.56418
-0.517347
-9.54286
-0.445513
-9.49773
-0.371085
-9.51395
-0.29327
-9.45507
-0.20448
-9.40418
-0.104596
-8.49556
-0.0231441
-6.23605
-2.37094
-0.92804
-9.38764
-1.02409
-9.72966
-1.06158
-10.0421
-1.06903
-10.1909
-1.04521
-10.1744
-1.00285
-10.088
-0.950562
-10.0226
-0.890912
-9.90725
-0.826618
-9.84175
-0.758585
-9.75773
-0.688264
-9.71107
-0.615696
-9.63674
-0.542014
-9.61654
-0.466804
-9.57294
-0.389463
-9.59129
-0.308621
-9.53591
-0.217563
-9.49524
-0.113107
-8.60002
-0.0270029
-6.32215
-2.39795
-0.974049
-9.19995
-1.07056
-9.63314
-1.10611
-10.0066
-1.11211
-10.1849
-1.08821
-10.1983
-1.04434
-10.1319
-0.990835
-10.0761
-0.92845
-9.96964
-0.86208
-9.90812
-0.791159
-9.82865
-0.718327
-9.7839
-0.642405
-9.71267
-0.565682
-9.69326
-0.487273
-9.65135
-0.407926
-9.67064
-0.323397
-9.62044
-0.228647
-9.58999
-0.120232
-8.70843
-0.029842
-6.41254
-2.42779
8.23296
-8.35778
-9.07513
7.221
-8.62119
6.20764
-8.9932
5.19748
-9.17478
4.32593
-9.32676
3.57823
-9.3842
2.9466
-9.44446
2.43106
-9.45409
2.00222
-9.47928
1.6449
-9.47133
1.33832
-9.47733
1.09081
-9.46515
0.883245
-9.4857
0.705592
-9.4737
0.542832
-9.50788
0.414227
-9.49184
0.28688
-9.46264
0.201476
-8.62303
0.0614064
-6.27247
-2.36638
4.79523
-8.00637
-5.14663
4.37377
-8.19973
3.90865
-8.52808
3.42797
-8.6941
2.96237
-8.86117
2.54427
-8.9661
2.16828
-9.06847
1.84607
-9.13188
1.55995
-9.19316
1.31939
-9.23077
1.11044
-9.26839
0.939229
-9.29393
0.776578
-9.32305
0.637391
-9.33451
0.49343
-9.36392
0.374852
-9.37326
0.226133
-9.31392
0.110777
-8.50767
-0.0735064
-6.08819
-2.43989
3.42599
-7.90965
-3.52271
3.30837
-8.0821
3.08722
-8.30693
2.84776
-8.45464
2.58357
-8.59698
2.32737
-8.70989
2.07177
-8.81287
1.83176
-8.89187
1.60176
-8.96315
1.38739
-9.0164
1.18567
-9.06666
0.997074
-9.10534
0.811825
-9.1378
0.644266
-9.16695
0.476383
-9.19604
0.326004
-9.22288
0.203096
-9.19101
0.11479
-8.41936
0.0196929
-5.99309
-2.4202
2.15282
-7.92746
-2.13501
2.12892
-8.05821
2.03246
-8.21047
1.92126
-8.34344
1.77861
-8.45433
1.62275
-8.55404
1.45498
-8.6451
1.29341
-8.7303
1.13317
-8.80291
0.980493
-8.86373
0.833914
-8.92009
0.695992
-8.96742
0.570707
-9.01252
0.459493
-9.05574
0.358868
-9.09541
0.262434
-9.12645
0.157282
-9.08586
0.109089
-8.37117
0.0747525
-5.95876
-2.34544
1.41088
-7.99137
-1.34697
1.43972
-8.08705
1.4372
-8.20796
1.39892
-8.30516
1.32814
-8.38355
1.2428
-8.4687
1.14494
-8.54724
1.0347
-8.62006
0.918288
-8.6865
0.79996
-8.7454
0.682411
-8.80254
0.568049
-8.85306
0.45701
-8.90148
0.349152
-8.94788
0.240298
-8.98656
0.14327
-9.02942
0.0576382
-9.00023
0.0324966
-8.34603
0.0489171
-5.97518
-2.29653
0.949645
-8.05498
-0.886039
0.989576
-8.12698
0.968738
-8.18712
0.928944
-8.26537
0.887728
-8.34233
0.827985
-8.40895
0.761761
-8.48102
0.683941
-8.54224
0.59833
-8.60089
0.508718
-8.65578
0.418055
-8.71187
0.327859
-8.76286
0.2393
-8.81292
0.147768
-8.85635
0.0678532
-8.90664
-0.00886308
-8.9527
-0.0842393
-8.92485
-0.0689873
-8.36128
0.0345234
-6.07869
-2.262
0.57097
-8.09176
-0.534191
0.588107
-8.14411
0.60258
-8.20159
0.603057
-8.26584
0.58761
-8.32688
0.555698
-8.37704
0.50541
-8.43073
0.446803
-8.48363
0.381748
-8.53584
0.309068
-8.5831
0.233355
-8.63616
0.153267
-8.68277
0.0740556
-8.73371
-0.00157425
-8.78072
-0.0744893
-8.83373
-0.150525
-8.87667
-0.216186
-8.85919
-0.189632
-8.38784
-0.0156092
-6.25271
-2.27761
0.37671
-8.12551
-0.34296
0.397099
-8.1645
0.403653
-8.20815
0.388171
-8.25036
0.35521
-8.29392
0.319686
-8.34152
0.275334
-8.38638
0.219303
-8.4276
0.158483
-8.47502
0.0946292
-8.51925
0.026653
-8.56818
-0.0456625
-8.61046
-0.119888
-8.65948
-0.199858
-8.70075
-0.282054
-8.75153
-0.360246
-8.79848
-0.414284
-8.80516
-0.374349
-8.42777
-0.112768
-6.51429
-2.39038
0.197922
-8.13658
-0.186852
0.199817
-8.1664
0.193789
-8.20212
0.182127
-8.2387
0.164512
-8.27631
0.134305
-8.31131
0.09728
-8.34935
0.0507816
-8.3811
-0.00497284
-8.41926
-0.0649774
-8.45925
-0.132691
-8.50047
-0.205785
-8.53736
-0.284069
-8.5812
-0.366785
-8.61803
-0.451009
-8.66731
-0.543211
-8.70627
-0.62058
-8.72779
-0.590691
-8.45766
-0.258123
-6.84686
-2.6485
0.11877
-8.14495
-0.110402
0.120275
-8.1679
0.113164
-8.19501
0.0952406
-8.22078
0.0676003
-8.24867
0.0280238
-8.27173
-0.0214912
-8.29984
-0.0737712
-8.32882
-0.128612
-8.36442
-0.192301
-8.39556
-0.264003
-8.42877
-0.341926
-8.45944
-0.427854
-8.49527
-0.517685
-8.5282
-0.616694
-8.5683
-0.725888
-8.59708
-0.825173
-8.6285
-0.829648
-8.45318
-0.477204
-7.1993
-3.12571
0.0592202
-8.13863
-0.0655377
0.0455686
-8.15425
0.0243545
-8.17379
-0.00416018
-8.19226
-0.0379877
-8.21484
-0.0730697
-8.23665
-0.112349
-8.26056
-0.158164
-8.283
-0.214203
-8.30838
-0.27823
-8.33153
-0.350382
-8.35662
-0.430756
-8.37907
-0.522685
-8.40334
-0.626101
-8.42478
-0.74303
-8.45137
-0.871551
-8.46856
-1.00934
-8.49071
-1.04177
-8.42075
-0.745767
-7.49531
-3.87147
0.0377394
-8.12692
-0.0494471
0.0210198
-8.13753
-5.69065e-05
-8.15271
-0.0262243
-8.16609
-0.0590912
-8.18197
-0.0983241
-8.19742
-0.141503
-8.21738
-0.190525
-8.23398
-0.248073
-8.25084
-0.314208
-8.2654
-0.388344
-8.28248
-0.470633
-8.29678
-0.563714
-8.31026
-0.665685
-8.32281
-0.785914
-8.33114
-0.911426
-8.34305
-1.06458
-8.33756
-1.18135
-8.30399
-0.975265
-7.70139
-4.84674
0.0385085
-8.109
-0.0564323
0.0180487
-8.11707
-0.00585864
-8.12881
-0.0331713
-8.13878
-0.064371
-8.15077
-0.100715
-8.16108
-0.145215
-8.17288
-0.196096
-8.1831
-0.250868
-8.19606
-0.311841
-8.20442
-0.37909
-8.21523
-0.454199
-8.22167
-0.538146
-8.22631
-0.63197
-8.22899
-0.736258
-8.22685
-0.857443
-8.22186
-0.988101
-8.2069
-1.11285
-8.17924
-0.95702
-7.85722
-5.80376
0.0538421
-8.09177
-0.0710676
0.0340309
-8.09726
0.010671
-8.10545
-0.0161809
-8.11193
-0.0470546
-8.1199
-0.0827925
-8.12534
-0.121822
-8.13385
-0.166915
-8.13801
-0.217752
-8.14523
-0.272856
-8.14932
-0.333653
-8.15443
-0.4009
-8.15442
-0.470596
-8.15662
-0.548172
-8.15141
-0.629468
-8.14556
-0.724258
-8.12707
-0.821481
-8.10968
-0.922179
-8.07854
-0.82778
-7.95162
-6.63154
0.0584959
-8.07102
-0.0792446
0.0360955
-8.07486
0.0114847
-8.08084
-0.0159144
-8.08453
-0.0455429
-8.09027
-0.0771242
-8.09376
-0.112591
-8.09838
-0.148314
-8.10229
-0.187005
-8.10654
-0.228097
-8.10823
-0.273484
-8.10905
-0.32129
-8.10662
-0.372311
-8.1056
-0.427923
-8.0958
-0.483856
-8.08963
-0.537498
-8.07343
-0.591305
-8.05587
-0.653725
-8.01612
-0.62819
-7.97715
-7.25973
0.0825834
-8.05421
-0.0993964
0.0646505
-8.05693
0.0449898
-8.06118
0.0236135
-8.06315
5.90874e-05
-8.06672
-0.0247723
-8.06893
-0.0510454
-8.07211
-0.0804641
-8.07287
-0.11181
-8.07519
-0.144955
-8.07508
-0.177902
-8.0761
-0.212614
-8.0719
-0.248167
-8.07004
-0.285289
-8.05868
-0.317148
-8.05777
-0.350165
-8.04041
-0.377773
-8.02826
-0.385925
-8.00797
-0.363934
-7.99914
-7.62366
0.0870724
-8.04152
-0.0997652
0.0722956
-8.04215
0.0548971
-8.04378
0.036651
-8.04491
0.016594
-8.04666
-0.00463348
-8.0477
-0.0277719
-8.04897
-0.0511022
-8.04954
-0.0756636
-8.05063
-0.100594
-8.05015
-0.125226
-8.05147
-0.148803
-8.04833
-0.171787
-8.04706
-0.194043