/*--------------------------------*- C++ -*----------------------------------*\
  =========                 |
  \\      /  F ield         | OpenFOAM: The Open Source CFD Toolbox
   \\    /   O peration     | Website:  https://openfoam.org
    \\  /    A nd           | Version:  9
     \\/     M anipulation  |
\*---------------------------------------------------------------------------*/
FoamFile
{
    format      ascii;
    class       volVectorField;
    location    "8.4";
    object      U;
}
// * * * * * * * * * * * * * * * * * * * * * * * * * * * * * * * * * * * * * //

dimensions      [0 1 -1 0 0 0 0];

internalField   nonuniform List<vector> 
46400
(
(9.77246 -9.5179 -5.14025e-19)
(19.5798 -18.8551 4.83723e-19)
(20.9784 -21.0697 -8.08562e-20)
(20.2615 -21.2005 -1.15837e-20)
(19.6206 -21.1992 -6.33303e-20)
(18.9042 -21.224 -3.54367e-19)
(18.2899 -21.2532 1.59273e-19)
(17.6917 -21.2817 -2.08198e-21)
(17.1065 -21.312 -8.33688e-21)
(16.5572 -21.3016 1.76757e-20)
(16.0368 -21.3511 -2.59985e-20)
(15.5633 -21.3789 0)
(15.1077 -21.4367 1.95452e-19)
(14.6646 -21.4513 -2.31946e-19)
(14.2205 -21.4556 -3.88505e-19)
(13.7882 -21.434 -1.06403e-19)
(13.3816 -21.4628 -4.96792e-20)
(13.0202 -21.3926 3.52972e-19)
(12.6108 -21.379 5.39874e-19)
(12.1517 -21.6635 -4.99286e-19)
(10.0711 -8.98399 0)
(19.7055 -17.6159 -4.1542e-20)
(20.995 -19.618 0)
(20.1714 -19.7292 -1.72864e-19)
(19.4876 -19.7363 1.12145e-19)
(18.7747 -19.8378 -2.69881e-20)
(18.1445 -19.8786 0)
(17.5272 -19.9573 2.08197e-21)
(16.9516 -19.9984 8.33706e-21)
(16.4163 -20.0744 -1.76761e-20)
(15.8776 -20.0915 3.90787e-19)
(15.4131 -20.1821 5.70164e-20)
(14.9392 -20.2233 -3.69149e-19)
(14.5308 -20.3222 0)
(14.1497 -20.4095 5.17611e-20)
(13.7522 -20.447 5.67623e-20)
(13.3599 -20.4698 0)
(13.0338 -20.4609 -6.49949e-19)
(12.7002 -20.4485 -1.78978e-19)
(12.2246 -20.6421 6.66075e-19)
(10.2721 -8.4423 -1.15976e-19)
(19.7322 -16.4224 1.69277e-20)
(20.6761 -17.9268 -6.70249e-20)
(19.9256 -18.1756 5.703e-20)
(19.3121 -18.2715 -5.59875e-20)
(18.6057 -18.3789 0)
(17.9908 -18.4961 -4.45243e-19)
(17.4232 -18.6271 3.77111e-19)
(16.8465 -18.7414 -5.89573e-19)
(16.3186 -18.8221 5.87205e-19)
(15.8 -18.9373 6.11813e-19)
(15.3235 -19.0057 -4.24996e-20)
(14.8728 -19.1235 -5.45092e-19)
(14.4284 -19.1809 0)
(14.0164 -19.2956 7.46287e-19)
(13.6245 -19.3676 -7.34995e-19)
(13.2442 -19.4738 0)
(12.924 -19.5063 -2.21812e-20)
(12.5809 -19.6515 8.80778e-20)
(12.1653 -19.9316 -8.64369e-19)
(10.4187 -7.88101 -5.44795e-20)
(19.6193 -15.1258 -1.96236e-21)
(20.4643 -16.5405 1.75405e-19)
(19.6213 -16.7279 -1.73476e-19)
(18.966 -16.8561 -1.87758e-19)
(18.2887 -17.0279 2.64474e-19)
(17.6399 -17.1415 3.99546e-19)
(17.0547 -17.2969 -1.06284e-18)
(16.5029 -17.4622 9.05387e-19)
(15.9903 -17.6059 -8.30176e-20)
(15.4755 -17.7218 0)
(15.0305 -17.8832 9.29763e-20)
(14.5873 -18.0008 -9.69875e-20)
(14.1786 -18.1313 0)
(13.824 -18.2842 9.41013e-19)
(13.4505 -18.4041 -7.96778e-19)
(13.0715 -18.4815 0)
(12.7326 -18.5215 1.10072e-19)
(12.3977 -18.624 1.29237e-19)
(11.9692 -18.9386 1.03414e-18)
(10.5778 -7.29097 0)
(19.3881 -13.7864 0)
(19.9621 -14.9096 -3.45214e-19)
(19.2124 -15.2394 2.28597e-19)
(18.6053 -15.435 -5.07442e-19)
(17.9347 -15.6401 4.18296e-19)
(17.3133 -15.8362 0)
(16.7417 -16.0173 5.02249e-19)
(16.1796 -16.2176 -6.04e-19)
(15.6924 -16.4212 -1.45984e-19)
(15.1718 -16.5794 -1.48492e-19)
(14.7051 -16.7334 0)
(14.2855 -16.9401 1.1247e-18)
(13.8406 -17.0522 -1.10712e-18)
(13.4368 -17.2194 0)
(13.1034 -17.4099 -1.27849e-18)
(12.7655 -17.6055 1.13147e-18)
(12.4458 -17.6962 1.15249e-18)
(12.101 -17.8387 -1.24496e-18)
(11.6958 -18.159 0)
(10.8234 -6.70414 0)
(19.0113 -12.4233 0)
(19.5131 -13.5217 0)
(18.6618 -13.8039 -4.11892e-20)
(18.0229 -14.0682 0)
(17.3959 -14.3104 0)
(16.7591 -14.5284 0)
(16.2064 -14.7438 -1.72373e-19)
(15.6579 -14.9725 0)
(15.1911 -15.2094 1.45992e-19)
(14.7346 -15.4541 -2.89314e-20)
(14.2743 -15.6166 -1.50549e-18)
(13.8844 -15.8585 1.12817e-18)
(13.498 -16.04 -1.5126e-18)
(13.1201 -16.2204 1.13624e-18)
(12.7402 -16.3712 0)
(12.4055 -16.5644 -1.32866e-18)
(12.1048 -16.7136 1.13363e-18)
(11.7862 -16.8888 0)
(11.366 -17.2295 -1.82891e-19)
(11.1016 -6.22234 5.75103e-19)
(18.475 -11.0458 1.77351e-19)
(18.7213 -11.9529 6.86241e-19)
(18.0183 -12.361 -7.17081e-19)
(17.4466 -12.728 -7.32843e-19)
(16.8532 -13.0497 1.4671e-18)
(16.2449 -13.3293 -1.69541e-18)
(15.6919 -13.5723 1.51768e-19)
(15.1345 -13.8134 5.47132e-19)
(14.6556 -14.0652 0)
(14.2057 -14.3481 -2.79408e-20)
(13.7553 -14.5763 -2.67246e-20)
(13.3441 -14.8123 1.78226e-19)
(12.9647 -15.0551 1.50941e-18)
(12.5864 -15.2576 -1.33268e-18)
(12.2679 -15.4987 -1.71362e-18)
(11.9321 -15.703 1.49153e-18)
(11.6281 -15.8611 -2.08476e-20)
(11.3298 -16.0581 -1.91683e-19)
(10.9576 -16.4211 -1.38322e-18)
(11.4119 -5.69702 -2.09005e-19)
(17.8882 -9.87218 4.37275e-20)
(17.9918 -10.6799 -2.28696e-19)
(17.1998 -11.0413 -9.07549e-19)
(16.5721 -11.4314 6.18584e-19)
(16.0667 -11.797 0)
(15.5041 -12.1499 1.32716e-18)
(15.0143 -12.4395 -6.37113e-19)
(14.4958 -12.7215 4.40215e-19)
(14.0183 -12.9476 2.33571e-19)
(13.6068 -13.2504 -4.42775e-19)
(13.2021 -13.4988 1.07076e-18)
(12.8256 -13.7877 2.28197e-19)
(12.4747 -14.0298 -1.29331e-18)
(12.1224 -14.2935 3.62503e-18)
(11.7493 -14.4675 -1.48056e-18)
(11.4668 -14.7663 1.89018e-18)
(11.1793 -14.9549 -1.23471e-18)
(10.8751 -15.1602 4.04776e-19)
(10.4797 -15.5215 1.97384e-18)
(11.6809 -5.23074 1.08769e-18)
(16.9821 -8.59068 -2.23605e-19)
(16.8693 -9.30611 -3.89403e-20)
(16.3199 -9.77293 5.0202e-19)
(15.7922 -10.2696 2.34605e-19)
(15.2894 -10.681 2.68174e-19)
(14.7634 -11.0739 -1.25039e-18)
(14.2901 -11.4274 7.61473e-19)
(13.8178 -11.7727 -2.34793e-19)
(13.3511 -12.0459 -2.33565e-19)
(12.9155 -12.3405 -2.32046e-19)
(12.4875 -12.5854 -2.54479e-19)
(12.1109 -12.872 -4.79585e-19)
(11.7696 -13.1502 1.67681e-18)
(11.464 -13.4404 -2.34203e-18)
(11.1405 -13.6849 -2.41548e-19)
(10.797 -13.8911 1.95945e-20)
(10.5602 -14.154 -1.78819e-18)
(10.3246 -14.3937 1.33146e-18)
(9.9828 -14.7746 -2.14249e-18)
(11.7671 -4.85179 1.00097e-18)
(16.1654 -7.49728 -2.57431e-18)
(15.9518 -8.22945 1.70984e-18)
(15.3328 -8.62033 -2.69234e-19)
(14.7238 -9.08653 -3.01068e-19)
(14.3338 -9.54042 1.17133e-18)
(13.8652 -9.99641 -1.41671e-18)
(13.4316 -10.3401 0)
(13.0238 -10.752 1.1076e-18)
(12.6036 -11.046 -1.08919e-18)
(12.2467 -11.4087 -7.99285e-19)
(11.8705 -11.68 1.04041e-18)
(11.4872 -11.9525 2.51419e-19)
(11.1553 -12.2243 -1.03631e-18)
(10.8553 -12.5187 2.44141e-19)
(10.581 -12.8103 1.24716e-18)
(10.2834 -13.0633 -2.21945e-18)
(9.97643 -13.2632 1.4645e-18)
(9.73927 -13.5144 -1.69736e-20)
(9.45195 -13.9274 -2.06854e-18)
(11.6114 -4.38016 1.41014e-18)
(15.0379 -6.43367 -9.67156e-19)
(14.7211 -7.12083 6.51997e-19)
(14.2999 -7.62045 1.36098e-20)
(13.8244 -8.15563 -1.28972e-18)
(13.37 -8.58767 -1.22878e-18)
(12.9765 -9.10495 1.53054e-18)
(12.5688 -9.50743 -9.06908e-19)
(12.1721 -9.92917 1.20415e-18)
(11.7813 -10.2846 0)
(11.3977 -10.6356 2.23221e-20)
(11.0719 -10.9812 2.77187e-19)
(10.7164 -11.275 2.93545e-19)
(10.3754 -11.5448 -2.8854e-19)
(10.0681 -11.8221 0)
(9.8077 -12.1103 2.78651e-19)
(9.55898 -12.4047 0)
(9.31384 -12.6378 5.21648e-19)
(9.04711 -12.854 2.55914e-18)
(8.75645 -13.191 -7.71963e-21)
(11.2188 -3.83516 7.90005e-19)
(14.0417 -5.51594 -1.67026e-19)
(13.702 -6.22831 -2.48253e-18)
(13.1909 -6.66036 1.39033e-18)
(12.6578 -7.16646 3.30679e-19)
(12.2869 -7.62719 -3.26719e-19)
(11.8918 -8.11563 -1.34269e-18)
(11.5504 -8.56031 1.00157e-18)
(11.2215 -9.0076 0)
(10.8828 -9.39416 0)
(10.5613 -9.78502 -1.56005e-18)
(10.2673 -10.1481 1.23627e-18)
(9.9844 -10.5099 -2.93532e-19)
(9.68986 -10.814 -9.02205e-19)
(9.39583 -11.1039 3.2473e-21)
(9.12501 -11.3784 2.02059e-18)
(8.89491 -11.6797 -1.13068e-18)
(8.68543 -11.9558 8.37554e-19)
(8.50189 -12.241 -1.35474e-18)
(8.25219 -12.5932 0)
(10.6455 -3.26633 -6.97404e-19)
(12.7373 -4.61211 1.14476e-18)
(12.3785 -5.32696 1.97203e-19)
(12.1208 -5.90778 1.94292e-19)
(11.6968 -6.44077 0)
(11.2982 -6.8736 1.46013e-18)
(10.9558 -7.3723 -1.43446e-18)
(10.6221 -7.79722 1.81425e-19)
(10.319 -8.27937 0)
(10.0029 -8.65939 1.35853e-18)
(9.67777 -9.05558 -1.16487e-18)
(9.39801 -9.41539 1.30745e-18)
(9.1367 -9.80121 -1.28667e-18)
(8.89161 -10.1446 1.25742e-18)
(8.6422 -10.4851 -1.07976e-18)
(8.3819 -10.7646 -1.20903e-18)
(8.1332 -11.0567 2.37674e-18)
(7.89654 -11.3 -1.01902e-18)
(7.69125 -11.5755 1.46237e-19)
(7.47819 -11.9142 1.23081e-18)
(9.87049 -2.69077 -5.6293e-19)
(11.5854 -3.83439 6.18833e-19)
(11.1988 -4.55897 -1.97203e-19)
(10.8544 -5.10686 -1.94265e-19)
(10.523 -5.75918 0)
(10.1663 -6.21759 0)
(9.82875 -6.74513 0)
(9.47396 -7.13556 -3.72675e-19)
(9.23249 -7.6315 -1.46209e-18)
(8.99759 -8.05747 2.87104e-18)
(8.71808 -8.46637 -1.58125e-18)
(8.45152 -8.81531 -1.76276e-19)
(8.19945 -9.18217 0)
(7.97601 -9.5164 0)
(7.77666 -9.87419 -3.23947e-19)
(7.59228 -10.1973 0)
(7.40912 -10.5231 1.24289e-18)
(7.23198 -10.8042 -1.52934e-18)
(7.05337 -11.085 -1.33833e-18)
(6.86005 -11.4183 1.29705e-18)
(8.97236 -2.13543 5.90711e-19)
(10.1619 -3.09242 1.09389e-18)
(9.77644 -3.82101 1.86485e-21)
(9.57073 -4.40909 4.68777e-22)
(9.31337 -5.07527 2.11994e-19)
(9.05948 -5.62015 -6.0763e-19)
(8.83504 -6.19595 0)
(8.56678 -6.64892 -5.90887e-19)
(8.24554 -7.06997 1.98807e-19)
(8.04527 -7.52275 7.53136e-19)
(7.84438 -7.95827 7.34074e-19)
(7.63534 -8.36373 -5.45974e-19)
(7.41711 -8.74132 1.40658e-18)
(7.19351 -9.0907 -1.20871e-18)
(6.97732 -9.42569 1.51312e-18)
(6.77192 -9.7496 -2.81448e-18)
(6.58451 -10.0687 1.29926e-18)
(6.4043 -10.3668 1.55599e-19)
(6.24578 -10.6629 1.23674e-18)
(6.07172 -10.9972 -1.34778e-18)
(7.98529 -1.63332 2.06148e-19)
(8.9326 -2.4657 -2.2292e-19)
(8.58745 -3.13466 9.02469e-19)
(8.29464 -3.66669 -8.85781e-19)
(8.04984 -4.28097 -4.33794e-19)
(7.7885 -4.82114 -1.05856e-18)
(7.60038 -5.41914 2.71824e-21)
(7.44486 -6.00119 8.18167e-19)
(7.19987 -6.49539 -1.95848e-19)
(6.95004 -6.94386 0)
(6.72482 -7.38853 0)
(6.53722 -7.81257 0)
(6.3606 -8.22631 0)
(6.2043 -8.61328 6.10659e-21)
(6.03888 -8.98296 0)
(5.8872 -9.32436 1.68447e-19)
(5.73189 -9.66004 6.69033e-19)
(5.58955 -9.96457 -1.96858e-18)
(5.44642 -10.2674 1.45336e-18)
(5.30235 -10.6039 -1.38538e-18)
(6.9033 -1.17885 0)
(7.59376 -2.00912 -1.21293e-19)
(7.2752 -2.8128 0)
(7.09762 -3.43581 3.42583e-19)
(6.86862 -4.05204 -2.29936e-19)
(6.59587 -4.56045 -8.80947e-19)
(6.31905 -5.04314 3.50218e-21)
(6.18301 -5.56836 8.46985e-19)
(6.07382 -6.09049 -8.24483e-19)
(5.94361 -6.56577 1.61698e-18)
(5.79226 -7.02396 -4.74269e-21)
(5.63656 -7.43174 -7.75561e-19)
(5.4851 -7.85336 7.53485e-19)
(5.33339 -8.22038 -9.23695e-19)
(5.19891 -8.61313 0)
(5.05311 -8.94611 -7.04394e-19)
(4.92181 -9.30619 6.9388e-19)
(4.78553 -9.60561 0)
(4.66477 -9.92756 -1.63089e-19)
(4.52938 -10.2514 0)
(5.7092 -0.845105 1.20083e-19)
(5.82824 -1.60338 1.21549e-19)
(5.66205 -2.25793 0)
(5.60687 -2.96168 4.71213e-19)
(5.57245 -3.62205 -5.8356e-19)
(5.50508 -4.2767 3.3886e-19)
(5.30663 -4.79045 -1.0025e-18)
(5.09291 -5.29416 4.36206e-19)
(4.92243 -5.77972 -1.07559e-19)
(4.77161 -6.25565 0)
(4.65467 -6.72652 -1.02726e-19)
(4.52234 -7.1567 -1.00391e-19)
(4.41101 -7.59126 -9.81098e-20)
(4.29839 -7.97714 0)
(4.18966 -8.3715 -7.38921e-19)
(4.0918 -8.72183 1.54173e-18)
(3.98885 -9.08009 -1.32841e-18)
(3.89262 -9.39293 6.95975e-19)
(3.79506 -9.70771 8.56881e-20)
(3.69803 -10.0296 7.30768e-19)
(4.42823 -0.597019 -1.87723e-19)
(4.85586 -1.38137 -2.53018e-19)
(4.58984 -1.98909 4.84188e-22)
(4.34442 -2.60277 6.68286e-19)
(4.15716 -3.20187 -1.80928e-19)
(4.09055 -3.83056 -1.17253e-19)
(4.04019 -4.42292 1.13703e-19)
(3.92964 -4.96402 2.23251e-19)
(3.84799 -5.46778 1.07562e-19)
(3.72858 -5.94561 -4.23942e-19)
(3.6405 -6.40013 4.67334e-19)
(3.54158 -6.83764 1.00399e-19)
(3.45818 -7.25461 4.93531e-19)
(3.37971 -7.65409 -2.8433e-21)
(3.29903 -8.03724 4.49277e-20)
(3.22891 -8.40532 -8.32548e-19)
(3.15161 -8.76331 2.28335e-19)
(3.08773 -9.10124 0)
(3.01258 -9.42409 -4.20499e-20)
(2.94895 -9.77244 -3.72651e-19)
(2.79228 -0.390182 6.49214e-20)
(3.00065 -1.35932 -1.29362e-19)
(3.01681 -2.03541 2.53794e-19)
(2.99075 -2.69587 -6.1925e-20)
(2.89622 -3.27509 -6.1567e-20)
(2.86314 -3.81373 0)
(2.78806 -4.39125 -1.15666e-19)
(2.75075 -4.89801 2.26656e-19)
(2.67261 -5.43245 -1.11071e-19)
(2.61183 -5.88869 1.07792e-19)
(2.55392 -6.37077 -5.36343e-20)
(2.48203 -6.78571 -1.02846e-19)
(2.43484 -7.2136 2.01685e-19)
(2.37219 -7.59187 -1.97062e-19)
(2.31662 -7.98307 4.88882e-20)
(2.25238 -8.32672 3.36629e-34)
(2.19849 -8.68913 -4.60012e-20)
(2.12942 -9.00305 2.69485e-19)
(2.08173 -9.32625 -1.32636e-19)
(2.00715 -9.64662 -9.54679e-20)
(-0.0491858 -6.26121 7.86953e-20)
(1.61742 -20.6347 4.79134e-20)
(2.65519 -34.0507 0)
(3.19615 -39.6103 8.29398e-20)
(3.25179 -40.158 7.64084e-20)
(3.20877 -39.8515 7.18554e-20)
(3.14975 -39.2628 0)
(3.11736 -38.7768 6.54823e-20)
(3.06821 -38.348 0)
(3.00709 -37.9135 0)
(2.96502 -37.5227 -5.41171e-20)
(2.88837 -37.1595 4.05793e-21)
(2.83854 -36.8313 1.01846e-19)
(2.77645 -36.4998 0)
(2.70378 -36.1473 4.43551e-20)
(2.64632 -35.7236 4.20399e-20)
(2.52584 -35.3012 3.98967e-20)
(2.49898 -34.8212 0)
(2.33874 -34.4128 -7.17424e-20)
(2.34338 -33.9784 6.98003e-20)
(0.371092 -7.06513 0)
(2.4244 -22.1263 -2.9803e-19)
(3.95449 -35.191 0)
(4.43328 -39.755 -4.06765e-19)
(4.47014 -40.0399 3.82488e-19)
(4.37889 -39.6442 -6.46213e-19)
(4.28015 -39.1598 2.81895e-19)
(4.18566 -38.7098 1.89262e-19)
(4.0967 -38.2327 -8.52623e-19)
(4.01078 -37.8308 4.72704e-19)
(3.91758 -37.4238 -5.51985e-20)
(3.84524 -37.0435 4.05642e-19)
(3.75405 -36.6894 -1.53965e-20)
(3.67554 -36.3128 -3.77726e-19)
(3.56963 -35.929 -4.43553e-20)
(3.51375 -35.5515 -4.20418e-20)
(3.38308 -35.1348 -3.9896e-20)
(3.35073 -34.6137 0)
(3.1523 -34.1662 -2.79007e-19)
(3.16332 -33.72 9.71799e-21)
(0.650138 -8.27194 -1.76354e-19)
(3.28645 -23.7056 0)
(5.26855 -36.3546 0)
(5.63288 -40.0455 -1.59538e-19)
(5.62587 -39.9875 1.49657e-19)
(5.49799 -39.468 0)
(5.36451 -38.8706 -1.34431e-19)
(5.25463 -38.3672 3.7404e-19)
(5.14741 -37.9613 -3.70478e-19)
(5.0247 -37.4944 4.44507e-19)
(4.92905 -37.1265 -5.42848e-19)
(4.79867 -36.7592 0)
(4.70079 -36.397 -3.74193e-19)
(4.58561 -36.0578 -3.39248e-19)
(4.48075 -35.7117 6.12549e-19)
(4.37188 -35.3077 -6.33601e-19)
(4.21017 -34.8563 5.48791e-19)
(4.12296 -34.3328 0)
(3.91098 -33.9136 -6.07994e-19)
(3.89689 -33.4884 1.04217e-18)
(1.12833 -8.93549 8.77228e-19)
(4.20898 -24.8461 0)
(6.61214 -36.8557 3.37788e-19)
(6.91295 -39.7871 4.67031e-19)
(6.84685 -39.6324 -9.02079e-19)
(6.66332 -39.0815 2.78875e-19)
(6.51511 -38.6294 1.34441e-19)
(6.35698 -38.1855 1.35163e-18)
(6.20129 -37.6853 -1.88213e-18)
(6.05459 -37.2978 -1.79668e-19)
(5.90354 -36.861 9.5793e-19)
(5.7713 -36.475 1.93442e-19)
(5.63019 -36.1409 -9.08904e-19)
(5.4988 -35.77 8.87083e-19)
(5.33898 -35.3728 2.46373e-19)
(5.21372 -34.9502 -1.53365e-19)
(5.0342 -34.5053 2.20252e-19)
(4.94268 -33.9951 0)
(4.69217 -33.5641 -6.25186e-20)
(4.68057 -33.1334 0)
(1.60146 -9.69323 0)
(5.31233 -25.9266 1.36404e-18)
(7.9852 -37.3453 -1.70619e-18)
(8.22396 -39.6879 1.53948e-18)
(8.07546 -39.3254 -1.19491e-18)
(7.85567 -38.7418 -2.80388e-19)
(7.6414 -38.1692 0)
(7.44497 -37.6602 7.05759e-19)
(7.26551 -37.2675 -9.36428e-19)
(7.07377 -36.7944 1.0592e-18)
(6.91288 -36.4469 -8.27288e-19)
(6.73127 -36.0844 -1.93439e-19)
(6.57215 -35.7048 8.84486e-19)
(6.40087 -35.3589 -1.52518e-18)
(6.24701 -35.0137 9.57887e-19)
(6.08814 -34.6416 -3.14407e-19)
(5.88714 -34.1943 -7.02449e-19)
(5.73859 -33.6532 1.60421e-18)
(5.47027 -33.2382 -9.09861e-19)
(5.44965 -32.8154 -1.0707e-18)
(2.09718 -10.2997 1.35095e-18)
(6.52407 -26.6078 1.33601e-18)
(9.33131 -37.3516 -1.34157e-18)
(9.48023 -39.1451 -3.01876e-19)
(9.26238 -38.7369 2.90009e-19)
(8.98703 -38.1835 1.05144e-18)
(8.74992 -37.7226 -1.033e-18)
(8.51969 -37.2941 0)
(8.2929 -36.8112 8.64372e-19)
(8.07379 -36.4375 -8.49944e-19)
(7.86131 -35.9988 -7.62256e-19)
(7.65622 -35.6253 7.49971e-19)
(7.46235 -35.3081 0)
(7.2735 -34.9572 0)
(7.06488 -34.5772 1.35227e-18)
(6.86634 -34.1371 -1.32501e-18)
(6.63446 -33.6796 -1.0641e-18)
(6.46866 -33.1852 1.04839e-18)
(6.17235 -32.778 -9.5112e-19)
(6.13889 -32.3574 1.1753e-18)
(2.63142 -10.837 -9.83973e-19)
(7.73796 -27.2055 3.61029e-19)
(10.6703 -37.2574 6.1297e-20)
(10.7751 -38.669 1.52734e-18)
(10.4836 -38.1747 0)
(10.1867 -37.6254 0)
(9.88057 -37.0945 1.89686e-18)
(9.59848 -36.6121 -8.99785e-20)
(9.34317 -36.2272 -1.74426e-18)
(9.08229 -35.7808 1.55693e-18)
(8.85128 -35.4464 -1.53141e-18)
(8.61937 -35.0917 0)
(8.39386 -34.7264 1.2879e-18)
(8.16987 -34.3901 -1.2677e-18)
(7.95806 -34.053 0)
(7.75438 -33.7159 0)
(7.51126 -33.2861 0)
(7.3076 -32.7552 0)
(6.98831 -32.3505 0)
(6.97318 -31.9382 -1.13064e-19)
(3.19638 -11.2543 9.41371e-19)
(8.96018 -27.5259 -1.61939e-18)
(11.9598 -36.8993 0)
(11.9551 -37.9239 0)
(11.5933 -37.419 2.34405e-18)
(11.236 -36.8927 1.37808e-19)
(10.9035 -36.4386 -2.13915e-18)
(10.5946 -36.0282 0)
(10.3016 -35.5964 1.97691e-19)
(10.0074 -35.2413 -1.8473e-19)
(9.73846 -34.8363 0)
(9.46296 -34.4937 1.61748e-19)
(9.21785 -34.1865 -1.37179e-18)
(8.97288 -33.8656 2.48832e-18)
(8.72285 -33.5267 -5.18483e-20)
(8.46251 -33.1137 -1.05901e-18)
(8.18896 -32.6826 -1.1752e-19)
(7.95126 -32.2113 1.10482e-19)
(7.62377 -31.832 0)
(7.56984 -31.4291 9.96228e-20)
(3.77492 -11.5733 6.0728e-19)
(10.1816 -27.6791 5.26379e-19)
(13.2063 -36.3297 -1.84845e-18)
(13.1709 -37.1138 5.36856e-19)
(12.7505 -36.6053 2.35817e-19)
(12.3769 -36.1134 2.07188e-18)
(11.9897 -35.6388 -2.88853e-18)
(11.6267 -35.2121 2.09586e-18)
(11.2978 -34.8407 -1.69801e-18)
(10.9693 -34.4519 2.00799e-18)
(10.6658 -34.1292 3.24815e-19)
(10.3805 -33.7951 1.36671e-18)
(10.0907 -33.4724 -7.70268e-19)
(9.81945 -33.1585 -1.48157e-18)
(9.54636 -32.8479 1.30597e-18)
(9.30044 -32.5458 0)
(9.01357 -32.1482 3.35775e-19)
(8.75057 -31.6607 9.42641e-20)
(8.38644 -31.2674 -1.92369e-19)
(8.33766 -30.8619 8.40163e-20)
(4.37706 -11.816 -1.14901e-18)
(11.3684 -27.677 1.19888e-18)
(14.3835 -35.6838 -3.06311e-20)
(14.2417 -36.2084 -1.04583e-18)
(13.7524 -35.7025 -9.67989e-19)
(13.3154 -35.2178 -4.62632e-19)
(12.8953 -34.7894 -2.63123e-20)
(12.5051 -34.4057 -4.00378e-19)
(12.1512 -34.0472 0)
(11.7893 -33.7164 -3.4793e-19)
(11.468 -33.3752 -3.24808e-19)
(11.1336 -33.0742 -2.17031e-20)
(10.8372 -32.7855 1.04609e-18)
(10.5401 -32.5083 -5.39502e-19)
(10.2532 -32.2235 -1.18145e-18)
(9.94734 -31.8761 9.18637e-19)
(9.63898 -31.4965 5.99666e-19)
(9.3385 -31.0533 -1.01061e-18)
(8.97802 -30.691 1.92607e-19)
(8.91 -30.2877 1.19915e-18)
(4.97154 -11.9392 -2.75859e-18)
(12.5142 -27.4403 2.82264e-18)
(15.4801 -34.7367 -3.11691e-18)
(15.3141 -35.1132 2.54084e-18)
(14.7889 -34.6652 2.23711e-18)
(14.3387 -34.2387 -1.73552e-18)
(13.8845 -33.8317 -2.29588e-18)
(13.4462 -33.4768 8.29456e-20)
(13.0517 -33.1291 1.38401e-18)
(12.6648 -32.8245 -9.16482e-19)
(12.2963 -32.5203 2.32706e-18)
(11.9556 -32.2264 -1.39467e-18)
(11.6125 -31.9561 -2.62813e-19)
(11.2963 -31.6731 6.6942e-19)
(10.9698 -31.4069 -1.75382e-18)
(10.6825 -31.1497 8.40176e-19)
(10.3601 -30.8147 0)
(10.0396 -30.4002 -1.39191e-18)
(9.64 -30.0351 1.36825e-18)
(9.55489 -29.6477 -1.09691e-18)
(5.58063 -12.0182 5.22356e-19)
(13.6057 -27.137 5.84603e-19)
(16.5196 -33.8551 2.55259e-18)
(16.2636 -34.0613 2.21901e-18)
(15.6615 -33.6129 -1.33985e-18)
(15.1465 -33.1946 1.88764e-18)
(14.6503 -32.804 -1.11227e-18)
(14.1828 -32.4673 1.29545e-18)
(13.7707 -32.1916 -2.47353e-18)
(13.3467 -31.8948 8.80676e-19)
(12.9751 -31.6411 0)
(12.5944 -31.3868 0)
(12.2451 -31.1404 0)
(11.9065 -30.9133 -1.65411e-18)
(11.581 -30.6794 1.62851e-18)
(11.2485 -30.4163 0)
(10.9088 -30.0968 0)
(10.5563 -29.6997 -1.49245e-19)
(10.1577 -29.3462 0)
(10.0658 -28.9538 -1.25569e-18)
(6.1546 -11.9723 -9.86154e-19)
(14.6239 -26.5789 -2.46634e-18)
(17.4213 -32.6229 -1.77016e-18)
(17.1455 -32.7592 -3.27599e-19)
(16.5264 -32.3947 2.33525e-18)
(15.9998 -32.0444 -4.66203e-19)
(15.4963 -31.7166 -8.45019e-20)
(14.9905 -31.4247 -1.54126e-18)
(14.5399 -31.1178 0)
(14.1073 -30.9064 -7.59267e-19)
(13.6868 -30.6389 1.21171e-18)
(13.2945 -30.4087 0)
(12.9105 -30.1941 1.58586e-18)
(12.5499 -29.9657 -1.56102e-18)
(12.1809 -29.7574 1.3585e-18)
(11.8532 -29.5574 -2.44502e-18)
(11.5105 -29.3214 1.23884e-18)
(11.1435 -28.9925 1.49255e-19)
(10.7182 -28.66 -1.18661e-19)
(10.6018 -28.2784 9.55949e-19)
(6.72983 -11.9056 -1.28843e-18)
(15.5868 -26.0055 8.18044e-20)
(18.2737 -31.5248 1.14724e-19)
(17.918 -31.5666 3.07702e-18)
(17.2497 -31.2006 2.71605e-19)
(16.6567 -30.8784 -1.63918e-18)
(16.0991 -30.539 -1.1438e-18)
(15.5674 -30.2795 3.61108e-19)
(15.1016 -30.0757 1.26629e-18)
(14.6241 -29.8267 -1.34551e-18)
(14.2073 -29.6664 6.48061e-19)
(13.7913 -29.4633 -1.68202e-18)
(13.3916 -29.2752 1.31321e-18)
(13.0216 -29.0929 -1.27221e-18)
(12.655 -28.9076 1.11381e-18)
(12.306 -28.7261 9.27163e-19)
(11.9396 -28.4847 -1.06152e-18)
(11.5524 -28.1813 8.0807e-19)
(11.1206 -27.857 -7.76373e-19)
(10.9957 -27.4809 -8.87876e-19)
(7.24613 -11.7169 -1.59027e-18)
(16.4562 -25.1855 -2.99068e-19)
(18.9751 -30.0918 1.55839e-18)
(18.5851 -30.1188 -1.32691e-18)
(17.9224 -29.8393 1.30308e-18)
(17.3209 -29.5787 3.04102e-19)
(16.7751 -29.3359 0)
(16.2082 -29.0948 -2.20857e-19)
(15.7076 -28.8596 6.05905e-19)
(15.2365 -28.7281 -2.14491e-18)
(14.7738 -28.5219 1.50834e-18)
(14.3406 -28.3768 3.31194e-19)
(13.9258 -28.232 1.6502e-19)
(13.5277 -28.0854 0)
(13.125 -27.932 2.54565e-20)
(12.7598 -27.787 8.87188e-19)
(12.4083 -27.656 -6.48849e-20)
(12.0124 -27.4263 1.32769e-19)
(11.5704 -27.1367 -7.21273e-19)
(11.4224 -26.7583 1.5971e-19)
(7.75882 -11.5217 1.41843e-18)
(17.2772 -24.3813 -2.4534e-18)
(19.6343 -28.835 1.38079e-18)
(19.1368 -28.8109 1.16223e-18)
(18.4447 -28.5355 -8.89318e-20)
(17.7932 -28.3239 -8.05079e-19)
(17.1947 -28.0602 2.06022e-19)
(16.6156 -27.8895 2.20851e-19)
(16.1032 -27.7333 0)
(15.5869 -27.5552 0)
(15.1312 -27.469 -1.16064e-18)
(14.6865 -27.3191 1.91798e-18)
(14.2411 -27.1929 -1.03225e-18)
(13.8455 -27.0678 0)
(13.4423 -26.9551 2.63795e-20)
(13.0738 -26.8377 -7.67689e-19)
(12.6861 -26.6864 7.48475e-19)
(12.2904 -26.5178 -8.42544e-20)
(11.8454 -26.2627 -5.38541e-19)
(11.6868 -25.8994 3.78188e-19)
(8.20461 -11.2028 -1.24501e-18)
(17.9267 -23.3022 1.56834e-18)
(20.1171 -27.2703 0)
(19.6091 -27.2611 0)
(18.9212 -27.0687 2.11901e-19)
(18.2615 -26.9075 -1.02794e-18)
(17.6815 -26.751 3.13706e-20)
(17.0668 -26.5723 7.04059e-19)
(16.5237 -26.4304 -1.14671e-18)
(16.0156 -26.3501 2.15101e-18)
(15.5214 -26.2355 -1.00662e-18)
(15.0637 -26.1754 2.12576e-19)
(14.6245 -26.0974 7.96257e-19)
(14.199 -26.0279 -3.9448e-21)
(13.7708 -25.933 -4.75947e-19)
(13.3761 -25.8557 7.73606e-20)
(13.0129 -25.8038 -4.91216e-19)
(12.6099 -25.6841 4.16427e-19)
(12.1733 -25.4804 2.30977e-20)
(12.0029 -25.1255 3.02121e-19)
(8.65667 -10.9184 0)
(18.5698 -22.319 7.08896e-19)
(20.5555 -25.895 -7.96048e-19)
(19.928 -25.8616 0)
(19.2277 -25.6772 -2.11882e-19)
(18.5267 -25.5799 6.4176e-19)
(17.9131 -25.4173 -7.98865e-19)
(17.2999 -25.329 0)
(16.7466 -25.2129 8.71638e-19)
(16.2077 -25.1199 -8.57135e-19)
(15.7141 -25.0777 7.12093e-20)
(15.2503 -25.0114 -9.10238e-20)
(14.7714 -24.9492 -7.95806e-20)
(14.3512 -24.8879 -6.91701e-20)
(13.9209 -24.8477 -3.97436e-19)
(13.5262 -24.7884 6.08005e-19)
(13.1222 -24.75 -4.91389e-19)
(12.7357 -24.7194 3.87583e-19)
(12.3045 -24.5949 -1.35232e-19)
(12.1231 -24.2458 2.31237e-20)
(9.0677 -10.4564 0)
(18.9614 -21.1795 -7.8955e-19)
(20.7847 -24.2261 4.40137e-19)
(20.1583 -24.2631 4.9688e-19)
(19.4868 -24.161 -7.43586e-20)
(18.7885 -24.0992 -6.6989e-20)
(18.1846 -24.0354 -4.73892e-19)
(17.5572 -23.9455 0)
(16.9832 -23.896 0)
(16.4427 -23.8473 0)
(15.9243 -23.8183 -7.12057e-20)
(15.4511 -23.8166 0)
(14.9958 -23.8213 -2.59877e-19)
(14.5516 -23.8146 2.37124e-19)
(14.0995 -23.773 -1.11732e-19)
(13.671 -23.7344 1.66338e-19)
(13.271 -23.73 -5.54577e-20)
(12.8722 -23.7367 5.26294e-20)
(12.4618 -23.71 -1.1999e-19)
(12.2736 -23.3635 8.63799e-20)
(9.44908 -10.0471 0)
(19.3548 -20.0192 0)
(21.0249 -22.796 1.70684e-19)
(20.2821 -22.8131 1.48491e-19)
(19.5805 -22.7158 0)
(18.8561 -22.7193 3.21551e-19)
(18.2375 -22.6673 -3.15932e-19)
(17.6073 -22.6574 0)
(17.0258 -22.5947 3.09751e-19)
(16.4798 -22.5915 -3.04593e-19)
(15.9508 -22.5697 0)
(15.4712 -22.5769 -6.45448e-20)
(14.9723 -22.5614 8.52598e-20)
(14.5357 -22.5805 -2.71998e-21)
(14.0966 -22.6017 0)
(13.6664 -22.5897 0)
(13.2135 -22.6027 0)
(12.8012 -22.5817 2.49788e-19)
(12.3947 -22.5856 -2.61862e-19)
(12.1305 -22.3599 0)
(1.59614 -32.7683 0)
(1.55871 -30.5026 0)
(0.749212 -29.6246 -3.50269e-21)
(0.824882 -28.6532 -2.63954e-21)
(0.528809 -27.8563 0)
(0.407001 -27.0356 2.32635e-22)
(0.344875 -26.5128 1.01206e-21)
(0.225951 -25.9739 0)
(0.17948 -25.6006 -3.95752e-23)
(0.117517 -25.2164 0)
(0.111856 -25.0203 5.76774e-22)
(0.0999345 -24.7517 4.35733e-22)
(0.0414212 -24.594 -4.38052e-22)
(0.121084 -24.3818 -1.13822e-21)
(0.0603167 -24.2633 0)
(0.202731 -24.0612 3.52902e-22)
(0.120123 -23.505 -1.82e-21)
(0.284104 -21.0557 0)
(0.119863 -15.4363 0)
(0.102385 -6.33616 -1.59939e-21)
(2.24172 -32.5082 2.93358e-20)
(2.05781 -30.517 0)
(1.22762 -29.6708 1.55451e-20)
(1.20782 -28.7256 -9.4616e-21)
(0.836404 -27.8875 0)
(0.651507 -27.0813 -5.48129e-21)
(0.545747 -26.5509 1.90439e-21)
(0.39003 -25.9957 0)
(0.314416 -25.6197 -3.80854e-22)
(0.229593 -25.2379 4.22635e-22)
(0.20386 -25.0345 -1.98299e-21)
(0.172455 -24.7557 3.201e-21)
(0.0987065 -24.6061 -2.8539e-21)
(0.166006 -24.3909 1.00487e-21)
(0.0918549 -24.2757 1.20238e-21)
(0.239679 -24.0745 -1.42124e-21)
(0.139475 -23.5199 2.89348e-21)
(0.317436 -21.0483 3.8512e-21)
(0.115686 -15.4105 1.20516e-21)
(0.116298 -6.30731 1.99215e-21)
(2.9047 -32.3181 -1.48739e-20)
(2.54982 -30.2193 -2.42283e-20)
(1.56928 -29.4156 -1.29648e-20)
(1.45675 -28.5483 0)
(1.02663 -27.7308 0)
(0.818874 -26.9646 5.89805e-21)
(0.677964 -26.4542 -1.83242e-21)
(0.501559 -25.9199 -1.47474e-21)
(0.406961 -25.5616 -1.25683e-21)
(0.314071 -25.1957 9.92415e-22)
(0.272919 -25.0045 0)
(0.228025 -24.7308 0)
(0.149602 -24.5899 0)
(0.209003 -24.3879 4.70582e-21)
(0.130633 -24.2814 0)
(0.273707 -24.0799 5.60924e-21)
(0.157472 -23.5349 -5.91927e-21)
(0.341561 -21.0634 -2.28521e-21)
(0.110967 -15.4005 -2.33331e-21)
(0.139703 -6.28062 -6.41469e-21)
(3.46063 -32.0041 4.04966e-20)
(3.0071 -30.165 -7.61688e-20)
(2.04336 -29.4187 3.1732e-21)
(1.81995 -28.5855 2.23499e-20)
(1.3327 -27.7464 0)
(1.05797 -26.9964 6.578e-21)
(0.875505 -26.4799 -1.18313e-20)
(0.661914 -25.9326 3.12579e-21)
(0.539112 -25.5736 5.68371e-22)
(0.421706 -25.2106 -2.1684e-21)
(0.360081 -25.0113 -4.94332e-22)
(0.296126 -24.7306 3.77262e-21)
(0.204768 -24.5989 -3.78986e-21)
(0.25233 -24.3939 -2.2439e-21)
(0.161979 -24.2915 -2.47281e-21)
(0.306842 -24.0905 -5.6059e-21)
(0.172666 -23.5529 7.4283e-21)
(0.373225 -21.0623 -3.09555e-21)
(0.105514 -15.3891 8.90457e-22)
(0.157773 -6.25086 6.39143e-21)
(4.19605 -31.7289 1.05839e-19)
(3.50691 -29.8572 1.74356e-20)
(2.39264 -29.1477 -2.18671e-20)
(2.06371 -28.3776 3.02592e-20)
(1.52728 -27.5761 0)
(1.22384 -26.8673 -3.82443e-21)
(1.00596 -26.3742 2.19588e-21)
(0.771541 -25.8506 0)
(0.631017 -25.5094 1.80914e-22)
(0.504784 -25.1633 0)
(0.426327 -24.9749 5.48699e-21)
(0.352401 -24.7005 0)
(0.255558 -24.5778 0)
(0.293906 -24.3871 9.87e-21)
(0.199764 -24.2948 -5.01857e-21)
(0.338147 -24.0935 5.73103e-21)
(0.186652 -23.5716 0)
(0.396427 -21.0831 -1.57492e-21)
(0.100785 -15.3861 8.2077e-22)
(0.179715 -6.22684 0)
(4.71341 -31.371 4.06382e-20)
(3.94229 -29.7237 -3.18488e-20)
(2.83883 -29.1004 5.11202e-20)
(2.40694 -28.3813 -4.96113e-20)
(1.82673 -27.5774 1.1052e-20)
(1.4536 -26.883 3.83632e-21)
(1.19775 -26.3865 -3.3744e-21)
(0.925795 -25.8539 -3.43256e-22)
(0.758204 -25.5141 -8.33004e-22)
(0.609151 -25.1706 -4.93764e-21)
(0.507384 -24.9746 2.14324e-21)
(0.417569 -24.6967 0)
(0.3084 -24.583 0)
(0.335401 -24.3894 -7.43404e-24)
(0.229208 -24.3023 5.09433e-21)
(0.370224 -24.0999 -5.72546e-21)
(0.202102 -23.592 0)
(0.422869 -21.0893 1.25077e-20)
(0.0926219 -15.3869 8.18254e-21)
(0.199072 -6.19906 7.97049e-22)
(5.40849 -31.0173 -1.11702e-19)
(4.41265 -29.3973 1.0302e-19)
(3.17907 -28.8072 -2.26335e-20)
(2.64333 -28.1455 0)
(2.02845 -27.3935 -1.10988e-20)
(1.61426 -26.7418 9.81705e-21)
(1.32579 -26.273 -6.46704e-21)
(1.03209 -25.7663 3.44223e-22)
(0.84923 -25.4446 0)
(0.691062 -25.118 0)
(0.569898 -24.9322 -6.88709e-21)
(0.474606 -24.6624 6.91184e-21)
(0.357767 -24.5573 0)
(0.372871 -24.3787 -1.5076e-20)
(0.261837 -24.3033 5.17306e-21)
(0.398726 -24.1029 5.91771e-21)
(0.217047 -23.614 -5.88134e-21)
(0.44241 -21.1153 -1.56735e-20)
(0.0844014 -15.3924 -6.88604e-21)
(0.21886 -6.17613 -1.58876e-21)
(5.953 -30.5754 0)
(4.84793 -29.1975 -5.02424e-20)
(3.5916 -28.7143 5.0408e-20)
(2.97221 -28.1212 0)
(2.31233 -27.3807 0)
(1.83127 -26.738 -8.58588e-21)
(1.50989 -26.2713 8.61214e-21)
(1.17924 -25.7602 0)
(0.972653 -25.4419 -3.74593e-21)
(0.791877 -25.1168 9.36643e-21)
(0.645883 -24.9253 -5.62544e-21)
(0.537702 -24.6554 -8.50433e-21)
(0.408743 -24.557 8.52467e-21)
(0.413493 -24.3762 0)
(0.288407 -24.3089 0)
(0.426602 -24.1059 5.71411e-21)
(0.230109 -23.6369 -8.77258e-21)
(0.464189 -21.1287 -9.83421e-23)
(0.076173 -15.4045 4.26143e-21)
(0.23782 -6.15258 -1.58616e-21)
(6.54673 -30.177 6.29134e-20)
(5.26954 -28.8263 -6.29887e-20)
(3.89656 -28.3913 -5.24905e-20)
(3.20465 -27.8597 5.74758e-20)
(2.51753 -27.1818 -3.8043e-20)
(1.98576 -26.5877 7.14327e-21)
(1.63474 -26.1517 7.34311e-21)
(1.28267 -25.6685 0)
(1.06338 -25.3683 0)
(0.870071 -25.0587 -5.42383e-21)
(0.707385 -24.8777 0)
(0.594081 -24.6178 0)
(0.455529 -24.5275 0)
(0.446875 -24.3607 0)
(0.314544 -24.306 0)
(0.442693 -24.1005 0)
(0.242385 -23.6606 5.78968e-21)
(0.482449 -21.1545 -5.32506e-21)
(0.0782424 -15.422 1.62599e-21)
(0.256049 -6.13116 -1.58391e-21)
(7.08736 -29.6366 -6.75807e-20)
(5.68503 -28.5734 -8.36862e-20)
(4.28755 -28.2591 -1.26144e-20)
(3.51005 -27.816 -2.9651e-21)
(2.78435 -27.1521 1.66635e-20)
(2.19199 -26.562 1.70738e-20)
(1.81167 -26.1362 1.09277e-21)
(1.42461 -25.6535 0)
(1.18145 -25.3579 5.3979e-21)
(0.965754 -25.0487 -9.58474e-21)
(0.780915 -24.8651 -7.25512e-21)
(0.656457 -24.6069 -8.76479e-21)
(0.504283 -24.52 0)
(0.483874 -24.3529 -1.0753e-20)