/*--------------------------------*- C++ -*----------------------------------*\
  =========                 |
  \\      /  F ield         | OpenFOAM: The Open Source CFD Toolbox
   \\    /   O peration     | Website:  https://openfoam.org
    \\  /    A nd           | Version:  9
     \\/     M anipulation  |
\*---------------------------------------------------------------------------*/
FoamFile
{
    format      ascii;
    class       volScalarField;
    location    "2.5";
    object      nut;
}
// * * * * * * * * * * * * * * * * * * * * * * * * * * * * * * * * * * * * * //

dimensions      [0 2 -1 0 0 0 0];

internalField   nonuniform List<scalar> 
46400
(
0.0180335
0.00683205
0.0020061
0.00127669
0.00132599
0.00127793
0.00118743
0.0011794
0.00110021
0.00106971
0.00103202
0.000992267
0.000954596
0.000937939
0.000913371
0.000901769
0.000862107
0.000806726
0.00115062
0.000943812
0.0177228
0.00565246
0.00145711
0.00130704
0.00125595
0.00124608
0.00119754
0.00120185
0.00113336
0.00109436
0.00106168
0.00101699
0.00097793
0.000944304
0.000907913
0.000885674
0.000814735
0.00073465
0.000999956
0.000912283
0.0174018
0.0048708
0.00125794
0.00140425
0.00133523
0.00131534
0.00121162
0.00121071
0.00114504
0.00110479
0.00106657
0.00103134
0.000992921
0.000962877
0.000933395
0.000915675
0.000855103
0.000798979
0.00109689
0.000939102
0.0169914
0.00387638
0.00116508
0.00140281
0.00127181
0.00128924
0.00122703
0.00122178
0.00116637
0.00112066
0.00109069
0.00104824
0.00101119
0.000977855
0.000943749
0.000923497
0.000874676
0.000807816
0.0011235
0.00101463
0.0164825
0.00393213
0.00127238
0.00147569
0.00136698
0.00134629
0.00124624
0.0012385
0.00119017
0.00114153
0.00110178
0.00107172
0.00103467
0.00100159
0.000976384
0.000946254
0.000890308
0.000848666
0.0011439
0.00101023
0.0158881
0.00482435
0.00132412
0.00148601
0.00133802
0.00134316
0.00126944
0.00123813
0.00119887
0.00115024
0.00111731
0.00107713
0.00105124
0.00101822
0.000997081
0.000986657
0.000923194
0.00085649
0.00117461
0.00107924
0.0153634
0.00440567
0.00141697
0.00153762
0.00141798
0.00138236
0.00129609
0.00125928
0.00121869
0.00117034
0.00112644
0.00108927
0.00105508
0.00102162
0.000993709
0.000977113
0.000941079
0.00085233
0.00112313
0.00106311
0.0142913
0.00395203
0.00141471
0.00152739
0.00139271
0.00137506
0.00130882
0.00125179
0.00121696
0.00116957
0.00114224
0.00109313
0.00107029
0.00103993
0.00102282
0.00100576
0.000965947
0.000911184
0.00112017
0.00106707
0.013059
0.00322326
0.00145709
0.00153462
0.00143989
0.00138038
0.00133521
0.00126688
0.00121978
0.00117316
0.00113629
0.00109479
0.00104383
0.00100803
0.000979519
0.000971756
0.000940195
0.000899247
0.00110351
0.0010235
0.0104421
0.00254476
0.00147644
0.00145795
0.00141424
0.00135877
0.00132529
0.00128287
0.00122146
0.00116693
0.00115485
0.00112752
0.00110093
0.00104943
0.00101125
0.000974399
0.00093951
0.000895306
0.00108169
0.00105788
0.00853627
0.00215804
0.00152671
0.00146723
0.00140807
0.00134933
0.00131904
0.00128181
0.00124669
0.00114555
0.0010897
0.00107049
0.00105593
0.00104237
0.00101561
0.000984688
0.000930659
0.000876768
0.000997315
0.000967655
0.00680441
0.00183507
0.0014771
0.00144806
0.00141702
0.00132819
0.00131166
0.00129173
0.0013007
0.00125347
0.00116147
0.00108434
0.00105079
0.00101641
0.00101507
0.00100191
0.000981175
0.000943771
0.00105546
0.00100688
0.00579579
0.00171445
0.0015297
0.00143716
0.00142994
0.00133269
0.00125282
0.00120263
0.00121934
0.00122195
0.00121046
0.00113399
0.00106843
0.00100775
0.000954979
0.000936971
0.000895702
0.000875804
0.000979958
0.000963069
0.00482384
0.00161506
0.00151388
0.00145697
0.00144784
0.00138839
0.00134414
0.00123025
0.00119755
0.00118498
0.00119126
0.00119373
0.00115247
0.00111678
0.00105519
0.00100535
0.000946874
0.000883042
0.000941688
0.000894058
0.00433863
0.00155958
0.00148044
0.00141138
0.00145252
0.00136336
0.00133703
0.00127078
0.00117628
0.00113689
0.00109668
0.00109583
0.00109574
0.00108302
0.00108392
0.00105454
0.00103491
0.000981313
0.00104641
0.000974393
0.00434984
0.00167074
0.00155235
0.00140381
0.0014154
0.00143644
0.0013741
0.00134709
0.00128091
0.00119843
0.00114883
0.00107376
0.00105387
0.00100624
0.000997483
0.000972996
0.000954553
0.000917801
0.000982009
0.00094024
0.00370629
0.0016067
0.00145501
0.0013469
0.00126765
0.00127019
0.00130923
0.00127695
0.00129966
0.00124772
0.0012299
0.00117356
0.00113598
0.0010911
0.00105273
0.00102448
0.00098521
0.000943357
0.00098331
0.000934491
0.00380118
0.00179629
0.00170191
0.00152689
0.0014064
0.00126722
0.00124069
0.00118718
0.00116897
0.00114769
0.00112902
0.0011116
0.00108458
0.00106237
0.00103234
0.0010119
0.000978395
0.000931116
0.000982361
0.000912671
0.00257926
0.00135719
0.00153234
0.00151065
0.00152965
0.00143948
0.00138143
0.00131332
0.0012613
0.00120535
0.00116574
0.00112435
0.00109365
0.00105675
0.00102956
0.000998831
0.000968859
0.000910541
0.000954599
0.000894923
0.000704694
0.000568991
0.00129759
0.0012398
0.00139817
0.00130285
0.00132911
0.00125447
0.00125712
0.00119349
0.00117609
0.00112305
0.00110301
0.00105728
0.00103817
0.00100134
0.000977472
0.000915028
0.000964182
0.000885765
0.000878402
0.000132344
0.00370746
0.00821849
0.0107135
0.0081158
0.00400805
0.00145068
0.000401892
3.10112e-05
0.000107912
0.000206477
0.000282021
0.000116521
0.000122329
0.000203486
0.000229199
0.000204105
0.0001632
0.000249523
3.25604e-23
0.00166797
0.00655836
0.0105104
0.00931347
0.0051429
0.00196738
0.000486504
9.6756e-05
0.000128602
0.000224158
0.000294326
0.000203214
0.000160999
0.00021749
0.000246621
0.000197368
0.000205894
0.000227728
0.000288016
0.00023596
0.00405446
0.00902301
0.0107374
0.00700233
0.00287322
0.000740806
0.00011134
0.000148885
0.00025108
0.000296767
0.000228046
0.000188032
0.000251381
0.000239858
0.000198669
0.00020794
0.000285137
0.000264822
0.000284868
0.000862285
0.00686299
0.0106798
0.00939467
0.00484569
0.00131023
9.79877e-05
0.000107166
0.000268317
0.000322519
0.000267111
0.000251086
0.000257797
0.000241986
0.00021515
0.000260051
0.000291137
0.000300086
0.000246959
0.000306668
0.00249998
0.00877542
0.0112861
0.00763383
0.00251908
0.000363725
0.000146798
0.000276747
0.000337292
0.000311637
0.000295329
0.00028755
0.000238435
0.000285702
0.000281987
0.000301888
0.000282148
0.000286669
0.000291356
0.000347751
0.0025313
0.0100725
0.0109153
0.00574437
0.00114088
0.000167428
0.000259109
0.000366837
0.000376628
0.000340715
0.000335733
0.000297331
0.000322729
0.000325747
0.000279001
0.000327489
0.000323462
0.000364258
0.000338866
0.000364442
0.00527095
0.011215
0.00975052
0.00339644
0.000288967
0.000213405
0.00038715
0.000432128
0.000406061
0.000383962
0.000361845
0.000358432
0.000324295
0.000337956
0.000345008
0.000388314
0.000339025
0.000366218
0.000358451
0.000395868
0.00728411
0.0117268
0.00862279
0.0017418
0.000258488
0.000373712
0.000498094
0.000525749
0.000460588
0.000437285
0.000427329
0.000380769
0.000406078
0.000413779
0.000372888
0.000405685
0.000366115
0.000444607
0.000414459
0.000416976
0.00972628
0.0119945
0.00748661
0.000677509
0.000303204
0.000561787
0.000618122
0.000534954
0.000514097
0.000499122
0.000463863
0.000457056
0.000431083
0.000417353
0.000424181
0.000464829
0.000404329
0.000462037
0.000418353
0.000433926
0.0122571
0.0117993
0.00540424
0.000391445
0.000447397
0.000629692
0.000657891
0.000648998
0.000592911
0.000555766
0.000531703
0.000481801
0.000498443
0.000502521
0.000473066
0.000484071
0.000435726
0.000527341
0.000471041
0.000467953
0.014052
0.0117822
0.00377129
0.000221097
0.000669956
0.000784866
0.000758476
0.000677216
0.000630709
0.000617591
0.000577219
0.000566584
0.00054183
0.000513432
0.000516397
0.000539982
0.000486727
0.000545913
0.000479869
0.000498752
0.015479
0.0113072
0.00238053
0.000242365
0.0007687
0.000796842
0.000775976
0.000765335
0.000716008
0.000674026
0.000639075
0.000589588
0.000596652
0.000595501
0.000572276
0.000563099
0.000530944
0.000602122
0.000505534
0.000533325
0.0161606
0.0110242
0.00159013
0.000438896
0.000891016
0.000896345
0.000897448
0.000804972
0.000747489
0.000733613
0.000690017
0.000675149
0.000648522
0.000616456
0.000614319
0.000622615
0.000586723
0.000623199
0.000504869
0.000554834
0.0168928
0.0105431
0.00106438
0.000576777
0.0010061
0.000896068
0.000905042
0.000881212
0.000827713
0.000789308
0.000747132
0.000698711
0.000697868
0.000691338
0.000666312
0.000647201
0.00063162
0.000669255
0.00052313
0.000594115
0.0175082
0.0101943
0.00114305
0.000781832
0.00109089
0.000999243
0.00100798
0.000924008
0.000857848
0.000842367
0.000797733
0.000777163
0.000746529
0.000716796
0.00070918
0.000701658
0.000685018
0.00068734
0.000516564
0.000616351
0.0178003
0.00973771
0.00183287
0.000896898
0.00113804
0.00100538
0.0010172
0.00099429
0.000930432
0.000897476
0.00085156
0.000804265
0.000797114
0.000785944
0.000753912
0.000730184
0.000741131
0.000736127
0.000531818
0.000660788
0.0181942
0.00942184
0.00225716
0.00106009
0.00120188
0.00110883
0.00109498
0.00103042
0.000957192
0.000940258
0.000897288
0.000869934
0.000836277
0.000813931
0.000797976
0.000775817
0.000783218
0.000754338
0.000521457
0.000682385
0.0182151
0.00910764
0.00223599
0.00106691
0.00122896
0.0010893
0.00110108
0.00108966
0.0010157
0.00098803
0.000943985
0.000898734
0.000886186
0.000871784
0.000834791
0.000813092
0.000840276
0.000810325
0.000547094
0.000732658
0.0183354
0.00864153
0.0021179
0.00115589
0.00129322
0.00120614
0.00115291
0.0011222
0.00104361
0.00102282
0.000984444
0.000950805
0.000917869
0.000904361
0.000879851
0.000856156
0.00087418
0.000860845
0.000568147
0.000709457
0.0181661
0.00774032
0.00195576
0.00117786
0.00125901
0.00117757
0.00116013
0.00116206
0.00108819
0.00106113
0.00102572
0.000986004
0.000969994
0.000957266
0.000928754
0.000939319
0.000941711
0.000941303
0.000746946
0.000808812
0.00231934
0.00174953
0.00175296
0.00164348
0.00154234
0.00136268
0.00144547
0.00136217
0.00131739
0.00124884
0.00115077
0.0010865
0.000990962
0.000943812
0.000862919
0.000855336
0.000952855
0.00392607
0.00993374
0.0226505
0.00238243
0.00181284
0.00184606
0.00159226
0.00155334
0.00150203
0.00155848
0.00140202
0.00130392
0.00122931
0.00112693
0.00106498
0.000959112
0.000909217
0.000822184
0.000795842
0.000926572
0.00405801
0.0099566
0.0223753
0.00231893
0.00185568
0.00194232
0.00160197
0.00154368
0.00145055
0.00146275
0.00135683
0.00129601
0.00123913
0.00113468
0.00107594
0.000979407
0.000936221
0.000849052
0.00083667
0.000948961
0.00408608
0.0100071
0.0222329
0.00237284
0.00196958
0.00204543
0.00154112
0.00158277
0.00158516
0.00156074
0.0013954
0.00128378
0.00122059
0.00111226
0.00105671
0.000949973
0.000901555
0.000806552
0.000778699
0.000924365
0.00419496
0.0100277
0.0219715
0.00235848
0.00200794
0.00210665
0.00153551
0.00160438
0.00154478
0.0014528
0.00134888
0.00127719
0.00123038
0.00112153
0.00106773
0.000970351
0.000930423
0.000836057
0.000818524
0.00095072
0.00421885
0.0100759
0.0218315
0.00256685
0.00216026
0.00220177
0.00149102
0.00164932
0.00165719
0.00154795
0.00139703
0.00126981
0.00121289
0.00110071
0.00105016
0.000943077
0.000895877
0.000792188
0.000762426
0.000928499
0.00429651
0.0100946
0.0215877
0.00262306
0.0021943
0.0022253
0.00149888
0.00169702
0.00161929
0.00143071
0.00134342
0.00126085
0.00122151
0.00111116
0.00106129
0.00096379
0.000926282
0.000824326
0.00080118
0.000956384
0.00429809
0.0101415
0.021452
0.00297777
0.00233937
0.00229254
0.0014967
0.00173541
0.00170496
0.00152627
0.00140288
0.00126056
0.00120516
0.0010921
0.00104462
0.000938092
0.000892492
0.000780599
0.000747354
0.000932887
0.0043517
0.0101564
0.0212284
0.00317331
0.00240105
0.00230352
0.00152495
0.00178493
0.00166139
0.00141182
0.00134553
0.00124798
0.00121164
0.00110309
0.00105609
0.000959349
0.000923813
0.000814808
0.000785464
0.000958796
0.00433762
0.0102024
0.0210982
0.00359777
0.00250589
0.00233378
0.00156338
0.00182178
0.00173691
0.00150603
0.00140568
0.00125233
0.00119656
0.00108553
0.00103984
0.000934937
0.000891439
0.00077315
0.000734267
0.000933566
0.00437443
0.0102112
0.0208972
0.0037469
0.00257622
0.00236188
0.00161495
0.00185131
0.00167817
0.00140214
0.00135257
0.00123933
0.00120033
0.00109645
0.00105127
0.000956667
0.000923303
0.0008095
0.000772204
0.000955649
0.00434281
0.0102568
0.0207749
0.00396575
0.00264129
0.00235185
0.0016747
0.00189298
0.00175198
0.00149255
0.00140518
0.00124386
0.00118562
0.0010802
0.00103562
0.000933743
0.000893026
0.000771578
0.000723683
0.000929395
0.00435319
0.0102624
0.0205974
0.00405926
0.0026862
0.00240935
0.00175378
0.001893
0.00167856
0.00140026
0.00135759
0.00123279
0.00118734
0.00109029
0.00104678
0.000955543
0.000924894
0.000809393
0.000762053
0.000949536
0.00431036
0.0103087
0.0204808
0.00432154
0.00272657
0.00238334
0.00181158
0.00192589
0.0017491
0.00149064
0.00140264
0.00123593
0.00117271
0.00107515
0.00103203
0.000934349
0.000897402
0.000776097
0.000717079
0.000922809
0.00430056
0.0103125
0.0203224
0.00440117
0.0027389
0.00246054
0.00190389
0.00189559
0.00166721
0.00140655
0.00135616
0.00122648
0.00117263
0.00108362
0.0010426
0.000955672
0.000928633
0.000814913
0.000756929
0.000942372
0.00424288
0.0103498
0.0202266
0.00467881
0.00279108
0.00244602
0.00194126
0.00190607
0.00173033
0.00149813
0.00139494
0.00122793
0.00115759
0.00106881
0.00102812
0.000935748
0.000903767
0.000786338
0.00071586
0.000917518
0.00419802
0.0103387
0.0200815
0.00482858
0.00279629
0.00252092
0.0020276
0.00185871
0.00165103
0.00142623
0.00135472
0.0012233
0.00115896
0.00107736
0.0010398
0.000957374
0.000934965
0.000825806
0.00075848
0.000937709
0.00415575
0.0103871
0.0199565
0.00500091
0.0028256
0.00249757
0.00203851
0.00185843
0.00171229
0.0015209
0.00139451
0.00122849
0.00114926
0.00106672
0.00102971
0.000942225
0.000916882
0.000805779
0.000726991
0.000913154
0.00409063
0.0104136
0.0199387
0.00489526
0.00286143
0.00249477
0.00207295
0.00178541
0.00161065
0.00143361
0.00133551
0.00120455
0.00113103
0.00105933
0.00102882
0.000954046
0.000938074
0.000841826
0.000762009
0.000953538
0.00401121
0.0104087
0.0197915
0.00567867
0.00312342
0.00258007
0.00207936
0.00177161
0.00167857
0.00155187
0.00141527
0.00124534
0.0011547
0.00107664
0.00103892
0.000951733
0.00092916
0.000825551
0.000741217
0.000910795
0.00377356
0.0101301
0.0192666
0.0168155
0.0320546
0.0156349
0.0238789
0.0200084
0.0177378
0.0157005
0.0141859
0.0128366
0.0118039
0.0108797
0.0104637
0.00995787
0.00997323
0.00954025
0.00941894
0.0109164
0.0358503
0.0968408
0.169459
0.0324133
0.0233031
0.0202123
0.0185356
0.0166334
0.0144092
0.0131034
0.0120389
0.0110056
0.00973559
0.00913874
0.00931171
0.00881853
0.00812489
0.00777767
0.006612
0.011572
0.0416513
0.0958167
0.155751
0.015719
0.0147266
0.0156351
0.0132218
0.0119323
0.011151
0.010646
0.00987952
0.00901641
0.0085251
0.00812645
0.00780862
0.00739735
0.00723534
0.00707813
0.00663345
0.0116644
0.0403279
0.0949562
0.151865
0.0130779
0.0118894
0.0101477
0.00963569
0.00959597
0.00906655
0.00857823
0.00825219
0.00814506
0.00769059
0.00725118
0.0067596
0.00664992
0.00613468
0.00606224
0.0048188
0.00913124
0.0437829
0.0948722
0.139865
0.00658877
0.00711532
0.00843567
0.00831641
0.00741951
0.00702386
0.00676557
0.00644293
0.00606568
0.00600411
0.00594285
0.00591749
0.00570198
0.00561553
0.00556543
0.00450671
0.010227
0.0418799
0.0949047
0.137654
0.00574603
0.00652718
0.00588152
0.00538272
0.00541899
0.00553165
0.00546861
0.00555428
0.00562142
0.00550637
0.00532553
0.00506247
0.00504416
0.00487826
0.00472793
0.00372781
0.006731
0.0406237
0.0956642
0.132436
0.00324816
0.0036947
0.00415723
0.00476778
0.00470278
0.00455207
0.00445088
0.00439255
0.00420963
0.00433885
0.00448087
0.00470476
0.00465339
0.00471614
0.00484236
0.00376215
0.00480344
0.0361834
0.0962916
0.131482
0.00289451
0.00334677
0.00346851
0.00341578
0.00314888
0.00327817
0.00339758
0.00369214
0.00396833
0.00413348
0.00405873
0.0040353
0.00406806
0.00415741
0.00415896
0.00356567
0.00689708
0.0301014
0.0963023
0.133001
0.0015571
0.00208592
0.00223448
0.00251264
0.00272482
0.00302611
0.0031974
0.00318855
0.00297976
0.00322779
0.00343276
0.00384716
0.00384952
0.00411863
0.00416866
0.0036625
0.00271905
0.0238155
0.0962912
0.138683
0.00155622
0.00175944
0.00189323
0.0020086
0.00195621
0.00196658
0.00212139
0.00255427
0.00292893
0.0031045
0.00311392
0.00321833
0.00336973
0.00370473
0.0037752
0.00407176
0.00367808
0.0165566
0.093184
0.146535
0.00105167
0.00112992
0.00129491
0.0015042
0.00170668
0.00198717
0.00213732
0.00218649
0.00220572
0.00249209
0.00278786
0.00316754
0.00327089
0.00366351
0.00375915
0.00403401
0.00335753
0.0108801
0.0858189
0.159036
0.000841427
0.000972536
0.00107891
0.00114826
0.00120463
0.00137271
0.00151585
0.00180066
0.00206311
0.00228347
0.0024
0.00258564
0.0027885
0.00312347
0.00339348
0.00420477
0.00358713
0.00555231
0.0647132
0.172131
0.000585365
0.000698089
0.000853311
0.00103349
0.00114422
0.00129316
0.0014546
0.00156228
0.00164592
0.00182531
0.0021068
0.00231728
0.00258606
0.00268309
0.00309134
0.00328261
0.00419826
0.00465045
0.0484137
0.192089
0.000500957
0.000624469
0.00062363
0.000765491
0.00082593
0.000978822
0.00104715
0.00124249
0.0013617
0.00152151
0.00154106
0.00184248
0.00207872
0.00239529
0.002741
0.00286933
0.00360448
0.00785382
0.0246301
0.153293
0.000455842
0.000561621
0.000624403
0.000704407
0.000762252
0.000850618
0.0009366
0.00106076
0.0011184
0.00130983
0.0014361
0.00159741
0.00153238
0.00188448
0.00180954
0.0023212
0.00229509
0.00502483
0.0143943
0.109047
0.000347401
0.00043433
0.000464534
0.000538563
0.000577739
0.00066682
0.000718072
0.000821758
0.00086929
0.00100838
0.00108304
0.00123693
0.00136384
0.00151422
0.00160022
0.00189007
0.00191298
0.00288206
0.00457727
0.067245
0.000340088
0.000387242
0.000406943
0.000461612
0.000500056
0.000558575
0.000584236
0.000626875
0.000691443
0.000755169
0.000702114
0.000833484
0.000828095
0.000992626
0.000914566
0.00110534
0.00112493
0.00172813
0.00343192
0.0405179
0.000249138
0.000276722
0.000304744
0.000345265
0.000383386
0.000420369
0.000494353
0.000566593
0.000558746
0.000612357
0.000712883
0.000785005
0.000791213
0.000917076
0.000864184
0.00100208
0.000923395
0.00103446
0.000689089
0.0222483
0.00019846
0.00022399
0.000242381
0.00027065
0.000292264
0.000334657
0.000311587
0.000318378
0.000425144
0.00044331
0.000435402
0.000516405
0.000529999
0.00059329
0.000532564
0.000514374
0.000703387
0.000761085
0.000935156
0.00850438
0.000102675
0.000139357
0.000137453
0.000186118
0.000196814
0.000264537
0.000326301
0.00038849
0.000430986
0.000432225
0.000523663
0.000581858
0.000585827
0.000687514
0.000694167
0.000797106
0.000812332
0.000571536
0.000703216
0.00492594
0.0138709
0.0138813
0.0138354
0.0137077
0.0137347
0.013607
0.0134214
0.0139195
0.0130886
0.0132953
0.0125693
0.0122796
0.0123641
0.0110572
0.0111716
0.00989733
0.00969755
0.00922942
0.00923254
0.00786593
0.00702336
0.00701109
0.00695254
0.00696455
0.00684907
0.00679122
0.00683883
0.00658908
0.00666458
0.0066236
0.00645907
0.007773
0.00699628
0.00663645
0.00613253
0.00668486
0.00662397
0.00649693
0.00672072
0.00747809
0.00435027
0.00435784
0.00440186
0.00442851
0.00443558
0.00456394
0.00444387
0.00460744
0.00454164
0.00451647
0.00469979
0.0043044
0.00403734
0.00411103
0.00405355
0.00424288
0.00380057
0.0039767
0.00350907
0.00383747
0.00276537
0.00276248
0.0027603
0.00272717
0.00274234
0.00270973
0.00268242
0.00265303
0.0026457
0.00268357
0.00245021
0.00267408
0.00269102
0.00280032
0.00273204
0.00284217
0.00272513
0.00300963
0.00282095
0.00305583
0.00174685
0.00174425
0.00175115
0.00174434
0.00175812
0.0017633
0.0017607
0.00184915
0.00182633
0.00179835
0.00196315
0.00191106
0.00184755
0.0019119
0.0018761
0.00194998
0.00184603
0.00194376
0.0018161
0.00178402
0.00125473
0.00125271
0.00125754
0.00125099
0.00126484
0.00126202
0.00126421
0.00126793
0.00122558
0.00126782
0.00123172
0.00126078
0.00128499
0.00133918
0.0013018
0.00133738
0.00128419
0.00145094
0.00137678
0.00125659
0.000780496
0.00078147
0.000783097
0.000784953
0.000793841
0.000796425
0.000792492
0.000797108
0.000795109
0.000800404
0.000820155
0.000860333
0.000879399
0.000897548
0.000851527
0.000875681
0.000895074
0.000988358
0.000873555
0.000716025
0.000569494
0.000571813
0.000574304
0.000579729
0.000585306
0.000585806
0.000583399
0.000587116
0.000584976
0.000595311
0.000613615
0.000654555
0.000647928
0.000649899
0.000606834
0.00062597
0.000650109
0.000728671
0.000616632
0.000536229
0.000320225
0.00032213
0.000325427
0.00033057
0.000333143
0.000333416
0.000331939
0.000335562
0.000335091
0.000348263
0.000372239
0.000424365
0.000407841
0.000423875
0.00037363
0.000418536
0.000438464
0.000554507
0.000438398
0.000286002
0.000216052
0.000219481
0.000224667
0.00023045
0.000230206
0.000231186
0.000230606
0.000234044
0.000233949
0.000247359
0.000258607
0.000283399
0.000261637
0.00025634
0.000227027
0.000228112
0.000235327
0.000185106
0.000390311
0.00048979
8.22206e-05
8.6393e-05
9.39373e-05
9.96934e-05
0.000103773
0.00010704
0.000111344
0.000118953
0.000125096
0.000149235
0.000163877
0.000201751
0.000175163
0.000179526
0.000145039
0.000149423
0.000178202
0.000226092
0.000137577
6.92099e-05
2.17273e-05
3.01825e-05
3.99551e-05
4.55926e-05
4.91008e-05
5.20283e-05
5.40274e-05
6.12439e-05
7.63933e-05
9.06931e-05
9.47189e-05
8.80593e-05
9.52001e-05
0.000114007
0.00012055
0.00014084
0.000140455
0.0001058
0.000175432
0.000246723
1.33927e-05
2.8374e-05
3.99672e-05
5.06663e-05
5.69593e-05
6.10898e-05
4.85267e-05
4.76462e-05
4.75483e-05
5.82602e-05
5.35671e-05
5.73692e-05
6.44135e-05
7.47804e-05
8.22603e-05
8.58825e-05
8.70731e-05
9.97881e-05
0.000103878
0.000105643
4.90572e-05
4.77677e-05
4.96854e-05
4.36285e-05
4.52614e-05
4.56545e-05
5.94761e-05
5.30955e-05
6.45168e-05
6.30832e-05
8.51049e-05
8.6468e-05
9.35354e-05
8.79815e-05
9.33372e-05
8.946e-05
9.39545e-05
9.01305e-05
0.000102163
0.000110361
5.68034e-05
5.75253e-05
5.96767e-05
6.80622e-05
6.64588e-05
6.12434e-05
6.13956e-05
6.286e-05
6.48111e-05
6.39114e-05
6.73784e-05
6.67506e-05
6.949e-05
7.12589e-05
7.82756e-05
8.39511e-05
9.03416e-05
9.22081e-05
9.96418e-05
0.000107391
6.11061e-05
6.29836e-05
6.53957e-05
6.97572e-05
7.1966e-05
6.65464e-05
6.70282e-05
6.81482e-05
7.03698e-05
7.23994e-05
7.64131e-05
8.71821e-05
8.58688e-05
7.76397e-05
7.83051e-05
7.57981e-05
8.05817e-05
7.86789e-05
8.54772e-05
8.84704e-05
5.82688e-05
5.78731e-05
5.71633e-05
5.47059e-05
6.48004e-05
6.52963e-05
5.72463e-05
5.72895e-05
5.82471e-05
5.81424e-05
6.06587e-05
6.33314e-05
6.64804e-05
6.64056e-05
7.07875e-05
7.09075e-05
7.36649e-05
7.41863e-05
7.71058e-05
8.14313e-05
3.95415e-05
3.97046e-05
4.00224e-05
4.06676e-05
4.8442e-05
5.17282e-05
5.0931e-05
5.05461e-05
5.20353e-05
5.10906e-05
5.30646e-05
5.09883e-05
4.89702e-05
4.814e-05
5.10603e-05
5.03465e-05
5.35326e-05
5.34405e-05
5.56636e-05
5.85091e-05
2.78902e-05
2.83119e-05
2.82543e-05
2.87364e-05
2.62063e-05
2.43793e-05
2.35275e-05
2.62846e-05
2.64546e-05
2.97082e-05
3.1637e-05
3.33671e-05
3.8035e-05
3.77727e-05
4.1278e-05
3.97753e-05
4.35019e-05
4.30853e-05
4.32041e-05
4.78086e-05
7.79756e-06
7.57926e-06
6.46463e-06
7.9661e-06
8.88691e-06
1.04078e-05
1.14239e-05
1.28086e-05
1.33095e-05
1.48064e-05
1.50645e-05
1.65425e-05
1.7482e-05
1.84966e-05
1.96196e-05
2.02759e-05
2.18663e-05
2.21062e-05
2.2944e-05
2.63256e-05
0.000942009
0.00114215
0.000800399
0.000855399
0.000899868
0.000914354
0.000933586
0.000950996
0.000988569
0.00102723
0.00106189
0.00108968
0.00117234
0.0011828
0.00127123
0.00131991
0.0012723
0.00199444
0.00677333
0.0179519
0.000912958
0.000990845
0.000733109
0.000814236
0.000881992
0.000901329
0.000937274
0.000973953
0.00100748
0.00104872
0.00108175
0.00111846
0.001192
0.00119499
0.00123423
0.00124452
0.00130319
0.00142699
0.00558062
0.0176393
0.000932978
0.00108474
0.00079418
0.00084876
0.000911557
0.00093211
0.000959575
0.000989052
0.00102587
0.00106285
0.00109847
0.00113586
0.00120827
0.00120955
0.00130783
0.00133236
0.0014033
0.00125814
0.00482536
0.0173209
0.00101864
0.00111507
0.00080679
0.000874879
0.000921871
0.000940113
0.00097274
0.00100695
0.0010403
0.0010813
0.00110952
0.00115737
0.00121611
0.00122262
0.00127829
0.00126304
0.00139337
0.00116039
0.00382751
0.0169087
0.00100102
0.00112981
0.000845435
0.000883737
0.000940758
0.000973659
0.000994682
0.00102873
0.00106591
0.00109792
0.00113736
0.0011847
0.00123968
0.00124716
0.00134022
0.00136886
0.00147923
0.00128246
0.00395714
0.0163925
0.00107758
0.00116591
0.000858362
0.000921971
0.000984849
0.000990926
0.0010124
0.00105217
0.00107535
0.00111667
0.00114713
0.00119948
0.00123778
0.00126407
0.00133487
0.00133243
0.00147498
0.00131977
0.00482252
0.0157956
0.00105334
0.00111339
0.000851755
0.00093528
0.000969322
0.000989953
0.001024
0.00105645
0.00108888
0.00112672
0.00116961
0.00121696
0.00125749
0.00129801
0.00137869
0.00142317
0.00154478
0.00142517
0.00436043
0.0152691
0.00108122
0.0011277
0.000909886
0.000966322
0.00100737
0.00103059
0.00104615
0.00107885
0.0011001
0.00114972
0.00117459
0.00122016
0.00125462
0.00130834
0.00136945
0.00139081
0.00151399
0.001408
0.00389452
0.0141741
0.00101708
0.00108409
0.000891208
0.000939103
0.000979173
0.000989561
0.00101866
0.00105304
0.00109817
0.00113913
0.00116753
0.00121624
0.00126335
0.00133245
0.00137514
0.00144381
0.00153965
0.0014682
0.0031899
0.0129608
0.00107019
0.00109538
0.000916392
0.000965237
0.000996314
0.00102847
0.0010581
0.0011032
0.00112526
0.0011513
0.001164
0.00122157
0.00127956
0.0013244
0.00135632
0.00141643
0.00144748
0.00147107
0.00250182
0.0103157
0.000986118
0.00100146
0.000882208
0.000928649
0.000978656
0.00100368
0.0010303
0.00104768
0.00106512
0.00109123
0.00114205
0.00124427
0.00128197
0.00132344
0.00135194
0.00141256
0.00146051
0.00152508
0.00215084
0.00848894
0.00101552
0.0010529
0.000945189
0.000987693
0.00101055
0.0010249
0.00103108
0.00106186
0.00109346
0.00115712
0.00124162
0.00129615
0.00128827
0.00131304
0.00132272
0.00140467
0.00143333
0.00148073
0.00181886
0.00676293
0.000995137
0.000986052
0.000888764
0.000905598
0.000937621
0.000951499
0.000994189
0.00104842
0.00110698
0.00118604
0.00121679
0.00122734
0.00121845
0.00126664
0.00132883
0.00142683
0.00142919
0.00152669
0.0017091
0.00581421
0.000898936
0.000912244
0.000868593
0.00092175
0.000982033
0.00103014
0.00109808
0.00114141
0.00119681
0.00121213
0.0012149
0.00122507
0.00124089
0.00133362
0.00136544
0.00142576
0.00144715
0.00151855
0.00160083
0.00486412
0.000974388
0.00102055
0.000977025
0.00103022
0.00105931
0.00109116
0.00110351
0.0011161
0.00112358
0.00111436
0.00114335
0.00115855
0.00124009
0.00130051
0.00133569
0.00145572
0.00142138
0.0014984
0.0015585
0.00446564
0.000959521
0.000980782
0.000933201
0.000965929
0.000982637
0.00100406
0.00101182
0.00104903
0.00106632
0.00112474
0.00117473
0.00125171
0.00133988
0.00137681
0.0014739
0.00146075
0.00143199
0.00155284
0.00163883
0.00433022
0.000955311
0.000979577
0.00095625
0.000989983
0.00102919
0.00105385
0.00109351
0.00113298
0.00117508
0.00122746
0.00126191
0.00131679
0.00131594
0.00134117
0.00131816
0.00127954
0.00133528
0.00141678
0.00154924
0.00360055
0.000928876
0.000975679
0.000941075
0.000980159
0.00101655
0.00103137
0.00106767
0.00108312
0.00112238
0.00113273
0.00117105
0.00117607
0.00120647
0.00123476
0.00127219
0.00137588
0.00151761
0.00168741
0.0018303
0.00364427
0.000915431
0.000958493
0.000926357
0.000975635
0.00100718
0.0010337
0.00106492
0.00109736
0.00113281
0.00116694
0.00121232
0.00124804
0.00132052
0.00136458
0.00146571
0.00152273
0.00162784
0.00159137
0.00152479
0.00211095
0.000916844
0.000958148
0.00093006
0.000980575
0.00100818
0.001039
0.00106475
0.00110289
0.00113021
0.00117026
0.00119984
0.00124326
0.00127868
0.00132756
0.00137043
0.00141239
0.00146092
0.00146423
0.00160392
0.00203223
0.000254999
0.000167414
0.000205976
0.000223447
0.000195154
0.00011766
0.000108875
0.000260314
0.000196259
0.000112493
4.32092e-05
0.000411744
0.00149698
0.00405666
0.00816243
0.0106658
0.00806625
0.00358865
0.000134615
0.000836449
0.000289356
0.000224971
0.000212018
0.000200229
0.00024406
0.000217892
0.000164484
0.000191587
0.000276951
0.000220311
0.000125837
9.43381e-05
0.000501381
0.00198444
0.00521714
0.00932957
0.0103992
0.00640919
0.00147931
6.67878e-23
0.000296179
0.000263612
0.000275831
0.000208642
0.000198949
0.000232937
0.000245393
0.000187252
0.000222915
0.000285754
0.000245066
0.000140306
0.000104431
0.000764584
0.00294519
0.00706668
0.0107021
0.00889426
0.00395912
0.000192016
0.000311479
0.000263391
0.000306907
0.000287837
0.000261616
0.000222472
0.000243103
0.000248253
0.000243427
0.000253866
0.000307731
0.000260447
0.000100128
0.000101694
0.00135094
0.00489344
0.00940981
0.010576
0.00670043
0.000841286
0.0003475
0.000292473
0.000289362
0.00028563
0.00030037
0.000278039
0.000286779
0.000241646
0.000279716
0.000284989
0.000300221
0.000323654
0.00026947
0.000142248
0.000384649
0.00257477
0.00765536
0.011219
0.00868165
0.00241636
0.000368711
0.000349996
0.00036423
0.000321192
0.000329235
0.000284204
0.000325742
0.000315456
0.00028991
0.0003241
0.00032937
0.000368251
0.000355465
0.000246901
0.000162924
0.00118751
0.00577124
0.0108837
0.00995796
0.00242107
0.000391515
0.000361737
0.00037216
0.000341516
0.000386731
0.000343297
0.000343239
0.000330924
0.000354204
0.00034872
0.000366758
0.000396535
0.000424979
0.000377023
0.00021853
0.000306022
0.00344033
0.00973904
0.0111286
0.00514874
0.000413098
0.000416614
0.000443119
0.000362787
0.000403987
0.000373665
0.000411571
0.000401728
0.000378524
0.000421765
0.000426643
0.000441074
0.000513402
0.000490184
0.000362433
0.000255601
0.00179757
0.00860998
0.0116466
0.00718192
0.000425713
0.000416827
0.00046531
0.000405265
0.00046415
0.000425235
0.000423168
0.000435371
0.000451466
0.000450328
0.000484606
0.000506899
0.000528481
0.000605642
0.000549716
0.000307064
0.000683303
0.00748558
0.0119305
0.00961456
0.000460768
0.000470482
0.000526163
0.000432152
0.000480137
0.000471297
0.000501422
0.000499052
0.000484925
0.000527984
0.000543136
0.000568651
0.000634698
0.000651288
0.000618506
0.000427829
0.000396651
0.00540548
0.0117328
0.0121303
0.000492991
0.000483488
0.000550801
0.00048619
0.000539501
0.000518749
0.000517302