/*--------------------------------*- C++ -*----------------------------------*\
  =========                 |
  \\      /  F ield         | OpenFOAM: The Open Source CFD Toolbox
   \\    /   O peration     | Website:  https://openfoam.org
    \\  /    A nd           | Version:  9
     \\/     M anipulation  |
\*---------------------------------------------------------------------------*/
FoamFile
{
    format      ascii;
    class       surfaceScalarField;
    location    "2.5";
    object      phi;
}
// * * * * * * * * * * * * * * * * * * * * * * * * * * * * * * * * * * * * * //

dimensions      [0 3 -1 0 0 0 0];

internalField   nonuniform List<scalar> 
92080
(
0.00137672
-0.428556
0.427179
-0.0150936
-0.876862
0.893332
-0.0504391
-0.965784
1.00113
-0.0867801
-0.951643
0.987984
-0.121869
-0.936781
0.971869
-0.156574
-0.922236
0.956941
-0.190604
-0.910019
0.944048
-0.224412
-0.895861
0.92967
-0.25782
-0.883641
0.91705
-0.291046
-0.873002
0.906228
-0.323948
-0.862883
0.895785
-0.356767
-0.853222
0.886041
-0.389532
-0.845685
0.87845
-0.421461
-0.837818
0.869748
-0.453338
-0.830134
0.86201
-0.485442
-0.822756
0.85486
-0.517052
-0.816549
0.848159
-0.547691
-0.809811
0.84045
-0.577154
-0.802157
0.83162
-0.796981
0.824538
-0.604711
-0.000416679
-0.428139
-0.0206263
-0.856652
-0.0563629
-0.930048
-0.0932517
-0.914754
-0.129775
-0.900257
-0.166252
-0.885759
-0.202078
-0.874192
-0.237236
-0.860704
-0.272662
-0.848215
-0.307831
-0.837833
-0.342729
-0.827986
-0.377691
-0.81826
-0.412248
-0.811128
-0.446463
-0.803603
-0.479854
-0.796744
-0.512571
-0.790039
-0.544976
-0.784143
-0.576155
-0.778632
-0.605571
-0.77274
-0.767988
-0.634565
-0.00295997
-0.425179
-0.0271893
-0.832423
-0.0675025
-0.889735
-0.107923
-0.874334
-0.147065
-0.861115
-0.185681
-0.847143
-0.22367
-0.836203
-0.261041
-0.823333
-0.297974
-0.811283
-0.334765
-0.801042
-0.370902
-0.791849
-0.407103
-0.78206
-0.4435
-0.77473
-0.479054
-0.768049
-0.514536
-0.761261
-0.549925
-0.75465
-0.584901
-0.749167
-0.619032
-0.744502
-0.652285
-0.739487
-0.73474
-0.685533
-0.0054565
-0.419722
-0.0336693
-0.80421
-0.0736855
-0.849718
-0.114271
-0.833748
-0.154679
-0.820706
-0.194885
-0.806937
-0.234301
-0.796787
-0.272751
-0.784883
-0.311295
-0.772738
-0.349778
-0.762559
-0.387788
-0.753838
-0.425433
-0.744415
-0.463316
-0.736847
-0.501158
-0.730207
-0.537796
-0.724624
-0.574161
-0.718285
-0.61138
-0.711949
-0.648421
-0.70746
-0.684074
-0.703833
-0.699198
-0.719616
-0.0047546
-0.414968
-0.0395518
-0.769413
-0.0828533
-0.806417
-0.125884
-0.790718
-0.168174
-0.778416
-0.210381
-0.76473
-0.252265
-0.754904
-0.293165
-0.743983
-0.333301
-0.732602
-0.373469
-0.722391
-0.413131
-0.714176
-0.45245
-0.705097
-0.491773
-0.697523
-0.531156
-0.690825
-0.570717
-0.685063
-0.608577
-0.680425
-0.645881
-0.674645
-0.684646
-0.668695
-0.72321
-0.66527
-0.661754
-0.760653
-0.000596836
-0.414371
-0.0381768
-0.731833
-0.083643
-0.760951
-0.129256
-0.745104
-0.173996
-0.733676
-0.218115
-0.720611
-0.26143
-0.711589
-0.303473
-0.70194
-0.345178
-0.690897
-0.386674
-0.680895
-0.427713
-0.673137
-0.468194
-0.664616
-0.508841
-0.656876
-0.549408
-0.650258
-0.590245
-0.644226
-0.631595
-0.639074
-0.671197
-0.635043
-0.710309
-0.629583
-0.75076
-0.62482
-0.621322
-0.791192
-0.000113288
-0.414258
-0.0413441
-0.690602
-0.0906285
-0.711666
-0.138352
-0.697381
-0.185061
-0.686967
-0.2313
-0.674372
-0.277389
-0.6655
-0.321906
-0.657423
-0.364925
-0.647878
-0.408123
-0.637697
-0.450817
-0.630444
-0.492539
-0.622894
-0.534015
-0.615399
-0.575399
-0.608875
-0.616509
-0.603116
-0.657657
-0.597926
-0.699211
-0.593489
-0.739189
-0.589605
-0.779038
-0.584971
-0.580791
-0.819569
0.00140666
-0.415664
-0.0410212
-0.648174
-0.0923269
-0.660361
-0.142427
-0.647281
-0.191144
-0.638251
-0.238684
-0.626832
-0.285595
-0.618589
-0.331517
-0.611501
-0.376086
-0.603309
-0.419885
-0.593898
-0.463996
-0.586333
-0.50712
-0.579769
-0.549887
-0.572633
-0.592675
-0.566087
-0.635638
-0.560152
-0.678574
-0.55499
-0.721311
-0.550752
-0.764172
-0.546744
-0.805325
-0.543818
-0.539628
-0.846488
-0.00113953
-0.414525
-0.0486158
-0.600698
-0.102414
-0.606563
-0.153631
-0.596063
-0.203493
-0.588389
-0.252653
-0.577672
-0.301912
-0.56933
-0.34955
-0.563864
-0.395274
-0.557585
-0.440342
-0.54883
-0.485114
-0.541561
-0.529233
-0.53565
-0.571924
-0.529942
-0.614126
-0.523885
-0.655989
-0.518289
-0.698371
-0.512608
-0.741061
-0.508061
-0.784045
-0.50376
-0.827267
-0.500595
-0.497921
-0.868975
-0.00698689
-0.407538
-0.0550606
-0.552624
-0.108551
-0.553073
-0.160666
-0.543947
-0.21137
-0.537686
-0.260346
-0.528695
-0.3095
-0.520177
-0.359084
-0.514279
-0.40627
-0.5104
-0.451666
-0.503433
-0.497803
-0.495424
-0.544175
-0.489279
-0.590047
-0.48407
-0.634702
-0.479229
-0.678332
-0.474659
-0.721015
-0.469924
-0.76365
-0.465427
-0.80635
-0.46106
-0.849665
-0.45728
-0.453879
-0.893707
-0.0175396
-0.389998
-0.0683851
-0.501779
-0.122402
-0.499056
-0.174884
-0.491465
-0.225787
-0.486783
-0.275888
-0.478594
-0.325485
-0.47058
-0.375541
-0.464222
-0.425049
-0.460892
-0.471034
-0.457449
-0.515073
-0.451385
-0.559765
-0.444587
-0.604795
-0.43904
-0.650286
-0.433738
-0.695348
-0.429597
-0.73974
-0.425532
-0.783139
-0.422028
-0.825773
-0.418426
-0.867772
-0.415282
-0.411959
-0.909692
-0.0244553
-0.365543
-0.0748435
-0.451391
-0.12775
-0.446149
-0.181407
-0.437808
-0.233675
-0.434514
-0.283088
-0.429181
-0.332588
-0.42108
-0.38325
-0.41356
-0.43522
-0.408922
-0.486476
-0.406193
-0.534344
-0.403517
-0.579894
-0.399038
-0.624838
-0.394095
-0.669381
-0.389196
-0.714658
-0.384319
-0.760023
-0.380167
-0.805749
-0.376302
-0.851305
-0.37287
-0.89652
-0.370067
-0.367139
-0.941339
-0.0324581
-0.333085
-0.0856802
-0.398169
-0.139466
-0.392363
-0.192353
-0.384922
-0.245945
-0.380922
-0.297423
-0.377703
-0.345411
-0.373092
-0.392992
-0.365979
-0.442214
-0.359699
-0.492856
-0.355551
-0.543767
-0.352606
-0.592474
-0.35033
-0.639285
-0.347285
-0.684473
-0.344007
-0.72822
-0.340572
-0.771858
-0.33653
-0.814853
-0.333307
-0.858462
-0.329261
-0.902001
-0.326528
-0.323091
-0.946049
-0.0374969
-0.295588
-0.0912846
-0.344381
-0.145768
-0.337879
-0.200429
-0.330261
-0.254536
-0.326815
-0.308327
-0.323913
-0.360802
-0.320616
-0.409766
-0.317015
-0.458178
-0.311287
-0.507283
-0.306447
-0.557389
-0.3025
-0.608621
-0.299098
-0.658808
-0.297098
-0.708572
-0.294243
-0.756514
-0.29263
-0.80325
-0.289794
-0.848708
-0.287849
-0.892855
-0.285114
-0.936542
-0.282841
-0.280374
-0.979259
-0.0416679
-0.25392
-0.096097
-0.289952
-0.148335
-0.285642
-0.201246
-0.27735
-0.256241
-0.27182
-0.309575
-0.270579
-0.3624
-0.267792
-0.414007
-0.265408
-0.462498
-0.262796
-0.510618
-0.258327
-0.557754
-0.255364
-0.605779
-0.251073
-0.654356
-0.248521
-0.703203
-0.245396
-0.75263
-0.243203
-0.801455
-0.240968
-0.850421
-0.238883
-0.898461
-0.237074
-0.946236
-0.235066
-0.233374
-0.993236
-0.0442549
-0.209665
-0.103902
-0.230305
-0.160436
-0.229107
-0.213377
-0.224409
-0.266939
-0.218258
-0.323209
-0.214309
-0.377428
-0.213573
-0.431957
-0.210878
-0.484607
-0.210146
-0.535142
-0.207792
-0.584605
-0.205901
-0.63204
-0.203638
-0.679475
-0.201085
-0.725838
-0.199034
-0.772502
-0.196539
-0.818751
-0.194719
-0.865104
-0.192531
-0.91134
-0.190838
-0.957467
-0.188939
-0.187264
-1.00358
-0.0508764
-0.158789
-0.109561
-0.171621
-0.16307
-0.175598
-0.2147
-0.172779
-0.263558
-0.1694
-0.313945
-0.163922
-0.366435
-0.161082
-0.418652
-0.158662
-0.472411
-0.156387
-0.525047
-0.155156
-0.577701
-0.153247
-0.629056
-0.152283
-0.679621
-0.15052
-0.729314
-0.149341
-0.778123
-0.147729
-0.826479
-0.146363
-0.874092
-0.144918
-0.921445
-0.143485
-0.968217
-0.142167
-0.140649
-1.01483
-0.0505557
-0.108233
-0.115198
-0.106978
-0.177914
-0.112882
-0.235915
-0.114778
-0.2901
-0.115215
-0.340381
-0.11364
-0.390385
-0.111078
-0.439677
-0.109371
-0.488776
-0.107288
-0.538214
-0.105718
-0.587373
-0.104088
-0.636876
-0.102779
-0.685784
-0.101613
-0.734746
-0.100379
-0.783026
-0.0994491
-0.831148
-0.0982413
-0.87868
-0.0973858
-0.925943
-0.0962212
-0.972739
-0.0953713
-0.0942491
-1.01914
-0.0492982
-0.058935
-0.097689
-0.0585872
-0.155021
-0.0555501
-0.212171
-0.0576289
-0.271151
-0.0562352
-0.327793
-0.056998
-0.383141
-0.0557302
-0.436965
-0.0555469
-0.489618
-0.0546345
-0.541075
-0.0542606
-0.591797
-0.0533662
-0.641723
-0.0528529
-0.691215
-0.0521211
-0.73999
-0.051604
-0.788431
-0.0510082
-0.836142
-0.0505302
-0.883535
-0.0499929
-0.9302
-0.0495564
-0.976525
-0.0490459
-0.0486104
-1.02216
-0.0744116
0.0154766
-0.124879
-0.00811993
-0.176585
-0.00384439
-0.226953
-0.00726063
-0.280286
-0.00290245
-0.332602
-0.00468182
-0.385889
-0.00244339
-0.437874
-0.00356124
-0.490345
-0.00216321
-0.541577
-0.00302915
-0.592674
-0.00226959
-0.642726
-0.00280025
-0.692553
-0.00229473
-0.741504
-0.00265267
-0.790253
-0.00225899
-0.838204
-0.00257914
-0.885928
-0.00226919
-0.932891
-0.00259326
-0.979565
-0.00237156
-1.02541
-0.00276498
-0.0123489
0.0454958
-0.0331469
0.0012786
0.0364157
-0.0500432
0.0680585
-0.0539863
-0.0127935
0.235988
-0.284937
0.117007
0.471767
-0.631619
0.39584
0.658473
-0.892935
0.706228
0.758043
-1.02605
0.926482
0.803658
-1.07522
1.02961
0.828105
-1.0904
1.06595
0.843813
-1.09375
1.07805
0.855287
-1.09387
1.0824
0.86329
-1.09105
1.08304
0.869837
-1.08781
1.08127
0.877851
-1.08612
1.07811
0.887164
-1.08654
1.07723
0.894916
-1.08469
1.07693
0.901456
-1.08396
1.07742
0.908372
-1.08244
1.07553
0.9157
-1.08289
1.07557
-1.08067
0.921842
1.07453
-0.0051352
0.050631
0.0316053
-0.000324803
0.134782
-0.157163
0.350211
-0.500366
0.544455
-0.825863
0.658783
-1.00726
0.711597
-1.07887
0.736878
-1.1005
0.751232
-1.10475
0.761487
-1.10401
0.768667
-1.10105
0.774052
-1.09643
0.780953
-1.09471
0.788314
-1.09348
0.794019
-1.09225
0.799181
-1.08985
0.804932
-1.08971
0.810515
-1.08803
0.814828
-1.08721
-1.08417
0.81833
0.00812203
0.042509
0.0650352
-0.057238
0.216849
-0.308976
0.415071
-0.698588
0.54631
-0.957101
0.611713
-1.07267
0.639851
-1.107
0.653769
-1.11442
0.662786
-1.11377
0.668958
-1.11018
0.673508
-1.1056
0.679353
-1.10228
0.685463
-1.10082
0.690142
-1.09816
0.694716
-1.09682
0.699786
-1.09492
0.704458
-1.09438
0.70717
-1.09074
0.709558
-1.08959
-1.08657
0.71195
0.0265368
0.0159721
0.100672
-0.131373
0.278871
-0.487176
0.433662
-0.853378
0.520656
-1.0441
0.555195
-1.1072
0.570538
-1.12235
0.57911
-1.12299
0.584714
-1.11937
0.588398
-1.11387
0.592888
-1.11009
0.597258
-1.10665
0.600818
-1.10438
0.604511
-1.10185
0.607923
-1.10023
0.610563
-1.09756
0.611915
-1.09574
0.613271
-1.0921
0.614846
-1.09117
-1.08709
0.615373
0.0405036
-0.0245315
0.130197
-0.221067
0.293621
-0.6506
0.405189
-0.964946
0.456804
-1.09571
0.477699
-1.1281
0.487461
-1.13211
0.493407
-1.12894
0.496475
-1.12244
0.500266
-1.11766
0.503593
-1.11342
0.506529
-1.10958
0.509432
-1.10729
0.511539
-1.10396
0.512888
-1.10158
0.513914
-1.09858
0.51449
-1.09631
0.515055
-1.09266
0.514849
-1.09096
-1.08559
0.513351
0.0381772
-0.0627087
0.155729
-0.338618
0.293488
-0.788359
0.372703
-1.04416
0.402877
-1.12588
0.414424
-1.13965
0.420485
-1.13817
0.423259
-1.13171
0.425714
-1.1249
0.427841
-1.11978
0.429304
-1.11488
0.430629
-1.11091
0.431048
-1.10771
0.431083
-1.10399
0.430868
-1.10137
0.430074
-1.09779
0.428453
-1.09469
0.426492
-1.0907
0.423955
-1.08842
-1.0823
0.420662
0.0342885
-0.0969972
0.155086
-0.459416
0.259038
-0.892311
0.31106
-1.09618
0.329221
-1.14405
0.336861
-1.14729
0.341011
-1.14232
0.342793
-1.13349
0.34441
-1.12651
0.345336
-1.12071
0.345772
-1.11532
0.345579
-1.11071
0.345019
-1.10715
0.343884
-1.10286
0.34194
-1.09942
0.339419
-1.09527
0.336448
-1.09172
0.333415
-1.08767
0.329602
-1.08461
-1.07741
0.324711
0.0392491
-0.136246
0.145892
-0.566059
0.228879
-0.975299
0.264394
-1.1317
0.275942
-1.15559
0.281224
-1.15257
0.282163
-1.14326
0.28248
-1.13381
0.282241
-1.12627
0.281272
-1.11974
0.279423
-1.11347
0.277142
-1.10843
0.274002
-1.10401
0.270237
-1.09909
0.266127
-1.09531
0.261597
-1.09074
0.25652
-1.08664
0.251088
-1.08223
0.244974
-1.0785
-1.07085
0.238411
0.0431797
-0.179426
0.131701
-0.65458
0.191301
-1.0349
0.211002
-1.1514
0.215871
-1.16046
0.216182
-1.15288
0.215275
-1.14235
0.213844
-1.13238
0.211495
-1.12393
0.20828
-1.11652
0.204544
-1.10973
0.200204
-1.10409
0.195407
-1.09921
0.190162
-1.09385
0.184289
-1.08944
0.177885
-1.08433
0.171019
-1.07978
0.163953
-1.07517
0.156353
-1.0709
-1.06266
0.148162
0.0458115
-0.225238
0.115938
-0.724707
0.159395
-1.07835
0.17004
-1.16204
0.171632
-1.16205
0.169386
-1.15064
0.166457
-1.13942
0.162209
-1.12813
0.157342
-1.11906
0.151861
-1.11104
0.145623
-1.1035
0.138867
-1.09733
0.131422
-1.09177
0.123376
-1.0858
0.114954
-1.08102
0.106169
-1.07555
0.0969639
-1.07057
0.0874488
-1.06565
0.0774452
-1.06089
-1.05238
0.0671717
0.042151
-0.267389
0.0989378
-0.781494
0.126711
-1.10613
0.128751
-1.16408
0.124587
-1.15789
0.118537
-1.14459
0.112019
-1.13291
0.105006
-1.12112
0.0973396
-1.11139
0.0889933
-1.1027
0.0801758
-1.09468
0.0708708
-1.08803
0.0611428
-1.08204
0.0510219
-1.07568
0.04048
-1.07048
0.0295632
-1.06463
0.0182336
-1.05924
0.00668749
-1.05411
-0.00507911
-1.04913
-1.0403
-0.0171667
0.0366739
-0.304062
0.0834896
-0.828309
0.0991795
-1.12182
0.0956501
-1.16055
0.0880208
-1.15026
0.0798686
-1.13643
0.0709489
-1.12399
0.0611874
-1.11136
0.0508588
-1.10106
0.0399859
-1.09182
0.0285146
-1.08321
0.0165521
-1.07607
0.00410415
-1.06959
-0.00881995
-1.06276
-0.0221048
-1.05719
-0.0357334
-1.05101
-0.049732
-1.04524
-0.0638714
-1.03997
-0.0782314
-1.03477
-1.02593
-0.0925945
0.0284191
-0.332482
0.0620996
-0.86199
0.0693521
-1.12907
0.0611294
-1.15233
0.0497818
-1.13891
0.0380575
-1.12471
0.025672
-1.1116
0.0127411
-1.09843
-0.000654856
-1.08767
-0.0144989
-1.07798
-0.0287612
-1.06895
-0.0433991
-1.06143
-0.0583804
-1.05461
-0.073726
-1.04741
-0.0893372
-1.04158
-0.105169
-1.03517
-0.121368
-1.02905
-0.137834
-1.0235
-0.154196
-1.01841
-1.00963
-0.170497
0.0265464
-0.359028
0.0518409
-0.887285
0.0498678
-1.1271
0.0375165
-1.13998
0.0228916
-1.12429
0.00810833
-1.10993
-0.00712222
-1.09637
-0.0227999
-1.08275
-0.0389414
-1.07153
-0.0555317
-1.06139
-0.0725435
-1.05193
-0.0900038
-1.04397
-0.107752
-1.03686
-0.125815
-1.02935
-0.1442
-1.0232
-0.162833
-1.01654
-0.181724
-1.01015
-0.200773
-1.00445
-0.219486
-0.999693
-0.991005
-0.238112
0.0189408
-0.377969
0.034087
-0.902431
0.0254053
-1.11842
0.00834434
-1.12292
-0.00946246
-1.10648
-0.0275099
-1.09188
-0.0458195
-1.07806
-0.0646787
-1.06389
-0.0838324
-1.05237
-0.103231
-1.04199
-0.122986
-1.03218
-0.142985
-1.02397
-0.163246
-1.0166
-0.183847
-1.00875
-0.204558
-1.00248
-0.225278
-0.99582
-0.24633
-0.989102
-0.267759
-0.983025
-0.288706
-0.978746
-0.97044
-0.309272
0.0171488
-0.395118
0.0273501
-0.912632
0.0129245
-1.10399
-0.00715265
-1.10284
-0.0280362
-1.0856
-0.0492857
-1.07063
-0.0707358
-1.05661
-0.0923085
-1.04232
-0.11426
-1.03042
-0.136512
-1.01974
-0.159016
-1.00967
-0.181954
-1.00103
-0.204934
-0.993619
-0.228085
-0.985597
-0.251623
-0.978947
-0.275288
-0.972155
-0.298999
-0.965391
-0.323057
-0.958967
-0.346942
-0.954861
-0.947445
-0.369937
0.0120332
-0.407151
0.0146778
-0.915277
-0.00546652
-1.08385
-0.0306349
-1.07767
-0.0552632
-1.06097
-0.0797259
-1.04617
-0.103996
-1.03234
-0.128642
-1.01767
-0.153358
-1.0057
-0.178126
-0.994972
-0.203117
-0.984683
-0.228268
-0.97588
-0.253697
-0.96819
-0.279333
-0.959962
-0.304919
-0.953361
-0.330423
-0.94665
-0.356105
-0.939709
-0.382253
-0.932819
-0.408465
-0.928649
-0.922277
-0.433633
0.00972932
-0.41688
0.00753008
-0.913077
-0.0158253
-1.06049
-0.0422002
-1.0513
-0.0691007
-1.03407
-0.0961954
-1.01907
-0.12319
-1.00535
-0.150073
-0.990787
-0.177311
-0.978466
-0.204727
-0.967556
-0.232259
-0.957151
-0.260185
-0.947954
-0.287946
-0.940429
-0.31594
-0.931967
-0.344532
-0.924769
-0.373126
-0.918056
-0.401375
-0.91146
-0.430031
-0.904163
-0.459553
-0.899127
-0.893531
-0.488299
0.00596977
-0.42285
-0.0014775
-0.90563
-0.0307222
-1.03125
-0.0619021
-1.02012
-0.0920825
-1.00389
-0.122128
-0.989027
-0.151707
-0.975766
-0.181482
-0.961012
-0.211143
-0.948805
-0.240715
-0.937985
-0.270395
-0.927471
-0.300243
-0.918106
-0.330378
-0.910294
-0.360407
-0.901939
-0.390496
-0.89468
-0.421037
-0.887516
-0.451747
-0.88075
-0.482501
-0.873409
-0.514875
-0.866752
-0.861977
-0.54643
0.00432902
-0.00796875
-0.0380842
-0.0702195
-0.102239
-0.134324
-0.166042
-0.197385
-0.229139
-0.260896
-0.292582
-0.324646
-0.35649
-0.388682
-0.421351
-0.454006
-0.486597
-0.519557
-0.554689
-0.592128
0.841716
-9.57056
9.65069
0.781125
-9.43243
9.49303
0.719651
-9.44398
9.50546
0.658349
-9.42972
9.49102
0.604635
-9.4846
9.53831
0.554819
-9.52681
9.57662
0.50413
-9.52734
9.57803
0.456016
-9.55314
9.60126
0.409882
-9.58007
9.62621
0.366465
-9.60311
9.64653
0.326338
-9.62144
9.66157
0.289196
-9.63399
9.67114
0.255038
-9.6485
9.68265
0.223368
-9.65603
9.6877
0.194301
-9.65996
9.68902
0.166497
-9.64273
9.67053
0.142778
-9.6041
9.62782
0.109746
-9.11471
9.14775
0.056006
-7.49468
7.54842
-4.0766
4.13261
0.740508
-9.49274
0.682295
-9.37422
0.623686
-9.38537
0.569452
-9.37549
0.520624
-9.43577
0.471536
-9.47772
0.422591
-9.4784
0.378682
-9.50923
0.338616
-9.54001
0.301597
-9.5661
0.267996
-9.58784
0.237348
-9.60335
0.210015
-9.62116
0.1853
-9.63132
0.163401
-9.63806
0.143442
-9.62277
0.126396
-9.58705
0.0987824
-9.0871
0.0519468
-7.44784
-4.02466
0.639073
-9.41986
0.584213
-9.31936
0.528213
-9.32937
0.478774
-9.32605
0.435656
-9.39265
0.393938
-9.436
0.353784
-9.43824
0.317089
-9.47254
0.282853
-9.50577
0.251163
-9.53441
0.222935
-9.55961
0.197621
-9.57803
0.175272
-9.59881
0.155382
-9.61143
0.138218
-9.62089
0.122534
-9.60708
0.110788
-9.5753
0.0904101
-9.06672
0.0497908
-7.40722
-3.97487
0.542359
-9.34685
0.487705
-9.26471
0.434101
-9.27577
0.391668
-9.28361
0.352153
-9.35314
0.311346
-9.39519
0.273414
-9.40031
0.240926
-9.44005
0.212606
-9.47745
0.187167
-9.50897
0.165307
-9.53775
0.146309
-9.55903
0.130608
-9.58311
0.117592
-9.59841
0.107593
-9.61089
0.0996359
-9.59913
0.0945508
-9.57022
0.0798388
-9.05201
0.0460273
-7.37341
-3.92884
0.443243
-9.27674
0.391328
-9.21279
0.341099
-9.22554
0.303753
-9.24627
0.268965
-9.31835
0.235054
-9.36128
0.205997
-9.37125
0.180501
-9.41455
0.157811
-9.45476
0.137566
-9.48872
0.120909
-9.52109
0.107127
-9.54525
0.0963158
-9.5723
0.0879693
-9.59006
0.0825155
-9.60544
0.0787857
-9.5954
0.0789095
-9.57034
0.0713647
-9.04447
0.0438733
-7.34592
-3.88497
0.351285
-9.20736
0.297747
-9.15926
0.249733
-9.17753
0.218491
-9.21503
0.186903
-9.28676
0.154559
-9.32894
0.127711
-9.3444
0.106041
-9.39288
0.0889576
-9.43768
0.074782
-9.47455
0.0642931
-9.51061
0.0566352
-9.53759
0.0522725
-9.56794
0.0506809
-9.58847
0.0523425
-9.6071
0.056177
-9.59923
0.0628955
-9.57706
0.0611992
-9.04277
0.0403703
-7.32509
-3.8446
0.255226
-9.13788
0.204319
-9.10835
0.160019
-9.13323
0.133119
-9.18813
0.105415
-9.25906
0.0797322
-9.30326
0.061698
-9.32637
0.0469651
-9.37815
0.0354161
-9.42613
0.026307
-9.46544
0.0208408
-9.50514
0.0182454
-9.535
0.0186404
-9.56833
0.0215263
-9.59136
0.0275169
-9.61309
0.0355054
-9.60722
0.0473266
-9.58888
0.052693
-9.04814
0.0382157
-7.31062
-3.80638
0.166946
-9.06641
0.114444
-9.05585
0.0724054
-9.09119
0.050097
-9.16582
0.025613
-9.23457
0.0021316
-9.27978
-0.0139429
-9.3103
-0.0253408
-9.36675
-0.0316755
-9.41979
-0.0349394
-9.46217
-0.0344693
-9.50561
-0.0311319
-9.53834
-0.0245031
-9.57496
-0.0150252
-9.60084
-0.00203023
-9.62609
0.0132891
-9.62254
0.0315877
-9.60718
0.0429077
-9.05946
0.0349422
-7.30265
-3.77144
0.0759152
-8.99417
0.0254248
-9.00536
-0.0141523
-9.05161
-0.0329928
-9.14698
-0.0537486
-9.21382
-0.0705887
-9.26293
-0.0782049
-9.30268
-0.0828048
-9.36215
-0.083708
-9.41889
-0.0820202
-9.46386
-0.0767229
-9.51091
-0.0685054
-9.54655
-0.05731
-9.58616
-0.0435408
-9.6146
-0.0264859
-9.64314
-0.00708745
-9.64194
0.0162022
-9.63047
0.0344386
-9.07769
0.0328109
-7.30102
-3.73863
-0.0100974
-8.9169
-0.0605331
-8.95492
-0.0966463
-9.0155
-0.112826
-9.1308
-0.130419
-9.19622
-0.14524
-9.24811
-0.151179
-9.29674
-0.152655
-9.36068
-0.14868
-9.42287
-0.141404
-9.47114
-0.130414
-9.5219
-0.116477
-9.56049
-0.0992726
-9.60336
-0.0791344
-9.63474
-0.0553474
-9.66693
-0.0288277
-9.66846
0.00083069
-9.66013
0.0249934
-9.10186
0.0297328
-7.30576
-3.70889
-0.0940677
-8.84
-0.145084
-8.9039
-0.179375
-8.98121
-0.193697
-9.11648
-0.207135
-9.18278
-0.214899
-9.24035
-0.213007
-9.29863
-0.20811
-9.36557
-0.19893
-9.43205
-0.186845
-9.48322
-0.17123
-9.53751
-0.152627
-9.57909
-0.13106
-9.62493
-0.106857
-9.65895
-0.0792255
-9.69456
-0.0488029
-9.69888
-0.0143138
-9.69462
0.0165728
-9.13274
0.027642
-7.31683
-3.68125
-0.175106
-8.75749
-0.226293
-8.85272
-0.257469
-8.95003
-0.269496
-9.10445
-0.280513
-9.17177
-0.286694
-9.23417
-0.283303
-9.30202
-0.275267
-9.37361
-0.261441
-9.44587
-0.244017
-9.50065
-0.222974
-9.55855
-0.198898
-9.60317
-0.171583
-9.65225
-0.141297
-9.68923
-0.107248
-9.72861
-0.0700161
-9.73611
-0.0293712
-9.73526
0.00733614
-9.16945
0.0247916
-7.33429
-3.65646
-0.255316
-8.67267
-0.305492
-8.80254
-0.336337
-8.91918
-0.347504
-9.09328
-0.35367
-9.1656
-0.352662
-9.23518
-0.342189
-9.3125
-0.328323
-9.38748
-0.309629
-9.46457
-0.287591
-9.52268
-0.262131
-9.58401
-0.233618
-9.63168
-0.202167
-9.6837
-0.168048
-9.72335
-0.1304
-9.76626
-0.0894809
-9.77703
-0.0441083
-9.78064
-0.00113209
-9.21243
0.0228217
-7.35824
-3.63364
-0.332345
-8.57843
-0.382542
-8.75234
-0.410325
-8.8914
-0.419455
-9.08415
-0.423572
-9.16148
-0.421241
-9.23751
-0.409446
-9.32429
-0.392447
-9.40448
-0.369327
-9.48769
-0.342215
-9.5498
-0.311611
-9.61462
-0.277906
-9.66539
-0.241005
-9.7206
-0.201138
-9.76322
-0.157451
-9.80995
-0.110084
-9.8244
-0.0587903
-9.83193
-0.0100162
-9.2612
0.0201581
-7.38841
-3.61348
-0.407271
-8.48043
-0.456926
-8.70269
-0.485155
-8.86317
-0.493837
-9.07547
-0.492574
-9.16275
-0.483328
-9.24675
-0.465177
-9.34244
-0.442815
-9.42684
-0.415197
-9.51531
-0.383707
-9.58129
-0.348894
-9.64943
-0.311001
-9.70328
-0.270203
-9.7614
-0.226744
-9.80668
-0.179712
-9.85698
-0.128937
-9.87517
-0.0731687
-9.8877
-0.0182942
-9.31607
0.0182015
-7.42491
-3.59528
-0.478359
-8.37201
-0.529369
-8.65168
-0.555271
-8.83727
-0.561895
-9.06885
-0.558554
-9.16609
-0.548064
-9.25724
-0.528851
-9.36165
-0.503484
-9.4522
-0.471707
-9.54708
-0.435453
-9.61754
-0.395804
-9.68908
-0.353029
-9.74605
-0.307113
-9.80731
-0.258292
-9.8555
-0.205651
-9.90962
-0.148842
-9.93198
-0.0875323
-9.94901
-0.0271442
-9.37646
0.0157788
-7.46783
-3.5795
-0.548597
-8.25705
-0.599457
-8.60082
-0.62589
-8.81084
-0.63192
-9.06282
-0.623006
-9.175
-0.605996
-9.27425
-0.581102
-9.38655
-0.550854
-9.48245
-0.51496
-9.58298
-0.474585
-9.65791
-0.430946
-9.73272
-0.384253
-9.79275
-0.334695
-9.85687
-0.282534
-9.90766
-0.22683
-9.96532
-0.166925
-9.99189
-0.101532
-10.0144
-0.0354512
-9.44254
0.0139651
-7.51725
-3.56554
-0.616205
-8.12914
-0.668391
-8.54863
-0.692402
-8.78683
-0.696427
-9.05879
-0.6855
-9.18593
-0.667135
-9.29262
-0.641299
-9.41238
-0.608136
-9.51562
-0.568282
-9.62283
-0.523418
-9.70278
-0.475202
-9.78094
-0.423901
-9.84405
-0.369542
-9.91123
-0.312405
-9.96479
-0.251525
-10.0262
-0.186027
-10.0574
-0.115378
-10.085
-0.0440152
-9.51391
0.0117428
-7.57301
-3.55379
-0.673271
-8.0023
-0.732969
-8.48894
-0.758085
-8.76171
-0.761719
-9.05516
-0.745891
-9.20176
-0.721287
-9.31722
-0.690279
-9.44339
-0.652838
-9.55306
-0.609182
-9.66649
-0.560402
-9.75156
-0.508346
-9.83299
-0.45335
-9.89904
-0.395577
-9.969
-0.335347
-10.025
-0.271637
-10.0899
-0.203399
-10.1256
-0.129181
-10.1593
-0.0524755
-9.59061
0.00998805
-7.63547
-3.5438
-0.723784
-7.87064
-0.791591
-8.42113
-0.815004
-8.7383
-0.817882
-9.05228
-0.801386
-9.21825
-0.775088
-9.34352
-0.743611
-9.47487
-0.703803
-9.59287
-0.657093
-9.7132
-0.604422
-9.80423
-0.54857
-9.88884
-0.489426
-9.95819
-0.427647
-10.0308
-0.362806
-10.0899
-0.29491
-10.1578
-0.221095
-10.1994
-0.143143
-10.2372
-0.0605386
-9.67322
0.00752312
-7.70353
-3.53628
8.0215
-7.49222
-8.39992
7.39483
-7.79446
6.83232
-8.17578
6.19882
-8.41878
5.64284
-8.66228
5.14848
-8.84916
4.70039
-9.02677
4.28565
-9.17812
3.89063
-9.31818
3.52333
-9.43693
3.1727
-9.53822
2.83239
-9.61788
2.49689
-9.69528
2.16872
-9.7617
1.83486
-9.82395
1.53799
-9.90256
1.20648
-9.90571
0.831376
-9.29811
0.348003
-7.22016
-3.18828
4.73002
-7.4105
-4.81174
4.58118
-7.64562
4.35297
-7.94757
4.11627
-8.18209
3.8672
-8.41321
3.61457
-8.59653
3.35415
-8.76636
3.09117
-8.91514
2.8239
-9.0509
2.55408
-9.16711
2.2831
-9.26724
2.02446
-9.35924
1.77744
-9.44826
1.54383
-9.52809
1.32595
-9.60607
1.11542
-9.69203
0.873084
-9.66338
0.591963
-9.01699
0.193142
-6.82134
-2.99514
3.42059
-7.50243
-3.32866
3.46471
-7.68974
3.43541
-7.91826
3.36398
-8.11066
3.23081
-8.28004
3.07571
-8.44143
2.89878
-8.58943
2.71213
-8.72849
2.51297
-8.85174
2.30743
-8.96157
2.10148
-9.06129
1.89764
-9.15541
1.68907
-9.23969
1.48094
-9.31995
1.26727
-9.3924
1.04078
-9.46554
0.80901
-9.43161
0.555527
-8.76351
0.238326
-6.50414
-2.75681
2.19793
-7.66064
-2.03972
2.30239
-7.7942
2.31809
-7.93396
2.29593
-8.08849
2.24418
-8.22829
2.16733
-8.36458
2.06627
-8.48837
1.94208
-8.6043
1.80164
-8.7113
1.65325
-8.81318
1.50167
-8.90972
1.34606
-8.99979
1.19005
-9.08368
1.03625
-9.16616
0.881312
-9.23746
0.733376
-9.3176
0.586758
-9.28499
0.420961
-8.59771
0.181421
-6.2646
-2.57539
1.57007
-7.79793
-1.43279
1.6584
-7.88254
1.71898
-7.99453
1.7517
-8.12122
1.74841
-8.225
1.71487
-8.33104
1.6561
-8.4296
1.57856
-8.52677
1.4861
-8.61884
1.38028
-8.70735
1.26457
-8.79401
1.1398
-8.87503
1.00903
-8.95291
0.870191
-9.02731
0.731037
-9.09831
0.582214
-9.16878
0.436919
-9.13969
0.312768
-8.47356
0.163526
-6.11535
-2.41186
1.03969
-7.90766
-0.929958
1.13961
-7.98246
1.19692
-8.05184
1.21061
-8.13491
1.20262
-8.217
1.17497
-8.30339
1.13076
-8.38539
1.07186
-8.46787
1.00181
-8.54879
0.921445
-8.62699
0.832078
-8.70464
0.737456
-8.78041
0.638986
-8.85444
0.538345
-8.92667
0.436402
-8.99637
0.334264
-9.06664
0.243076
-9.04851
0.191004
-8.42149
0.118458
-6.04281
-2.29341
0.713116
-7.98923
-0.631538
0.770549
-8.0399
0.809063
-8.09036
0.839124
-8.16497
0.856894
-8.23477
0.853511
-8.3
0.833104
-8.36499
0.79453
-8.4293
0.741943
-8.4962
0.676359
-8.5614
0.601521
-8.62981
0.516641
-8.69553
0.424532
-8.76233
0.323549
-8.82569
0.218626
-8.89144
0.109797
-8.95781
0.00738777
-8.9461
-0.0127284
-8.40137
0.0453133
-6.10085
-2.24809
0.483383
-8.04341
-0.429206
0.531167
-8.08768
0.567799
-8.12699
0.582965
-8.18013
0.57652
-8.22833
0.553866
-8.27735
0.522162
-8.33328
0.481802
-8.38894
0.431791
-8.44619
0.371055
-8.50067
0.302313
-8.56106
0.225213
-8.61843
0.143338
-8.68046
0.0568722
-8.73922
-0.0326157
-8.80195
-0.127723
-8.86271
-0.209634
-8.86419
-0.194969
-8.41604
-0.00934554
-6.28647
-2.25744
0.297311
-8.07958
-0.261139
0.320499
-8.11087
0.336612
-8.1431
0.338971
-8.18249
0.332577
-8.22193
0.317855
-8.26263
0.291818
-8.30724
0.254965
-8.35209
0.209521
-8.40075
0.154397
-8.44554
0.0915426
-8.49821
0.0194398
-8.54632
-0.0591329
-8.60188
-0.14633
-8.65202
-0.239314
-8.70897
-0.337542
-8.76448
-0.417601
-8.78413
-0.391002
-8.44264
-0.120113
-6.55736
-2.37755
0.189404
-8.10032
-0.168668
0.200799
-8.12226
0.207432
-8.14974
0.203673
-8.17874
0.191969
-8.21023
0.16959
-8.24025
0.13461
-8.27226
0.0886324
-8.30611
0.0327738
-8.34489
-0.0279755
-8.38479
-0.0964606
-8.42972
-0.17169
-8.47109
-0.256335
-8.51724
-0.349238
-8.55912
-0.447931
-8.61028
-0.555285
-8.65712
-0.651318
-8.68809
-0.640501
-8.45345
-0.296928
-6.90094
-2.67448
0.0853607
-8.10458
-0.0810986
0.0846776
-8.12158
0.0777709
-8.14283
0.0625642
-8.16353
0.0384919
-8.18616
0.00793819
-8.20969
-0.0260079
-8.23832
-0.0658909
-8.26622
-0.114597
-8.29618
-0.172018
-8.32737
-0.241496
-8.36025
-0.320356
-8.39223
-0.409175
-8.42842
-0.507251
-8.46104
-0.614343
-8.50319
-0.733946
-8.53752
-0.846776
-8.57526
-0.859201
-8.44103
-0.515754
-7.24438
-3.19023
0.0265816
-8.10172
-0.0294394
0.0186636
-8.11366
0.00576018
-8.12993
-0.0116564
-8.14611
-0.0344659
-8.16335
-0.064174
-8.17999
-0.102653
-8.19984
-0.149355
-8.21952
-0.2027
-8.24284
-0.265561
-8.26451
-0.338254
-8.28755
-0.417809
-8.31268
-0.508
-8.33823
-0.605281
-8.36376
-0.721199
-8.38727
-0.850102
-8.40862
-0.988633
-8.43673
-1.04033
-8.38933
-0.766516
-7.5182
-3.95675
-0.0178643
-8.0911
0.00724237
-0.0321452
-8.09938
-0.0519077
-8.11016
-0.0778856
-8.12013
-0.108017
-8.13322
-0.142805
-8.1452
-0.182112
-8.16053
-0.226825
-8.17481
-0.2788
-8.19086
-0.338129
-8.20518
-0.40488
-8.2208
-0.480017
-8.23754
-0.564656
-8.25359
-0.658064
-8.27036
-0.764318
-8.28101
-0.881955
-8.29098
-1.02863
-8.29006
-1.14186
-8.27609
-0.941439
-7.71862
-4.89819
-0.0470745
-8.07786
0.0338365
-0.0625315
-8.08393
-0.080681
-8.09201
-0.102485
-8.09833
-0.128117
-8.10759
-0.158267
-8.11505
-0.193861
-8.12494
-0.234927
-8.13374
-0.280803
-8.14499
-0.331813
-8.15417
-0.386539
-8.16608
-0.451572
-8.17251
-0.525254
-8.17991
-0.611274
-8.18434
-0.705674
-8.18661
-0.809738
-8.18692
-0.924308
-8.17549
-1.03321
-8.16719
-0.886854
-7.86498
-5.78504
-0.0592384
-8.06267
0.044051
-0.077369
-8.0658
-0.0983337
-8.07105
-0.12149
-8.07517
-0.14754
-8.08154
-0.176282
-8.08631
-0.208381
-8.09284
-0.244275
-8.09785
-0.28471
-8.10455
-0.330013
-8.10887
-0.382371
-8.11372
-0.437263
-8.11762
-0.493578
-8.12359
-0.555717
-8.1222
-0.619685
-8.12264
-0.689409
-8.11719
-0.762415
-8.10249
-0.837718
-8.09189
-0.748165
-7.95453
-6.53321
-0.0615148
-8.04944
0.0482755
-0.0762219
-8.05109
-0.092888
-8.05438
-0.111453
-8.05661
-0.132264
-8.06072
-0.155518
-8.06305
-0.181218
-8.06714
-0.20968
-8.06939
-0.240886
-8.07334
-0.275309
-8.07444
-0.311914
-8.07711
-0.352431
-8.0771
-0.397219
-8.0788
-0.443072
-8.07634
-0.490605
-8.07511
-0.537179
-8.07062
-0.57617
-8.0635
-0.619768
-8.04829
-0.578404
-7.99589
-7.11161
-0.0565081
-8.03709
0.0441607
-0.0699836
-8.03761
-0.0846856
-8.03968
-0.100792
-8.0405
-0.118735
-8.04278
-0.137964
-8.04382
-0.159163
-8.04594
-0.180697
-8.04785
-0.204077
-8.04996
-0.228624
-8.0499
-0.252797
-8.05294
-0.277408
-8.05249
-0.302125
-8.05409
-0.326958
-8.05151
-0.349503
-8.05257
-0.373235
-8.04689
-0.390469
-8.04626
-0.400307
-8.03845
-0.375183
-8.02102
-7.4868
-0.0433542