/*--------------------------------*- C++ -*----------------------------------*\
  =========                 |
  \\      /  F ield         | OpenFOAM: The Open Source CFD Toolbox
   \\    /   O peration     | Website:  https://openfoam.org
    \\  /    A nd           | Version:  9
     \\/     M anipulation  |
\*---------------------------------------------------------------------------*/
FoamFile
{
    format      ascii;
    class       volVectorField;
    location    "2.5";
    object      U;
}
// * * * * * * * * * * * * * * * * * * * * * * * * * * * * * * * * * * * * * //

dimensions      [0 1 -1 0 0 0 0];

internalField   nonuniform List<vector> 
46400
(
(7.64288 -7.5288 -2.23632e-19)
(16.1005 -15.2447 1.81704e-19)
(17.462 -17.3693 -5.83491e-20)
(16.925 -17.4485 -4.35771e-20)
(16.385 -17.413 -4.3886e-20)
(15.7998 -17.4419 6.09721e-21)
(15.3318 -17.4441 -2.99354e-20)
(14.8359 -17.4613 3.17375e-20)
(14.3993 -17.4931 -3.8035e-20)
(13.9839 -17.5151 4.35455e-20)
(13.5996 -17.5782 -4.83146e-20)
(13.2213 -17.5934 0)
(12.8915 -17.6799 3.34129e-19)
(12.5683 -17.7244 -3.84067e-19)
(12.2359 -17.7587 -5.03821e-19)
(11.9462 -17.811 -9.28081e-20)
(11.6564 -17.8903 -2.75938e-20)
(11.3877 -17.8996 4.08713e-19)
(11.1064 -17.8652 5.71025e-19)
(10.6986 -18.062 -5.25733e-19)
(7.96694 -7.15811 0)
(16.2506 -14.3605 -2.87448e-20)
(17.4056 -16.0825 0)
(16.8124 -16.1689 5.43414e-20)
(16.3157 -16.2247 -5.8122e-20)
(15.793 -16.3195 1.60267e-20)
(15.3366 -16.4117 0)
(14.8319 -16.4339 -3.17358e-20)
(14.3602 -16.4798 3.80324e-20)
(13.9575 -16.5584 -4.35428e-20)
(13.539 -16.6172 5.3646e-19)
(13.1743 -16.694 3.53302e-20)
(12.8251 -16.7891 -4.51383e-19)
(12.503 -16.8659 0)
(12.1942 -16.9654 6.19199e-20)
(11.8944 -17.0154 6.43246e-20)
(11.6096 -17.1103 0)
(11.3775 -17.1647 -6.2805e-19)
(11.1398 -17.2166 -1.63388e-19)
(10.8032 -17.4169 6.39444e-19)
(8.2654 -6.78087 5.33104e-21)
(16.3067 -13.4366 -1.04781e-19)
(17.2665 -14.8728 8.90144e-20)
(16.6326 -15.0618 1.76478e-19)
(16.0949 -15.1099 -1.73258e-19)
(15.5001 -15.2144 0)
(15.0334 -15.3192 -5.98065e-19)
(14.5495 -15.4181 5.1442e-19)
(14.0893 -15.5074 -6.82459e-19)
(13.6697 -15.5934 6.75897e-19)
(13.2838 -15.7203 6.52122e-19)
(12.8925 -15.78 -6.14784e-20)
(12.5634 -15.9287 -5.6764e-19)
(12.2409 -16.0262 0)
(11.92 -16.1324 7.12907e-19)
(11.6397 -16.2421 -7.02095e-19)
(11.3516 -16.3614 0)
(11.1063 -16.4375 -1.50364e-20)
(10.8438 -16.5167 8.24094e-20)
(10.4959 -16.7609 -7.62909e-19)
(8.44483 -6.34267 -1.32044e-19)
(16.2569 -12.4929 2.73276e-20)
(16.9579 -13.5978 2.56075e-19)
(16.3062 -13.787 -2.52846e-19)
(15.834 -13.9477 -2.28575e-19)
(15.3201 -14.1171 3.12458e-19)
(14.8615 -14.2985 4.35227e-19)
(14.3718 -14.3941 -1.10749e-18)
(13.8945 -14.5164 9.30586e-19)
(13.4929 -14.6453 -8.70764e-20)
(13.0837 -14.7835 0)
(12.7135 -14.8999 9.21412e-20)
(12.3531 -15.0352 -9.39561e-20)
(12.0543 -15.1874 0)
(11.7447 -15.3349 8.48385e-19)
(11.4426 -15.4306 -7.21804e-19)
(11.1657 -15.5848 0)
(10.9468 -15.7204 9.80591e-20)
(10.7176 -15.851 1.11363e-19)
(10.3542 -16.1111 8.87745e-19)
(8.5993 -5.89306 0)
(16.0688 -11.4295 0)
(16.6295 -12.4432 -3.75903e-19)
(15.9753 -12.6945 2.59344e-19)
(15.4234 -12.8313 -5.17573e-19)
(14.8402 -13.0005 4.20395e-19)
(14.387 -13.2114 0)
(13.9363 -13.397 4.71312e-19)
(13.4645 -13.5513 -5.69883e-19)
(13.0407 -13.6917 -1.30521e-19)
(12.6677 -13.8899 -1.31312e-19)
(12.2815 -14.0125 0)
(11.9411 -14.1979 9.87544e-19)
(11.6167 -14.3388 -9.72106e-19)
(11.3305 -14.5364 0)
(11.0567 -14.6954 -1.09448e-18)
(10.7426 -14.8174 9.66162e-19)
(10.4974 -14.94 9.68913e-19)
(10.2816 -15.121 -1.05709e-18)
(9.95806 -15.4186 0)
(8.80437 -5.44756 0)
(15.7222 -10.2539 0)
(16.1082 -11.1505 0)
(15.46 -11.4282 -2.9211e-20)
(14.9923 -11.7092 0)
(14.4855 -11.9387 0)
(14.0254 -12.2103 0)
(13.5735 -12.3925 -1.5099e-19)
(13.1143 -12.6041 0)
(12.7136 -12.7797 1.30518e-19)
(12.3191 -12.9887 -2.02648e-20)
(11.9631 -13.1597 -1.2898e-18)
(11.6009 -13.3428 9.70598e-19)
(11.3012 -13.5318 -1.2769e-18)
(10.9856 -13.7147 9.62749e-19)
(10.7353 -13.9196 0)
(10.4753 -14.1338 -1.0999e-18)
(10.2044 -14.2459 9.4051e-19)
(9.97549 -14.4166 0)
(9.65819 -14.7509 -1.4873e-19)
(9.03514 -5.05728 5.40071e-19)
(15.2731 -9.16349 1.57955e-19)
(15.525 -10.0087 6.17352e-19)
(14.884 -10.3284 -6.38272e-19)
(14.3428 -10.6039 -6.45278e-19)
(13.7929 -10.8504 1.28565e-18)
(13.3631 -11.1693 -1.46988e-18)
(12.9676 -11.449 1.38495e-19)
(12.5111 -11.679 4.72043e-19)
(12.0973 -11.8763 0)
(11.7484 -12.1419 -1.97262e-20)
(11.3869 -12.3278 -1.8795e-20)
(11.0493 -12.5493 1.50128e-19)
(10.735 -12.7316 1.24758e-18)
(10.4495 -12.9552 -1.09748e-18)
(10.1679 -13.1285 -1.39679e-18)
(9.92079 -13.3593 1.21645e-18)
(9.69497 -13.538 -1.44026e-20)
(9.45268 -13.6827 -1.54979e-19)
(9.15758 -14.0192 -1.11149e-18)
(9.28586 -4.6412 -1.81554e-19)
(14.6584 -8.06993 3.19723e-20)
(14.7422 -8.78591 -1.9615e-19)
(14.1688 -9.16434 -7.74263e-19)
(13.7295 -9.57382 5.34231e-19)
(13.2546 -9.86772 0)
(12.8008 -10.2179 1.12005e-18)
(12.4177 -10.5 -5.39651e-19)
(12.0195 -10.8157 3.67895e-19)
(11.6197 -11.0281 1.92417e-19)
(11.2493 -11.3005 -3.6432e-19)
(10.9363 -11.5439 8.83877e-19)
(10.5901 -11.7728 1.85166e-19)
(10.3004 -11.9987 -1.04928e-18)
(10.0022 -12.2245 2.93406e-18)
(9.75695 -12.4578 -1.19518e-18)
(9.49308 -12.6825 1.51086e-18)
(9.27711 -12.8925 -9.88546e-19)
(9.05881 -13.0946 3.23428e-19)
(8.75324 -13.3902 1.56172e-18)
(9.4889 -4.24545 9.36272e-19)
(13.9468 -7.09682 -1.92696e-19)
(13.8553 -7.75553 -2.84342e-20)
(13.3113 -8.14485 4.22702e-19)
(12.8237 -8.56617 1.98502e-19)
(12.3493 -8.88491 2.2175e-19)
(11.9577 -9.29169 -1.03657e-18)
(11.6219 -9.64705 6.28638e-19)
(11.238 -9.97128 -1.9443e-19)
(10.8688 -10.2363 -1.92419e-19)
(10.5293 -10.5307 -1.90188e-19)
(10.2198 -10.7907 -2.04879e-19)
(9.91579 -11.0575 -3.86667e-19)
(9.61835 -11.2671 1.33946e-18)
(9.34577 -11.5118 -1.87272e-18)
(9.08264 -11.7103 -1.90991e-19)
(8.86145 -11.9734 1.35057e-20)
(8.64683 -12.1691 -1.4059e-18)
(8.47181 -12.4196 1.04893e-18)
(8.23162 -12.744 -1.66894e-18)
(9.56297 -3.93584 8.46877e-19)
(13.0687 -6.0851 -2.14626e-18)
(12.8634 -6.75084 1.4221e-18)
(12.4539 -7.17532 -2.24614e-19)
(12.0838 -7.6934 -2.46608e-19)
(11.659 -8.0399 9.56725e-19)
(11.2214 -8.43051 -1.15882e-18)
(10.9166 -8.80419 0)
(10.6115 -9.21835 8.96645e-19)
(10.2524 -9.48226 -8.81732e-19)
(9.90698 -9.79907 -6.42484e-19)
(9.63342 -10.0933 8.37458e-19)
(9.35202 -10.411 2.01467e-19)
(9.09528 -10.678 -8.21289e-19)
(8.82367 -10.9441 1.97438e-19)
(8.57668 -11.173 9.84525e-19)
(8.31895 -11.4054 -1.7373e-18)
(8.10809 -11.6188 1.14673e-18)
(7.89403 -11.8337 -1.15379e-20)
(7.67718 -12.1722 -1.59537e-18)
(9.37371 -3.55352 1.18045e-18)
(12.1183 -5.26505 -7.97051e-19)
(11.8093 -5.906 5.33249e-19)
(11.3723 -6.33628 7.2023e-21)
(10.9832 -6.84172 -1.04946e-18)
(10.6185 -7.2337 -9.97818e-19)
(10.2548 -7.67297 1.24042e-18)
(9.93622 -8.04324 -7.29517e-19)
(9.67889 -8.48864 9.67747e-19)
(9.40997 -8.83783 0)
(9.07158 -9.13198 1.56022e-20)
(8.77971 -9.40362 2.2086e-19)
(8.52001 -9.71354 2.30822e-19)
(8.28813 -9.99412 -2.25976e-19)
(8.07381 -10.3042 0)
(7.86266 -10.5626 2.16459e-19)
(7.66378 -10.8447 0)
(7.46209 -11.0563 4.03392e-19)
(7.2823 -11.2979 1.96693e-18)
(7.06046 -11.577 -1.41314e-20)
(8.9737 -3.10349 6.52528e-19)
(11.0641 -4.43487 -1.37881e-19)
(10.752 -5.07393 -2.01089e-18)
(10.4489 -5.53811 1.12555e-18)
(10.1753 -6.14058 2.67863e-19)
(9.81321 -6.52445 -2.63755e-19)
(9.42328 -6.95978 -1.07359e-18)
(9.12192 -7.33968 8.00145e-19)
(8.86328 -7.80332 0)
(8.66406 -8.22074 0)
(8.41804 -8.6321 -1.23067e-18)
(8.14151 -8.91951 9.74243e-19)
(7.87313 -9.24103 -2.30829e-19)
(7.6233 -9.50175 -7.01266e-19)
(7.39225 -9.80231 6.20381e-21)
(7.19183 -10.0744 1.56297e-18)
(6.99256 -10.3681 -8.73228e-19)
(6.82876 -10.6312 6.40187e-19)
(6.65541 -10.8986 -1.0377e-18)
(6.47894 -11.2236 0)
(8.37046 -2.62542 -5.70202e-19)
(9.99445 -3.74627 9.22466e-19)
(9.61542 -4.39686 1.57688e-19)
(9.19462 -4.82466 1.5497e-19)
(8.91381 -5.40615 0)
(8.71414 -5.90031 1.16102e-18)
(8.3919 -6.35649 -1.14078e-18)
(8.06454 -6.70463 1.4306e-19)
(7.79428 -7.12224 0)
(7.58543 -7.51952 1.06617e-18)
(7.4131 -7.9619 -9.14887e-19)
(7.23528 -8.34599 1.01889e-18)
(7.02492 -8.69723 -1.0028e-18)
(6.83011 -9.01039 9.72813e-19)
(6.61237 -9.29929 -8.36061e-19)
(6.41905 -9.56287 -9.28371e-19)
(6.22811 -9.83851 1.82152e-18)
(6.04875 -10.0684 -7.80178e-19)
(5.89717 -10.3357 1.1075e-19)
(5.71482 -10.6266 9.3033e-19)
(7.59457 -2.13695 -4.57033e-19)
(8.77285 -3.0648 4.94145e-19)
(8.47207 -3.74509 -1.57699e-19)
(8.23986 -4.24937 -1.54967e-19)
(7.9732 -4.8634 0)
(7.73136 -5.33325 0)
(7.52525 -5.89467 0)
(7.2689 -6.30137 -2.92618e-19)
(6.97836 -6.7155 -1.14321e-18)
(6.75393 -7.09081 2.24098e-18)
(6.53225 -7.50354 -1.23227e-18)
(6.37435 -7.89265 -1.36085e-19)
(6.21011 -8.31066 0)
(6.05112 -8.65387 0)
(5.90287 -9.03613 -2.48296e-19)
(5.73452 -9.31928 0)
(5.58821 -9.65439 9.42884e-19)
(5.42886 -9.88999 -1.15996e-18)
(5.28692 -10.1726 -1.00791e-18)
(5.13479 -10.4422 9.7937e-19)
(6.69706 -1.67464 4.76501e-19)
(7.60646 -2.50295 8.63596e-19)
(7.2509 -3.163 -4.20774e-24)
(6.86677 -3.59847 -1.15855e-21)
(6.65841 -4.22385 1.64293e-19)
(6.51257 -4.74668 -4.77233e-19)
(6.28928 -5.26974 0)
(6.14701 -5.75245 -4.58597e-19)
(5.93487 -6.20502 1.55589e-19)
(5.73104 -6.57776 5.83949e-19)
(5.55053 -6.99219 5.65659e-19)
(5.35927 -7.32423 -4.20384e-19)
(5.22 -7.7348 1.07684e-18)
(5.0682 -8.06518 -9.26104e-19)
(4.94569 -8.45658 1.15106e-18)
(4.81997 -8.78227 -2.13555e-18)
(4.69869 -9.13986 9.84335e-19)
(4.58675 -9.44414 1.17498e-19)
(4.46903 -9.7546 9.26383e-19)
(4.35003 -10.0893 -1.01236e-18)
(5.64438 -1.22672 1.66296e-19)
(6.25179 -2.01406 -1.76281e-19)
(6.10878 -2.77303 7.06091e-19)
(5.88093 -3.29779 -6.93154e-19)
(5.57395 -3.8576 -3.37767e-19)
(5.44735 -4.39605 -8.22455e-19)
(5.30725 -4.98994 4.00267e-21)
(5.143 -5.44751 6.33243e-19)
(5.02312 -6.00279 -1.51465e-19)
(4.84995 -6.38872 0)
(4.70627 -6.85659 0)
(4.54734 -7.19451 0)
(4.39816 -7.59091 0)
(4.26323 -7.90813 3.52019e-21)
(4.12692 -8.26119 0)
(4.0136 -8.56631 1.2732e-19)
(3.89189 -8.8946 5.00905e-19)
(3.79356 -9.18033 -1.47053e-18)
(3.6864 -9.47699 1.08373e-18)
(3.58585 -9.79445 -1.02814e-18)
(4.65182 -0.936601 0)
(4.85261 -1.65832 -9.38591e-20)
(4.7009 -2.368 0)
(4.52551 -2.87512 2.64904e-19)
(4.3367 -3.46097 -1.76859e-19)
(4.10934 -3.87243 -6.77109e-19)
(4.02173 -4.45922 4.32127e-21)
(3.9018 -4.90396 6.49376e-19)
(3.80797 -5.44324 -6.28681e-19)
(3.72592 -5.89445 1.23113e-18)
(3.62174 -6.37296 -5.43996e-21)
(3.5444 -6.79508 -5.87823e-19)
(3.43438 -7.2143 5.6743e-19)
(3.35503 -7.59457 -6.95934e-19)
(3.25014 -7.96859 0)
(3.16973 -8.30971 -5.25088e-19)
(3.07502 -8.65378 5.17256e-19)
(2.99541 -8.95801 0)
(2.91255 -9.26537 -1.20994e-19)
(2.8285 -9.58519 0)
(3.12783 -0.590461 9.58192e-20)
(3.39776 -1.31789 9.37445e-20)
(3.56351 -2.20421 0)
(3.47379 -2.7959 3.61333e-19)
(3.35062 -3.46904 -4.45898e-19)
(3.20543 -3.93144 2.58381e-19)
(3.02349 -4.46042 -7.61912e-19)
(2.92284 -4.8931 3.31297e-19)
(2.78457 -5.36886 -8.09465e-20)
(2.70556 -5.77604 0)
(2.60423 -6.22462 -7.68606e-20)
(2.53843 -6.60604 -7.48801e-20)
(2.45929 -7.0299 -7.29531e-20)
(2.39258 -7.37914 0)
(2.32439 -7.77503 -5.47931e-19)
(2.25761 -8.09196 1.14093e-18)
(2.19436 -8.46201 -9.80375e-19)
(2.13156 -8.74678 5.12568e-19)
(2.07196 -9.07479 6.24806e-20)
(2.00598 -9.38263 5.33453e-19)
(2.28011 -0.554578 -1.4645e-19)
(1.82909 -0.916588 -1.92078e-19)
(1.82811 -1.7005 5.63072e-22)
(1.90685 -2.25172 5.06177e-19)
(1.93254 -2.9904 -1.36189e-19)
(1.91215 -3.53001 -8.7801e-20)
(1.87042 -4.16228 8.64333e-20)
(1.81159 -4.63356 1.67786e-19)
(1.76381 -5.1891 8.09283e-20)
(1.6987 -5.604 -3.15945e-19)
(1.64491 -6.09781 3.48843e-19)
(1.58567 -6.4702 7.48774e-20)
(1.53854 -6.91823 3.64938e-19)
(1.48916 -7.25736 -3.01315e-21)
(1.44796 -7.66574 3.19378e-20)
(1.4046 -7.97572 -6.10214e-19)
(1.36643 -8.35084 1.66985e-19)
(1.32594 -8.63131 0)
(1.291 -8.95723 -3.09877e-20)
(1.24915 -9.25689 -2.69769e-19)
(0.468419 -1.05577 0)
(1.02013 -1.00571 -9.46746e-20)
(0.769672 -2.02467 1.04228e-19)
(0.793327 -2.30183 -4.66926e-20)
(0.639834 -3.06825 -4.57027e-20)
(0.665883 -3.45887 0)
(0.592949 -4.12898 -8.59479e-20)
(0.609005 -4.52294 1.68224e-19)
(0.565175 -5.11569 -8.23376e-20)
(0.580154 -5.49583 7.94894e-20)
(0.548349 -6.02318 -3.94037e-20)
(0.553413 -6.37585 -7.54024e-20)
(0.527248 -6.84919 1.4764e-19)
(0.524819 -7.17462 -1.43809e-19)
(0.503105 -7.60224 3.55012e-20)
(0.498868 -7.90312 2.42403e-34)
(0.48009 -8.29358 -3.29666e-20)
(0.477237 -8.56849 1.94011e-19)
(0.460863 -8.90724 -9.57308e-20)
(0.460401 -9.20432 -6.86695e-20)
(-0.0910764 0.926063 1.43829e-20)
(-0.268816 1.23555 2.45817e-20)
(0.291672 -0.315425 0)
(1.42735 -4.5205 2.32311e-20)
(4.46504 -12.8949 2.26829e-20)
(7.16614 -20.5237 2.21195e-20)
(8.68693 -24.6758 0)
(9.26397 -26.3337 2.05147e-20)
(9.43773 -26.8691 0)
(9.49042 -27.0275 0)
(9.4764 -27.0597 -1.75287e-20)
(9.44445 -27.0277 4.56997e-22)
(9.35735 -26.9523 3.61435e-20)
(9.27523 -26.8676 0)
(9.24493 -26.8873 1.53963e-20)
(9.20191 -26.8706 1.64526e-20)
(9.11973 -26.851 1.60833e-20)
(9.06644 -26.7896 0)
(8.99618 -26.8165 -2.99925e-20)
(8.96702 -26.7868 2.78139e-20)
(-0.295385 1.29065 7.53746e-20)
(0.0849855 0.565068 -1.22736e-19)
(0.737314 -2.38288 0)
(3.27986 -9.55646 -1.15599e-19)
(6.60652 -18.3043 6.62446e-20)
(8.54816 -23.586 -1.99888e-19)
(9.39378 -25.9825 8.55567e-20)
(9.65685 -26.7415 6.00448e-20)
(9.7104 -26.9522 -2.54604e-19)
(9.70594 -26.9536 1.34719e-19)
(9.66035 -26.9237 -1.74237e-20)
(9.58799 -26.8168 1.43815e-19)
(9.49167 -26.741 -2.22343e-21)
(9.47105 -26.7412 -1.34123e-19)
(9.39485 -26.744 -1.6331e-20)
(9.34015 -26.6726 -1.65246e-20)
(9.24865 -26.6635 -1.60844e-20)
(9.21968 -26.6524 0)
(9.12367 -26.6558 -1.13044e-19)
(9.08683 -26.5786 1.57764e-21)
(-0.248217 1.21477 -5.04272e-20)
(0.403643 -0.542907 0)
(1.74057 -5.3084 0)
(5.50266 -14.8513 -4.69049e-20)
(8.00791 -21.9261 4.57194e-20)
(9.34764 -25.4943 0)
(9.77407 -26.6041 -4.12525e-20)
(9.86347 -26.9144 1.11805e-19)
(9.85843 -26.9161 -1.04656e-19)
(9.81835 -26.8791 1.39933e-19)
(9.72989 -26.7738 -1.8558e-19)
(9.66175 -26.6643 0)
(9.60586 -26.6652 -1.37345e-19)
(9.56564 -26.6067 -1.30223e-19)
(9.46792 -26.5565 2.31943e-19)
(9.43302 -26.5166 -2.45033e-19)
(9.35589 -26.532 2.04802e-19)
(9.31961 -26.4616 0)
(9.19353 -26.4323 -2.51575e-19)
(9.17112 -26.3616 4.16152e-19)
(0.109712 0.92693 2.0396e-19)
(0.711524 -2.1924 0)
(3.44657 -9.62152 7.39069e-20)
(7.24704 -18.8235 2.82315e-20)
(9.18 -24.2384 -2.76968e-19)
(9.96001 -26.2257 8.64414e-20)
(10.1203 -26.772 4.23982e-20)
(10.1493 -26.8261 4.20144e-19)
(10.1106 -26.7935 -5.78497e-19)
(10.0226 -26.6685 -6.74894e-20)
(9.94527 -26.5632 3.35318e-19)
(9.89269 -26.5179 7.01822e-20)
(9.814 -26.4593 -3.3797e-19)
(9.76072 -26.3953 3.31129e-19)
(9.67862 -26.4002 9.4733e-20)
(9.64288 -26.3509 -5.9266e-20)
(9.53316 -26.3301 8.675e-20)
(9.48004 -26.228 0)
(9.36364 -26.2297 -2.50457e-20)
(9.34512 -26.153 0)
(0.42214 -0.0425718 0)
(1.31425 -4.14345 3.93394e-19)
(5.15012 -13.6658 -4.8175e-19)
(8.33106 -21.8883 4.7026e-19)
(9.8686 -25.6045 -3.73213e-19)
(10.2307 -26.6324 -8.64359e-20)
(10.3387 -26.8154 0)
(10.3056 -26.7826 2.16941e-19)
(10.2345 -26.6546 -3.03588e-19)
(10.1511 -26.5268 3.73956e-19)
(10.0949 -26.4627 -2.93041e-19)
(10.0168 -26.355 -7.01824e-20)
(9.9546 -26.322 3.30846e-19)
(9.90246 -26.2745 -5.77068e-19)
(9.80297 -26.2165 3.69221e-19)
(9.76025 -26.1426 -1.21199e-19)
(9.63887 -26.1083 -2.82738e-19)
(9.60788 -26.0411 6.40131e-19)
(9.48254 -26.0303 -3.56881e-19)
(9.45465 -25.9067 -4.22594e-19)
(0.384705 -1.0339 4.14899e-19)
(2.24265 -6.39509 4.01815e-19)
(6.75764 -17.1595 -3.953e-19)
(9.50239 -23.7667 -9.69025e-20)
(10.4647 -26.1994 9.18955e-20)
(10.6971 -26.7107 3.31336e-19)
(10.6792 -26.7096 -3.13839e-19)
(10.6302 -26.6059 0)
(10.5243 -26.4349 3.06109e-19)
(10.4613 -26.3499 -3.00985e-19)
(10.3708 -26.2267 -2.79343e-19)
(10.3 -26.1681 2.74816e-19)
(10.2231 -26.1116 0)
(10.1371 -26.0167 0)
(10.0483 -25.9904 5.28606e-19)
(9.99306 -25.9309 -5.18971e-19)
(9.86525 -25.8992 -4.30196e-19)
(9.82008 -25.7934 4.18415e-19)
(9.66226 -25.7735 -3.85827e-19)
(9.63735 -25.6356 4.6247e-19)
(0.393322 -1.99125 -3.14979e-19)
(3.53992 -9.61597 1.0843e-19)
(7.99529 -19.8172 6.78047e-21)
(10.2473 -25.1783 4.95667e-19)
(10.851 -26.581 0)
(10.9316 -26.7052 0)
(10.9132 -26.6404 6.29462e-19)
(10.8101 -26.4473 -2.18215e-20)
(10.7366 -26.3126 -6.24271e-19)
(10.6413 -26.1706 5.7339e-19)
(10.5671 -26.0816 -5.63947e-19)
(10.4766 -25.9744 0)
(10.3951 -25.9042 4.94458e-19)
(10.3188 -25.8469 -4.86675e-19)
(10.2197 -25.7833 0)
(10.143 -25.6906 0)
(10.0066 -25.6255 0)
(9.96477 -25.5475 0)
(9.8031 -25.5267 0)
(9.77655 -25.36 -4.47994e-20)
(0.685936 -2.80746 3.34359e-19)
(4.78999 -11.9682 -5.41086e-19)
(9.17567 -21.75 0)
(11.0455 -25.8134 0)
(11.4009 -26.6077 8.45104e-19)
(11.4249 -26.6039 5.69964e-20)
(11.34 -26.4385 -7.49041e-19)
(11.2269 -26.2298 0)
(11.1128 -26.0516 7.46074e-20)
(11.024 -25.9431 -7.02933e-20)
(10.9107 -25.8029 0)
(10.8142 -25.7226 6.26076e-20)
(10.7189 -25.6568 -5.34204e-19)
(10.6015 -25.5456 9.74252e-19)
(10.4938 -25.4884 -1.58272e-20)
(10.4026 -25.4121 -4.21391e-19)
(10.264 -25.3711 -4.77209e-20)
(10.2059 -25.2661 4.49482e-20)
(10.0088 -25.2296 0)
(9.98072 -25.0394 3.9764e-20)
(1.10101 -3.74741 2.22268e-19)
(6.17796 -14.2213 2.10361e-19)
(10.3043 -23.1822 -6.61971e-19)
(11.739 -26.2655 2.05581e-19)
(11.8729 -26.5775 9.31413e-20)
(11.8039 -26.4458 7.66699e-19)
(11.6555 -26.1965 -1.09314e-18)
(11.5269 -25.9904 7.99582e-19)
(11.4179 -25.8458 -6.51623e-19)
(11.2822 -25.6836 7.73601e-19)
(11.1677 -25.569 1.27485e-19)
(11.0452 -25.4556 5.37836e-19)
(10.9272 -25.358 -3.01417e-19)
(10.815 -25.2854 -5.89839e-19)
(10.6996 -25.2161 5.21095e-19)
(10.582 -25.12 0)
(10.4327 -25.0384 1.36577e-19)
(10.3604 -24.9537 3.84744e-20)
(10.1627 -24.9219 -7.88516e-20)
(10.1318 -24.7275 3.35295e-20)
(1.83736 -4.86791 -9.60616e-20)
(7.43796 -15.7083 3.61572e-19)
(11.3608 -24.0181 8.47273e-22)
(12.4343 -26.2134 -4.10775e-19)
(12.4527 -26.3163 -3.72394e-19)
(12.3283 -26.11 -1.74361e-19)
(12.1723 -25.9062 -4.30034e-21)
(12.0081 -25.6836 -1.55225e-19)
(11.8394 -25.4773 0)
(11.6983 -25.3453 -1.35929e-19)
(11.5427 -25.1956 -1.27471e-19)
(11.4073 -25.1023 -6.74218e-21)
(11.2765 -25.0308 4.19855e-19)
(11.1238 -24.915 -2.15596e-19)
(10.9853 -24.8425 -4.76145e-19)
(10.8507 -24.7588 3.70691e-19)
(10.6992 -24.709 2.44694e-19)
(10.6011 -24.611 -4.12403e-19)
(10.3808 -24.5683 7.94252e-20)
(10.3318 -24.3551 4.8363e-19)
(2.42714 -5.55516 0)
(8.53309 -16.8691 1.00645e-18)
(12.3853 -24.491 -1.28466e-18)
(13.1036 -26.0793 1.02776e-18)
(13.0028 -26.0176 8.93937e-19)
(12.787 -25.7495 -7.08352e-19)
(12.5746 -25.5039 -9.35066e-19)
(12.3636 -25.2734 3.54416e-20)
(12.1979 -25.1292 5.62023e-19)
(12.0071 -24.9666 -3.69592e-19)
(11.8397 -24.8434 9.40774e-19)
(11.6708 -24.7303 -5.62597e-19)
(11.5053 -24.6236 -1.05494e-19)
(11.3497 -24.5448 2.70903e-19)
(11.2009 -24.4775 -7.08961e-19)
(11.0404 -24.3883 3.39839e-19)
(10.8713 -24.3014 0)
(10.7508 -24.2228 -5.66602e-19)
(10.5358 -24.1913 5.58263e-19)
(10.4672 -23.9885 -4.40584e-19)
(3.00058 -6.61007 2.32251e-19)
(9.73707 -17.7115 2.04435e-19)
(13.2838 -24.5662 1.09965e-18)
(13.7548 -25.6367 9.44836e-19)
(13.554 -25.5002 -5.66729e-19)
(13.3222 -25.2418 8.00624e-19)
(13.0913 -25.0463 -4.73252e-19)
(12.8573 -24.8322 5.3926e-19)
(12.6228 -24.6234 -1.02619e-18)
(12.4176 -24.4878 3.65631e-19)
(12.2074 -24.3418 0)
(12.0228 -24.2502 0)
(11.8462 -24.1839 0)
(11.6516 -24.0735 -6.65545e-19)
(11.4728 -24.0045 6.55261e-19)
(11.2944 -23.9276 0)
(11.121 -23.8751 0)
(10.9658 -23.7996 -5.83541e-20)
(10.7403 -23.758 0)
(10.6558 -23.5479 -4.87968e-19)
(3.65545 -7.0761 -4.51402e-19)
(10.6402 -18.3782 -1.12201e-18)
(14.1338 -24.4444 -7.77633e-19)
(14.3536 -25.1673 -1.30765e-19)
(14.0665 -24.9722 1.02418e-18)
(13.789 -24.7136 -2.08913e-19)
(13.4923 -24.479 -4.34463e-20)
(13.1999 -24.2521 -6.59551e-19)
(12.9709 -24.1208 0)
(12.7192 -23.9722 -3.13532e-19)
(12.4947 -23.8577 5.0043e-19)
(12.2742 -23.7562 0)
(12.0585 -23.6596 6.35862e-19)
(11.8575 -23.5886 -6.25898e-19)
(11.6667 -23.5341 5.34105e-19)
(11.4652 -23.4576 -9.58287e-19)
(11.2652 -23.3771 4.82641e-19)
(11.0919 -23.3227 5.83524e-20)
(10.8706 -23.2991 -4.35821e-20)
(10.7766 -23.1035 3.51694e-19)
(4.21867 -7.58067 -6.24464e-19)
(11.736 -18.4893 4.1792e-20)
(14.8267 -24.0202 6.08041e-20)
(14.9927 -24.4386 1.41276e-18)
(14.5889 -24.2467 1.09292e-19)
(14.2913 -24.0163 -7.36081e-19)
(13.9801 -23.8409 -4.96729e-19)
(13.6664 -23.6533 1.62556e-19)
(13.3666 -23.4635 5.39361e-19)
(13.0965 -23.3478 -5.55838e-19)
(12.8278 -23.2195 2.67813e-19)
(12.5915 -23.1446 -6.69099e-19)
(12.3666 -23.0966 5.24667e-19)
(12.1267 -23.0016 -4.88112e-19)
(11.9058 -22.9519 4.29502e-19)
(11.6889 -22.8954 3.40354e-19)
(11.4829 -22.852 -3.92046e-19)
(11.2787 -22.8008 2.88289e-19)
(11.05 -22.7853 -2.74396e-19)
(10.9404 -22.592 -2.95405e-19)
(4.85139 -7.88796 -7.81868e-19)
(12.6005 -18.6066 -1.43866e-19)
(15.4958 -23.4899 7.15734e-19)
(15.4781 -23.7348 -6.17724e-19)
(15.0357 -23.5304 6.0626e-19)
(14.6759 -23.318 1.36171e-19)
(14.3097 -23.1133 0)
(13.9392 -22.9197 -9.4114e-20)
(13.6469 -22.8146 2.49536e-19)
(13.3364 -22.6928 -8.73478e-19)
(13.0556 -22.6043 6.09491e-19)
(12.7841 -22.5246 1.2793e-19)
(12.5213 -22.4552 6.37584e-20)
(12.2781 -22.4062 0)
(12.0441 -22.3745 1.34611e-20)
(11.8057 -22.3202 2.97636e-19)
(11.573 -22.2581 -3.25421e-20)
(11.3532 -22.2346 3.11898e-20)
(11.1344 -22.2452 -2.23582e-19)
(11.0172 -22.0683 4.4288e-20)
(5.37537 -8.03067 7.13749e-19)
(13.4321 -18.282 -1.22118e-18)
(16.0877 -22.6725 6.68579e-19)
(15.9757 -22.7825 5.46415e-19)
(15.4859 -22.614 -5.60937e-20)
(15.1037 -22.4441 -3.70168e-19)
(14.7293 -22.3116 8.83823e-20)
(14.3376 -22.1636 9.4101e-20)
(13.9764 -22.0124 0)
(13.6489 -21.9353 0)
(13.3239 -21.8379 -4.28238e-19)
(13.0396 -21.7938 6.92716e-19)
(12.7695 -21.776 -3.63358e-19)
(12.4855 -21.7048 0)
(12.2259 -21.6887 1.46124e-20)
(11.9788 -21.6665 -2.05684e-19)
(11.7368 -21.6414 1.98497e-19)
(11.4829 -21.6159 -2.3562e-20)
(11.2597 -21.6431 -9.93175e-20)
(11.1309 -21.4828 7.37942e-20)
(5.95478 -8.12838 -6.29635e-19)
(14.1772 -18.0483 7.877e-19)
(16.5894 -21.7989 0)
(16.3168 -21.8879 0)
(15.8098 -21.729 9.50609e-20)
(15.3559 -21.5836 -4.45746e-19)
(14.9336 -21.4317 2.3382e-20)
(14.4976 -21.2975 2.89751e-19)
(14.1472 -21.2321 -4.24828e-19)
(13.786 -21.1511 7.73291e-19)
(13.4554 -21.1038 -3.49716e-19)
(13.1372 -21.0532 6.50651e-20)
(12.8364 -21.028 2.0701e-19)
(12.5567 -21.0136 -2.88598e-20)
(12.2809 -21.0086 -1.12529e-19)
(12.0131 -20.9858 1.81909e-20)
(11.7511 -20.9593 -5.31351e-20)
(11.4878 -20.9641 3.85403e-20)
(11.2703 -21.0035 1.39116e-20)
(11.15 -20.8864 -1.52742e-20)
(6.39432 -8.07483 0)
(14.7834 -17.4006 3.54864e-19)
(16.9316 -20.7956 -3.96878e-19)
(16.6458 -20.7599 0)
(16.1024 -20.6679 -9.50574e-20)
(15.6558 -20.5808 2.59204e-19)
(15.2393 -20.5104 -3.23151e-19)
(14.7846 -20.4133 0)
(14.3725 -20.3166 2.71251e-19)
(14.0029 -20.2895 -2.6673e-19)
(13.6303 -20.2356 1.22114e-20)
(13.3067 -20.2306 -2.40165e-20)
(12.9976 -20.2475 -1.78093e-20)
(12.677 -20.2111 -1.22658e-20)
(12.3873 -20.2414 1.54842e-20)
(12.1184 -20.2609 -7.7169e-20)
(11.8417 -20.2704 1.35859e-19)
(11.5469 -20.2673 -1.84456e-19)
(11.3122 -20.3201 9.57075e-20)
(11.1889 -20.2316 -1.10216e-20)
(6.87511 -7.98398 0)
(15.3686 -16.8684 -3.88259e-19)
(17.2147 -19.7344 2.14293e-19)
(16.8181 -19.7559 2.08809e-19)
(16.2769 -19.655 -5.02239e-20)
(15.7409 -19.5955 -4.42722e-20)
(15.2871 -19.5117 -1.6369e-19)
(14.8065 -19.4504 0)
(14.4062 -19.4331 0)
(14.0076 -19.4009 0)
(13.6387 -19.4055 -1.22103e-20)
(13.2818 -19.3892 0)
(12.9558 -19.4209 1.09451e-19)
(12.6448 -19.4425 -8.96126e-20)
(12.3282 -19.4594 1.58935e-19)
(12.0392 -19.4773 -3.43674e-19)
(11.7546 -19.5163 1.84345e-19)
(11.4601 -19.5508 2.61953e-19)
(11.1986 -19.6036 -4.72577e-19)
(11.0878 -19.5164 2.57859e-19)
(7.2573 -7.75778 0)
(15.754 -16.0419 0)
(17.3732 -18.5418 7.56812e-20)
(16.9293 -18.5268 6.09712e-20)
(16.3977 -18.5041 0)
(15.8973 -18.5086 7.06246e-20)
(15.4541 -18.5129 -6.93838e-20)
(14.9599 -18.4704 0)
(14.5089 -18.4392 -6.4506e-20)
(14.1136 -18.4658 6.34308e-20)
(13.7053 -18.4605 0)
(13.3501 -18.4931 2.0576e-19)
(13.0076 -18.544 2.1718e-20)
(12.6635 -18.5536 -2.3881e-19)
(12.3474 -18.6211 0)
(12.0451 -18.6551 0)
(11.7237 -18.71 0)
(11.4166 -18.7217 3.40433e-19)
(11.0911 -18.7335 -3.71356e-19)
(10.927 -18.6951 0)
(8.37705 -26.6941 0)
(8.00671 -26.2953 0)
(7.29915 -26.3289 -2.57022e-21)
(6.86174 -26.2952 -2.51726e-21)
(6.22045 -26.4209 0)
(5.84658 -26.5119 -2.97829e-23)
(5.31735 -26.5156 2.43671e-21)
(4.88408 -26.5951 0)
(4.41164 -26.6734 2.29925e-21)
(3.99978 -26.7338 0)
(3.56818 -26.7813 -2.25361e-21)
(3.21657 -26.8123 -1.12464e-21)
(2.82459 -26.8478 1.13163e-21)
(2.53425 -26.8598 2.17283e-21)
(2.17146 -26.866 0)
(1.9356 -26.8223 -5.30952e-22)
(1.58461 -26.708 2.08811e-21)
(1.42082 -25.3671 0)
(0.871952 -20.9109 0)
(0.289735 -11.4107 2.03326e-21)
(8.44115 -26.4811 1.26088e-20)
(8.06836 -26.1154 0)
(7.30686 -26.1454 1.24716e-20)
(6.86045 -26.0976 -7.43673e-21)
(6.2614 -26.273 0)
(5.839 -26.4118 -1.15549e-20)
(5.26809 -26.4091 4.63186e-21)
(4.80142 -26.4743 0)
(4.33448 -26.5464 2.16317e-21)
(3.92563 -26.6135 -4.48621e-21)
(3.50397 -26.6666 6.63337e-21)
(3.15796 -26.7044 -8.73996e-21)
(2.77434 -26.7485 6.51023e-21)
(2.49666 -26.7778 -2.20947e-21)
(2.14361 -26.7926 -2.13351e-21)
(1.92447 -26.7407 2.06502e-21)
(1.59545 -26.6378 -3.31976e-21)
(1.41879 -25.2583 -5.0138e-21)
(0.852105 -20.7175 -2.47356e-21)
(0.297127 -11.2333 -2.53624e-21)
(8.49462 -26.2495 -2.6101e-21)
(8.12989 -25.9509 -1.16837e-20)
(7.32217 -25.9768 -9.23445e-21)
(6.85647 -25.967 0)
(6.26772 -26.1245 0)
(5.83627 -26.2191 1.33288e-20)
(5.30543 -26.2226 -1.49429e-22)
(4.86098 -26.3231 -9.88986e-23)
(4.40546 -26.4168 -1.11466e-22)
(3.99202 -26.4912 -8.57887e-21)
(3.56964 -26.556 0)
(3.22006 -26.6021 0)
(2.8335 -26.6542 0)
(2.54531 -26.6792 -8.10507e-21)
(2.18465 -26.6994 0)
(1.95397 -26.6645 -7.96085e-21)
(1.60585 -26.5684 6.29286e-21)
(1.43 -25.1746 3.01798e-21)
(0.8702 -20.6138 4.97621e-21)
(0.30386 -11.0989 7.73399e-21)
(8.59326 -26.0164 2.0615e-20)
(8.21553 -25.7567 -4.07936e-20)
(7.32625 -25.78 1.65475e-22)
(6.86921 -25.7673 1.79005e-20)
(6.30806 -25.9715 0)
(5.82384 -26.1099 1.66192e-20)
(5.25948 -26.1136 -4.11898e-20)
(4.78195 -26.2015 2.47319e-20)
(4.3307 -26.2901 -1.6233e-20)
(3.91943 -26.3712 8.12098e-21)
(3.50623 -26.4425 -2.04699e-22)
(3.16149 -26.4955 -8.03459e-21)
(2.78211 -26.5553 8.07865e-21)
(2.50618 -26.5981 4.13991e-21)
(2.15592 -26.6273 3.98474e-21)
(1.94246 -26.5845 7.95607e-21)
(1.61467 -26.5 -7.83225e-21)
(1.42819 -25.0725 3.84915e-21)
(0.853027 -20.4357 -1.92354e-21)
(0.311629 -10.9288 -7.72204e-21)
(8.65457 -25.7688 4.47008e-20)
(8.27591 -25.5663 9.75756e-21)
(7.34438 -25.5918 -1.73498e-20)
(6.88441 -25.6418 2.49997e-20)
(6.32642 -25.8179 0)
(5.81665 -25.909 -7.70397e-21)
(5.29729 -25.9277 8.05571e-21)
(4.84357 -26.0517 0)
(4.40185 -26.1625 4.00106e-22)
(3.9863 -26.2502 0)
(3.57115 -26.3331 -1.55698e-20)
(3.2225 -26.3937 0)
(2.83998 -26.4621 0)
(2.5532 -26.5003 -1.51801e-20)
(2.19401 -26.5357 7.68578e-21)
(1.96857 -26.5103 -7.46236e-21)
(1.62299 -26.4324 0)
(1.43564 -24.9942 1.86451e-21)
(0.86827 -20.3413 -1.87045e-21)
(0.318718 -10.7959 0)
(8.78982 -25.5027 1.77958e-20)
(8.36968 -25.3531 -1.73718e-20)
(7.35619 -25.3863 3.86435e-20)
(6.90597 -25.4447 -3.98754e-20)
(6.36191 -25.6557 1.44306e-20)
(5.80894 -25.7909 7.72775e-21)
(5.26107 -25.8194 -1.43609e-20)
(4.7704 -25.9296 -1.43914e-20)
(4.32919 -26.0365 7.62782e-21)
(3.91525 -26.1305 1.48264e-20)
(3.50827 -26.2205 -7.26707e-21)
(3.16393 -26.2883 0)
(2.78763 -26.3639 0)
(2.51271 -26.42 4.21156e-22)
(2.16458 -26.4646 -7.41329e-21)
(1.9567 -26.4321 7.45507e-21)
(1.62985 -26.3658 0)
(1.434 -24.8998 -1.43049e-20)
(0.853445 -20.18 -1.34507e-20)
(0.32641 -10.6332 -9.05577e-22)
(8.86091 -25.2469 -5.21645e-20)
(8.42477 -25.1312 5.23367e-20)
(7.38453 -25.1794 -1.53663e-20)
(6.93613 -25.318 0)
(6.38133 -25.4952 -1.44916e-20)
(5.79554 -25.5851 2.79974e-20)
(5.29458 -25.6335 -1.36888e-20)
(4.83123 -25.7796 1.44318e-20)
(4.39965 -25.9094 0)
(3.98247 -26.0108 0)
(3.57239 -26.112 1.41682e-20)
(3.22393 -26.1869 -1.42203e-20)
(2.84411 -26.2714 0)
(2.55792 -26.3232 2.15956e-20)
(2.19971 -26.3749 -7.13387e-21)
(1.97929 -26.3601 -7.07178e-21)
(1.63614 -26.3003 5.67687e-21)
(1.43821 -24.8279 1.78002e-20)
(0.866026 -20.0951 9.02082e-21)
(0.333412 -10.5025 1.75924e-21)
(9.01282 -24.9531 0)
(8.50924 -24.8968 -2.94298e-20)
(7.41912 -24.9691 2.95157e-20)
(6.9625 -25.1222 0)
(6.41154 -25.321 0)
(5.79674 -25.4592 -2.62179e-20)
(5.26953 -25.5272 2.62968e-20)
(4.76535 -25.6579 0)
(4.32883 -25.7848 1.33519e-20)
(3.91303 -25.8916 -2.68396e-20)
(3.50981 -26.0003 1.34899e-20)
(3.16538 -26.0826 1.35977e-20)
(2.79115 -26.1741 -1.36385e-20)
(2.51656 -26.2434 0)
(2.16971 -26.3046 0)
(1.96661 -26.2837 -6.84674e-21)
(1.64103 -26.2357 8.23145e-21)
(1.4363 -24.7421 -2.53012e-24)
(0.852979 -19.952 -5.13334e-21)
(0.340992 -10.3472 1.70958e-21)
(9.11013 -24.6616 2.97632e-20)
(8.56476 -24.6471 -2.98849e-20)
(7.45661 -24.7424 -3.73036e-20)
(6.99757 -24.9868 5.02806e-20)
(6.42523 -25.154 -4.9262e-20)
(5.78131 -25.2523 -1.43784e-22)
(5.29891 -25.3412 2.45901e-20)
(4.82398 -25.5062 0)
(4.39779 -25.6576 0)
(3.98012 -25.7729 1.23202e-20)
(3.57309 -25.8925 0)
(3.22423 -25.9818 0)
(2.84592 -26.082 0)
(2.55953 -26.1478 0)
(2.20194 -26.2168 0)
(1.98563 -26.2137 0)
(1.64523 -26.1724 -5.3022e-21)
(1.438 -24.6774 6.62909e-21)
(0.862891 -19.876 -1.65891e-21)
(0.348221 -10.2195 1.65845e-21)
(9.26012 -24.3278 -2.50149e-20)
(8.63386 -24.3921 -3.98251e-20)
(7.51777 -24.5261 -1.11364e-20)
(7.03107 -24.7878 -1.08672e-20)
(6.45667 -24.9692 1.11366e-20)
(5.79032 -25.1203 3.33355e-20)
(5.27933 -25.2357 1.10268e-20)
(4.76375 -25.3849 0)
(4.32894 -25.5341 -1.23608e-20)
(3.91231 -25.6546 2.31582e-20)
(3.51086 -25.7816 1.18875e-20)
(3.16592 -25.8783 1.19811e-20)
(2.79278 -25.9854 0)
(2.51772 -26.0683 1.22622e-20)
(2.17132 -26.1468 1.24903e-20)
(1.97141 -26.1395 0)
(1.64806 -26.1104 0)
(1.43539 -24.6001 0)
(0.850735 -19.7527 0)
(0.355933 -10.0717 0)