/*--------------------------------*- C++ -*----------------------------------*\
  =========                 |
  \\      /  F ield         | OpenFOAM: The Open Source CFD Toolbox
   \\    /   O peration     | Website:  https://openfoam.org
    \\  /    A nd           | Version:  9
     \\/     M anipulation  |
\*---------------------------------------------------------------------------*/
FoamFile
{
    format      ascii;
    class       volScalarField;
    location    "4.6";
    object      p;
}
// * * * * * * * * * * * * * * * * * * * * * * * * * * * * * * * * * * * * * //

dimensions      [0 2 -2 0 0 0 0];

internalField   nonuniform List<scalar> 
46400
(
107.484
113.58
123.241
131.515
138.597
145.178
150.915
156.138
160.762
164.949
168.692
172.077
175.161
177.993
180.653
183.163
185.542
188.277
190.927
191.29
130.412
136.258
144.505
151.934
158.255
164.101
169.22
173.855
177.928
181.583
184.827
187.725
190.308
192.587
194.619
196.401
197.949
199.411
200.674
200.251
153.402
157.53
164.774
171.494
177.074
182.196
186.6
190.55
193.986
197.034
199.7
202.039
204.107
205.925
207.539
208.95
210.144
211.307
212.328
211.506
174.355
177.919
184.912
190.982
196.009
200.5
204.316
207.655
210.497
212.933
215.024
216.788
218.288
219.509
220.534
221.336
221.922
222.456
222.946
221.826
194.316
198.053
204.434
209.811
214.052
217.795
220.868
223.501
225.699
227.532
229.045
230.266
231.263
232.038
232.637
233.066
233.31
233.53
233.736
232.393
214.521
219.07
224.343
228.889
232.364
235.335
237.735
239.674
241.229
242.424
243.356
244.003
244.452
244.663
244.718
244.588
244.304
243.999
243.701
242.04
234.454
239.361
243.108
246.565
249.16
251.259
252.904
254.13
255.045
255.648
256.03
256.19
256.192
256.036
255.764
255.378
254.842
254.316
253.804
251.976
254.59
258.667
261.549
263.884
265.723
267.047
268.031
268.604
268.887
268.869
268.66
268.23
267.657
266.919
266.092
265.149
264.124
263.109
262.064
260.162
272.119
274.991
277.062
278.543
279.629
280.273
280.651
280.699
280.527
280.069
279.423
278.588
277.64
276.573
275.412
274.151
272.796
271.441
270.045
267.837
288.46
290.701
292.154
292.931
293.397
293.394
293.178
292.645
291.927
290.966
289.823
288.488
287.039
285.478
283.851
282.149
280.389
278.649
276.893
274.486
300.891
302.511
303.513
303.872
303.95
303.559
302.944
302.035
300.975
299.723
298.356
296.836
295.213
293.451
291.618
289.69
287.703
285.719
283.747
281.095
313.723
314.774
315.303
315.065
314.594
313.645
312.506
311.04
309.436
307.64
305.765
303.782
301.734
299.612
297.445
295.234
292.979
290.753
288.544
285.866
322.302
322.698
322.951
322.485
321.895
320.813
319.563
318.021
316.316
314.4
312.362
310.178
307.917
305.56
303.162
300.7
298.208
295.72
293.268
290.371
331.262
331.151
330.822
329.851
328.664
327.108
325.331
323.357
321.218
318.966
316.601
314.168
311.664
309.122
306.537
303.932
301.291
298.681
296.122
293.194
335.572
335.533
335.044
334.045
332.849
331.352
329.595
327.576
325.392
323.01
320.533
317.921
315.265
312.529
309.78
306.992
304.193
301.417
298.725
295.669
339.662
339.56
338.744
337.359
335.739
333.814
331.723
329.419
326.996
324.425
321.78
319.04
316.263
313.432
310.59
307.72
304.843
301.986
299.227
296.141
341.135
340.557
339.926
338.575
336.919
334.937
332.747
330.373
327.854
325.205
322.468
319.639
316.764
313.84
310.902
307.947
304.981
302.05
299.219
296.081
340.58
339.734
338.777
337.256
335.666
333.571
331.373
328.888
326.334
323.604
320.833
317.954
315.053
312.097
309.137
306.16
303.178
300.22
297.362
294.241
336.643
336.371
335.36
334.169
332.511
330.598
328.401
326.028
323.466
320.793
318.006
315.15
312.235
309.28
306.312
303.327
300.341
297.38
294.525
291.382
331.158
331.035
330.257
329.112
327.54
325.642
323.531
321.156
318.675
316.011
313.294
310.472
307.626
304.729
301.825
298.914
295.99
293.118
290.347
287.241
4.69777
5.47617
4.65857
5.09399
5.42341
6.2836
8.21949
10.1164
12.0929
14.381
16.5491
18.7577
20.8887
23.0855
25.2031
27.3404
29.4134
31.4341
33.4501
35.4048
4.4125
4.85341
4.77547
3.7586
5.39232
7.19195
9.03303
10.952
13.3893
15.857
18.2777
20.6545
22.9909
25.3439
27.5983
29.8686
32.0388
34.1898
36.2737
38.2947
2.31767
2.33232
3.224
2.90843
4.3791
6.77916
9.06692
11.6848
14.3513
17.0775
19.696
22.3456
24.8961
27.4753
29.9155
32.3634
34.6995
36.9599
39.1415
41.2078
-1.86947
-1.57966
-1.30838
0.326314
2.50718
5.17794
8.30967
11.453
14.6575
17.7176
20.7834
23.7655
26.6647
29.5129
32.2067
34.9107
37.4163
39.8956
42.272
44.48
-8.32248
-7.74178
-7.744
-4.55289
-0.720233
3.07417
7.01103
10.8155
14.5994
18.2618
21.7623
25.1829
28.4421
31.6277
34.6183
37.5695
40.2947
42.9901
45.492
47.9027
-16.4611
-15.8243
-14.2792
-9.84099
-4.81702
0.40434
5.29392
10.0412
14.5441
18.8105
22.9024
26.7854
30.4834
34.0135
37.32
40.5695
43.4964
46.4371
49.0797
51.6167
-26.9327
-26.0358
-21.7222
-15.2167
-8.31195
-1.91399
4.07069
9.66571
14.9314
19.866
24.487
28.8666
32.9766
36.8826
40.5375
44.0527
47.2406
50.4683
53.2678
56.0367
-35.0196
-34.2002
-26.9048
-18.9136
-10.6738
-3.12948
3.87341
10.2456
16.2012
21.7116
26.8619
31.6809
36.1907
40.4177
44.3703
48.1547
51.5659
55.0284
57.9858
60.9819
-40.9956
-39.2118
-29.7387
-20.251
-11.022
-2.64845
5.09164
12.1467
18.6602
24.676
30.2392
35.4253
40.2369
44.7404
48.9467
52.8925
56.4895
60.1194
63.11
66.2972
-42.3231
-39.5302
-30.1172
-19.3755
-9.33239
-0.21891
8.07067
15.6116
22.5734
28.9473
34.8318
40.302
45.3547
50.0477
54.4096
58.4956
62.2061
65.901
68.9282
72.2851
-40.5766
-37.7855
-26.5468
-15.5687
-5.19371
4.32116
12.9898
20.8372
28.0742
34.7064
40.7847
46.4166
51.5999
56.4034
60.858
64.9646
68.7355
72.419
75.3914
78.8079
-36.2455
-33.3214
-22.3095
-10.0346
0.755632
10.5923
19.6408
27.6836
35.1205
41.9028
48.0976
53.8348
59.0849
63.9245
68.4094
72.524
76.2981
79.9479
82.9049
86.3704
-29.7243
-25.6859
-13.5144
-1.53996
9.68101
19.396
28.4635
36.5682
43.982
50.772
56.9542
62.6376
67.8378
72.6224
77.0335
81.0513
84.7728
88.2904
91.1045
94.6052
-19.0515
-14.6601
-2.90097
8.90711
20.0279
29.81
38.8406
46.9677
54.336
61.0533
67.1411
72.7457
77.8293
82.4917
86.7731
90.6377
94.2213
97.5484
100.202
103.684
-6.98957
-2.09125
10.4161
22.1992
33.1517
42.6789
51.4478
59.3173
66.4445
72.9448
78.8183
84.1823
89.0531
93.4921
97.5474
101.195
104.612
107.643
110.096
113.544
8.56841
13.6674
26.0985
37.1194
47.6841
56.9077
65.3519
72.996
79.8533
86.1028
91.7193
96.8532
101.468
105.664
109.443
112.816
115.984
118.629
120.781
124.226
25.0261
30.3762
43.3413
53.9023
64.056
72.9037
80.9028
88.1324
94.6145
100.502
105.781
110.559
114.852
118.703
122.148
125.199
128.027
130.136
131.865
135.083
43.9637
49.8677
62.5775
72.3097
81.6618
90.0219
97.5063
104.335
110.404
115.925
120.844
125.301
129.267
132.796
135.874
138.578
140.938
142.519
143.643
146.425
64.0874
69.8256
81.786
91.3307
100.055
107.951
114.951
121.321
127.003
132.161
136.772
140.931
144.661
147.976
150.91
153.5
155.689
157.135
158.56
161.361
85.576
91.4432
102.49
111.33
119.296
126.58
133.008
138.894
144.128
148.92
153.243
157.23
160.894
164.278
167.441
170.454
173.176
175.743
179.548
182.295
44.4602
54.0048
66.1872
70.9201
78.3218
80.5225
84.6276
86.0812
88.1612
89.4921
90.4964
91.818
92.2397
93.637
93.5934
95.2915
95.06
95.725
96.0446
95.6168
48.1261
56.8152
69.0397
73.3811
80.8327
82.5217
86.4261
87.6404
89.5828
90.8139
91.712
92.9172
93.2348
94.5494
94.3538
96.0566
95.5888
96.2875
96.5328
96.0647
51.9144
59.8605
71.9113
75.8269
82.9271
84.3389
88.1976
89.2413
91.0725
92.1645
92.9355
94.0365
94.2468
95.4643
95.0812
96.769
96.1085
96.9383
97.0513
96.5418
55.4091
62.7584
75.0459
78.3968
85.3096
86.359
90.0186
90.7802
92.4813
93.4732
94.1361
95.1399
95.2447
96.3583
95.8381
97.5078
96.5813
97.5217
97.4725
96.9709
59.144
65.9775
78.548
80.879
87.4381
88.1879
91.8003
92.4
93.9802
94.8316
95.3609
96.2548
96.2557
97.2666
96.5664
98.2084
97.1198
98.1305
97.9459
97.422
63.4045
69.1742
81.7685
83.4876
89.9081
90.2318
93.6249
93.9337
95.376
96.1207
96.5518
97.3467
97.2589
98.1651
97.2959
98.9568
97.6178
98.6309
98.3159
97.8141
68.6228
72.4966
85.0192
86.0114
92.0993
92.1339
95.417
95.5462
96.8819
97.4872
97.7769
98.4597
98.271
99.0663
98.0185
99.6798
98.0816
99.109
98.6719
98.2127
74.0624
76.0161
88.2357
88.7952
94.5179
94.19
97.2139
97.0972
98.267
98.7601
98.9576
99.5424
99.2796
99.9645
98.7532
100.444
98.5098
99.5676
98.9604
98.5829
79.5518
79.4861
91.2771
91.445
96.751
96.1529
99.0827
98.6996
99.7691
100.126
100.181
100.651
100.294
100.862
99.4711
101.177
98.865
100.01
99.2618
98.9419
84.8761
83.2278
94.313
94.3359
99.1598
98.2047
100.874
100.265
101.167
101.387
101.352
101.727
101.308
101.765
100.231
101.964
99.2154
100.464
99.5422
99.2856
90.5006
87.3165
97.3443
97.1357
101.451
100.219
102.73
101.861
102.609
102.745
102.569
102.828
102.327
102.663
100.962
102.717
99.5836
100.984
99.8308
99.6222
96.8665
91.4497
100.429
100.074
103.892
102.265
104.572
103.431
104.032
104
103.732
103.899
103.346
103.573
101.746
103.492
99.9974
101.461
100.131
99.9559
103.537
96.0938
103.571
102.848
106.375
104.321
106.448
105.035
105.442
105.333
104.939
104.988
104.369
104.477
102.512
104.252
100.448
101.876
100.397
100.26
110.951
100.7
106.774
105.8
108.945
106.361
108.311
106.614
106.854
106.594
106.092
106.054
105.394
105.398
103.332
105.048
100.91
102.28
100.666
100.553
118.763
105.717
110.128
108.4
111.634
108.408
110.183
108.216
108.226
107.862
107.272
107.121
106.412
106.303
104.133
105.813
101.393
102.657
100.895
100.836
127.403
110.819
113.745
111.382
114.322
110.42
112.019
109.807
109.605
109.114
108.406
108.174
107.437
107.234
104.996
106.596
101.844
102.993
101.085
101.114
136.047
116.218
117.473
114.053
117.251
112.877
114.053
111.521
111.021
110.477
109.658
109.278
108.491
108.192
105.907
107.526
102.22
103.392
101.223
101.347
143.806
121.055
121.002
116.268
120.452
114.743
115.862
113.036
112.292
111.614
110.728
110.274
109.474
109.104
106.788
108.646
102.547
103.95
101.366
101.915
155.856
127.526
126.954
118.191
123.857
116.269
117.448
114.189
113.181
112.381
111.544
110.996
110.241
109.79
107.42
109.068
102.88
103.773
101.133
101.853
170.955
140.667
134.674
123.648
127.709
120.208
120.044
116.906
115.281
114.371
113.17
112.582
111.696
111.277
108.812
109.922
103.921
103.936
100.067
102.651
185.525
189.318
164.148
165.189
148.63
150.654
141.513
140.99
134.792
133.133
128.664
127.162
123.628
122.636
119.927
119.58
116.347
118.072
104
122.939
203.083
195.019
179.34
173.639
162.144
158.838
150.635
147.032
141.342
137.954
133.877
131.423
128.281
126.62
124.069
123.372
120.794
120.702
118.638
120.572
192.876
184.077
176.392
170.441
164.396
159.573
154.711
150.881
147.021
143.848
140.702
138.301
135.991
133.843
132.165
130.255
129.504
128.137
127.6
127.887
182.37
177.693
174.021
168.809
164.257
160.008
156.066
152.371
148.955
145.918
143.028
140.368
138.004
135.954
134.221
132.669
131.61
130.126
129.904
129.665
169.467
165.418
163.352
160.12
157.877
155.002
152.526
149.964
147.575
145.309
143.186
141.215
139.391
137.599
136.142
134.524
133.506
132.224
131.642
131.421
160.473
158.952
159.015
156.988
155.491
153.345
151.489
149.357
147.37
145.364
143.41
141.537
139.736
138.002
136.48
134.831
133.712
132.424
131.799
131.697
152.751
151.737
151.485
150.217
149.519
148.407
147.216
145.934
144.583
143.272
141.789
140.425
138.902
137.462
135.957
134.413
132.994
132.004
130.861
130.81
147.53
147.344
148.058
147.762
147.46
146.745
145.989
145.03
143.945
142.838
141.512
140.287
138.798
137.416
135.826
134.264
132.632
130.98
130.028
129.566
143.646
143.942
144.293
144.224
144.183
143.896
143.363
142.808
142.069
141.367
140.312
139.413
138.071
136.893
135.25
133.647
131.683
129.621
127.932
127.339
141.169
141.641
142.417
142.654
142.819
142.836
142.654
142.416
141.882
141.41
140.539
139.803
138.574
137.47
135.791
134.114
131.793
129.261
127.243
125.594
139.567
140.217
140.841
141.342
141.575
141.913
141.843
141.922
141.65
141.52
140.954
140.581
139.685
139.035
137.639
136.554
134.166
132.817
128.247
127.582
138.893
139.68
140.296
140.867
141.167
141.551
141.821
142.194
142.268
142.431
142.281
142.255
141.813
141.623
140.725
140.402
138.35
138.695
135.234
137.084
138.543
139.421
140.244
141.005
141.7
142.352
142.68
143.166
143.447
143.9
144.111
144.529
144.665
145.079
145.102
145.573
145.349
145.988
146.497
148.887
138.582
139.447
140.181
141.007
141.718
142.515
143.204
143.899
144.529
145.208
145.882
146.593
147.392
148.165
149.29
150.128
151.87
152.716
155.544
157.129
138.907
139.836
140.641
141.534
142.29
143.233
143.925
144.891
145.653
146.674
147.52
148.662
149.641
151.119
152.249
154.081
155.635
158.065
161.119
162.014
139.222
140.143
141.037
141.98
142.876
143.8
144.707
145.736
146.665
147.771
148.777
150.032
151.191
152.648
154.038
156.117
157.792
160.827
163.336
168.076
139.601
140.504
141.375
142.299
143.179
144.147
145.084
146.109
147.083
148.233
149.25
150.591
151.657
153.272
154.408
156.4
157.456
160.001
160.59
169.495
139.919
140.823
141.731
142.676
143.616
144.607
145.581
146.634
147.65
148.774
149.839
151.056
152.158
153.511
154.6
156.158
157.194
158.929
159.692
162.048
140.139
141.025
141.923
142.854
143.787
144.77
145.741
146.786
147.791
148.914
149.943
151.159
152.19
153.507
154.498
155.901
156.672
158.216
158.535
163.143
140.261
141.145
142.054
142.986
143.938
144.917
145.911
146.939
147.979
149.057
150.138
151.269
152.375
153.566
154.655
155.93
156.916
158.329
159.047
160.763
250.691
254.138
256.901
259.074
260.517
261.518
261.577
261.513
260.123
259
256.395
253.904
250.842
245.604
240.938
236.331
230.903
225.503
218.466
211.552
218.599
220.946
222.944
224.717
226.13
227.343
228.197
228.862
229.198
229.333
229.144
228.807
228.04
227.128
225.968
224.803
223.598
221.376
217.596
215.446
182.719
184.535
186.249
187.845
189.293
190.668
191.838
192.994
193.882
194.836
195.434
196.176
196.598
197.145
197.39
197.693
197.44
197.495
196.971
197.195
168.953
170.293
171.576
172.796
173.952
175.049
176.064
177.023
177.877
178.701
179.396
180.108
180.634
181.251
181.582
182.11
182.414
182.984
183.016
183.586
153.55
154.655
155.719
156.754
157.742
158.712
159.632
160.547
161.404
162.269
163.06
163.889
164.605
165.391
166.003
166.729
167.234
167.972
168.346
169.135
147.002
147.861
148.705
149.522
150.32
151.097
151.85
152.587
153.292
153.992
154.646
155.301
155.888
156.507
157.042
157.673
158.147
158.743
159.125
159.758
140.414
141.143
141.872
142.571
143.26
143.927
144.579
145.216
145.832
146.44
147.02
147.606
148.155
148.725
149.239
149.8
150.262
150.822
151.229
151.802
137.41
138.006
138.586
139.156
139.709
140.254
140.782
141.304
141.809
142.309
142.789
143.27
143.722
144.187
144.609
145.061
145.451
145.909
146.251
146.709
134.63
135.169
135.694
136.207
136.708
137.195
137.67
138.133
138.584
139.026
139.453
139.875
140.278
140.683
141.06
141.452
141.803
142.184
142.508
142.892
133.356
133.793
134.219
134.638
135.047
135.449
135.847
136.242
136.632
137.019
137.398
137.77
138.131
138.488
138.828
139.171
139.486
139.818
140.103
140.429
132.835
133.223
133.608
133.989
134.369
134.744
135.11
135.463
135.807
136.135
136.454
136.765
137.066
137.361
137.644
137.924
138.189
138.455
138.7
138.959
132.983
133.334
133.671
133.994
134.302
134.596
134.877
135.153
135.428
135.705
135.982
136.257
136.528
136.8
137.066
137.337
137.593
137.85
138.08
138.317
132.983
133.271
133.565
133.864
134.166
134.47
134.776
135.075
135.362
135.639
135.905
136.164
136.413
136.655
136.887
137.113
137.33
137.552
137.769
137.995
133.58
133.844
134.102
134.356
134.61
134.861
135.111
135.358
135.603
135.846
136.085
136.321
136.554
136.783
137.008
137.228
137.445
137.656
137.863
138.066
134.026
134.269
134.51
134.751
134.991
135.23
135.468
135.703
135.938
136.169
136.4
136.627
136.853
137.076
137.297
137.515
137.73
137.944
138.154
138.363
134.616
134.837
135.057
135.277
135.497
135.716
135.934
136.152
136.369
136.586
136.801
137.016
137.229
137.441
137.652
137.862
138.071
138.277
138.483
138.686
135.126
135.331
135.538
135.744
135.952
136.159
136.368
136.576
136.785
136.994
137.203
137.412
137.62
137.828
138.036
138.243
138.45
138.656
138.862
139.066
135.513
135.708
135.904
136.102
136.301
136.501
136.702
136.904
137.107
137.311
137.515
137.72
137.926
138.132
138.339
138.546
138.754
138.961
139.17
139.377
135.824
136.011
136.199
136.39
136.581
136.775
136.969
137.165
137.363
137.561
137.761
137.962
138.164
138.366
138.57
138.775
138.981
139.187
139.394
139.601
135.955
136.138
136.324
136.511
136.7
136.89
137.083
137.277
137.472
137.67
137.868
138.069
138.27
138.473
138.678
138.884
139.091
139.299
139.509
139.719
-29.0028
-31.7582
-38.4236
-45.4488
-51.9977
-58.9064
-66.1504
-73.75
-81.8273
-90.4051
-99.5907
-109.474
-120.089
-131.671
-144.123
-157.815
-172.635
-188.659
-207.805
-218.241
-10.3032
-12.1083
-16.9477
-22.3637
-27.7256
-33.4935
-39.6711
-46.2801
-53.3472
-60.9852
-69.1962
-78.1138
-87.7438
-98.2836
-109.647
-122.256
-135.829
-150.874
-168.315
-178.822
10.6471
10.0575
6.47827
1.85021
-2.71842
-7.71581
-13.1246
-18.9403
-25.243
-32.0252
-39.3809
-47.3444
-55.9803
-65.4434
-75.6652
-87.0361
-99.2106
-112.795
-128.578
-138.775
32.0565
31.7692
28.747
24.9448
21.1619
17.0318
12.5044
7.58883
2.25391
-3.58732
-9.93896
-16.9191
-24.5372
-32.9604
-42.1074
-52.3551
-63.262
-75.7079
-89.5139
-98.2381
54.0679
54.3425
52.0173
48.9108
45.8371
42.4048
38.5942
34.4192
29.8007
24.7487
19.1655
13.0286
6.25589
-1.25731
-9.47631
-18.7515
-28.7005
-40.2412
-52.8511
-59.3639
75.6856
76.1909
74.3526
71.8296
69.3496
66.6074
63.5166
60.1153
56.3427
52.148
47.4791
42.274
36.4581
29.9396
22.6793
14.3784
5.35614
-5.33036
-17.2551
-23.5771
96.8487
97.8241
96.6427
94.8125
93.0273
90.9602
88.574
85.8776
82.806
79.3502
75.4408
71.0411
66.0743
60.4684
54.1893
46.9735
39.107
29.4629
18.8643
11.767
118.104
119.272
118.328
116.977
115.64
114.1
112.267
110.211
107.835
105.146
102.047
98.5431
94.5191
89.979
84.7683
78.7982
72.1345
64.0028
55.1436
47.5018
138.221
139.558
139.114
138.308
137.587
136.627
135.462
134.053
132.369
130.379
128.051
125.35
122.224
118.618
114.454
109.65
104.209
97.4898
90.4737
82.6703
157.374
158.9
158.797
158.46
158.14
157.658
156.966
156.106
155.02
153.721
152.132
150.272
148.023
145.419
142.275
138.655
134.355
129.251
123.94
116.294
175.034
176.744
177.074
177.235
177.457
177.537
177.473
177.261
176.871
176.278
175.453
174.35
172.932
171.145
168.92
166.274
163.017
159.233
154.782
148.845
192.003
193.858
194.565
195.146
195.779
196.315
196.715
197.017
197.145
197.138
196.879
196.418
195.616
194.536
193.025
191.145
188.702
185.863
182.288
177.703
207.009
209.173
210.419
211.529
212.666
213.707
214.629
215.446
216.115
216.629
216.926
217.028
216.839
216.417
215.585
214.473
212.803
210.744
207.912
204.165
221.52
223.803
225.32
226.729
228.182
229.568
230.873
232.095
233.183
234.156
234.945
235.581
235.944
236.099
235.867
235.377
234.311
233.008
230.825
227.884
234.306
236.803
238.699
240.523
242.378
244.169
245.883
247.502
249.017
250.407
251.653
252.732
253.586
254.233
254.539
254.612
254.172
253.465
251.964
249.664
246.41
249.049
251.166
253.232
255.338
257.386
259.384
261.32
263.182
264.95
266.577
268.066
269.342
270.44
271.233
271.802
271.92
271.816
270.866
269.267
256.9
259.732
262.111
264.477
266.859
269.209
271.505
273.752
275.926
277.995
279.96
281.766
283.433
284.874
286.083
287.024
287.542
287.801
287.235
286.3
266.502
269.434
271.953
274.484
277.07
279.61
282.137
284.607
287.031
289.372
291.62
293.752
295.714
297.514
299.062
300.375
301.297
301.894
301.844
301.618
274.776
277.816
280.419
283.094
285.807
288.502
291.167
293.804
296.388
298.901
301.331
303.628
305.811
307.776
309.58
311.054
312.277
313.098
313.587
313.551
281.614
284.698
287.403
290.195
293.043
295.858
298.681
301.459
304.23
306.91
309.562
312.073
314.508
316.741
318.816
320.609
322.144
323.343
324.091
324.113
-379.714
-389.861
-400.45
-411.838
-423.529
-435.985
-448.852
-462.334
-476.404
-491.086
-506.444
-522.478
-539.403
-557.247
-575.762
-596.024
-616.671
-633.563
-645.107
-646.663
-371.827
-382.05
-392.655
-404.158
-416
-428.624
-441.699
-455.449
-469.823
-484.867
-500.662
-517.245
-534.674
-553.014
-572.428
-593.215
-614.457
-633.131
-649.867
-652.501
-363.087
-373.378
-383.935
-395.489
-407.384
-420.125
-433.395
-447.332
-461.969
-477.332
-493.484
-510.474
-528.437
-547.464
-567.78
-589.4
-611.689
-633.376
-650.833
-653.992
-353.59
-363.961
-374.53
-386.151
-398.126
-410.924
-424.304
-438.4
-453.227
-468.804
-485.261
-502.589
-520.904
-540.339
-560.992
-582.881
-605.841
-628.999
-648.637
-652.143
-343.378
-353.679
-364.039
-375.613
-387.545
-400.348
-413.8
-427.981
-442.946
-458.742
-475.414
-493.055
-511.797
-531.771
-553.04
-575.761
-599.654
-625.173
-644.345
-647.722
-331.87
-342.231
-352.475
-364
-375.906
-388.661
-402.098
-416.296
-431.309
-447.142
-463.956
-481.741
-500.686
-520.876
-542.429
-565.644
-590.547
-617.115
-637.456
-641.431
-319.206
-329.561
-339.647
-351.02
-362.852
-375.528
-388.909
-403.048
-418.019
-433.894
-450.698
-468.557
-487.585
-507.911
-529.697
-553.214
-578.156
-605.06
-626.8
-631.563
-305.457
-315.732
-325.65
-336.837
-348.521
-360.995
-374.225
-388.218
-403.063
-418.782
-435.52
-453.28
-472.299
-492.573
-514.373
-537.806
-562.947
-590.195
-612.763
-618.619
-290.411
-300.581
-310.273
-321.228
-332.733
-344.996
-358.008
-371.802
-386.427
-401.98
-418.483
-436.089
-454.895
-475.022
-496.686
-519.988
-544.916
-572.041
-595.5
-602.179
-274.401
-284.408
-293.812
-304.447
-315.657
-327.599
-340.312
-353.776
-368.095
-383.302
-399.521
-416.792
-435.305
-455.098
-476.472
-499.354
-524.081
-551.092
-574.972
-582.534
-256.876
-266.686
-275.828
-286.127
-297.059
-308.664
-321.009
-334.14
-348.081
-362.944
-378.757
-395.669
-413.746
-433.153
-454.071
-476.453
-500.67
-527.104
-551.381
-559.618
-238.59
-248.162
-256.921
-266.784
-277.287
-288.453
-300.376
-313.028
-326.51
-340.879
-356.216
-372.607
-390.214
-409.089
-429.504
-451.362
-475.285
-501.123
-525.055
-534.063
-218.762
-228.046
-236.495
-245.916
-256.037
-266.761
-278.184
-290.372
-303.343
-317.199
-331.987
-347.85
-364.825
-383.107
-402.821
-423.97
-447.005
-472.061
-496.295
-505.427
-198.083
-207.09
-215.12
-224.036
-233.64
-243.847
-254.763
-266.386
-278.796
-292.071
-306.251
-321.456
-337.808
-355.388
-374.42
-394.791
-417.37
-441.257
-465.338
-474.897
-176.297
-184.957
-192.639
-201.026
-210.146
-219.825
-230.144
-241.188
-252.99
-265.612
-279.134
-293.683
-309.275
-326.131
-344.268
-363.877
-385.26
-407.926
-432.123
-441.629
-153.214
-161.566
-168.833
-176.698
-185.269
-194.411
-204.193
-214.662
-225.858
-237.881
-250.734
-264.559
-279.433
-295.455
-312.83
-331.505
-352.086
-373.886
-397.639
-407.489
-129.969
-137.888
-144.738
-152.029
-160.059
-168.641
-177.797
-187.626
-198.172
-209.458
-221.586
-234.671
-248.703
-263.944
-280.32
-298.074
-317.403
-337.975
-361.059
-371.019
-105.553
-113.069
-119.377
-126.045
-133.464
-141.484
-150.06
-159.294
-169.192
-179.866
-191.301
-203.633
-216.912
-231.27
-246.833
-263.685
-282.23
-302.118
-324.198
-334.079
-78.7796
-86.6479
-92.9293
-99.226
-106.264
-113.929
-122.07
-130.78
-140.137
-150.132
-160.866
-172.44
-184.851
-198.367
-212.862
-228.657
-245.851
-264.114
-285.411
-295.718
-48.9953
-56.6527
-64.1443
-70.9104
-77.8469
-85.3706
-93.2468
-101.557
-110.355
-119.779
-129.826
-140.639
-152.257
-164.854
-178.444
-193.329
-209.548
-227.098
-247.235
-257.293
-31.431
-31.5786
-33.9642
-36.1496
-39.1327
-43.8084
-47.4559
-53.7738
-59.4295
-67.8216
-76.4688
-87.7857
-100.904
-116.42
-136.734
-158.677
-190.49
-224.373
-275.04
-330.512
-31.2388
-31.3291
-33.5727
-35.8614
-38.6025
-43.3199
-46.7401
-52.9751
-58.4564
-66.7113
-75.1614
-86.2814
-99.083
-114.242
-134.147
-155.412
-186.727
-219.471
-269.373
-322.764
-31.0091
-31.0598
-33.067
-35.5814
-38.0355
-42.7966
-46.0088
-52.1451
-57.4667
-65.5699
-73.8049
-84.7217
-97.2209
-112.081
-131.502
-152.188
-182.78
-214.102
-263.318
-314.578
-30.7907
-30.884
-32.5605
-35.2475
-37.4389
-42.224
-45.2141
-51.2298
-56.3807
-64.3268
-72.3524
-83.0652
-95.209
-109.727
-128.613
-148.713
-178.6
-208.698
-256.99
-305.566
-30.5127
-30.5842
-32.0717
-34.8738
-36.8273
-41.6236
-44.398
-50.2827
-55.2732
-63.0528
-70.8513
-81.3559
-93.159
-107.381
-125.701
-145.235
-174.207
-202.971
-250.015
-296.012
-30.229
-30.3329
-31.517
-34.461
-36.2013
-40.9889
-43.5137
-49.2514
-54.0725
-61.6803
-69.2582
-79.5492
-90.9655
-104.85
-122.558
-141.509
-169.592
-197.096
-242.619
-285.955
-29.8984
-30.1141
-30.8543
-34.0335
-35.4237
-40.3436
-42.5848
-48.1833
-52.8468
-60.2751
-67.6173
-77.6919
-88.7366
-102.323
-119.39
-137.773
-164.783
-190.914
-234.687
-275.192
-29.5458
-29.9209
-30.102
-33.5034
-34.3794
-39.6241
-41.602
-47.0271
-51.5389
-58.777
-65.8903
-75.7383
-86.3732
-99.621
-116.004
-133.797
-159.742
-184.53
-226.321
-263.92
-29.1504
-29.7419
-29.3806
-32.8487
-33.3018
-38.8054
-40.5876
-45.8541
-50.1876
-57.2418
-64.1163
-73.7359
-83.9775
-96.9138
-112.594
-129.809
-154.528
-177.886
-217.504
-251.772
-28.7359
-29.495
-28.689
-32.21
-32.1795
-37.84
-39.4771
-44.5957
-48.7499
-55.628
-62.264
-71.6404
-81.4582
-94.0468
-108.982
-125.595
-149.074
-171.002
-208.21
-239.109
-28.2754
-29.2357
-27.9536
-31.593
-31.0413
-36.7603
-38.3138
-43.2927
-47.277
-53.9747
-60.3668
-69.4978
-78.9103
-91.1652
-105.348
-121.363
-143.471
-163.916
-198.596
-225.542
-27.7967
-28.9892
-27.239
-30.971
-29.9532
-35.5372
-37.1136
-41.9006
-45.7416
-52.2451
-58.4006
-67.2681
-76.2523
-88.1404
-101.538
-116.925
-137.627
-156.567
-188.431
-211.294
-27.3022
-28.754
-26.5358
-30.2967
-28.9121
-34.2915
-35.7891
-40.4741
-44.1754
-50.4767
-56.3928
-64.9907
-73.5655
-85.0879
-97.7006
-112.454
-131.646
-149.067
-178.072
-196.287
-26.7998
-28.5203
-25.7711
-29.5803
-27.8793
-32.9865
-34.3549
-38.973
-42.5521
-48.6377
-54.3226
-62.6327
-70.7822
-81.9101
-93.7187
-107.802
-125.454
-141.345
-167.162
-180.36
-26.2321
-28.2754
-24.9981
-28.7863
-26.8881
-31.6533
-32.965
-37.4492
-40.9016
-46.7732
-52.2268
-60.2446
-67.9938
-78.7269
-89.7477
-103.15
-119.197
-133.556
-156.055
-163.654
-25.6567
-28.0026
-24.2033
-27.908
-25.8806
-30.3389
-31.5766
-35.8785
-39.1854
-44.8692
-50.0723
-57.7789
-65.1121
-75.4113
-85.6162
-98.2632
-112.654
-125.424
-144.156
-145.797
-25.1034
-27.7
-23.3125
-26.9833
-24.7412
-29.0545
-30.1252
-34.2549
-37.4134
-42.8734
-47.8234
-55.1964
-62.1049
-71.9351
-81.3147
-93.1585
-105.865
-117.149
-132.275
-127.801
-24.2887
-27.3269
-22.2478
-25.975
-23.5722
-27.8237
-28.6641
-32.6218
-35.6214
-40.8845
-45.5951
-52.6526
-59.1771
-68.5967
-77.2463
-88.3733
-99.6233
-109.549
-120.724
-109.149
-23.731
-27.0686
-21.6423
-24.9454
-22.5241
-26.6546
-27.3802
-31.1594
-34.0531
-39.1377
-43.6703
-50.4781
-56.7634
-65.8708
-73.9001
-84.3203
-94.1656
-102.279
-107.318
-84.9248
-22.7182
-26.6923
-21.3154
-23.5573
-21.16
-25.0979
-25.7109
-29.3308
-32.0457
-36.8499
-41.0303
-47.3468
-53.0965
-61.3716
-68.2212
-77.2006
-84.5776
-90.3142
-88.4099
-60.0672
-6.01284
-13.8876
-9.01514
-12.7379
-9.8515
-12.5706
-12.1104
-14.7031
-15.1139
-17.5373
-18.2978
-20.3271
-20.1247
-20.9292
-18.5597
-18.5441
-11.3461
-7.60288
6.09131
-3.4507
-1.08129
-3.25728
-1.44326
-2.56775
-1.22076
-1.76259
-1.33005
-1.23302
-0.950805
-0.296346
0.963469
2.5913
5.33155
8.14644
13.7812
18.9933
30.3655
38.896
62.31
74.5632
19.6146
19.6525
19.0583
19.6228
19.7577
20.1992
21.2108
21.8573
23.6609
25.1841
27.7556
30.292
34.1742
38.5993
44.8882
52.0891
62.2315
73.182
88.0485
102.009
26.4766
26.5904
26.7769
27.8386
28.7759
30.3507
31.9602
34.3313
36.8264
39.8014
43.3286
47.3888
52.3798
57.8065
64.7202
71.8897
81.3637
90.4039
103.986
115.156
39.048
39.2369
40.1891
41.7346
43.4501
45.2066
47.3262
49.4773
52.1413
54.9633
58.4032
62.1534
66.5661
71.5174
77.1737
83.5417
90.6318
98.3686
106.934
115.749
46.9187
47.0866
47.865
49.7681
51.4102
53.8813
56.2203
59.0501
62.0118
65.2812
68.9735
72.8793
77.3959
82.0514
87.4504
92.9266
99.1749
105.405
112.881
119.608
55.8076
56.4466
57.6513
59.998
62.2503
64.6092
67.2457
69.6614
72.5382
75.3586
78.6559
81.9654
85.7432
89.6124
93.9222
98.3396
103.137
108.055
112.688
117.593
62.9549
63.6646
65.2588
67.4631
69.7295
72.1567
74.5554
77.1374
79.9538
82.7318
85.8777
88.9739
92.4853
95.8839
99.7504
103.404
107.578
111.689
116.374
120.145
70.3332
71.0488
73.4048
75.44
78.2798
80.2752
83.0426
85.1589
87.9022
90.101
92.9249
95.4806
98.3873
101.206
104.28
107.3
110.56
113.377
116.376
119.412
77.4148
77.937
80.7649
82.6817
85.5073
87.4484
89.8936
91.8432
94.2201
96.2582
98.6609
100.863
103.388
105.746
108.337
110.864
113.725
116.389
119.282
121.538
85.6194
85.5996
89.8167
91.4556
94.0068
95.5757
97.6544
99.1609
101.128
102.704
104.694
106.387
108.456
110.287
112.478
114.428
116.497
118.361
120.431
122.262
99.7791
97.6994
101.004
100.542
102.715
103.356
104.827
105.755
107.164
108.283
109.746
111.016
112.615
114.019
115.752
117.246
119.1
120.686
122.628
124.211
115.337
113.564
111.999
112.098
111.8
112.13
112.345
112.812
113.41
114.057
114.945
115.807
116.9
117.938
119.184
120.354
121.716
122.92
124.366
125.579
124.687
124.151
120.595
120.269
118.932
118.544
118.209
118.072
118.305
118.48
119.055
119.5
120.317
120.976
121.972
122.796
123.895
124.854
126.052
127.062
133.975
131.785
129.654
126.594
125.957
124.339
123.999
123.171
123.097
122.82
123.039
123.146
123.6
123.994
124.637
125.251
126.045
126.79
127.712
128.53
145.292
132.568
131.509
129.394
128.507
127.207
126.553
125.936
125.704
125.407
125.501
125.516
125.854
126.103
126.617
127.055
127.711
128.293
129.064
129.741
140.577
136.708
135.319
132.97
132.006
130.536
129.916
128.793
128.647
128.003
127.992
127.732
127.918
128.026
128.376
128.697
129.187
129.66
130.265
130.85
144.348
134.645
134.319
132.572
132.141
131.066
130.705
129.892
129.697
129.297
129.248
129.114
129.162
129.232
129.47
129.735
130.124
130.533
131.061
131.592
136.626
135.379
135.666
133.522
133.197
132.018
131.717
131.009
130.736
130.308
130.202
130.06
130.075
130.134
130.323
130.546
130.869
131.24
131.694
132.183
140.275
136.411
137.738
132.863
132.735
132.071
131.778
131.268
131.004
130.663
130.551
130.39
130.49
130.538
130.675
130.879
131.178
131.528
131.955
132.429
36.5698