/*--------------------------------*- C++ -*----------------------------------*\
  =========                 |
  \\      /  F ield         | OpenFOAM: The Open Source CFD Toolbox
   \\    /   O peration     | Website:  https://openfoam.org
    \\  /    A nd           | Version:  9
     \\/     M anipulation  |
\*---------------------------------------------------------------------------*/
FoamFile
{
    format      ascii;
    class       volScalarField;
    location    "8.1";
    object      p;
}
// * * * * * * * * * * * * * * * * * * * * * * * * * * * * * * * * * * * * * //

dimensions      [0 2 -2 0 0 0 0];

internalField   nonuniform List<scalar> 
46400
(
122.726
129.044
140.422
149.832
158.133
165.785
172.52
178.669
184.169
189.188
193.726
197.864
201.695
205.25
208.636
211.877
215.045
218.563
221.839
222.386
147.382
154.268
164.04
172.592
180.002
186.861
192.92
198.422
203.321
207.793
211.815
215.468
218.754
221.723
224.38
226.776
228.884
230.858
232.634
232.498
172.93
178.348
186.833
194.513
201.055
207.105
212.379
217.151
221.355
225.122
228.479
231.469
234.182
236.615
238.83
240.817
242.556
244.262
245.671
245.11
197.335
201.569
209.328
216.328
222.231
227.611
232.265
236.404
239.997
243.17
245.943
248.359
250.445
252.246
253.795
255.121
256.194
257.211
258.079
257.183
219.767
223.634
230.976
237.248
242.364
246.969
250.845
254.258
257.178
259.696
261.865
263.704
265.296
266.633
267.767
268.705
269.444
270.149
270.807
269.734
242.056
246.314
252.847
258.395
262.786
266.667
269.885
272.605
274.885
276.768
278.343
279.592
280.595
281.353
281.913
282.281
282.467
282.64
282.792
281.452
263.744
268.854
273.948
278.519
281.94
284.884
287.258
289.2
290.779
292.016
292.996
293.716
294.234
294.551
294.711
294.732
294.584
294.413
294.192
292.661
286.323
291.544
295.107
298.494
301.08
303.148
304.786
305.964
306.848
307.409
307.773
307.889
307.829
307.568
307.18
306.642
305.99
305.325
304.644
302.813
307.003
310.981
313.793
316.065
317.873
319.161
320.125
320.7
321.008
321.028
320.856
320.502
320.032
319.437
318.736
317.922
316.979
316.032
315.055
313.101
326.68
329.564
331.609
333.016
334.073
334.676
334.985
334.923
334.635
334.055
333.305
332.342
331.282
330.097
328.862
327.532
326.145
324.761
323.379
321.219
342.516
344.737
346.211
347.059
347.583
347.664
347.551
347.11
346.489
345.609
344.59
343.388
342.07
340.622
339.095
337.49
335.809
334.148
332.495
330.078
357.771
359.375
360.336
360.508
360.454
359.901
359.176
358.14
356.945
355.537
354.002
352.327
350.565
348.713
346.813
344.856
342.859
340.882
338.909
336.433
369.554
370.637
371.253
371.16
370.84
370.042
369.03
367.762
366.347
364.73
362.981
361.081
359.075
356.957
354.769
352.51
350.195
347.889
345.59
342.77
381.042
381.413
381.522
380.87
380.031
378.731
377.226
375.455
373.587
371.564
369.475
367.281
365.037
362.728
360.381
357.997
355.568
353.169
350.826
347.974
389.127
389.039
388.879
388.03
387.05
385.654
384.081
382.178
380.127
377.875
375.536
373.073
370.56
367.975
365.369
362.725
360.061
357.419
354.86
351.873
395.617
395.487
394.893
393.772
392.337
390.641
388.719
386.622
384.336
381.942
379.415
376.828
374.152
371.455
368.707
365.963
363.176
360.439
357.774
354.723
398.512
398.695
398.174
397.131
395.856
394.072
392.093
389.818
387.415
384.828
382.165
379.397
376.584
373.717
370.837
367.94
365.033
362.162
359.399
356.277
402.347
401.428
400.672
399.119
397.476
395.487
393.289
390.914
388.37
385.719
382.953
380.135
377.25
374.336
371.397
368.454
365.491
362.57
359.761
356.573
402.209
401.298
400.506
398.849
397.129
395.031
392.766
390.303
387.701
384.991
382.172
379.305
376.375
373.424
370.447
367.472
364.479
361.533
358.703
355.515
398.082
398.079
397.194
396.062
394.41
392.513
390.312
387.934
385.376
382.696
379.909
377.047
374.136
371.185
368.223
365.251
362.274
359.345
356.554
353.338
-8.81013
-8.45397
-9.26456
-7.68633
-6.18481
-4.04332
-0.711365
2.57576
5.78594
9.15951
12.3462
15.4712
18.4731
21.4961
24.4085
27.3129
30.1568
32.9622
35.7282
38.5093
-8.006
-7.99752
-8.21102
-8.01892
-4.53175
-1.6202
1.42363
4.47297
8.01181
11.5465
15.0032
18.3259
21.5651
24.7886
27.9037
30.9758
33.9347
36.9194
39.7591
42.6614
-9.0756
-9.21787
-7.917
-7.54811
-5.03848
-1.35221
2.14012
6.05706
9.91963
13.7269
17.3816
21.0212
24.5101
27.9834
31.3002
34.5879
37.7432
40.8641
43.8334
46.8234
-11.6143
-11.3346
-10.9642
-8.60637
-5.18156
-1.16624
3.18276
7.4106
11.6555
15.7243
19.7735
23.6857
27.4866
31.2128
34.7713
38.2596
41.5862
44.9147
48.0301
51.1283
-16.1488
-15.329
-14.9854
-11.0149
-6.61798
-1.87647
3.14185
7.98629
12.8005
17.4524
21.9163
26.2686
30.4264
34.4924
38.3207
42.1254
45.6865
49.1921
52.523
55.7813
-23.9262
-22.9848
-20.9983
-15.533
-9.33623
-3.10203
2.7991
8.58045
14.0819
19.3168
24.3554
29.1279
33.7031
38.0767
42.2116
46.2683
50.0108
53.7643
57.1826
60.625
-33.5412
-32.5627
-27.4803
-19.9259
-11.9484
-4.32807
2.74589
9.37809
15.675
21.5844
27.1389
32.4114
37.3782
42.1126
46.5687
50.8752
54.8275
58.8016
62.3376
65.8782
-40.1819
-39.6037
-31.7086
-22.3293
-12.9515
-4.24789
3.8771
11.3046
18.2849
24.7757
30.8686
36.5548
41.9159
46.9463
51.6724
56.2038
60.3576
64.5424
68.1868
71.8746
-45.6823
-43.3279
-33.5337
-22.5604
-12.108
-2.51241
6.37139
14.5083
22.0646
29.0649
35.5589
41.6276
47.2822
52.5965
57.5893
62.2978
66.6282
70.9927
74.6821
78.5245
-45.8559
-42.7522
-32.4609
-20.2778
-8.98304
1.33782
10.7804
19.4084
27.4229
34.7929
41.6376
47.983
53.8965
59.3991
64.5499
69.3938
73.8745
78.3245
82.0537
86.1427
-41.6787
-39.379
-27.7657
-15.1679
-3.46655
7.28528
17.1095
26.0591
34.3525
41.9828
49.0077
55.5318
61.5673
67.207
72.4874
77.3991
81.9803
86.4895
90.2991
94.5769
-37.0786
-33.6993
-21.3656
-7.85178
4.2476
15.2608
25.4154
34.547
43.016
50.7693
57.8959
64.494
70.5867
76.2224
81.4713
86.3283
90.8457
95.2041
98.8281
103.066
-28.1848
-24.0301
-10.9305
2.3988
14.6996
25.6205
35.7774
44.9437
53.3942
61.158
68.2622
74.818
80.8513
86.4555
91.6658
96.4474
100.944
105.202
108.779
113.057
-16.6898
-11.8616
1.30307
14.5168
26.8683
37.7848
47.9143
57.0419
65.4131
73.0776
80.0685
86.5192
92.4212
97.856
102.882
107.472
111.786
115.768
119.11
123.377
-2.28651
3.04096
16.3881
29.3054
41.5025
52.2044
62.0693
70.9812
79.119
86.5793
93.3568
99.5703
105.252
110.486
115.296
119.671
123.833
127.499
130.663
134.912
14.4398
19.9131
33.4863
46.0252
57.8237
68.207
77.7609
86.394
94.2403
101.424
107.931
113.907
119.326
124.281
128.798
132.894
136.794
140.019
142.918
147.23
33.1651
38.9018
52.8274
64.6031
75.9718
85.9269
95.0003
103.241
110.691
117.514
123.667
129.267
134.353
138.967
143.13
146.887
150.402
153.101
155.484
159.502
53.4905
59.6247
73.5584
84.7016
95.3289
104.823
113.402
121.202
128.23
134.656
140.441
145.714
150.447
154.704
158.469
161.838
164.858
166.879
168.585
172.147
75.5244
81.8194
95.109
105.764
115.735
124.696
132.735
140.077
146.678
152.726
158.17
163.108
167.59
171.607
175.201
178.435
181.215
183.143
185.239
188.763
98.894
105.233
117.722
127.689
136.851
145.212
152.671
159.506
165.666
171.358
176.557
181.39
185.864
190.046
193.986
197.802
201.252
204.669
209.811
213.3
50.6223
66.4067
84.7099
94.1473
106.04
112.193
119.573
123.93
128.432
131.681
134.405
136.943
138.602
140.727
141.827
143.704
144.566
145.429
146.149
145.771
55.8303
70.405
88.2698
96.8863
108.501
114.321
121.43
125.568
129.837
132.954
135.517
137.961
139.483
141.547
142.422
144.305
144.935
145.796
146.279
145.946
60.9817
74.4269
91.8683
99.8721
111.036
116.391
123.178
127.134
131.217
134.23
136.644
138.995
140.38
142.382
142.971
144.919
145.287
146.285
146.504
146.174
65.9547
78.4462
95.5072
102.77
113.582
118.588
125.078
128.822
132.658
135.535
137.779
140.03
141.281
143.196
143.513
145.54
145.619
146.715
146.627
146.359
71.0636
82.5403
99.1793
105.774
116.159
120.707
126.888
130.435
134.062
136.837
138.925
141.077
142.201
144.012
144.114
146.174
145.95
147.136
146.798
146.589
75.9726
86.7742
102.875
108.761
118.795
122.955
128.804
132.156
135.527
138.165
140.083
142.13
143.13
144.834
144.763
146.81
146.271
147.528
146.935
146.803
81.1795
90.9581
106.727
111.798
121.41
125.171
130.648
133.824
136.961
139.492
141.25
143.192
144.074
145.66
145.4
147.451
146.565
147.934
147.088
147.052
87.6177
95.433
111.105
114.95
124.068
127.472
132.574
135.567
138.443
140.839
142.429
144.264
145.03
146.496
146.069
148.102
146.868
148.339
147.284
147.291
94.8724
100.049
115.564
118.097
126.702
129.765
134.468
137.281
139.907
142.186
143.617
145.344
146.001
147.34
146.759
148.75
147.177
148.798
147.514
147.546
102.273
105.155
119.634
121.356
129.34
132.114
136.41
139.044
141.405
143.547
144.816
146.434
146.984
148.196
147.454
149.41
147.493
149.302
147.747
147.788
108.928
110.103
123.594
124.615
131.957
134.463
138.345
140.794
142.896
144.911
146.024
147.53
147.981
149.06
148.196
150.069
147.812
149.751
147.98
148.042
116.003
115.681
127.608
127.981
134.564
136.848
140.313
142.573
144.409
146.281
147.24
148.637
148.989
149.941
148.952
150.734
148.155
150.217
148.223
148.287
123.72
121.175
131.762
131.378
137.166
139.237
142.291
144.349
145.924
147.656
148.466
149.75
150.007
150.834
149.748
151.405
148.465
150.681
148.472
148.541
132.003
127.202
135.935
134.86
139.759
141.648
144.3
146.146
147.455
149.033
149.697
150.874
151.04
151.748
150.577
152.096
148.798
151.13
148.702
148.793
140.87
133.257
140.15
138.317
142.295
143.989
146.299
147.927
148.973
150.397
150.925
151.992
152.071
152.667
151.438
152.756
149.086
151.576
148.904
149.038
150.586
140.04
144.573
141.88
144.855
146.351
148.325
149.726
150.505
151.762
152.156
153.121
153.118
153.616
152.343
153.4
149.412
151.918
149.053
149.251
160.411
146.971
149.122
145.883
147.641
149.055
150.528
151.643
152.163
153.238
153.475
154.31
154.213
154.625
153.328
154.402
149.752
152.357
149.149
149.464
169.211
153.063
153.287
149.159
149.995
151.12
152.529
153.413
153.663
154.552
154.681
155.421
155.258
155.579
154.281
155.497
150.117
153.119
149.266
149.89
182.476
160.754
157.952
151.79
151.718
152.447
154.018
154.694
154.736
155.436
155.519
156.191
156.016
156.259
155.001
155.926
150.422
153.081
148.952
149.62
199.59
173.646
165.4
157.858
156.201
156.375
156.964
157.376
156.938
157.471
157.3
157.888
157.526
157.798
156.454
157.062
151.626
153.242
147.681
150.527
226.971
226.591
204.873
205.119
194.815
192.069
184.346
183.209
179.156
178.317
175.218
174.364
171.72
171.46
168.655
169.471
165.424
167.76
152.174
173.225
252.856
241.832
225.978
219.183
209.03
203.517
196.538
192.993
187.979
185.003
181.528
179.594
176.935
175.754
173.441
173.01
170.669
171.126
168.712
170.885
245.511
236.131
227.518
221.241
214.669
209.78
204.584
200.933
197.275
194.292
191.35
189.137
186.863
185.192
183.289
182.137
180.426
179.952
179.106
179.539
239.691
234.309
229.339
223.154
218.27
213.244
209.053
205.002
201.409
198.338
195.314
192.721
190.226
188.248
186.369
184.89
183.518
182.71
181.975
181.801
228.366
223.736
220.586
216.631
213.989
210.762
207.937
205.225
202.598
200.276
197.938
195.968
193.879
192.161
190.348
188.806
187.285
185.713
184.981
184.844
221.613
219.911
218.962
216.186
214.208
211.41
209.19
206.668
204.355
202.131
199.92
197.902
195.864
193.985
192.17
190.403
188.875
187.284
186.157
185.863
214.933
213.381
212.294
210.503
209.154
207.896
206.355
204.944
203.319
201.851
200.171
198.7
196.961
195.476
193.665
192.088
190.232
188.521
187.245
186.657
210.992
210.555
210.77
209.876
209.159
207.937
206.896
205.659
204.308
203.033
201.498
200.165
198.479
197.058
195.2
193.637
191.536
189.747
187.89
187.258
207.685
207.606
207.335
207.184
206.735
206.163
205.454
204.766
203.867
203.052
201.953
201.011
199.658
198.56
196.848
195.508
193.221
191.612
189.161
188.578
206.168
206.489
206.578
206.442
206.349
206.153
205.743
205.388
204.785
204.269
203.433
202.782
201.688
200.88
199.421
198.431
196.147
195.113
192.041
191.722
204.851
205.147
205.421
205.779
205.826
206.06
205.94
205.9
205.671
205.492
205.141
204.844
204.311
203.884
203.031
202.456
200.924
200.558
196.622
197.967
204.572
205.185
205.529
205.841
205.919
206.236
206.455
206.567
206.71
206.841
206.86
207.033
206.988
207.203
207.083
207.348
207.039
207.569
208.04
209.932
204.281
205.04
205.707
206.271
206.923
207.461
207.75
208.25
208.512
208.989
209.342
209.813
210.353
210.804
211.737
212.129
213.71
213.957
216.664
217.829
204.686
205.278
205.768
206.406
206.856
207.573
208.013
208.769
209.253
210.053
210.599
211.528
212.186
213.361
214.232
215.771
217.188
219.131
222.144
223.083
205.093
205.817
206.47
207.153
207.809
208.558
209.145
209.927
210.535
211.444
212.133
213.27
214.109
215.535
216.61
218.614
220.123
222.876
225.336
229.307
205.342
206.056
206.688
207.464
208.123
208.908
209.571
210.416
211.105
212.041
212.767
213.862
214.641
216.047
216.921
218.694
219.511
222.149
222.882
234.285
205.805
206.478
207.138
207.841
208.486
209.245
209.934
210.757
211.49
212.412
213.182
214.245
215.035
216.271
217.011
218.463
219.044
222.963
223.303
225.457
206.067
206.742
207.397
208.112
208.805
209.57
210.288
211.115
211.858
212.763
213.525
214.539
215.299
216.471
217.185
218.577
219.148
221.12
221.488
223.794
206.309
206.959
207.616
208.311
208.998
209.738
210.457
211.246
211.993
212.84
213.6
214.516
215.262
216.262
216.948
218.046
218.629
219.822
220.215
221.205
206.41
207.052
207.714
208.401
209.099
209.828
210.559
211.33
212.088
212.897
213.671
214.516
215.28
216.151
216.858
217.735
218.308
219.128
219.32
223.372
315.742
317.806
319.35
320.123
320.346
319.854
318.767
317.071
314.585
311.721
307.928
304.145
298.965
293.759
287.794
281.36
274.186
266.175
255.785
247.819
284.82
286.362
287.543
288.527
289.074
289.507
289.454
289.341
288.726
288.047
286.976
285.698
284.17
282.307
280.781
277.306
273.275
270.697
267.109
264.779
248.16
249.412
250.505
251.554
252.395
253.208
253.796
254.397
254.742
255.119
255.195
255.383
255.167
255.179
254.656
254.311
253.519
252.915
251.799
251.411
235.369
236.32
237.226
238.049
238.826
239.515
240.139
240.692
241.12
241.553
241.803
242.101
242.209
242.36
242.316
242.504
242.379
242.452
242.048
242.121
219.671
220.442
221.168
221.875
222.52
223.164
223.739
224.326
224.843
225.376
225.851
226.353
226.755
227.193
227.458
227.836
228.024
228.436
228.512
228.977
213.758
214.384
214.991
215.572
216.134
216.669
217.184
217.677
218.136
218.597
218.972
219.37
219.672
220.052
220.343
220.721
220.934
221.249
221.358
221.706
207.128
207.651
208.162
208.653
209.127
209.585
210.024
210.448
210.854
211.246
211.618
211.991
212.335
212.682
213.002
213.359
213.636
213.984
214.208
214.571
204.338
204.771
205.191
205.603
206.001
206.393
206.77
207.143
207.497
207.849
208.181
208.514
208.815
209.142
209.398
209.683
209.895
210.173
210.344
210.622
201.739
202.129
202.509
202.875
203.233
203.576
203.911
204.232
204.543
204.842
205.13
205.411
205.676
205.941
206.186
206.437
206.656
206.9
207.071
207.312
200.73
201.071
201.403
201.728
202.046
202.355
202.657
202.95
203.239
203.517
203.79
204.048
204.302
204.544
204.765
204.993
205.188
205.404
205.582
205.797
200.025
200.299
200.566
200.823
201.071
201.312
201.541
201.769
202.004
202.236
202.472
202.708
202.946
203.186
203.42
203.654
203.883
204.109
204.296
204.553
200.297
200.55
200.799
201.044
201.284
201.521
201.752
201.978
202.2
202.419
202.624
202.811
202.988
203.173
203.36
203.546
203.727
203.9
204.051
204.215
200.432
200.651
200.864
201.071
201.272
201.468
201.656
201.837
202.014
202.184
202.353
202.531
202.714
202.885
203.047
203.212
203.362
203.525
203.687
203.852
200.99
201.186
201.382
201.578
201.773
201.968
202.163
202.358
202.55
202.74
202.932
203.12
203.299
203.468
203.627
203.778
203.926
204.07
204.205
204.337
201.442
201.618
201.794
201.969
202.143
202.316
202.489
202.661
202.833
203.004
203.177
203.349
203.52
203.691
203.861
204.03
204.196
204.362
204.526
204.685
202.063
202.219
202.375
202.531
202.687
202.842
202.997
203.151
203.305
203.457
203.61
203.761
203.912
204.062
204.212
204.361
204.511
204.66
204.808
204.958
202.54
202.687
202.835
202.983
203.133
203.282
203.433
203.584
203.736
203.888
204.04
204.192
204.345
204.497
204.65
204.802
204.955
205.105
205.258
205.406
202.967
203.1
203.235
203.37
203.508
203.645
203.785
203.925
204.067
204.208
204.352
204.496
204.642
204.788
204.934
205.082
205.23
205.379
205.528
205.678
203.248
203.376
203.506
203.638
203.771
203.905
204.042
204.179
204.318
204.458
204.6
204.742
204.886
205.031
205.177
205.323
205.471
205.619
205.77
205.919
203.394
203.518
203.643
203.771
203.9
204.031
204.163
204.297
204.433
204.57
204.709
204.849
204.991
205.134
205.279
205.425
205.572
205.721
205.871
206.021
67.0983
64.7908
58.7878
52.44
46.5772
40.3774
33.8342
26.9641
19.6469
11.8534
3.46991
-5.56232
-15.2857
-25.9599
-37.3939
-50.1062
-63.7972
-78.8347
-96.4721
-106.999
85.4045
84.1281
79.8754
75.0756
70.333
65.2153
59.6916
53.7913
47.4166
40.5349
33.087
24.9941
16.2333
6.60149
-3.73535
-15.2841
-27.5868
-41.3664
-57.2473
-67.3121
105.417
105.254
102.218
98.1921
94.2688
89.9214
85.1895
80.0734
74.5249
68.5209
61.97
54.8661
47.1094
38.5671
29.3455
18.9774
7.93207
-4.60051
-18.679
-27.4807
125.994
126.202
123.697
120.501
117.328
113.825
109.943
105.727
101.064
95.9664
90.3414
84.161
77.343
69.7772
61.5355
52.2045
42.2832
30.7944
18.2221
11.1943
147.092
147.772
145.876
143.34
140.851
138.006
134.821
131.297
127.388
123.067
118.245
112.931
106.98
100.372
93.0673
84.7251
75.7316
65.144
53.3556
47.277
167.671
168.518
167.079
165.082
163.151
160.941
158.449
155.671
152.53
149.026
145.074
140.659
135.672
130.065
123.764
116.488
108.594
98.9723
88.2041
81.8655
187.545
188.796
187.94
186.611
185.315
183.773
181.945
179.844
177.429
174.675
171.518
167.94
163.815
159.161
153.828
147.688
140.91
132.513
123.358
116.1
207.183
208.597
208.029
207.153
206.312
205.257
203.996
202.527
200.787
198.781
196.418
193.701
190.527
186.887
182.641
177.734
172.169
165.271
157.962
150.368
225.777
227.33
227.169
226.824
226.543
226.096
225.463
224.639
223.586
222.269
220.646
218.7
216.338
213.584
210.278
206.447
201.988
196.58
190.92
183.382
243.163
244.913
245.17
245.294
245.456
245.464
245.307
244.998
244.482
243.779
242.809
241.599
240.049
238.178
235.84
233.112
229.771
225.878
221.438
215.296
258.986
260.948
261.678
262.285
262.94
263.484
263.889
264.175
264.297
264.244
263.964
263.461
262.632
261.518
259.96
258.046
255.59
252.623
249.012
244.336
274.194
276.357
277.469
278.486
279.544
280.505
281.355
282.098
282.686
283.134
283.376
283.421
283.185
282.695
281.816
280.624
278.869
276.73
273.825
270.013
287.441
289.792
291.313
292.75
294.215
295.611
296.9
298.107
299.188
300.149
300.928
301.541
301.884
302.021
301.762
301.24
300.158
298.717
296.533
293.498
300.077
302.642
304.518
306.328
308.174
309.947
311.643
313.259
314.762
316.147
317.363
318.423
319.245
319.851
320.117
320.099
319.605
318.792
317.201
314.834
311.374
314.095
316.21
318.288
320.388
322.43
324.402
326.314
328.135
329.85
331.44
332.881
334.127
335.181
335.936
336.479
336.497
336.289
335.242
333.526
321.353
324.201
326.567
328.917
331.297
333.63
335.926
338.164
340.336
342.417
344.387
346.239
347.905
349.406
350.607
351.573
352.063
352.3
351.698
350.573
330.49
333.503
336.011
338.551
341.123
343.668
346.168
348.634
351.033
353.36
355.585
357.679
359.616
361.359
362.862
364.12
364.984
365.669
365.553
365.309
338.116
341.204
343.785
346.452
349.169
351.862
354.541
357.183
359.787
362.314
364.768
367.096
369.31
371.337
373.173
374.765
376.075
377.05
377.598
377.744
344.614
347.791
350.485
353.288
356.143
358.98
361.803
364.598
367.351
370.038
372.636
375.125
377.469
379.648
381.6
383.347
384.722
385.873
386.428
386.537
349.6
352.77
355.498
358.35
361.268
364.168
367.072
369.953
372.811
375.608
378.349
380.979
383.522
385.894
388.125
390.092
391.837
393.162
394.168
394.478
-276.663
-287.96
-299.78
-312.541
-325.848
-340.098
-354.974
-370.744
-387.273
-404.732
-423.14
-442.578
-463.118
-484.891
-508.129
-532.973
-559.308
-584.699
-604.355
-608.991
-269.95
-281.236
-292.938
-305.664
-318.926
-333.184
-348.139
-363.94
-380.576
-398.146
-416.658
-436.202
-456.936
-478.832
-502.134
-526.944
-552.748
-578.579
-600.757
-604.663
-261.823
-273.129
-284.682
-297.343
-310.522
-324.684
-339.565
-355.354
-371.986
-389.56
-408.165
-427.848
-448.73
-470.976
-494.662
-519.948
-546.581
-574.99
-595.843
-599.672
-252.953
-264.107
-275.453
-288.001
-301.082
-315.178
-330.01
-345.723
-362.298
-379.875
-398.443
-418.13
-439.091
-461.291
-484.999
-510.512
-537.644
-566.711
-588.664
-592.782
-242.172
-253.303
-264.561
-276.985
-289.942
-303.864
-318.564
-334.151
-350.618
-368.037
-386.513
-406.103
-426.971
-449.224
-473.056
-498.696
-526.019
-555.433
-578.572
-583.599
-231.289
-242.271
-253.145
-265.319
-278.041
-291.714
-306.166
-321.501
-337.712
-354.947
-373.211
-392.632
-413.324
-435.292
-458.862
-484.17
-511.122
-540.286
-564.008
-569.732
-218.323
-229.124
-239.751
-251.645
-264.13
-277.533
-291.745
-306.83
-322.789
-339.729
-357.698
-376.807
-397.223
-418.988
-442.408
-467.527
-494.427
-523.689
-548.242
-554.884
-205.006
-215.661
-225.878
-237.434
-249.577
-262.58
-276.385
-291.051
-306.598
-323.138
-340.723
-359.468
-379.442
-400.735
-423.657
-448.181
-474.506
-503.146
-528.009
-535.414
-189.713
-200.09
-209.98
-221.147
-232.964
-245.605
-259.045
-273.335
-288.464
-304.599
-321.716
-339.981
-359.525
-380.37
-402.862
-426.924
-452.853
-481.118
-506.259
-514.323
-173.978
-184.159
-193.587
-204.302
-215.666
-227.784
-240.703
-254.44
-269.051
-284.602
-301.179
-318.893
-337.781
-358.009
-379.848
-403.155
-428.405
-455.927
-481.043
-489.76
-156.422
-166.229
-175.304
-185.553
-196.511
-208.178
-220.607
-233.853
-247.895
-262.932
-278.903
-296.012
-314.316
-333.894
-355.036
-377.6
-402.166
-428.977
-453.948
-463.065
-138.247
-147.79
-156.375
-166.093
-176.509
-187.574
-199.407
-212.009
-225.451
-239.784
-255.091
-271.489
-289.001
-307.846
-328.208
-349.94
-373.864
-399.506
-424.473
-433.909
-118.723
-127.84
-136.01
-145.172
-155.084
-165.594
-176.823
-188.822
-201.588
-215.292
-229.888
-245.59
-262.38
-280.433
-299.889
-320.771
-343.717
-367.959
-392.878
-402.427
-98.2098
-106.992
-114.673
-123.253
-132.569
-142.452
-153.043
-164.362
-176.459
-189.408
-203.257
-218.133
-234.06
-251.257
-269.851
-289.834
-311.778
-334.979
-359.745
-369.449
-76.8997
-85.2339
-92.4673
-100.422
-109.144
-118.388
-128.306
-138.936
-150.314
-162.544
-175.617
-189.745
-204.836
-221.168
-238.751
-257.699
-278.467
-300.494
-324.53
-334.369
-54.169
-62.1284
-68.9035
-76.2816
-84.4059
-93.0574
-102.343
-112.317
-123
-134.482
-146.79
-160.05
-174.278
-189.716
-206.397
-224.436
-244.233
-265.274
-288.622
-298.588
-31.392
-38.8419
-45.1399
-51.8665
-59.3556
-67.3473
-75.9564
-85.2127
-95.1843
-105.91
-117.423
-129.899
-143.234
-157.768
-173.377
-190.318
-208.864
-228.571
-250.962
-261.191
-7.36218
-14.3597
-20.11
-26.2192
-33.1108
-40.5521
-48.5438
-57.1706
-66.4477
-76.4508
-87.1961
-98.8145
-111.298
-124.917
-139.592
-155.62
-173.14
-191.874
-213.34
-223.478
18.6831
11.4088
5.73024
0.0565982
-6.36162
-13.3501
-20.8416
-28.8776
-37.5499
-46.8483
-56.8545
-67.6763
-79.2673
-91.9561
-105.547
-120.444
-136.662
-154.024
-174.447
-184.854
48.1673
41.0706
34.1687
27.9964
21.6192
14.7149
7.46911
-0.175201
-8.29767
-16.9871
-26.2736
-36.2911
-47.0348
-58.7835
-71.372
-85.267
-100.281
-116.605
-135.729
-146.083
64.0973
64.1038
62.0591
60.2994
57.7906
53.7443
50.7679
45.2764
40.5741
33.1911
25.7666
15.5948
3.94874
-10.26
-29.1128
-49.6094
-80.7977
-113.473
-164.91
-222.452
64.1637
64.2661
62.2829
60.4221
58.1064
54.0139
51.2246
45.7849
41.2029
33.9114
26.6421
16.5944
5.15338
-8.80971
-27.3961
-47.3735
-78.1689
-109.855
-160.703
-216.495
64.2541
64.421
62.5609
60.5519
58.451
54.3184
51.6931
46.2985
41.8569
34.6531
27.5236
17.6092
6.37783
-7.35718
-25.617
-45.0955
-75.4576
-105.887
-155.925
-209.154
64.338
64.5107
62.8531
60.7014
58.8287
54.6571
52.215
46.9099
42.5973
35.5025
28.5492
18.7678
7.79134
-5.70284
-23.5786
-42.5568
-72.3183
-101.651
-150.64
-201.722
64.4376
64.7226
63.163
60.8912
59.2172
55.0236
52.757
47.5362
43.3666
36.3786
29.582
19.9424
9.22272
-4.04768
-21.4923
-39.9738
-69.0857
-97.0611
-144.942
-192.893
64.5454
64.8592
63.4395
61.0832
59.613
55.4111
53.3569
48.2543
44.2203
37.3593
30.753
21.2589
10.8345
-2.19566
-19.1474
-37.1397
-65.4494
-92.1919
-138.698
-183.554
64.6802
64.916
63.7726
61.298
60.2238
55.8133
53.9864
49.0002
45.1071
38.3715
31.934
22.5932
12.4664
-0.337671
-16.7578
-34.2596
-61.6881
-87.0177
-132.036
-173.099
64.832
64.983
64.1853
61.6177
61.045
56.2966
54.6649
49.8328
46.0761
39.4832
33.2436
24.0654
14.2629
1.70605
-14.1242
-31.1483
-57.5586
-81.5826
-124.757
-162.084
65.0308
65.0669
64.8178
62.0559
61.9041
56.8868
55.3907
50.6985
47.0827
40.6307
34.5669
25.5579
16.0838
3.76635
-11.4441
-27.9818
-53.2744
-75.8804
-117.082
-150.125
65.2395
65.1856
65.3868
62.4665
62.7299
57.5965
56.2051
51.6487
48.1695
41.8698
36.0067
27.182
18.0498
5.9969
-8.5456
-24.6108
-48.6736
-69.9763
-108.494
-137.771
65.4742
65.3303
65.9085
62.8647
63.5755
58.3978
57.0941
52.6388
49.2922
43.1478
37.4647
28.8282
20.0428
8.25659
-5.60089
-21.1703
-43.9128
-63.6874
-99.4792
-124.817
65.719
65.4848
66.4453
63.2407
64.4526
59.3334
58.1494
53.7036
50.4924
44.5151
39.025
30.5965
22.1607
10.6682
-2.46903
-17.5603
-38.8812
-57.2207
-90.0039
-110.914
65.987
65.6591
66.943
63.5998
65.2933
60.3464
59.2638
54.8276
51.7425
45.9173
40.6079
32.3894
24.3073
13.1245
0.708271
-13.8616
-33.6775
-50.3927
-80.146
-96.5025
66.2495
65.8485
67.4509
63.9818
66.1455
61.3855
60.4046
56.0355
53.0636
47.3941
42.2815
34.2959
26.5658
15.7184
4.04277
-10.0268
-28.2528
-43.4595
-69.9306
-81.031
66.5429
66.0546
68.0009
64.4267
67.0514
62.4213
61.5334
57.3262
54.4082
48.8947
43.9714
36.2149
28.8332
18.3416
7.37624
-6.13702
-22.7111
-36.2743
-59.3363
-64.9704
66.8478
66.2715
68.5342
64.9239
67.9278
63.4928
62.6403
58.6322
55.7814
50.4586
45.7315
38.2271
31.1914
21.0854
10.8515
-2.08759
-16.9226
-28.9034
-48.1378
-47.6785
67.1358
66.5012
69.1397
65.4823
68.818
64.6229
63.8093
59.9616
57.2289
52.1007
47.5782
40.3433
33.6805
24.0252
14.52
2.25913
-10.8011
-21.1606
-36.6229
-30.3341
67.7083
66.7707
69.8987
66.0159
69.7897
65.7348
65.0743
61.3236
58.7051
53.7864
49.4556
42.4855
36.1724
26.9056
18.002
6.2758
-5.18961
-14.2273
-25.834
-12.4347
67.8629
66.7471
70.1317
66.4461
70.727
66.7122
66.1425
62.5224
59.9832
55.2408
51.0093
44.193
38.0856
29.1094
20.6065
9.45863
-0.384774
-7.59763
-13.5129
10.6148
68.527
66.4018
70.6131
67.0918
71.8675
67.9422
67.4558
64.0102
61.6181
57.0965
53.1609
46.7485
41.0633
32.8705
25.5238
15.7947
8.61622
3.9445
5.44743
35.4899
85.8298
73.8122
82.8094
78.1544
81.0443
78.1952
79.1051
76.4532
76.3927
73.9429
73.532
71.8678
72.2757
71.3288
73.8041
73.5845
81.3291
82.3787
99.31
89.0336
88.9685
86.0934
88.3214
87.0868
88.5335
87.701
88.0856
87.9579
88.1602
88.6551
89.772
90.9861
93.5206
95.8986
101.529
106.154
117.448
125.348
148.064
158.018
106.228
105.794
105.363
105.652
105.865
106.047
107.03
107.465
109.166
110.477
112.763
115.045
118.591
122.631
128.485
135.166
144.641
154.39
168.227
181.228
111.697
111.775
111.862
112.701
113.545
114.853
116.203
118.322
120.416
123.029
126.112
129.713
134.131
139.008
145.225
151.555
160.145
168.46
180.697
190.806
122.009
121.977
122.797
123.934
125.499
126.983
128.873
130.723
133.062
135.619
138.627
142.008
145.898
150.423
155.355
161.207
167.419
174.492
181.819
189.643
128.049
128.094
129.039
130.638
132.079
134.367
136.305
138.877
141.404
144.284
147.474
150.932
154.861
158.928
163.663
168.451
173.918
179.4
186.034
192.021
135.909
136.491
137.488
139.343
141.293
143.223
145.471
147.598
150.11
152.619
155.471
158.439
161.684
165.141
168.849
172.842
176.862
181.19
184.883
189.249
141.055
141.647
143.002
145.155
147.016
149.263
151.426
153.73
156.164
158.637
161.35
164.07
167.079
170.057
173.326
176.419
180.051
183.678
187.675
190.763
148.127
148.804
150.55
152.191
154.642
156.339
158.713
160.511
162.89
164.868
167.314
169.546
172.064
174.508
177.147
179.778
182.452
184.771
187.239
189.84
153.259
153.828
156.27
157.838
160.269
161.982
164.117
165.883
167.943
169.79
171.876
173.802
175.991
178.011
180.261
182.338
184.805
187.044
189.32
191.19
160.611
161.112
163.91
165.01
167.447
168.731
170.695
172.03
173.824
175.255
177.017
178.549
180.332
181.959
183.803
185.515
187.287
188.788
190.565
192.085
167.954
167.604
171.368
172.114
174.009
175.043
176.447
177.523
178.82
179.952
181.254
182.422
183.79
185.017
186.45
187.726
189.209
190.513
192.097
193.324
180.993
179.583
180.579
180.59
181.632
182.027
182.841
183.374
184.2
184.845
185.743
186.526
187.517
188.403
189.476
190.424
191.551
192.507
193.696
194.655
193.892
192.251
190.171
190.142
189.237
189.182
188.903
188.981
189.124
189.361
189.782
190.187
190.804
191.352
192.108
192.768
193.631
194.364
195.3
196.058
201.117
200.713
197.626
196.684
195.409
194.531
194.064
193.492
193.446
193.181
193.387
193.394
193.771
194.013
194.515
194.926
195.534
196.053
196.75
197.326
207.778
205.882
203.644
201.541
200.3
198.898
198.148
197.252
196.884
196.382
196.306
196.125
196.254
196.313
196.6
196.837
197.256
197.629
198.156
198.604
213.093
208.779
207.192
204.669
203.462
201.815
201.123
199.96
199.535
198.8
198.583
198.186
198.158
198.05
198.17
198.264
198.536
198.797
199.188
199.555
220.625
208.115
207.391
205.463
204.772
203.293
202.57
201.642
201.083
200.492
200.135
199.794
199.612
199.47
199.484
199.504
199.656
199.835
200.121
200.412
211.015
208.516
207.939
206.206
205.559
204.259
203.642
202.656
202.163
201.443
201.117
200.668
200.49
200.283
200.236
200.246
200.357
200.496
200.701
200.942
223.105
208.768
208.118
206.75
205.942
204.8
204.048
203.19
202.581
202.005
201.55
201.197
200.931
200.751
200.658
200.619
200.673
200.766
200.962
201.201
127.968
143.273
158.089
173.173
186.961
200.74
213.154
225.735
236.831
247.374
257.168
266.412
274.624
282.329
289.238
295.279
300.867
305.406
309.62
312.878
187.132
196.94
205.608
213.479
219.857
225.459
231.167
236.451
241.858
246.185
252.304
257.693
261.527
265.593
269.301
272.579
275.721
278.398
280.887
282.993
194.289
197.829
201.765
205.008