/*--------------------------------*- C++ -*----------------------------------*\
  =========                 |
  \\      /  F ield         | OpenFOAM: The Open Source CFD Toolbox
   \\    /   O peration     | Website:  https://openfoam.org
    \\  /    A nd           | Version:  9
     \\/     M anipulation  |
\*---------------------------------------------------------------------------*/
FoamFile
{
    format      ascii;
    class       volScalarField;
    location    "6.7";
    object      p;
}
// * * * * * * * * * * * * * * * * * * * * * * * * * * * * * * * * * * * * * //

dimensions      [0 2 -2 0 0 0 0];

internalField   nonuniform List<scalar> 
46400
(
-94.226
-83.8216
-63.7
-46.4599
-30.4824
-15.8673
-2.53189
9.86374
21.2204
31.7905
41.5316
50.6286
59.1289
67.138
74.7574
82.0024
88.8245
96.0061
103.143
106.376
-55.427
-44.6184
-25.9911
-10.1079
4.45175
17.8764
30.0139
41.2638
51.5184
61.0559
69.8471
78.0149
85.5884
92.6136
99.1561
105.253
110.89
116.512
121.609
123.717
-16.1937
-5.86984
11.2191
25.8131
39.0116
51.2443
62.2601
72.4864
81.7657
90.3256
98.1491
105.375
112.051
118.233
123.962
129.237
134.026
138.796
142.702
143.503
23.2356
33.0411
48.268
61.4997
73.2935
84.2651
94.0655
103.11
111.304
118.856
125.752
132.066
137.848
143.135
147.995
152.443
156.472
160.44
163.855
164.352
62.5389
70.6706
84.1745
96.2017
106.733
116.581
125.353
133.437
140.689
147.308
153.311
158.785
163.778
168.322
172.468
176.215
179.548
182.846
185.599
185.629
99.6022
106.234
118.481
129.525
139.087
147.891
155.634
162.682
168.996
174.69
179.826
184.431
188.604
192.352
195.753
198.809
201.535
204.243
206.43
206.215
134.586
140.905
152.502
162.542
171.005
178.801
185.565
191.662
197.062
201.882
206.205
210.051
213.495
216.555
219.274
221.649
223.717
225.747
227.389
226.707
168.504
175.158
185.375
194.356
201.726
208.427
214.214
219.309
223.818
227.745
231.226
234.267
236.956
239.322
241.428
243.273
244.849
246.407
247.664
246.857
202.34
209.713
218.109
225.826
231.968
237.481
242.221
246.326
249.911
253.006
255.704
258.03
260.028
261.709
263.142
264.33
265.294
266.262
267.095
266.03
235.015
242.797
249.244
255.412
260.452
264.781
268.518
271.643
274.338
276.57
278.465
280.017
281.338
282.413
283.305
283.987
284.463
284.951
285.297
284.061
267.128
274.07
279.201
283.822
287.668
290.895
293.639
295.876
297.737
299.212
300.392
301.254
301.869
302.263
302.478
302.539
302.435
302.347
302.145
300.597
296.808
302.065
306.183
309.558
312.455
314.739
316.63
318.05
319.153
319.909
320.435
320.721
320.83
320.744
320.506
320.124
319.599
319.086
318.468
316.695
323.606
327.762
330.88
333.302
335.254
336.713
337.833
338.559
339.021
339.144
339.031
338.669
338.146
337.452
336.643
335.702
334.66
333.627
332.52
330.504
347.191
350.506
352.969
354.626
355.919
356.651
357.095
357.141
356.994
356.593
356.057
355.308
354.427
353.394
352.267
351.026
349.681
348.35
346.985
344.726
368.39
371.031
372.838
373.848
374.554
374.72
374.621
374.123
373.372
372.355
371.175
369.84
368.397
366.844
365.223
363.529
361.783
360.048
358.292
355.998
386.879
388.883
390.1
390.605
390.767
390.453
389.881
389.023
387.968
386.693
385.239
383.616
381.863
380.001
378.046
376.014
373.906
371.798
369.659
366.976
403.832
405.115
405.791
405.677
405.309
404.491
403.402
402.006
400.439
398.694
396.825
394.84
392.766
390.614
388.409
386.154
383.851
381.561
379.304
376.555
417.825
418.435
418.695
418.221
417.494
416.364
415.023
413.413
411.6
409.602
407.469
405.218
402.876
400.459
397.989
395.477
392.925
390.388
387.915
385.001
430.011
429.965
429.786
428.918
427.73
426.197
424.432
422.454
420.32
418.048
415.667
413.202
410.667
408.086
405.464
402.824
400.15
397.507
394.955
391.998
438.584
438.551
438.016
437.143
435.876
434.33
432.424
430.335
428.022
425.573
422.997
420.332
417.6
414.819
412.008
409.187
406.336
403.524
400.821
397.737
-476.188
-475.267
-463.815
-445.24
-423.642
-403.218
-384.288
-366.352
-349.345
-333.25
-317.975
-303.414
-289.536
-276.26
-263.679
-251.548
-240.188
-229.197
-219.001
-209.255
-489.279
-488.069
-471.98
-451.014
-427.787
-405.987
-385.695
-366.75
-348.867
-331.986
-315.982
-300.819
-286.434
-272.75
-259.79
-247.344
-235.76
-224.558
-214.275
-204.338
-497.988
-495.188
-474.893
-452.133
-428.431
-405.938
-384.862
-365.134
-346.591
-329.112
-312.611
-296.987
-282.171
-268.099
-254.801
-242.088
-230.241
-218.794
-208.322
-198.169
-502.157
-497.885
-478.718
-452.876
-427.725
-404.197
-382.288
-361.828
-342.627
-324.61
-307.609
-291.576
-276.439
-262.128
-248.608
-235.714
-223.759
-212.18
-201.672
-191.361
-503.49
-497.129
-474.793
-448.593
-423.027
-398.983
-376.766
-355.959
-336.45
-318.132
-300.897
-284.637
-269.266
-254.734
-241.018
-228.01
-215.918
-204.184
-193.723
-183.22
-498.06
-492.986
-470.085
-442.317
-416.676
-392.224
-369.472
-348.282
-328.392
-309.776
-292.267
-275.802
-260.313
-245.726
-231.968
-218.941
-206.828
-195.16
-184.839
-174.376
-491.346
-486.136
-462.995
-433.918
-407.127
-382.319
-359.326
-337.922
-317.948
-299.269
-281.748
-265.273
-249.752
-235.129
-221.349
-208.352
-196.23
-184.618
-174.274
-163.758
-480.892
-474.824
-450.365
-421.282
-394.657
-369.763
-346.694
-325.322
-305.289
-286.613
-269.093
-252.652
-237.235
-222.747
-209.112
-196.26
-184.286
-172.827
-162.715
-152.26
-466.586
-459.593
-434.736
-405.688
-379.006
-354.332
-331.393
-310.168
-290.366
-271.857
-254.551
-238.309
-223.048
-208.702
-195.212
-182.54
-170.684
-159.407
-149.416
-139.008
-448.701
-440.945
-415.429
-386.8
-360.544
-336.193
-313.558
-292.627
-273.069
-254.854
-237.807
-221.843
-206.905
-192.889
-179.722
-167.347
-155.778
-144.794
-135.116
-124.856
-427.497
-418.909
-393.373
-365.232
-339.405
-315.59
-293.392
-272.889
-253.802
-235.977
-219.341
-203.744
-189.127
-175.413
-162.551
-150.5
-139.194
-128.536
-119.086
-109.004
-403.16
-394.08
-368.467
-340.811
-315.608
-292.437
-270.803
-250.835
-232.234
-214.929
-198.774
-183.669
-169.561
-156.337
-143.939
-132.316
-121.409
-111.154
-102.079
-92.214
-375.893
-366.374
-340.9
-314.29
-289.668
-267.274
-246.364
-227.026
-209.074
-192.319
-176.711
-162.096
-148.44
-135.65
-123.696
-112.516
-102.011
-92.2123
-83.4575
-73.8737
-346.174
-336.482
-310.772
-285.449
-261.601
-239.93
-219.772
-201.142
-183.848
-167.786
-152.832
-138.865
-125.844
-113.653
-102.253
-91.5909
-81.5636
-72.2427
-63.8954
-54.5849
-314.003
-304.156
-278.652
-254.52
-231.792
-211.019
-191.758
-173.926
-157.398
-141.983
-127.661
-114.269
-101.792
-90.1324
-79.273
-69.1297
-59.6021
-50.8161
-42.835
-33.8412
-280.168
-270.183
-245.101
-221.965
-200.272
-180.458
-162.054
-145.061
-129.333
-114.729
-101.167
-88.5089
-76.7252
-65.7054
-55.4306
-45.8395
-36.8231
-28.5531
-20.9794
-12.2793
-244.584
-234.479
-210.345
-188.325
-167.764
-148.933
-131.518
-115.369
-100.439
-86.5218
-73.6331
-61.5971
-50.4135
-39.9901
-30.3084
-21.27
-12.8083
-5.12032
2.0114
10.2882
-207.957
-197.827
-174.594
-153.59
-134.089
-116.273
-99.7908
-84.5684
-70.5343
-57.4937
-45.4177
-34.1494
-23.6658
-13.8862
-4.80735
3.65952
11.5677
18.6459
25.2408
33.2013
-170.435
-160.214
-138.087
-118.355
-99.9393
-83.1381
-67.6597
-53.2797
-40.0296
-27.6742
-16.2583
-5.60096
4.30087
13.5305
22.1343
30.2144
37.6805
44.3027
50.81
59.1276
-132.439
-122.122
-100.948
-82.4221
-65.2335
-49.4967
-35.0691
-21.6964
-9.40646
2.06429
12.7136
22.7164
32.0993
40.9283
49.2803
57.2519
64.6798
71.7644
79.6484
87.9699
-162.153
-109.646
-62.3847
-32.8549
-4.07153
14.9518
32.59
45.9078
57.045
66.7536
73.9804
81.1307
85.9341
91.2447
94.5211
98.3792
100.818
102.824
103.789
104.147
-156.991
-105.334
-58.1306
-29.6101
-1.12858
17.3295
34.65
47.6887
58.5782
68.1177
75.1679
82.1937
86.8734
92.09
95.2164
99.0312
101.24
103.333
104.159
104.529
-150.354
-100.453
-53.8468
-26.3298
1.75175
19.7544
36.7164
49.5028
60.1289
69.4982
76.3691
83.2672
87.806
92.9236
95.9141
99.6931
101.693
103.967
104.571
104.97
-143.83
-95.4705
-49.2618
-22.6638
4.87062
22.3604
38.912
51.4347
61.7768
70.9753
77.6564
84.4196
88.8317
93.8394
96.6818
100.399
102.214
104.593
104.97
105.404
-135.931
-89.6863
-44.5704
-18.9774
7.94808
25.0064
41.1168
53.3979
63.4434
72.4665
78.9581
85.5829
89.8531
94.7458
97.4555
101.117
102.769
105.2
105.4
105.879
-128.044
-83.7308
-39.5648
-14.9443
11.2647
27.8303
43.4526
55.4753
65.2073
74.0524
80.3444
86.8239
90.9648
95.7339
98.2954
101.88
103.368
105.813
105.842
106.365
-118.833
-77.0207
-34.4016
-10.8563
14.5558
30.6911
45.7981
57.581
66.9899
75.6506
81.7461
88.0757
92.0761
96.7147
99.1444
102.636
104.002
106.41
106.307
106.873
-109.486
-70.1051
-28.9326
-6.45362
18.0732
33.7245
48.2748
59.7962
68.8694
77.3393
83.2299
89.4035
93.2731
97.7784
100.052
103.436
104.662
107.031
106.794
107.412
-98.858
-62.4958
-23.2713
-1.96997
21.5831
36.7901
50.7628
62.0355
70.7674
79.0393
84.7297
90.7413
94.4705
98.8418
100.976
104.398
105.382
107.689
107.313
107.981
-87.9207
-54.6562
-17.323
2.80279
25.3002
40.022
53.3787
64.3788
72.76
80.8239
86.3079
92.1529
95.7582
99.968
101.968
105.369
106.089
108.363
107.873
108.582
-75.7558
-46.2046
-11.1759
7.67004
29.0246
43.278
56.0091
66.741
74.7718
82.6192
87.9019
93.574
97.057
101.091
102.974
106.292
106.809
109.054
108.476
109.221
-63.1202
-37.5039
-4.76652
12.8041
32.935
46.6884
58.7585
69.1989
76.8719
84.4914
89.5682
95.0649
98.4328
102.305
104.101
107.264
107.56
109.762
109.142
109.904
-49.2924
-28.2666
1.82441
18.0451
36.8714
50.1195
61.5299
71.6731
78.9942
86.3748
91.2497
96.5641
99.8186
103.53
105.214
108.24
108.363
110.48
109.846
110.612
-34.8907
-18.7996
8.61808
23.5222
40.9765
53.691
64.4129
74.237
81.1998
88.3298
92.9985
98.1279
101.28
104.834
106.325
109.233
109.219
111.217
110.587
111.362
-19.1762
-8.82772
15.4844
29.0384
45.0734
57.2423
67.2964
76.7969
83.4183
90.2882
94.7548
99.6915
102.738
106.132
107.428
110.275
110.116
111.97
111.326
112.128
-2.60506
1.66823
22.6389
34.8272
49.3588
60.9264
70.2805
79.4301
85.7039
92.3033
96.5641
101.307
104.229
107.513
108.652
111.342
111.028
112.704
112.027
112.921
14.5603
12.5284
29.996
40.8914
53.8742
64.783
73.4195
82.1711
88.0864
94.3834
98.4272
102.964
105.752
108.922
109.915
112.454
111.997
113.438
112.641
113.674
32.0743
22.8416
36.6941
46.4991
58.1768
68.5053
76.4962
84.8955
90.4868
96.4999
100.328
104.661
107.316
110.394
111.239
113.614
112.935
114.376
113.339
114.52
55.4339
34.93
42.7745
51.148
61.6353
71.4108
78.9132
87.0751
92.4879
98.2862
101.966
106.138
108.723
111.737
112.455
114.65
113.819
114.986
113.694
115.164
79.8111
52.7804
53.7051
59.8936
67.8317
76.3829
82.8186
90.2667
95.2033
100.585
104.02
107.956
110.432
113.259
113.878
115.871
115.013
114.976
113.331
115.957
129.943
144.185
132.664
130.069
122.831
123.414
120.443
121.145
120.511
121.793
122.117
123.38
123.649
124.879
125.09
126.46
125.636
126.747
124.582
129.647
207.365
198.567
174.858
167.893
156.636
151.663
145.913
142.88
139.773
138.044
136.678
136.136
135.652
135.495
135.067
135.076
134.435
134.616
133.685
134.66
229.378
217.014
203.415
194.108
185.057
178.849
172.89
169.092
165.2
162.719
159.874
158.156
156.391
155.263
154.286
153.334
153.038
152.209
152.559
152.547
241.39
231.85
219.792
211.49
202.498
196.154
189.688
184.724
180.031
176.29
172.932
170.013
167.387
165.194
163.366
161.951
160.648
159.818
159.279
159.016
238.988
231.18
223.841
217.225
211.041
205.462
200.464
196.078
192.109
188.727
185.58
183.009
180.567
178.417
176.424
174.59
173.11
171.377
170.517
170.269
242.53
236.996
230.345
225.183
219.483
214.847
209.915
205.893
201.721
198.323
194.879
191.992
189.093
186.705
184.303
182.176
180.259
178.528
177.468
176.989
238.98
235.076
231.305
227.153
223.199
219.355
215.744
212.356
209.104
206.181
203.252
200.754
198.082
195.867
193.413
191.38
189.079
187.01
185.497
184.767
241.367
238.212
234.406
231.058
227.68
224.585
221.284
218.447
215.354
212.763
209.909
207.556
204.864
202.664
200.048
197.974
195.295
193.247
190.967
190.262
240.243
238.185
235.885
233.477
230.694
228.301
225.673
223.41
220.975
218.873
216.549
214.632
212.291
210.522
208.033
206.313
203.412
201.692
198.781
198.099
241.963
240.126
237.701
235.813
233.556
231.725
229.573
227.742
225.68
223.952
221.997
220.383
218.404
216.899
214.739
213.321
210.495
209.372
205.696
205.352
242.801
241.48
239.904
238.441
236.739
235.233
233.642
232.252
230.766
229.5
228.11
226.986
225.626
224.628
223.148
222.321
220.191
220.035
216.184
217.987
243.761
242.669
241.287
240.209
238.897
237.844
236.617
235.634
234.534
233.666
232.787
232.057
231.467
230.866
230.652
230.068
230.301
229.748
230.445
232.396
245.275
244.495
243.478
242.697
241.754
241.035
240.212
239.629
238.985
238.605
238.169
238.028
237.932
238.015
238.436
238.74
240.156
240.419
243.751
243.955
246.323
245.679
244.851
244.243
243.517
243.014
242.421
242.07
241.646
241.548
241.339
241.582
241.642
242.326
242.863
244.184
245.336
247.607
250.412
252.217
247.697
247.216
246.612
246.196
245.679
245.379
244.985
244.886
244.66
244.803
244.818
245.299
245.603
246.592
247.243
248.789
250.094
252.288
253.952
258.048
248.528
248.104
247.62
247.276
246.908
246.686
246.45
246.405
246.31
246.472
246.528
246.965
247.206
247.983
248.446
249.72
250.415
252.238
252.999
262.927
249.497
249.143
248.753
248.478
248.202
248.029
247.888
247.857
247.872
248.05
248.232
248.668
249.027
249.809
250.345
251.49
252.076
253.547
254.252
256.783
250.061
249.754
249.44
249.187
248.976
248.839
248.711
248.769
248.758
248.99
249.1
249.482
249.693
250.209
250.506
251.196
251.579
252.584
252.796
260.457
250.513
250.197
249.923
249.744
249.55
249.461
249.376
249.334
249.408
249.48
249.644
249.893
250.134
250.546
250.855
251.409
251.624
252.742
252.903
253.654
250.697
250.396
250.121
249.911
249.735
249.653
249.583
249.647
249.651
249.795
249.906
250.159
250.374
250.738
251.007
251.43
251.739
252.263
252.425
258.231
361.732
358.27
353.845
349.036
343.171
336.882
329.594
321.726
313.218
302.919
293.319
281.772
270.47
257.567
244.459
230.244
215.76
200.338
184.928
169.258
333.634
331.684
329.131
326.667
323.43
320.415
316.512
313.049
307.709
301.839
297.469
292.284
287.291
281.877
276.449
270.648
263.814
255.636
246.938
237.051
297.205
295.769
294.162
292.524
290.561
288.726
286.336
284.264
281.29
278.977
275.422
271.159
266.978
263.163
259.449
256.183
252.718
249.481
245.595
242.115
284.746
283.711
282.635
281.432
280.238
278.833
277.521
275.867
274.423
272.546
271.091
268.776
266.051
263.989
261.227
259.386
256.891
254.862
252.291
250.114
269.225
268.443
267.541
266.703
265.702
264.801
263.738
262.708
261.569
260.315
259.026
257.447
255.624
253.604
251.771
249.995
248.273
246.723
245.17
243.821
263.368
262.734
262.091
261.42
260.712
260.029
259.231
258.558
257.642
256.967
255.942
255.124
254.023
252.744
251.524
250.36
249.342
248.303
247.307
246.349
256.706
256.162
255.612
255.025
254.425
253.802
253.151
252.508
251.772
251.083
250.182
249.223
248.074
247.074
246.032
245.109
244.182
243.317
242.449
241.664
254.148
253.699
253.228
252.707
252.168
251.619
251.069
250.51
249.975
249.405
248.895
248.341
247.739
247.176
246.541
245.948
245.288
244.695
244.041
243.419
251.245
250.833
250.41
249.92
249.411
248.915
248.433
247.947
247.467
246.982
246.502
246.007
245.503
244.983
244.46
243.933
243.397
242.875
242.326
241.821
250.39
250.077
249.759
249.433
249.105
248.767
248.428
248.074
247.723
247.359
246.998
246.626
246.254
245.862
245.465
245.054
244.632
244.199
243.752
243.298
249.694
249.432
249.164
248.886
248.602
248.31
248.011
247.704
247.393
247.074
246.752
246.42
246.089
245.755
245.424
245.089
244.754
244.421
244.08
243.751
249.774
249.55
249.32
249.085
248.846
248.6
248.35
248.093
247.833
247.566
247.295
247.017
246.736
246.446
246.156
245.855
245.556
245.246
244.938
244.622
250.154
249.954
249.752
249.546
249.338
249.128
248.915
248.699
248.482
248.26
248.039
247.813
247.588
247.357
247.128
246.892
246.659
246.419
246.18
245.936
250.531
250.353
250.174
249.992
249.809
249.624
249.437
249.249
249.058
248.867
248.673
248.479
248.283
248.085
247.887
247.687
247.487
247.284
247.081
246.872
251.196
251.037
250.877
250.717
250.556
250.395
250.234
250.071
249.91
249.747
249.585
249.421
249.259
249.095
248.933
248.769
248.607
248.443
248.282
248.121
251.631
251.482
251.333
251.185
251.036
250.889
250.741
250.594
250.448
250.302
250.157
250.012
249.868
249.725
249.583
249.442
249.301
249.161
249.023
248.884
252.207
252.069
251.933
251.797
251.663
251.529
251.397
251.266
251.135
251.007
250.879
250.752
250.627
250.504
250.381
250.261
250.141
250.023
249.907
249.792
252.532
252.399
252.268
252.138
252.01
251.883
251.758
251.635
251.514
251.394
251.277
251.161
251.047
250.936
250.826
250.719
250.613
250.511
250.41
250.312
252.846
252.718
252.592
252.468
252.346
252.225
252.106
251.989
251.874
251.761
251.65
251.541
251.433
251.328
251.225
251.125
251.026
250.93
250.835
250.744
252.963
252.837
252.714
252.592
252.472
252.354
252.238
252.124
252.011
251.901
251.793
251.687
251.583
251.482
251.382
251.285
251.19
251.097
251.006
250.918
278.998
278.644
276.044
273.818
271.687
269.38
266.925
264.283
261.394
258.214
254.696
250.773
246.442
241.566
236.208
230.071
223.515
215.792
207.158
201.219
290.448
290.968
289.588
288.131
286.641
284.932
283.014
280.871
278.462
275.764
272.737
269.332
265.519
261.189
256.412
250.887
244.933
237.825
230.256
225.703
302.127
303.089
302.331
301.324
300.295
299.07
297.652
296.04
294.186
292.072
289.642
286.856
283.684
280.03
275.911
271.058
265.754
259.291
252.103
248.45
314.588
315.964
315.566
315.122
314.612
313.914
313.014
311.924
310.595
309.016
307.123
304.916
302.323
299.283
295.78
291.586
286.917
281.035
274.293
270.341
326.982
328.381
328.116
327.959
327.76
327.418
326.933
326.296
325.455
324.412
323.114
321.542
319.626
317.34
314.616
311.291
307.54
302.628
297.072
292.373
338.126
339.757
340.022
340.334
340.655
340.844
340.891
340.808
340.526
340.07
339.37
338.432
337.165
335.584
333.571
331.119
328.213
324.408
320.389
315.172
348.967
350.826
351.44
352.106
352.761
353.295
353.713
354.037
354.21
354.231
354.031
353.632
352.951
352.031
350.741
349.118
347.025
344.348
341.327
336.887
358.587
360.679
361.727
362.825
363.933
364.959
365.888
366.732
367.425
367.98
368.324
368.499
368.432
368.155
367.527
366.617
365.237
363.487
361.169
357.925
368.155
370.482
371.869
373.281
374.686
376.001
377.211
378.336
379.321
380.209
380.953
381.566
381.948
382.133
381.994
381.595
380.761
379.594
377.85
375.405
376.038
378.589
380.341
382.124
383.921
385.645
387.299
388.89
390.384
391.79
393.052
394.17
395.044
395.739
396.109
396.251
395.954
395.376
394.175
392.195
384.479
387.2
389.026
390.956
392.905
394.787
396.601
398.366
400.035
401.617
403.067
404.413
405.584
406.6
407.307
407.808
407.884
407.717
406.858
405.486
390.606
393.287
395.356
397.544
399.772
401.977
404.163
406.324
408.438
410.506
412.468
414.355
416.063
417.602
418.833
419.823
420.41
420.723
420.319
419.369
396.402
399.309
401.679
404.124
406.601
409.033
411.436
413.781
416.059
418.232
420.264
422.165
423.851
425.395
426.717
427.909
428.662
429.19
428.982
428.708
400.358
403.331
405.839
408.447
411.088
413.698
416.297
418.864
421.393
423.854
426.262
428.553
430.772
432.83
434.751
436.432
437.735
438.657
439.037
439.1
404.253
407.328
409.954
412.695
415.478
418.22
420.961
423.649
426.304
428.877
431.369
433.742
435.965
437.999
439.763
441.245
442.368
443.263
443.696
443.642
405.839
408.944
411.643
414.486
417.343
420.208
423.042
425.885
428.671
431.438
434.115
436.742
439.215
441.593
443.749
445.728
447.459
448.915
450.129
450.612
407.233
410.412
413.192
416.106
419.067
421.999
424.939
427.837
430.719
433.514
436.259
438.875
441.374
443.724
445.852
447.834
449.466
450.909
451.789
452.221
406.553
409.706
412.458
415.364
418.302
421.234
424.155
427.075
429.946
432.801
435.558
438.275
440.833
443.328
445.564
447.724
449.432
451.049
451.742
452.722
405.094
408.282
411.085
414.03
417.003
419.966
422.911
425.845
428.726
431.562
434.304
436.959
439.478
441.85
444.041
446.013
447.736
449.136
450.199
450.736
401.908
405.033
407.758
410.621
413.504
416.38
419.235
422.079
424.879
427.632
430.304
432.889
435.324
437.63
439.674
441.546
443.01
444.299
444.936
445.153
88.2025
85.2815
82.4157
79.4803
76.4142
73.2733
70.1053
66.7876
63.4743
59.9816
56.4579
52.7909
48.9888
45.5331
42.172
39.5362
36.4551
35.5799
35.4626
35.1877
92.2929
89.3763
86.4396
83.4219
80.2804
76.9732
73.657
70.1395
66.6005
62.9184
59.193
55.3344
51.4223
47.4755
43.7278
40.0473
36.0931
35.365
33.9201
34.4155
96.9383
93.9762
90.8623
87.5925
84.3048
80.7644
77.2454
73.4811
69.6921
65.7192
61.6667
57.4312
53.1228
48.6642
44.3806
39.8569
36.2481
33.9478
32.3845
32.4859
101.752
98.5764
95.4051
91.997
88.5565
84.8484
81.1238
77.1533
73.0886
68.8539
64.448
59.9297
55.1674
50.372
45.1349
40.4005
35.7361
31.6052
30.8784
30.3565
106.905
103.673
100.387
96.7544
93.1673
89.2149
85.2307
80.9656
76.5608
71.9225
67.1015
62.0329
56.7895
51.2864
45.5881
39.6877
33.7085
28.469
26.8207
25.734
112.427
109.052
105.728
101.943
98.2065
94.1118
89.9143
85.4309
80.7306
75.7809
70.5287
65.0235
59.1476
52.8689
46.2985
39.2441
31.6313
25.1399
20.6159
19.2701
118.416
115.016
111.628
107.748
103.867
99.5947
95.1759
90.44
85.4495
80.1388
74.5251
68.5434
62.165
55.4237
48.0995
40.228
31.8112
24.0997
16.0445
14.432
125.262
121.73
118.331
114.322
110.327
105.938
101.355
96.4431
91.2142
85.6555
79.7001
73.3514
66.5411
59.2336
51.2605
42.7757
33.4802
24.4294
15.2486
13.3461
132.863
129.185
125.773
121.685
117.596
113.094
108.362
103.288
97.8744
92.0688
85.8635
79.2087
72.0361
64.3325
55.9755
46.9246
37.2396
27.0874
17.1448
15.3383
141.121
137.358
133.946
129.856
125.739
121.23
116.433
111.278
105.748
99.8061
93.4049
86.4998
79.0151
70.9455
62.0399
52.4077
41.831
30.1917
20.4223
18.2783
149.833
146.108
142.82
138.845
134.745
130.281
125.494
120.339
114.788
108.788
102.325
95.3349
87.7435
79.5173
70.466
60.6442
49.729
38.09
26.8823
23.7963
159.686
155.98
152.748
148.85
144.826
140.445
135.717
130.605
125.091
119.115
112.652
105.619
97.9616
89.6773
80.4485
70.5179
59.5122
47.4601
36.0026
32.4694
169.935
166.297
163.289
159.612
155.735
151.525
146.953
142
136.627
130.772
124.432
117.511
109.981
101.746
92.6008
82.8364
71.7051
59.8391
47.7882
43.4601
181.316
177.792
174.933
171.463
167.759
163.75
159.356
154.567
149.371
143.697
137.532
130.771
123.401
115.336
106.389
96.7611
85.8098
74.0899
61.9086
57.2678
193.243
189.784
187.191
184.032
180.559
176.8
172.667
168.152
163.224
157.809
151.917
145.428
138.36
130.544
121.897
112.611
101.878
90.6924
78.287
73.2013
206.137
202.812
200.44
197.612
194.378
190.904
187.047
182.795
178.145
173.035
167.446
161.272
154.53
147.058
138.854
129.888
119.582
109.031
96.3085
90.906
219.462
216.269
214.202
211.773
208.834
205.648
202.105
198.187
193.88
189.109
183.884
178.094
171.774
164.719
157.006
148.505
138.867
129.045
116.155
110.392
233.252
230.404
228.687
226.663
224.04
221.167
217.959
214.364
210.388
205.99
201.149
195.77
189.874
183.285
176.116
168.052
159.119
149.602
137.368
131.516
248.946
245.89
244.194
242.386
239.98
237.306
234.344
231.046
227.401
223.359
218.907
213.961
208.544
202.468
195.845
188.375
180.186
171.235
159.887
154.021
268.139
264.958
262.127
259.799
257.248
254.46
251.528
248.367
244.935
241.193
237.108
232.59
227.637
222.09
216.075
209.179
201.767
193.281
183.126
177.251
195.341
195.338
194.891
194.331
193.159
191.442
190.335
188.163
186.316
183.7
180.77
177.481
172.794
168.402
160.999
154.7
142.859
134.121
116.029
101.578
195.582
195.571
195.264
194.657
193.672
191.944
190.968
188.898
187.164
184.673
181.92
178.822
174.398
170.243
163.045
157.071
145.634
137.658
120.141
106.583
195.875
195.868
195.701
194.973
194.218
192.48
191.662
189.662
188.034
185.641
183.026
180.052
175.835
171.937
165.188
159.673
148.676
141.142
124.172
111.421
196.12
196.091
196.135
195.224
194.75
192.979
192.311
190.422
188.905
186.641
184.21
181.437
177.49
173.838
167.322
162.128
151.648
144.844
128.327
116.561
196.416
196.421
196.603
195.498
195.317
193.538
193.015
191.211
189.796
187.635
185.354
182.711
178.986
175.605
169.527
164.834
154.845
148.386
132.562
121.816
196.668
196.654
197.039
195.777
195.853
194.074
193.676
191.997
190.684
188.659
186.571
184.134
180.691
177.569
171.75
167.364
157.983
152.264
136.948
127.233
196.964
196.901
197.548
196.074
196.418
194.635
194.387
192.809
191.592
189.677
187.752
185.453
182.253
179.393
174.052
170.154
161.275
155.955
141.38
133.059
197.219
197.1
197.998
196.36
196.966
195.205
195.059
193.618
192.494
190.72
188.998
186.911
184.006
181.416
176.38
172.821
164.512
160.152
146.107
140.014
197.519
197.326
198.443
196.682
197.519
195.808
195.778
194.451
193.415
191.757
190.214
188.277
185.632
183.313
178.757
175.7
167.936
164.253
150.95
147.335
197.772
197.567
198.883
196.984
198.073
196.415
196.461
195.278
194.327
192.814
191.488
189.767
187.432
185.397
181.185
178.478
171.254
168.415
156.068
154.075
198.067
197.804
199.327
197.302
198.622
197.068
197.188
196.127
195.255
193.865
192.738
191.183
189.125
187.372
183.63
181.426
174.825
172.533
161.334
161.424
198.34
198.045
199.781
197.605
199.178
197.727
197.885
196.967
196.17
194.929
194.038
192.705
190.973
189.518
186.15
184.314
178.275
176.914
166.852
169.195
198.625
198.281
200.278
197.907
199.735
198.439
198.619
197.824
197.098
195.989
195.322
194.172
192.735
191.572
188.658
187.339
181.97
181.223
172.54
177.64
198.902
198.522
200.803
198.169
200.295
199.172
199.33
198.67
198.014
197.062
196.658
195.735
194.635
193.784
191.261
190.347
185.551
185.764
178.467
186.485
199.196
198.744
201.31
198.404
200.802
199.946
200.063
199.517
198.927
198.112
197.963
197.242
196.458
195.91
193.813
193.443
189.326
190.245
184.495
196.034
199.462
198.889
201.73
198.629
201.555
200.746
200.782
200.344
199.82
199.158
199.305
198.824
198.395
198.168
196.478
196.609
192.971
195.078
190.903
206.253
199.693
198.919
202.184
198.877
202.668
201.669
201.595
201.223
200.781
200.357
200.795
200.515
200.378
200.423
199.174
199.883
196.962
199.735
197.631
216.851
200.341
199.009
202.952
199.116
203.216
202.553
202.246
201.999
201.629
201.357
202.116
202.101
202.335
202.715
201.816
203.071
200.302
204.332
202.953
226.872
200.294
198.84
203.025
199.299
203.227
203.115
202.704
202.462
202.16
201.968
203.024
203.296
203.842
204.61
203.936
206.06
203.276
211.464
209.96
241.135
201.131
197.95
203.089
200.406
204.822
204.589
204.691
204.258
204.301
204.067
205.386
205.686
206.733
207.552
208.089
210.399
209.903
220.452
224.089
259.641
223.155
202.821
218.465
215.395
220.938
218.218
222.734
222.592
226
225.646
227.904
227.406
231.959
231.31
239.614
239.671
252.57
252.221
277.15
282.327
220.33
217.662
220.573
219.674
223.061
222.788
225.727
226.414
229.335
230.624
234.051
236.109
240.987
244.141
251.53
256.547
267.386
274.974
291.492
302.658
228.732
228.395
229.18
230.063
231.178
232.625
234.277
236.157
238.315
240.54
243.131
245.939
249.637
253.317
258.257
263.3
270.07
276.953
285.997
295.73
231.08
231.287
231.483
233
233.852
235.43
236.991
239.011
241.191
243.675
246.558
249.609
253.014
256.944
261.383
266.377
271.572
277.675
282.916
288.802
233.786
233.969
234.783
236.06
237.22
238.992
240.539
242.512
244.396
246.616
248.801
251.346
253.88
256.904
259.676
263.222
266.076
270.14
273.125
277.93
234.707
234.756
235.61
236.818
238.237
240.154
241.856
243.832
245.793
247.91
250.089
252.407
254.732
257.284
259.679
262.434
264.691
267.517
268.507
271.031
234.567
235.058
235.916
237.762
239.473
241.32
243.038
244.791
246.514
248.226
249.943
251.657
253.336
255.073
256.641
258.366
259.701
261.76
262.549
264.314
234.732
235.323
236.537
238.762
240.524
242.524
244.244
245.962
247.63
249.198
250.773
252.272
253.679
255.143
256.309
257.712
258.562
259.737
259.731
260.555
233.767
235.684
236.641
239.481
241.337
243.314
245.049
246.507
248.02
249.194
250.497
251.473
252.573
253.368
254.222
254.825
255.536
256.317
256.517
256.902
237.159
237.529
240.069
241.894
244.261
245.645
247.426
248.478
249.871
250.73
251.827
252.522
253.377
253.922
254.687
255.116
255.563
255.777
255.54
255.492
241.093
241.176
244.205
244.961
247.357
248.195
249.662
250.344
251.342
251.896
252.592
253.009
253.569
253.767
254.059
253.973
254.104
254.119
254.05
253.872
249.258
247.348
250.97
250.519
252.205
252.395
253.237
253.427
253.958
254.106
254.444
254.543
254.705
254.759
254.827
254.799
254.614
254.268
254.039
253.512
260.983
258.818
257.811
257.512
257.334
257.139
256.927
256.803
256.603
256.481
256.301
256.153
255.985
255.772
255.521
255.2
254.961
254.534
254.14
253.685
268.394
267.447
264.416
263.89
262.189
261.56
260.549
259.979
259.345
258.805
258.328
257.802
257.377
256.838
256.407
255.902
255.435
254.908
254.447
253.874
273.924
272.87
269.86
267.73
266.249
264.616
263.528
262.189
261.423
260.408
259.809
259.003
258.489
257.807
257.307
256.682
256.177
255.569
255.044
254.43
278.851
275.327
272.997
270.43
268.836
266.982
265.839
264.481
263.467
262.358
261.476
260.547
259.767
258.964
258.256
257.535
256.877
256.202
255.578
254.927
283.3
273.34
272.554
270.503
269.279
267.562
266.478
265.077
264.138
262.979
262.144
261.162
260.404
259.545
258.846
258.075
257.415
256.71
256.076
255.419
276.745
273.952
273.159
271.058
270.109
268.443
267.489
266.118
265.143
263.987
263.047
262.048
261.169
260.287
259.472
258.679
257.925
257.199
256.5
255.827
278.905
272.327
271.946
270.558
269.76
268.434
267.443
266.237
265.266
264.175
263.259
262.274
261.422
260.53
259.74
258.93
258.194
257.457
256.768
256.095
275.83
273.731
272.949
271.299
270.307
268.913
267.867
266.652
265.623
264.542
263.564
262.592
261.681
260.799
259.957
259.152
258.376
257.638
256.923
256.245
301.451
309.997
319.039
326.015
332.859
338.659
344.615
349.531
354.454
358.436
362.082
364.64
367.178
368.534
369.689
369.817
369.597
368.56
366.967
364.757
315.129
317.396
321.023
324.136
328.306
331.263
333.27
334.75
336.244
337.264
338.346
338.992
339.554
339.766
339.811
339.535
338.964
338.116
336.91
335.494
301.753
302.138
303.364
303.807
304.583
304.83
305.348
305.432
305.642
305.53
305.455
305.108
304.762
304.181
303.573
302.771
301.913
300.894
299.789