/*--------------------------------*- C++ -*----------------------------------*\
  =========                 |
  \\      /  F ield         | OpenFOAM: The Open Source CFD Toolbox
   \\    /   O peration     | Website:  https://openfoam.org
    \\  /    A nd           | Version:  9
     \\/     M anipulation  |
\*---------------------------------------------------------------------------*/
FoamFile
{
    format      ascii;
    class       volVectorField;
    location    "6.7";
    object      U;
}
// * * * * * * * * * * * * * * * * * * * * * * * * * * * * * * * * * * * * * //

dimensions      [0 1 -1 0 0 0 0];

internalField   nonuniform List<vector> 
46400
(
(9.93656 -9.7871 -4.19556e-19)
(20.5642 -19.6805 4.01056e-19)
(22.5403 -22.5881 -8.48967e-20)
(21.8286 -22.6309 -4.28904e-20)
(21.0937 -22.5948 -6.75519e-20)
(20.3584 -22.606 -1.41666e-19)
(19.6881 -22.5644 3.92806e-20)
(19.015 -22.5375 2.67605e-20)
(18.4225 -22.5507 -3.74286e-20)
(17.8609 -22.5641 4.698e-20)
(17.3355 -22.6159 -5.5434e-20)
(16.8421 -22.6407 0)
(16.339 -22.6494 4.16952e-19)
(15.8563 -22.6079 -4.79079e-19)
(15.3961 -22.608 -6.66869e-19)
(14.9835 -22.602 -1.37896e-19)
(14.5438 -22.599 -5.07578e-20)
(14.1636 -22.4957 5.65072e-19)
(13.7701 -22.4453 8.11651e-19)
(13.2861 -22.6762 -7.51741e-19)
(10.2645 -9.27253 0)
(20.7651 -18.4342 -4.221e-20)
(22.4874 -20.9477 0)
(21.7114 -21.0529 -4.46116e-20)
(20.9793 -21.0341 1.25868e-20)
(20.2469 -21.1063 1.08914e-21)
(19.6213 -21.1524 0)
(18.9899 -21.2233 -2.67623e-20)
(18.4017 -21.2663 3.74295e-20)
(17.817 -21.2922 -4.69803e-20)
(17.2643 -21.309 6.44099e-19)
(16.7736 -21.3738 6.16766e-20)
(16.3184 -21.4573 -5.60957e-19)
(15.8891 -21.5273 0)
(15.4588 -21.5701 8.12366e-20)
(15.0381 -21.5808 8.61444e-20)
(14.658 -21.6414 0)
(14.3008 -21.6145 -8.69617e-19)
(13.9431 -21.5636 -2.37187e-19)
(13.4804 -21.7577 8.96783e-19)
(10.5249 -8.73264 -7.23469e-20)
(20.8304 -17.1734 -5.17275e-20)
(22.3285 -19.2946 1.20452e-20)
(21.5812 -19.4732 1.45699e-19)
(20.8928 -19.5418 -1.43036e-19)
(20.1516 -19.6402 0)
(19.4781 -19.6832 -6.57267e-19)
(18.8193 -19.7384 5.64127e-19)
(18.2392 -19.8457 -8.07702e-19)
(17.7091 -19.9597 8.02403e-19)
(17.1806 -20.0696 8.10316e-19)
(16.6776 -20.1241 -6.18067e-20)
(16.1855 -20.213 -7.17755e-19)
(15.7271 -20.2669 0)
(15.2992 -20.3688 9.46089e-19)
(14.8928 -20.4289 -9.31763e-19)
(14.4781 -20.4994 0)
(14.1615 -20.5585 -1.96118e-20)
(13.7965 -20.6385 1.14027e-19)
(13.3596 -20.9198 -1.07017e-18)
(10.7244 -8.16712 -9.12557e-20)
(20.7903 -15.8987 1.37837e-20)
(22.0723 -17.7215 2.49639e-19)
(21.241 -17.9204 -2.46769e-19)
(20.5432 -18.0094 -2.48436e-19)
(19.8432 -18.1925 3.41608e-19)
(19.2458 -18.3465 5.0332e-19)
(18.6197 -18.4783 -1.31063e-18)
(18.0186 -18.5665 1.11164e-18)
(17.4498 -18.6674 -1.05852e-19)
(16.9335 -18.8013 0)
(16.4637 -18.9503 1.16281e-19)
(16.0175 -19.0887 -1.2044e-19)
(15.5962 -19.2284 0)
(15.1779 -19.3347 1.12269e-18)
(14.7885 -19.4545 -9.54477e-19)
(14.4006 -19.5539 0)
(14.0408 -19.6016 1.33599e-19)
(13.684 -19.6518 1.51252e-19)
(13.209 -19.9346 1.22682e-18)
(10.8505 -7.57576 0)
(20.6246 -14.6511 0)
(21.6017 -16.1059 -4.10255e-19)
(20.8673 -16.4235 2.78682e-19)
(20.2199 -16.5981 -5.92391e-19)
(19.4968 -16.7745 4.84197e-19)
(18.8425 -16.9216 0)
(18.2368 -17.0892 5.73942e-19)
(17.6758 -17.2868 -6.93911e-19)
(17.1429 -17.429 -1.62945e-19)
(16.6059 -17.5717 -1.65818e-19)
(16.1221 -17.6995 0)
(15.6528 -17.8583 1.28038e-18)
(15.2208 -17.9891 -1.26036e-18)
(14.8136 -18.1647 0)
(14.4254 -18.2925 -1.4604e-18)
(14.0504 -18.4771 1.28973e-18)
(13.7552 -18.6262 1.31588e-18)
(13.4248 -18.7791 -1.43544e-18)
(12.9664 -19.0743 0)
(10.9221 -6.9711 0)
(20.3181 -13.3214 0)
(21.181 -14.6619 0)
(20.3421 -14.9288 -3.73002e-20)
(19.6888 -15.1401 0)
(19.0447 -15.4139 0)
(18.4614 -15.6515 0)
(17.8478 -15.8313 -1.85499e-19)
(17.2764 -16.0158 0)
(16.7645 -16.2375 1.62949e-19)
(16.2717 -16.4347 -2.63288e-20)
(15.8079 -16.6339 -1.65467e-18)
(15.374 -16.8254 1.24448e-18)
(14.953 -17.0062 -1.66701e-18)
(14.5495 -17.1694 1.25646e-18)
(14.1622 -17.3303 0)
(13.7555 -17.4318 -1.47116e-18)
(13.4112 -17.5652 1.25731e-18)
(13.1177 -17.7443 0)
(12.7004 -18.0861 -2.00862e-19)
(10.999 -6.39792 5.6884e-19)
(19.8506 -11.9226 1.72761e-19)
(20.4684 -13.0926 7.16112e-19)
(19.7626 -13.5016 -7.44881e-19)
(19.1331 -13.7788 -7.72304e-19)
(18.4413 -14.0444 1.54859e-18)
(17.8375 -14.3242 -1.79287e-18)
(17.2844 -14.5993 1.61413e-19)
(16.7062 -14.819 5.83555e-19)
(16.1796 -15.0201 0)
(15.6756 -15.2535 -2.55847e-20)
(15.2069 -15.4359 -2.44064e-20)
(14.7723 -15.6718 1.93795e-19)
(14.3703 -15.864 1.63181e-18)
(13.9968 -16.1093 -1.43472e-18)
(13.6766 -16.3541 -1.85285e-18)
(13.3174 -16.5772 1.61461e-18)
(12.967 -16.6922 -1.88238e-20)
(12.6562 -16.8913 -2.07466e-19)
(12.2583 -17.2461 -1.50398e-18)
(11.1088 -5.79065 -2.04252e-19)
(19.3346 -10.6223 3.88126e-20)
(19.86 -11.6891 -2.29289e-19)
(19.0254 -12.0432 -9.26217e-19)
(18.4227 -12.4008 6.35094e-19)
(17.8283 -12.746 0)
(17.2436 -13.0578 1.37974e-18)
(16.7114 -13.3613 -6.63998e-19)
(16.2096 -13.6816 4.604e-19)
(15.7108 -13.9263 2.43294e-19)
(15.2605 -14.2117 -4.667e-19)
(14.8176 -14.4585 1.12947e-18)
(14.395 -14.7026 2.39529e-19)
(13.9787 -14.9187 -1.37068e-18)
(13.5374 -15.0714 3.84361e-18)
(13.1717 -15.2809 -1.56995e-18)
(12.8655 -15.54 2.01218e-18)
(12.53 -15.7166 -1.31491e-18)
(12.2249 -15.8947 4.32849e-19)
(11.8588 -16.2856 2.09913e-18)
(11.2507 -5.18348 1.12065e-18)
(18.6114 -9.3358 -2.207e-19)
(18.883 -10.235 -3.64252e-20)
(18.1898 -10.7156 5.06752e-19)
(17.5948 -11.1187 2.39387e-19)
(17.0027 -11.5003 2.72298e-19)
(16.4364 -11.8704 -1.28402e-18)
(15.9009 -12.174 7.79229e-19)
(15.4017 -12.5192 -2.43795e-19)
(14.9158 -12.8012 -2.43291e-19)
(14.4293 -13.0716 -2.42381e-19)
(14.0006 -13.3337 -2.63506e-19)
(13.6151 -13.6252 -5.00441e-19)
(13.3054 -13.9485 1.75429e-18)
(12.9721 -14.2351 -2.4523e-18)
(12.5852 -14.4265 -2.52248e-19)
(12.2586 -14.678 1.79522e-20)
(11.9723 -14.9049 -1.88779e-18)
(11.6621 -15.0848 1.40737e-18)
(11.3002 -15.4653 -2.25912e-18)
(11.4747 -4.64835 1.06549e-18)
(17.8567 -8.15181 -2.53581e-18)
(17.9759 -8.95767 1.69398e-18)
(17.2669 -9.39717 -2.70554e-19)
(16.6943 -9.88627 -3.02562e-19)
(16.1897 -10.2988 1.1855e-18)
(15.6957 -10.7616 -1.43574e-18)
(15.215 -11.1216 0)
(14.7527 -11.5001 1.13412e-18)
(14.3437 -11.8478 -1.11524e-18)
(13.9447 -12.194 -8.2391e-19)
(13.5196 -12.4625 1.07299e-18)
(13.0648 -12.6868 2.60949e-19)
(12.6664 -12.9182 -1.07366e-18)
(12.3531 -13.2257 2.52332e-19)
(12.037 -13.4819 1.29624e-18)
(11.7026 -13.7199 -2.31364e-18)
(11.4241 -13.9608 1.52558e-18)
(11.1501 -14.1817 -1.54183e-20)
(10.8243 -14.5402 -2.15179e-18)
(11.5674 -4.19212 1.45515e-18)
(16.8454 -6.98163 -9.53152e-19)
(16.7421 -7.77585 6.51527e-19)
(16.1718 -8.27854 1.90468e-20)
(15.638 -8.80737 -1.29058e-18)
(15.1146 -9.22567 -1.24063e-18)
(14.6233 -9.67665 1.54498e-18)
(14.1901 -10.0819 -9.21697e-19)
(13.7474 -10.4755 1.22207e-18)
(13.3138 -10.8109 0)
(12.9277 -11.1827 2.08919e-20)
(12.6236 -11.5781 2.84679e-19)
(12.31 -11.9389 3.00143e-19)
(11.9359 -12.2029 -2.95608e-19)
(11.6134 -12.4858 0)
(11.3212 -12.7796 2.8648e-19)
(11.0135 -13.0293 0)
(10.7462 -13.2775 5.39731e-19)
(10.4883 -13.5119 2.65288e-18)
(10.1882 -13.8595 -5.05482e-21)
(11.5476 -3.76188 7.88868e-19)
(15.8224 -5.94181 -1.60686e-19)
(15.6058 -6.68368 -2.46836e-18)
(15.1117 -7.16653 1.38498e-18)
(14.6401 -7.74089 3.31329e-19)
(14.2517 -8.21727 -3.28408e-19)
(13.8174 -8.71831 -1.35245e-18)
(13.4174 -9.14717 1.00769e-18)
(13.0475 -9.6228 0)
(12.6713 -10.0116 0)
(12.2331 -10.3256 -1.58588e-18)
(11.8357 -10.6307 1.25616e-18)
(11.5368 -10.9992 -3.00146e-19)
(11.2374 -11.3393 -9.21441e-19)
(10.9021 -11.6164 1.15754e-21)
(10.6393 -11.9332 2.06983e-18)
(10.3635 -12.2178 -1.15976e-18)
(10.0869 -12.4715 8.61248e-19)
(9.86118 -12.736 -1.395e-18)
(9.59251 -13.1023 0)
(11.2824 -3.2868 -6.8989e-19)
(14.625 -5.01801 1.13424e-18)
(14.3801 -5.80863 1.95827e-19)
(13.8963 -6.32293 1.93428e-19)
(13.4354 -6.88559 0)
(12.9946 -7.35067 1.46324e-18)
(12.5675 -7.83805 -1.43763e-18)
(12.1681 -8.2437 1.82147e-19)
(11.7952 -8.67213 0)
(11.5712 -9.16061 1.37292e-18)
(11.3129 -9.62191 -1.17744e-18)
(10.9696 -9.9769 1.32607e-18)
(10.6422 -10.312 -1.305e-18)
(10.3915 -10.6865 1.27943e-18)
(10.1219 -11.0076 -1.09882e-18)
(9.84457 -11.3129 -1.23378e-18)
(9.61449 -11.6222 2.427e-18)
(9.3708 -11.8928 -1.04147e-18)
(9.12117 -12.1351 1.49496e-19)
(8.88705 -12.4846 1.25432e-18)
(10.8058 -2.78431 -5.55894e-19)
(13.3485 -4.16251 6.12563e-19)
(13.008 -4.89829 -1.95872e-19)
(12.7466 -5.50613 -1.93437e-19)
(12.3647 -6.10695 0)
(12.0734 -6.64123 0)
(11.7597 -7.18892 0)
(11.4527 -7.6622 -3.73636e-19)
(11.0223 -8.04689 -1.46949e-18)
(10.601 -8.38615 2.88799e-18)
(10.3232 -8.80609 -1.59233e-18)
(10.0874 -9.22167 -1.77607e-19)
(9.78146 -9.57101 0)
(9.50682 -9.92051 0)
(9.26994 -10.2738 -3.28531e-19)
(9.02806 -10.6043 0)
(8.80593 -10.9273 1.26546e-18)
(8.60148 -11.2463 -1.5572e-18)
(8.4012 -11.5245 -1.36686e-18)
(8.15665 -11.8845 1.31423e-18)
(10.1171 -2.28118 5.80563e-19)
(12.0516 -3.41462 1.08359e-18)
(11.7417 -4.12036 3.23127e-21)
(11.3945 -4.67922 1.93161e-21)
(11.0556 -5.33955 2.12258e-19)
(10.6684 -5.81007 -6.05201e-19)
(10.3329 -6.38278 0)
(10.1203 -6.9192 -5.91288e-19)
(9.93651 -7.49694 1.97762e-19)
(9.68805 -7.93038 7.55001e-19)
(9.37442 -8.32739 7.37958e-19)
(9.13003 -8.71918 -5.48429e-19)
(8.91009 -9.10315 1.41795e-18)
(8.66902 -9.44288 -1.21857e-18)
(8.44641 -9.77151 1.5298e-18)
(8.2309 -10.0927 -2.84682e-18)
(8.01568 -10.3854 1.3152e-18)
(7.82914 -10.6861 1.58195e-19)
(7.64799 -10.9591 1.25744e-18)
(7.46123 -11.2816 -1.35832e-18)
(9.26547 -1.78161 2.02169e-19)
(10.7946 -2.75475 -2.20497e-19)
(10.4508 -3.5098 8.94688e-19)
(10.1607 -4.07828 -8.78207e-19)
(9.94725 -4.73446 -4.31112e-19)
(9.73851 -5.32003 -1.05402e-18)
(9.36583 -5.79837 1.52327e-21)
(9.04741 -6.25598 8.15844e-19)
(8.77554 -6.71864 -1.95959e-19)
(8.60323 -7.23952 0)
(8.3806 -7.68763 0)
(8.17279 -8.12629 0)
(7.94866 -8.5343 0)
(7.75632 -8.93955 5.63975e-21)
(7.55004 -9.30517 0)
(7.36839 -9.67013 1.70147e-19)
(7.17992 -10.0002 6.76025e-19)
(6.99853 -10.3174 -1.99058e-18)
(6.85508 -10.6247 1.46998e-18)
(6.66976 -10.9659 -1.39443e-18)
(8.27599 -1.31359 0)
(9.27854 -2.19644 -1.19656e-19)
(8.98212 -2.94704 0)
(8.79781 -3.51749 3.40313e-19)
(8.45252 -4.15045 -2.28036e-19)
(8.28951 -4.74747 -8.76324e-19)
(8.16937 -5.34676 2.64704e-21)
(7.9902 -5.88574 8.43605e-19)
(7.72238 -6.34346 -8.22872e-19)
(7.48684 -6.80112 1.61461e-18)
(7.31314 -7.24536 -3.83844e-21)
(7.12118 -7.68029 -7.75677e-19)
(6.95275 -8.08052 7.5537e-19)
(6.78185 -8.47247 -9.26408e-19)
(6.62301 -8.841 0)
(6.47136 -9.20317 -7.0866e-19)
(6.32619 -9.54951 6.98075e-19)
(6.16114 -9.8709 0)
(6.01793 -10.1731 -1.64803e-19)
(5.88385 -10.5297 0)
(7.19415 -0.903693 1.16651e-19)
(7.92149 -1.71245 1.20024e-19)
(7.79689 -2.46905 0)
(7.59001 -3.15195 4.66809e-19)
(7.33606 -3.73325 -5.78295e-19)
(7.18395 -4.2999 3.36725e-19)
(6.88807 -4.8369 -9.96316e-19)
(6.75443 -5.40903 4.33831e-19)
(6.6051 -5.92428 -1.07071e-19)
(6.44961 -6.41856 0)
(6.25824 -6.8591 -1.0247e-19)
(6.11794 -7.30624 -1.00238e-19)
(5.9733 -7.71781 -9.80564e-20)
(5.82967 -8.12679 0)
(5.67632 -8.50017 -7.41527e-19)
(5.53365 -8.8657 1.54771e-18)
(5.41138 -9.22129 -1.33504e-18)
(5.2905 -9.55732 6.9969e-19)
(5.1661 -9.86485 8.6137e-20)
(5.03395 -10.2094 7.30575e-19)
(6.0443 -0.616041 -1.79422e-19)
(6.31393 -1.32394 -2.50845e-19)
(6.05399 -2.08147 2.99172e-22)
(6.07156 -2.84039 6.62321e-19)
(5.9905 -3.48081 -1.79455e-19)
(5.84554 -4.11583 -1.16444e-19)
(5.70645 -4.65614 1.12844e-19)
(5.56475 -5.1767 2.21787e-19)
(5.43123 -5.67385 1.07084e-19)
(5.31615 -6.15287 -4.22099e-19)
(5.22145 -6.62215 4.65443e-19)
(5.07312 -7.0487 1.00243e-19)
(4.95982 -7.47309 4.92824e-19)
(4.84454 -7.86762 -2.46938e-21)
(4.75901 -8.26146 4.52908e-20)
(4.63141 -8.61458 -8.33361e-19)
(4.53188 -8.96909 2.28432e-19)
(4.42638 -9.29739 0)
(4.33308 -9.60975 -4.23614e-20)
(4.24335 -9.94669 -3.71794e-19)
(4.85287 -0.474062 6.27015e-20)
(4.99198 -1.20585 -1.27937e-19)
(4.74886 -1.75805 2.51062e-19)
(4.67294 -2.43251 -6.12051e-20)
(4.61965 -3.0228 -6.09198e-20)
(4.59898 -3.68185 0)
(4.5074 -4.25097 -1.14937e-19)
(4.41993 -4.82446 2.25335e-19)
(4.32961 -5.34901 -1.10476e-19)
(4.20374 -5.85575 1.07397e-19)
(4.09283 -6.3264 -5.34352e-20)
(4.02535 -6.78773 -1.0263e-19)
(3.93012 -7.21499 2.01338e-19)
(3.83971 -7.6198 -1.96873e-19)
(3.75724 -8.01075 4.88433e-20)
(3.69378 -8.38628 3.36268e-34)
(3.61081 -8.73871 -4.60836e-20)
(3.54453 -9.08207 2.70064e-19)
(3.46705 -9.39162 -1.32926e-19)
(3.39436 -9.73806 -9.50231e-20)
(-0.0706514 -4.57977 1.37413e-19)
(1.50755 -19.2874 6.79958e-20)
(3.00988 -33.8679 0)
(3.80322 -40.6125 6.26994e-20)
(3.88612 -41.6084 5.70927e-20)
(3.88667 -41.4172 5.28235e-20)
(3.84302 -40.8688 0)
(3.80122 -40.3999 4.79981e-20)
(3.74902 -39.9983 0)
(3.69447 -39.6106 0)
(3.63181 -39.2514 -3.79e-20)
(3.57067 -38.8568 3.48313e-21)
(3.49776 -38.4835 7.14629e-20)
(3.43953 -38.1326 0)
(3.35293 -37.8 3.05636e-20)
(3.30553 -37.3824 2.86789e-20)
(3.17335 -36.9191 2.69454e-20)
(3.14737 -36.3883 0)
(2.97694 -35.9612 -4.70881e-20)
(2.98272 -35.5298 4.56476e-20)
(0.119533 -5.67676 2.09575e-19)
(2.51839 -21.3506 -3.44199e-19)
(4.23215 -35.4718 0)
(5.03864 -41.0961 -3.09239e-19)
(5.0824 -41.606 2.8884e-19)
(5.02958 -41.2489 -4.83593e-19)
(4.953 -40.7108 2.10978e-19)
(4.88157 -40.2559 1.39417e-19)
(4.80988 -39.8026 -6.24299e-19)
(4.72325 -39.3941 3.44705e-19)
(4.64849 -38.9949 -3.94593e-20)
(4.55408 -38.6661 2.87706e-19)
(4.47606 -38.3256 -1.35317e-20)
(4.37167 -37.9573 -2.65316e-19)
(4.27613 -37.5695 -3.05617e-20)
(4.1838 -37.1716 -2.86795e-20)
(4.05224 -36.7391 -2.69465e-20)
(3.99222 -36.2276 0)
(3.81051 -35.7708 -1.84106e-19)
(3.79251 -35.3182 8.31957e-21)
(0.489659 -7.05244 -1.41236e-19)
(3.74771 -23.1429 0)
(5.56693 -36.7147 0)
(6.26292 -41.3715 -1.26952e-19)
(6.2715 -41.5573 1.15899e-19)
(6.15131 -41.1081 0)
(6.02785 -40.5388 -1.02198e-19)
(5.91687 -40.052 2.77581e-19)
(5.80402 -39.6272 -2.76936e-19)
(5.6952 -39.2176 3.24884e-19)
(5.58225 -38.838 -3.96729e-19)
(5.47086 -38.4265 0)
(5.35052 -38.0255 -2.65248e-19)
(5.24447 -37.6518 -2.35112e-19)
(5.12151 -37.3041 4.297e-19)
(5.02309 -36.8781 -4.34431e-19)
(4.85283 -36.4012 3.76449e-19)
(4.77851 -35.8618 0)
(4.55947 -35.4259 -4.02652e-19)
(4.55347 -35.0244 6.82934e-19)
(1.1617 -8.21949 6.81272e-19)
(4.29086 -24.5446 0)
(6.9682 -37.6842 2.68814e-19)
(7.51508 -41.3954 3.62126e-19)
(7.48628 -41.3157 -7.01414e-19)
(7.32431 -40.7482 2.1532e-19)
(7.18322 -40.2238 1.02195e-19)
(7.03778 -39.7479 1.02097e-18)
(6.89956 -39.2778 -1.41234e-18)
(6.74915 -38.8593 -1.27219e-19)
(6.61655 -38.4469 7.06795e-19)
(6.46816 -38.1049 1.41126e-19)
(6.34385 -37.7622 -6.50747e-19)
(6.18884 -37.3942 6.33637e-19)
(6.05152 -36.9983 1.73111e-19)
(5.90367 -36.5832 -1.06623e-19)
(5.7313 -36.1377 1.50973e-19)
(5.62194 -35.6225 0)
(5.39119 -35.1886 -4.18676e-20)
(5.35755 -34.7428 0)
(1.55863 -8.93445 0)
(5.62216 -25.6618 9.68807e-19)
(8.33858 -38.1661 -1.36848e-18)
(8.85937 -41.2257 1.21606e-18)
(8.73688 -40.99 -9.45643e-19)
(8.50676 -40.4198 -2.1744e-19)
(8.30747 -39.8719 0)
(8.11999 -39.38 5.37273e-19)
(7.93209 -38.9489 -7.1292e-19)
(7.75992 -38.529 7.89397e-19)
(7.58507 -38.1447 -6.16406e-19)
(7.41587 -37.7322 -1.41105e-19)
(7.23702 -37.3222 6.36636e-19)
(7.07608 -36.942 -1.09022e-18)
(6.90612 -36.5902 6.76446e-19)
(6.75037 -36.1711 -2.22004e-19)
(6.53601 -35.7 -4.80102e-19)
(6.40932 -35.1662 1.08514e-18)
(6.13797 -34.735 -6.13107e-19)
(6.10983 -34.3438 -6.97842e-19)
(2.016 -9.95602 1.11198e-18)
(6.73595 -26.7025 7.85407e-19)
(9.80682 -38.5336 -1.09183e-18)
(10.0985 -40.8844 -2.43872e-19)
(9.94389 -40.4977 2.29584e-19)
(9.68696 -39.902 8.26233e-19)
(9.45368 -39.3803 -8.11707e-19)
(9.22837 -38.8972 0)
(9.01638 -38.4287 6.57018e-19)
(8.79393 -38.0209 -6.46063e-19)
(8.598 -37.6083 -5.65664e-19)
(8.388 -37.2672 5.56529e-19)
(8.21065 -36.9328 0)
(8.00123 -36.5736 0)
(7.81623 -36.1877 9.52826e-19)
(7.60881 -35.7789 -9.32223e-19)
(7.39993 -35.3373 -7.28304e-19)
(7.22552 -34.83 7.17538e-19)
(6.94941 -34.4237 -6.31944e-19)
(6.90198 -33.9809 7.78583e-19)
(2.54791 -10.4312 -8.18534e-19)
(7.83365 -27.4308 2.92013e-19)
(11.1629 -38.4739 5.9273e-20)
(11.4456 -40.3981 1.24615e-18)
(11.1723 -39.9399 0)
(10.8766 -39.3752 0)
(10.583 -38.8351 1.48594e-18)
(10.3154 -38.356 -8.66691e-20)
(10.0498 -37.9286 -1.35046e-18)
(9.80821 -37.5141 1.17638e-18)
(9.56619 -37.1417 -1.15703e-18)
(9.33551 -36.7397 0)
(9.09401 -36.3418 9.34803e-19)
(8.87642 -35.9767 -9.20158e-19)
(8.65354 -35.6379 0)
(8.44128 -35.2453 0)
(8.18253 -34.7979 0)
(7.98614 -34.2898 0)
(7.66142 -33.8607 0)
(7.61533 -33.4634 -7.40424e-20)
(3.14039 -10.9853 7.92735e-19)
(9.15009 -27.9242 -1.3545e-18)
(12.595 -38.318 0)
(12.7058 -39.7344 0)
(12.3785 -39.213 1.89254e-18)
(12.0242 -38.6462 9.22688e-20)
(11.6922 -38.1427 -1.70743e-18)
(11.3785 -37.6722 0)
(11.0846 -37.2291 1.53287e-19)
(10.7878 -36.8483 -1.41323e-19)
(10.5247 -36.4561 0)
(10.2497 -36.1355 1.2023e-19)
(10.0143 -35.8171 -9.97773e-19)
(9.74778 -35.4751 1.79475e-18)
(9.51236 -35.1164 -4.94847e-20)
(9.24904 -34.7321 -7.45713e-19)
(8.99817 -34.3179 -8.03855e-20)
(8.76006 -33.836 7.41241e-20)
(8.43967 -33.4475 0)
(8.3653 -33.0107 6.39645e-20)
(3.72744 -11.4008 5.12594e-19)
(10.4116 -28.1945 4.3813e-19)
(13.8599 -37.8034 -1.55229e-18)
(13.9513 -38.9539 4.44712e-19)
(13.5249 -38.4273 1.94216e-19)
(13.1498 -37.905 1.66543e-18)
(12.7574 -37.401 -2.30426e-18)
(12.4077 -36.9564 1.65923e-18)
(12.0678 -36.5465 -1.31084e-18)
(11.7518 -36.1595 1.54615e-18)
(11.4446 -35.8118 2.45086e-19)
(11.1516 -35.4344 1.00895e-18)
(10.8496 -35.0733 -5.71327e-19)
(10.5778 -34.7405 -1.05935e-18)
(10.3021 -34.4338 9.29741e-19)
(10.0376 -34.0868 0)
(9.7348 -33.6794 2.28237e-19)
(9.47251 -33.2078 6.16114e-20)
(9.09768 -32.7907 -1.25119e-19)
(9.01774 -32.3795 5.20825e-20)
(4.34455 -11.7083 -9.79947e-19)
(11.6568 -28.2714 1.0193e-18)
(15.1612 -37.1936 -2.35593e-20)
(15.1193 -38.0054 -8.68396e-19)
(14.6523 -37.4845 -7.94038e-19)
(14.2127 -36.9764 -3.74381e-19)
(13.7863 -36.5133 -2.02419e-20)
(13.3848 -36.0797 -3.15569e-19)
(13.0146 -35.6801 0)
(12.6483 -35.3401 -2.6656e-19)
(12.3184 -34.994 -2.4509e-19)
(11.9827 -34.7063 -1.69286e-20)
(11.6881 -34.4127 7.54441e-19)
(11.3659 -34.0992 -3.93461e-19)
(11.0795 -33.7785 -8.23522e-19)
(10.767 -33.4378 6.38505e-19)
(10.4764 -33.0727 3.96744e-19)
(10.1764 -32.6337 -6.72295e-19)
(9.81485 -32.2612 1.24999e-19)
(9.71405 -31.8416 7.37864e-19)
(4.96118 -11.9257 -2.36097e-18)
(12.8805 -28.1731 2.40739e-18)
(16.3095 -36.3794 -2.62355e-18)
(16.222 -37.0016 2.13102e-18)
(15.6757 -36.4972 1.83324e-18)
(15.2169 -36.0325 -1.42061e-18)
(14.7415 -35.5876 -1.8305e-18)
(14.3117 -35.1929 8.29116e-20)
(13.9002 -34.8186 1.08434e-18)
(13.5132 -34.4729 -6.93596e-19)
(13.1454 -34.1616 1.74913e-18)
(12.7919 -33.8308 -1.03726e-18)
(12.4363 -33.524 -1.90861e-19)
(12.1148 -33.2391 4.66651e-19)
(11.7902 -32.982 -1.21635e-18)
(11.4812 -32.691 5.75943e-19)
(11.1397 -32.3405 0)
(10.8178 -31.9288 -8.84009e-19)
(10.3989 -31.5292 8.69472e-19)
(10.2804 -31.1107 -6.56837e-19)
(5.58295 -12.0305 4.51348e-19)
(14.0272 -27.8783 5.09934e-19)
(17.4188 -35.3813 2.17118e-18)
(17.2397 -35.8097 1.84579e-18)
(16.6645 -35.3607 -1.11563e-18)
(16.1489 -34.9272 1.525e-18)
(15.6419 -34.5204 -8.99636e-19)
(15.1612 -34.1484 1.01162e-18)
(14.7237 -33.8058 -1.91511e-18)
(14.2951 -33.5232 6.77086e-19)
(13.9059 -33.2378 0)
(13.5164 -32.9904 0)
(13.1648 -32.7353 0)
(12.792 -32.4572 -1.13966e-18)
(12.4568 -32.1852 1.12206e-18)
(12.1048 -31.9099 0)
(11.7785 -31.6071 0)
(11.4258 -31.2312 -9.07557e-20)
(11.0279 -30.8891 0)
(10.8982 -30.4847 -7.19794e-19)
(6.19991 -12.0653 -8.5169e-19)
(15.1291 -27.4684 -2.11647e-18)
(18.4292 -34.3455 -1.4919e-18)
(18.1901 -34.6189 -2.53054e-19)
(17.5321 -34.1903 1.92533e-18)
(16.9973 -33.8041 -3.97362e-19)
(16.4577 -33.4368 -8.57638e-20)
(15.9534 -33.1044 -1.21547e-18)
(15.4766 -32.7788 0)
(15.0251 -32.4808 -5.64846e-19)
(14.6028 -32.2255 8.98861e-19)
(14.1961 -31.9587 0)
(13.7951 -31.7194 1.09542e-18)
(13.4299 -31.4967 -1.07828e-18)
(13.061 -31.2911 8.82724e-19)
(12.7146 -31.062 -1.56482e-18)
(12.3443 -30.7937 7.77497e-19)
(11.9754 -30.4598 9.07514e-20)
(11.521 -30.0886 -6.45149e-20)
(11.3657 -29.6745 5.04129e-19)
(6.78654 -11.9935 -1.11155e-18)
(16.1345 -26.8539 8.02681e-20)
(19.2956 -33.0364 1.16171e-19)
(19.0173 -33.2469 2.5713e-18)
(18.347 -32.8905 2.03785e-19)
(17.7555 -32.5485 -1.33215e-18)
(17.1879 -32.2119 -8.96862e-19)
(16.6438 -31.9237 2.99356e-19)
(16.1499 -31.6542 9.68187e-19)
(15.6677 -31.4351 -9.88057e-19)
(15.2271 -31.21 4.74404e-19)
(14.7913 -31.0122 -1.16115e-18)
(14.3884 -30.8051 9.10984e-19)
(13.9726 -30.5757 -8.19472e-19)
(13.5938 -30.3657 7.22057e-19)
(13.2111 -30.1606 5.43359e-19)
(12.8536 -29.9325 -6.2763e-19)
(12.4656 -29.6536 4.31234e-19)
(12.0411 -29.3608 -4.11989e-19)
(11.8777 -28.9659 -4.1036e-19)
(7.35758 -11.881 -1.36837e-18)
(17.0935 -26.1619 -2.45975e-19)
(20.1354 -31.8117 1.32688e-18)
(19.7519 -31.9038 -1.09368e-18)
(19.0437 -31.5629 1.07392e-18)
(18.4296 -31.2763 2.44467e-19)
(17.8421 -30.9967 0)
(17.2738 -30.7329 -1.66973e-19)
(16.7418 -30.4683 4.40719e-19)
(16.235 -30.2335 -1.54105e-18)
(15.7678 -30.0506 1.07386e-18)
(15.3177 -29.8541 2.23262e-19)
(14.8797 -29.6918 1.09703e-19)
(14.4775 -29.535 0)
(14.0674 -29.3811 2.18694e-20)
(13.6896 -29.2164 4.73779e-19)
(13.2995 -29.038 -6.63789e-20)
(12.9007 -28.7965 3.04704e-20)
(12.4283 -28.4833 -3.27215e-19)
(12.2433 -28.0859 5.95199e-20)
(7.88261 -11.6734 1.2188e-18)
(17.9343 -25.2979 -2.09419e-18)
(20.7567 -30.2861 1.17218e-18)
(20.3522 -30.4016 9.49482e-19)
(19.6421 -30.141 -9.16623e-20)
(18.9907 -29.8993 -6.47136e-19)
(18.374 -29.6493 1.56358e-19)
(17.7874 -29.4626 1.66972e-19)
(17.2506 -29.2743 0)
(16.7226 -29.1124 0)
(16.2382 -28.9492 -7.55397e-19)
(15.7658 -28.8083 1.21783e-18)
(15.3186 -28.6529 -6.37143e-19)
(14.8713 -28.488 0)
(14.4579 -28.3479 2.28695e-20)
(14.0498 -28.2109 -3.3513e-19)
(13.6667 -28.0705 3.22173e-19)
(13.2651 -27.9194 -3.54281e-20)
(12.8297 -27.6957 -1.24244e-19)
(12.6343 -27.3076 9.63625e-20)
(8.37572 -11.4065 -1.06156e-18)
(18.6961 -24.3484 1.33305e-18)
(21.4183 -28.9402 0)
(20.8787 -28.9439 0)
(20.1451 -28.6973 1.66612e-19)
(19.4761 -28.5145 -7.86809e-19)
(18.8541 -28.3219 3.83533e-20)
(18.2321 -28.1325 5.17004e-19)
(17.6614 -27.9498 -7.69793e-19)
(17.1137 -27.7932 1.40544e-18)
(16.6111 -27.6847 -6.37838e-19)
(16.1296 -27.5641 1.2039e-19)
(15.6634 -27.4797 3.8433e-19)
(15.2283 -27.3837 -5.0748e-20)
(14.7811 -27.2814 -2.06311e-19)
(14.3748 -27.1659 3.08675e-20)
(13.9645 -27.0588 -8.75344e-20)
(13.5567 -26.9315 6.40916e-20)
(13.1009 -26.7454 2.0112e-20)
(12.8998 -26.375 -5.60877e-20)
(8.82094 -11.0784 0)
(19.3182 -23.2676 6.00496e-19)
(21.7919 -27.3012 -6.68952e-19)
(21.2492 -27.3736 0)
(20.5154 -27.1998 -1.66608e-19)
(19.8201 -27.058 4.68606e-19)
(19.1773 -26.9026 -5.83601e-19)
(18.5656 -26.8181 0)
(17.9991 -26.7083 5.27186e-19)
(17.4363 -26.6042 -5.18402e-19)
(16.9173 -26.5072 3.06967e-20)
(16.4185 -26.423 -4.68848e-20)
(15.9374 -26.323 -3.56986e-20)
(15.4745 -26.234 -2.55567e-20)
(15.0425 -26.1825 -2.07707e-20)
(14.6168 -26.1206 -5.16539e-20)
(14.2048 -26.0477 1.64562e-19)
(13.7951 -25.998 -2.64519e-19)
(13.3733 -25.9033 1.40364e-19)
(13.1721 -25.5527 -1.91626e-20)
(9.22284 -10.6916 0)
(19.8542 -22.1398 -6.77773e-19)
(22.2284 -25.8367 3.64421e-19)
(21.5821 -25.8181 3.77982e-19)
(20.8308 -25.6758 -7.77634e-20)
(20.1219 -25.5932 -7.00029e-20)
(19.4713 -25.4796 -3.21345e-19)
(18.8108 -25.3715 0)
(18.2192 -25.2879 0)
(17.6473 -25.2112 0)
(17.1185 -25.1764 -3.06956e-20)
(16.6209 -25.1399 0)
(16.1323 -25.1274 8.61839e-20)
(15.6593 -25.0653 -6.75688e-20)
(15.1745 -24.9925 1.95501e-19)
(14.7478 -24.9367 -4.42272e-19)
(14.3123 -24.9139 2.45992e-19)
(13.8859 -24.8693 3.91422e-19)
(13.4619 -24.8467 -7.1418e-19)
(13.2647 -24.5224 3.91812e-19)
(9.59933 -10.2747 0)
(20.2644 -20.9352 0)
(22.3711 -24.1753 1.35766e-19)
(21.7073 -24.2362 1.12844e-19)
(20.9641 -24.136 0)
(20.2377 -24.0955 1.83461e-19)
(19.5943 -24.0372 -1.80252e-19)
(18.9681 -24.0382 0)
(18.3862 -24.0066 3.03572e-20)
(17.8047 -23.9685 -2.98509e-20)
(17.2572 -23.9218 0)
(16.7397 -23.8835 2.1463e-19)
(16.2476 -23.8582 5.26739e-20)
(15.7923 -23.8691 -2.77024e-19)
(15.3438 -23.8735 0)
(14.8812 -23.8172 0)
(14.4261 -23.8008 0)
(13.9853 -23.7718 4.88781e-19)
(13.5697 -23.7063 -5.32798e-19)
(13.2767 -23.5161 0)
(2.22439 -34.3768 0)
(2.06729 -32.529 0)
(1.23636 -31.3126 -1.46056e-21)
(1.08804 -30.1718 -7.61065e-22)
(0.720395 -29.3245 0)
(0.538845 -28.4688 1.88059e-22)
(0.3735 -27.8037 -5.88601e-22)
(0.232234 -27.2422 0)
(0.155018 -26.7954 -1.44619e-21)
(0.0718483 -26.3767 0)
(0.0183656 -26.068 1.88533e-21)
(-0.000558994 -25.775 1.06156e-21)
(-0.0450802 -25.6014 -1.06721e-21)
(-0.0130189 -25.3925 -2.35479e-21)
(-0.0720111 -25.2848 0)
(0.0113378 -25.0076 6.46476e-22)
(-0.0447378 -24.3817 -3.28596e-21)
(0.104478 -21.5613 0)
(-0.0200886 -15.2533 0)
(0.086325 -6.2431 -2.72138e-21)
(2.98154 -34.2229 1.91355e-20)
(2.72643 -32.3611 0)
(1.78538 -31.2029 5.71716e-21)
(1.51513 -30.1704 -3.51635e-21)
(1.07637 -29.3283 0)
(0.828786 -28.4643 2.59238e-21)
(0.620478 -27.7951 -1.28763e-21)
(0.433954 -27.2331 0)
(0.32691 -26.7884 -1.72391e-21)
(0.210847 -26.3725 3.1871e-21)
(0.136791 -26.0682 -5.8648e-21)
(0.0949597 -25.7794 8.29757e-21)
(0.0369359 -25.6056 -6.60637e-21)
(0.0463424 -25.3906 2.24746e-21)
(-0.022989 -25.2897 2.41847e-21)
(0.0478165 -25.0099 -2.5993e-21)
(-0.0190359 -24.396 5.24768e-21)
(0.120684 -21.5651 6.78647e-21)
(-0.0117153 -15.2514 3.43495e-21)
(0.0893608 -6.23217 3.40223e-21)
(3.53768 -33.9206 -1.30688e-20)
(3.09341 -32.1802 -1.47749e-20)
(2.05218 -31.0107 -5.00988e-21)
(1.73748 -29.9772 0)
(1.26443 -29.1634 0)
(0.975847 -28.3484 -3.7013e-21)
(0.745245 -27.7092 -1.47478e-21)
(0.536346 -27.1686 -1.16659e-21)
(0.413655 -26.7397 -1.00138e-21)
(0.283004 -26.3329 6.52531e-21)
(0.197643 -26.0377 0)
(0.145107 -25.7552 0)
(0.0791239 -25.5881 0)
(0.0862821 -25.3832 9.59366e-21)
(0.011651 -25.2847 0)
(0.0783713 -25.0158 1.03836e-20)
(0.00630553 -24.4106 -1.06323e-20)
(0.13433 -21.5798 -3.52797e-21)
(-0.003976 -15.2625 -6.84584e-21)
(0.0934337 -6.22876 -1.09108e-20)
(4.27262 -33.6969 2.307e-20)
(3.72439 -31.9791 -4.16673e-20)
(2.58746 -30.8779 2.58707e-21)
(2.15299 -29.9553 7.03979e-21)
(1.61427 -29.1514 0)
(1.25864 -28.3325 -6.05766e-21)
(0.986815 -27.6929 1.90352e-20)
(0.733125 -27.153 -1.46669e-20)
(0.580908 -26.727 1.19552e-20)
(0.418167 -26.3232 -7.48837e-21)
(0.312394 -26.0324 -4.03938e-22)
(0.237557 -25.7544 8.81342e-21)
(0.158495 -25.5874 -8.85553e-21)
(0.141998 -25.3773 -4.6997e-21)
(0.0564847 -25.2854 -4.9171e-21)
(0.112501 -25.017 -1.03774e-20)
(0.0340488 -24.4243 1.3317e-20)
(0.144109 -21.5962 -4.77733e-21)
(0.00521399 -15.2724 2.74807e-21)
(0.0951452 -6.22236 1.08395e-20)
(4.83218 -33.3237 6.91324e-20)
(4.0847 -31.7446 9.00735e-21)
(2.85842 -30.652 -6.68409e-21)
(2.36936 -29.7345 7.90393e-21)
(1.79748 -28.9749 0)
(1.40129 -28.2039 2.61808e-21)
(1.1089 -27.5967 -3.98293e-21)
(0.834069 -27.0782 0)
(0.665413 -26.6693 1.72305e-22)
(0.489079 -26.2763 0)
(0.371632 -25.9956 1.60073e-20)
(0.28661 -25.7252 0)
(0.199245 -25.565 0)
(0.18076 -25.365 1.96531e-20)
(0.0911373 -25.2776 -9.91648e-21)
(0.141472 -25.022 1.05198e-20)
(0.0585188 -24.4389 0)
(0.155435 -21.6205 -2.55944e-21)
(0.0106505 -15.292 2.75661e-21)
(0.0956503 -6.21989 0)
(5.54051 -33.0307 2.40362e-20)
(4.68769 -31.502 -1.57114e-20)
(3.36644 -30.496 1.38289e-20)
(2.77163 -29.691 -1.2416e-20)
(2.14014 -28.9444 -2.55692e-21)
(1.67588 -28.1761 -2.62622e-21)
(1.34406 -27.5722 8.90814e-21)
(1.02505 -27.0558 1.13303e-20)
(0.827412 -26.6504 -6.47279e-21)
(0.620217 -26.2609 -1.55999e-20)
(0.48269 -25.9846 7.58328e-21)
(0.376633 -25.719 0)
(0.275951 -25.5595 0)
(0.234514 -25.3553 1.99134e-23)
(0.134274 -25.2742 1.00053e-20)
(0.173071 -25.0213 -1.05096e-20)
(0.0824805 -24.4528 0)
(0.165136 -21.6438 2.12926e-20)
(0.0187452 -15.3121 2.07788e-20)
(0.0952313 -6.21843 1.35424e-21)
(6.08725 -32.5825 -6.2577e-20)
(5.03346 -31.2131 5.4301e-20)
(3.64349 -30.2339 -7.29653e-21)
(2.98129 -29.4461 0)
(2.31907 -28.7571 2.56778e-21)
(1.81425 -28.0358 -1.52645e-20)
(1.46298 -27.4665 6.38227e-21)
(1.12417 -26.9715 -1.13622e-20)
(0.909992 -26.5844 0)
(0.689943 -26.2073 0)
(0.540392 -25.942 -1.72523e-20)
(0.425165 -25.6851 1.73145e-20)
(0.315906 -25.5321 0)
(0.272812 -25.3383 -2.98178e-20)
(0.168221 -25.2632 1.00932e-20)
(0.200188 -25.025 1.06859e-20)
(0.106157 -24.4671 -1.07208e-20)
(0.174457 -21.6773 -2.7595e-20)
(0.0222039 -15.3407 -1.3787e-20)
(0.0936876 -6.21899 -2.77955e-21)
(6.7616 -32.2172 0)
(5.60355 -30.9313 -1.95966e-20)
(4.11981 -30.0553 1.96597e-20)
(3.36864 -29.3778 0)
(2.65209 -28.7066 0)
(2.07971 -27.9952 1.64363e-20)
(1.6907 -27.4332 -1.64867e-20)
(1.30902 -26.942 0)
(1.06652 -26.5589 -1.47873e-20)
(0.817467 -26.186 3.11209e-20)
(0.647657 -25.9253 -1.63384e-20)
(0.513102 -25.6736 -1.8644e-20)
(0.389321 -25.5219 1.86995e-20)
(0.324766 -25.3247 0)
(0.209418 -25.2555 0)
(0.22955 -25.0229 1.07471e-20)
(0.129048 -24.4822 -1.62569e-20)
(0.187101 -21.706 -5.52529e-23)
(0.0248255 -15.3701 8.3333e-21)
(0.088662 -6.22236 -2.78479e-21)
(7.2689 -31.6949 3.21362e-20)
(5.93177 -30.5878 -3.21755e-20)
(4.3961 -29.7564 -9.10012e-21)
(3.56995 -29.1124 1.12502e-21)
(2.82629 -28.5089 1.56747e-20)
(2.21479 -27.8444 5.87828e-21)
(1.80646 -27.3192 -1.76817e-20)
(1.40651 -26.8494 0)
(1.14746 -26.4857 0)
(0.886422 -26.1265 -1.62582e-20)
(0.703957 -25.8774 0)
(0.561228 -25.6351 0)
(0.427697 -25.4899 0)
(0.360099 -25.3031 0)
(0.240255 -25.2407 0)
(0.253234 -25.0181 0)
(0.147946 -24.4957 1.09995e-20)
(0.189974 -21.7452 -1.10174e-20)
(0.0284234 -15.4057 2.78523e-21)
(0.0786901 -6.22903 -2.78698e-21)
(7.89428 -31.2556 -5.2222e-20)
(6.46164 -30.27 -3.88188e-20)
(4.84703 -29.5555 1.16184e-21)
(3.94043 -29.0167 9.66762e-21)
(3.14818 -28.4379 2.03173e-21)
(2.47097 -27.7902 -2.16777e-20)
(2.02607 -27.2765 -1.11024e-20)
(1.58521 -26.8129 0)
(1.29833 -26.4534 1.6254e-20)
(1.0107 -26.0992 -3.16928e-20)
(0.807253 -25.855 -1.77968e-20)
(0.646825 -25.6181 -1.90037e-20)
(0.496806 -25.4743 0)