/*--------------------------------*- C++ -*----------------------------------*\
  =========                 |
  \\      /  F ield         | OpenFOAM: The Open Source CFD Toolbox
   \\    /   O peration     | Website:  https://openfoam.org
    \\  /    A nd           | Version:  9
     \\/     M anipulation  |
\*---------------------------------------------------------------------------*/
FoamFile
{
    format      ascii;
    class       volScalarField;
    location    "9";
    object      nut;
}
// * * * * * * * * * * * * * * * * * * * * * * * * * * * * * * * * * * * * * //

dimensions      [0 2 -1 0 0 0 0];

internalField   nonuniform List<scalar> 
46400
(
0.0236409
0.00928363
0.00273559
0.00179122
0.0018157
0.00173686
0.00165046
0.00160821
0.00153046
0.00148925
0.00141922
0.00138708
0.00134909
0.00130811
0.0012868
0.00129007
0.00119265
0.00117287
0.00154791
0.00119169
0.0231502
0.00770958
0.00187999
0.00172818
0.00170409
0.00170764
0.00162463
0.00159905
0.00152966
0.00148678
0.00143521
0.00138439
0.00132342
0.00128594
0.00123889
0.00120542
0.00113525
0.00104289
0.00137932
0.00121728
0.0226038
0.00736124
0.00214518
0.00182732
0.00177443
0.00172789
0.00163228
0.00158695
0.00150406
0.00147033
0.00141168
0.0013731
0.00133632
0.00128159
0.00125734
0.00123096
0.00110562
0.00108719
0.00145657
0.00118951
0.0220735
0.00575998
0.001518
0.00176649
0.00166091
0.00168776
0.0015967
0.00158552
0.00151927
0.00146431
0.00141702
0.00136299
0.00130509
0.00126593
0.0012143
0.00119445
0.00112635
0.00106109
0.00143935
0.00124113
0.0214271
0.00560788
0.00158089
0.00183998
0.00172752
0.0017131
0.00161627
0.00157094
0.00149975
0.00146581
0.00140973
0.00137561
0.0013397
0.0012875
0.00127205
0.00123309
0.0011477
0.00109979
0.00148117
0.00126696
0.0207651
0.00497023
0.00155776
0.00179606
0.00163871
0.0016642
0.00157077
0.00155786
0.00150093
0.0014492
0.00141289
0.00135788
0.00132325
0.00126302
0.0012216
0.00120274
0.00112883
0.00108493
0.00143296
0.00126023
0.019962
0.00563293
0.0016388
0.00185778
0.00172001
0.00171032
0.00161867
0.00156656
0.0015007
0.00145679
0.001408
0.00136404
0.00133561
0.00131058
0.00128596
0.00126414
0.00116528
0.00110318
0.0014473
0.00123872
0.0192088
0.00560009
0.00168705
0.00186786
0.00166791
0.00166287
0.00156706
0.00152917
0.00148445
0.0014205
0.00139541
0.00135002
0.0013061
0.00125526
0.00122147
0.00121173
0.00117747
0.00110499
0.00141047
0.00128432
0.0182892
0.00520158
0.00164604
0.00186358
0.00172744
0.00170431
0.00164236
0.00156359
0.00151278
0.00145655
0.00139184
0.00135361
0.00133161
0.00129733
0.00125521
0.00121662
0.00116205
0.00110734
0.00139671
0.00124378
0.0166501
0.0042034
0.00170912
0.00185174
0.00167888
0.00161521
0.00157393
0.00152294
0.00147145
0.00142171
0.00137901
0.0013255
0.00129216
0.00125724
0.00123329
0.00121033
0.00115924
0.00109725
0.00135909
0.00126652
0.0147149
0.00343712
0.0016611
0.00172943
0.00171935
0.00163722
0.00158487
0.00153318
0.00149392
0.0014584
0.0014255
0.00137654
0.00131393
0.0012597
0.0012299
0.00119624
0.00113991
0.00108044
0.00126917
0.00118185
0.0120579
0.00293266
0.0017674
0.0017136
0.00162666
0.00156721
0.00150646
0.00145663
0.00139538
0.00132846
0.00130335
0.00128911
0.00128047
0.00124416
0.00120946
0.00119059
0.00114359
0.00109545
0.00126672
0.00118888
0.00982091
0.00240923
0.0017097
0.00164533
0.00162411
0.00156228
0.0015319
0.00146826
0.00146182
0.00141155
0.0013502
0.00127048
0.00122362
0.00118681
0.00115767
0.00113424
0.00108092
0.00103254
0.00116483
0.00110442
0.00817642
0.00216937
0.00166137
0.0016602
0.00163649
0.00150845
0.00147893
0.00140452
0.00136906
0.0013331
0.00132687
0.00130597
0.00127221
0.00122768
0.00118377
0.00117059
0.00114042
0.00108466
0.00119595
0.00112991
0.00668643
0.00193696
0.00174947
0.00154169
0.00157641
0.00154442
0.00151886
0.00145164
0.00138389
0.00131711
0.00125724
0.00121371
0.00118637
0.00116513
0.00111643
0.00107613
0.0010432
0.00101543
0.00107727
0.00104757
0.00564025
0.00173899
0.00162241
0.00164002
0.00160014
0.00148086
0.0014678
0.00142835
0.00141315
0.00136644
0.0013241
0.00126791
0.00121469
0.00119108
0.00117015
0.00112426
0.00107361
0.00103663
0.00110301
0.00105067
0.00495905
0.00169341
0.00173589
0.00163765
0.00158942
0.00150673
0.00145638
0.00137362
0.00133316
0.00128589
0.00126565
0.00124315
0.00119795
0.00114844
0.00113627
0.00111982
0.00107652
0.00102981
0.00106825
0.00102568
0.0041505
0.0017845
0.0015951
0.00147385
0.00155407
0.00144178
0.00142621
0.00138991
0.00136427
0.0013206
0.00126104
0.00123396
0.00121239
0.0011679
0.00111944
0.001104
0.00107436
0.00103537
0.00107376
0.00102245
0.00364899
0.0018019
0.00173009
0.0015912
0.00151847
0.00145387
0.00143333
0.00134849
0.00131752
0.00127887
0.0012516
0.0011846
0.00115714
0.00113762
0.00109655
0.00107539
0.00104091
0.00100287
0.0010292
0.000998109
0.00316313
0.00153869
0.00160626
0.00157043
0.00153088
0.00151329
0.00142246
0.00138074
0.00132192
0.00127221
0.0012563
0.00121331
0.00117544
0.00113544
0.00110388
0.0010723
0.00103632
0.000991667
0.00100787
0.000979107
0.014595
0.0165504
0.0111812
0.000532264
0.000646928
0.00129791
0.00137738
0.0013105
0.00125773
0.001183
0.00115196
0.00115427
0.00110896
0.00110083
0.00117284
0.0013175
0.00134913
0.00135337
0.00124479
0.00106911
0.0174556
0.0167469
0.0104159
0.000391182
0.000841979
0.00142263
0.00143031
0.00133117
0.00127755
0.00124105
0.00122154
0.00116057
0.00117699
0.0012061
0.00120473
0.00126061
0.00130525
0.0013195
0.0011768
0.00103294
0.0191478
0.0167631
0.00849733
0.000288689
0.00116315
0.00145916
0.00143324
0.0013845
0.0013224
0.00124634
0.00121015
0.00122224
0.00118922
0.00115684
0.00120247
0.00135172
0.00138334
0.00138239
0.00124532
0.00109105
0.0211782
0.0165758
0.00681752
0.000735435
0.00133752
0.00155451
0.00144898
0.00138171
0.00133574
0.00129776
0.00127897
0.00120114
0.00119897
0.00123768
0.00125227
0.00129912
0.00131933
0.00134164
0.00115791
0.00103295
0.021402
0.016494
0.00503578
0.000524699
0.00139257
0.00153065
0.00148615
0.00143988
0.00137851
0.00129663
0.00125441
0.00127493
0.0012519
0.00120476
0.00123534
0.0013644
0.00139265
0.00139303
0.00122334
0.00111651
0.022359
0.0162991
0.0037874
0.000493931
0.00155127
0.00160464
0.00150357
0.00142471
0.00138219
0.00134503
0.00132291
0.00123409
0.00121536
0.00125032
0.00125685
0.00129932
0.00133006
0.00138291
0.00114513
0.00102908
0.0229098
0.0159153
0.00284814
0.000600286
0.00158327
0.0015844
0.00153958
0.00148328
0.0014261
0.0013392
0.00129247
0.0013118
0.00129055
0.00124193
0.00126946
0.00136433
0.00138352
0.00139795
0.00120067
0.00112146
0.0237097
0.0157218
0.00205894
0.000847671
0.0016503
0.00162547
0.00154673
0.0014587
0.00141542
0.00137867
0.00134794
0.00126095
0.00123183
0.00124947
0.00123966
0.00128032
0.00133713
0.00141853
0.00115564
0.0010549
0.0241268
0.0152654
0.00163566
0.000987953
0.00168832
0.00162312
0.00157842
0.00150858
0.00145788
0.00137461
0.00132744
0.00133348
0.00130845
0.00126952
0.00129509
0.00135146
0.00136411
0.0014061
0.0011809
0.00112389
0.0246763
0.0149944
0.00124863
0.00117413
0.00170148
0.00163214
0.00157994
0.00148991
0.00144154
0.00140161
0.00135985
0.0012869
0.00125075
0.00124238
0.00121905
0.00125562
0.00133209
0.00143173
0.00115329
0.00108676
0.024922
0.0145003
0.00176388
0.00126427
0.00174916
0.00165978
0.00161266
0.00152703
0.00147859
0.00140681
0.00135903
0.00134222
0.00131228
0.00128616
0.00129892
0.00132096
0.00133573
0.00140914
0.00115553
0.00112072
0.0252256
0.0141611
0.00158771
0.0013963
0.00174223
0.00162889
0.00160372
0.00152014
0.00146202
0.00141643
0.00137016
0.00131779
0.0012746
0.00124288
0.00121062
0.00123548
0.00131295
0.00142179
0.00113346
0.00111287
0.0253342
0.0136362
0.00237641
0.00144223
0.00181688
0.0016869
0.00163587
0.00155047
0.00149692
0.0014374
0.00138365
0.00134511
0.00131252
0.00129782
0.00128526
0.00127912
0.00130256
0.00139394
0.00112319
0.00112435
0.025417
0.0132107
0.0023715
0.00149356
0.00177519
0.00165072
0.00161786
0.00154746
0.00148211
0.00142949
0.00138744
0.00135381
0.00130237
0.00125951
0.00122456
0.00122345
0.00128107
0.00138878
0.0010949
0.00113584
0.0254123
0.0128891
0.00298189
0.00154919
0.00182733
0.00171379
0.00165329
0.00157401
0.00151769
0.00146795
0.00140051
0.00135196
0.00132049
0.00131021
0.00127193
0.00124833
0.00127256
0.00135738
0.00106953
0.00113283
0.0252636
0.0124962
0.00273628
0.00157466
0.00176493
0.00167282
0.00163294
0.00157132
0.00150157
0.00144905
0.00141376
0.00138883
0.00133093
0.00129237
0.0012602
0.00122656
0.00125285
0.00134089
0.00103528
0.00115447
0.0251212
0.0121579
0.00263159
0.00167179
0.00182162
0.00172424
0.00166331
0.00159647
0.00153946
0.00149749
0.00141566
0.00137028
0.00134378
0.00132724
0.00127972
0.00125532
0.0012562
0.00129944
0.000980439
0.00114854
0.0247623
0.0116561
0.00244983
0.00164465
0.00176704
0.0016915
0.00164475
0.00159037
0.00151715
0.00147368
0.00144213
0.0014098
0.00135191
0.00132878
0.00129504
0.00125099
0.00125753
0.00129925
0.000933833
0.00107342
0.024534
0.0108807
0.00271148
0.00174889
0.00182508
0.00173403
0.00166501
0.00161472
0.00155248
0.00151663
0.00143587
0.00140223
0.0013748
0.00134824
0.00131087
0.00130081
0.00127844
0.00127635
0.000915938
0.00109615
0.0240465
0.00971706
0.00228341
0.00169151
0.00174982
0.00170675
0.0016455
0.00160358
0.00153063
0.0014975
0.00146732
0.00142982
0.0013851
0.00137617
0.00135418
0.00136311
0.00137933
0.00134185
0.00109791
0.0012936
0.00741616
0.00542606
0.0044161
0.00341348
0.00288024
0.00236977
0.00196131
0.00153516
0.00129935
0.00106029
0.000883091
0.000718499
0.000565902
0.000481952
0.00048541
0.000767443
0.00155426
0.0062596
0.0107598
0.0151908
0.00722464
0.00536466
0.00442139
0.0034211
0.00293722
0.00240908
0.00199149
0.00155669
0.0013112
0.00108018
0.00089833
0.00072962
0.000577896
0.000491202
0.00048251
0.000749632
0.00152831
0.00630916
0.0107783
0.0151829
0.00749893
0.00537374
0.00442624
0.00334976
0.00286681
0.00234227
0.00193897
0.00152081
0.00128366
0.00105984
0.000871106
0.000712078
0.000556296
0.000467894
0.000464753
0.00073239
0.00153609
0.00633332
0.0107895
0.0151673
0.00735232
0.00530164
0.00440422
0.0033739
0.0029192
0.00238213
0.0019662
0.00154981
0.00129824
0.0010831
0.000886975
0.000722754
0.000569122
0.00048143
0.000445543
0.000727863
0.00151675
0.0063326
0.0107295
0.0151626
0.00691637
0.00530537
0.00438029
0.00328884
0.00285247
0.00231613
0.00191286
0.00152011
0.00127135
0.00106234
0.000859119
0.000706067
0.000547114
0.00045635
0.00042148
0.000706951
0.00148583
0.00633142
0.0107249
0.0151547
0.00752038
0.00524174
0.00436917
0.00330923
0.00290649
0.00235437
0.00193672
0.00155316
0.0012879
0.00108763
0.000874482
0.000717367
0.000561735
0.000466468
0.000396218
0.000691504
0.00144909
0.00627715
0.0107637
0.0151444
0.00769173
0.00525983
0.00432353
0.00321317
0.00284347
0.0022922
0.00188441
0.00152699
0.00126151
0.00106672
0.000849533
0.000701807
0.000539604
0.000445382
0.000369898
0.000669551
0.0014307
0.00624362
0.0107686
0.0151447
0.00760773
0.00522214
0.00435251
0.00323574
0.00289511
0.00233217
0.00190666
0.00156205
0.0012805
0.00109289
0.000866836
0.000715947
0.00055679
0.000434768
0.00034622
0.000629977
0.00139889
0.00618655
0.0107354
0.0151565
0.00770362
0.00520506
0.004296
0.00315021
0.00282656
0.00227716
0.00185796
0.0015384
0.00125559
0.00107437
0.000847321
0.000703073
0.000539741
0.00043217
0.00033202
0.00059471
0.00133477
0.00614515
0.0107442
0.0151792
0.00766742
0.00517403
0.00433817
0.00317892
0.00286674
0.00231612
0.00188112
0.00157225
0.00127642
0.00109941
0.000866074
0.000718421
0.000557661
0.000441766
0.000341641
0.000590638
0.00130556
0.00609532
0.0107635
0.0152066
0.00767206
0.00509509
0.00427769
0.00311919
0.00279304
0.00226609
0.00183866
0.00154929
0.00125353
0.00108388
0.000851604
0.000707793
0.000546042
0.000431981
0.000332539
0.000523019
0.00122167
0.00604206
0.0107499
0.0152421
0.00771403
0.0050485
0.00429258
0.00314861
0.00281853
0.00229949
0.00186197
0.00157977
0.00127574
0.00110512
0.000871212
0.000724266
0.000563388
0.00045078
0.00033518
0.000484074
0.00116749
0.00600213
0.0107481
0.0152821
0.0076602
0.0049283
0.00422821
0.00310583
0.00274085
0.00225457
0.00182337
0.00155699
0.00125631
0.00109297
0.000859197
0.000717088
0.000557721
0.000449385
0.000207855
0.000436262
0.00104272
0.00593315
0.0107473
0.0153135
0.00775328
0.00485421
0.00421335
0.00313707
0.00275181
0.0022854
0.00184459
0.00158472
0.00127765
0.0011115
0.000879577
0.000733599
0.000579385
0.000478372
0.000290123
0.000400654
0.00099085
0.00590572
0.0107233
0.015345
0.00771703
0.0047105
0.00413048
0.00309977
0.00267063
0.00224781
0.00181
0.00156423
0.00126416
0.00110245
0.000869684
0.000731209
0.000575346
0.000476972
0.000195993
0.000376471
0.000907931
0.00583806
0.0107726
0.015411
0.00783874
0.00461201
0.00407516
0.0031264
0.00266456
0.00226797
0.00182501
0.00158449
0.00128132
0.00111765
0.000887465
0.000745187
0.000598127
0.000499609
0.000253828
0.000388308
0.000823374
0.00579314
0.0108226
0.0155488
0.00791561
0.00448182
0.00396381
0.00308389
0.0025872
0.0022318
0.00179423
0.00156405
0.00127141
0.00110915
0.000877982
0.000743622
0.000594033
0.000490945
0.00031145
0.000424533
0.000735639
0.00571802
0.010797
0.0157046
0.00800375
0.0043835
0.00388603
0.00312432
0.00260245
0.00226898
0.00183012
0.00160053
0.00130142
0.00113589
0.000903366
0.000763034
0.000622584
0.000537658
0.000326812
0.000425926
0.00065868
0.00571055
0.0107538
0.01588
0.00796217
0.00435764
0.00369068
0.00304025
0.00251292
0.00221669
0.0017933
0.00157626
0.00129518
0.00113255
0.000899331
0.000763832
0.000619072
0.000525948
0.000391219
0.000422546
0.000622003
0.00572392
0.0107816
0.0158638
0.00851443
0.00437409
0.00355955
0.00302375
0.00246369
0.00216819
0.00175185
0.00152848
0.00126206
0.00110756
0.000889446
0.000748892
0.000628606
0.000542059
0.000425043
0.000401116
0.000555756
0.00547124
0.0106467
0.015517
0.0160856
0.0463127
0.0353456
0.0324668
0.026669
0.0238042
0.0190129
0.0163349
0.0133821
0.011586
0.00931942
0.00789611
0.00651463
0.00570858
0.00491462
0.0046929
0.00289417
0.0519113
0.100705
0.143465
0.0412928
0.0289329
0.0227516
0.0203099
0.0178183
0.0154448
0.0128746
0.0108382
0.00904266
0.00760047
0.00665424
0.00588661
0.00545982
0.00475371
0.00462793
0.00462467
0.0150352
0.0504471
0.0986733
0.141071
0.0198945
0.0170107
0.0169897
0.014006
0.0125295
0.011162
0.00999266
0.00925581
0.00825072
0.00762712
0.00701808
0.0066946
0.00628656
0.00580155
0.00549511
0.00493941
0.00821648
0.049159
0.0967477
0.141551
0.0134281
0.0124068
0.0106106
0.0109149
0.00966052
0.00927741
0.00841922
0.00784231
0.00717515
0.0066402
0.00603072
0.00541272
0.00470168
0.00439993
0.00411378
0.00336892
0.0119671
0.0431361
0.0966193
0.137958
0.00819963
0.00879403
0.00931385
0.00761162
0.00702823
0.0065947
0.00625397
0.00595853
0.00568712
0.00545848
0.00514076
0.00498646
0.00466697
0.00428589
0.00416368
0.00380071
0.00611437
0.0405125
0.0963098
0.137458
0.00671614
0.00543871
0.00487746
0.00582077
0.00568159
0.00579265
0.00544387
0.00523741
0.0049187
0.00488355
0.00458837
0.00446134
0.00427824
0.00408893
0.00360118
0.00294914
0.00826687
0.0346077
0.0964527
0.13673
0.00363896
0.00481925
0.00524936
0.00483361
0.00436559
0.00407828
0.00425804
0.00435367
0.00415446
0.00418937
0.00406347
0.00407286
0.00390278
0.00393456
0.0036858
0.00293844
0.00406609
0.0300446
0.0965896
0.138978
0.00330081
0.00312412
0.00287178
0.00315449
0.00332261
0.0036593
0.00350594
0.00376288
0.00373457
0.00377865
0.00369103
0.00382047
0.00377557
0.00394333
0.00379406
0.00336317
0.00479181
0.0249168
0.0953481
0.142951
0.00220142
0.00253836
0.00273979
0.00299762
0.00297578
0.00286745
0.00284063
0.00301418
0.0032368
0.0034012
0.00341457
0.00355031
0.00351748
0.00386504
0.00381522
0.00375381
0.00392463
0.0180723
0.0932557
0.150857
0.00170326
0.0017552
0.00175223
0.00183316
0.00202979
0.0024772
0.00263302
0.00267264
0.00267289
0.00297637
0.00307994
0.00338017
0.00350759
0.00383001
0.00403403
0.00445152
0.00349054
0.012435
0.0867234
0.161057
0.00124209
0.00149561
0.00163921
0.00187133
0.00188719
0.0018715
0.00204472
0.00239089
0.00253048
0.00268112
0.00284297
0.00307145
0.00325711
0.003579
0.00375227
0.00450774
0.00420961
0.007102
0.0646794
0.173965
0.000988476
0.00111927
0.00115702
0.00129394
0.00146854
0.00177254
0.00179355
0.00189004
0.0021292
0.00237717
0.00259419
0.0028339
0.00309229
0.00332115
0.0037003
0.0037623
0.0047372
0.00696898
0.0503377
0.192928
0.000879963
0.00105385
0.00114289
0.00127401
0.00129856
0.00146488
0.00166152
0.00188507
0.00191577
0.00204777
0.00220069
0.00240177
0.00267677
0.00290555
0.00326522
0.00346983
0.00443633
0.00883616
0.025218
0.155088
0.000791781
0.000896483
0.000948935
0.00108954
0.00116864
0.00133502
0.00137922
0.00156725
0.00164841
0.00184199
0.00187502
0.00214852
0.00215772
0.00256601
0.00256972
0.00325895
0.00294838
0.00545848
0.0143632
0.109447
0.000746643
0.000829924
0.000873425
0.000994077
0.0010174
0.00108369
0.00119007
0.00126745
0.0012863
0.00140514
0.00145363
0.0015754
0.00167399
0.00196599
0.00190797
0.00230945
0.0026657
0.00369522
0.00496439
0.0640631
0.000597608
0.000653331
0.000671075
0.000748519
0.000802231
0.00084428
0.000828989
0.001015
0.00107374
0.00118059
0.00117337
0.00130917
0.00126355
0.00133938
0.00140707
0.00167721
0.00136736
0.00180139
0.00402047
0.0364689
0.000567615
0.000596854
0.000612588
0.000630433
0.000665593
0.0007306
0.000755062
0.000727767
0.000734943
0.000787289
0.000835492
0.000876123
0.00093733
0.00102722
0.00111518
0.00104736
0.00133611
0.00125039
0.000799831
0.0197496
0.000455352
0.000462284
0.000458792
0.000457741
0.000444512
0.00047428
0.000485136
0.000521657
0.000536276
0.000611623
0.000581243
0.000644438
0.000635157
0.000643291
0.000580095
0.000696679
0.000621899
0.000712655
0.00137191
0.00761759
0.000409634
0.000405395
0.000396212
0.000395097
0.000376863
0.000349675
0.000312952
0.000296357
0.00028531
0.000277558
0.000287316
0.000313947
0.00034157
0.000360032
0.000372492
0.000388308
0.000356057
0.000336183
0.000239668
0.00400796
0.00035748
0.000327271
0.000282862
0.000270234
0.000241056
0.00020755
0.000178587
0.000164002
0.000137511
0.000156823
0.000185204
0.000219985
0.000238969
0.000268227
0.000293201
0.000292444
0.00030386
0.000324767
0.000195241
8.83916e-05
0.0143863
0.0144712
0.0146084
0.0147261
0.0147558
0.0152396
0.0148854
0.0147748
0.0151437
0.0142482
0.0143735
0.0131936
0.0137493
0.0128647
0.0135137
0.0123931
0.0126318
0.011419
0.0114643
0.0125566
0.00708129
0.0071021
0.00706645
0.00711887
0.00710341
0.00705532
0.0074778
0.00773707
0.00730557
0.00749107
0.00733137
0.00731081
0.00751505
0.00605487
0.00785445
0.0070823
0.00716152
0.00677026
0.00684872
0.00866457
0.00429441
0.0043601
0.0043897
0.00453532
0.00456217
0.00476881
0.00490468
0.0049187
0.00512955
0.00549236
0.00500716
0.00464416
0.00422464
0.00397935
0.00376097
0.00403374
0.00429269
0.00458494
0.00512974
0.00547583
0.00280312
0.00283184
0.00283457
0.00286083
0.00282942
0.00286807
0.00278543
0.00285558
0.0027093
0.00305887
0.00299708
0.00279909
0.00315756
0.00338905
0.00296395
0.00245463
0.00193746
0.00321083
0.00207238
0.00289473
0.00169023
0.00170694
0.00170523
0.00173738
0.00172365
0.00177538
0.00177159
0.00197296
0.00218305
0.00254621
0.00212349
0.00186998
0.00150043
0.0014796
0.00149369
0.00143883
0.00122498
0.00116319
0.0014755
0.00156905
0.00124584
0.0012521
0.0012602
0.00125617
0.00121684
0.00124177
0.00126481
0.00137184
0.00124593
0.00130015
0.00135724
0.00124804
0.00117549
0.00119124
0.00119506
0.00161107
0.00120036
0.00112038
0.000864265
0.0015417
0.000710155
0.000701683
0.000714283
0.000723478
0.000720451
0.000774389
0.000847562
0.000898959
0.000933038
0.000902309
0.000863472
0.000936963
0.000896411
0.000870551
0.00085487
0.000766801
0.000781606
0.000790773
0.00045908
0.000682113
0.000475937
0.000493212
0.000505513
0.000500581
0.000506065
0.000507008
0.000511972
0.000522861
0.000523909
0.000491717
0.000453865
0.000463668
0.000501745
0.000476603
0.000471556
0.000477333
0.000463703
0.000758713
0.000706
0.000777591
0.000261263
0.000300925
0.000315761
0.000310915
0.00032051
0.000309712
0.000326049
0.000346035
0.000365524
0.000371917
0.000374195
0.000387652
0.000407242
0.000463849
0.000433878
0.000432653
0.000407316
0.000366549
0.000267434
0.000383073
0.000156519
0.00016789
0.000173227
0.000172811
0.000168808
0.000177139
0.000223919
0.000259042
0.000281472
0.000283472
0.000293493
0.000296018
0.000313897
0.000311741
0.000316377
0.000321573
0.000330616
0.000343351
0.00035035
0.000397441
0.000103693
0.00011492
0.000127694
0.000137847
0.000145753
0.000148924
0.000150296
0.000153281
0.000163707
0.000166222
0.000171929
0.000173025
0.000185976
0.000190941
0.000204566
0.000212051
0.000216205
0.000223862
0.000227209
0.00024051
9.21689e-05
9.7232e-05
0.000102097
0.000104678
0.00011309
0.000122087
0.000125898
0.000135701
0.00014255
0.000147107
0.000171389
0.000171027
0.0001659
0.000146306
0.000148198
0.000151989
0.000170385
0.000170921
0.000173577
0.000225032
7.24803e-05
7.57879e-05
8.48832e-05
9.33612e-05
9.97229e-05
0.000102021
0.000106375
0.000107518
0.000114409
0.000118669
0.000128586
0.000134072
0.000151753
0.000159743
0.000171555
0.000163616
0.000175075
0.00017292
0.000185893
0.000198391
9.84131e-05
0.000100404
0.000102947
0.000107221
0.000111489
0.000115767
0.000116486
0.000116791
0.000119427
0.000122078
0.000122076
0.000122555
0.000136209
0.000154035
0.000170682
0.00016459
0.000166668
0.000162692
0.000172939
0.000184766
0.00011594
0.000122478
0.000124041
0.000125002
0.000128472
0.000134572
0.000139226
0.000140425
0.000141614
0.000141359
0.000141292
0.00013835
0.000132668
0.000127476
0.000140794
0.000152934
0.000155914
0.000149089
0.00016049
0.000175239
0.000105753
0.000104672
0.000106075
0.000107592
0.0001073
0.00010795
0.000110711
0.000114922
0.000117727
0.000121288
0.000127031
0.000132469
0.000135875
0.000129026
0.000117524
0.000117805
0.000133774
0.000139513
0.000140102
0.000143794
0.000111429
0.000113527
0.000114633
0.000116818
0.000118197
0.000117751
0.000117373
0.000117999
0.000118494
0.000118451
0.000116476
0.000114421
0.000116997
0.00012755
0.000136676
0.000128119
0.000118217
0.000118382
0.000123984
0.000131442
0.0001048
0.000103387
0.00010229
0.000100874
0.000100953
0.000100526
0.000100532
0.000101992
0.00010346
0.000105217
0.000107944
0.000112713
0.000111954
0.000105389
0.00010261
0.000112894
0.000121011
0.000118938
0.000114595
0.000114949
0.000111859
0.000111975
0.000112415
0.000112857
0.000112763
0.000113181
0.00011184
0.000108681
0.000107323
0.000106152
0.000105219
0.000104286
0.000102503
9.78296e-05
9.14758e-05
8.78961e-05
8.7754e-05
9.26279e-05
9.35125e-05
9.87318e-05
0.000108513
0.000107777
0.000107254
0.000106601
0.000106064
0.000105366
0.00010524
0.000104405
0.000103798
0.000102556
0.000101064
9.88343e-05
9.96156e-05
9.86549e-05
9.88515e-05
9.84183e-05
9.54137e-05
9.41829e-05
9.27884e-05
9.27706e-05
0.00089326
0.00100974
0.000754944
0.000834884
0.000875831
0.000889316
0.000936903
0.000965523
0.00100055
0.00103619
0.00108222
0.00112121
0.00118056
0.00117247
0.00123411
0.00124708
0.00134904
0.00118111
0.00439693
0.0163265
0.000879686
0.000989472
0.000795591
0.000881653
0.00091583
0.000961617
0.000995225
0.00104196
0.00108262
0.00110611
0.00112764
0.0011473
0.00119568
0.00121579
0.00129313
0.00130387
0.00139861
0.00117156
0.00386511
0.0159276
0.000936576
0.00102391
0.000776619
0.00085501
0.000921378
0.000955204
0.000983921
0.00101452
0.00103012
0.00105835
0.00109717
0.0011393
0.00118805
0.00119673
0.00126332
0.00128148
0.0013924
0.0012295
0.00375024
0.015427
0.000952611
0.00104409
0.000831897
0.000968704
0.0010202
0.00101817
0.00103147
0.00105988
0.00108287
0.00110555
0.00112736
0.00116067
0.00121492
0.00125802
0.00133867
0.00136014
0.00145036
0.00133223
0.00457451
0.0147658
0.00102836
0.00108561
0.000887633
0.00096882
0.000951763
0.000951198
0.000972303
0.000998766
0.00100675
0.00104443
0.00109281
0.00115586
0.00121008
0.00124196
0.00131387
0.00134117
0.00147059
0.0013969
0.00433456
0.0141248
0.000994536
0.00105209
0.000875306
0.00091873
0.000937773
0.000978528
0.00100815
0.00101799
0.00104019
0.00109635
0.00113915
0.00119798
0.00124565
0.00130659
0.00136625
0.00140955
0.00152753
0.00144292
0.00389572
0.0132707
0.00101464
0.00100315
0.000819192
0.000864122
0.000881431
0.000899462
0.000909338
0.000953138
0.00102355
0.00110745
0.00115832
0.00121805
0.0012543
0.00128521
0.00132529
0.00139815
0.0014888
0.00146166
0.00299661
0.0120113
0.000877917
0.000860014
0.000759956
0.000822016
0.000883392
0.000931271
0.000991033
0.00109843
0.00117703
0.00119735
0.00119245
0.0012327
0.0012525
0.00130668
0.00135418
0.00141815
0.00144904
0.00149829
0.0023575
0.00936421
0.000927013
0.000978382
0.000892152
0.000965482
0.00101959
0.00104983
0.00109189
0.00111795
0.00109831
0.00109314
0.00113336
0.00121016
0.0012315
0.00127581
0.00130419
0.00139335
0.00145203
0.00149219
0.0019574
0.00753053
0.000955854
0.000960233
0.000872285
0.000926332
0.000951301
0.000971667
0.000998207
0.00102301
0.00104045
0.00111244
0.00119335
0.00122251
0.00121034
0.00127737
0.00134349
0.00143826
0.00140088
0.00146471
0.00172959
0.00591533
0.000954209
0.000978192
0.000921323
0.000981218
0.00100678
0.00103415
0.0010692
0.00109362
0.00112028
0.00117643
0.00114783
0.00115023
0.0011881
0.00131238
0.0013637
0.00138647
0.00139471
0.00148229
0.00160977
0.00507988
0.000961943
0.000962327
0.00089846
0.000937289
0.000945999
0.000970548
0.000986144
0.00100042
0.00105006
0.00108161
0.0011112
0.00124101
0.00133569
0.00141089
0.00133997
0.00138536
0.0014186
0.00157114
0.00167354
0.00448345
0.000933163
0.000949462
0.000921629
0.000965442
0.00100923
0.00104718
0.00107694
0.00112959
0.00117739
0.00119674
0.0012728
0.00128987
0.00125214
0.00122236
0.00120273
0.00136544
0.00143744
0.00155928
0.00158712
0.00407415
0.000923101
0.000947867
0.000910398
0.000965552
0.000995907
0.00101924
0.00104516
0.00108617
0.00109634
0.00113465
0.00116141
0.00115708
0.00122071
0.00130555
0.00145929
0.00157314
0.00161255
0.00160624
0.00157596
0.00390012
0.000938924
0.000976737
0.000950313
0.00100764
0.0010347
0.00106315
0.00109859
0.00112706
0.00116788
0.00120973
0.00125405
0.00131125
0.00140426
0.00145435
0.00148459
0.00150187
0.00132977
0.00120143
0.0014083
0.00346353
0.000914723
0.000934798
0.000919423
0.000974754
0.00100012
0.00103453
0.00106727
0.00110601
0.00114678
0.00118554
0.00123279
0.00127436
0.00133062
0.00133461
0.0013949
0.00134867
0.00146075
0.00160893
0.00183172
0.00263194
0.000943065
0.000980933
0.000962468
0.001019
0.00104577
0.00107776
0.00110494
0.00113959
0.00116598
0.00119601
0.00122058
0.00125327
0.00126026
0.00130033
0.00132723
0.00138776
0.00150225
0.00190444
0.00173206
0.00142495
0.000938102
0.000967277
0.000953036
0.00100955
0.00102532
0.00106922
0.00108306
0.00113882
0.0011487
0.00121609
0.00122802
0.00130636
0.00133174
0.00141225
0.00146366
0.00158895
0.00161178
0.00154566
0.00156486
0.00172868
0.000952757
0.000973553
0.000963427
0.00101561
0.00104525
0.00107676
0.0011056
0.00114976
0.00117502
0.00122483
0.00125049
0.00129408
0.0013179
0.0013579
0.00142459
0.00139393
0.00146794
0.00140828
0.00161596
0.00297275
0.000941888
0.000996665
0.000975829
0.00103474
0.00106172
0.00109452
0.00112833
0.00115497
0.00120285
0.00121789
0.001285
0.00131931
0.00136495
0.00138502
0.0013903
0.00141674
0.00158173
0.00158193
0.00158202
0.00362292
0.00030638
0.000277204
0.000271896
0.000243772
0.000247313
0.00027972
0.000271044
0.000201697
0.000285372
0.00025535
0.000115737
0.000233905
0.000888969
0.00277883
0.00644693
0.0101525
0.00928784
0.00475966
0.000596875
3.21831e-05
0.000320328
0.000261205
0.000304154
0.000306316
0.00024217
0.000211157
0.000259414
0.000275422
0.000223532
0.00026273
0.000261304
8.57303e-05
0.000251061
0.00120006
0.00381902
0.00796693
0.0106714
0.00756203
0.00281106
2.76708e-05
0.000346308
0.000280968
0.000260235
0.000285232
0.000305678
0.000258078
0.000239538
0.000212106
0.000266631
0.000229273
0.000272118
0.000264243
6.11439e-05
0.000386826
0.00182418
0.00554023
0.00992503
0.00978564
0.00535941
0.000385136
0.000374731
0.000320938
0.000322201
0.000295953
0.000285998
0.000262942
0.000313892
0.000283684
0.000242182
0.000250644
0.000257287
0.000275695
0.000238519
9.11667e-05
0.00073197
0.00353063
0.0080824
0.0108288
0.00792521
0.00172445
0.000391533
0.000326745
0.000295967
0.000304088
0.000344062
0.000272668
0.000267485
0.000277442
0.000315432
0.000271667
0.000259354
0.000305632
0.000262238
0.00015873
8.79449e-05
0.00164388
0.00616704
0.0108091
0.00907819
0.00295125
0.000434603
0.000395208
0.000368124
0.00030268
0.000338195
0.00032283
0.000353183
0.000313869
0.000291033
0.000315557
0.000308116
0.000328245
0.000356699
0.000279222
3.02705e-06
0.000486759
0.00407975
0.00979803
0.0104797
0.00367472
0.000450701
0.000414098
0.0003749
0.000335419
0.000391752
0.000330762
0.000341087
0.000371918
0.000390091
0.000349028
0.000334512
0.000346273
0.000411262
0.000413828
0.000260968
0.000162864
0.00209505
0.00856089
0.011118
0.00612323
0.000479665
0.000476231
0.000462229
0.000350664
0.000400929
0.000392958
0.000415055
0.000391456
0.000390729
0.000430275
0.000424631
0.000428328
0.000449092
0.000498808
0.00044804
0.000124972
0.00076412
0.00737004
0.0114229
0.00837424
0.000499809
0.000478145
0.000473358
0.000392682
0.000456836
0.000420333
0.000433964
0.000474947
0.000486524
0.000459007
0.000459412
0.000486109
0.00054444
0.000599464
0.000552299
0.000361342
0.000370601
0.00527274
0.0112919
0.0108245
0.000513928
0.000516411
0.000540773
0.000425241
0.000466329
0.000472305
0.000500818
0.000497973
0.000508812
0.000549347
0.000548424
0.00054526
0.000582571
0.000639422
0.000681939
0.000585791
0.000202019
0.00351218
0.0111379
0.0131058
0.000553168
0.000520477
0.000562504
0.000466114
0.000531261
0.000528714
0.000536193
0.000576918
0.000590229
0.000576522
0.000588748
0.000626329
0.000680469
0.000731313
0.000728862
0.000688496
0.000256229
0.00213162
0.010761
0.0145062
0.000538781
0.000520481
0.000611464
0.000511334
0.000539815
0.000560045
0.000596492
0.00060963
0.000623739
0.000657596
0.000669339
0.00066784
0.000711307
0.000789843
0.000814931
0.000818736
0.000410565
0.0013182
0.0103818
0.0152054
0.000595376