/*--------------------------------*- C++ -*----------------------------------*\
  =========                 |
  \\      /  F ield         | OpenFOAM: The Open Source CFD Toolbox
   \\    /   O peration     | Website:  https://openfoam.org
    \\  /    A nd           | Version:  9
     \\/     M anipulation  |
\*---------------------------------------------------------------------------*/
FoamFile
{
    format      ascii;
    class       volScalarField;
    location    "9";
    object      p;
}
// * * * * * * * * * * * * * * * * * * * * * * * * * * * * * * * * * * * * * //

dimensions      [0 2 -2 0 0 0 0];

internalField   nonuniform List<scalar> 
46400
(
-123.571
-112.145
-91.4753
-74.0396
-57.7417
-42.7388
-29.0838
-16.3276
-4.61873
6.31789
16.4823
25.9792
34.8823
43.311
51.314
58.9463
66.1466
73.7932
81.2233
84.5688
-82.4123
-71.8362
-52.6695
-36.1583
-21.0986
-7.13213
5.5114
17.2193
27.9235
37.8508
47.0041
55.5253
63.4348
70.7909
77.6969
84.1005
90.0579
96.035
101.526
103.739
-41.2384
-30.1525
-12.6333
2.21463
15.7289
28.2729
39.5682
50.1005
59.6931
68.5817
76.7716
84.3505
91.3732
97.8995
103.972
109.587
114.698
119.866
124.047
124.999
0.560364
10.02
25.6431
39.438
51.6616
63.1277
73.3581
82.788
91.3423
99.205
106.391
112.986
119.047
124.584
129.722
134.393
138.661
142.932
146.526
147.103
41.3311
49.7302
63.7394
76.0987
86.9882
97.1831
106.264
114.674
122.25
129.186
135.511
141.287
146.568
151.402
155.821
159.845
163.416
167.014
169.98
170.04
80.3256
86.9775
99.7744
111.356
121.236
130.462
138.541
145.894
152.491
158.462
163.848
168.711
173.125
177.096
180.738
183.998
186.949
189.937
192.375
192.25
116.949
123.639
135.589
146.022
154.812
162.931
170.022
176.443
182.141
187.258
191.859
195.978
199.678
202.983
205.93
208.518
210.767
213.041
214.831
214.205
153.024
160.321
170.712
180.093
187.678
194.626
200.618
205.934
210.639
214.792
218.477
221.735
224.649
227.225
229.558
231.605
233.385
235.194
236.595
235.843
189.041
196.874
205.357
213.239
219.626
225.361
230.338
234.69
238.496
241.808
244.73
247.246
249.439
251.291
252.885
254.223
255.33
256.457
257.407
256.296
223.559
231.763
238.298
244.642
249.84
254.361
258.287
261.618
264.517
266.948
269.045
270.815
272.346
273.644
274.756
275.649
276.333
277.06
277.639
276.475
257.56
264.797
270.089
274.825
278.884
282.259
285.179
287.602
289.649
291.314
292.674
293.708
294.488
295.029
295.402
295.602
295.646
295.725
295.678
294.203
288.73
294.07
298.281
301.804
304.848
307.316
309.39
310.998
312.313
313.28
314.016
314.515
314.828
314.949
314.903
314.687
314.316
313.968
313.489
311.754
317.336
321.67
325.061
327.632
329.796
331.336
332.601
333.428
333.982
334.218
334.222
334.007
333.625
333.1
332.463
331.716
330.858
330.046
329.146
327.256
341.974
345.507
348.121
349.976
351.515
352.504
353.158
353.454
353.497
353.295
352.884
352.288
351.514
350.602
349.558
348.412
347.149
345.927
344.628
342.438
365.303
368.083
369.994
371.172
371.972
372.236
372.241
371.852
371.243
370.382
369.37
368.206
366.928
365.549
364.083
362.553
360.944
359.379
357.756
355.506
385.246
387.386
388.862
389.465
389.859
389.696
389.307
388.562
387.62
386.43
385.071
383.541
381.892
380.134
378.291
376.363
374.356
372.363
370.332
367.736
403.536
405.072
405.947
406.04
405.857
405.106
404.171
402.905
401.481
399.864
398.116
396.255
394.287
392.257
390.159
388.032
385.836
383.68
381.528
378.875
419.549
420.405
420.736
420.381
419.762
418.779
417.531
416.008
414.309
412.404
410.384
408.221
405.988
403.664
401.292
398.872
396.41
393.969
391.57
388.73
433.479
433.512
433.378
432.55
431.498
430.046
428.388
426.513
424.47
422.298
419.998
417.62
415.162
412.661
410.116
407.552
404.951
402.382
399.878
396.995
443.739
443.879
443.482
442.665
441.406
439.855
438.057
435.99
433.781
431.4
428.927
426.353
423.717
421.029
418.307
415.568
412.803
410.071
407.444
404.431
-598.359
-595.821
-575.074
-552.205
-526.666
-501.92
-478.831
-457.134
-436.641
-417.224
-398.809
-381.343
-364.719
-348.892
-333.906
-319.522
-306.073
-293.121
-281.138
-269.645
-602.99
-599.793
-578.39
-551.78
-525.054
-499.648
-475.758
-453.46
-432.448
-412.67
-393.915
-376.144
-359.283
-343.258
-328.038
-313.489
-299.924
-286.873
-274.868
-263.277
-604.206
-598.538
-576.646
-548.665
-520.783
-494.686
-470.413
-447.62
-426.204
-406.018
-386.932
-368.905
-351.804
-335.585
-320.257
-305.644
-292.032
-278.905
-266.912
-255.223
-598.619
-593.713
-569.544
-541.144
-513.778
-487.527
-463.023
-440.051
-418.418
-398.095
-378.877
-360.705
-343.52
-327.257
-311.833
-297.174
-283.523
-270.355
-258.489
-246.663
-592.974
-587.955
-564.408
-533.775
-505.387
-478.546
-453.602
-430.257
-408.346
-387.78
-368.397
-350.155
-332.908
-316.589
-301.196
-286.609
-272.986
-259.883
-248.119
-236.349
-583.502
-578.121
-553.476
-522.35
-493.643
-466.726
-441.716
-418.41
-396.536
-376.052
-356.754
-338.545
-321.385
-305.198
-289.879
-275.395
-261.873
-248.923
-237.316
-225.572
-571.515
-565.246
-539.565
-508.274
-479.392
-452.396
-427.319
-403.978
-382.099
-361.625
-342.388
-324.328
-307.301
-291.228
-276.092
-261.808
-248.433
-235.663
-224.275
-212.652
-554.826
-547.725
-521.437
-490.392
-461.926
-435.318
-410.553
-387.549
-365.991
-345.834
-326.892
-309.049
-292.279
-276.485
-261.573
-247.532
-234.387
-221.871
-210.729
-199.154
-536.013
-527.984
-501.165
-470.345
-442.018
-415.718
-391.187
-368.437
-347.14
-327.238
-308.591
-291.108
-274.659
-259.164
-244.585
-230.86
-217.957
-205.741
-194.859
-183.516
-512.767
-504.045
-477.075
-446.961
-419.338
-393.685
-369.765
-347.586
-326.832
-307.438
-289.254
-272.152
-256.114
-241.018
-226.808
-213.46
-200.931
-189.077
-178.545
-167.33
-487.6
-478.202
-451.188
-421.476
-394.32
-369.275
-345.811
-324.124
-303.87
-284.956
-267.278
-250.714
-235.166
-220.547
-206.801
-193.887
-181.702
-170.275
-160.069
-149.165
-458.751
-448.923
-422.073
-393.368
-366.968
-342.802
-320.197
-299.232
-279.676
-261.405
-244.311
-228.273
-213.255
-199.132
-185.887
-173.454
-161.763
-150.796
-141.004
-130.338
-428.001
-417.863
-390.957
-363.431
-337.652
-314.224
-292.309
-272.038
-253.165
-235.558
-219.135
-203.751
-189.355
-175.839
-163.156
-151.256
-140.013
-129.574
-120.173
-109.867
-394.474
-384.22
-357.327
-331.244
-306.534
-284.004
-263.068
-243.63
-225.553
-208.676
-192.937
-178.204
-164.426
-151.492
-139.407
-128.065
-117.388
-107.478
-98.5319
-88.5299
-359.213
-348.85
-322.211
-297.228
-273.635
-252.066
-231.996
-213.432
-196.185
-180.103
-165.125
-151.099
-138.023
-125.755
-114.284
-103.533
-93.3844
-84.0569
-75.5216
-65.8912
-322.338
-311.835
-285.876
-262.02
-239.579
-219.026
-199.961
-182.267
-165.867
-150.562
-136.346
-123.055
-110.638
-99.0156
-88.1824
-78.0164
-68.4587
-59.6886
-51.6119
-42.2982
-283.876
-273.271
-248.382
-225.601
-204.321
-184.822
-166.752
-150.014
-134.514
-120.06
-106.617
-94.0463
-82.3576
-71.3999
-61.2004
-51.6453
-42.6711
-34.5177
-26.9118
-18.0693
-244.909
-234.234
-210.216
-188.597
-168.359
-149.9
-132.823
-116.989
-102.375
-88.7449
-76.1375
-64.3514
-53.3551
-43.1066
-33.5594
-24.6083
-16.2729
-8.76718
-1.72624
6.69332
-204.531
-193.485
-170.681
-150.526
-131.653
-114.327
-98.3793
-83.533
-69.8349
-57.0393
-45.142
-34.0324
-23.6925
-13.9994
-4.97173
3.5372
11.3816
18.3975
25.2877
33.9985
-164.352
-153.876
-132.084
-112.859
-94.9905
-78.6569
-63.6629
-49.7509
-36.9422
-24.9809
-13.8876
-3.45096
6.34703
15.5695
24.3486
32.7138
40.4759
47.9795
56.2485
64.9239
-214.327
-152.937
-98.0872
-63.5669
-30.8196
-8.54284
11.3873
26.7835
39.395
50.4698
58.6832
66.7379
72.1303
78.0894
81.6797
85.968
88.5847
90.8147
91.8134
92.3905
-208.125
-148.224
-93.631
-60.2279
-27.8877
-6.19115
13.3673
28.5018
40.8532
51.7594
59.7868
67.737
72.9965
78.8827
82.3065
86.5767
88.9714
91.3223
92.1753
92.7517
-200.437
-142.753
-89.0487
-56.8115
-24.9921
-3.79696
15.3645
30.2467
42.3188
53.0811
60.9283
68.7519
73.8693
79.6663
82.9498
87.2124
89.3758
91.8576
92.6087
93.1535
-192.694
-136.98
-84.1293
-52.976
-21.8024
-1.16594
17.5292
32.1547
43.9241
54.5083
62.1571
69.8602
74.8427
80.5398
83.6634
87.8856
89.8293
92.5086
93.0153
93.5613
-183.584
-130.512
-79.0479
-49.097
-18.6363
1.49831
19.7106
34.0842
45.5408
55.9683
63.4228
70.9844
75.8251
81.406
84.3957
88.5916
90.3567
93.1648
93.4372
94.0236
-174.143
-123.619
-73.5692
-44.7905
-15.1813
4.39764
22.0587
36.1725
47.292
57.5284
64.7761
72.2009
76.9066
82.3661
85.1891
89.3336
90.9211
93.7985
93.8646
94.485
-163.573
-116.141
-67.9408
-40.4502
-11.7408
7.32615
24.4237
38.2786
49.0591
59.1206
66.1652
73.4331
77.9933
83.3336
86.0019
90.0736
91.5316
94.4537
94.2964
94.9997
-152.543
-108.139
-61.8836
-35.6837
-8.02667
10.4829
26.9517
40.535
50.954
60.8075
67.6412
74.7551
79.1887
84.3794
86.8683
90.8427
92.1768
95.067
94.7421
95.5083
-140.485
-99.6703
-55.6827
-30.8841
-4.31609
13.6662
29.4982
42.8067
52.8694
62.5248
69.1514
76.0926
80.3974
85.436
87.7722
91.8589
92.8753
95.7101
95.224
96.0546
-127.775
-90.6411
-49.0554
-25.679
-0.354479
17.0644
32.201
45.2169
54.9048
64.3311
70.7453
77.5165
81.7134
86.554
88.7597
92.9246
93.6552
96.3968
95.7235
96.6405
-114.125
-81.2563
-42.2895
-20.4322
3.61327
20.4859
34.9248
47.6398
56.9642
66.1655
72.3706
78.9545
83.0466
87.6789
89.7662
93.9089
94.4235
97.0847
96.2386
97.2553
-99.6491
-71.2891
-35.136
-14.8146
7.80587
24.1011
37.794
50.186
59.1333
68.0823
74.0737
80.4745
84.4642
88.8719
90.9372
94.9468
95.1289
97.8127
96.7886
97.9162
-84.3243
-61.0433
-27.8456
-9.13273
12.0231
27.7428
40.6928
52.746
61.3314
70.0262
75.806
82.0081
85.9187
90.0924
92.0998
95.9487
95.9123
98.5456
97.3721
98.6134
-68.06
-50.2667
-20.2727
-3.13933
16.4342
31.551
43.7268
55.4163
63.6309
72.0489
77.6103
83.6173
87.4315
91.4137
93.3757
97.024
96.7876
99.299
97.9965
99.3495
-50.8364
-39.1629
-12.621
2.87053
20.8331
35.341
46.7632
58.0754
65.9448
74.0862
79.4329
85.2321
88.9481
92.7667
94.5984
98.0585
97.7005
100.085
98.6854
100.137
-32.4598
-27.2759
-4.6021
9.23544
25.4623
39.2948
49.9318
60.8302
68.345
76.1889
81.313
86.9085
90.5039
94.1864
95.744
99.1283
98.6855
100.856
99.3911
100.988
-13.9346
-15.255
3.59135
15.8368
30.3262
43.4385
53.2762
63.7058
70.8565
78.3769
83.2658
88.6343
92.0888
95.6395
97.0423
100.297
99.7112
101.657
100.084
101.83
5.27621
-3.65895
11.1488
22.0123
34.9388
47.4364
56.556
66.5563
73.3829
80.6089
85.2641
90.4155
93.712
97.1744
98.4359
101.492
100.748
102.649
100.831
102.798
30.2834
9.90608
18.3028
27.2578
38.6518
50.5533
59.1265
68.8072
75.4803
82.5017
86.9897
91.9669
95.1663
98.558
99.7121
102.576
101.743
103.248
101.299
103.564
56.1516
29.3661
30.0942
36.5597
45.3146
55.7811
63.306
72.211
78.3894
84.8959
89.1052
93.8503
96.9293
100.185
101.258
103.868
103.08
103.34
101.28
104.449
111.178
125.997
113.412
112.318
105.416
106.401
104.212
105.472
105.404
107.27
108.26
110.128
110.922
112.747
113.148
114.955
114.319
115.662
113.596
118.593
196.035
187.198
161.619
154.472
143.098
137.893
132.532
129.665
127.056
125.63
124.653
124.387
124.257
124.34
124.119
124.415
123.762
124.209
123.242
124.288
224.506
211.222
196.535
186.092
176.446
169.869
163.648
159.733
155.793
153.387
150.601
149.019
147.205
146.295
145.308
144.499
144.213
143.416
143.914
143.842
239.372
228.929
215.094
206.474
196.633
189.741
182.856
177.566
172.643
168.736
165.279
162.353
159.8
157.544
155.828
154.379
153.192
152.418
151.947
151.673
239.455
230.843
222.473
214.935
208.064
201.861
196.365
191.571
187.282
183.646
180.294
177.551
174.969
172.771
170.715
168.9
167.432
165.632
164.791
164.495
244.287
237.848
230.165
224.378
217.962
212.746
207.319
202.845
198.333
194.607
190.954
187.86
184.893
182.328
179.94
177.708
175.909
174.149
173.212
172.657
241.897
237.464
232.812
228.002
223.406
219.026
214.9
211.082
207.438
204.175
200.966
198.207
195.363
192.996
190.464
188.327
186.039
183.967
182.535
181.815
245.034
241.207
236.665
232.719
228.718
225.172
221.38
218.137
214.68
211.746
208.625
205.989
203.143
200.749
198.064
195.83
193.165
191.036
188.875
188.167
244.4
241.771
238.888
236.069
232.811
229.926
226.938
224.227
221.471
219
216.412
214.187
211.668
209.647
207.058
205.123
202.207
200.3
197.504
196.801
246.62
244.362
241.401
238.976
236.293
234.001
231.452
229.257
226.864
224.806
222.547
220.655
218.455
216.711
214.366
212.732
209.77
208.397
204.802
204.45
247.767
246.035
244.03
242.216
240.099
238.225
236.264
234.519
232.714
231.143
229.464
228.059
226.447
225.217
223.538
222.508
220.216
219.931
215.642
217.059
249.116
247.652
245.85
244.403
242.738
241.336
239.787
238.506
237.081
235.965
234.789
233.841
232.904
232.18
231.492
230.995
230.494
230.206
230.637
232.173
250.846
249.726
248.361
247.245
245.977
244.929
243.808
242.904
241.99
241.284
240.607
240.148
239.835
239.568
239.781
239.663
240.821
240.596
243.398
243.886
252.131
251.191
250.056
249.167
248.167
247.398
246.548
245.958
245.295
244.968
244.533
244.579
244.412
244.925
245.181
246.318
247.203
249.09
251.917
252.685
253.674
252.928
252.061
251.371
250.619
250.055
249.472
249.091
248.7
248.599
248.48
248.704
248.911
249.627
250.174
251.597
252.559
255.005
256.485
260.15
254.656
254.001
253.272
252.716
252.114
251.691
251.237
251.001
250.713
250.718
250.62
250.952
251.077
251.835
252.252
253.575
254.108
256.267
257.203
267.45
255.773
255.211
254.625
254.159
253.696
253.367
253.042
252.892
252.772
252.829
252.952
253.272
253.638
254.324
254.921
255.986
256.855
258.468
259.503
262.708
256.386
255.873
255.363
254.962
254.574
254.317
254.069
253.988
253.844
253.974
253.99
254.327
254.486
255.03
255.389
256.13
256.553
257.544
257.776
266.992
256.945
256.465
256.011
255.636
255.297
255.048
254.833
254.712
254.651
254.682
254.813
255.019
255.256
255.682
255.993
256.615
256.883
257.7
257.924
259.156
257.15
256.681
256.251
255.889
255.572
255.336
255.15
255.076
254.986
255.093
255.144
255.35
255.545
255.905
256.213
256.699
257.064
257.677
257.952
264.633
369.279
364.74
359.059
353.092
346.062
338.51
330.174
320.87
311.071
299.886
288.914
276.139
263.643
249.371
235.178
219.526
203.791
187.012
170.357
153.45
341.749
338.962
335.802
332.439
328.688
324.601
320.509
314.976
308.319
303.343
298.004
292.194
286.541
280.319
274.456
267.448
259.069
249.818
239.672
228.402
305.116
303.154
300.971
298.738
296.208
293.627
290.631
287.478
283.663
279.688
274.892
270.572
266.374
262.555
259.026
255.366
251.171
247.299
242.989
238.828
292.572
291.106
289.536
287.939
286.192
284.469
282.476
280.641
278.324
276.307
273.545
270.714
268.46
265.813
263.14
260.595
257.995
255.357
252.237
249.487
276.966
275.837
274.616
273.434
272.108
270.867
269.403
267.972
266.27
264.364
261.983
259.847
257.732
255.788
253.871
252.176
250.543
248.902
247.034
245.33
271.115
270.218
269.294
268.351
267.38
266.395
265.373
264.318
263.212
262.103
260.742
259.152
257.903
256.721
255.353
254.171
252.76
251.503
250.079
248.849
264.253
263.491
262.703
261.906
261.068
260.226
259.299
258.226
256.982
255.721
254.494
253.321
252.237
251.201
250.208
249.269
248.246
247.27
246.235
245.261
261.644
261.003
260.343
259.635
258.95
258.242
257.543
256.847
256.162
255.46
254.737
254.038
253.269
252.5
251.708
250.905
250.104
249.299
248.437
247.616
258.75
258.192
257.575
256.908
256.275
255.646
255.042
254.444
253.823
253.18
252.533
251.864
251.191
250.522
249.833
249.161
248.463
247.783
247.08
246.402
257.836
257.391
256.941
256.486
256.029
255.567
255.104
254.622
254.141
253.646
253.158
252.654
252.163
251.638
251.113
250.562
250.003
249.427
248.837
248.266
257.327
256.937
256.547
256.151
255.749
255.336
254.915
254.483
254.047
253.606
253.161
252.707
252.253
251.792
251.337
250.874
250.416
249.96
249.499
249.047
257.353
257.028
256.696
256.353
256.008
255.658
255.303
254.944
254.58
254.21
253.838
253.458
253.076
252.683
252.29
251.887
251.487
251.074
250.666
250.248
257.692
257.4
257.105
256.807
256.507
256.204
255.899
255.591
255.282
254.968
254.656
254.338
254.023
253.701
253.383
253.057
252.735
252.403
252.078
251.741
258.06
257.801
257.541
257.278
257.014
256.748
256.48
256.211
255.94
255.667
255.394
255.118
254.843
254.565
254.289
254.008
253.731
253.448
253.171
252.884
258.698
258.467
258.235
258.002
257.769
257.536
257.303
257.069
256.836
256.602
256.368
256.134
255.901
255.667
255.435
255.201
254.97
254.736
254.507
254.276
259.103
258.891
258.679
258.468
258.256
258.046
257.835
257.625
257.416
257.207
256.999
256.792
256.586
256.381
256.177
255.973
255.771
255.57
255.371
255.171
259.676
259.481
259.288
259.095
258.903
258.713
258.524
258.336
258.149
257.964
257.781
257.599
257.418
257.239
257.062
256.887
256.713
256.541
256.372
256.203
259.964
259.779
259.597
259.415
259.235
259.057
258.88
258.705
258.532
258.361
258.192
258.025
257.859
257.697
257.536
257.377
257.221
257.067
256.915
256.767
260.285
260.109
259.935
259.763
259.592
259.423
259.256
259.092
258.929
258.768
258.61
258.453
258.299
258.148
257.998
257.852
257.707
257.566
257.426
257.29
260.386
260.214
260.044
259.876
259.71
259.545
259.383
259.223
259.065
258.909
258.755
258.604
258.454
258.307
258.163
258.021
257.882
257.745
257.61
257.479
316.833
316.579
314.315
312.32
310.515
308.553
306.463
304.209
301.722
298.947
295.847
292.357
288.481
284.05
279.188
273.555
267.49
260.341
252.109
246.701
326.695
327.238
326.17
325.01
323.796
322.38
320.76
318.924
316.826
314.454
311.771
308.729
305.317
301.395
297.064
292.068
286.65
280.181
273.153
268.424
337.325
338.247
337.463
336.667
335.834
334.809
333.612
332.23
330.626
328.767
326.62
324.145
321.317
318.014
314.307
309.912
305.069
299.181
292.731
289.384
347.759
349.02
348.714
348.455
348.136
347.627
346.909
346.015
344.878
343.517
341.873
339.93
337.626
334.88
331.721
327.915
323.618
318.275
311.986
308.685
358.298
359.674
359.588
359.585
359.549
359.353
359.018
358.538
357.877
357.03
355.94
354.6
352.931
350.89
348.448
345.391
341.896
337.331
332.016
327.897
367.471
369.103
369.504
369.966
370.409
370.729
370.919
370.99
370.868
370.59
370.078
369.336
368.259
366.859
365.049
362.769
360.045
356.41
352.392
347.733
377.163
378.879
379.507
380.254
380.977
381.587
382.101
382.541
382.848
383.019
382.978
382.752
382.24
381.487
380.363
378.881
376.949
374.352
371.497
367.232
384.72
386.609
387.714
388.881
390.079
391.22
392.282
393.277
394.132
394.849
395.354
395.677
395.729
395.557
395.035
394.251
392.993
391.362
389.207
386.084
392.548
394.862
396.373
397.909
399.433
400.86
402.175
403.393
404.466
405.439
406.243
406.925
407.374
407.667
407.644
407.402
406.703
405.717
404.149
401.913
399.414
401.745
403.432
405.174
406.944
408.666
410.338
411.965
413.504
414.977
416.304
417.514
418.494
419.318
419.838
420.128
419.973
419.524
418.475
416.712
405.098
407.709
409.786
411.887
413.986
416.008
417.964
419.837
421.617
423.292
424.818
426.247
427.482
428.605
429.38
430.005
430.142
430.144
429.448
428.281
410.418
413.131
415.272
417.508
419.758
421.982
424.166
426.332
428.437
430.498
432.466
434.349
436.08
437.648
438.927
440.027
440.73
441.24
441.03
440.309
414.389
417.221
419.621
422.108
424.617
427.091
429.529
431.921
434.238
436.469
438.574
440.532
442.317
443.942
445.354
446.608
447.466
448.159
448.103
447.985
417.307
420.257
422.766
425.387
428.02
430.64
433.222
435.798
438.311
440.792
443.178
445.516
447.699
449.824
451.702
453.453
454.749
455.752
456.217
456.346
419.329
422.39
425.029
427.798
430.591
433.368
436.125
438.855
441.539
444.148
446.681
449.069
451.329
453.333
455.113
456.52
457.57
458.414
458.725
458.465
419.912
422.929
425.612
428.428
431.273
434.106
436.931
439.742
442.518
445.256
447.92
450.511
452.98
455.309
457.479
459.389
461.213
462.579
463.807
464.852
419.467
422.603
425.38
428.298
431.227
434.16
437.061
439.961
442.798
445.602
448.304
450.931
453.399
455.758
457.892
459.921
461.642
463.173
464.02
464.903
417.364
420.453
423.223
426.133
429.05
431.972
434.864
437.764
440.598
443.422
446.134
448.816
451.329
453.777
455.984
458.014
459.659
461.037
461.915
462.245
414.682
417.759
420.512
423.394
426.31
429.207
432.102
434.969
437.805
440.578
443.281
445.888
448.36
450.703
452.833
454.788
456.471
457.873
458.937
459.613
409.816
412.867
415.558
418.38
421.215
424.055
426.853
429.659
432.39
435.094
437.694
440.201
442.584
444.761
446.81
448.523
450.073
451.118
451.921
451.966
154.602
153.133
151.614
150.01
148.425
146.838
145.192
143.5
141.967
140.118
138.487
137.181
135.515
133.794
132.401
130.666
130.16
129.673
129.586
129.605
159.007
157.341
155.719
154.035
152.292
150.52
148.782
146.953
145.108
143.284
141.33
139.377
137.773
135.762
133.703
132.258
131.687
129.782
130.049
129.994
163.099
161.355
159.647
157.891
156.048
154.098
152.206
150.174
148.221
146.091
144.036
141.855
139.603
137.739
135.673
134.068
131.712
131.369
131.652
131.679
167.588
165.673
163.833
161.861
159.884
157.748
155.66
153.427
151.184
148.901
146.54
144.131
141.705
139.204
137.092
134.606
132.901
132.929
131.55
131.958
171.863
169.836
167.893
165.799
163.661
161.332
159.043
156.563
154.095
151.47
148.834
146.153
143.305
140.522
137.832
135.34
133.303
131.869
131.244
130.932
176.565
174.418
172.343
170.004
167.728
165.161
162.622
159.904
157.085
154.171
151.119
147.972
144.689
141.367
137.847
134.698
131.631
128.642
128.494
127.641
181.39
179.101
176.932
174.422
171.95
169.196
166.396
163.375
160.239
156.897
153.404
149.721
145.855
141.772
137.586
133.147
128.505
124.445
122.808
121.696
186.721
184.31
182.054
179.335
176.723
173.748
170.697
167.426
163.934
160.231
156.267
152.051
147.519
142.698
137.461
131.801
125.691
120.183
115.641
114.431
192.52
189.949
187.633
184.795
182.005
178.899
175.629
172.104
168.34
164.285
159.936
155.246
150.195
144.754
138.728
132.313
125.114
118.275
110.489
108.861
198.776
196.134
193.836
190.882
188.022
184.791
181.356
177.658
173.651
169.319
164.637
159.568
154.059
148.076
141.505
134.297
126.398
118.326
110.136
108.219
206.001
203.236
200.921
197.938
194.941
191.66
188.102
184.258
180.089
175.558
170.641
165.286
159.448
153.125
146.109
138.444
130.037
121.183
112.021
109.99
213.633
210.825
208.553
205.643
202.648
199.36
195.763
191.862
187.605
182.938
177.871
172.314
166.237
159.604
152.189
144.124
135.202
125.183
116.012
113.867
222.445
219.571
217.338
214.483
211.465
208.212
204.62
200.711
196.427
191.737
186.61
180.972
174.802
168.057
160.475
152.324
142.938
132.89
122.632
119.425
231.726
228.802
226.699
224.02
221.095
217.957
214.454
210.61
206.404
201.745
196.663
191.034
184.873
178.062
170.419
162.171
152.646
142.789
132.688
129.029
241.851
238.957
237.002
234.52
231.699
228.708
225.348
221.652
217.566
213.057
208.096
202.593
196.562
189.886
182.407
174.292
164.95
154.882
144.044
139.973
252.608
249.634
247.894
245.788
243.139
240.364
237.225
233.708
229.837
225.514
220.766
215.46
209.652
203.149
195.894
188.048
178.848
169.382
158.55
154.1
263.757
260.954
259.54
257.803
255.411
252.862
249.96
246.703
243.061
239.002
234.499
229.469
223.946
217.741
210.88
203.279
194.485
185.503
174.043
169.267
275.08
272.667
271.68
270.308
268.264
265.983
263.387
260.401
257.059
253.299
249.128
244.436
239.281
233.442
227.006
219.831
211.68
203.292
192.058
186.857
288.596
286.123
285.149
284.018
282.199
280.099
277.71
274.977
271.886
268.41
264.527
260.167
255.361
249.911
243.933
237.13
229.596
221.416
210.801
205.687
307.298
304.905
302.189
300.239
298.055
295.639
293.097
290.342
287.342
284.052
280.443
276.423
272.012
267.001
261.518
255.269
248.432
240.74
231.125
225.915
213.999
214.053
213.99
213.169
213.387
211.645
211.604
209.938
209.221
207.568
205.897
204.067
200.999
198.766
193.768
191.137
183.449
179.545
167.909
161.97
214.349
214.39
214.459
213.671
214.059
212.362
212.474
210.916
210.325
208.805
207.29
205.654
202.81
200.877
196.17
193.731
186.38
183.373
171.835
166.616
214.739
214.79
214.996
214.183
214.741
213.092
213.377
211.93
211.467
210.091
208.721
207.254
204.589
202.888
198.517
196.552
189.623
187.092
175.656
171.531
215.076
215.099
215.516
214.653
215.418
213.791
214.257
212.907
212.575
211.338
210.121
208.864
206.415
204.995
200.89
199.151
192.487
190.986
179.469
176.238
215.452
215.495
216.072
215.101
216.102
214.518
215.159
213.927
213.717
212.622
211.539
210.458
208.169
206.985
203.223
201.886
195.656
194.574
183.385
181.112
215.783
215.78
216.605
215.547
216.777
215.235
216.028
214.925
214.827
213.878
212.943
212.078
209.988
209.091
205.577
204.512
198.59
198.362
187.337
186.041
216.147
216.147
217.21
215.996
217.463
215.974
216.929
215.957
215.969
215.162
214.354
213.668
211.723
211.058
207.881
207.128
201.689
201.992
191.355
191.163
216.473
216.439
217.701
216.422
218.145
216.705
217.804
216.97
217.083
216.426
215.757
215.288
213.527
213.149
210.241
209.723
204.721
205.715
195.507
196.531
216.83
216.728
218.183
216.817
218.83
217.462
218.71
218.013
218.227
217.705
217.157
216.876
215.24
215.105
212.517
212.273
207.89
209.361
199.628
202.185
217.147
217.062
218.713
217.191
219.514
218.216
219.597
219.043
219.348
218.978
218.558
218.493
217.015
217.18
214.852
214.836
210.975
213.046
204.055
208.171
217.488
217.396
219.24
217.554
220.196
219.001
220.513
220.099
220.494
220.256
219.952
220.073
218.703
219.137
217.084
217.392
214.23
216.738
208.506
214.386
217.812
217.719
219.75
217.906
220.878
219.792
221.414
221.145
221.622
221.531
221.345
221.678
220.438
221.189
219.374
219.992
217.309
220.446
213.289
221.174
218.134
218.042
220.263
218.245
221.521
220.621
222.344
222.214
222.769
222.814
222.739
223.25
222.099
223.168
221.528
222.652
220.599
224.175
218.135
228.229
218.449
218.347
220.758
218.578
222.219
221.471
223.269
223.279
223.906
224.091
224.135
224.843
223.788
225.226
223.731
225.37
223.657
227.908
223.223
236.044
218.772
218.635
221.256
218.942
223.09
222.352
224.209
224.353
225.043
225.36
225.493
226.374
225.389
227.199
225.801
228.194
226.768
231.63
228.487
244.238
219.043
218.881
221.664
219.308
223.719
223.233
225.145
225.424
226.174
226.62
226.852
227.913
227.008
229.229
227.916
231.132
229.939
236.024
233.922
253.376
219.317
219.079
222.148
219.643
224.603
224.236
226.16
226.558
227.378
227.969
228.519
229.583
228.706
231.307
230.089
234.409
232.833
240.453
239.429
262.723
219.976
219.314
222.983
219.942
225.776
225.177
227.096
227.634
228.472
229.216
229.748
231.04
230.169
233.197
232.105
237.625
235.065
244.785
244.723
271.283
219.849
219.109
223.053
220.164
226.145
225.814
227.727
228.439
229.203
230.215
230.518
231.931
231.075
234.691
233.512
240.973
237.404
251.206
251.602
283.405
220.687
218.069
223.185
221.292
227.402
227.303
229.312
229.974
231.062
232.047
232.965
234.16
234.24
237.916
237.807
245.23
244.89
259.338
264.523
298.447
242.834
222.728
238.033
236.304
240.977
240.028
243.83
243.71
248.22
248.321
254.425
255.402
263.939
264.784
274.972
272.317
290.164
287.471
313.556
312.669
240.319
238.162
240.676
240.725
243.705
244.407
247.294
248.826
252.241
254.452
259.042
261.681
268.783
271.985
281.461
285.388
297.509
303.253
320.147
326.242
247.962
247.78
248.332
249.991
250.949
253.091
255.164
257.372
259.917
262.527
265.83
269.329
273.491
277.468
282.475
287.315
293.618
300.376
307.882
316.945
249.756
249.989
250.558
252.031
253.289
255.097
257.004
259.223
261.782
264.584
267.832
271.042
274.837
278.873
283.337
288.03
292.761
297.902
301.703
306.832
250.904
250.928
251.791
253.429
255.084
257.079
258.977
261.074
263.189
265.447
267.758
270.274
272.78
275.588
278.087
281.288
283.714
287.469
289.311
293.611
251.232
251.386
252.596
254.244
255.909
257.932
259.81
261.823
263.884
265.994
268.159
270.408
272.565
274.957
276.981
279.459
281.001
283.258
283.186
285.058
250.504
251.046
252.309
254.313
256.228
258.023
259.891
261.482
263.245
264.724
266.365
267.756
269.254
270.515
271.808
273.279
274.154
275.635
275.81
276.946
250.076
251.838
252.855
255.317
257.113
258.968
260.715
262.232
263.826
265.172
266.553
267.808
268.892
270.091
270.877
271.737
272.121
272.588
271.928
272.144
251.146
251.79
254.643
255.794
258.362
259.459
261.311
262.233
263.627
264.404
265.432
266.074
266.749
267.259
267.917
268.171
268.28
268.468
268.134
267.949
254.478
254.803
257.435
258.555
260.624
261.669
263.018
263.807
264.789
265.345
266.058
266.417
266.824
267.028
267.219
267.327
267.275
267.108
266.468
265.992
258.51
257.774
261.866
262.126
263.833
264.284
265.232
265.51
266.1
266.258
266.591
266.602
266.78
266.589
266.471
266.15
265.689
265.13
264.659
263.994
269.946
267.899
268.127
267.506
268.087
267.86
268.047
267.815
267.908
267.637
267.615
267.291
267.174
266.772
266.557
266.153
265.759
265.099
264.326
263.478
278.914
277.014
274.667
274.209
272.768
272.263
271.425
270.845
270.254
269.674
269.242
268.66
268.244
267.624
267.083
266.355
265.725
264.973
264.189
263.342
283.268
282.486
279.137
277.635
276.042
274.63
273.693
272.55
271.869
270.843
270.242
269.33
268.728
267.86
267.203
266.38
265.67
264.827
264.058
263.208
288.285
285.311
283.018
280.271
278.904
276.766
275.764
274.126
273.305
272.026
271.268
270.204
269.478
268.546
267.807
266.903
266.137
265.268
264.463
263.571
293.959
283.658
282.842
280.361
279.385
277.501
276.524
274.971
274.074
272.765
271.924
270.795
269.968
268.963
268.142
267.222
266.395
265.488
264.657
263.775
286.388
283.591
282.847
280.234
279.5
277.691
276.869
275.367
274.5
273.23
272.353
271.243
270.376
269.371
268.517
267.578
266.738
265.847
265.009
264.148
285.298
282.837
282.189
280.296
279.377
277.861
276.963
275.601
274.712
273.494
272.606
271.508
270.624
269.618
268.743
267.803
266.941
266.049
265.201
264.35
282.606
281.454
280.588
279.436
278.799
277.483
276.724
275.513
274.666
273.558
272.667
271.643
270.743
269.782
268.894
267.981
267.112
266.242
265.395
264.565
285.738
280.158
279.98
279.009
278.35
277.36
276.517
275.512
274.604
273.606
272.683
271.71
270.794
269.855
268.958
268.054
267.18
266.313
265.466
264.637
336.534
343.571
349.99
355.365
360.751
365.282
370.069
373.818
377.061
379.815
381.946
383.344
384.466
384.53
384.483
383.31
381.961
379.722
376.878
373.562
339.743
342.033
345.937
348.573
349.94
351.071
352.163
352.861
353.58
353.791
354.144
354.033
353.765
353.25
352.465
351.412
350.059
348.425
346.501
344.279
321.404
321.139
321.719
321.62
321.742
321.328
321.244
320.687
320.352
319.615
318.996