/*--------------------------------*- C++ -*----------------------------------*\
  =========                 |
  \\      /  F ield         | OpenFOAM: The Open Source CFD Toolbox
   \\    /   O peration     | Website:  https://openfoam.org
    \\  /    A nd           | Version:  9
     \\/     M anipulation  |
\*---------------------------------------------------------------------------*/
FoamFile
{
    format      ascii;
    class       surfaceScalarField;
    location    "9";
    object      phi;
}
// * * * * * * * * * * * * * * * * * * * * * * * * * * * * * * * * * * * * * //

dimensions      [0 3 -1 0 0 0 0];

internalField   nonuniform List<scalar> 
92080
(
-0.00444744
-0.566724
0.571172
-0.0322806
-1.14139
1.16922
-0.0796972
-1.26594
1.31336
-0.127659
-1.24628
1.29424
-0.173882
-1.22512
1.27134
-0.219346
-1.20432
1.24978
-0.263566
-1.18516
1.22938
-0.30689
-1.16648
1.2098
-0.349761
-1.14965
1.19252
-0.392101
-1.13318
1.17552
-0.434411
-1.11798
1.1603
-0.475279
-1.10381
1.14468
-0.515457
-1.09024
1.13041
-0.555517
-1.07706
1.11712
-0.594385
-1.06444
1.10331
-0.632401
-1.05215
1.09017
-0.669386
-1.03988
1.07686
-0.706062
-1.02679
1.06347
-0.742482
-1.01381
1.05023
-1.00618
1.03788
-0.774185
-0.00656148
-0.560163
-0.0357564
-1.11219
-0.0814891
-1.22021
-0.128662
-1.19911
-0.175383
-1.1784
-0.221634
-1.15807
-0.267773
-1.13902
-0.313663
-1.12059
-0.358744
-1.10457
-0.402785
-1.08914
-0.44579
-1.07498
-0.489025
-1.06058
-0.531068
-1.04819
-0.57194
-1.03619
-0.61261
-1.02377
-0.652096
-1.01267
-0.689799
-1.00218
-0.7248
-0.99179
-0.757006
-0.981605
-0.973274
-0.789912
-0.0070578
-0.553105
-0.0391593
-1.08009
-0.0895693
-1.1698
-0.139889
-1.14879
-0.188774
-1.12952
-0.236737
-1.1101
-0.283089
-1.09267
-0.328745
-1.07493
-0.374344
-1.05897
-0.419851
-1.04363
-0.464505
-1.03033
-0.507817
-1.01727
-0.551726
-1.00428
-0.59421
-0.993701
-0.635484
-0.982498
-0.677146
-0.971003
-0.71847
-0.960853
-0.759771
-0.950489
-0.800314
-0.941062
-0.93446
-0.839129
-0.00915486
-0.54395
-0.0431159
-1.04613
-0.0927627
-1.12015
-0.142888
-1.09866
-0.192236
-1.08017
-0.241139
-1.0612
-0.290011
-1.0438
-0.338011
-1.02693
-0.384823
-1.01216
-0.431086
-0.997369
-0.477532
-0.983881
-0.522941
-0.971858
-0.56734
-0.959884
-0.612406
-0.948635
-0.655465
-0.939439
-0.697235
-0.929234
-0.738193
-0.919895
-0.777415
-0.911267
-0.817161
-0.901316
-0.893212
-0.858409
-0.00999524
-0.533955
-0.0484327
-1.00769
-0.100858
-1.06773
-0.15277
-1.04675
-0.203662
-1.02928
-0.253513
-1.01135
-0.30201
-0.995302
-0.350644
-0.978296
-0.399167
-0.963633
-0.446497
-0.950039
-0.493399
-0.936979
-0.540288
-0.924969
-0.586245
-0.913928
-0.631845
-0.903035
-0.678532
-0.892752
-0.724138
-0.883627
-0.770644
-0.873389
-0.816218
-0.865694
-0.858953
-0.85858
-0.850504
-0.901662
-0.0100349
-0.52392
-0.052114
-0.965615
-0.104203
-1.01564
-0.15666
-0.994295
-0.208293
-0.977644
-0.259519
-0.960123
-0.309943
-0.944877
-0.358848
-0.92939
-0.407845
-0.914637
-0.456856
-0.901029
-0.505406
-0.888429
-0.553421
-0.876954
-0.601473
-0.865875
-0.647764
-0.856744
-0.693007
-0.847509
-0.737248
-0.839385
-0.780053
-0.830584
-0.825306
-0.820441
-0.870445
-0.813441
-0.806269
-0.914679
-0.00733653
-0.516583
-0.0532463
-0.919705
-0.107961
-0.960925
-0.162135
-0.940122
-0.215662
-0.924116
-0.268267
-0.907518
-0.320273
-0.892872
-0.371667
-0.877996
-0.421725
-0.864578
-0.47079
-0.851964
-0.519876
-0.839343
-0.568273
-0.828557
-0.616936
-0.817212
-0.667016
-0.806663
-0.717198
-0.797328
-0.767505
-0.789078
-0.815301
-0.782789
-0.860674
-0.775067
-0.906978
-0.767138
-0.760627
-0.95262
-0.0040737
-0.51251
-0.0510565
-0.872723
-0.108738
-0.903244
-0.165661
-0.883199
-0.221021
-0.868756
-0.275137
-0.853402
-0.327761
-0.840248
-0.379069
-0.826687
-0.430762
-0.812885
-0.48131
-0.801416
-0.531495
-0.789158
-0.581335
-0.778718
-0.62925
-0.769297
-0.675661
-0.760252
-0.722205
-0.750784
-0.770029
-0.741254
-0.819547
-0.733271
-0.867748
-0.726866
-0.914986
-0.7199
-0.712773
-0.96284
-0.00235171
-0.510158
-0.0520601
-0.823014
-0.110701
-0.844603
-0.167799
-0.8261
-0.224857
-0.811698
-0.281117
-0.797142
-0.336965
-0.784401
-0.390637
-0.773015
-0.443079
-0.760443
-0.494845
-0.74965
-0.545269
-0.738734
-0.596402
-0.727585
-0.648561
-0.717138
-0.700569
-0.708244
-0.750305
-0.701048
-0.798587
-0.692972
-0.847131
-0.684727
-0.896291
-0.677706
-0.944394
-0.671797
-0.665176
-0.991991
-0.000992153
-0.509166
-0.0533863
-0.77062
-0.115942
-0.782047
-0.175491
-0.766552
-0.232393
-0.754796
-0.28783
-0.741704
-0.343292
-0.72894
-0.398076
-0.71823
-0.451587
-0.706933
-0.504742
-0.696494
-0.555994
-0.687482
-0.604993
-0.678586
-0.652976
-0.669155
-0.702225
-0.658995
-0.752712
-0.650562
-0.802215
-0.643469
-0.850954
-0.635987
-0.900076
-0.628585
-0.949272
-0.6226
-0.616651
-0.997797
-0.00504974
-0.504116
-0.0595775
-0.716092
-0.119677
-0.721947
-0.178166
-0.708064
-0.237357
-0.695605
-0.293966
-0.685095
-0.349173
-0.673732
-0.404154
-0.663249
-0.458032
-0.653055
-0.512206
-0.64232
-0.567191
-0.632497
-0.621807
-0.62397
-0.674163
-0.6168
-0.724231
-0.608927
-0.773819
-0.600974
-0.823463
-0.593825
-0.872165
-0.587285
-0.920134
-0.580615
-0.968148
-0.574586
-0.569037
-1.01576
-0.0117072
-0.492409
-0.0673305
-0.660469
-0.130172
-0.659105
-0.18874
-0.649496
-0.245694
-0.638651
-0.302913
-0.627876
-0.358166
-0.618478
-0.412717
-0.608698
-0.4653
-0.600473
-0.515813
-0.591807
-0.565242
-0.583068
-0.615594
-0.573618
-0.666938
-0.565455
-0.718068
-0.557798
-0.768624
-0.550417
-0.818713
-0.543736
-0.868515
-0.537483
-0.918129
-0.531002
-0.967104
-0.525612
-0.520263
-1.01588
-0.0216457
-0.470763
-0.0798716
-0.602243
-0.140156
-0.598821
-0.199666
-0.589986
-0.257012
-0.581305
-0.313323
-0.571565
-0.3691
-0.562701
-0.424472
-0.553326
-0.480533
-0.544412
-0.536043
-0.536297
-0.590006
-0.529105
-0.641537
-0.522088
-0.692006
-0.514985
-0.741677
-0.508127
-0.791043
-0.501051
-0.840526
-0.494253
-0.888921
-0.489088
-0.936882
-0.48304
-0.985276
-0.477217
-0.472434
-1.03311
-0.0272723
-0.443491
-0.0842134
-0.545302
-0.143215
-0.539819
-0.202393
-0.530809
-0.261466
-0.522232
-0.317994
-0.515038
-0.373541
-0.507153
-0.426926
-0.499941
-0.479482
-0.491856
-0.531914
-0.483865
-0.585097
-0.475922
-0.638496
-0.468688
-0.691338
-0.462144
-0.743222
-0.456243
-0.793939
-0.450334
-0.84478
-0.443411
-0.896148
-0.43772
-0.946027
-0.433161
-0.995276
-0.427969
-0.423114
-1.0446
-0.0350473
-0.408444
-0.0957714
-0.484578
-0.157673
-0.477918
-0.21429
-0.474192
-0.271926
-0.464596
-0.330015
-0.456948
-0.387587
-0.449581
-0.444606
-0.442923
-0.499391
-0.437071
-0.552543
-0.430713
-0.603934
-0.424531
-0.654708
-0.417915
-0.705511
-0.411341
-0.756293
-0.405461
-0.80559
-0.401037
-0.853523
-0.395479
-0.901664
-0.389578
-0.950314
-0.384511
-0.998277
-0.380007
-0.375666
-1.04572
-0.0387909
-0.369653
-0.0951922
-0.428177
-0.153435
-0.419674
-0.214128
-0.413499
-0.271874
-0.406849
-0.328178
-0.400644
-0.384184
-0.393576
-0.440043
-0.387064
-0.49614
-0.380973
-0.551674
-0.37518
-0.606302
-0.369902
-0.659387
-0.36483
-0.710983
-0.359745
-0.763093
-0.353351
-0.8154
-0.34873
-0.866252
-0.344627
-0.915885
-0.339945
-0.965114
-0.335282
-1.0144
-0.330723
-0.326266
-1.0638
-0.0427666
-0.326886
-0.101614
-0.369329
-0.162563
-0.358725
-0.223856
-0.352207
-0.283579
-0.347125
-0.341874
-0.34235
-0.398167
-0.337283
-0.453117
-0.332113
-0.506872
-0.327219
-0.559901
-0.322151
-0.612993
-0.316809
-0.666217
-0.311606
-0.718276
-0.307686
-0.768548
-0.303079
-0.819517
-0.29776
-0.870489
-0.293655
-0.920823
-0.289611
-0.970509
-0.285596
-1.01932
-0.281913
-0.277817
-1.06777
-0.0460734
-0.280813
-0.109495
-0.305907
-0.167418
-0.300803
-0.222734
-0.296892
-0.280873
-0.288985
-0.336839
-0.286383
-0.392943
-0.281179
-0.448691
-0.276366
-0.504175
-0.271735
-0.558991
-0.267336
-0.611913
-0.263886
-0.66491
-0.25861
-0.717955
-0.254641
-0.770227
-0.250807
-0.821045
-0.246942
-0.871959
-0.242741
-0.922458
-0.239113
-0.972742
-0.235312
-1.02279
-0.231866
-0.228415
-1.07219
-0.0464937
-0.234319
-0.112393
-0.240008
-0.174826
-0.23837
-0.234831
-0.236886
-0.292648
-0.231169
-0.349689
-0.229343
-0.406204
-0.224664
-0.460785
-0.221785
-0.515077
-0.217443
-0.568932
-0.213481
-0.622651
-0.210167
-0.674317
-0.206944
-0.725705
-0.203252
-0.776933
-0.199579
-0.827439
-0.196436
-0.877521
-0.192659
-0.927132
-0.189502
-0.976456
-0.185987
-1.02541
-0.18291
-0.179571
-1.07426
-0.0518438
-0.182475
-0.107165
-0.184686
-0.166954
-0.178581
-0.2261
-0.17774
-0.284558
-0.172711
-0.343523
-0.170378
-0.400069
-0.168117
-0.456229
-0.165626
-0.510634
-0.163038
-0.5641
-0.160014
-0.617786
-0.156482
-0.670807
-0.153923
-0.723099
-0.15096
-0.774638
-0.14804
-0.825667
-0.145407
-0.876008
-0.142318
-0.925716
-0.139794
-0.97505
-0.136653
-1.02376
-0.134203
-1.07228
-0.131045
0.0505837
-0.282149
0.231566
0.123397
-0.92888
0.856066
0.183992
-1.49378
1.43319
0.205293
-1.70712
1.68582
0.21096
-1.7205
1.71483
0.211276
-1.70304
1.70272
0.211179
-1.67851
1.67861
0.210654
-1.65733
1.65786
0.209284
-1.63722
1.63859
0.207246
-1.61919
1.62122
0.204557
-1.60199
1.60467
0.201291
-1.58543
1.58869
0.197885
-1.56963
1.57304
0.194326
-1.55368
1.55724
0.19
-1.53737
1.54169
0.18467
-1.51855
1.52388
0.178939
-1.49785
1.50358
0.173362
-1.47495
1.48053
0.168184
-1.45587
1.46104
-1.43758
0.164154
1.44161
0.0414423
-0.323592
0.102023
-0.98946
0.152334
-1.54409
0.165564
-1.72035
0.167349
-1.72228
0.165131
-1.70082
0.163017
-1.6764
0.160344
-1.65466
0.157426
-1.6343
0.154187
-1.61595
0.150692
-1.59849
0.146947
-1.58168
0.142541
-1.56522
0.137508
-1.54864
0.132336
-1.53219
0.127238
-1.51345
0.121703
-1.49231
0.116056
-1.46931
0.110526
-1.45034
-1.43198
0.104924
0.0424923
-0.366084
0.099624
-1.04659
0.139319
-1.58379
0.146666
-1.7277
0.144778
-1.7204
0.139694
-1.69574
0.134979
-1.67168
0.13006
-1.64974
0.124639
-1.62888
0.118684
-1.60999
0.112191
-1.592
0.10516
-1.57465
0.0981389
-1.5582
0.0910791
-1.54158
0.0836573
-1.52477
0.0759242
-1.50572
0.0679734
-1.48436
0.0601796
-1.46151
0.0521972
-1.44235
-1.42459
0.0448126
0.0342989
-0.400383
0.0856556
-1.09795
0.111823
-1.60995
0.111542
-1.72742
0.105465
-1.71432
0.0987327
-1.689
0.092088
-1.66504
0.0852434
-1.64289
0.0782537
-1.62189
0.0711056
-1.60284
0.0638756
-1.58477
0.0565369
-1.56731
0.0486925
-1.55036
0.0404345
-1.53333
0.0320016
-1.51634
0.0234916
-1.49721
0.0150275
-1.4759
0.00661932
-1.4531
-0.00137315
-1.43436
-1.41646
-0.0095051
0.0275592
-0.427942
0.0711504
-1.14154
0.0943269
-1.63313
0.0924585
-1.72555
0.0845972
-1.70646
0.0762163
-1.68062
0.0672517
-1.65607
0.0579295
-1.63357
0.0482482
-1.61221
0.0381021
-1.5927
0.0275468
-1.57421
0.0166501
-1.55641
0.00581267
-1.53952
-0.0050494
-1.52246
-0.0158427
-1.50555
-0.0262276
-1.48682
-0.0366783
-1.46545
-0.0471026
-1.44268
-0.0581347
-1.42333
-1.40581
-0.0687905
0.025474
-0.453416
0.0606046
-1.17667
0.0719571
-1.64448
0.0645023
-1.71809
0.0532496
-1.69521
0.0418944
-1.66927
0.0305175
-1.6447
0.0192459
-1.6223
0.00796695
-1.60093
-0.0033234
-1.58141
-0.0145819
-1.56295
-0.0259532
-1.54504
-0.0375159
-1.52796
-0.049194
-1.51079
-0.0611453
-1.49359
-0.0733031
-1.47466
-0.085038
-1.45371
-0.0965795
-1.43114
-0.107942
-1.41197
-1.39445
-0.119301
0.0245227
-0.477939
0.0557367
-1.20788
0.0615398
-1.65029
0.0503053
-1.70686
0.0363066
-1.68121
0.0224395
-1.6554
0.00836577
-1.63062
-0.00602685
-1.60791
-0.0205716
-1.58638
-0.0354179
-1.56656
-0.050432
-1.54794
-0.0653987
-1.53008
-0.0803869
-1.51297
-0.0952995
-1.49587
-0.109729
-1.47916
-0.123469
-1.46092
-0.137035
-1.44015
-0.150664
-1.41751
-0.164784
-1.39785
-1.38004
-0.179188
0.0200232
-0.497962
0.0440036
-1.23187
0.0422298
-1.64851
0.0269724
-1.6916
0.0102578
-1.66449
-0.00640457
-1.63874
-0.0230294
-1.614
-0.0391748
-1.59176
-0.0551031
-1.57045
-0.0708397
-1.55083
-0.0865239
-1.53226
-0.102388
-1.51421
-0.118031
-1.49733
-0.133652
-1.48025
-0.149557
-1.46326
-0.165495
-1.44499
-0.180806
-1.42483
-0.195735
-1.40258
-0.210908
-1.38267
-1.36503
-0.225926
0.0187927
-0.516755
0.0386711
-1.25174
0.0322347
-1.64208
0.0137438
-1.67311
-0.00584686
-1.6449
-0.0251733
-1.61941
-0.044436
-1.59474
-0.0640367
-1.57216
-0.0836195
-1.55087
-0.103365
-1.53108
-0.122934
-1.51269
-0.142108
-1.49504
-0.161413
-1.47802
-0.180409
-1.46126
-0.198649
-1.44502
-0.216288
-1.42735
-0.233501
-1.40762
-0.250652
-1.38543
-0.267959
-1.36537
-1.34731
-0.285674
0.0148736
-0.531628
0.0288107
-1.26568
0.0163888
-1.62965
-0.00526379
-1.65146
-0.0271081
-1.62306
-0.0489023
-1.59762
-0.0706374
-1.573
-0.0917089
-1.55109
-0.112465
-1.53012
-0.132881
-1.51066
-0.153401
-1.49217
-0.174068
-1.47437
-0.194151
-1.45794
-0.214219
-1.44119
-0.234302
-1.42494
-0.253974
-1.40767
-0.272848
-1.38875
-0.291139
-1.36714
-0.309898
-1.34661
-1.32888
-0.328334
0.0135832
-0.545212
0.0229845
-1.27508
0.00662582
-1.6133
-0.0182381
-1.62659
-0.0432447
-1.59805
-0.0680149
-1.57285
-0.0925717
-1.54844
-0.117392
-1.52627
-0.141953
-1.50555
-0.166471
-1.48615
-0.190374
-1.46826
-0.213847
-1.4509
-0.237451
-1.43433
-0.260566
-1.41807
-0.282959
-1.40254
-0.30488
-1.38575
-0.326218
-1.36741
-0.347066
-1.34629
-0.367886
-1.32579
-1.30788
-0.388879
0.0104649
-0.555676
0.0149472
-1.27956
-0.00607951
-1.59227
-0.0332478
-1.59943
-0.0602955
-1.571
-0.0869843
-1.54616
-0.113464
-1.52196
-0.139393
-1.50034
-0.165099
-1.47985
-0.190468
-1.46078
-0.216095
-1.44264
-0.241639
-1.42536
-0.266468
-1.4095
-0.29131
-1.39323
-0.315846
-1.37801
-0.339473
-1.36213
-0.36209
-1.34479
-0.38394
-1.32444
-0.406009
-1.30372
-1.28597
-0.427923
0.00883279
-0.564509
0.00868898
-1.27942
-0.0167041
-1.56688
-0.0471165
-1.56901
-0.0772029
-1.54092
-0.107129
-1.51623
-0.136767
-1.49233
-0.166447
-1.47066
-0.195642
-1.45065
-0.224603
-1.43182
-0.25259
-1.41465
-0.280426
-1.39752
-0.308247
-1.38168
-0.335522
-1.36596
-0.36246
-1.35107
-0.389041
-1.33555
-0.414812
-1.31902
-0.439488
-1.29976
-0.463844
-1.27936
-1.2617
-0.488115
0.00675374
-0.571263
0.00296852
-1.27564
-0.0252457
-1.53866
-0.057691
-1.53657
-0.0895493
-1.50906
-0.121017
-1.48476
-0.152041
-1.4613
-0.182805
-1.4399
-0.213476
-1.41998
-0.243953
-1.40134
-0.274692
-1.38391
-0.3049
-1.36731
-0.334606
-1.35198
-0.36419
-1.33637
-0.393264
-1.32199
-0.42127
-1.30754
-0.448229
-1.29206
-0.474232
-1.27376
-0.499909
-1.25368
-1.23627
-0.525337
0.00450082
-0.575764
-0.00443109
-1.2667
-0.0369342
-1.50616
-0.0729268
-1.50058
-0.107901
-1.47408
-0.142485
-1.45018
-0.176762
-1.42702
-0.210693
-1.40597
-0.24409
-1.38659
-0.277133
-1.3683
-0.309186
-1.35186
-0.341444
-1.33505
-0.373407
-1.32002
-0.404897
-1.30488
-0.436437
-1.29045
-0.467763
-1.27622
-0.497963
-1.26186
-0.526516
-1.24521
-0.554406
-1.2258
-1.20878
-0.581894
0.00281368
-0.578577
-0.00921911
-1.25467
-0.0423695
-1.47301
-0.0793495
-1.4636
-0.115728
-1.43771
-0.151667
-1.41424
-0.186967
-1.39173
-0.222317
-1.37062
-0.25754
-1.35136
-0.292872
-1.33296
-0.328253
-1.31648
-0.362617
-1.30069
-0.397
-1.28563
-0.431095
-1.27079
-0.464569
-1.25698
-0.497417
-1.24337
-0.529689
-1.22959
-0.560419
-1.21448
-0.589791
-1.19642
-1.18007
-0.618498
-3.4069e-05
-0.578543
-0.0179082
-1.2368
-0.055572
-1.43534
-0.0958754
-1.42329
-0.135027
-1.39855
-0.17365
-1.37562
-0.211871
-1.3535
-0.249335
-1.33315
-0.286347
-1.31435
-0.322957
-1.29636
-0.359274
-1.28016
-0.395858
-1.26411
-0.431591
-1.2499
-0.467189
-1.23519
-0.503083
-1.22108
-0.538547
-1.2079
-0.57312
-1.19502
-0.606345
-1.18125
-0.638284
-1.16448
-1.14933
-0.669023
-0.000451568
-0.578092
-0.0193838
-1.21786
-0.0570881
-1.39764
-0.0978423
-1.38254
-0.138347
-1.35805
-0.178419
-1.33555
-0.21787
-1.31405
-0.257462
-1.29356
-0.296581
-1.27523
-0.335769
-1.25717
-0.374691
-1.24124
-0.412885
-1.22591
-0.451447
-1.21134
-0.489267
-1.19737
-0.526806
-1.18355
-0.564746
-1.16996
-0.602373
-1.15739
-0.638354
-1.14527
-0.672432
-1.13041
-1.11565
-0.706115
-0.00310237
-0.574989
-0.0268317
-1.19413
-0.0696976
-1.35477
-0.114136
-1.3381
-0.157075
-1.31511
-0.199422
-1.2932
-0.24102
-1.27246
-0.281724
-1.25286
-0.322055
-1.2349
-0.361776
-1.21745
-0.401905
-1.20111
-0.442198
-1.18562
-0.481577
-1.17196
-0.521115
-1.15783
-0.560346
-1.14431
-0.599247
-1.13106
-0.639053
-1.11759
-0.678907
-1.10542
-0.71638
-1.09293
-1.079
-0.75303
-0.00381786
-0.0287305
-0.0701449
-0.114001
-0.157767
-0.201184
-0.244257
-0.287313
-0.329693
-0.371619
-0.412434
-0.453369
-0.494914
-0.535629
-0.576635
-0.617528
-0.658249
-0.700201
-0.742901
-0.78402
0.102586
-12.4634
12.525
0.0633795
-11.7325
11.7717
0.0277236
-11.2931
11.3288
0.00914462
-10.8458
10.8643
-0.00525127
-10.5339
10.5483
-0.0165502
-10.2139
10.2252
-0.0232929
-9.95311
9.95985
-0.0267329
-9.75453
9.75797
-0.0281637
-9.58821
9.58964
-0.0292089
-9.44186
9.4429
-0.0288449
-9.32651
9.32615
-0.0272971
-9.21941
9.21786
-0.0247923
-9.15582
9.15331
-0.0219096
-9.08537
9.08248
-0.0165589
-9.04833
9.04298
-0.0106073
-8.94716
8.9412
-0.00258164
-8.76599
8.75796
0.00284603
-7.78385
7.77843
0.00445269
-5.58093
5.57932
-2.29307
2.29752
0.0471811
-12.4057
0.00925289
-11.6946
-0.0293391
-11.2545
-0.0497627
-10.8253
-0.062933
-10.5207
-0.0724511
-10.2044
-0.0764111
-9.94915
-0.077116
-9.75383
-0.0755207
-9.5898
-0.0728821
-9.4445
-0.0681594
-9.33124
-0.0623901
-9.22518
-0.0558588
-9.16235
-0.0489543
-9.09227
-0.0391882
-9.05809
-0.0286325
-8.95771
-0.0161403
-8.77848
-0.00432136
-7.79567
0.00237763
-5.58763
-2.29069
-0.0320599
-12.3288
-0.0748688
-11.6518
-0.10927
-11.2201
-0.125913
-10.8087
-0.135286
-10.5113
-0.140428
-10.1992
-0.13968
-9.9499
-0.13572
-9.75779
-0.129098
-9.59642
-0.121621
-9.45197
-0.112168
-9.34069
-0.10142
-9.23593
-0.0896575
-9.17411
-0.0774136
-9.10451
-0.0625895
-9.07292
-0.0467835
-8.97352
-0.0288723
-8.79639
-0.0105971
-7.81395
0.000983734
-5.59921
-2.28971
-0.0848666
-12.2535
-0.130725
-11.6059
-0.167077
-11.1838
-0.18509
-10.7907
-0.193728
-10.5027
-0.196537
-10.1964
-0.192921
-9.95351
-0.186229
-9.76448
-0.176467
-9.60618
-0.165155
-9.46329
-0.151363
-9.35448
-0.136459
-9.25083
-0.120695
-9.18988
-0.104402
-9.12081
-0.0852319
-9.09209
-0.0644221
-8.99433
-0.0413597
-8.81945
-0.0173159
-7.83799
-0.000913861
-5.61561
-2.29062
-0.163016
-12.1592
-0.212994
-11.556
-0.245837
-11.1509
-0.259739
-10.7768
-0.26521
-10.4972
-0.263535
-10.1981
-0.255312
-9.96174
-0.244034
-9.77576
-0.229295
-9.62092
-0.213253
-9.47933
-0.194949
-9.37279
-0.175155
-9.27062
-0.154128
-9.2109
-0.132506
-9.14243
-0.108375
-9.11622
-0.0823735
-9.02033
-0.0541394
-8.84769
-0.024377
-7.86775
-0.00284662
-5.63714
-2.29347
-0.214574
-12.064
-0.269436
-11.5011
-0.304299
-11.1161
-0.319083
-10.762
-0.323676
-10.4926
-0.319562
-10.2022
-0.308332
-9.97297
-0.294262
-9.78983
-0.276354
-9.63883
-0.256398
-9.49929
-0.233822
-9.39536
-0.209949
-9.2945
-0.185011
-9.23584
-0.159366
-9.16807
-0.130974
-9.14461
-0.10041
-9.05089
-0.0668163
-8.88128
-0.030902
-7.90367
-0.00462847
-5.66342
-2.2981
-0.291223
-11.9519
-0.349499
-11.4428
-0.381283
-11.0843
-0.39219
-10.7511
-0.393685
-10.4911
-0.385157
-10.2107
-0.369464
-9.98866
-0.350808
-9.80848
-0.328019
-9.66162
-0.303568
-9.52374
-0.276734
-9.4222
-0.248037
-9.32319
-0.217958
-9.26592
-0.187172
-9.19886
-0.154045
-9.17774
-0.118484
-9.08645
-0.0797999
-8.91997
-0.0377694
-7.9457
-0.0063592
-5.69483
-2.30446
-0.340977
-11.8369
-0.405595
-11.3782
-0.44015
-11.0497
-0.451401
-10.7398
-0.451583
-10.491
-0.44071
-10.2216
-0.421955
-10.0074
-0.40041
-9.83003
-0.374462
-9.68757
-0.346051
-9.55215
-0.315035
-9.45321
-0.282385
-9.35584
-0.248485
-9.29982
-0.213875
-9.23347
-0.176633
-9.21498
-0.136404
-9.12668
-0.0925806
-8.96379
-0.0450956
-7.99318
-0.00873214
-5.73119
-2.31319
-0.415057
-11.7075
-0.481502
-11.3118
-0.514038
-11.0172
-0.522554
-10.7313
-0.519424
-10.4941
-0.50439
-10.2366
-0.481401
-10.0304
-0.455244
-9.85619
-0.4246
-9.71821
-0.391986
-9.58476
-0.356907
-9.48829
-0.31954
-9.39321
-0.280758
-9.3386
-0.241349
-9.27288
-0.199664
-9.25666
-0.154329
-9.17202
-0.105437
-9.01268
-0.0524496
-8.04617
-0.0111159
-5.77252
-2.3243
-0.463653
-11.5722
-0.53709
-11.2383
-0.572703
-10.9816
-0.58122
-10.7228
-0.576314
-10.499
-0.559006
-10.254
-0.533011
-10.0564
-0.503875
-9.88532
-0.470076
-9.75201
-0.433457
-9.62138
-0.394309
-9.52744
-0.353166
-9.43435
-0.310628
-9.38114
-0.267431
-9.31608
-0.222327
-9.30177
-0.172534
-9.22181
-0.118153
-9.06706
-0.0594459
-8.10488
-0.0133522
-5.81862
-2.33766
-0.534376
-11.4267
-0.607809
-11.1649
-0.642554
-10.9468
-0.649779
-10.7156
-0.641433
-10.5073
-0.620284
-10.2751
-0.590311
-10.0864
-0.556617
-9.91902
-0.518401
-9.79023
-0.477883
-9.6619
-0.434817
-9.5705
-0.389133
-9.48004
-0.341963
-9.42831
-0.294058
-9.36398
-0.24453
-9.3513
-0.190471
-9.27587
-0.131071
-9.12646
-0.066729
-8.16922
-0.0160008
-5.86934
-2.35366
-0.582844
-11.2718
-0.663001
-11.0847
-0.700125
-10.9097
-0.707239
-10.7085
-0.696994
-10.5176
-0.673556
-10.2985
-0.640665
-10.1193
-0.603989
-9.95569
-0.562572
-9.83164
-0.518007
-9.70646
-0.471038
-9.61747
-0.421793
-9.52928
-0.370971
-9.47914
-0.319405
-9.41555
-0.266128
-9.40457
-0.208131
-9.33386
-0.143774
-9.19082
-0.0739656
-8.23903
-0.0188826
-5.92443
-2.37254
-0.649591
-11.1103
-0.729006
-11.0053
-0.766025
-10.8727
-0.772587
-10.7019
-0.758983
-10.5312
-0.732061
-10.3255
-0.695396
-10.1559
-0.654326
-9.99676
-0.608856
-9.87711
-0.560699
-9.75462
-0.509874
-9.6683
-0.456307
-9.58285
-0.401147
-9.5343
-0.345531
-9.47116
-0.287917
-9.46219
-0.225816
-9.39597
-0.156601
-9.26003
-0.0809206
-8.31471
-0.02195
-5.9834
-2.39449
-0.698254
-10.9374
-0.783466
-10.9201
-0.821738
-10.8344
-0.828228
-10.6954
-0.812896
-10.5465
-0.783632
-10.3547
-0.744157
-10.1954
-0.700137
-10.0408
-0.651368
-9.92588
-0.599189
-9.8068
-0.544671
-9.72281
-0.48775
-9.63977
-0.429131
-9.59291
-0.369897
-9.5304
-0.308599
-9.52348
-0.242935
-9.46163
-0.169417
-9.33355
-0.0883407
-8.39579
-0.0253886
-6.04635
-2.41988
-0.760507
-10.7587
-0.84554
-10.8351
-0.883892
-10.7961
-0.889936
-10.6894
-0.871494
-10.565
-0.839062
-10.3872
-0.79602
-10.2384
-0.747848
-10.089
-0.695418
-9.97831
-0.639892
-9.86233
-0.581576
-9.78113
-0.520545
-9.7008
-0.457787
-9.65567
-0.394496
-9.59369
-0.329298
-9.58868
-0.259629
-9.5313
-0.181682
-9.4115
-0.0953201
-8.48215
-0.0287471
-6.11292
-2.44863
-0.808407
-10.5688
-0.8985
-10.745
-0.937056
-10.7575
-0.943193
-10.6832
-0.923379
-10.5848
-0.888541
-10.422
-0.84288
-10.2841
-0.791762
-10.1401
-0.735949
-10.0341
-0.676537
-9.92174
-0.614733
-9.84294
-0.55048
-9.76506
-0.484492
-9.72166
-0.417564
-9.66062
-0.348954
-9.65729
-0.275857
-9.6044
-0.194051
-9.49331
-0.102326
-8.57387
-0.0313857
-6.18386
-2.48001
-0.867053
-10.3708
-0.957195
-10.6548
-0.994929
-10.7198
-1.00025
-10.6779
-0.977867
-10.6072
-0.940228
-10.4596
-0.891332
-10.333
-0.836455
-10.195
-0.777417
-10.0932
-0.714914
-9.98424
-0.649446
-9.9084
-0.581319
-9.83318
-0.511479
-9.7915
-0.440325
-9.73177
-0.368334
-9.72928
-0.291967
-9.68076
-0.206148
-9.57912
-0.109222
-8.6708
-0.0330531
-6.26003
-2.51306
-0.916228
-10.1607
-1.011
-10.5601
-1.04663
-10.6841
-1.05145
-10.6731
-1.02767
-10.6309
-0.987382
-10.4999
-0.935965
-10.3844
-0.878086
-10.2528
-0.815607
-10.1556
-0.749434
-10.0504
-0.680721
-9.97712
-0.609489
-9.90441
-0.536588
-9.8644
-0.462731
-9.80563
-0.387718
-9.80429
-0.307767
-9.76071
-0.218065
-9.66883
-0.115824
-8.77304
-0.0335131
-6.34234
-2.54658
-0.962342
-9.95138
-1.0677
-10.4547
-1.10367
-10.6482
-1.10676
-10.67
-1.08046
-10.6573
-1.03723
-10.5431
-0.982312
-10.4393
-0.920672
-10.3145
-0.854995
-10.2213
-0.785746
-10.1197
-0.713464
-10.0494
-0.638504
-9.97938
-0.561835
-9.94107
-0.484276
-9.88319
-0.406209
-9.88236
-0.323226
-9.8437
-0.229865
-9.76219
-0.122781
-8.88013
-0.0334055
-6.43172
-2.57998
-1.00014
-9.73527
-1.11073
-10.3441
-1.14637
-10.6125
-1.14959
-10.6668
-1.12431
-10.6825
-1.07925
-10.5882
-1.02309
-10.4955
-0.958589
-10.379
-0.890186
-10.2897
-0.817583
-10.1923
-0.742645
-10.1243
-0.664555
-10.0575
-0.585367
-10.0203
-0.504941
-9.96361
-0.424499
-9.9628
-0.338418
-9.92978
-0.241236
-9.85937
-0.129724
-8.99164
-0.0339522
-6.52749
-2.61394
9.19241
-8.76011
-10.1676
7.95051
-9.10223
6.74827
-9.41027
5.66579
-9.58431
4.70251
-9.71925
3.87787
-9.76356
3.19065
-9.80827
2.62204
-9.81036
2.14438
-9.81207
1.74384
-9.79173
1.41441
-9.79491
1.14359
-9.78664
0.913074
-9.78974
0.719316
-9.76986
0.540072
-9.78356
0.382877
-9.77258
0.247205
-9.7237
0.151317
-8.89575
0.0559706
-6.43214
-2.55797
5.6036
-8.32354
-6.04017
5.03716
-8.53579
4.45534
-8.82845
3.88194
-9.01092
3.33852
-9.17584
2.85923
-9.28427
2.43364
-9.38268
2.06821
-9.44493
1.75263
-9.49649
1.48755
-9.52665
1.25296
-9.56032
1.04557
-9.57925
0.850933
-9.5951
0.683559
-9.60248
0.516997
-9.617
0.369292
-9.62488
0.20563
-9.56004
0.0821397
-8.77226
-0.0449485
-6.30506
-2.60291
4.21242
-8.12942
-4.40654
3.9872
-8.31058
3.69139
-8.53264
3.38455
-8.70408
3.06242
-8.85371
2.75061
-8.97246
2.44193
-9.07401
2.14942
-9.15242
1.87372
-9.22078
1.61922
-9.27215
1.37454
-9.31564
1.14365
-9.34836
0.921842
-9.37329
0.719492
-9.40013
0.52671
-9.42422
0.350416
-9.44858
0.198666
-9.40829
0.105358
-8.67895
0.0373993
-6.2371
-2.56551
2.74426
-8.07809
-2.79559
2.6649
-8.23122
2.53279
-8.40052
2.37605
-8.54733
2.19052
-8.66818
1.99079
-8.77273
1.78447
-8.86768
1.57879
-8.94674
1.3761
-9.01809
1.18253
-9.07858
1.00116
-9.13427
0.835225
-9.18243
0.689092
-9.22716
0.551198
-9.26224
0.421086
-9.2941
0.301497
-9.32899
0.171668
-9.27846
0.104728
-8.61201
0.0758321
-6.2082
-2.48968
1.98556
-8.12465
-1.93899
1.9821
-8.22776
1.93613
-8.35455
1.84834
-8.45954
1.73813
-8.55797
1.61304
-8.64764
1.4771
-8.73175
1.33378
-8.80342
1.18495
-8.86927
1.03472
-8.92836
0.886427
-8.98597
0.738955
-9.03495
0.596529
-9.08473
0.45984
-9.12555
0.327046
-9.16131
0.19491
-9.19686
0.0820898
-9.16564
0.033632
-8.56355
0.0503717
-6.22494
-2.43931
1.44313
-8.14984
-1.41794
1.45299
-8.23762
1.40851
-8.31007
1.34399
-8.39502
1.26799
-8.48198
1.17272
-8.55236
1.06584
-8.62487
0.954477
-8.69205
0.840025
-8.75481
0.721454
-8.80979
0.604046
-8.86857
0.485907
-8.91681
0.369269
-8.96809
0.258941
-9.01522
0.162489
-9.06486
0.0624353
-9.0968
-0.0344573
-9.06874
-0.0527927
-8.54522
0.03814
-6.31587
-2.40117
1.01786
-8.17159
-0.996111
1.01055
-8.23031
1.00493
-8.30445
0.983306
-8.3734
0.936249
-8.43492
0.875744
-8.49186
0.799562
-8.54869
0.712362
-8.60485
0.620111
-8.66256
0.522875
-8.71255
0.422018
-8.76771
0.318489
-8.81328
0.216795
-8.8664
0.113951
-8.91238
0.0111063
-8.96201
-0.083386
-9.00231
-0.160628
-8.9915
-0.165976
-8.53987
-0.0136094
-6.46824
-2.41478
0.769013
-8.19053
-0.75007
0.776504
-8.2378
0.758219
-8.28617
0.716921
-8.3321
0.666523
-8.38452
0.609912
-8.43524
0.54527
-8.48405
0.466665
-8.52625
0.382617
-8.57852
0.296347
-8.62628
0.206106
-8.67747
0.113028
-8.72021
0.0172957
-8.77066
-0.0844052
-8.81068
-0.180347
-8.86607
-0.274668
-8.90799
-0.349892
-8.91628
-0.334215
-8.55555
-0.106397
-6.69606
-2.52118
0.55001
-8.18824
-0.552306
0.535502
-8.22329
0.515143
-8.26581
0.486885
-8.30384
0.450794
-8.34843
0.399854
-8.3843
0.343233
-8.42743
0.281068
-8.46408
0.208222
-8.50567
0.128479
-8.54654
0.040762
-8.58975
-0.0514592
-8.62799
-0.149232
-8.67289
-0.250206
-8.7097
-0.355649
-8.76063
-0.465334
-8.79831
-0.558817
-8.8228
-0.551982
-8.56238
-0.25124
-6.9968
-2.77242
0.443168
-8.18435
-0.447053
0.430846
-8.21097
0.408399
-8.24336
0.375773
-8.27122
0.32725
-8.29991
0.271018
-8.32807
0.206174
-8.36258
0.139016
-8.39692
0.0675053
-8.43416
-0.0134939
-8.46554
-0.102069
-8.50118
-0.197214
-8.53284
-0.300627
-8.56948
-0.411578
-8.59875
-0.536179
-8.63603
-0.668159
-8.66633
-0.783627
-8.70733
-0.801584
-8.54443
-0.473526
-7.32486
-3.24594
0.348617
-8.16487
-0.368097
0.322541
-8.18489
0.289688
-8.21051
0.249601
-8.23113
0.206959
-8.25727
0.161962
-8.28307
0.109166
-8.30979
0.0460118
-8.33377
-0.026599
-8.36155
-0.106722
-8.38541
-0.195607
-8.41229
-0.292616
-8.43583
-0.401684
-8.46041
-0.518216
-8.48222
-0.647407
-8.50684
-0.791915
-8.52182
-0.949432
-8.54981
-0.998329
-8.49553
-0.730302
-7.59288
-3.97625
0.306034
-8.14586
-0.325044
0.282357
-8.16122
0.251649
-8.1798
0.215878
-8.19536
0.172418
-8.21381
0.121564
-8.23222
0.0651884
-8.25341
0.00384456
-8.27242
-0.0674008
-8.2903
-0.146113
-8.3067
-0.234684
-8.32372
-0.331469
-8.33905
-0.438406
-8.35347
-0.553489
-8.36714
-0.684463
-8.37586
-0.817271
-8.38901
-0.985251
-8.38183
-1.1235
-8.35728
-0.937811
-7.77857
-4.91406
0.273746
-8.12152
-0.298092
0.244474
-8.13194
0.210495
-8.14582
0.173665
-8.15853
0.133682
-8.17382
0.086814
-8.18535
0.033138
-8.19973
-0.0277189
-8.21157
-0.0928151
-8.22521
-0.163479
-8.23604
-0.240724
-8.24648
-0.325789
-8.25398
-0.420242
-8.25902
-0.524327
-8.26305
-0.637611
-8.26258
-0.762647
-8.26397
-0.899854
-8.24462
-1.0381
-8.21904
-0.902952
-7.91372
-5.81701
0.256699
-8.0997
-0.278511
0.231641
-8.10689
0.202551
-8.11673
0.16878
-8.12476
0.129951
-8.135
0.0862697
-8.14167
0.0376797
-8.15114
-0.0168909
-8.157
-0.0758487
-8.16625
-0.139943
-8.17194
-0.207933
-8.17849
-0.282349
-8.17956
-0.360387
-8.18098
-0.447992
-8.17545
-0.53709
-8.17348
-0.640901
-8.16016
-0.739176
-8.14635
-0.838073
-8.12014
-0.7686
-7.98319
-6.58561
0.208427
-8.07775
-0.230377
0.183825
-8.08229
0.155916
-8.08882
0.12429
-8.09313
0.0898484
-8.10055
0.0529688
-8.10479
0.011711
-8.10989
-0.0311699
-8.11412
-0.0772053
-8.12021
-0.126372
-8.12278
-0.178482
-8.12638
-0.232391
-8.12565
-0.288618
-8.12476
-0.350045
-8.11402
-0.410771
-8.11276
-0.475394
-8.09554
-0.536746
-8.085
-0.602822
-8.05406
-0.58777
-7.99824
-7.17338
0.188756
-8.05963
-0.206877
0.168758
-8.06229
0.146401
-8.06646
0.121827
-8.06856
0.094065
-8.07279
0.0652716
-8.076
0.0352883
-8.0799
-0.000198373
-8.07863
-0.038941
-8.08147
-0.0797284
-8.08199
-0.121864
-8.08424
-0.165093
-8.08242
-0.207534
-8.08232
-0.248429
-8.07312
-0.289429
-8.07176
-0.329541
-8.05543
-0.363902
-8.05064
-0.385139
-8.03283
-0.36622
-8.01716
-7.5396
0.150953
-8.04218
-0.168408
0.132513
-8.04385
0.112378
-8.04633
0.0916285
-8.04781
0.0687096
-8.04987
0.0437232
-8.05101
0.0167673
-8.05295
-0.00867624
-8.05319
-0.0350312
-8.05512
-0.0625244
-8.0545
-0.0915101
-8.05525
-0.120495
-8.05344
-0.149279
-8.05353
-0.175962
-8.04644
-0.205511
-8.04221
-0.226319
-8.03462
-0.247351
-8.0296
-0.266447
-8.01373
-0.260494
-8.02311