/*--------------------------------*- C++ -*----------------------------------*\
  =========                 |
  \\      /  F ield         | OpenFOAM: The Open Source CFD Toolbox
   \\    /   O peration     | Website:  https://openfoam.org
    \\  /    A nd           | Version:  9
     \\/     M anipulation  |
\*---------------------------------------------------------------------------*/
FoamFile
{
    format      ascii;
    class       volVectorField;
    location    "9";
    object      U;
}
// * * * * * * * * * * * * * * * * * * * * * * * * * * * * * * * * * * * * * //

dimensions      [0 1 -1 0 0 0 0];

internalField   nonuniform List<vector> 
46400
(
(10.1561 -9.9936 -5.43896e-19)
(20.8974 -19.9819 5.50894e-19)
(22.8291 -22.9167 -8.68567e-20)
(22.0791 -22.9792 -1.39558e-20)
(21.3051 -22.9031 -6.93378e-20)
(20.5409 -22.9127 -3.47887e-19)
(19.8785 -22.8816 1.53597e-19)
(19.1976 -22.8513 4.68222e-22)
(18.6046 -22.849 -1.20314e-20)
(18.012 -22.8276 2.24232e-20)
(17.4773 -22.8405 -3.17026e-20)
(16.9833 -22.8737 0)
(16.4681 -22.8332 2.5483e-19)
(16.0157 -22.8531 -2.97637e-19)
(15.5634 -22.8435 -4.73719e-19)
(15.1235 -22.8121 -1.20777e-19)
(14.6892 -22.8073 -5.39927e-20)
(14.3238 -22.7168 4.2523e-19)
(13.9152 -22.6623 6.42588e-19)
(13.4512 -22.927 -5.93492e-19)
(10.4517 -9.45202 0)
(21.0622 -18.7358 -4.38273e-20)
(22.7077 -21.117 0)
(21.9462 -21.2161 -1.91452e-19)
(21.2889 -21.2714 1.26941e-19)
(20.5569 -21.3373 -2.71245e-20)
(19.9042 -21.3699 0)
(19.2713 -21.4416 -4.68234e-22)
(18.6708 -21.4928 1.20316e-20)
(18.1101 -21.5485 -2.24233e-20)
(17.5621 -21.5898 4.41202e-19)
(17.043 -21.6099 6.45891e-20)
(16.583 -21.7083 -4.12543e-19)
(16.1204 -21.7148 0)
(15.6821 -21.7664 6.04613e-20)
(15.2866 -21.8088 6.60238e-20)
(14.8751 -21.8383 0)
(14.5065 -21.7923 -7.28579e-19)
(14.1444 -21.7385 -2.04524e-19)
(13.6415 -21.9157 7.5281e-19)
(10.7207 -8.89204 -1.52298e-19)
(21.1514 -17.4262 4.61428e-20)
(22.6869 -19.6217 -9.77134e-20)
(21.871 -19.7675 4.03804e-20)
(21.1127 -19.7854 -3.96522e-20)
(20.3647 -19.8993 0)
(19.6975 -19.9564 -4.4354e-19)
(19.0247 -19.9973 3.76605e-19)
(18.4455 -20.0969 -6.077e-19)
(17.8835 -20.1686 6.06086e-19)
(17.3633 -20.2866 6.43612e-19)
(16.8647 -20.3483 -3.95565e-20)
(16.3657 -20.4165 -5.77926e-19)
(15.9384 -20.5217 0)
(15.4814 -20.5576 8.00613e-19)
(15.0591 -20.6097 -7.88495e-19)
(14.6693 -20.7058 0)
(14.3508 -20.7437 -2.10066e-20)
(13.9939 -20.8582 9.75689e-20)
(13.563 -21.1419 -9.40093e-19)
(10.9167 -8.30971 -2.29638e-20)
(21.1273 -16.1854 -1.0141e-20)
(22.2738 -17.8472 1.48497e-19)
(21.4574 -18.058 -1.46766e-19)
(20.8474 -18.2139 -1.77434e-19)
(20.1346 -18.3763 2.49676e-19)
(19.5205 -18.5307 3.94068e-19)
(18.911 -18.684 -1.05947e-18)
(18.3045 -18.7994 9.07376e-19)
(17.7487 -18.9087 -8.51859e-20)
(17.2256 -19.0427 0)
(16.743 -19.1743 9.69605e-20)
(16.2742 -19.2892 -1.0175e-19)
(15.8514 -19.4144 0)
(15.4538 -19.5624 9.90246e-19)
(15.051 -19.6352 -8.39423e-19)
(14.6467 -19.7286 0)
(14.2716 -19.7377 1.17719e-19)
(13.8975 -19.7776 1.37031e-19)
(13.4344 -20.0812 1.10238e-18)
(11.0485 -7.71753 0)
(20.9556 -14.8529 0)
(22.0298 -16.4202 -3.19006e-19)
(21.1993 -16.6682 2.09693e-19)
(20.4716 -16.7876 -4.84683e-19)
(19.7568 -16.9861 4.00619e-19)
(19.0859 -17.1248 0)
(18.4468 -17.2533 4.97682e-19)
(17.8998 -17.4679 -5.99544e-19)
(17.3591 -17.6078 -1.46043e-19)
(16.8292 -17.7722 -1.49498e-19)
(16.3642 -17.9181 0)
(15.8851 -18.0854 1.15259e-18)
(15.44 -18.1911 -1.13457e-18)
(15.0296 -18.3691 0)
(14.6411 -18.5112 -1.32937e-18)
(14.2737 -18.6851 1.17583e-18)
(13.9894 -18.8477 1.20755e-18)
(13.6329 -18.9712 -1.31353e-18)
(13.1598 -19.2665 0)
(11.1442 -7.11116 0)
(20.6767 -13.5528 0)
(21.3751 -14.7449 0)
(20.5567 -15.0576 -3.94458e-20)
(19.9815 -15.3073 0)
(19.312 -15.5587 0)
(18.7471 -15.8228 0)
(18.1501 -16.017 -1.69299e-19)
(17.5535 -16.1961 0)
(17.0457 -16.4046 1.46046e-19)
(16.5448 -16.6117 -2.81403e-20)
(16.0706 -16.7951 -1.52284e-18)
(15.64 -16.9996 1.14206e-18)
(15.2301 -17.1991 -1.54355e-18)
(14.8143 -17.3343 1.16043e-18)
(14.4408 -17.5145 0)
(14.0169 -17.6007 -1.37096e-18)
(13.6598 -17.7024 1.17005e-18)
(13.3733 -17.8972 0)
(12.9368 -18.2283 -1.89179e-19)
(11.2491 -6.50715 5.06891e-19)
(20.2165 -12.1279 1.56333e-19)
(20.9434 -13.3751 6.42087e-19)
(20.1251 -13.7001 -6.7407e-19)
(19.4245 -13.9382 -7.03804e-19)
(18.7457 -14.2122 1.4156e-18)
(18.0991 -14.4636 -1.65031e-18)
(17.5181 -14.7042 1.43831e-19)
(16.9728 -14.9737 5.37746e-19)
(16.4378 -15.1608 0)
(15.9283 -15.3919 -2.72824e-20)
(15.4859 -15.6014 -2.60537e-20)
(15.0149 -15.8047 1.80266e-19)
(14.6295 -16.0251 1.53316e-18)
(14.2591 -16.2899 -1.35181e-18)
(13.9126 -16.5082 -1.75122e-18)
(13.5982 -16.7905 1.52509e-18)
(13.2422 -16.888 -2.02719e-20)
(12.8968 -17.062 -1.97422e-19)
(12.4984 -17.4172 -1.42692e-18)
(11.4185 -5.88806 -1.92134e-19)
(19.6534 -10.7888 4.16596e-20)
(20.048 -11.7615 -2.14636e-19)
(19.2481 -12.1844 -8.6761e-19)
(18.6925 -12.5543 5.89103e-19)
(18.0771 -12.8933 0)
(17.5465 -13.2494 1.29752e-18)
(16.994 -13.5173 -6.22698e-19)
(16.4613 -13.8034 4.34729e-19)
(16.0075 -14.0957 2.31844e-19)
(15.5283 -14.3443 -4.43132e-19)
(15.0917 -14.6052 1.07047e-18)
(14.6685 -14.8404 2.29258e-19)
(14.2225 -15.0262 -1.30692e-18)
(13.8103 -15.1997 3.66794e-18)
(13.4409 -15.4097 -1.49971e-18)
(13.1066 -15.6343 1.92663e-18)
(12.8249 -15.8768 -1.25812e-18)
(12.519 -16.0494 4.14112e-19)
(12.1215 -16.4327 2.012e-18)
(11.6101 -5.33032 1.05218e-18)
(18.96 -9.50709 -2.05533e-19)
(19.3078 -10.4424 -3.86054e-20)
(18.5602 -10.859 4.80119e-19)
(17.9164 -11.2532 2.25561e-19)
(17.3124 -11.6176 2.60929e-19)
(16.727 -12.0008 -1.22431e-18)
(16.2063 -12.3417 7.45506e-19)
(15.6613 -12.6487 -2.31901e-19)
(15.1733 -12.9386 -2.31834e-19)
(14.6927 -13.2198 -2.31339e-19)
(14.2748 -13.484 -2.54561e-19)
(13.8926 -13.7925 -4.81566e-19)
(13.5793 -14.1047 1.69211e-18)
(13.2301 -14.3913 -2.36373e-18)
(12.8564 -14.599 -2.44575e-19)
(12.5118 -14.8368 1.95285e-20)
(12.2103 -15.0434 -1.82271e-18)
(11.9246 -15.2676 1.35826e-18)
(11.5467 -15.6365 -2.18291e-18)
(11.8266 -4.77983 1.0172e-18)
(18.1445 -8.2882 -2.43245e-18)
(18.2015 -9.07131 1.62601e-18)
(17.5103 -9.56598 -2.58269e-19)
(16.9611 -10.0407 -2.92831e-19)
(16.4155 -10.4335 1.14646e-18)
(15.9281 -10.858 -1.38642e-18)
(15.4829 -11.2566 0)
(15.0244 -11.6262 1.09772e-18)
(14.6215 -11.9831 -1.07945e-18)
(14.2162 -12.3234 -7.97982e-19)
(13.7751 -12.5907 1.03832e-18)
(13.3292 -12.8275 2.52336e-19)
(12.9011 -13.0529 -1.04422e-18)
(12.5827 -13.3436 2.43543e-19)
(12.2801 -13.6273 1.26081e-18)
(11.945 -13.8696 -2.25478e-18)
(11.6532 -14.1009 1.48761e-18)
(11.3981 -14.3384 -1.68898e-20)
(11.0514 -14.7218 -2.1043e-18)
(11.9339 -4.32804 1.39737e-18)
(17.1565 -7.11107 -9.24411e-19)
(17.0666 -7.8847 6.33464e-19)
(16.5277 -8.35019 1.98521e-20)
(16.0177 -8.90085 -1.25714e-18)
(15.5099 -9.34677 -1.20589e-18)
(14.9623 -9.75795 1.50354e-18)
(14.4992 -10.1535 -8.9839e-19)
(14.033 -10.5428 1.19225e-18)
(13.5818 -10.8836 0)
(13.1984 -11.2715 2.24594e-20)
(12.89 -11.6565 2.77387e-19)
(12.5781 -12.0269 2.94654e-19)
(12.2455 -12.3242 -2.90371e-19)
(11.8813 -12.5933 0)
(11.5743 -12.8672 2.8171e-19)
(11.2916 -13.1489 0)
(10.9988 -13.3723 5.29751e-19)
(10.7389 -13.6064 2.60491e-18)
(10.4615 -13.9772 -3.59317e-21)
(11.8965 -3.90043 7.63574e-19)
(16.1676 -6.06181 -1.56698e-19)
(15.9958 -6.849 -2.41355e-18)
(15.4309 -7.36542 1.35417e-18)
(14.8918 -7.85913 3.23354e-19)
(14.4888 -8.35556 -3.20778e-19)
(14.0965 -8.84661 -1.32652e-18)
(13.6995 -9.26619 9.89205e-19)
(13.3195 -9.69317 0)
(12.9415 -10.046 0)
(12.5345 -10.3753 -1.55895e-18)
(12.134 -10.6694 1.23556e-18)
(11.7959 -11.0109 -2.9468e-19)
(11.4767 -11.3282 -9.08994e-19)
(11.1924 -11.6549 4.90395e-22)
(10.9062 -11.9463 2.04219e-18)
(10.6241 -12.2433 -1.14408e-18)
(10.3793 -12.5075 8.5125e-19)
(10.1316 -12.7745 -1.37671e-18)
(9.84099 -13.125 0)
(11.606 -3.3987 -6.77679e-19)
(14.8919 -5.12919 1.11608e-18)
(14.5035 -5.83745 1.93434e-19)
(14.2114 -6.40401 1.91166e-19)
(13.8228 -7.01718 0)
(13.3601 -7.45673 1.44497e-18)
(12.9366 -7.96303 -1.41962e-18)
(12.5473 -8.38927 1.80422e-19)
(12.2069 -8.8585 0)
(11.8786 -9.28868 1.35776e-18)
(11.5842 -9.71823 -1.16395e-18)
(11.2771 -10.0893 1.3125e-18)
(10.9698 -10.4294 -1.29169e-18)
(10.682 -10.7562 1.26755e-18)
(10.3789 -11.0536 -1.08816e-18)
(10.1219 -11.3595 -1.22356e-18)
(9.88256 -11.6592 2.40759e-18)
(9.6204 -11.9084 -1.03308e-18)
(9.41093 -12.1759 1.48729e-19)
(9.19331 -12.5333 1.24633e-18)
(11.1031 -2.86921 -5.48173e-19)
(13.7741 -4.25811 6.06038e-19)
(13.5721 -5.01489 -1.93469e-19)
(13.1022 -5.51316 -1.9117e-19)
(12.6847 -6.14397 0)
(12.3667 -6.65543 0)
(12.0346 -7.18552 0)
(11.6864 -7.63216 -3.70989e-19)
(11.3075 -8.05606 -1.46024e-18)
(10.9751 -8.45525 2.87049e-18)
(10.6562 -8.85758 -1.58264e-18)
(10.377 -9.25489 -1.77043e-19)
(10.1056 -9.64444 0)
(9.8409 -10.0028 0)
(9.59237 -10.3522 -3.27112e-19)
(9.32278 -10.6582 0)
(9.11255 -11.0014 1.26068e-18)
(8.90629 -11.3002 -1.55149e-18)
(8.66172 -11.5729 -1.36197e-18)
(8.42781 -11.9239 1.31004e-18)
(10.4301 -2.34775 5.75062e-19)
(12.3793 -3.4945 1.07861e-18)
(11.9387 -4.24782 3.55398e-21)
(11.6884 -4.82472 2.23338e-21)
(11.3787 -5.40812 2.12227e-19)
(11.0742 -5.97204 -6.02598e-19)
(10.7508 -6.49751 0)
(10.4973 -7.03474 -5.90283e-19)
(10.2491 -7.51096 1.97493e-19)
(9.97184 -7.96361 7.53366e-19)
(9.69544 -8.35764 7.3699e-19)
(9.4181 -8.74434 -5.48027e-19)
(9.17571 -9.10225 1.41728e-18)
(8.96235 -9.47702 -1.21757e-18)
(8.74272 -9.81347 1.52996e-18)
(8.50688 -10.1278 -2.84884e-18)
(8.27174 -10.4153 1.31627e-18)
(8.09764 -10.7177 1.58026e-19)
(7.93916 -11.0055 1.25977e-18)
(7.75914 -11.3365 -1.36121e-18)
(9.57404 -1.83419 2.01085e-19)
(11.0907 -2.79291 -2.201e-19)
(10.8967 -3.49823 8.94992e-19)
(10.7176 -4.12297 -8.78408e-19)
(10.2914 -4.75118 -4.31463e-19)
(9.98506 -5.27278 -1.05514e-18)
(9.71454 -5.82396 1.21146e-21)
(9.41866 -6.31616 8.17379e-19)
(9.16949 -6.81716 -1.95967e-19)
(8.9332 -7.29599 0)
(8.72273 -7.75145 0)
(8.49869 -8.18298 0)
(8.2578 -8.56748 0)
(8.0234 -8.93942 6.35827e-21)
(7.87519 -9.32371 0)
(7.69567 -9.68462 1.70573e-19)
(7.51049 -10.0113 6.7922e-19)
(7.30872 -10.3167 -2.00038e-18)
(7.12605 -10.6074 1.47771e-18)
(6.953 -10.9569 -1.40207e-18)
(8.62412 -1.36829 0)
(9.78057 -2.21806 -1.20145e-19)
(9.32157 -2.9362 0)
(8.99167 -3.55398 3.41547e-19)
(8.87643 -4.24229 -2.29391e-19)
(8.69894 -4.82753 -8.80781e-19)
(8.43965 -5.38892 2.3531e-21)
(8.25059 -5.90444 8.48171e-19)
(8.03849 -6.39143 -8.27887e-19)
(7.83523 -6.84999 1.62475e-18)
(7.63847 -7.28693 -3.60607e-21)
(7.46835 -7.72111 -7.80915e-19)
(7.32442 -8.13942 7.60944e-19)
(7.11547 -8.51387 -9.32943e-19)
(6.91186 -8.86402 0)
(6.76502 -9.23416 -7.14586e-19)
(6.60517 -9.57221 7.03916e-19)
(6.46669 -9.90219 0)
(6.3215 -10.2012 -1.65997e-19)
(6.15604 -10.5377 0)
(7.56171 -0.933021 1.17192e-19)
(8.34258 -1.76615 1.20558e-19)
(8.0908 -2.54629 0)
(7.9545 -3.08788 4.7046e-19)
(7.65538 -3.72719 -5.83468e-19)
(7.4493 -4.299 3.3966e-19)
(7.31815 -4.85335 -1.00592e-18)
(7.11853 -5.3933 4.37987e-19)
(6.96493 -5.89312 -1.08314e-19)
(6.79791 -6.40005 0)
(6.62071 -6.843 -1.03715e-19)
(6.42658 -7.28039 -1.01482e-19)
(6.27493 -7.69332 -9.93007e-20)
(6.15927 -8.11512 0)
(6.01144 -8.48329 -7.50283e-19)
(5.86685 -8.84985 1.56636e-18)
(5.7436 -9.2003 -1.35123e-18)
(5.60388 -9.53495 7.08339e-19)
(5.49337 -9.85071 8.73684e-20)
(5.37171 -10.2032 7.40365e-19)
(6.38799 -0.573812 -1.79945e-19)
(6.74658 -1.36293 -2.53725e-19)
(6.61877 -2.17317 2.75896e-22)
(6.47106 -2.81917 6.7022e-19)
(6.27386 -3.47761 -1.8193e-19)
(6.26539 -4.05528 -1.18107e-19)
(6.04981 -4.6375 1.14021e-19)
(5.92677 -5.1614 2.24622e-19)
(5.77151 -5.6643 1.08325e-19)
(5.64026 -6.14546 -4.27859e-19)
(5.57368 -6.613 4.71543e-19)
(5.4329 -7.05683 1.01491e-19)
(5.32175 -7.4518 4.99788e-19)
(5.17831 -7.86119 -2.40319e-21)
(5.07322 -8.22895 4.61562e-20)
(4.94728 -8.59942 -8.45808e-19)
(4.83272 -8.93861 2.31945e-19)
(4.727 -9.27704 0)
(4.61453 -9.58005 -4.28116e-20)
(4.5089 -9.92454 -3.77946e-19)
(5.31264 -0.411415 6.3061e-20)
(5.17074 -1.0773 -1.29939e-19)
(5.15431 -1.75563 2.54964e-19)
(5.16677 -2.46113 -6.20356e-20)
(5.02463 -3.07737 -6.20072e-20)
(4.88971 -3.70983 0)
(4.82165 -4.29515 -1.16833e-19)
(4.75833 -4.83704 2.29083e-19)
(4.65421 -5.36708 -1.12326e-19)
(4.5503 -5.83995 1.09255e-19)
(4.41395 -6.3114 -5.4443e-20)
(4.3591 -6.76177 -1.04466e-19)
(4.25395 -7.18866 2.04969e-19)
(4.18251 -7.59669 -2.00486e-19)
(4.10194 -7.98281 4.98311e-20)
(4.01093 -8.35522 3.43171e-34)
(3.94165 -8.70748 -4.70768e-20)
(3.84609 -9.04476 2.75377e-19)
(3.78134 -9.35631 -1.35446e-19)
(3.69003 -9.69445 -9.69177e-20)
(-0.186907 -6.39354 1.70951e-19)
(1.88252 -22.3639 5.74728e-20)
(2.68399 -36.5322 0)
(3.26929 -42.292 7.76356e-20)
(3.32097 -42.8313 7.12072e-20)
(3.25939 -42.4705 6.65542e-20)
(3.19759 -41.8841 0)
(3.151 -41.3501 5.97959e-20)
(3.08549 -40.8625 0)
(3.02558 -40.4056 0)
(2.95089 -40.0318 -4.79314e-20)
(2.8806 -39.6176 4.18839e-21)
(2.8006 -39.2337 9.01996e-20)
(2.73358 -38.8801 0)
(2.64656 -38.5091 3.87671e-20)
(2.5861 -38.0251 3.64989e-20)
(2.4494 -37.4892 3.44122e-20)
(2.4234 -36.9128 0)
(2.25183 -36.4221 -6.07476e-20)
(2.27142 -35.9448 5.92255e-20)
(0.343888 -7.71209 2.12016e-19)
(2.51764 -24.009 -2.19731e-19)
(4.04255 -38.0042 0)
(4.4949 -42.8381 -3.80788e-19)
(4.50378 -42.9586 3.58056e-19)
(4.41795 -42.4548 -6.01001e-19)
(4.3158 -41.8181 2.60705e-19)
(4.22727 -41.2987 1.72913e-19)
(4.139 -40.7858 -7.76087e-19)
(4.04454 -40.3499 4.29179e-19)
(3.96327 -39.8708 -4.94913e-20)
(3.86445 -39.4636 3.61396e-19)
(3.78788 -39.0645 -1.59029e-20)
(3.67901 -38.6274 -3.34361e-19)
(3.58831 -38.1877 -3.87656e-20)
(3.49302 -37.7351 -3.65018e-20)
(3.37667 -37.2446 -3.44161e-20)
(3.3119 -36.6788 0)
(3.14976 -36.2275 -2.37449e-19)
(3.1433 -35.789 9.78106e-21)
(0.896285 -8.41637 0)
(3.47085 -25.1362 0)
(5.52494 -38.6937 0)
(5.97554 -42.6422 -1.50891e-19)
(5.93322 -42.6035 1.40688e-19)
(5.77408 -42.0448 0)
(5.63687 -41.4781 -1.24729e-19)
(5.50669 -40.9222 3.42464e-19)
(5.37156 -40.4306 -3.40414e-19)
(5.24607 -39.9603 4.02682e-19)
(5.11747 -39.5784 -4.91686e-19)
(4.98742 -39.1599 0)
(4.85459 -38.7486 -3.3239e-19)
(4.73379 -38.3709 -2.97138e-19)
(4.60465 -38.0039 5.40536e-19)
(4.48814 -37.5339 -5.514e-19)
(4.31133 -36.9879 4.77689e-19)
(4.23056 -36.4112 0)
(4.00879 -35.9407 -5.18668e-19)
(4.00035 -35.4602 8.86497e-19)
(1.08607 -9.67957 8.38819e-19)
(4.70673 -26.5172 0)
(6.92491 -39.4994 3.21271e-19)
(7.26385 -42.7332 4.39425e-19)
(7.17319 -42.4547 -8.54956e-19)
(6.96314 -41.8253 2.6242e-19)
(6.78461 -41.2217 1.24725e-19)
(6.62036 -40.7129 1.24709e-18)
(6.45888 -40.1914 -1.72997e-18)
(6.29862 -39.7482 -1.59358e-19)
(6.15161 -39.2587 8.71734e-19)
(5.99526 -38.8376 1.74643e-19)
(5.86615 -38.4527 -8.12238e-19)
(5.70423 -38.0283 7.91671e-19)
(5.5643 -37.5792 2.17629e-19)
(5.40666 -37.1211 -1.34649e-19)
(5.24072 -36.6316 1.91797e-19)
(5.12192 -36.0805 0)
(4.90279 -35.6396 -5.38106e-20)
(4.88636 -35.2267 0)
(1.69876 -10.189 0)
(5.59574 -27.4047 1.04728e-18)
(8.42543 -39.6601 -1.63164e-18)
(8.68155 -42.2387 1.4599e-18)
(8.53675 -41.8665 -1.13443e-18)
(8.30858 -41.2734 -2.62793e-19)
(8.08811 -40.7202 0)
(7.87852 -40.1604 6.52432e-19)
(7.66851 -39.6733 -8.6608e-19)
(7.47181 -39.2045 9.67481e-19)
(7.28395 -38.829 -7.55351e-19)
(7.09219 -38.4213 -1.74629e-19)
(6.90045 -37.9976 7.91609e-19)
(6.72091 -37.612 -1.35949e-18)
(6.54313 -37.2523 8.47641e-19)
(6.36825 -36.7955 -2.78047e-19)
(6.1545 -36.2664 -6.10595e-19)
(6.00824 -35.7059 1.38663e-18)
(5.74167 -35.2743 -7.84669e-19)
(5.7063 -34.7913 -9.08113e-19)
(2.21787 -10.8391 1.30264e-18)
(6.83503 -28.2839 1.28387e-18)
(9.86411 -39.9337 -1.28846e-18)
(10.0493 -41.9929 -2.88701e-19)
(9.80905 -41.4734 2.74789e-19)
(9.52181 -40.8569 9.88403e-19)
(9.24777 -40.2607 -9.71078e-19)
(9.00391 -39.7683 0)
(8.7679 -39.2583 7.97898e-19)
(8.53563 -38.8216 -7.84579e-19)
(8.32002 -38.3371 -6.94501e-19)
(8.09924 -37.9191 6.83306e-19)
(7.91402 -37.5571 0)
(7.69987 -37.1531 0)
(7.50702 -36.7229 1.19786e-18)
(7.29263 -36.3017 -1.17278e-18)
(7.0767 -35.8264 -9.28374e-19)
(6.89169 -35.2922 9.14673e-19)
(6.61249 -34.8456 -8.17064e-19)
(6.58584 -34.4469 1.01084e-18)
(2.75501 -11.3056 -9.53219e-19)
(8.12809 -28.6505 3.52084e-19)
(11.3075 -39.5622 6.49442e-20)
(11.45 -41.2077 1.4658e-18)
(11.1338 -40.6784 0)
(10.817 -40.1007 0)
(10.4978 -39.5715 1.77714e-18)
(10.2031 -39.0366 -9.50093e-20)
(9.91152 -38.5704 -1.62357e-18)
(9.63917 -38.1206 1.4299e-18)
(9.38593 -37.7661 -1.40643e-18)
(9.13195 -37.3777 0)
(8.87842 -36.9658 1.15756e-18)
(8.6378 -36.5944 -1.13941e-18)
(8.40752 -36.2428 0)
(8.17165 -35.7994 0)
(7.91532 -35.3105 0)
(7.70164 -34.7793 0)
(7.39252 -34.3819 0)
(7.32763 -33.9028 -9.64282e-20)
(3.35737 -11.7778 9.13213e-19)
(9.4158 -29.1295 -1.56814e-18)
(12.7149 -39.3759 0)
(12.7481 -40.624 0)
(12.3675 -40.0268 2.23211e-18)
(11.9958 -39.4639 1.19663e-19)
(11.625 -38.9053 -2.02252e-18)
(11.2945 -38.4411 0)
(10.9842 -37.9626 1.84101e-19)
(10.6764 -37.5498 -1.70861e-19)
(10.393 -37.0903 0)
(10.105 -36.7024 1.47438e-19)
(9.86141 -36.366 -1.23717e-18)
(9.59447 -35.9934 2.23463e-18)
(9.34845 -35.6103 -5.42665e-20)
(9.08573 -35.246 -9.39571e-19)
(8.8216 -34.8026 -1.02764e-19)
(8.56588 -34.2901 9.57083e-20)
(8.23148 -33.8475 0)
(8.17108 -33.4352 8.45531e-20)
(3.94181 -12.0556 5.90752e-19)
(10.6899 -29.1258 5.07311e-19)
(14.0305 -38.6238 -1.79293e-18)
(14.0409 -39.6203 5.17172e-19)
(13.5771 -39.0566 2.26441e-19)
(13.1747 -38.5121 1.96449e-18)
(12.7608 -38.0199 -2.72791e-18)
(12.3846 -37.5405 1.97193e-18)
(12.0163 -37.1156 -1.57691e-18)
(11.6708 -36.7055 1.86275e-18)
(11.3515 -36.383 2.98551e-19)
(11.0374 -36.0193 1.24121e-18)
(10.7249 -35.6486 -7.00544e-19)
(10.4272 -35.3064 -1.32446e-18)
(10.1425 -34.9694 1.16494e-18)
(9.84723 -34.5546 0)
(9.54795 -34.1208 2.93083e-19)
(9.26813 -33.6372 8.10295e-20)
(8.91746 -33.2555 -1.64417e-19)
(8.82324 -32.7921 7.04727e-20)
(4.56868 -12.3217 -1.11984e-18)
(11.9566 -29.2073 1.16695e-18)
(15.3332 -38.0346 -2.85633e-20)
(15.2296 -38.7349 -1.00836e-18)
(14.725 -38.1619 -9.27861e-19)
(14.2759 -37.6663 -4.40242e-19)
(13.8222 -37.1693 -2.4248e-20)
(13.4057 -36.7424 -3.76053e-19)
(13.0253 -36.3121 0)
(12.6442 -35.9382 -3.22223e-19)
(12.297 -35.5273 -2.98548e-19)
(11.9453 -35.1944 -1.98463e-20)
(11.6427 -34.8849 9.42472e-19)
(11.3238 -34.5611 -4.88758e-19)
(11.0303 -34.2451 -1.04613e-18)
(10.7275 -33.9385 8.12607e-19)
(10.4212 -33.5457 5.18577e-19)
(10.0999 -33.068 -8.75153e-19)
(9.7197 -32.6511 1.64639e-19)
(9.62146 -32.2211 1.00239e-18)
(5.1808 -12.4316 -2.69734e-18)
(13.1578 -28.9079 2.75501e-18)
(16.4878 -36.9996 -3.02377e-18)
(16.3683 -37.5607 2.46064e-18)
(15.7862 -37.0402 2.1426e-18)
(15.2973 -36.5439 -1.66136e-18)
(14.796 -36.098 -2.17031e-18)
(14.3435 -35.6957 8.81153e-20)
(13.9088 -35.326 1.29701e-18)
(13.4964 -34.9739 -8.44175e-19)
(13.1154 -34.6852 2.13794e-18)
(12.7452 -34.356 -1.27492e-18)
(12.3826 -34.0522 -2.37522e-19)
(12.0347 -33.7466 5.939e-19)
(11.6972 -33.445 -1.55193e-18)
(11.3524 -33.086 7.39499e-19)
(11.0133 -32.7202 0)
(10.674 -32.3024 -1.18319e-18)
(10.2801 -31.9282 1.16273e-18)
(10.1572 -31.4916 -9.07896e-19)
(5.80791 -12.5035 5.13184e-19)
(14.3241 -28.6079 5.76382e-19)
(17.6397 -36.0772 2.48816e-18)
(17.4153 -36.4118 2.14227e-18)
(16.7967 -35.9197 -1.29439e-18)
(16.2771 -35.498 1.79994e-18)
(15.7596 -35.0765 -1.0614e-18)
(15.2624 -34.6986 1.21624e-18)
(14.8186 -34.335 -2.3132e-18)
(14.3726 -34.0155 8.21534e-19)
(13.9689 -33.6811 0)
(13.5608 -33.4114 0)
(13.1998 -33.1358 0)
(12.8328 -32.8747 -1.46613e-18)
(12.4978 -32.6307 1.44348e-18)
(12.1578 -32.3808 0)
(11.8163 -32.0522 0)
(11.4399 -31.6365 -1.25519e-19)
(11.0238 -31.2563 0)
(10.8898 -30.8239 -1.02607e-18)
(6.41135 -12.4636 -9.69624e-19)
(15.4075 -28.0583 -2.41845e-18)
(18.6007 -34.8168 -1.7211e-18)
(18.3735 -35.1122 -3.0624e-19)
(17.6841 -34.6689 2.25038e-18)
(17.1091 -34.2506 -4.55971e-19)
(16.5418 -33.8617 -9.01801e-20)
(16.0191 -33.5441 -1.4564e-18)
(15.5289 -33.2323 0)
(15.0576 -32.9486 -6.97914e-19)
(14.6219 -32.6937 1.11409e-18)
(14.202 -32.4172 0)
(13.8008 -32.1927 1.41268e-18)
(13.4087 -31.929 -1.39053e-18)
(13.0246 -31.6854 1.17867e-18)
(12.6474 -31.4101 -2.10707e-18)
(12.2746 -31.1283 1.05902e-18)
(11.89 -30.7904 1.25527e-19)
(11.457 -30.4399 -9.60569e-20)
(11.3054 -30.0226 7.60953e-19)
(6.99958 -12.3654 -1.27042e-18)
(16.4315 -27.421 8.44739e-20)
(19.5519 -33.597 1.21012e-19)
(19.2272 -33.7401 2.99302e-18)
(18.5404 -33.3493 2.52091e-19)
(17.9387 -33.0131 -1.57645e-18)
(17.3702 -32.6729 -1.08316e-18)
(16.8066 -32.3586 3.49629e-19)
(16.3066 -32.079 1.18677e-18)
(15.8085 -31.8259 -1.23858e-18)
(15.359 -31.592 5.96518e-19)
(14.9022 -31.377 -1.50861e-18)
(14.4866 -31.1504 1.17921e-18)
(14.0794 -30.9592 -1.10774e-18)
(13.7038 -30.7751 9.71779e-19)
(13.3281 -30.5825 7.7734e-19)
(12.9594 -30.3339 -8.92516e-19)
(12.5449 -30.0152 6.52235e-19)
(12.1022 -29.688 -6.26793e-19)
(11.9369 -29.2692 -6.80979e-19)
(7.56343 -12.2102 -1.5699e-18)
(17.3831 -26.6627 -2.91899e-19)
(20.3124 -32.2002 1.53131e-18)
(19.9511 -32.3494 -1.28773e-18)
(19.2183 -31.9973 1.26463e-18)
(18.5655 -31.6779 2.91531e-19)
(17.9478 -31.3662 0)
(17.3659 -31.1279 -2.07797e-19)
(16.8303 -30.8747 5.59415e-19)
(16.3069 -30.6616 -1.96908e-18)
(15.8245 -30.4457 1.3793e-18)
(15.3663 -30.2483 2.96483e-19)
(14.9343 -30.0967 1.46232e-19)
(14.5039 -29.8874 0)
(14.0845 -29.7153 2.40027e-20)
(13.6896 -29.5332 7.27041e-19)
(13.2916 -29.3428 -7.08234e-20)
(12.8806 -29.0951 8.61342e-20)
(12.4215 -28.797 -5.5932e-19)
(12.2491 -28.4021 1.1656e-19)
(8.0761 -11.963 1.40691e-18)
(18.2184 -25.721 -2.42911e-18)
(21.0416 -30.739 1.36375e-18)
(20.5896 -30.7983 1.13162e-18)
(19.8813 -30.5207 -9.52548e-20)
(19.2198 -30.2811 -7.78191e-19)
(18.606 -30.0251 1.95952e-19)
(17.9938 -29.7938 2.07802e-19)
(17.45 -29.6023 0)
(16.9144 -29.4221 0)
(16.4305 -29.2951 -1.0364e-18)
(15.9321 -29.1215 1.69692e-18)
(15.4727 -28.9631 -9.04028e-19)
(15.0359 -28.8415 0)
(14.6165 -28.7066 2.48749e-20)
(14.2088 -28.5686 -6.00683e-19)
(13.8206 -28.4219 5.83204e-19)
(13.3912 -28.2288 -6.43703e-20)
(12.9344 -27.9721 -3.62991e-19)
(12.7498 -27.5796 2.58467e-19)
(8.5744 -11.686 -1.23673e-18)
(18.9908 -24.7742 1.55686e-18)
(21.6195 -29.2957 0)
(21.0951 -29.3619 0)
(20.3392 -29.1052 2.06364e-19)
(19.6331 -28.889 -9.84528e-19)
(18.9854 -28.67 3.8531e-20)
(18.3553 -28.5012 6.65473e-19)
(17.7838 -28.3141 -1.05154e-18)
(17.216 -28.1602 1.95477e-18)
(16.6956 -27.9975 -9.05675e-19)
(16.2167 -27.9044 1.84482e-19)
(15.7536 -27.8037 6.60443e-19)
(15.2927 -27.6599 -2.60662e-20)
(14.8521 -27.566 -3.82773e-19)
(14.4397 -27.4591 5.98345e-20)
(14.0197 -27.3408 -3.31262e-19)
(13.6077 -27.2115 2.76624e-19)
(13.1504 -27.016 2.18128e-20)
(12.9734 -26.6623 1.467e-19)
(9.00039 -11.3039 0)
(19.5846 -23.5761 7.23544e-19)
(22.0786 -27.6504 -7.96491e-19)
(21.5187 -27.6688 0)
(20.7947 -27.5112 -2.06382e-19)
(20.0946 -27.3741 6.15167e-19)
(19.4463 -27.2051 -7.64464e-19)
(18.8067 -27.0775 0)
(18.2319 -26.9707 7.89502e-19)
(17.6734 -26.8664 -7.76348e-19)
(17.1598 -26.8157 6.05587e-20)
(16.6294 -26.6845 -7.78163e-20)
(16.1502 -26.6236 -6.56135e-20)
(15.6915 -26.5582 -5.44946e-20)
(15.2306 -26.4666 -2.62538e-19)
(14.805 -26.3966 3.65825e-19)
(14.3963 -26.3499 -2.39853e-19)
(13.9672 -26.2678 1.27443e-19)
(13.5108 -26.1209 -2.40481e-20)
(13.3363 -25.7955 5.01047e-21)
(9.43311 -10.9449 0)
(20.1707 -22.5107 -8.23697e-19)
(22.4634 -26.1739 4.4045e-19)
(21.8091 -26.211 4.88e-19)
(21.0376 -26.0459 -8.01895e-20)
(20.2916 -25.9419 -7.23913e-20)
(19.6319 -25.8194 -4.54713e-19)
(18.965 -25.7174 0)
(18.3719 -25.6173 0)
(17.7742 -25.5217 0)
(17.2276 -25.4279 -6.05586e-20)
(16.7365 -25.4225 0)
(16.2387 -25.3608 -1.54267e-19)
(15.764 -25.3043 1.43597e-19)
(15.3067 -25.273 -5.45911e-21)
(14.8616 -25.1951 -4.96235e-20)
(14.4153 -25.1484 5.41755e-20)
(14.0149 -25.1518 1.86197e-19)
(13.5747 -25.0985 -3.56836e-19)
(13.3855 -24.7542 2.10129e-19)
(9.77692 -10.4584 0)
(20.5275 -21.2205 0)
(22.6395 -24.4224 1.72595e-19)
(21.9757 -24.448 1.48542e-19)
(21.2691 -24.4001 0)
(20.5448 -24.3642 3.09711e-19)
(19.8816 -24.2894 -3.04285e-19)
(19.236 -24.2663 0)
(18.6423 -24.2379 2.55884e-19)
(18.0774 -24.2177 -2.51618e-19)
(17.5344 -24.2063 0)
(16.9838 -24.1167 1.12782e-20)
(16.5027 -24.1478 8.19565e-20)
(16.0241 -24.1192 -8.33428e-20)
(15.5423 -24.089 0)
(15.1008 -24.0739 0)
(14.6257 -24.0453 0)
(14.1709 -23.9905 3.43589e-19)
(13.7463 -23.9533 -3.67943e-19)
(13.4488 -23.7159 0)
(1.54919 -34.6803 0)
(1.51391 -32.6327 0)
(0.827559 -31.3865 -2.3311e-21)
(0.685914 -30.1036 -1.51326e-21)
(0.453101 -29.2349 0)
(0.303191 -28.3541 2.17341e-22)
(0.185221 -27.631 -3.55337e-23)
(0.0948821 -27.0809 0)
(0.054345 -26.6179 -1.00709e-21)
(0.00998792 -26.21 0)
(-0.0376119 -25.895 1.50255e-21)
(-0.0298211 -25.5986 8.8535e-22)
(-0.0801639 -25.4217 -8.90046e-22)
(-0.0225315 -25.2289 -2.02288e-21)
(-0.0946355 -25.1216 0)
(0.0399643 -24.8432 5.68401e-22)
(-0.0429233 -24.3354 -2.89586e-21)
(0.141306 -21.6106 0)
(-0.00617368 -15.4995 0)
(0.119615 -6.37628 -2.44913e-21)
(2.35164 -34.56 2.48042e-20)
(2.21686 -32.5413 0)
(1.40684 -31.3358 9.82002e-21)
(1.13374 -30.1327 -6.0126e-21)
(0.823606 -29.2685 0)
(0.593201 -28.3723 -2.51134e-22)
(0.435174 -27.647 -1.78717e-22)
(0.291776 -27.094 0)
(0.220919 -26.6331 -1.31806e-21)
(0.136923 -26.2285 2.33761e-21)
(0.075839 -25.9029 -4.73828e-21)
(0.062916 -25.6042 6.84178e-21)
(-0.000204254 -25.4276 -5.55459e-21)
(0.0377174 -25.2292 1.90268e-21)
(-0.0471854 -25.131 2.08822e-21)
(0.0786223 -24.8484 -2.28609e-21)
(-0.0196614 -24.3486 4.62152e-21)
(0.145969 -21.6207 6.01828e-21)
(0.0049567 -15.4967 3.01557e-21)
(0.114482 -6.35978 3.05904e-21)
(2.9774 -34.2834 -1.50785e-20)
(2.6252 -32.3623 -1.97191e-20)
(1.71819 -31.1263 -8.4419e-21)
(1.39089 -29.947 0)
(1.03343 -29.1186 0)
(0.753243 -28.2567 -3.26195e-22)
(0.572077 -27.5643 -1.69336e-21)
(0.398827 -27.0323 -1.34755e-21)
(0.312188 -26.5825 -1.14739e-21)
(0.212818 -26.1798 4.81859e-21)
(0.137293 -25.8762 0)
(0.113047 -25.5866 0)
(0.0432032 -25.4143 0)
(0.0788653 -25.2241 8.25573e-21)
(-0.00960886 -25.1317 0)
(0.110927 -24.8577 9.11714e-21)
(0.00688378 -24.3625 -9.37649e-21)
(0.163952 -21.6376 -3.33847e-21)
(0.0211595 -15.5076 -6.00781e-21)
(0.117595 -6.35139 -9.85192e-21)
(3.79852 -34.0691 3.19013e-20)
(3.29821 -32.2266 -5.86734e-20)
(2.27735 -31.057 3.03829e-21)
(1.82959 -29.9511 1.34648e-20)
(1.39452 -29.1289 0)
(1.03509 -28.2596 -1.62421e-21)
(0.817308 -27.5692 8.43982e-21)
(0.59116 -27.035 -8.78548e-21)
(0.474001 -26.5899 8.32853e-21)
(0.338484 -26.1918 -5.89763e-21)
(0.249185 -25.8782 -4.52569e-22)
(0.204126 -25.5869 7.38581e-21)
(0.121283 -25.4158 -7.41954e-21)
(0.136928 -25.2205 -4.02411e-21)
(0.037913 -25.1374 -4.25206e-21)
(0.146463 -24.8622 -9.11171e-21)
(0.0390712 -24.3753 1.17516e-20)
(0.181434 -21.6542 -3.96717e-21)
(0.0281212 -15.5161 2.44098e-21)
(0.120047 -6.33645 9.7792e-21)
(4.37923 -33.7226 8.98186e-20)
(3.69196 -31.9832 1.30557e-20)
(2.56927 -30.8105 -1.30831e-20)
(2.08288 -29.7382 1.72481e-20)
(1.59439 -28.9622 0)
(1.19006 -28.1323 2.93442e-22)
(0.951442 -27.4764 -1.85966e-21)
(0.696924 -26.9625 0)
(0.563733 -26.5307 1.69726e-22)
(0.414699 -26.1366 0)
(0.309675 -25.8472 1.29018e-20)
(0.252954 -25.5651 0)
(0.163803 -25.3982 0)
(0.17855 -25.2119 1.69746e-20)
(0.0763623 -25.1344 -8.58205e-21)
(0.17847 -24.8701 9.25158e-21)
(0.0673266 -24.3883 0)
(0.194875 -21.6805 -2.00648e-21)
(0.031348 -15.5334 2.45068e-21)
(0.125776 -6.32945 0)
(5.19493 -33.4054 3.30002e-20)
(4.33386 -31.7998 -2.35113e-20)
(3.10643 -30.7187 2.97307e-20)
(2.50716 -29.7179 -2.80527e-20)
(1.94552 -28.946 2.67261e-21)
(1.46321 -28.1206 -2.94355e-22)
(1.18997 -27.47 4.65522e-21)
(0.885171 -26.9545 7.48648e-21)
(0.720669 -26.5304 -4.68637e-21)
(0.538639 -26.1419 -1.23989e-20)
(0.418879 -25.8422 5.92506e-21)
(0.341672 -25.5599 0)
(0.239221 -25.3958 0)
(0.233376 -25.2048 3.67423e-24)
(0.12229 -25.1365 8.6614e-21)
(0.210515 -24.8736 -9.24262e-21)
(0.0916046 -24.402 0)
(0.211984 -21.705 1.74954e-20)
(0.0407419 -15.5523 1.84901e-20)
(0.127965 -6.31979 1.22592e-21)
(5.73534 -32.9917 -8.82237e-20)
(4.70472 -31.4914 7.88119e-20)
(3.38263 -30.4384 -1.4007e-20)
(2.74715 -29.4829 0)
(2.13584 -28.7638 -2.68395e-21)
(1.61441 -27.9834 -6.35839e-21)
(1.32011 -27.3687 1.71096e-21)
(0.990093 -26.8722 -7.50757e-21)
(0.809522 -26.4631 0)
(0.615498 -26.0811 0)
(0.477476 -25.8071 -1.42294e-20)
(0.389318 -25.534 1.42808e-20)
(0.280779 -25.3741 0)
(0.273527 -25.1923 -2.57454e-20)
(0.158295 -25.1293 8.74318e-21)
(0.23845 -24.8786 9.42297e-21)
(0.116714 -24.4154 -9.45442e-21)
(0.220958 -21.7379 -2.17602e-20)
(0.0513141 -15.5774 -1.22638e-20)
(0.129922 -6.31328 -2.40251e-21)
(6.52087 -32.5742 0)
(5.31966 -31.2583 -3.3755e-20)
(3.89617 -30.3208 3.38641e-20)
(3.151 -29.4369 0)
(2.47718 -28.7221 0)
(1.87965 -27.9572 7.52942e-21)
(1.55023 -27.3505 -7.55266e-21)
(1.17389 -26.8541 0)
(0.96137 -26.4555 -1.13414e-20)
(0.736935 -26.0791 2.44498e-20)
(0.583546 -25.7943 -1.31138e-20)
(0.475082 -25.5235 -1.57641e-20)
(0.352966 -25.3673 1.57923e-20)
(0.325086 -25.1819 0)
(0.199327 -25.1274 0)
(0.266297 -24.882 9.48378e-21)
(0.141679 -24.4293 -1.43744e-20)
(0.230809 -21.7732 -6.66988e-23)
(0.0507792 -15.6062 7.42339e-21)
(0.129536 -6.30773 -2.36146e-21)
(7.01084 -32.0948 4.79943e-20)
(5.66911 -30.8866 -4.80472e-20)
(4.1727 -30.006 -2.7865e-20)
(3.37405 -29.1844 2.4488e-20)
(2.66031 -28.5274 -5.20864e-21)
(2.02949 -27.8104 6.83449e-21)
(1.67614 -27.2418 -8.74703e-21)
(1.27883 -26.7633 0)
(1.04996 -26.3803 0)
(0.814201 -26.0135 -1.29446e-20)
(0.640514 -25.7553 0)
(0.522716 -25.4934 0)
(0.393832 -25.3416 0)
(0.362243 -25.1644 0)
(0.230385 -25.1153 0)
(0.291539 -24.8754 0)
(0.1649 -24.4426 9.77768e-21)
(0.239388 -21.8088 -9.78447e-21)
(0.0507233 -15.6397 2.4828e-21)
(0.12825 -6.30581 -2.36408e-21)
(7.7385 -31.5849 -6.32665e-20)
(6.2467 -30.6083 -6.14197e-20)
(4.66098 -29.8573 -4.52504e-21)
(3.75506 -29.1076 5.19903e-21)
(2.98953 -28.4632 8.34108e-21)
(2.28801 -27.7694 -7.2167e-21)
(1.89695 -27.2116 -6.83627e-21)
(1.45797 -26.7362 0)
(1.1966 -26.3655 1.29337e-20)
(0.933103 -26.0034 -2.47755e-20)
(0.743707 -25.7343 -1.46693e-20)
(0.605737 -25.4776 -1.60639e-20)
(0.462905 -25.33 0)