/*--------------------------------*- C++ -*----------------------------------*\
  =========                 |
  \\      /  F ield         | OpenFOAM: The Open Source CFD Toolbox
   \\    /   O peration     | Website:  https://openfoam.org
    \\  /    A nd           | Version:  9
     \\/     M anipulation  |
\*---------------------------------------------------------------------------*/
FoamFile
{
    format      ascii;
    class       surfaceScalarField;
    location    "6.8";
    object      phi;
}
// * * * * * * * * * * * * * * * * * * * * * * * * * * * * * * * * * * * * * //

dimensions      [0 3 -1 0 0 0 0];

internalField   nonuniform List<scalar> 
92080
(
-0.00236311
-0.530215
0.532578
-0.0268008
-1.08561
1.11005
-0.0702512
-1.2131
1.25655
-0.114619
-1.19579
1.24016
-0.158026
-1.17502
1.21843
-0.200663
-1.15583
1.19847
-0.242539
-1.13721
1.17908
-0.28369
-1.1189
1.16005
-0.324881
-1.10183
1.14302
-0.366239
-1.08647
1.12783
-0.406939
-1.0724
1.1131
-0.446891
-1.05908
1.09903
-0.486307
-1.04687
1.08628
-0.525145
-1.03552
1.07436
-0.563452
-1.02424
1.06255
-0.60092
-1.01315
1.05062
-0.637442
-1.00238
1.0389
-0.673594
-0.990968
1.02712
-0.709309
-0.978846
1.01456
-0.97065
1.00335
-0.742011
-0.00449029
-0.525725
-0.0324505
-1.05765
-0.0772803
-1.16827
-0.123654
-1.14942
-0.168704
-1.12997
-0.213092
-1.11144
-0.256409
-1.09389
-0.299134
-1.07618
-0.340994
-1.05997
-0.382793
-1.04467
-0.424851
-1.03034
-0.466593
-1.01733
-0.50795
-1.00551
-0.5487
-0.994774
-0.588439
-0.984499
-0.627592
-0.973995
-0.66539
-0.964577
-0.700799
-0.955559
-0.734612
-0.945034
-0.93712
-0.768142
-0.00480467
-0.52092
-0.0346022
-1.02786
-0.0818637
-1.12101
-0.129325
-1.10196
-0.176317
-1.08298
-0.222788
-1.06497
-0.268508
-1.04817
-0.313502
-1.03118
-0.358039
-1.01543
-0.401466
-1.00124
-0.444486
-0.987321
-0.487507
-0.974312
-0.530129
-0.962888
-0.572532
-0.95237
-0.614199
-0.942832
-0.655105
-0.933089
-0.696855
-0.922827
-0.737427
-0.914987
-0.775998
-0.906462
-0.898104
-0.815014
-0.00753213
-0.513388
-0.0401173
-0.995271
-0.0900677
-1.07106
-0.140594
-1.05143
-0.189249
-1.03432
-0.236753
-1.01747
-0.282791
-1.00213
-0.328083
-0.985892
-0.373158
-0.970359
-0.417945
-0.956454
-0.461981
-0.943285
-0.505929
-0.930364
-0.549822
-0.918994
-0.593389
-0.908804
-0.636797
-0.899423
-0.678454
-0.891432
-0.719566
-0.881715
-0.761807
-0.872746
-0.802371
-0.865898
-0.857899
-0.842576
-0.00953001
-0.503858
-0.045627
-0.959174
-0.0958464
-1.02084
-0.145698
-1.00158
-0.195838
-0.984185
-0.246084
-0.967221
-0.295411
-0.952807
-0.342876
-0.938428
-0.389677
-0.923558
-0.436098
-0.910034
-0.481798
-0.897585
-0.527095
-0.885068
-0.572396
-0.873694
-0.617195
-0.864004
-0.662319
-0.8543
-0.70723
-0.846521
-0.750296
-0.838649
-0.793741
-0.829301
-0.837572
-0.822067
-0.815174
-0.880297
-0.0101252
-0.493732
-0.050844
-0.918455
-0.102731
-0.968952
-0.154703
-0.949608
-0.205063
-0.933825
-0.25485
-0.917434
-0.304805
-0.902852
-0.354053
-0.88918
-0.401797
-0.875814
-0.44936
-0.86247
-0.496356
-0.850589
-0.542622
-0.838802
-0.58941
-0.826906
-0.635916
-0.817498
-0.681849
-0.808367
-0.727942
-0.800428
-0.772836
-0.793754
-0.816537
-0.785601
-0.860521
-0.778083
-0.770493
-0.905203
-0.00930081
-0.484432
-0.0539838
-0.873772
-0.107467
-0.915469
-0.160568
-0.896507
-0.213697
-0.880696
-0.266001
-0.86513
-0.317152
-0.8517
-0.368034
-0.838299
-0.41802
-0.825827
-0.466621
-0.813869
-0.515087
-0.802123
-0.562065
-0.791823
-0.608788
-0.780183
-0.656059
-0.770227
-0.703287
-0.761139
-0.751106
-0.75261
-0.798172
-0.746687
-0.844304
-0.739469
-0.888797
-0.73359
-0.726321
-0.932968
-0.00742944
-0.477002
-0.0529402
-0.828262
-0.108305
-0.860103
-0.162372
-0.842441
-0.21541
-0.827658
-0.26872
-0.81182
-0.321756
-0.798665
-0.373555
-0.7865
-0.425427
-0.773955
-0.47627
-0.763027
-0.526643
-0.75175
-0.576189
-0.742277
-0.624272
-0.7321
-0.672415
-0.722084
-0.719416
-0.714138
-0.767468
-0.704558
-0.815361
-0.698794
-0.863091
-0.691739
-0.910049
-0.686632
-0.681393
-0.954977
-0.00450127
-0.472501
-0.0530132
-0.77975
-0.111962
-0.801154
-0.17011
-0.784292
-0.225911
-0.771858
-0.279711
-0.75802
-0.333278
-0.745098
-0.385886
-0.733892
-0.43743
-0.722411
-0.488634
-0.711823
-0.539302
-0.701082
-0.59002
-0.691559
-0.639024
-0.683096
-0.688648
-0.67246
-0.737356
-0.66543
-0.785694
-0.65622
-0.834942
-0.649547
-0.883444
-0.643236
-0.93331
-0.636766
-0.633175
-0.981529
-0.00169724
-0.470804
-0.0536556
-0.727791
-0.113929
-0.740881
-0.171364
-0.726858
-0.228734
-0.714487
-0.284577
-0.702177
-0.339454
-0.690221
-0.393393
-0.679953
-0.446741
-0.669063
-0.498795
-0.659769
-0.549989
-0.649888
-0.601621
-0.639928
-0.651824
-0.632893
-0.70094
-0.623344
-0.750228
-0.616142
-0.797897
-0.608551
-0.846427
-0.601016
-0.893912
-0.595752
-0.94213
-0.588547
-0.58386
-0.991445
-0.00366167
-0.467142
-0.0579811
-0.673472
-0.120169
-0.678693
-0.180626
-0.666401
-0.238587
-0.656525
-0.294908
-0.645856
-0.350635
-0.634494
-0.404707
-0.625881
-0.457712
-0.616058
-0.510406
-0.607075
-0.561051
-0.599242
-0.612094
-0.588885
-0.663364
-0.581623
-0.71381
-0.572899
-0.764709
-0.565243
-0.814347
-0.558912
-0.864012
-0.551351
-0.913369
-0.546395
-0.961115
-0.540801
-0.535595
-1.00938
-0.0111523
-0.45599
-0.0670724
-0.617552
-0.128846
-0.616919
-0.188191
-0.607056
-0.247179
-0.597537
-0.303786
-0.589249
-0.36027
-0.578011
-0.416525
-0.569626
-0.470937
-0.561646
-0.525184
-0.552829
-0.577288
-0.547138
-0.627315
-0.538858
-0.676976
-0.531962
-0.725141
-0.524734
-0.774009
-0.516376
-0.822811
-0.51011
-0.871289
-0.502873
-0.921128
-0.496556
-0.970397
-0.491532
-0.486749
-1.01924
-0.0195861
-0.436404
-0.0759687
-0.561169
-0.135619
-0.557269
-0.195308
-0.547367
-0.254022
-0.538824
-0.311145
-0.532126
-0.366286
-0.52287
-0.421579
-0.514333
-0.475887
-0.507338
-0.530684
-0.498032
-0.585942
-0.49188
-0.639309
-0.485491
-0.692163
-0.479107
-0.742762
-0.474135
-0.791762
-0.467376
-0.840485
-0.461386
-0.887937
-0.455422
-0.93539
-0.449103
-0.983663
-0.44326
-0.438467
-1.03195
-0.0284877
-0.407916
-0.0869083
-0.502748
-0.148023
-0.496155
-0.207127
-0.488263
-0.265599
-0.480352
-0.323479
-0.474247
-0.380391
-0.465957
-0.43633
-0.458394
-0.490135
-0.453533
-0.542287
-0.44588
-0.595231
-0.438935
-0.647769
-0.432953
-0.700211
-0.426665
-0.752576
-0.421771
-0.803483
-0.416469
-0.853606
-0.411263
-0.902746
-0.406281
-0.950512
-0.401337
-0.997653
-0.396119
-0.390762
-1.04536
-0.0350037
-0.372912
-0.0933364
-0.444416
-0.15226
-0.437231
-0.210001
-0.430521
-0.267582
-0.422771
-0.323102
-0.418727
-0.377908
-0.411152
-0.434626
-0.401675
-0.491661
-0.396498
-0.546541
-0.391
-0.600687
-0.384789
-0.65416
-0.37948
-0.707059
-0.373766
-0.759661
-0.369169
-0.811815
-0.364315
-0.863558
-0.359519
-0.91471
-0.35513
-0.965334
-0.350712
-1.01457
-0.34688
-0.34233
-1.063
-0.0415265
-0.331386
-0.100782
-0.38516
-0.161155
-0.376859
-0.221691
-0.369984
-0.282849
-0.361613
-0.343538
-0.358038
-0.398106
-0.356583
-0.450549
-0.349233
-0.504243
-0.342804
-0.557468
-0.337776
-0.610256
-0.332
-0.662504
-0.327232
-0.714301
-0.321969
-0.76591
-0.31756
-0.816703
-0.313522
-0.867147
-0.309075
-0.917529
-0.304747
-0.967606
-0.300636
-1.01771
-0.296777
-0.293088
-1.06695
-0.0440538
-0.287332
-0.104354
-0.32486
-0.164323
-0.31689
-0.220415
-0.313892
-0.276319
-0.30571
-0.336933
-0.297424
-0.397208
-0.296308
-0.453551
-0.292889
-0.508497
-0.287859
-0.56231
-0.283962
-0.615433
-0.278877
-0.667998
-0.274667
-0.719714
-0.270253
-0.771306
-0.265968
-0.822572
-0.262256
-0.872768
-0.258879
-0.922622
-0.254894
-0.972123
-0.251135
-1.02131
-0.247594
-0.243844
-1.07055
-0.0489729
-0.238359
-0.112167
-0.261665
-0.174493
-0.254565
-0.23592
-0.252464
-0.29043
-0.2512
-0.344439
-0.243415
-0.401843
-0.238905
-0.458595
-0.236137
-0.514408
-0.232046
-0.569519
-0.228852
-0.623188
-0.225208
-0.676541
-0.221314
-0.728845
-0.217949
-0.780487
-0.214325
-0.831734
-0.21101
-0.882718
-0.207896
-0.932335
-0.205276
-0.981649
-0.201821
-1.03011
-0.199131
-0.195974
-1.07798
-0.053367
-0.184992
-0.112512
-0.202521
-0.168511
-0.198566
-0.228796
-0.192178
-0.287948
-0.192049
-0.34268
-0.188683
-0.397707
-0.183878
-0.45291
-0.180934
-0.507909
-0.177047
-0.563278
-0.173482
-0.617142
-0.171344
-0.670787
-0.167669
-0.723453
-0.165283
-0.775848
-0.16193
-0.826987
-0.159871
-0.878318
-0.156564
-0.928668
-0.154926
-0.978217
-0.152272
-1.02724
-0.150106
-0.147881
-1.07534
-0.0585741
-0.126418
-0.124836
-0.136259
-0.184949
-0.138453
-0.242811
-0.134316
-0.302113
-0.132746
-0.359809
-0.130987
-0.414931
-0.128756
-0.47021
-0.125655
-0.523333
-0.123923
-0.576316
-0.120499
-0.629012
-0.118649
-0.680777
-0.115904
-0.732247
-0.113813
-0.783303
-0.110874
-0.834129
-0.109046
-0.883955
-0.106739
-0.934107
-0.104774
-0.983281
-0.103098
-1.03217
-0.101216
-1.08059
-0.0994627
0.0441824
-0.0462164
0.00203397
0.170899
-0.364014
0.237298
0.341936
-0.942296
0.771259
0.451962
-1.33865
1.22862
0.497225
-1.49007
1.44481
0.512265
-1.51951
1.50447
0.519493
-1.51848
1.51125
0.520957
-1.50787
1.5064
0.521673
-1.49494
1.49422
0.522032
-1.48438
1.48402
0.522041
-1.47458
1.47457
0.522398
-1.46553
1.46518
0.521704
-1.45684
1.45754
0.520169
-1.44777
1.4493
0.518011
-1.43925
1.44141
0.515217
-1.42906
1.43185
0.512053
-1.42058
1.42375
0.508293
-1.40885
1.41261
0.503451
-1.39696
1.4018
-1.38075
0.498687
1.38551
0.0433543
-0.0895707
0.177477
-0.498136
0.315208
-1.08003
0.395642
-1.41908
0.424808
-1.51923
0.43515
-1.52985
0.439916
-1.52325
0.440311
-1.50826
0.441354
-1.49598
0.441978
-1.485
0.441977
-1.47458
0.440639
-1.4642
0.43878
-1.45498
0.436717
-1.4457
0.43401
-1.43655
0.431084
-1.42613
0.427161
-1.41666
0.422143
-1.40384
0.415835
-1.39065
-1.37491
0.410001
0.0444872
-0.134058
0.171242
-0.624891
0.285241
-1.19403
0.342305
-1.47615
0.3601
-1.53703
0.367405
-1.53715
0.369073
-1.52491
0.369876
-1.50907
0.370148
-1.49625
0.369376
-1.48423
0.367558
-1.47276
0.365581
-1.46222
0.363109
-1.45251
0.35986
-1.44245
0.355584
-1.43227
0.350457
-1.421
0.344679
-1.41088
0.338327
-1.39748
0.331453
-1.38377
-1.36843
0.324971
0.0445482
-0.178606
0.157266
-0.737608
0.247531
-1.28429
0.286461
-1.51508
0.297981
-1.54855
0.302704
-1.54188
0.30229
-1.5245
0.302085
-1.50886
0.300775
-1.49494
0.298613
-1.48207
0.295925
-1.47008
0.292331
-1.45863
0.287733
-1.44791
0.282613
-1.43733
0.277092
-1.42675
0.27135
-1.41526
0.265014
-1.40454
0.258028
-1.3905
0.250339
-1.37609
-1.36077
0.242675
0.0501697
-0.228776
0.145843
-0.833281
0.21661
-1.35506
0.241441
-1.53991
0.247109
-1.55422
0.246684
-1.54145
0.244905
-1.52272
0.242611
-1.50657
0.239456
-1.49179
0.235544
-1.47816
0.23063
-1.46516
0.225125
-1.45312
0.219471
-1.44226
0.213268
-1.43113
0.206198
-1.41968
0.198591
-1.40765
0.190155
-1.39611
0.181089
-1.38143
0.171614
-1.36661
-1.35169
0.162539
0.0552856
-0.284061
0.132594
-0.91059
0.184499
-1.40696
0.196788
-1.5522
0.197324
-1.55475
0.193427
-1.53756
0.189508
-1.5188
0.184838
-1.5019
0.179561
-1.48651
0.173479
-1.47208
0.16704
-1.45872
0.160112
-1.44619
0.152178
-1.43433
0.143775
-1.42273
0.134912
-1.41082
0.125661
-1.3984
0.116238
-1.38669
0.106584
-1.37178
0.0964964
-1.35652
-1.3414
0.0861998
0.0451602
-0.329222
0.107583
-0.973012
0.148879
-1.44826
0.15531
-1.55863
0.153133
-1.55258
0.147726
-1.53215
0.141902
-1.51298
0.135265
-1.49526
0.127683
-1.47893
0.119536
-1.46393
0.11042
-1.44961
0.100704
-1.43648
0.0908827
-1.4245
0.0805727
-1.41242
0.0698838
-1.40013
0.0591033
-1.38762
0.0477015
-1.37528
0.0358454
-1.35992
0.0236272
-1.34431
-1.32929
0.0115166
0.0401424
-0.369364
0.0968331
-1.0297
0.122293
-1.47372
0.121131
-1.55747
0.113014
-1.54446
0.103869
-1.523
0.0945292
-1.50364
0.0848385
-1.48557
0.0748878
-1.46898
0.0643541
-1.45339
0.0536926
-1.43895
0.042653
-1.42544
0.0309417
-1.41279
0.0189822
-1.40046
0.00632177
-1.38747
-0.00681086
-1.37449
-0.0198031
-1.36229
-0.0326625
-1.34706
-0.0459437
-1.33102
-1.31583
-0.0594022
0.032701
-0.402065
0.0768503
-1.07385
0.093037
-1.48991
0.0871368
-1.55157
0.0772996
-1.53462
0.0670684
-1.51277
0.0558197
-1.49239
0.0439249
-1.47368
0.0312353
-1.45629
0.0181162
-1.44028
0.00421407
-1.42504
-0.0100513
-1.41117
-0.0245283
-1.39832
-0.0393403
-1.38565
-0.054052
-1.37276
-0.0687762
-1.35977
-0.0839668
-1.3471
-0.0990486
-1.33198
-0.114359
-1.31571
-1.30029
-0.129895
0.0281409
-0.430206
0.0641652
-1.10988
0.0713013
-1.49704
0.0606517
-1.54092
0.0459717
-1.51994
0.0311665
-1.49797
0.0161976
-1.47742
0.00111947
-1.4586
-0.0140383
-1.44113
-0.0295763
-1.42474
-0.0451588
-1.40946
-0.0610336
-1.3953
-0.0771841
-1.38217
-0.0933794
-1.36945
-0.110111
-1.35602
-0.127113
-1.34276
-0.143954
-1.33026
-0.160551
-1.31538
-0.177334
-1.29893
-1.28332
-0.194301
0.0252073
-0.455413
0.0521184
-1.13679
0.0500713
-1.495
0.0345532
-1.5254
0.0176112
-1.503
0.000579366
-1.48094
-0.0169516
-1.45989
-0.0348256
-1.44072
-0.0529955
-1.42296
-0.0713095
-1.40642
-0.0900944
-1.39068
-0.109041
-1.37635
-0.128292
-1.36291
-0.147815
-1.34993
-0.166932
-1.33691
-0.185977
-1.32372
-0.205217
-1.31102
-0.223797
-1.2968
-0.242227
-1.2805
-1.26478
-0.260772
0.0208702
-0.476284
0.0410311
-1.15695
0.0329909
-1.48696
0.0136612
-1.50607
-0.00720386
-1.48213
-0.0278216
-1.46032
-0.0485817
-1.43913
-0.0693583
-1.41995
-0.0902091
-1.40211
-0.111199
-1.38543
-0.132084
-1.36979
-0.153093
-1.35534
-0.174019
-1.34199
-0.194923
-1.32902
-0.216255
-1.31557
-0.237525
-1.30245
-0.258756
-1.28979
-0.279787
-1.27577
-0.300487
-1.2598
-1.24405
-0.321213
0.0170211
-0.493305
0.0295377
-1.16946
0.0146644
-1.47208
-0.00850716
-1.4829
-0.0319524
-1.45869
-0.0554958
-1.43677
-0.0790742
-1.41555
-0.1028
-1.39622
-0.126421
-1.37849
-0.150085
-1.36177
-0.173987
-1.34589
-0.197775
-1.33155
-0.221778
-1.31799
-0.245756
-1.30504
-0.269206
-1.29212
-0.292536
-1.27912
-0.31564
-1.26668
-0.33802
-1.25339
-0.360049
-1.23777
-1.22207
-0.382033
0.0140223
-0.507327
0.0211105
-1.17655
0.00216958
-1.45314
-0.0240725
-1.45665
-0.0506824
-1.43208
-0.077114
-1.41034
-0.103638
-1.38903
-0.130038
-1.36982
-0.156476
-1.35205
-0.182739
-1.33551
-0.208985
-1.31964
-0.235432
-1.30511
-0.26153
-1.29189
-0.287744
-1.27883
-0.314202
-1.26567
-0.340353
-1.25297
-0.36643
-1.24061
-0.391817
-1.228
-0.416372
-1.21322
-1.1975
-0.440942
0.0103558
-0.517683
0.0108648
-1.17706
-0.0141089
-1.42817
-0.0439252
-1.42684
-0.0734902
-1.40251
-0.102858
-1.38098
-0.132044
-1.35984
-0.161398
-1.34047
-0.190397
-1.32305
-0.219255
-1.30665
-0.247817
-1.29108
-0.276193
-1.27673
-0.304684
-1.2634
-0.332583
-1.25093
-0.360282
-1.23797
-0.388103
-1.22515
-0.415727
-1.21298
-0.442881
-1.20085
-0.468534
-1.18756
-1.17206
-0.493975
0.00824314
-0.525926
0.00474422
-1.17356
-0.0228266
-1.4006
-0.054931
-1.39473
-0.0870015
-1.37044
-0.118844
-1.34913
-0.150527
-1.32816
-0.182101
-1.30889
-0.213922
-1.29123
-0.245577
-1.27499
-0.277274
-1.25938
-0.308956
-1.24505
-0.340554
-1.2318
-0.372084
-1.2194
-0.402789
-1.20726
-0.43313
-1.19481
-0.463394
-1.18272
-0.493308
-1.17094
-0.522242
-1.15863
-1.14382
-0.550477
0.00475319
-0.530679
-0.00507011
-1.16374
-0.0376329
-1.36803
-0.0732033
-1.35916
-0.108132
-1.33551
-0.142767
-1.3145
-0.177112
-1.29381
-0.211302
-1.2747
-0.244952
-1.25758
-0.278448
-1.2415
-0.311457
-1.22638
-0.344162
-1.21234
-0.376998
-1.19896
-0.410175
-1.18622
-0.443291
-1.17415
-0.475832
-1.16226
-0.508191
-1.15036
-0.53991
-1.13922
-0.570045
-1.12849
-1.11426
-0.599607
0.00309406
-0.533773
-0.01004
-1.15061
-0.0441532
-1.33392
-0.081402
-1.32191
-0.118077
-1.29884
-0.154482
-1.27809
-0.190699
-1.2576
-0.227078
-1.23833
-0.263673
-1.22098
-0.300146
-1.20503
-0.336774
-1.18975
-0.372922
-1.1762
-0.408238
-1.16365
-0.443371
-1.15109
-0.478774
-1.13874
-0.513929
-1.12711
-0.549138
-1.11515
-0.5848
-1.10355
-0.619219
-1.09408
-1.08155
-0.651932
-0.000281776
-0.533491
-0.0189673
-1.13192
-0.056904
-1.29598
-0.0970461
-1.28177
-0.136592
-1.25929
-0.175544
-1.23914
-0.213937
-1.2192
-0.252016
-1.20025
-0.289715
-1.18328
-0.327192
-1.16755
-0.364707
-1.15223
-0.402755
-1.13815
-0.440656
-1.12574
-0.477885
-1.11386
-0.514883
-1.10175
-0.552088
-1.0899
-0.588761
-1.07848
-0.625861
-1.06645
-0.664316
-1.05562
-1.04499
-0.700881
-0.00091349
-0.0227821
-0.0622158
-0.103828
-0.144694
-0.185366
-0.225485
-0.265677
-0.305938
-0.34566
-0.384793
-0.423914
-0.463375
-0.502877
-0.542078
-0.581366
-0.620949
-0.660283
-0.701342
-0.742975
0.398988
-12.0468
12.1465
0.314796
-11.4852
11.5694
0.248389
-11.2062
11.2726
0.196375
-10.9214
10.9734
0.149116
-10.6182
10.6655
0.116206
-10.3967
10.4296
0.0867184
-10.1816
10.2111
0.0637606
-10.0218
10.0448
0.0453772
-9.85938
9.87776
0.0306604
-9.7352
9.74992
0.0191795
-9.63029
9.64177
0.0101822
-9.53826
9.54726
0.00306968
-9.4645
9.47161
-0.00217768
-9.39671
9.40196
-0.00604524
-9.34688
9.35075
-0.00772642
-9.26994
9.27162
-0.00632668
-9.01475
9.01335
-0.0051414
-7.99844
7.99726
-0.00369177
-5.64667
5.64522
-2.37968
2.37599
0.307954
-11.9447
0.231641
-11.4089
0.173431
-11.148
0.127367
-10.8753
0.0850123
-10.5759
0.055197
-10.3669
0.0294214
-10.1559
0.0101641
-10.0025
-0.00395181
-9.84526
-0.0145394
-9.72461
-0.0217159
-9.62311
-0.026442
-9.53354
-0.0290924
-9.46185
-0.0297369
-9.39607
-0.0287846
-9.34784
-0.0254645
-9.27326
-0.0190063
-9.0212
-0.0120406
-8.00541
-0.00628289
-5.65243
-2.38596
0.227458
-11.8472
0.147674
-11.3291
0.0853239
-11.0856
0.0414557
-10.8314
0.00324354
-10.5376
-0.0202101
-10.3434
-0.0397936
-10.1363
-0.0531797
-9.98916
-0.0615326
-9.83691
-0.066606
-9.71954
-0.0682176
-9.6215
-0.0674268
-9.53433
-0.0646045
-9.46467
-0.0597344
-9.40094
-0.0533999
-9.35417
-0.0445198
-9.28214
-0.0319186
-9.03381
-0.018573
-8.01876
-0.00841086
-5.66259
-2.39437
0.137798
-11.7423
0.0649909
-11.2563
0.0111171
-11.0317
-0.0266928
-10.7936
-0.0597152
-10.5046
-0.0807202
-10.3224
-0.0964574
-10.1205
-0.106252
-9.97936
-0.110457
-9.83271
-0.111468
-9.71853
-0.108842
-9.62413
-0.103817
-9.53935
-0.0965585
-9.47193
-0.0871581
-9.41034
-0.0760082
-9.36532
-0.0622636
-9.29589
-0.0444847
-9.05158
-0.0249497
-8.03829
-0.0101455
-5.6774
-2.40452
0.0617827
-11.6416
-0.0161904
-11.1783
-0.0757451
-10.9722
-0.111829
-10.7576
-0.13971
-10.4767
-0.155109
-10.307
-0.164881
-10.1108
-0.168929
-9.97532
-0.167495
-9.83414
-0.163064
-9.72296
-0.154967
-9.63222
-0.144473
-9.54985
-0.131769
-9.48464
-0.116952
-9.42515
-0.100573
-9.3817
-0.0812108
-9.31525
-0.057226
-9.07557
-0.0315458
-8.06397
-0.0117716
-5.69717
-2.41629
-0.0245006
-11.5309
-0.0953476
-11.1075
-0.145855
-10.9217
-0.17777
-10.7256
-0.201891
-10.4526
-0.214614
-10.2943
-0.220653
-10.1047
-0.221179
-9.97479
-0.215713
-9.83961
-0.207288
-9.73138
-0.194995
-9.64452
-0.180297
-9.56454
-0.163239
-9.50169
-0.144069
-9.44432
-0.123021
-9.40275
-0.0988601
-9.33941
-0.0695396
-9.10489
-0.0376911
-8.09582
-0.0125618
-5.7223
-2.42885
-0.0977032
-11.4217
-0.176888
-11.0283
-0.232823
-10.8657
-0.261687
-10.6968
-0.280156
-10.4341
-0.287507
-10.287
-0.287775
-10.1045
-0.282729
-9.97984
-0.271793
-9.85054
-0.258032
-9.74515
-0.240407
-9.66214
-0.220336
-9.58462
-0.197934
-9.5241
-0.173514
-9.46874
-0.147391
-9.42887
-0.11771
-9.36909
-0.0821803
-9.14042
-0.0440186
-8.13398
-0.0129519
-5.75337
-2.44181
-0.176567
-11.3045
-0.249104
-10.9558
-0.298853
-10.816
-0.325296
-10.6703
-0.340889
-10.4186
-0.345737
-10.2821
-0.34236
-10.1078
-0.333887
-9.98831
-0.319043
-9.86539
-0.301373
-9.76282
-0.279655
-9.68386
-0.255466
-9.6088
-0.228849
-9.55071
-0.200268
-9.49733
-0.169581
-9.45956
-0.135429
-9.40325
-0.0945925
-9.18126
-0.0500823
-8.17849
-0.0126353
-5.79081
-2.45444
-0.249628
-11.1848
-0.330861
-10.8745
-0.384303
-10.7626
-0.407009
-10.6476
-0.416807
-10.4088
-0.416556
-10.2824
-0.407684
-10.1167
-0.393876
-10.0021
-0.373766
-9.8855
-0.350901
-9.78568
-0.324048
-9.71071
-0.294671
-9.63818
-0.262874
-9.58251
-0.229176
-9.53102
-0.193531
-9.4952
-0.154321
-9.44245
-0.107383
-9.22819
-0.0563066
-8.22957
-0.0128053
-5.83432
-2.46725
-0.321265
-11.0578
-0.396429
-10.7994
-0.446717
-10.7123
-0.468496
-10.6258
-0.475875
-10.4014
-0.473245
-10.285
-0.460825
-10.1291
-0.443654
-10.0193
-0.419788
-9.90936
-0.393112
-9.81236
-0.36231
-9.74152
-0.328965
-9.67153
-0.293119
-9.61836
-0.255376
-9.56877
-0.215331
-9.53525
-0.172112
-9.48567
-0.119995
-9.28031
-0.0625141
-8.28705
-0.0135519
-5.88328
-2.4808
-0.392919
-10.9257
-0.476612
-10.7157
-0.529081
-10.6598
-0.547115
-10.6078
-0.548893
-10.3996
-0.54147
-10.2924
-0.523895
-10.1467
-0.501647
-10.0415
-0.472745
-9.93827
-0.441051
-9.84405
-0.405334
-9.77723
-0.367005
-9.70985
-0.326177
-9.65918
-0.283498
-9.61144
-0.23867
-9.58008
-0.190425
-9.53392
-0.13245
-9.33829
-0.0688423
-8.35066
-0.0143998
-5.93772
-2.4952
-0.458671
-10.7882
-0.536688
-10.6376
-0.588081
-10.6084
-0.606364
-10.5895
-0.606099
-10.3999
-0.596314
-10.3022
-0.57533
-10.1677
-0.549764
-10.0671
-0.517281
-9.97075
-0.481858
-9.87947
-0.442344
-9.81675
-0.400212
-9.75199
-0.355508
-9.70389
-0.308931
-9.65802
-0.259938
-9.62907
-0.207629
-9.58623
-0.144604
-9.40131
-0.0750772
-8.42018
-0.0153397
-5.99746
-2.51054
-0.527358
-10.6429
-0.613845
-10.5512
-0.666213
-10.556
-0.681157
-10.5746
-0.675612
-10.4054
-0.661417
-10.3164
-0.635698
-10.1934
-0.60532
-10.0975
-0.56808
-10.008
-0.527844
-9.91971
-0.483647
-9.86094
-0.436746
-9.79889
-0.387308
-9.75333
-0.336115
-9.70922
-0.282545
-9.68264
-0.225362
-9.64341
-0.156911
-9.46976
-0.081581
-8.49551
-0.0164152
-6.06262
-2.52695
-0.589404
-10.4944
-0.669454
-10.4711
-0.721976
-10.5035
-0.738106
-10.5585
-0.730844
-10.4127
-0.714138
-10.3331
-0.685151
-10.2224
-0.651504
-10.1311
-0.610851
-10.0486
-0.566998
-9.96356
-0.519172
-9.90877
-0.468653
-9.84941
-0.415515
-9.80646
-0.360588
-9.76414
-0.303165
-9.74006
-0.242203
-9.70437
-0.169004
-9.54296
-0.0879934
-8.57652
-0.0175731
-6.13304
-2.54453
-0.655573
-10.3328
-0.743344
-10.3833
-0.79519
-10.4517
-0.808411
-10.5452
-0.796355
-10.4247
-0.775698
-10.3538
-0.742431
-10.2557
-0.704244
-10.1693
-0.659147
-10.0937
-0.610727
-10.012
-0.55848
-9.96102
-0.503466
-9.90442
-0.445874
-9.86406
-0.386638
-9.82338
-0.324883
-9.80182
-0.259408
-9.76985
-0.181226
-9.62114
-0.0946167
-8.66313
-0.0188519
-6.20881
-2.56338
-0.711522
-10.1718
-0.794609
-10.3002
-0.847647
-10.3986
-0.863033
-10.5299
-0.849479
-10.4383
-0.826066
-10.3772
-0.789671
-10.2921
-0.748258
-10.2107
-0.699911
-10.1421
-0.648005
-10.0639
-0.592301
-10.0167
-0.53385
-9.96287
-0.472736
-9.92517
-0.409944
-9.88617
-0.34469
-9.86707
-0.275853
-9.83868
-0.193322
-9.70367
-0.101309
-8.75515
-0.020243
-6.28987
-2.58362
-0.77602
-9.99535
-0.864932
-10.2113
-0.915287
-10.3483
-0.928002
-10.5171
-0.910514
-10.4558
-0.883668
-10.404
-0.843498
-10.3322
-0.797846
-10.2564
-0.745394
-10.1945
-0.689192
-10.1201
-0.629322
-10.0766
-0.566651
-10.0255
-0.501377
-9.99044
-0.434549
-9.953
-0.36531
-9.93631
-0.292468
-9.91153
-0.20547
-9.79067
-0.108216
-8.8524
-0.0217929
-6.3763
-2.60541
-0.828982
-9.8183
-0.91315
-10.1272
-0.964672
-10.2968
-0.979898
-10.5019
-0.960967
-10.4747
-0.931105
-10.4339
-0.888028
-10.3753
-0.839258
-10.3051
-0.783754
-10.25
-0.724267
-10.1796
-0.661134
-10.1397
-0.595217
-10.0915
-0.526602
-10.0591
-0.456452
-10.0231
-0.384249
-10.0085
-0.308509
-9.98727
-0.217575
-9.88161
-0.114991
-8.95498
-0.0233327
-6.46796
-2.62875
-0.88788
-9.6313
-0.981575
-10.0335
-1.02868
-10.2497
-1.04138
-10.4892
-1.01912
-10.497
-0.985776
-10.4672
-0.938971
-10.4221
-0.886032
-10.3581
-0.826569
-10.3095
-0.763
-10.2431
-0.695892
-10.2068
-0.625994
-10.1614
-0.553494
-10.1316
-0.479592
-10.097
-0.403577
-10.0845
-0.324322
-10.0665
-0.229537
-9.97639
-0.122547
-9.06197
-0.0254566
-6.56505
-2.6542
-0.925679
-9.4486
-1.02328
-9.93588
-1.0708
-10.2021
-1.08678
-10.4732
-1.06501
-10.5187
-1.02923
-10.503
-0.980528
-10.4708
-0.924618
-10.414
-0.862589
-10.3715
-0.795757
-10.31
-0.725698
-10.2769
-0.652577
-10.2345
-0.577054
-10.2071
-0.499964
-10.1741
-0.42152
-10.163
-0.339766
-10.1483
-0.240949
-10.0752
-0.129397
-9.17353
-0.0273666
-6.66708
-2.68157
9.06234
-8.56385
-9.94709
7.87943
-8.75297
6.88381
-9.20651
5.86488
-9.4543
4.9825
-9.63635
4.19963
-9.72014
3.53462
-9.8058
2.9579
-9.83728
2.45574
-9.86937
2.03024
-9.88448
1.66831
-9.91496
1.35732
-9.92348
1.08875
-9.93851
0.851761
-9.93715
0.64402
-9.95523
0.450131
-9.95439
0.292048
-9.91713
0.191225
-9.0727
0.106606
-6.58246
-2.57496
5.43806
-8.16188
-5.84003
5.02708
-8.34199
4.56764
-8.74706
4.0388
-8.92546
3.54529
-9.14283
3.09303
-9.26789
2.68267
-9.39544
2.31852
-9.47313
1.99903
-9.54988
1.71934
-9.6048
1.45985
-9.65547
1.22237
-9.686
1.00128
-9.71743
0.802107
-9.73798
0.610061
-9.76319
0.434924
-9.77925
0.233594
-9.7158
0.0971626
-8.93627
-0.0401865
-6.44511
-2.61515
4.05874
-8.05906
-4.16156
3.97714
-8.2604
3.74568
-8.5156
3.48686
-8.66664
3.19465
-8.85063
2.903
-8.97623
2.60288
-9.09532
2.31425
-9.1845
2.03423
-9.26986
1.76531
-9.33588
1.50122
-9.39137
1.24883
-9.43361
1.01118
-9.47978
0.793255
-9.52005
0.581466
-9.5514
0.384364
-9.58215
0.21047
-9.5419
0.105426
-8.83123
0.0275854
-6.36727
-2.58756
2.76523
-8.08114
-2.74315
2.73102
-8.22619
2.60581
-8.39039
2.4737
-8.53453
2.30589
-8.68282
2.12034
-8.79068
1.92221
-8.89719
1.71956
-8.98185
1.51478
-9.06508
1.31546
-9.13656
1.12661
-9.20252
0.951291
-9.2583
0.784313
-9.3128
0.625086
-9.36082
0.475405
-9.40172
0.334024
-9.44077
0.187053
-9.39493
0.106827
-8.751
0.0721528
-6.33259
-2.51541
2.06009
-8.12654
-2.0147
2.06793
-8.23402
2.05092
-8.37338
1.99023
-8.47384
1.88573
-8.57832
1.76407
-8.66903
1.6254
-8.75852
1.47771
-8.83416
1.32406
-8.91144
1.16793
-8.98042
1.00966
-9.04425
0.852431
-9.10106
0.69177
-9.15214
0.530169
-9.19922
0.376027
-9.24758
0.226246
-9.29099
0.0970231
-9.26571
0.0436447
-8.69762
0.0526633
-6.34161
-2.46275
1.56557
-8.167
-1.52511
1.58527
-8.25372
1.54962
-8.33773
1.49904
-8.42326
1.41934
-8.49861
1.3253
-8.57499
1.21847
-8.65169
1.10357
-8.71926
0.981804
-8.78967
0.853837
-8.85246
0.724084
-8.9145
0.593368
-8.97035
0.466212
-9.02499
0.343003
-9.07601
0.218984
-9.12356
0.0946933
-9.16669
-0.0175038
-9.15351
-0.0437767
-8.67135
0.039714
-6.4251
-2.42303
1.22181
-8.1877
-1.20111
1.21859
-8.2505
1.19863
-8.31776
1.15611
-8.38075
1.1033
-8.4458
1.03587
-8.50755
0.955092
-8.57091
0.866902
-8.63107
0.768846
-8.69162
0.661592
-8.7452
0.548079
-8.80099
0.429406
-8.85167
0.308741
-8.90432
0.184253
-8.95152
0.061068
-9.00037
-0.0590256
-9.0466
-0.159918
-9.05262
-0.17471
-8.65656
-0.0189885
-6.58082
-2.44202
1.00775
-8.19834
-0.99711
1.00468
-8.24743
0.982702
-8.29579
0.942424
-8.34047
0.888657
-8.39204
0.820847
-8.43974
0.742435
-8.4925
0.655091
-8.54372
0.560169
-8.59669
0.457512
-8.64255
0.350108
-8.69358
0.236971
-8.73854
0.123113
-8.79046
0.00571498
-8.83412
-0.109473
-8.88518
-0.223513
-8.93256
-0.325388
-8.95074
-0.33876
-8.64319
-0.115582
-6.804
-2.5576
0.795938
-8.19286
-0.801426
0.774776
-8.22627
0.743879
-8.26489
0.702991
-8.29958
0.652568
-8.34161
0.596562
-8.38374
0.53253
-8.42847
0.455931
-8.46713
0.367351
-8.50811
0.272415
-8.54761
0.169887
-8.59106
0.0600178
-8.62867
-0.0571292
-8.67332
-0.176632
-8.71462
-0.296534
-8.76528
-0.424351
-8.80474
-0.536102
-8.83899
-0.570812
-8.60848
-0.278024
-7.09679
-2.83563
0.661323
-8.18178
-0.672395
0.642458
-8.2074
0.614273
-8.2367
0.576025
-8.26134
0.529719
-8.29531
0.471984
-8.326
0.403402
-8.35989
0.324441
-8.38816
0.235983
-8.41965
0.140448
-8.45208
0.036217
-8.48683
-0.0758881
-8.51656
-0.196951
-8.55225
-0.328051
-8.58352
-0.463617
-8.62972
-0.611455
-8.65691
-0.757003
-8.69344
-0.81999
-8.54549
-0.514843
-7.40194
-3.35047
0.522393
-8.1599
-0.544273
0.492425
-8.17744
0.455918
-8.2002
0.415427
-8.22085
0.367961
-8.24784
0.307664
-8.26571
0.237353
-8.28958
0.161643
-8.31245
0.0815038
-8.33951
-0.00836459
-8.36221
-0.10976
-8.38543
-0.217833
-8.40849
-0.339171
-8.43092
-0.472291
-8.4504
-0.626963
-8.47504
-0.794295
-8.48957
-0.971303
-8.51644
-1.05987
-8.45692
-0.816863
-7.64495
-4.16733
0.423494
-8.14152
-0.441881
0.398934
-8.15288
0.367215
-8.16848
0.328286
-8.18192
0.277148
-8.1967
0.223146
-8.2117
0.161602
-8.22803
0.0905932
-8.24145
0.0115928
-8.26051
-0.0749609
-8.27565
-0.170997
-8.28939
-0.276265
-8.30322
-0.396131
-8.31105
-0.530685
-8.31585
-0.683404
-8.32232
-0.847973
-8.32501
-1.04355
-8.32086
-1.18661
-8.31385
-1.01006
-7.8215
-5.17739
0.32206
-8.1142
-0.349381
0.290185
-8.121
0.253703
-8.132
0.211621
-8.13984
0.168793
-8.15387
0.12001
-8.16292
0.0683348
-8.17636
0.00890467
-8.18202
-0.0577597
-8.19385
-0.130938
-8.20248
-0.209118
-8.21121
-0.296725
-8.21561
-0.390516
-8.21726
-0.499277
-8.20709
-0.619616
-8.20198
-0.752741
-8.19188
-0.905667
-8.16793
-1.06069
-8.15884
-0.939752
-7.94244
-6.11714
0.26041
-8.09131
-0.283296
0.234968
-8.09556
0.206288
-8.10332
0.174835
-8.10838
0.136158
-8.1152
0.0924637
-8.11923
0.042962
-8.12686
-0.00830493
-8.13075
-0.0631598
-8.139
-0.124419
-8.14122
-0.1913
-8.14433
-0.264962
-8.14195
-0.34143
-8.14079
-0.42447
-8.12405
-0.507584
-8.11887
-0.600864
-8.0986
-0.693973
-8.07482
-0.801536
-8.05127
-0.768344
-7.97563
-6.88549
0.180123
-8.06692
-0.204508
0.153397
-8.06883
0.124719
-8.07464
0.093287
-8.07695
0.0592768
-8.08119
0.0245704
-8.08452
-0.0125777
-8.08971
-0.05139
-8.09194
-0.0923796
-8.09801
-0.136109
-8.09749
-0.182125
-8.09832
-0.230997
-8.09308
-0.280754
-8.09103
-0.328357
-8.07644
-0.377451
-8.06978
-0.424889
-8.05116
-0.46773
-8.03198
-0.510289
-8.00871
-0.505675
-7.98024
-7.39116
0.13453
-8.05051
-0.150949
0.117558
-8.05186
0.0977504
-8.05483
0.0754376
-8.05464
0.0499463
-8.0557
0.0223034
-8.05688
-0.00606967
-8.06133
-0.0353117
-8.06269
-0.0681997
-8.06512
-0.102029
-8.06366
-0.13663
-8.06372
-0.171551
-8.05816
-0.205591
-8.05699
-0.234862
-8.04717
-0.262795
-8.04184
-0.286309
-8.02765
-0.297729
-8.02056
-0.305113
-8.00133
-0.28017
-8.00519
-7.67133
0.0701809
-8.03637
-0.0843181
0.0549635
-8.03664
0.0377744
-8.03764
0.0200236
-8.03689
0.00347474
-8.03915
-0.013098
-8.0403
-0.0325001
-8.04193
-0.0518982
-8.0433
-0.0730383
-8.04398
-0.0940799
-8.04262
-0.115322
-8.04247
-0.134914
-8.03857
-0.154172
-8.03774
-0.170181
-8.03116
-0.183471
-8.02855
-0.192905
-8.01821
-0.198935
-8.01453
-0.201861
-7.9984
-0.197262
-8.00979
-7.86859
0.047332
-8.02769
-0.0560066
0.0382785
-8.02759
0.0283016
-8.02766
0.0183015
-8.02689
0.00672023
-8.02757