/*--------------------------------*- C++ -*----------------------------------*\
  =========                 |
  \\      /  F ield         | OpenFOAM: The Open Source CFD Toolbox
   \\    /   O peration     | Website:  https://openfoam.org
    \\  /    A nd           | Version:  9
     \\/     M anipulation  |
\*---------------------------------------------------------------------------*/
FoamFile
{
    format      ascii;
    class       volVectorField;
    location    "6.8";
    object      U;
}
// * * * * * * * * * * * * * * * * * * * * * * * * * * * * * * * * * * * * * //

dimensions      [0 1 -1 0 0 0 0];

internalField   nonuniform List<vector> 
46400
(
(9.4804 -9.35859 -2.35308e-19)
(19.9066 -18.9881 2.1171e-19)
(21.9033 -21.9327 -5.63341e-20)
(21.2079 -21.9194 -3.8836e-20)
(20.4739 -21.8924 -4.45046e-20)
(19.7674 -21.8864 -1.58745e-20)
(19.1403 -21.858 -1.72542e-20)
(18.4922 -21.8428 2.78226e-20)
(17.9131 -21.8085 -3.46074e-20)
(17.3704 -21.843 4.0645e-20)
(16.8664 -21.8639 -4.59481e-20)
(16.3809 -21.8883 0)
(15.9243 -21.9102 3.37936e-19)
(15.4839 -21.9258 -3.86596e-19)
(15.0559 -21.9364 -5.15049e-19)
(14.6513 -21.9399 -9.79171e-20)
(14.2448 -21.9306 -3.11322e-20)
(13.8551 -21.9178 4.26129e-19)
(13.5236 -21.8146 6.06315e-19)
(13.0196 -22.0165 -5.51196e-19)
(9.79191 -8.84944 0)
(20.0287 -17.7957 -2.7869e-20)
(21.7503 -20.2227 0)
(21.1121 -20.3881 2.31764e-20)
(20.4231 -20.4237 -3.26537e-20)
(19.7503 -20.5029 1.1306e-20)
(19.1144 -20.524 0)
(18.4957 -20.5607 -2.78232e-20)
(17.9169 -20.5892 3.46078e-20)
(17.3641 -20.6097 -4.06451e-20)
(16.844 -20.6603 5.06947e-19)
(16.3565 -20.7094 3.96243e-20)
(15.9002 -20.7772 -4.30517e-19)
(15.4882 -20.8524 0)
(15.0815 -20.9191 6.18308e-20)
(14.6948 -20.9632 6.47987e-20)
(14.3261 -21.0272 0)
(13.9574 -21.0331 -6.30981e-19)
(13.6342 -20.9762 -1.72349e-19)
(13.2003 -21.1615 6.42466e-19)
(10.0861 -8.36123 -2.18816e-20)
(20.1507 -16.5686 -7.35067e-20)
(21.7419 -18.7752 4.79555e-20)
(20.9497 -18.8424 1.36495e-19)
(20.259 -18.9239 -1.34023e-19)
(19.5549 -19.0348 0)
(18.9444 -19.1232 -5.19639e-19)
(18.3004 -19.2023 4.47529e-19)
(17.7269 -19.2765 -6.14705e-19)
(17.1785 -19.3663 6.09766e-19)
(16.6588 -19.4311 6.03912e-19)
(16.1737 -19.5178 -4.97378e-20)
(15.7154 -19.61 -5.3188e-19)
(15.284 -19.6931 0)
(14.8704 -19.7933 6.86106e-19)
(14.4733 -19.8541 -6.7568e-19)
(14.0907 -19.941 0)
(13.76 -20.0573 -1.27663e-20)
(13.434 -20.0607 8.29599e-20)
(12.9823 -20.3079 -7.54776e-19)
(10.3025 -7.83358 -9.01181e-20)
(20.1068 -15.3805 1.84471e-20)
(21.3412 -17.1187 2.03013e-19)
(20.6461 -17.3979 -2.00213e-19)
(19.9721 -17.5204 -1.91779e-19)
(19.3 -17.6991 2.61871e-19)
(18.6808 -17.8142 3.7741e-19)
(18.0831 -17.9378 -9.70864e-19)
(17.5097 -18.0456 8.20433e-19)
(16.9864 -18.17 -7.85387e-20)
(16.4752 -18.2877 0)
(15.9884 -18.3846 8.49808e-20)
(15.5417 -18.5174 -8.74989e-20)
(15.1374 -18.6466 0)
(14.7529 -18.7891 7.99881e-19)
(14.3838 -18.9142 -6.80929e-19)
(13.9899 -18.9826 0)
(13.6391 -19.0955 9.5038e-20)
(13.3551 -19.1693 1.07453e-19)
(12.8808 -19.4074 8.56858e-19)
(10.4372 -7.28419 0)
(19.9426 -14.1403 0)
(21.0098 -15.6763 -3.09294e-19)
(20.1703 -15.841 2.1217e-19)
(19.5491 -16.0426 -4.37394e-19)
(18.8862 -16.2703 3.56041e-19)
(18.3162 -16.4887 0)
(17.6995 -16.6569 4.13262e-19)
(17.1313 -16.8013 -5.00369e-19)
(16.5931 -16.9556 -1.15537e-19)
(16.0932 -17.1114 -1.17211e-19)
(15.6126 -17.2467 0)
(15.1535 -17.3954 9.04425e-19)
(14.7314 -17.5367 -8.90264e-19)
(14.3255 -17.6855 0)
(13.9832 -17.861 -1.02487e-18)
(13.6196 -18.0113 9.04363e-19)
(13.2614 -18.1137 9.19076e-19)
(12.9817 -18.2414 -1.00802e-18)
(12.5752 -18.5441 0)
(10.5138 -6.69635 0)
(19.6691 -12.9131 0)
(20.4575 -14.1634 0)
(19.7848 -14.5275 -2.42911e-20)
(19.1027 -14.7139 0)
(18.4347 -14.9482 0)
(17.8449 -15.1659 0)
(17.3107 -15.4231 -1.30497e-19)
(16.7555 -15.6189 0)
(16.2501 -15.8077 1.1554e-19)
(15.7605 -16.0099 -1.70067e-20)
(15.2894 -16.1712 -1.15818e-18)
(14.8427 -16.3518 8.72319e-19)
(14.4544 -16.5503 -1.16281e-18)
(14.0584 -16.726 8.77627e-19)
(13.6962 -16.9027 0)
(13.3573 -17.0918 -1.02194e-18)
(12.9929 -17.2269 8.74205e-19)
(12.6885 -17.3158 0)
(12.2637 -17.6297 -1.36941e-19)
(10.5643 -6.16096 4.16167e-19)
(19.1993 -11.5521 1.24209e-19)
(19.8491 -12.767 5.09139e-19)
(19.0123 -13.0134 -5.26306e-19)
(18.4481 -13.3424 -5.44092e-19)
(17.8236 -13.6516 1.08926e-18)
(17.2558 -13.9288 -1.25658e-18)
(16.6814 -14.1752 1.14952e-19)
(16.1667 -14.4488 4.08665e-19)
(15.6473 -14.6572 0)
(15.1748 -14.8904 -1.65359e-20)
(14.7277 -15.1012 -1.57401e-20)
(14.2623 -15.2732 1.34879e-19)
(13.8558 -15.4722 1.1291e-18)
(13.4811 -15.6821 -9.9125e-19)
(13.1413 -15.8929 -1.27761e-18)
(12.8303 -16.1283 1.11361e-18)
(12.5165 -16.322 -1.19603e-20)
(12.2383 -16.4665 -1.4345e-19)
(11.8456 -16.7617 -1.01688e-18)
(10.6341 -5.58276 -1.44208e-19)
(18.6663 -10.2705 2.53799e-20)
(19.1368 -11.3183 -1.60113e-19)
(18.5021 -11.7593 -6.43873e-19)
(17.832 -12.0216 4.4356e-19)
(17.202 -12.3529 0)
(16.658 -12.6852 9.56768e-19)
(16.1479 -12.9996 -4.6109e-19)
(15.6304 -13.2908 3.18426e-19)
(15.1788 -13.5902 1.67415e-19)
(14.7033 -13.8459 -3.21664e-19)
(14.2885 -14.119 7.7911e-19)
(13.8618 -14.3469 1.64233e-19)
(13.4619 -14.5686 -9.41545e-19)
(13.0753 -14.7864 2.63813e-18)
(12.7023 -14.9743 -1.0768e-18)
(12.3962 -15.2326 1.37672e-18)
(12.0771 -15.428 -9.00325e-19)
(11.8218 -15.6347 2.97765e-19)
(11.4611 -15.9367 1.40774e-18)
(10.7422 -4.98523 7.88994e-19)
(17.9696 -9.02319 -1.54506e-19)
(18.2773 -9.9597 -2.36941e-20)
(17.485 -10.3709 3.50389e-19)
(16.9644 -10.8159 1.65892e-19)
(16.3646 -11.1616 1.8715e-19)
(15.8172 -11.5236 -8.84004e-19)
(15.3176 -11.8567 5.3549e-19)
(14.8189 -12.1786 -1.6798e-19)
(14.3575 -12.4705 -1.6742e-19)
(13.9174 -12.7702 -1.66587e-19)
(13.518 -13.0536 -1.79863e-19)
(13.1154 -13.3332 -3.4214e-19)
(12.7257 -13.5589 1.19611e-18)
(12.4033 -13.8593 -1.67282e-18)
(12.0444 -14.0543 -1.71428e-19)
(11.7521 -14.3383 1.13236e-20)
(11.4618 -14.5641 -1.28305e-18)
(11.2123 -14.7881 9.55915e-19)
(10.9343 -15.1693 -1.49454e-18)
(10.9343 -4.42979 7.51268e-19)
(17.1658 -7.86523 -1.75207e-18)
(17.2539 -8.64479 1.16646e-18)
(16.6862 -9.1713 -1.86414e-19)
(16.1181 -9.60799 -2.06888e-19)
(15.5948 -10.0409 8.10908e-19)
(15.0781 -10.4458 -9.82689e-19)
(14.6295 -10.8281 0)
(14.1761 -11.2021 7.74453e-19)
(13.7611 -11.5448 -7.6152e-19)
(13.3271 -11.8602 -5.6203e-19)
(12.9326 -12.1599 7.32176e-19)
(12.588 -12.4914 1.77909e-19)
(12.1802 -12.7243 -7.29337e-19)
(11.8455 -13.0089 1.72463e-19)
(11.4983 -13.2438 8.79788e-19)
(11.1817 -13.482 -1.56661e-18)
(10.9003 -13.7405 1.03305e-18)
(10.61 -13.9122 -9.66715e-21)
(10.338 -14.2874 -1.41666e-18)
(11.0547 -3.98763 1.03098e-18)
(16.1797 -6.71325 -6.52999e-19)
(16.1503 -7.49851 4.44431e-19)
(15.5384 -7.99811 1.24602e-20)
(15.0275 -8.54578 -8.7938e-19)
(14.536 -8.9635 -8.45676e-19)
(14.046 -9.42489 1.05237e-18)
(13.6184 -9.82137 -6.26552e-19)
(13.1682 -10.204 8.30374e-19)
(12.7881 -10.5689 0)
(12.4083 -10.9253 1.32501e-20)
(12.0195 -11.2166 1.93349e-19)
(11.7002 -11.5676 2.02692e-19)
(11.3724 -11.8638 -1.99421e-19)
(11.0715 -12.1734 0)
(10.7881 -12.4708 1.92883e-19)
(10.491 -12.7317 0)
(10.2586 -13.0285 3.63359e-19)
(9.99942 -13.2444 1.78512e-18)
(9.7281 -13.5752 -4.68161e-21)
(11.0276 -3.59903 5.59773e-19)
(15.1262 -5.70583 -1.09977e-19)
(14.8668 -6.44773 -1.6804e-18)
(14.4376 -6.99436 9.42492e-19)
(14.0095 -7.57199 2.25526e-19)
(13.5955 -8.06217 -2.23334e-19)
(13.1415 -8.52349 -9.17066e-19)
(12.7901 -8.99174 6.83066e-19)
(12.4159 -9.42986 0)
(12.0415 -9.81287 0)
(11.7214 -10.2262 -1.07125e-18)
(11.3396 -10.5284 8.48195e-19)
(11.0196 -10.8632 -2.02708e-19)
(10.67 -11.1429 -6.19594e-19)
(10.3474 -11.4168 1.61668e-21)
(10.0731 -11.7149 1.39023e-18)
(9.77569 -11.9713 -7.7876e-19)
(9.52937 -12.2547 5.7658e-19)
(9.31355 -12.5167 -9.35123e-19)
(9.06005 -12.8516 0)
(10.7636 -3.14658 -4.86739e-19)
(13.9367 -4.80525 7.70495e-19)
(13.6881 -5.52442 1.32436e-19)
(13.2465 -6.06041 1.30702e-19)
(12.7927 -6.65075 0)
(12.447 -7.15905 9.88383e-19)
(11.9991 -7.64936 -9.71018e-19)
(11.6199 -8.07254 1.22701e-19)
(11.2767 -8.5449 0)
(10.9367 -8.93076 9.24278e-19)
(10.6714 -9.39414 -7.92843e-19)
(10.3936 -9.78078 8.91184e-19)
(10.1176 -10.1638 -8.77019e-19)
(9.87939 -10.5242 8.58367e-19)
(9.57727 -10.8226 -7.37476e-19)
(9.32811 -11.1222 -8.26311e-19)
(9.07016 -11.4059 1.62461e-18)
(8.81057 -11.6571 -6.9715e-19)
(8.59479 -11.911 9.96118e-20)
(8.38075 -12.2428 8.14692e-19)
(10.2612 -2.67349 -3.90313e-19)
(12.719 -4.0112 4.14696e-19)
(12.3579 -4.73969 -1.32449e-19)
(11.9759 -5.29439 -1.30709e-19)
(11.6448 -5.91815 0)
(11.3508 -6.4445 0)
(11.0252 -6.99712 0)
(10.7112 -7.46268 -2.51197e-19)
(10.4215 -7.9536 -9.87125e-19)
(10.0646 -8.32839 1.939e-18)
(9.76418 -8.74122 -1.06865e-18)
(9.49233 -9.12802 -1.18813e-19)
(9.22202 -9.50576 0)
(8.99571 -9.87742 0)
(8.76234 -10.2321 -2.19466e-19)
(8.52707 -10.5489 0)
(8.30623 -10.865 8.42143e-19)
(8.08748 -11.1487 -1.03643e-18)
(7.85975 -11.3935 -9.08173e-19)
(7.64305 -11.7079 8.49785e-19)
(9.56106 -2.18183 4.04947e-19)
(11.4009 -3.27529 7.29481e-19)
(11.0731 -3.99697 1.8617e-21)
(10.7822 -4.55509 9.45901e-22)
(10.4094 -5.16281 1.41953e-19)
(10.1339 -5.69352 -4.06083e-19)
(9.7776 -6.19779 0)
(9.47428 -6.67351 -3.95541e-19)
(9.2655 -7.20826 1.32367e-19)
(9.02609 -7.672 5.05087e-19)
(8.76485 -8.1082 4.93119e-19)
(8.53492 -8.52715 -3.6633e-19)
(8.29619 -8.92218 9.4615e-19)
(8.08877 -9.30538 -8.13401e-19)
(7.87591 -9.673 1.01925e-18)
(7.6824 -10.0233 -1.89536e-18)
(7.48904 -10.3642 8.75376e-19)
(7.30788 -10.6844 1.05152e-19)
(7.13744 -10.9778 8.34601e-19)
(6.926 -11.3008 -8.77708e-19)
(8.6637 -1.70599 1.40504e-19)
(10.0564 -2.66094 -1.48374e-19)
(9.732 -3.38098 5.99962e-19)
(9.44902 -3.99065 -5.88834e-19)
(9.17726 -4.64362 -2.88413e-19)
(9.02039 -5.26723 -7.05012e-19)
(8.77754 -5.84672 1.58685e-21)
(8.42312 -6.26485 5.45019e-19)
(8.16746 -6.74639 -1.30928e-19)
(7.94757 -7.19018 0)
(7.7189 -7.6265 0)
(7.51397 -8.03713 0)
(7.30435 -8.43191 0)
(7.12601 -8.81309 3.28991e-21)
(6.94516 -9.18057 0)
(6.75733 -9.52018 1.13046e-19)
(6.59149 -9.85943 4.47588e-19)
(6.41955 -10.182 -1.31743e-18)
(6.27721 -10.4796 9.72503e-19)
(6.12103 -10.8289 -8.95335e-19)
(7.66433 -1.25485 0)
(8.71234 -2.10247 -7.98535e-20)
(8.3838 -2.83876 0)
(8.12413 -3.44279 2.26747e-19)
(7.77761 -4.00219 -1.51526e-19)
(7.55799 -4.5825 -5.83242e-19)
(7.52815 -5.23931 2.01892e-21)
(7.35559 -5.78159 5.61125e-19)
(7.13027 -6.27645 -5.46648e-19)
(6.94859 -6.75229 1.07224e-18)
(6.74598 -7.19128 -2.93573e-21)
(6.57533 -7.62225 -5.14536e-19)
(6.39229 -8.02323 5.00268e-19)
(6.22544 -8.40866 -6.13641e-19)
(6.08358 -8.78772 0)
(5.93587 -9.14335 -4.68159e-19)
(5.77619 -9.47668 4.61151e-19)
(5.63655 -9.80777 0)
(5.49067 -10.0968 -1.08846e-19)
(5.35178 -10.4433 0)
(6.52101 -0.862949 7.95241e-20)
(7.16201 -1.71036 8.00183e-20)
(6.92051 -2.43202 0)
(6.87745 -3.15266 3.10688e-19)
(6.67672 -3.77224 -3.84219e-19)
(6.35588 -4.27419 2.23636e-19)
(6.18849 -4.83204 -6.60719e-19)
(6.05969 -5.39866 2.87641e-19)
(5.91487 -5.89962 -7.0749e-20)
(5.78495 -6.41144 0)
(5.62744 -6.85975 -6.7601e-20)
(5.4831 -7.30835 -6.60741e-20)
(5.34819 -7.72229 -6.45842e-20)
(5.20715 -8.12145 0)
(5.07338 -8.49651 -4.88209e-19)
(4.96565 -8.86579 1.01849e-18)
(4.84417 -9.21434 -8.78046e-19)
(4.71723 -9.53684 4.59943e-19)
(4.6144 -9.84203 5.64717e-20)
(4.48432 -10.1651 4.6589e-19)
(5.35057 -0.589925 -1.22409e-19)
(5.7499 -1.39765 -1.65958e-19)
(5.52591 -2.02599 2.59852e-22)
(5.35038 -2.67709 4.38051e-19)
(5.38029 -3.3615 -1.18323e-19)
(5.22141 -3.94613 -7.66856e-20)
(5.07491 -4.46873 7.47317e-20)
(4.97397 -5.0262 1.46367e-19)
(4.83374 -5.51516 7.07527e-20)
(4.72055 -6.03127 -2.7807e-19)
(4.62167 -6.4965 3.06813e-19)
(4.49859 -6.94858 6.60745e-20)
(4.39704 -7.37786 3.24052e-19)
(4.29218 -7.78437 -1.8247e-21)
(4.19798 -8.18065 2.94502e-20)
(4.09193 -8.53856 -5.46708e-19)
(4.02431 -8.91584 1.49781e-19)
(3.92703 -9.23839 0)
(3.84527 -9.55817 -2.78944e-20)
(3.7659 -9.88787 -2.36135e-19)
(3.84634 -0.349113 4.21516e-20)
(4.25247 -1.26583 -8.44451e-20)
(4.23094 -1.96736 1.65635e-19)
(4.03698 -2.64074 -4.04738e-20)
(3.95549 -3.2496 -4.0112e-20)
(3.89919 -3.90219 0)
(3.76752 -4.43621 -7.55372e-20)
(3.67971 -4.98283 1.48023e-19)
(3.58883 -5.48823 -7.25384e-20)
(3.4867 -5.9491 7.04015e-20)
(3.44347 -6.42284 -3.49515e-20)
(3.349 -6.84473 -6.71661e-20)
(3.29884 -7.27247 1.31708e-19)
(3.20506 -7.65905 -1.28683e-19)
(3.1661 -8.05589 3.18444e-20)
(3.07875 -8.41068 2.19051e-34)
(3.0363 -8.76854 -2.99498e-20)
(2.97476 -9.10959 1.7594e-19)
(2.92467 -9.41365 -8.66798e-20)
(2.86622 -9.75461 -6.01749e-20)
(0.2479 -0.643833 6.49809e-20)
(1.03186 -7.34899 3.17192e-20)
(3.64998 -21.6172 0)
(5.65761 -32.2041 3.00217e-20)
(6.38653 -36.694 2.88123e-20)
(6.58949 -37.7161 2.74145e-20)
(6.56358 -37.7741 0)
(6.51201 -37.5897 2.35026e-20)
(6.40204 -37.2574 0)
(6.31012 -36.9978 0)
(6.21709 -36.7105 -1.99628e-20)
(6.12121 -36.5396 1.58675e-21)
(6.03365 -36.3387 3.76754e-20)
(5.94013 -36.106 0)
(5.81622 -35.9214 1.62713e-20)
(5.74533 -35.6575 1.53237e-20)
(5.58342 -35.4264 1.44479e-20)
(5.54013 -35.1566 0)
(5.35304 -34.8846 -2.54874e-20)
(5.29631 -34.4929 2.44955e-20)
(0.100771 -1.65399 9.95302e-20)
(1.723 -10.7631 -1.60519e-19)
(4.66031 -25.213 0)
(6.51141 -34.3078 -1.49462e-19)
(7.0869 -37.3471 1.44807e-19)
(7.19549 -37.7822 -2.38917e-19)
(7.17631 -37.6786 1.00312e-19)
(7.08396 -37.3364 6.9916e-20)
(6.98576 -37.0314 -3.20645e-19)
(6.90755 -36.7642 1.77489e-19)
(6.80871 -36.5693 -2.05684e-20)
(6.73003 -36.2939 1.50897e-19)
(6.59796 -36.0668 -6.41563e-21)
(6.53007 -35.8515 -1.39833e-19)
(6.38028 -35.6201 -1.62713e-20)
(6.33027 -35.378 -1.53243e-20)
(6.15299 -35.1979 -1.4448e-20)
(6.11776 -34.8844 0)
(5.89306 -34.5767 -9.85861e-20)
(5.84377 -34.1616 4.35293e-21)
(0.179023 -2.82035 -6.96666e-20)
(2.5633 -13.8865 0)
(5.72282 -28.1467 0)
(7.5279 -35.7746 -6.30125e-20)
(7.8648 -37.681 5.85514e-20)
(7.93714 -37.7624 0)
(7.87518 -37.5379 -5.06669e-20)
(7.7643 -37.1424 1.42213e-19)
(7.67827 -36.846 -1.41818e-19)
(7.57729 -36.5788 1.68458e-19)
(7.47257 -36.2656 -2.05889e-19)
(7.35684 -36.0351 0)
(7.2591 -35.8188 -1.39378e-19)
(7.15111 -35.582 -1.24453e-19)
(7.023 -35.3765 2.26544e-19)
(6.92593 -35.1078 -2.30319e-19)
(6.74529 -34.8412 1.99612e-19)
(6.67763 -34.519 0)
(6.44841 -34.2011 -2.13974e-19)
(6.3984 -33.8345 3.59727e-19)
(0.328691 -3.90339 3.52426e-19)
(3.60459 -16.8782 0)
(6.85397 -30.5083 1.35298e-19)
(8.48078 -36.6771 1.8366e-19)
(8.69413 -37.7662 -3.57156e-19)
(8.70424 -37.6745 1.06746e-19)
(8.60116 -37.3062 5.09142e-20)
(8.49053 -36.9274 5.27328e-19)
(8.36951 -36.6007 -7.31061e-19)
(8.26216 -36.2846 -6.77694e-20)
(8.13748 -36.0471 3.68103e-19)
(8.03081 -35.7723 7.3988e-20)
(7.88796 -35.527 -3.42041e-19)
(7.77909 -35.2827 3.33151e-19)
(7.61191 -35.0095 9.13084e-20)
(7.52176 -34.7324 -5.62432e-20)
(7.33123 -34.5324 7.97941e-20)
(7.26993 -34.1957 0)
(7.01311 -33.8804 -2.19101e-20)
(6.97068 -33.4856 0)
(0.632665 -4.99895 0)
(4.83162 -19.1497 5.63398e-19)
(8.08895 -32.1608 -6.93235e-19)
(9.57547 -37.1786 6.33507e-19)
(9.65037 -37.7298 -4.87574e-19)
(9.58565 -37.4912 -1.09684e-19)
(9.41402 -37.0158 0)
(9.28997 -36.6428 2.8073e-19)
(9.14811 -36.3043 -3.71659e-19)
(9.00918 -36.0083 4.13005e-19)
(8.86863 -35.6799 -3.22768e-19)
(8.71556 -35.4158 -7.39835e-20)
(8.58041 -35.1629 3.34882e-19)
(8.44096 -34.9103 -5.73863e-19)
(8.29167 -34.698 3.5624e-19)
(8.16299 -34.4286 -1.16945e-19)
(7.9615 -34.1485 -2.53002e-19)
(7.85691 -33.7999 5.70929e-19)
(7.58553 -33.4697 -3.22243e-19)
(7.52731 -33.1049 -3.61831e-19)
(1.1568 -6.32447 5.93828e-19)
(6.25805 -21.1697 2.67268e-19)
(9.39988 -33.3974 -5.6587e-19)
(10.5976 -37.2863 -1.2979e-19)
(10.5956 -37.4686 1.18696e-19)
(10.4404 -37.1065 4.26922e-19)
(10.2558 -36.702 -4.26064e-19)
(10.0916 -36.309 0)
(9.91612 -35.9603 3.46259e-19)
(9.75415 -35.621 -3.40469e-19)
(9.5839 -35.3494 -2.98603e-19)
(9.43191 -35.0605 2.93765e-19)
(9.26361 -34.8199 0)
(9.10939 -34.564 0)
(8.91268 -34.2609 5.02484e-19)
(8.77076 -33.9702 -4.9161e-19)
(8.55427 -33.7442 -3.82746e-19)
(8.45062 -33.3857 3.77046e-19)
(8.15628 -33.0722 -3.29674e-19)
(8.10826 -32.6973 4.01923e-19)
(2.04867 -7.51697 0)
(6.95091 -22.5012 1.19103e-19)
(10.7679 -34.1759 3.0222e-20)
(11.63 -37.22 6.56884e-19)
(11.5744 -37.1733 0)
(11.3734 -36.7328 0)
(11.1457 -36.2688 7.91179e-19)
(10.9515 -35.875 -4.64993e-20)
(10.7466 -35.5198 -7.18582e-19)
(10.5507 -35.2022 6.25039e-19)
(10.3558 -34.8731 -6.14744e-19)
(10.1526 -34.602 0)
(9.9656 -34.317 4.94789e-19)
(9.77592 -34.0579 -4.8702e-19)
(9.59162 -33.8398 0)
(9.41928 -33.5682 0)
(9.19324 -33.2981 0)
(9.04758 -32.95 0)
(8.73654 -32.6251 0)
(8.659 -32.2529 -3.80601e-20)
(2.39609 -8.33754 8.72396e-20)
(8.36578 -23.7233 -6.01245e-19)
(12.0287 -34.5913 0)
(12.7548 -36.868 0)
(12.5552 -36.6683 1.01729e-18)
(12.2779 -36.1844 4.94852e-20)
(12.0185 -35.794 -9.20632e-19)
(11.7784 -35.3933 0)
(11.5295 -35.0309 8.26657e-20)
(11.3045 -34.689 -7.60219e-20)
(11.077 -34.3949 0)
(10.8693 -34.1004 6.42916e-20)
(10.6634 -33.8749 -5.30542e-19)
(10.4633 -33.617 9.52572e-19)
(10.2289 -33.3148 -2.78004e-20)
(10.0353 -33.0391 -3.93626e-19)
(9.78628 -32.8024 -4.20859e-20)
(9.62958 -32.4366 3.8494e-20)
(9.29233 -32.1329 0)
(9.22771 -31.7644 3.24045e-20)
(3.09185 -9.23549 2.87938e-19)
(9.41738 -24.6048 2.03931e-19)
(13.3398 -34.6665 -8.52414e-19)
(13.7572 -36.401 2.45124e-19)
(13.5263 -36.0701 1.08526e-19)
(13.2324 -35.6083 9.11935e-19)
(12.9174 -35.1638 -1.25659e-18)
(12.6494 -34.7769 9.04152e-19)
(12.3717 -34.4351 -7.088e-19)
(12.1074 -34.1153 8.36117e-19)
(11.8511 -33.8052 1.32209e-19)
(11.5919 -33.5403 5.39973e-19)
(11.3467 -33.2468 -3.05735e-19)
(11.1006 -32.9998 -5.61496e-19)
(10.8724 -32.7689 4.92174e-19)
(10.6447 -32.4998 0)
(10.3925 -32.2578 1.19125e-19)
(10.1993 -31.9377 3.14877e-20)
(9.84781 -31.6226 -6.39602e-20)
(9.7506 -31.2451 2.56819e-20)
(3.62206 -9.74 -5.64774e-19)
(10.6862 -25.2045 5.7589e-19)
(14.519 -34.4663 -8.99084e-21)
(14.8775 -35.7379 -4.82225e-19)
(14.4921 -35.3751 -4.39484e-19)
(14.1515 -34.9104 -2.05992e-19)
(13.7844 -34.52 -9.36589e-21)
(13.4642 -34.1286 -1.72373e-19)
(13.1364 -33.7688 0)
(12.8396 -33.4432 -1.44427e-19)
(12.5465 -33.1455 -1.32206e-19)
(12.2752 -32.8669 -8.80568e-21)
(12.0225 -32.6596 4.02524e-19)
(11.7709 -32.4157 -2.10773e-19)
(11.498 -32.1446 -4.33436e-19)
(11.2544 -31.8945 3.35757e-19)
(10.9721 -31.6585 2.04282e-19)
(10.7603 -31.3209 -3.47117e-19)
(10.3842 -31.036 6.3876e-20)
(10.2902 -30.6618 3.62542e-19)
(4.3187 -10.2492 -1.3742e-18)
(11.8911 -25.5097 1.37997e-18)
(15.7161 -34.0231 -1.48942e-18)
(15.8307 -34.9289 1.20188e-18)
(15.4141 -34.5024 1.02484e-18)
(15.0277 -34.074 -7.96919e-19)
(14.6187 -33.6752 -1.01594e-18)
(14.2667 -33.3243 4.96577e-20)
(13.9172 -33.0179 5.97713e-19)
(13.5821 -32.7176 -3.76796e-19)
(13.2652 -32.4403 9.48578e-19)
(12.9505 -32.1952 -5.60058e-19)
(12.6479 -31.9215 -1.02049e-19)
(12.351 -31.7039 2.4554e-19)
(12.0711 -31.4775 -6.38485e-19)
(11.7903 -31.2278 3.00805e-19)
(11.5087 -31.0212 0)
(11.2707 -30.7413 -4.45173e-19)
(10.8838 -30.4541 4.38682e-19)
(10.7649 -30.0718 -3.17838e-19)
(4.90492 -10.575 2.66481e-19)
(13.0975 -25.5552 2.98541e-19)
(16.7456 -33.3235 1.25002e-18)
(16.8455 -33.9959 1.05185e-18)
(16.3104 -33.6193 -6.34859e-19)
(15.9027 -33.2056 8.58572e-19)
(15.438 -32.8468 -5.07123e-19)
(15.036 -32.4927 5.60937e-19)
(14.6347 -32.1678 -1.0579e-18)
(14.2637 -31.8834 3.73245e-19)
(13.9051 -31.6058 0)
(13.5694 -31.3611 0)
(13.2652 -31.1749 0)
(12.9592 -30.9555 -5.96672e-19)
(12.6499 -30.736 5.87435e-19)
(12.3567 -30.5237 0)
(12.0422 -30.3051 0)
(11.7784 -30.0324 -4.41783e-20)
(11.3726 -29.7854 0)
(11.2436 -29.4168 -3.34477e-19)
(5.57287 -10.8105 -5.06286e-19)
(14.2039 -25.4601 -1.24171e-18)
(17.7769 -32.527 -8.6415e-19)
(17.6578 -32.9363 -1.39411e-19)
(17.1035 -32.5314 1.10139e-18)
(16.63 -32.1632 -2.30378e-19)
(16.1404 -31.8215 -5.32755e-20)
(15.7068 -31.5225 -6.80238e-19)
(15.2918 -31.2622 0)
(14.8917 -31.0038 -3.06892e-19)
(14.517 -30.7774 4.88045e-19)
(14.1518 -30.5695 0)
(13.798 -30.3421 5.73986e-19)
(13.4584 -30.1634 -5.64978e-19)
(13.1283 -29.9548 4.47334e-19)
(12.8038 -29.7462 -7.86589e-19)
(12.4929 -29.5739 3.86367e-19)
(12.2144 -29.3373 4.418e-20)
(11.8017 -29.1079 -2.88945e-20)
(11.6596 -28.7306 2.19295e-19)
(6.15141 -10.8979 -6.6919e-19)
(15.253 -25.0612 4.92038e-20)
(18.6223 -31.4525 7.33883e-20)
(18.5236 -31.7812 1.49033e-18)
(17.889 -31.4613 1.11126e-19)
(17.4073 -31.1146 -7.6132e-19)
(16.8662 -30.8151 -5.03103e-19)
(16.3874 -30.5203 1.72048e-19)
(15.9246 -30.2552 5.36189e-19)
(15.4871 -30.0246 -5.35246e-19)
(15.0693 -29.7846 2.5684e-19)
(14.6749 -29.5947 -6.07727e-19)
(14.319 -29.4413 4.78212e-19)
(13.962 -29.2677 -4.10988e-19)
(13.6174 -29.1127 3.6364e-19)
(13.2773 -28.9475 2.55146e-19)
(12.933 -28.7728 -2.96814e-19)
(12.6252 -28.5747 1.8734e-19)
(12.2026 -28.374 -1.777e-19)
(12.0406 -28.021 -1.51132e-19)
(6.77947 -10.9195 -8.26892e-19)
(16.2212 -24.6423 -1.44834e-19)
(19.4715 -30.4126 7.83041e-19)
(19.1652 -30.5419 -6.32624e-19)
(18.5071 -30.2147 6.21076e-19)
(17.9506 -29.9187 1.39161e-19)
(17.3999 -29.6399 0)
(16.8919 -29.4109 -9.20983e-20)
(16.4211 -29.207 2.37567e-19)
(15.9667 -29.0146 -8.24786e-19)
(15.5413 -28.842 5.71658e-19)
(15.1317 -28.6739 1.14923e-19)
(14.7377 -28.5127 5.60974e-20)
(14.3617 -28.3709 0)
(13.9893 -28.1944 1.30607e-20)
(13.6301 -28.0441 2.05616e-19)
(13.2924 -27.9131 -4.15581e-20)
(12.9791 -27.7539 -2.78195e-21)
(12.5604 -27.6054 -1.19348e-19)
(12.3947 -27.2381 1.53443e-20)
(7.30843 -10.8057 7.39371e-19)
(17.0682 -23.9004 -1.25048e-18)
(20.0789 -29.0447 6.93824e-19)
(19.8407 -29.1976 5.48888e-19)
(19.1377 -28.9694 -5.93683e-20)
(18.5871 -28.7131 -3.70479e-19)
(17.9902 -28.4854 8.64249e-20)
(17.446 -28.2548 9.20928e-20)
(16.9337 -28.0665 0)
(16.4437 -27.9038 0)
(15.9781 -27.7347 -3.78284e-19)
(15.5363 -27.6074 5.98964e-19)
(15.1329 -27.4989 -3.06634e-19)
(14.7403 -27.4042 0)
(14.3626 -27.3018 1.38453e-20)
(13.9841 -27.174 -1.10494e-19)
(13.614 -27.0458 1.03909e-19)
(13.2731 -26.9117 -1.12123e-20)
(12.8595 -26.8159 1.53979e-20)
(12.675 -26.4845 -2.84431e-21)
(7.85529 -10.6684 -6.43613e-19)
(17.8929 -23.2219 7.97347e-19)
(20.7314 -27.856 0)
(20.276 -27.8498 0)
(19.5596 -27.6113 9.40122e-20)
(18.931 -27.4058 -4.37042e-19)
(18.3372 -27.2051 2.60845e-20)
(17.7674 -27.053 2.79476e-19)
(17.2501 -26.8996 -3.91434e-19)
(16.7503 -26.7781 7.00689e-19)
(16.2848 -26.6601 -3.10603e-19)
(15.8368 -26.5488 5.30305e-20)
(15.4083 -26.4431 1.42024e-19)
(14.9994 -26.3543 -4.29687e-20)
(14.6002 -26.2711 -6.53887e-20)
(14.2131 -26.1853 8.50815e-21)
(13.8494 -26.1002 3.93939e-20)
(13.497 -26.0098 -4.22152e-20)
(13.0896 -25.9427 1.2394e-20)
(12.9091 -25.6228 -1.18379e-19)
(8.29683 -10.3972 0)
(18.5031 -22.1868 3.54001e-19)
(21.099 -26.2766 -3.95186e-19)
(20.71 -26.375 0)
(19.995 -26.2353 -9.40169e-20)
(19.385 -26.0794 2.51461e-19)
(18.7533 -25.927 -3.13339e-19)
(18.1618 -25.7792 0)
(17.6161 -25.6785 2.42431e-19)
(17.0902 -25.5856 -2.3838e-19)
(16.5911 -25.5008 8.47672e-21)
(16.1207 -25.443 -1.83817e-20)
(15.6792 -25.3829 -1.14718e-20)
(15.2543 -25.3182 -5.22493e-21)
(14.8477 -25.2683 8.27718e-20)
(14.4477 -25.2191 -2.00159e-19)
(14.0574 -25.1409 2.69161e-19)
(13.6797 -25.0976 -3.29084e-19)
(13.294 -25.1082 1.59169e-19)
(13.0939 -24.8296 -2.21977e-20)
(8.75363 -10.1233 0)
(19.1424 -21.2999 -3.93273e-19)
(21.552 -24.9927 2.12899e-19)
(20.9605 -24.9516 2.07397e-19)
(20.2205 -24.8184 -5.09363e-20)
(19.5448 -24.7102 -4.563e-20)
(18.9222 -24.5884 -1.60804e-19)
(18.3032 -24.5025 0)
(17.7481 -24.4048 0)
(17.2138 -24.3531 0)
(16.7138 -24.2871 -8.47675e-21)
(16.2402 -24.2603 0)
(15.7979 -24.2509 1.48256e-19)
(15.3632 -24.2253 -1.24691e-19)
(14.9305 -24.1818 2.03872e-19)
(14.525 -24.1561 -4.37478e-19)
(14.1327 -24.1183 2.33151e-19)
(13.7241 -24.0761 3.29659e-19)
(13.3415 -24.1102 -5.98459e-19)
(13.1509 -23.8938 3.21232e-19)
(9.10864 -9.70197 0)
(19.4833 -20.0897 0)
(21.6687 -23.3175 7.66022e-20)
(21.145 -23.4083 6.14967e-20)
(20.4286 -23.3531 0)
(19.7773 -23.3113 7.35058e-20)
(19.1336 -23.2432 -7.22124e-20)
(18.5126 -23.1835 0)
(17.9473 -23.1596 -6.83423e-20)
(17.4031 -23.1371 6.72002e-20)
(16.8773 -23.1062 0)
(16.3769 -23.0732 2.21512e-19)
(15.9109 -23.0743 2.30171e-20)
(15.4787 -23.0885 -2.58461e-19)
(15.0472 -23.1015 0)
(14.6226 -23.082 0)
(14.208 -23.0819 0)
(13.7772 -23.075 3.73551e-19)
(13.3576 -23.0268 -4.09823e-19)
(13.0859 -22.892 0)
(4.48521 -33.615 0)
(4.00358 -31.9586 0)
(2.93188 -31.1668 -7.29743e-22)
(2.66792 -30.3887 -3.29969e-22)
(1.95954 -29.5435 0)
(1.68558 -28.9153 1.19827e-22)
(1.31568 -28.32 -4.94065e-22)
(1.05396 -27.8715 0)
(0.834974 -27.4129 -1.03828e-21)
(0.644498 -27.0627 0)
(0.496498 -26.7667 1.31797e-21)
(0.373264 -26.5067 7.36014e-22)
(0.261317 -26.2976 -7.39938e-22)
(0.186302 -26.1057 -1.62562e-21)
(0.0982439 -25.9643 0)
(0.0588649 -25.7511 4.47302e-22)
(0.00558971 -25.0387 -2.27765e-21)
(0.0199649 -22.2178 0)
(-0.0398802 -15.6812 0)
(-0.0119203 -6.60429 -1.91181e-21)
(4.90668 -33.3051 1.02422e-20)
(4.35657 -31.8524 0)
(3.30793 -31.0866 2.71706e-21)
(2.98869 -30.2766 -1.66667e-21)
(2.2745 -29.4356 0)
(1.93524 -28.8303 2.26878e-21)
(1.53907 -28.2308 -1.07152e-21)
(1.23194 -27.7911 0)
(0.993812 -27.3473 -1.21201e-21)
(0.774753 -27.0073 2.26256e-21)
(0.610195 -26.7201 -4.08869e-21)
(0.466367 -26.4685 5.7642e-21)
(0.339663 -26.2676 -4.57584e-21)
(0.251551 -26.0827 1.55272e-21)
(0.151871 -25.9473 1.67097e-21)
(0.106305 -25.733 -1.79779e-21)
(0.0398478 -25.0278 3.63433e-21)
(0.0379689 -22.2047 4.69738e-21)
(-0.0329232 -15.6804 2.27663e-21)
(-0.0225109 -6.61229 2.38901e-21)
(5.41794 -33.0095 -7.03942e-21)
(4.77399 -31.4745 -7.87137e-21)
(3.55393 -30.7897 -2.29881e-21)
(3.16403 -30.0882 0)
(2.39926 -29.2635 0)
(2.03472 -28.709 -3.12517e-21)
(1.63067 -28.134 -9.15939e-22)
(1.30794 -27.7209 -7.17373e-22)
(1.06337 -27.2901 -6.34747e-22)
(0.831621 -26.9591 4.63216e-21)
(0.661109 -26.6819 0)
(0.510517 -26.4358 0)
(0.379283 -26.238 0)
(0.287136 -26.0573 6.61702e-21)
(0.185358 -25.9243 0)
(0.135179 -25.7246 7.15274e-21)
(0.0657266 -25.0308 -7.3685e-21)
(0.0593171 -22.2166 -2.80676e-21)
(-0.0217276 -15.6838 -4.61306e-21)
(-0.0284658 -6.62689 -7.68812e-21)
(5.83785 -32.6827 1.19651e-20)
(5.10141 -31.3482 -2.15447e-20)
(3.92795 -30.6691 1.4185e-21)
(3.47611 -29.955 2.87428e-21)
(2.70971 -29.144 0)
(2.27783 -28.618 -4.93857e-21)
(1.85031 -28.0418 1.48044e-20)
(1.48275 -27.6369 -1.08683e-20)
(1.21903 -27.2222 8.60918e-21)
(0.959347 -26.9007 -5.24735e-21)
(0.772046 -26.6332 -2.64945e-22)
(0.601814 -26.3948 6.10528e-21)
(0.455713 -26.2054 -6.13485e-21)
(0.35126 -26.032 -3.23929e-21)
(0.23755 -25.9052 -3.39361e-21)
(0.18216 -25.7053 -7.14852e-21)
(0.0974052 -25.0224 9.22481e-21)
(0.0798419 -22.2134 -3.75908e-21)
(-0.0068759 -15.6903 1.89613e-21)
(-0.0304208 -6.6392 7.67539e-21)
(6.35498 -32.3156 3.61761e-20)
(5.51357 -30.9457 4.59202e-21)
(4.15661 -30.3714 -2.61147e-21)
(3.63256 -29.7665 2.60698e-21)
(2.8301 -28.9709 0)
(2.37192 -28.4845 2.22439e-21)
(1.9374 -27.9389 -3.10036e-21)
(1.55476 -27.5586 0)
(1.28491 -27.159 1.18724e-22)
(1.01317 -26.8459 0)
(0.820016 -26.5892 1.11763e-20)
(0.64337 -26.357 0)
(0.49326 -26.1718 0)
(0.385426 -26.0034 1.35481e-20)
(0.26866 -25.8798 -6.8395e-21)
(0.208368 -25.6952 7.232e-21)
(0.124213 -25.0262 0)
(0.101266 -22.2318 -1.89974e-21)
(0.00215026 -15.7005 1.91094e-21)
(-0.0243358 -6.65524 0)
(6.77401 -31.9762 1.20499e-20)
(5.84528 -30.7835 -7.68305e-21)
(4.54359 -30.1983 4.28324e-21)
(3.95081 -29.6076 -3.67867e-21)
(3.13756 -28.8433 -3.1198e-21)
(2.60963 -28.3862 -2.23139e-21)
(2.15297 -27.8437 6.8641e-21)
(1.72594 -27.4714 8.25034e-21)
(1.4373 -27.0887 -4.63722e-21)
(1.13826 -26.7847 -1.09215e-20)
(0.928453 -26.5383 5.32574e-21)
(0.733599 -26.3136 0)
(0.568597 -26.1368 0)
(0.448887 -25.9757 1.54273e-24)
(0.318151 -25.8581 6.89547e-21)
(0.253609 -25.6753 -7.22503e-21)
(0.15416 -25.0214 0)
(0.12547 -22.2375 1.52192e-20)
(0.0165636 -15.7157 1.4481e-20)
(-0.00700698 -6.66882 9.64789e-22)
(7.27529 -31.5205 -3.09718e-20)
(6.20641 -30.3648 2.6643e-20)
(4.7451 -29.9096 -2.60674e-21)
(4.08303 -29.4141 0)
(3.25329 -28.6641 3.13316e-21)
(2.69754 -28.2421 -1.21e-20)
(2.23619 -27.7343 5.25579e-21)
(1.79482 -27.3851 -8.27382e-21)
(1.49976 -27.0196 0)
(1.18956 -26.7236 0)
(0.973664 -26.4889 -1.19862e-20)
(0.772926 -26.2709 1.2029e-20)
(0.603952 -26.0994 0)
(0.481259 -25.9433 -2.05311e-20)
(0.34607 -25.83 6.9503e-21)
(0.277541 -25.6636 7.35583e-21)
(0.178881 -25.0265 -7.22399e-21)
(0.147318 -22.2633 -1.90127e-20)
(0.0291333 -15.7374 -9.63818e-21)
(0.0201812 -6.6814 -1.9309e-21)
(7.70569 -31.1638 0)
(6.57078 -30.1446 -8.00498e-21)
(5.14535 -29.6803 8.02963e-21)
(4.40236 -29.2344 0)
(3.5568 -28.5313 0)
(2.9292 -28.1361 1.29205e-20)
(2.4472 -27.6364 -1.29589e-20)
(1.96205 -27.2946 0)
(1.64824 -26.9468 -1.04629e-20)
(1.31175 -26.6597 2.18812e-20)
(1.07904 -26.4358 -1.14212e-20)
(0.86102 -26.2254 -1.28803e-20)
(0.67701 -26.0622 1.2919e-20)
(0.542304 -25.9129 0)
(0.391834 -25.8053 0)
(0.320914 -25.643 7.38953e-21)
(0.201625 -25.0264 -1.05147e-20)
(0.172533 -22.2784 -5.40556e-23)
(0.0423787 -15.7666 5.76725e-21)
(0.0608312 -6.68973 -1.89964e-21)
(8.16304 -30.6272 1.48629e-20)
(6.86457 -29.7178 -1.48923e-20)
(5.32299 -29.3937 2.42963e-22)
(4.51965 -29.0304 -6.33335e-21)
(3.66832 -28.3435 1.60859e-20)
(3.01252 -27.9813 3.38446e-21)
(2.52741 -27.5206 -1.3782e-20)
(2.02849 -27.2007 0)
(1.70744 -26.8717 0)
(1.36098 -26.5926 -1.13985e-20)
(1.12162 -26.3811 0)
(0.897982 -26.178 0)
(0.709305 -26.0207 0)
(0.572045 -25.8763 0)
(0.417033 -25.7748 0)
(0.343362 -25.6287 0)
(0.217942 -25.0324 6.79034e-21)
(0.195019 -22.3126 -7.56887e-21)
(0.0545302 -15.8051 1.92666e-21)
(0.0926536 -6.69323 -1.86235e-21)
(8.59847 -30.2371 -2.84697e-20)
(7.25436 -29.4321 -1.67948e-20)
(5.72319 -29.1137 2.41902e-21)
(4.83122 -28.8329 7.212e-21)
(3.96582 -28.2064 -7.40649e-22)
(3.23775 -27.8678 -1.80836e-20)
(2.73253 -27.4198 -8.3644e-21)
(2.19175 -27.1068 0)
(1.85148 -26.7963 1.14008e-20)
(1.47988 -26.5262 -2.23535e-20)
(1.22361 -26.3258 -1.23571e-20)
(0.98305 -26.1303 -1.31291e-20)
(0.779022 -25.9814 0)
(0.629671 -25.8433 -1.41641e-20)
(0.459931 -25.7471 -1.44606e-20)
(0.383253 -25.6053 0)