/*--------------------------------*- C++ -*----------------------------------*\
  =========                 |
  \\      /  F ield         | OpenFOAM: The Open Source CFD Toolbox
   \\    /   O peration     | Website:  https://openfoam.org
    \\  /    A nd           | Version:  9
     \\/     M anipulation  |
\*---------------------------------------------------------------------------*/
FoamFile
{
    format      ascii;
    class       volScalarField;
    location    "0.6";
    object      nut;
}
// * * * * * * * * * * * * * * * * * * * * * * * * * * * * * * * * * * * * * //

dimensions      [0 2 -1 0 0 0 0];

internalField   nonuniform List<scalar> 
46400
(
0.0185126
0.00656876
0.00185318
0.00140496
0.00136711
0.00134604
0.00128685
0.00122181
0.00115319
0.0011646
0.00111232
0.00105145
0.00103181
0.00101334
0.000972315
0.000975054
0.000937107
0.000887082
0.00122867
0.000996763
0.0181303
0.00533536
0.00129621
0.00143269
0.00135876
0.00135038
0.00129199
0.00126525
0.00118609
0.00115036
0.00112494
0.00107192
0.00102013
0.000989952
0.000959179
0.000930784
0.000851628
0.000778126
0.00102166
0.000909783
0.0177175
0.00468539
0.001251
0.00147956
0.00136624
0.0013656
0.0013063
0.00125808
0.00119421
0.00118494
0.00114587
0.00110089
0.00106352
0.00102756
0.00098797
0.000977447
0.000922901
0.000866819
0.00116257
0.000984193
0.0172555
0.00391643
0.00127827
0.00149095
0.00136285
0.00135373
0.0012978
0.00127521
0.00119195
0.00114896
0.00113076
0.00108231
0.0010414
0.00100263
0.000971532
0.000942808
0.000885968
0.000839294
0.00114301
0.00101374
0.0166283
0.00447811
0.00132744
0.00152224
0.00140099
0.00139046
0.00132662
0.00129391
0.00123914
0.00119941
0.00116828
0.00113888
0.0011032
0.00106771
0.00101827
0.000990542
0.00091844
0.000876354
0.00116929
0.00100883
0.0159996
0.00484917
0.00141565
0.00156879
0.00141451
0.00138984
0.00131895
0.0012868
0.0012221
0.00116686
0.00112887
0.00108915
0.00106593
0.00104999
0.00104513
0.00101313
0.000958909
0.000877482
0.00116848
0.0010618
0.0153976
0.00462255
0.00145448
0.0015861
0.00145896
0.00142921
0.0013612
0.00131108
0.00126863
0.00122384
0.00117911
0.00112755
0.00108741
0.00104739
0.00103289
0.00103392
0.000982322
0.000910361
0.00115514
0.00105486
0.0142262
0.00389404
0.00144869
0.00157715
0.001439
0.00140093
0.00134597
0.00129152
0.00124572
0.00119977
0.00117269
0.00112125
0.00108041
0.00103869
0.0010148
0.00101203
0.000990066
0.00093614
0.00116634
0.00106869
0.012467
0.00296319
0.00148074
0.00153532
0.00145791
0.00139779
0.00136711
0.00129551
0.00125291
0.00121016
0.00118586
0.00113387
0.00109992
0.00104402
0.000999431
0.000978709
0.000947816
0.000907949
0.00111084
0.00104511
0.00989499
0.00243636
0.00152919
0.00148206
0.00141724
0.00134327
0.00132352
0.00128304
0.00123611
0.00118669
0.00119382
0.00115636
0.00111445
0.00108408
0.00102564
0.000981617
0.0009403
0.000885729
0.0010567
0.00100322
0.00782482
0.00199976
0.00153181
0.00149257
0.00144443
0.00135543
0.00131764
0.00125751
0.00121723
0.0011434
0.00112418
0.00113086
0.0011148
0.00108433
0.00107179
0.00101486
0.000972107
0.000919547
0.00104904
0.00100859
0.0063796
0.00175838
0.0015101
0.00145951
0.00144646
0.00136348
0.0013294
0.00129434
0.00126398
0.00118596
0.00112168
0.00107529
0.00107439
0.00104704
0.00103189
0.00101107
0.000945605
0.00089826
0.000987062
0.000950279
0.00516021
0.00155492
0.00148684
0.00144124
0.00145071
0.00139337
0.00135107
0.00127491
0.00127413
0.00122273
0.0011724
0.00111791
0.00107414
0.00105864
0.00104075
0.00103895
0.00101242
0.000960283
0.00102564
0.000947427
0.00464195
0.00153876
0.0014725
0.00137117
0.0013808
0.00132932
0.00134441
0.00127699
0.0012316
0.00121955
0.00116621
0.00112219
0.00107847
0.00102956
0.0010125
0.000990244
0.00098899
0.000961008
0.00106275
0.00100394
0.00425029
0.0015874
0.00156864
0.00143557
0.00137005
0.00125287
0.00124535
0.0012488
0.00121863
0.00118108
0.00118317
0.00113121
0.001112
0.00106004
0.00101792
0.000980271
0.000931764
0.000903198
0.000952706
0.00092999
0.00435536
0.00157884
0.00148333
0.00144703
0.00151358
0.00139066
0.00128956
0.00121772
0.00119244
0.00113811
0.00111458
0.00109565
0.00105971
0.00105651
0.00101552
0.00101243
0.000963411
0.000927049
0.000975781
0.000907758
0.00382361
0.001624
0.00136315
0.00120999
0.00126829
0.00136651
0.00132867
0.00128742
0.00124111
0.00121491
0.00115349
0.00113196
0.00108018
0.00105343
0.0010173
0.000989539
0.000963972
0.000905576
0.000961977
0.000892186
0.00373559
0.00180369
0.00167975
0.0014795
0.00127452
0.00124468
0.00123792
0.00121838
0.00118674
0.0011536
0.00112565
0.00108817
0.00106838
0.00102363
0.001009
0.000969185
0.000949909
0.000895081
0.000934558
0.000880551
0.00254177
0.00142963
0.00151279
0.00151039
0.00142474
0.00131847
0.00126539
0.0012156
0.00119349
0.00115806
0.00113914
0.00109488
0.00107771
0.00103975
0.00101705
0.000990008
0.000961671
0.000912778
0.000947328
0.000885814
0.000645389
0.000479347
0.00145322
0.00135496
0.00150907
0.00135186
0.00136404
0.00125624
0.00122771
0.00115123
0.00112652
0.00107076
0.00104797
0.00100109
0.000980107
0.000943788
0.000920003
0.000861062
0.000903315
0.000835142
0.000678146
0.00404606
0.00932211
0.0116253
0.00797452
0.00353543
0.000896888
0.000132489
0.000221969
0.000346302
0.000323345
0.000292267
0.000331949
0.00031729
0.00027684
0.000295838
0.000323621
0.000344294
0.000312732
0.000377116
0.000798789
0.00686849
0.0112055
0.0104114
0.00556118
0.00160642
7.19639e-05
0.000151048
0.000296318
0.000333369
0.000342795
0.000365914
0.000303772
0.000318995
0.000318017
0.000349651
0.000333759
0.000301202
0.00034582
0.000439074
0.0021668
0.00914077
0.0120139
0.00854464
0.0034577
0.00044195
0.000137791
0.000282057
0.000378543
0.000410026
0.000361132
0.00032452
0.000344301
0.000369386
0.000332582
0.00035802
0.000339879
0.000373297
0.000452274
0.000481852
0.00257275
0.0103561
0.0118589
0.00658374
0.00153909
0.000168746
0.000310776
0.000410121
0.000434364
0.000359227
0.000360892
0.000402593
0.000381749
0.000379362
0.000373861
0.000418537
0.000377388
0.000397862
0.000477911
0.000514009
0.00468089
0.011655
0.010743
0.00447252
0.000366162
0.000145741
0.000410791
0.000445442
0.000414291
0.000456427
0.000449608
0.00040347
0.000408662
0.000436857
0.000409172
0.000426189
0.000376029
0.000468125
0.000560545
0.000538762
0.00711812
0.0123781
0.00964135
0.00215911
0.000218676
0.000381809
0.000538405
0.000546642
0.000538695
0.000487995
0.000449303
0.000474262
0.000480363
0.000463387
0.000449706
0.000486895
0.000439904
0.000526394
0.000551234
0.000524067
0.00964533
0.0126436
0.00837999
0.000942179
0.0002428
0.000606129
0.000648157
0.000547194
0.000535082
0.00055215
0.000545936
0.000505985
0.000503082
0.000519816
0.000501164
0.000505523
0.000444983
0.000553935
0.000601767
0.000562556
0.0121294
0.0126262
0.00667998
0.00041127
0.000440472
0.000706459
0.00071161
0.000651798
0.000675073
0.00062611
0.000563336
0.000571622
0.000587331
0.000557289
0.000535747
0.000559619
0.000516308
0.000617659
0.000608874
0.000562027
0.0144239
0.0125075
0.00461231
0.000254384
0.000633054
0.000829131
0.00078637
0.000685365
0.000666311
0.000666906
0.000648863
0.000613125
0.000604809
0.000608848
0.000598228
0.000588586
0.000518123
0.000618275
0.000637803
0.000613046
0.0159717
0.0122589
0.00303873
0.00029595
0.000827077
0.000901067
0.000824844
0.00077804
0.000799886
0.00075161
0.000678063
0.000677989
0.000696004
0.000657249
0.000633184
0.000646224
0.000605038
0.000702802
0.000655703
0.000606541
0.0166318
0.0118939
0.00198899
0.000365169
0.000908494
0.000970498
0.000923142
0.000814581
0.000794297
0.000787103
0.000755968
0.000718894
0.000706928
0.000707058
0.000702666
0.000682219
0.000621084
0.000706133
0.000674341
0.000673843
0.017417
0.0114632
0.00143954
0.000537491
0.00105657
0.00101842
0.000964319
0.000894038
0.000911452
0.000864761
0.000782102
0.000776865
0.00079225
0.00074566
0.000720116
0.00072898
0.000686801
0.000739205
0.000652454
0.000654651
0.0181527
0.0110728
0.00104082
0.000794078
0.00108952
0.00106884
0.00104729
0.000928038
0.00090074
0.000901046
0.000859141
0.000813605
0.000800322
0.000801475
0.000793002
0.000767287
0.000722097
0.000767174
0.000685486
0.000728726
0.0185467
0.0106173
0.00145052
0.00089765
0.00119284
0.00109845
0.00108082
0.00100012
0.00100208
0.000960517
0.00087566
0.000865125
0.00087297
0.000822651
0.000798644
0.000808311
0.000770446
0.000776414
0.000634793
0.000713418
0.0189432
0.0102182
0.00158506
0.00105417
0.00122516
0.00115762
0.00114069
0.00103127
0.000987914
0.0010006
0.000952131
0.000894239
0.000881409
0.000884909
0.000861498
0.00083477
0.000817596
0.000815559
0.000664145
0.000772915
0.0190763
0.00989421
0.00241711
0.00111035
0.00128545
0.00117994
0.00116589
0.00109206
0.00107482
0.00103649
0.000959374
0.000942706
0.000937912
0.000892344
0.000870722
0.000874352
0.000857265
0.000826049
0.000616688
0.000778475
0.0192243
0.0096568
0.0023172
0.00119488
0.0013201
0.00122833
0.00120892
0.0011154
0.00105618
0.00107981
0.00102626
0.000957722
0.000944435
0.000947573
0.000906652
0.000875565
0.000892335
0.000853301
0.000611644
0.000811222
0.0191449
0.00923568
0.00193872
0.00119845
0.0013451
0.00125537
0.00122219
0.0011701
0.00112947
0.00109347
0.00103428
0.00100745
0.000982752
0.000946925
0.000923803
0.000908002
0.000920448
0.000864094
0.000572522
0.000826677
0.0190519
0.00846771
0.00213984
0.00129311
0.00135699
0.00129835
0.00125645
0.0011799
0.00111405
0.00113939
0.00108664
0.00102044
0.0010074
0.00100442
0.000951485
0.000925306
0.000956899
0.000928929
0.000588726
0.000759442
0.018789
0.00725831
0.00183846
0.00131996
0.0013562
0.00131586
0.00126543
0.00123182
0.00117132
0.00113928
0.00110375
0.00107207
0.00104029
0.00102426
0.00101307
0.00101931
0.00101255
0.00102648
0.000802824
0.000847486
0.0034566
0.00234359
0.00223354
0.00182127
0.00166517
0.00152173
0.00137195
0.00114846
0.00113837
0.00102805
0.000909307
0.00076725
0.000609755
0.000627102
0.000324455
0.000238495
0.000252277
0.00199923
0.00906467
0.0231472
0.00327645
0.00232246
0.00230037
0.0016883
0.00172145
0.00164519
0.00140518
0.0011438
0.00111672
0.00100107
0.000885874
0.000746164
0.000596899
0.000613767
0.000324567
0.000238086
0.000156818
0.00202966
0.00918334
0.0229298
0.00356445
0.0023138
0.00226183
0.00183148
0.00171836
0.00159161
0.0013357
0.00113936
0.00115028
0.00104557
0.000920733
0.000768081
0.000613329
0.000621781
0.000374003
0.000258866
0.000151288
0.00205255
0.00926247
0.0227909
0.0030977
0.00228251
0.00235376
0.00175159
0.00181648
0.00171523
0.0013542
0.00114043
0.00113235
0.0010203
0.000898051
0.000748573
0.000603086
0.000616592
0.000354156
0.000251764
0.000136009
0.00211962
0.00934964
0.0226025
0.00363495
0.00231088
0.00232286
0.00183212
0.00177411
0.00164359
0.00128891
0.00114448
0.00116755
0.0010655
0.000934231
0.000770917
0.000620455
0.000640131
0.00037197
0.0002608
0.000207183
0.00218081
0.00941552
0.0224655
0.00338489
0.00232748
0.00239477
0.00178595
0.00188994
0.00175506
0.00130279
0.00115159
0.00115013
0.00104139
0.000912329
0.000751703
0.000605755
0.000636821
0.000362449
0.000261665
0.000264329
0.00223409
0.0094868
0.0222913
0.00382588
0.00238427
0.00239065
0.0018376
0.00184883
0.00167049
0.00124654
0.00116472
0.00118477
0.00108573
0.000947282
0.000773827
0.000617738
0.000659856
0.000374593
0.000271016
0.000277999
0.00227829
0.00954905
0.0221591
0.00387677
0.00241482
0.0023885
0.00180192
0.00196171
0.00176345
0.00126183
0.00117569
0.00116546
0.00106267
0.000925624
0.000755836
0.000603462
0.000652574
0.000384974
0.00027745
0.00028817
0.00231278
0.00961428
0.0220008
0.00403958
0.00251338
0.00243835
0.00184059
0.0019051
0.00166645
0.00122394
0.00119507
0.00119819
0.00110467
0.00095751
0.000778619
0.000617703
0.000676099
0.000402609
0.000287621
0.000295431
0.00233518
0.00967204
0.0218722
0.00407848
0.00251226
0.00239239
0.00186247
0.00200219
0.00173349
0.00124626
0.00120334
0.0011757
0.0010823
0.000935945
0.000763296
0.000606188
0.000671284
0.000422043
0.000304476
0.000300488
0.00234624
0.0097275
0.0217305
0.00432922
0.00258757
0.00244284
0.00188587
0.00193594
0.00163435
0.00122876
0.0012233
0.001205
0.00112013
0.000964037
0.000786425
0.0006204
0.00069381
0.000446012
0.000327251
0.000305314
0.0023474
0.00977925
0.0216125
0.0044097
0.00263125
0.00243656
0.00193967
0.00199383
0.00167772
0.00125296
0.00122619
0.00117879
0.00109744
0.000943018
0.000774108
0.000609716
0.000688758
0.000470028
0.000356006
0.000310914
0.00234081
0.00982465
0.0214931
0.00455992
0.00265406
0.00249944
0.00198214
0.00193475
0.00159695
0.00124818
0.00124536
0.00120233
0.0011296
0.000966777
0.000797141
0.000624831
0.000708484
0.000496155
0.00039132
0.00031788
0.00232665
0.00986607
0.0213975
0.00479478
0.00271745
0.00251694
0.00202939
0.00194635
0.00161468
0.00126801
0.00124412
0.00117294
0.00110651
0.000946255
0.000787128
0.000616576
0.000703787
0.000522563
0.000433187
0.000326014
0.00230734
0.00991538
0.0213014
0.00486659
0.00273236
0.00258311
0.00207586
0.00189975
0.00155844
0.00127164
0.00126187
0.00119013
0.00113237
0.000965643
0.000808859
0.000633405
0.000721635
0.00055076
0.00048517
0.000336435
0.00227565
0.00996024
0.0212342
0.00522107
0.00283812
0.00260549
0.00211908
0.00187849
0.0015527
0.00128456
0.00125534
0.00115951
0.00110823
0.000945203
0.000798993
0.000626846
0.000717302
0.000583432
0.00053492
0.000352004
0.00223358
0.00999305
0.0211611
0.00542768
0.00291664
0.00262727
0.00214611
0.00183901
0.00151193
0.00129353
0.00127013
0.00117202
0.00112791
0.000960132
0.000819008
0.000645765
0.000732125
0.00062354
0.000595372
0.000376675
0.00219096
0.0100182
0.0210692
0.00565586
0.00301793
0.00262909
0.0022046
0.0018093
0.00150611
0.00131235
0.00126475
0.001145
0.00110747
0.000943325
0.000820597
0.000644643
0.0007287
0.000661342
0.00065609
0.000410573
0.00217256
0.0100576
0.0211115
0.00550161
0.00314253
0.00259676
0.0021873
0.00174149
0.00144986
0.00130232
0.00126381
0.00114857
0.00111692
0.000947559
0.000821938
0.000668924
0.00073813
0.000657323
0.000661574
0.000456236
0.00205034
0.0100854
0.0211013
0.00629501
0.00364214
0.00268529
0.00224403
0.00172828
0.00146395
0.00134418
0.00127932
0.00112965
0.00110035
0.000930204
0.000825831
0.000684076
0.000738836
0.000708746
0.000692715
0.000475923
0.00194591
0.00985009
0.0204237
0.0190945
0.0356055
0.0185913
0.0229605
0.0186569
0.0157829
0.0145245
0.0138401
0.0120303
0.0121576
0.0105953
0.00990248
0.00764012
0.00792708
0.00833457
0.00879187
0.00504648
0.0148258
0.0958393
0.18209
0.0384785
0.0237952
0.0190251
0.0155245
0.0144638
0.0123036
0.0120389
0.0102067
0.00881223
0.00893871
0.00873193
0.00841427
0.00601365
0.00508586
0.00768151
0.00788177
0.0057583
0.0218354
0.0966807
0.169708
0.0236373
0.0143382
0.0135261
0.0115551
0.0106637
0.00872948
0.00823877
0.00739862
0.00637009
0.00667426
0.00735834
0.00762892
0.0055467
0.00462388
0.00768991
0.00770741
0.00690129
0.0216637
0.0958026
0.166881
0.0115792
0.00830625
0.0074285
0.00852377
0.00893302
0.00761033
0.00732118
0.00627574
0.00478455
0.00591102
0.00726189
0.00680416
0.00447967
0.00305141
0.00658575
0.00629565
0.00684779
0.0264796
0.0955248
0.156921
0.00647714
0.00345246
0.00725244
0.00675159
0.00704565
0.00532129
0.00516382
0.00457047
0.0030008
0.00473547
0.00657778
0.0057628
0.00413023
0.00257072
0.00564843
0.00520731
0.00839171
0.0312783
0.0941454
0.15282
0.00329807
0.00428024
0.00462657
0.00449869
0.00502562
0.00443011
0.00455981
0.00422248
0.00252376
0.00386798
0.00667646
0.00441081
0.00348527
0.00272001
0.00497553
0.00408636
0.00572065
0.0360199
0.0941908
0.144028
0.00223372
0.00142125
0.0043637
0.00458846
0.00445264
0.00299695
0.00294247
0.00330515
0.0025455
0.00339015
0.0059894
0.00303054
0.00331697
0.00343192
0.00425891
0.00282319
0.00436522
0.0413916
0.0943281
0.137839
0.00254484
0.00355526
0.00329735
0.00279441
0.00271687
0.00284825
0.00216528
0.00245268
0.00328309
0.00356493
0.00526083
0.00348797
0.00227667
0.00445621
0.0041223
0.00207913
0.00259682
0.0449618
0.0955614
0.129968
0.00212442
0.00209401
0.00257171
0.00271639
0.00269561
0.00261689
0.0010761
0.00104596
0.00358507
0.00340657
0.00473683
0.0046241
0.00443768
0.00523733
0.0048003
0.00279863
0.00185481
0.0484772
0.0967712
0.1251
0.00206649
0.0021761
0.00195778
0.00188764
0.00163115
0.00189839
0.00212998
0.00219732
0.00326128
0.00340076
0.00478297
0.00512493
0.00450857
0.00535025
0.00643725
0.00214248
0.00168131
0.0502747
0.0985682
0.121045
0.000900977
0.00139461
0.00128967
0.00172601
0.00174747
0.00227646
0.00231558
0.0023429
0.00289705
0.00340418
0.00476765
0.00495522
0.00478562
0.00555778
0.00711753
0.00500093
0.00299861
0.0384264
0.0994008
0.122452
0.00083299
0.00124792
0.00109439
0.00145227
0.00119668
0.00158023
0.00180693
0.00202045
0.0023163
0.00306083
0.00419436
0.00451143
0.00482299
0.00568679
0.00692526
0.00684453
0.00544532
0.0240594
0.0991766
0.138028
0.000661158
0.000803667
0.0010303
0.00132649
0.0013552
0.00155577
0.00157215
0.00162372
0.00174193
0.00287675
0.00346268
0.00394145
0.00385513
0.00500254
0.00490303
0.00789444
0.00278233
0.0156768
0.0922634
0.155514
0.000548806
0.000778194
0.000844779
0.00109948
0.00122531
0.001357
0.00149583
0.0015272
0.00119998
0.00205385
0.00300078
0.0035528
0.00347816
0.0046974
0.00460506
0.00548204
0.00712047
0.0074744
0.0731429
0.175143
0.000555463
0.000638676
0.000748818
0.000975022
0.00112846
0.00133332
0.00141661
0.00170454
0.00144319
0.00164044
0.00233163
0.00304083
0.0034427
0.00376113
0.00452054
0.00405076
0.00588381
0.0100129
0.0337785
0.166301
0.000540507
0.000604427
0.000578202
0.000677951
0.000736062
0.000976401
0.00115004
0.00146398
0.00157587
0.00141729
0.0015416
0.00239924
0.00254777
0.00293473
0.00294471
0.00373325
0.00417224
0.00672221
0.0132352
0.108532
0.000423033
0.000496909
0.000577232
0.000596455
0.00069837
0.000808934
0.000893513
0.000989773
0.00123513
0.00106572
0.00132311
0.00145971
0.0015915
0.00182371
0.00233985
0.00313639
0.00307376
0.00348076
0.00338681
0.0519749
0.00026124
0.000338095
0.000386213
0.000457948
0.000463131
0.000487845
0.000541217
0.000704339
0.000756536
0.000927746
0.00103196
0.00110163
0.00101167
0.00139287
0.00131819
0.00156681
0.0017002
0.00230174
0.00415916
0.02165
0.000219658
0.000281918
0.000248757
0.00028453
0.000310356
0.000409538
0.000510076
0.000509637
0.000486301
0.000645934
0.00077284
0.000819721
0.000883195
0.000989276
0.000883379
0.000978232
0.000782769
0.000837438
0.000807251
0.00845696
0.000177061
0.000173021
0.00020999
0.000278313
0.000324548
0.000368347
0.000396401
0.000375578
0.000471066
0.000565775
0.000555564
0.000597504
0.000623852
0.00067559
0.000696564
0.000733454
0.000844366
0.000925572
0.000869542
0.00147512
0.0133319
0.0135955
0.0136199
0.0137588
0.0136622
0.013669
0.0134813
0.0132397
0.01324
0.0126894
0.0125647
0.0121669
0.0118801
0.0105195
0.0110426
0.010069
0.010151
0.00960434
0.00944887
0.00890332
0.00666024
0.00687654
0.00685774
0.00689662
0.00678678
0.00679699
0.00669545
0.00654543
0.00645562
0.0064099
0.006052
0.00687055
0.00679926
0.00679343
0.00621328
0.00660664
0.00675458
0.0063001
0.00664098
0.00830481
0.00432878
0.00458003
0.00456748
0.00457282
0.00460314
0.00460369
0.00455472
0.00469523
0.0045432
0.0044554
0.00461543
0.004527
0.0041102
0.00389737
0.00387836
0.00409792
0.00352592
0.00360445
0.00323965
0.00501042
0.00310592
0.0033341
0.00317014
0.00309557
0.00303505
0.0029582
0.00289886
0.00273595
0.0026493
0.00266268
0.00246226
0.00260583
0.00281522
0.00304768
0.00296665
0.00297685
0.00274559
0.00311833
0.00287259
0.00419001
0.00237965
0.00250568
0.0022563
0.00215196
0.00208996
0.00202959
0.00197671
0.00195775
0.00197024
0.00199259
0.00216636
0.0021654
0.00210476
0.00197651
0.00191018
0.00209128
0.00194927
0.00199193
0.00180423
0.00271641
0.00188364
0.00183508
0.00167386
0.00160316
0.00155803
0.0015069
0.00147094
0.00145022
0.00142927
0.00146278
0.00137149
0.00140416
0.00140719
0.00140164
0.00139399
0.00135076
0.00131956
0.00149606
0.00135829
0.00168217
0.0011576
0.00109111
0.0010078
0.000970517
0.000947014
0.000912216
0.000893718
0.000886786
0.000885373
0.000899784
0.000928197
0.000988501
0.000908351
0.000940153
0.000887235
0.000933709
0.000912786
0.00100777
0.000871117
0.000791852
0.000758934
0.000692752
0.000675315
0.0006558
0.000647534
0.000627713
0.000624437
0.000622362
0.000627132
0.000624937
0.000626262
0.000624729
0.000607634
0.000640776
0.000629523
0.000673835
0.000559513
0.000584463
0.000554619
0.000477488
0.000386205
0.000351982
0.00036344
0.000346791
0.000344037
0.000340233
0.000343944
0.000357224
0.000364074
0.000366685
0.000375466
0.000375235
0.000395963
0.000418737
0.000443421
0.000497717
0.000442418
0.000519119
0.000320526
0.000255024
0.000245026
0.000244717
0.000246626
0.000245401
0.00024714
0.000258474
0.000266954
0.000278937
0.000275534
0.000279114
0.000280872
0.000284746
0.000284389
0.000295843
0.000306325
0.000345164
0.000295131
0.000294482
0.000212289
0.000344108
0.000103836
0.000105414
0.000103276
0.000111265
0.00011457
0.000134757
0.000142149
0.000148957
0.000151613
0.000163211
0.000158107
0.000182309
0.000159108
0.000216329
0.00020909
0.000291947
0.000253784
0.000334077
0.000344419
0.000232378
3.02015e-05
3.8594e-05
4.11573e-05
5.84483e-05
6.72453e-05
8.70969e-05
8.54681e-05
8.34752e-05
8.58955e-05
8.34798e-05
8.37713e-05
8.50853e-05
9.56836e-05
0.000141965
0.000159269
0.000182502
0.000168543
0.000173542
0.000203163
0.000268479
1.14892e-06
2.0754e-05
3.80869e-05
4.93658e-05
6.14966e-05
7.6136e-05
7.69745e-05
7.89632e-05
5.95362e-05
8.32626e-05
6.59982e-05
9.36885e-05
6.27347e-05
9.47639e-05
5.92198e-05
0.000116763
0.000109454
0.000139341
0.000132468
0.000152086
4.47252e-05
6.16571e-05
3.2224e-05
6.48134e-05
3.20813e-05
6.12133e-05
4.11436e-05
6.27766e-05
5.69771e-05
6.86653e-05
7.80982e-05
8.4013e-05
9.83623e-05
0.00011484
0.000124933
0.000117923
9.73843e-05
0.000106836
0.00015681
0.00018599
7.54697e-05
7.22834e-05
7.58217e-05
8.23506e-05
9.15058e-05
8.04652e-05
8.64793e-05
6.61813e-05
8.52923e-05
6.94738e-05
8.44277e-05
7.40149e-05
8.67721e-05
0.00010063
7.74327e-05
0.000115816
9.18514e-05
0.000122281
9.00828e-05
0.000113726
5.73806e-05
6.58686e-05
6.70085e-05
7.45359e-05
8.66586e-05
8.38571e-05
8.18455e-05
8.20384e-05
8.72959e-05
8.59198e-05
9.28675e-05
9.60019e-05
0.00010314
0.000105045
0.0001084
0.000114506
0.000121723
0.000132255
0.000140739
0.000130688
6.41177e-05
6.49221e-05
7.22641e-05
7.76573e-05
3.174e-05
6.81484e-05
3.25576e-05
6.52822e-05
2.74703e-05
6.78568e-05
3.57133e-05
6.95938e-05
7.26243e-05
6.93089e-05
7.52106e-05
7.26907e-05
8.03227e-05
8.23747e-05
9.30069e-05
9.95827e-05
5.61446e-05
5.36806e-05
5.43187e-05
4.97103e-05
4.99175e-05
4.62597e-05
5.5374e-05
5.55356e-05
5.96733e-05
6.02463e-05
5.94632e-05
6.00355e-05
5.7138e-05
6.10055e-05
5.80883e-05
6.42826e-05
5.83884e-05
6.83581e-05
5.77534e-05
7.4087e-05
2.49411e-05
2.48319e-05
2.52441e-05
2.81542e-05
3.15671e-05
3.3099e-05
3.51478e-05
3.37673e-05
3.6447e-05
3.37572e-05
3.92536e-05
3.77389e-05
4.44516e-05
4.18999e-05
4.85216e-05
4.43882e-05
5.1612e-05
4.75251e-05
4.87154e-05
4.91002e-05
8.28983e-06
9.5967e-06
1.0722e-05
1.17746e-05
1.25085e-05
1.36478e-05
1.47029e-05
1.55917e-05
1.6752e-05
1.73773e-05
1.90911e-05
1.94461e-05
2.1806e-05
2.1845e-05
2.41289e-05
2.38623e-05
2.62872e-05
2.54988e-05
2.64064e-05
3.45124e-05
0.000999413
0.00122741
0.000887635
0.000937476
0.000975518
0.000973062
0.00101288
0.0010308
0.00105033
0.00111008
0.00116019
0.00115028
0.00122024
0.00128601
0.0013445
0.00136493
0.00140602
0.00184682
0.00655187
0.0185105
0.000908519
0.00101808
0.000779782
0.000851294
0.000930437
0.000958968
0.000989054
0.00101969
0.00107047
0.00112287
0.0011466
0.00118315
0.00126295
0.00129114
0.00134927
0.00135886
0.00143427
0.0012947
0.00533302
0.0181286
0.000983938
0.00115929
0.000866844
0.000920714
0.000975854
0.000987304
0.00102588
0.00106208
0.00109842
0.00114234
0.00118028
0.0011919
0.00125686
0.00130595
0.00136465
0.00136586
0.00148179
0.00124957
0.00467563
0.0177157
0.00101324
0.00113778
0.000837708
0.000883397
0.000941407
0.000970522
0.00100169
0.00104112
0.00108041
0.00112872
0.00114692
0.00119171
0.00127428
0.00129794
0.00135274
0.00136299
0.00149021
0.00127628
0.00391914
0.0172541
0.00100309
0.00115989
0.000874364
0.000915505
0.000988508
0.00101796
0.00106678
0.00110199
0.00113706
0.00116741
0.00119816
0.00123917
0.00129344
0.00132644
0.00138827
0.00139932
0.0015212
0.00132718
0.00446473
0.0166292
0.00105825
0.00116319
0.000879618
0.000958523
0.0010139
0.00104695
0.00105064
0.00106755
0.00109005
0.00112972
0.00116599
0.00122204
0.00128471
0.00131697
0.00138531
0.00141067
0.00156355
0.00141519
0.0048372
0.0159942
0.00104922
0.00115106
0.000911811
0.000980546
0.00103228
0.00103197
0.00104609
0.00108737
0.0011269
0.00117938
0.00122296
0.00126875
0.00130931
0.00135885
0.00142442
0.00145667
0.00158651
0.0014536
0.00461024
0.0153971
0.00108168
0.00117501
0.000937637
0.000992821
0.00101374
0.00101791
0.0010417
0.00108516
0.00112446
0.00117522
0.00120004
0.00124617
0.00128871
0.0013428
0.00139763
0.00144013
0.00157531
0.00145152
0.00390263
0.0142237
0.00104681
0.00110191
0.00090289
0.00094386
0.000975708
0.000998634
0.00104393
0.00110137
0.00113287
0.00118474
0.0012078
0.00125144
0.00129184
0.00136627
0.00139872
0.0014607
0.00153624
0.00148433
0.00297889
0.012515
0.00101397
0.00106032
0.000891012
0.000946134
0.000985912
0.00102916
0.00108594
0.00111578
0.00115487
0.00119389
0.00118665
0.00123716
0.00128364
0.00132893
0.00134789
0.00142168
0.00148302
0.00152977
0.00245211
0.00996382
0.00102187
0.0010448
0.000917529
0.00096862
0.00100873
0.00106517
0.00107814
0.00110993
0.00112709
0.00112428
0.00114256
0.00121775
0.00125878
0.00132216
0.00135681
0.00144535
0.00149112
0.00153276
0.00201227
0.00790154
0.000948735
0.000970144
0.000895627
0.000943563
0.00101028
0.00103339
0.00104864
0.00107601
0.00107563
0.0011222
0.00118354
0.00126427
0.00129557
0.00133151
0.00136024
0.00144484
0.0014588
0.00151307
0.00176825
0.0064508
0.00096815
0.001044
0.000978947
0.00103182
0.00105765
0.00105721
0.00107089
0.00108233
0.00112216
0.00117503
0.00122431
0.00127941
0.00127884
0.00135312
0.00139122
0.00145484
0.00144542
0.00149335
0.00155952
0.00522959
0.00102481
0.00106021
0.000963349
0.000986603
0.000984165
0.00100344
0.00101954
0.0010695
0.00111627
0.00116309
0.00122
0.0012346
0.00127649
0.00134277
0.00132882
0.00138644
0.00137141
0.00147405
0.00153432
0.00469878
0.000935635
0.000935605
0.000904128
0.000930162
0.000981236
0.00102027
0.00106659
0.00111944
0.00114092
0.00119213
0.0011905
0.00122239
0.00124904
0.00124937
0.00125795
0.00137562
0.0014299
0.00156781
0.00158089
0.00432156
0.000923134
0.000968763
0.000934148
0.000965562
0.00101625
0.00101803
0.0010613
0.0010605
0.00109777
0.00111205
0.00113647
0.00118715
0.00121691
0.00128856
0.00138857
0.00151062
0.00144307
0.00149934
0.00158935
0.00448003
0.00090817
0.000957163
0.000917845
0.000969012
0.000995925
0.00102004
0.00105926
0.00108126
0.00113891
0.00115474
0.00122359
0.00124454
0.00130004
0.00132983
0.00137321
0.00126383
0.00120985
0.00136854
0.00161864
0.00379376
0.000900109
0.000928705
0.000906293
0.000953509
0.000976523
0.00101217
0.00103347
0.00107217
0.00110028
0.00112959
0.00116817
0.00118967
0.00123311
0.00123914
0.00126251
0.00127918
0.00150027
0.00167213
0.00178709
0.00362334
0.00090969
0.000950938
0.000931619
0.00096918
0.00100015
0.00102136
0.00105018
0.00107979
0.00110641
0.00114049
0.00117202
0.00119454
0.00123594
0.00126997
0.00135517
0.00144128
0.00159328
0.00154331
0.0015215
0.00207779
0.000870207
0.000901702
0.000881651
0.000926556
0.00095756
0.000983712
0.00101689
0.00105022
0.0010895
0.0011275
0.00117601
0.00122712
0.0012915
0.00136046
0.00141218
0.00149635
0.00148945
0.00145816
0.00150653
0.00159919
0.000383843
0.000315337
0.000343292
0.000326833
0.000299429
0.000283
0.000321717
0.000331698
0.00029067
0.000316333
0.000339215
0.000218298
0.000131453
0.000903172
0.0035402
0.00796968
0.0116293
0.00932395
0.00404716
0.000682304
0.000447131
0.000359121
0.000304823
0.000335464
0.000353755
0.000322858
0.000324428
0.000306398
0.000366769
0.000341585
0.000328728
0.000291762
0.000150514
7.11058e-05
0.00160904
0.00555753
0.0104045
0.0112054
0.00687009
0.000798944
0.000486715
0.000461377
0.000379709
0.000343893
0.00036245
0.000338957
0.000375258
0.000347051
0.000325723
0.000359411
0.000404672
0.000371752
0.000278046
0.000131882
0.000442993
0.00345448
0.00854373
0.0120155
0.009145
0.0021775
0.000519149
0.000488432
0.00040364
0.00037921
0.000420486
0.000377997
0.000385753
0.000385921
0.000404566
0.000361023
0.000354703
0.000427849
0.000405887
0.000308234
0.000167534
0.00153912
0.00657811
0.0118574
0.0103595
0.00256721
0.000537629
0.000566853
0.000478437
0.000381414
0.000429155
0.00041267
0.000442112
0.000413592
0.000407868
0.00045141
0.000453103
0.000407765
0.000440804
0.000408147
0.000145463
0.000365641
0.0044642
0.0107406
0.0116548
0.00468679
0.000526428
0.000556218
0.000530486
0.000443948
0.000489909
0.000454269
0.000469151
0.000484426
0.000477069
0.000451562
0.000485732
0.000532281
0.000540478
0.00053475
0.000380344
0.00021734
0.00215489
0.00963827
0.0123797
0.00712567
0.000563818
0.000608
0.000562017
0.000450263
0.000507026
0.000503114
0.00052492
0.000509263
0.000511568
0.000548548
0.000549733
0.000529131
0.00054262
0.0006452
0.000605264
0.000241265
0.00093906
0.00837676
0.0126412
0.00964953
0.000563388
0.000612048
0.000622411
0.000520979
0.000563422
0.000540229
0.000561944
0.000590927
0.000575447
0.000567592
0.000625494
0.000669251
0.000646251
0.000707688
0.000704087
0.000441393
0.000410542
0.00667454
0.0126258
0.0121358
0.000613977
0.000642604
0.000623964
0.000522426
0.000589456
0.000599525
0.000613806
0.000611304
0.000618426
0.000650938
0.000665422
0.000661607
0.000681056
0.000783469
0.00082837
0.000632923
0.000254144
0.0046146
0.0125051
0.014426
0.000606983
0.00065844
0.000707367
0.000609554
0.000649928
0.000637609
0.000661476
0.000699608
0.000682636
0.000683307
0.000751391
0.000794802
0.000773541
0.000821469
0.000899023
0.00082746
0.000293462
0.00303902
0.012258
0.0159703
0.000674516
0.000677709
0.000710484
0.000624903
0.000683734
0.000704302
0.000711799
0.00071333
0.00072338
0.000756755
0.000786183
0.000790814
0.000810186