/*--------------------------------*- C++ -*----------------------------------*\
  =========                 |
  \\      /  F ield         | OpenFOAM: The Open Source CFD Toolbox
   \\    /   O peration     | Website:  https://openfoam.org
    \\  /    A nd           | Version:  9
     \\/     M anipulation  |
\*---------------------------------------------------------------------------*/
FoamFile
{
    format      ascii;
    class       volScalarField;
    location    "7.9";
    object      p;
}
// * * * * * * * * * * * * * * * * * * * * * * * * * * * * * * * * * * * * * //

dimensions      [0 2 -2 0 0 0 0];

internalField   nonuniform List<scalar> 
46400
(
-156.83
-146.421
-127.373
-111.263
-96.3781
-82.6998
-70.2894
-58.7798
-48.2756
-38.4952
-29.4595
-21.0465
-13.1852
-5.79651
1.22409
7.90346
14.1694
20.8155
27.4999
30.3693
-119.05
-108.858
-91.2519
-76.4303
-62.8038
-50.253
-38.9462
-28.4529
-18.89
-10.054
-1.94183
5.59114
12.54
19.0046
25.0248
30.5979
35.7309
40.8968
45.6921
47.4287
-80.5829
-70.6033
-54.7341
-41.2091
-29.0848
-17.7908
-7.69919
1.6379
10.0975
17.9211
25.0901
31.6876
37.781
43.3862
48.5939
53.3765
57.6999
62.0726
65.6783
66.1862
-42.3504
-33.7182
-19.6239
-7.31754
3.60273
13.788
22.8474
31.1913
38.7144
45.5793
51.8165
57.5166
62.7121
67.4483
71.811
75.7545
79.3131
82.873
85.9534
86.1136
-4.92523
2.30609
14.8393
26.0209
35.7186
44.7611
52.7302
60.0379
66.5785
72.5371
77.9365
82.8275
87.2898
91.3056
94.9648
98.2682
101.151
104.062
106.523
106.223
29.9135
35.9583
47.6889
57.9562
66.7291
74.859
81.9101
88.2934
93.9586
99.0199
103.546
107.571
111.201
114.43
117.371
119.964
122.276
124.597
126.628
126.094
63.1704
69.3394
80.0559
89.3297
96.9699
104.014
110.091
115.515
120.299
124.521
128.307
131.628
134.591
137.178
139.446
141.419
143.065
144.75
146.117
145.208
95.8409
102.677
111.874
120.073
126.61
132.554
137.603
142.021
145.882
149.221
152.129
154.64
156.832
158.728
160.397
161.811
162.989
164.164
165.151
164.026
128.364
135.74
142.787
149.545
154.876
159.629
163.73
167.222
170.249
172.791
175.007
176.848
178.4
179.654
180.677
181.489
182.086
182.71
183.283
181.948
159.548
166.933
172.454
177.632
181.878
185.445
188.49
190.991
193.123
194.844
196.257
197.371
198.263
198.933
199.444
199.741
199.864
200.008
200.092
198.621
189.938
195.793
200.087
203.804
206.942
209.491
211.651
213.328
214.694
215.684
216.442
216.907
217.164
217.209
217.107
216.852
216.452
216.08
215.658
213.913
217.153
221.601
224.986
227.672
229.895
231.568
232.904
233.802
234.445
234.764
234.884
234.779
234.535
234.106
233.562
232.866
232.048
231.251
230.396
228.444
241.177
244.803
247.511
249.391
250.931
251.853
252.525
252.76
252.774
252.451
251.952
251.224
250.374
249.381
248.301
247.121
245.848
244.602
243.318
241.143
262.234
265.097
267.119
268.366
269.29
269.684
269.773
269.515
269.033
268.324
267.433
266.354
265.136
263.781
262.329
260.782
259.141
257.53
255.885
253.436
281.685
283.909
285.372
285.998
286.34
286.108
285.636
284.767
283.715
282.42
281.002
279.435
277.766
276.002
274.163
272.261
270.29
268.351
266.412
263.847
297.675
299.231
300.256
300.389
300.348
299.76
298.949
297.817
296.484
294.93
293.226
291.385
289.437
287.398
285.292
283.118
280.885
278.668
276.486
273.701
313.226
314.026
314.453
313.997
313.359
312.204
310.845
309.204
307.409
305.443
303.362
301.175
298.917
296.592
294.226
291.821
289.374
286.959
284.616
281.762
325.14
325.12
324.996
324.123
323.127
321.821
320.306
318.56
316.618
314.512
312.262
309.899
307.447
304.928
302.366
299.775
297.144
294.548
292.056
289.061
335.356
335.162
334.407
333.177
331.668
329.93
327.962
325.856
323.587
321.218
318.729
316.185
313.552
310.898
308.185
305.48
302.721
300.009
297.383
294.417
340.828
340.944
340.307
339.322
337.941
336.243
334.267
332.066
329.701
327.188
324.566
321.846
319.065
316.223
313.359
310.469
307.557
304.666
301.876
298.759
-546.016
-545.897
-532.246
-512.529
-490.282
-469.275
-449.815
-431.541
-414.264
-397.95
-382.485
-367.803
-353.868
-340.573
-327.993
-315.932
-304.695
-293.859
-283.853
-274.274
-557.242
-557.246
-539.745
-517.488
-493.941
-471.749
-451.097
-431.915
-413.864
-396.88
-380.826
-365.657
-351.284
-337.668
-324.787
-312.455
-301.013
-289.964
-279.865
-270.087
-567.362
-563.565
-542.807
-518.646
-494.347
-471.514
-450.157
-430.218
-411.547
-393.999
-377.443
-361.823
-347.072
-333.088
-319.892
-307.336
-295.681
-284.433
-274.218
-264.255
-569.028
-563.611
-543.251
-517.296
-492.11
-468.579
-446.775
-426.396
-407.291
-389.403
-372.555
-356.679
-341.693
-327.562
-314.205
-301.511
-289.746
-278.383
-268.162
-258.053
-567.135
-561.955
-538.142
-512.108
-487.022
-463.119
-441.024
-420.36
-400.974
-382.793
-365.678
-349.572
-334.412
-320.093
-306.61
-293.85
-282.021
-270.594
-260.42
-250.23
-561.594
-556.428
-533.661
-505.514
-479.938
-455.702
-433.184
-412.252
-392.641
-374.328
-357.133
-340.976
-325.762
-311.467
-297.972
-285.227
-273.391
-262.01
-251.913
-241.669
-553.589
-548.222
-524.683
-496.008
-469.766
-445.314
-422.675
-401.648
-382.028
-363.652
-346.423
-330.266
-315.092
-300.798
-287.368
-274.72
-262.944
-251.654
-241.698
-231.467
-542.015
-535.858
-511.37
-482.744
-456.608
-432.273
-409.663
-388.75
-369.194
-350.97
-333.91
-317.903
-302.88
-288.788
-275.508
-263.033
-251.409
-240.317
-230.566
-220.383
-526.48
-519.489
-494.664
-466.366
-440.483
-416.423
-394.09
-373.413
-354.111
-336.082
-319.217
-303.425
-288.632
-274.728
-261.688
-249.442
-237.992
-227.108
-217.559
-207.486
-508.245
-500.436
-475.207
-447.235
-421.725
-398.136
-376.112
-355.809
-336.859
-319.225
-302.757
-287.323
-272.876
-259.335
-246.605
-234.687
-223.539
-212.979
-203.731
-193.769
-486
-477.596
-452.377
-425.154
-400.248
-377.251
-355.816
-335.994
-317.539
-300.304
-284.224
-269.194
-255.143
-241.963
-229.631
-218.074
-207.227
-197.027
-188.085
-178.377
-461.705
-452.736
-427.661
-400.996
-376.555
-354.277
-333.399
-314.169
-296.278
-279.644
-264.141
-249.624
-236.076
-223.385
-211.492
-200.384
-189.96
-180.175
-171.589
-162.056
-433.957
-424.77
-399.665
-374.321
-350.59
-329.06
-308.999
-290.42
-273.179
-257.094
-242.13
-228.172
-215.15
-202.967
-191.6
-180.963
-170.963
-161.673
-153.478
-144.293
-404.476
-395.09
-369.983
-345.786
-322.905
-302.156
-282.845
-265.039
-248.518
-233.178
-218.91
-205.565
-193.152
-181.532
-170.696
-160.59
-151.098
-142.291
-134.494
-125.559
-372.507
-363.074
-338.04
-315.029
-293.261
-273.436
-255.049
-238.024
-222.266
-207.58
-193.968
-181.289
-169.487
-158.48
-148.237
-138.669
-129.678
-121.437
-114.043
-105.472
-339.099
-329.418
-305.227
-283.178
-262.488
-243.604
-226.103
-209.951
-195.006
-181.128
-168.252
-156.226
-145.07
-134.637
-124.961
-115.941
-107.492
-99.7649
-92.7791
-84.4947
-304.046
-294.34
-271.024
-250.027
-230.387
-212.499
-195.938
-180.616
-166.491
-153.337
-141.189
-129.882
-119.382
-109.613
-100.545
-92.0875
-84.1688
-77.0298
-70.4847
-62.6393
-268.201
-258.399
-236.101
-216.28
-197.699
-180.792
-165.217
-150.809
-137.537
-125.206
-113.802
-103.17
-93.3182
-84.1305
-75.6482
-67.7322
-60.3837
-53.8382
-47.817
-40.3262
-231.636
-221.716
-200.294
-181.583
-164.12
-148.218
-133.6
-120.069
-107.65
-96.084
-85.4119
-75.4764
-66.2513
-57.6694
-49.6836
-42.1886
-35.2684
-29.2101
-23.321
-15.4159
-194.605
-184.419
-164.063
-146.727
-130.46
-115.641
-102.1
-89.5209
-77.9632
-67.1917
-57.2153
-47.858
-39.1128
-30.8748
-23.0886
-15.658
-8.79617
-2.24397
5.05891
13.0284
-228.144
-178.457
-132.262
-104.656
-76.7659
-58.7765
-42.062
-29.481
-19.082
-9.936
-3.31151
3.42387
7.69551
12.7267
15.5677
19.2263
21.2946
23.0995
23.7798
24.341
-223.565
-174.713
-128.505
-101.846
-74.2131
-56.7327
-40.3232
-27.9725
-17.7991
-8.79964
-2.33276
4.29245
8.44888
13.4062
16.1021
19.7267
21.516
23.5886
23.8774
24.5043
-217.462
-170.462
-124.747
-99.0086
-71.7271
-54.6619
-38.5576
-26.4348
-16.4908
-7.63972
-1.33397
5.17407
9.203
14.068
16.6325
20.2233
21.8287
24.0605
24.081
24.7495
-211.447
-165.874
-120.615
-95.7812
-68.9911
-52.395
-36.6817
-24.7747
-15.0953
-6.39003
-0.258509
6.12906
10.0414
14.8144
17.2389
20.7623
22.1875
24.4997
24.3488
25.0085
-204.122
-160.661
-116.447
-92.5524
-66.3029
-50.0989
-34.7775
-23.0838
-13.6712
-5.11787
0.839975
7.1001
10.8811
15.5459
17.8469
21.3157
22.5891
24.9546
24.6219
25.3065
-196.626
-155.1
-111.864
-88.9272
-63.3732
-47.616
-32.7615
-21.2775
-12.1615
-3.75827
2.01312
8.14234
11.8049
16.3625
18.5269
21.9078
23.0587
25.4027
24.9331
25.6291
-187.913
-148.956
-107.226
-85.2995
-60.481
-45.0963
-30.7153
-19.4385
-10.6203
-2.37642
3.2119
9.20207
12.7315
17.168
19.214
22.5024
23.5536
25.8461
25.2957
26.0013
-178.873
-142.43
-102.169
-81.2786
-57.358
-42.405
-28.5573
-17.4934
-8.99506
-0.911562
4.48329
10.3309
13.7402
18.0575
19.9639
23.1676
24.0871
26.307
25.6929
26.4001
-168.78
-135.343
-97.0373
-77.2488
-54.264
-39.6705
-26.3665
-15.5144
-7.33642
0.575785
5.78182
11.4775
14.76
18.9398
20.7298
24.0004
24.6647
26.8207
26.1651
26.8502
-158.142
-127.9
-91.5007
-72.8384
-50.9557
-36.784
-24.0653
-13.4401
-5.59574
2.14027
7.15069
12.6906
15.8645
19.8941
21.5795
24.8185
25.2883
27.3534
26.6988
27.3531
-146.517
-119.939
-85.8886
-68.416
-47.6664
-33.8532
-21.7286
-11.3317
-3.82085
3.72751
8.54671
13.9201
16.9925
20.8298
22.4346
25.6147
25.9114
27.9063
27.2901
27.8911
-134.234
-111.633
-79.9069
-63.6322
-44.1881
-30.7956
-19.287
-9.14062
-1.96785
5.38444
10.0091
15.2119
18.1979
21.8351
23.3466
26.4102
26.5409
28.4876
27.924
28.4665
-120.958
-102.869
-73.859
-58.8237
-40.7036
-27.6921
-16.8025
-6.91349
-0.0789964
7.06514
11.4976
16.5184
19.4209
22.8286
24.3358
27.1927
27.2021
29.0728
28.5784
29.0667
-106.984
-93.7923
-67.5283
-53.6945
-37.0611
-24.4881
-14.2168
-4.61103
1.88645
8.81128
13.0502
17.8856
20.7091
23.9404
25.3709
28.0238
27.8578
29.6743
29.2114
29.6768
-91.8746
-84.2791
-61.2285
-48.6057
-33.4397
-21.2899
-11.6157
-2.29348
3.8736
10.5724
14.6196
19.2605
21.9956
25.0447
26.293
28.8747
28.5523
30.2807
29.7989
30.2796
-75.7599
-74.143
-54.5753
-43.1661
-29.6416
-18.002
-8.92134
0.0830462
5.92439
12.3832
16.2414
20.6847
23.3127
26.227
27.348
29.7723
29.2647
30.8636
30.3189
30.8942
-59.2445
-63.6643
-47.7649
-37.4792
-25.578
-14.5078
-6.04198
2.59985
8.08673
14.2722
17.9268
22.1568
24.6582
27.4477
28.4719
30.7154
30.0287
31.4617
30.7286
31.4529
-42.3937
-53.7485
-41.6541
-32.2581
-21.8211
-11.2402
-3.24011
5.09676
10.2655
16.2029
19.658
23.6798
26.0632
28.7147
29.6096
31.7154
30.7834
32.2707
31.25
32.1002
-19.6791
-42.1886
-36.3697
-28.1567
-18.9891
-8.91513
-1.14541
7.03829
12.0378
17.8175
21.1405
24.9965
27.2966
29.8442
30.6548
32.6102
31.3691
32.5065
31.418
32.5221
4.91747
-24.4948
-25.6116
-19.4399
-12.8836
-4.172
2.5484
10.0049
14.5866
19.8903
23.0257
26.613
28.8487
31.1947
31.9452
33.6365
32.1398
32.0693
30.7958
33.1441
50.4768
65.0177
52.4225
49.6829
42.2393
42.9013
38.9944
39.7533
38.6163
39.5936
39.8878
40.7944
41.2772
42.1755
42.5396
43.3396
42.8682
43.7322
41.545
46.7001
122.559
114.247
90.1065
83.978
72.5265
67.7073
61.5929
58.682
55.4961
53.8373
52.2446
51.7614
51.1057
50.9745
50.5235
50.5301
50.081
49.9225
49.2534
50.2992
138.786
127.786
114.722
106.14
97.5609
91.7511
85.9319
82.3421
78.6172
76.2635
73.6443
71.8414
70.1811
69.0329
68.0401
67.1017
66.6512
65.6714
65.7099
66.0588
149.389
140.668
129.248
121.578
113.034
107.128
100.967
96.2791
91.7668
88.2289
84.9436
82.3013
79.6801
77.5451
75.78
74.2522
73.0043
71.9513
71.528
71.3247
145.003
137.549
131.426
125.133
119.718
114.486
109.963
105.895
102.23
99.1094
96.1735
93.7511
91.5098
89.3948
87.4343
85.6258
84.0663
82.5008
81.5351
81.338
147.687
142.671
136.698
131.987
126.893
122.718
118.198
114.555
110.718
107.574
104.417
101.713
99.0576
96.8889
94.6699
92.5986
90.8968
89.1945
88.2598
87.6726
143.335
139.964
136.963
133.327
129.758
126.349
123.074
120.038
117.064
114.447
111.728
109.506
106.932
104.963
102.664
100.906
98.7124
97.0072
95.5199
94.8463
145.378
142.733
139.319
136.471
133.426
130.749
127.79
125.284
122.503
120.175
117.602
115.464
113.092
111.078
108.724
106.827
104.403
102.618
100.489
99.8627
144.171
142.419
140.567
138.467
136.092
133.937
131.645
129.637
127.443
125.577
123.436
121.719
119.539
117.991
115.645
114.134
111.391
109.852
107.075
106.455
145.679
144.173
142.027
140.442
138.503
136.953
135.042
133.431
131.638
130.067
128.348
126.839
125.111
123.656
121.719
120.311
117.708
116.502
112.968
112.73
146.398
145.334
144.034
142.803
141.332
140.074
138.697
137.513
136.186
135.112
133.833
132.871
131.587
130.756
129.31
128.664
126.529
126.586
122.244
123.972
147.293
146.438
145.257
144.409
143.288
142.436
141.39
140.571
139.647
138.904
138.165
137.537
137.008
136.505
136.148
135.84
135.533
135.46
136.183
137.734
148.763
148.166
147.338
146.724
145.954
145.385
144.72
144.26
143.742
143.444
143.098
142.984
142.907
142.961
143.4
143.508
144.886
144.758
147.775
148.273
149.705
149.24
148.579
148.145
147.57
147.217
146.757
146.545
146.232
146.225
146.093
146.4
146.507
147.308
147.759
149.113
150.167
152.253
155.046
156.148
151.081
150.76
150.296
150.031
149.665
149.506
149.265
149.264
149.185
149.411
149.559
150.083
150.531
151.418
152.152
153.691
155.021
157.341
158.777
162.675
151.858
151.584
151.232
151.026
150.766
150.671
150.521
150.602
150.603
150.899
151.018
151.615
151.849
152.867
153.312
154.799
155.421
157.533
158.403
169.127
152.846
152.634
152.379
152.246
152.101
152.089
152.107
152.214
152.371
152.64
153.005
153.48
154.08
154.845
155.437
156.657
157.33
159.145
160.147
163.127
153.377
153.206
153.007
152.924
152.757
152.709
152.731
152.93
153.063
153.428
153.634
154.155
154.423
155.078
155.596
156.467
157.018
158.193
158.156
167.108
153.841
153.67
153.524
153.44
153.463
153.51
153.551
153.668
153.81
154.034
154.279
154.669
155.014
155.581
155.971
156.62
156.995
157.67
157.859
159.209
154.003
153.845
153.717
153.647
153.613
153.686
153.729
153.858
154.004
154.248
154.506
154.866
155.21
155.683
156.088
156.669
157.053
157.744
157.995
164.821
262.119
259.337
256.085
251.991
247.337
241.778
235.713
228.545
221.132
212.305
202.724
192.878
181.951
170.215
158.192
145.051
131.829
117.357
103.105
88.4641
235.804
234.282
232.474
230.327
227.913
225.12
222.159
218.638
214.927
209.266
203.846
200.217
195.07
190.475
185.23
180.162
174.419
167.206
159.403
150.289
197.989
196.973
195.753
194.46
192.975
191.367
189.593
187.604
185.452
183.102
180.499
177.75
173.798
169.924
166.255
162.853
159.633
156.931
153.463
150.554
186.333
185.563
184.712
183.817
182.793
181.776
180.512
179.412
177.847
176.598
174.887
173.542
171.486
169.049
166.87
164.91
162.984
161.08
159.022
157.198
170.851
170.281
169.649
168.979
168.278
167.488
166.702
165.799
164.87
163.899
162.785
161.687
160.179
158.834
156.883
155.262
153.51
152.002
150.294
148.939
165.693
165.231
164.753
164.245
163.699
163.156
162.529
161.94
161.231
160.573
159.744
159.101
158.197
157.422
156.153
154.879
153.806
152.726
151.812
150.948
158.804
158.397
157.958
157.489
156.995
156.467
155.915
155.34
154.721
154.092
153.368
152.657
151.657
150.711
149.628
148.73
147.753
146.924
146.014
145.243
156.647
156.31
155.948
155.53
155.086
154.62
154.146
153.649
153.137
152.614
152.075
151.508
150.968
150.349
149.777
149.294
148.73
148.231
147.663
147.145
153.408
153.06
152.678
152.216
151.751
151.293
150.852
150.405
149.979
149.557
149.151
148.76
148.368
147.982
147.595
147.181
146.751
146.326
145.873
145.462
152.614
152.365
152.096
151.811
151.517
151.214
150.914
150.615
150.327
150.024
149.724
149.416
149.112
148.795
148.479
148.153
147.822
147.473
147.108
146.743
151.939
151.741
151.549
151.353
151.157
150.949
150.73
150.497
150.259
150.008
149.753
149.485
149.215
148.933
148.652
148.361
148.072
147.782
147.492
147.212
152.09
151.916
151.738
151.554
151.372
151.185
151
150.803
150.597
150.384
150.172
149.949
149.726
149.494
149.262
149.018
148.778
148.525
148.273
148.015
152.635
152.485
152.331
152.175
152.015
151.851
151.686
151.516
151.346
151.171
150.997
150.816
150.638
150.451
150.269
150.078
149.891
149.694
149.503
149.302
153.001
152.865
152.729
152.589
152.449
152.306
152.162
152.016
151.869
151.72
151.569
151.417
151.264
151.107
150.952
150.792
150.634
150.471
150.311
150.146
153.758
153.638
153.518
153.398
153.276
153.154
153.032
152.909
152.786
152.662
152.539
152.414
152.29
152.165
152.041
151.915
151.791
151.665
151.541
151.414
154.185
154.072
153.96
153.847
153.736
153.624
153.513
153.402
153.293
153.183
153.074
152.966
152.859
152.752
152.646
152.54
152.436
152.331
152.229
152.126
154.832
154.728
154.625
154.523
154.421
154.321
154.222
154.125
154.028
153.933
153.84
153.747
153.656
153.567
153.479
153.392
153.306
153.222
153.139
153.058
155.157
155.056
154.956
154.854
154.752
154.652
154.551
154.453
154.358
154.267
154.183
154.102
154.023
153.947
153.873
153.802
153.731
153.665
153.599
153.537
155.516
155.423
155.335
155.248
155.16
155.067
154.974
154.882
154.789
154.7
154.611
154.528
154.449
154.375
154.303
154.234
154.168
154.106
154.045
153.988
155.616
155.521
155.428
155.337
155.248
155.16
155.075
154.991
154.909
154.828
154.75
154.674
154.6
154.528
154.459
154.391
154.326
154.264
154.203
154.145
154.649
153.984
150.89
148.181
145.581
142.79
139.854
136.705
133.307
129.623
125.586
121.14
116.265
110.788
104.866
98.0751
90.8579
82.5311
72.8427
66.5983
166.243
166.393
164.582
162.696
160.842
158.763
156.457
153.919
151.104
147.975
144.502
140.619
136.326
131.497
126.21
120.144
113.682
106.113
97.7967
92.2648
179.048
180.029
178.959
177.627
176.272
174.682
172.857
170.796
168.464
165.865
162.936
159.647
155.959
151.753
147.095
141.664
135.838
128.787
121.224
117.3
192.942
194.095
193.171
192.3
191.376
190.244
188.905
187.379
185.616
183.602
181.277
178.61
175.553
172.01
168.003
163.24
158.006
151.587
144.168
140.272
206.274
207.541
206.951
206.458
205.946
205.259
204.407
203.399
202.161
200.717
198.983
196.962
194.554
191.737
188.451
184.501
180.134
174.513
168.141
163.563
219.083
220.573
220.414
220.37
220.329
220.136
219.786
219.29
218.597
217.717
216.569
215.152
213.394
211.273
208.723
205.615
202.083
197.488
192.344
187.303
231.076
232.708
232.897
233.213
233.536
233.722
233.792
233.765
233.566
233.22
232.631
231.849
230.746
229.389
227.613
225.441
222.86
219.369
215.877
210.727
242.315
244.234
244.911
245.69
246.494
247.193
247.786
248.276
248.606
248.779
248.737
248.506
248.01
247.279
246.167
244.774
242.887
240.546
237.882
233.645
252.908
255.034
256.072
257.168
258.273
259.268
260.15
260.954
261.618
262.19
262.594
262.869
262.894
262.738
262.237
261.501
260.315
258.824
256.781
253.833
262.328
264.676
266.091
267.578
269.083
270.516
271.877
273.174
274.37
275.469
276.401
277.198
277.743
278.125
278.167
278.001
277.38
276.476
274.978
272.619
271.601
274.103
275.731
277.458
279.199
280.87
282.459
283.992
285.419
286.762
287.969
289.072
289.982
290.746
291.18
291.436
291.239
290.833
289.756
288.05
279.177
281.754
283.65
285.654
287.699
289.708
291.683
293.63
295.511
297.35
299.067
300.707
302.134
303.402
304.337
305.094
305.383
305.483
304.841
303.63
286.3
289.115
291.309
293.591
295.901
298.164
300.376
302.539
304.617
306.602
308.437
310.145
311.635
312.986
314.121
315.09
315.605
315.922
315.507
314.852
291.725
294.604
296.943
299.387
301.874
304.319
306.751
309.15
311.507
313.81
316.037
318.172
320.204
322.115
323.848
325.409
326.501
327.354
327.503
327.489
296.926
299.957
302.455
305.078
307.73
310.352
312.956
315.522
318.044
320.494
322.845
325.092
327.189
329.114
330.803
332.198
333.289
334.116
334.518
334.482
299.816
302.873
305.505
308.264
311.051
313.825
316.585
319.339
322.047
324.712
327.295
329.797
332.168
334.398
336.437
338.24
339.839
341.168
342.029
342.141
302.742
305.902
308.615
311.47
314.371
317.24
320.111
322.939
325.73
328.444
331.073
333.604
335.992
338.251
340.267
342.141
343.696
344.975
345.82
345.923
303.334
306.452
309.188
312.085
314.995
317.912
320.803
323.701
326.553
329.379
332.12
334.824
337.367
339.849
342.049
344.146
345.741
347.259
347.783
348.583
303.405
306.589
309.421
312.377
315.375
318.348
321.309
324.257
327.143
330.001
332.749
335.436
337.909
340.302
342.311
344.324
345.619
347.175
347.73
348.769
301.608
304.719
307.464
310.348
313.251
316.147
319.029
321.902
324.739
327.534
330.263
332.893
335.404
337.744
339.893
341.784
343.37
344.512
345.45
345.602
-55.8094
-59.6873
-63.4717
-67.2571
-71.2522
-75.3323
-79.4386
-83.6701
-87.9883
-92.4427
-97.0065
-101.809
-106.52
-111.586
-116.953
-120.878
-123.53
-125.111
-124.696
-125.76
-50.4103
-54.3032
-58.1608
-62.1664
-66.2071
-70.4192
-74.6744
-79.1228
-83.6023
-88.2837
-93.0768
-97.9993
-103.273
-108.288
-113.035
-117.577
-122.497
-123.409
-125.305
-124.497
-45.1826
-49.0574
-52.9162
-56.8703
-61.0379
-65.354
-69.7344
-74.3342
-79.0175
-83.8824
-88.8657
-94.0877
-99.3508
-104.956
-110.227
-115.85
-120.461
-122.79
-126.479
-126.619
-39.3798
-43.1984
-47.166
-51.3644
-55.5506
-60.0783
-64.6122
-69.4159
-74.3109
-79.4163
-84.6927
-90.074
-95.7429
-101.419
-107.488
-113.134
-118.563
-124.045
-125.379
-125.834
-33.106
-37.0993
-41.0884
-45.3988
-49.7279
-54.3825
-59.0967
-64.099
-69.257
-74.6507
-80.2548
-86.1214
-92.2346
-98.5915
-105.252
-112.01
-118.865
-124.907
-126.846
-127.858
-26.5197
-30.6064
-34.6037
-39.0839
-43.4868
-48.3144
-53.222
-58.421
-63.8406
-69.5179
-75.4851
-81.729
-88.3208
-95.3076
-102.583
-110.362
-118.529
-125.657
-129.799
-130.812
-19.6014
-23.6873
-27.6798
-32.2102
-36.6891
-41.5795
-46.6239
-51.9889
-57.6155
-63.5535
-69.8212
-76.4439
-83.5062
-90.9436
-98.9058
-107.484
-116.489
-124.692
-131.914
-133.978
-11.9423
-16.061
-20.0313
-24.6129
-29.1586
-34.1511
-39.3371
-44.8512
-50.6905
-56.8722
-63.4256
-70.3937
-77.8212
-85.693
-94.2526
-103.264
-112.779
-122.225
-131.889
-133.485
-3.34931
-7.55421
-11.4907
-16.1503
-20.742
-25.7693
-31.0554
-36.6837
-42.661
-49.0169
-55.8024
-63.0428
-70.8296
-79.1796
-88.2177
-97.9066
-108.32
-119.558
-128.702
-129.162
6.25039
1.86571
-2.06487
-6.73469
-11.4372
-16.5007
-21.8534
-27.5497
-33.6373
-40.136
-47.0735
-54.5243
-62.5638
-71.1897
-80.5779
-90.7414
-101.847
-113.734
-124.135
-126.393
15.8529
11.5664
7.76209
3.27533
-1.33158
-6.30633
-11.6159
-17.2954
-23.3653
-29.8758
-36.8615
-44.3876
-52.5337
-61.2795
-70.8655
-81.2434
-92.508
-104.704
-115.97
-118.52
27.0922
22.7947
18.9958
14.5398
9.93041
4.99139
-0.283066
-5.92499
-11.9868
-18.4937
-25.4691
-33.0187
-41.1831
-49.9675
-59.6631
-69.9724
-81.3095
-93.9305
-106.057
-109.418
37.9806
33.7898
30.2979
26.1466
21.758
17.0607
11.9735
6.50185
0.617979
-5.74751
-12.6075
-20.0651
-28.1515
-36.9088
-46.605
-56.8619
-68.6561
-80.9289
-93.2243
-97.5778
50.7237
46.6715
43.2579
39.2687
34.9767
30.4039
25.466
20.1356
14.379
8.16148
1.45888
-5.85312
-13.7669
-22.4029
-31.8981
-42.0711
-53.6699
-65.5964
-77.7929
-82.5327
63.4066
59.3721
56.2772
52.625
48.6089
44.3469
39.694
34.6488
29.203
23.2698
16.8467
9.8163
2.17918
-6.16545
-15.3838
-25.2875
-36.5898
-48.5424
-61.4243
-66.4446
77.5349
73.6991
70.7515
67.3971
63.5743
59.5294
55.1282
50.3275
45.1135
39.4466
33.307
26.5581
19.2672
11.2209
2.41209
-7.05059
-17.9588
-29.0147
-41.8493
-47.233
91.758
87.9837
85.3412
82.3577
78.8538
75.1326
71.0609
66.5977
61.76
56.4646
50.6975
44.3616
37.4716
29.8438
21.5226
12.3796
1.93215
-8.634
-21.9825
-27.4574
106.509
103.242
100.9
98.2667
95.0602
91.6267
87.8751
83.7425
79.2197
74.2753
68.8939
62.9501
56.5166
49.3593
41.5866
33.0046
23.3949
13.5833
0.687525
-5.38527
122.566
118.981
116.889
114.546
111.628
108.467
105.033
101.233
97.0929
92.556
87.588
82.1184
76.1522
69.485
62.2741
54.1431
45.2066
35.6724
23.4611
17.5617
141.767
138.047
135.09
132.456
129.54
126.372
123.04
119.455
115.57
111.351
106.776
101.735
96.2593
90.1535
83.5294
76.0432
67.9202
58.9977
47.792
41.7852
92.0421
91.4033
91.654
90.1557
89.0389
86.6525
85.2361
82.3576
79.7742
76.0972
71.9103
67.0879
60.514
54.3215
43.9531
35.4347
18.9378
7.20351
-17.8619
-38.2855
91.896
91.2688
91.7969
90.1407
89.2043
86.8422
85.5922
82.8202
80.3693
76.8269
72.8447
68.21
61.9349
55.9713
45.8186
37.7859
22.0247
10.8067
-13.3917
-32.6069
91.8252
91.1168
91.9314
90.2124
89.4535
87.0902
85.9976
83.3292
80.9931
77.5556
73.7125
69.2232
63.16
57.4689
47.9022
40.2438
24.9979
14.4669
-8.89475
-26.7121
91.679
90.8984
92.0528
90.223
89.7902
87.2674
86.3834
83.8293
81.6234
78.3241
74.7023
70.4155
64.6703
59.2181
49.9596
42.7295
28.2379
18.3051
-4.24777
-20.7645
91.6178
90.8458
92.2391
90.2898
90.3461
87.5882
86.8302
84.3849
82.2887
79.0983
75.6315
71.5068
66.0097
60.8284
52.1623
45.3447
31.4751
22.1605
0.534393
-14.7208
91.4887
90.6142
92.4423
90.3451
90.6539
87.9548
87.3014
84.9346
82.9537
79.9024
76.6697
72.7635
67.5932
62.6889
54.4153
47.9824
34.8228
26.2212
5.53389
-8.26469
91.5236
90.4651
92.6505
90.546
91.1673
88.453
87.8785
85.5512
83.6563
80.72
77.6609
73.9357
69.0534
64.4229
56.7127
50.747
38.3101
30.4501
10.6029
-1.95992
91.4325
90.4272
92.797
90.6847
91.4969
88.9528
88.3916
86.1525
84.3479
81.5539
78.7375
75.2465
70.6996
66.3858
59.1136
53.4996
41.8681
34.778
15.8295
4.78318
91.5827
90.355
92.994
90.9638
91.8848
89.5065
89.0525
86.8099
85.0789
82.4087
79.8239
76.5101
72.2797
68.2418
61.5094
56.4264
45.5832
39.2192
21.5864
13.5084
91.692
90.3068
93.1247
91.1537
92.1771
90.0152
89.5882
87.444
85.7852
83.2718
80.9219
77.8699
73.9831
70.2953
64.0512
59.3675
49.3387
43.7738
27.2087
21.6194
91.8284
90.3127
93.3585
91.5114
92.5215
90.5392
90.2537
88.1219
86.5341
84.164
82.0638
79.2364
75.6673
72.2672
66.5838
62.4427
53.2122
48.3782
33.4646
29.5026
92.024
90.3901
93.5381
91.7576
92.8358
91.037
90.7827
88.7444
87.2414
85.0395
83.2265
80.6658
77.4191
74.4022
69.283
65.5777
57.1382
53.2113
39.5787
37.8881
92.2296
90.3882
93.7099
92.1762
93.1966
91.5667
91.2439
89.4428
87.9929
85.9814
84.4207
82.1377
79.186
76.4873
71.9809
68.804
61.1243
57.9492
46.2788
47.0619
92.4799
90.2847
93.8764
92.5575
93.5357
92.1667
91.7636
90.0718
88.7037
86.8781
85.6365
83.6639
80.9933
78.7095
74.8606
72.1144
65.2146
62.9243
52.8907
56.4363
92.742
90.1161
94.1419
93.0939
93.8615
92.7693
92.3064
90.7124
89.4274
87.7677
86.8796
85.2271
82.794
80.9011
77.7204
75.4296
69.3045
67.8466
59.8881
66.7937
93.0869
89.9648
94.4882
93.5962
94.167
93.382
92.8584
91.2575
90.1093
88.6908
88.1486
86.8331
84.6408
83.2158
80.7614
78.8891
73.4276
73.0596
67.1478
77.5877
93.5224
89.6921
94.8397
94.2286
94.5941
94.2305
93.6154
92.1558
90.992
89.8293
89.6576
88.5772
86.6719
85.609
83.8668
82.4193
77.8868
78.3589
74.6815
89.0811
94.0488
89.6262
94.6752
94.7779
94.9414
95.0116
94.1483
92.5717
91.5625
90.7081
90.947
90.2134
88.5423
88.0407
87.0015
86.0727
81.7405
83.3099
81.2434
99.5534
93.764
89.3216
94.285
95.252
95.2817
95.3255
93.985
92.3159
91.759
91.2743
91.7749
91.4355
89.7728
90.1408
89.6569
89.2125
85.0733
88.3976
89.4466
115.293
94.8724
87.7651
95.3605
95.8499
97.435
96.9081
95.8691
94.1999
94.2016
93.5431
94.2202
94.0121
92.9522
93.3856
94.3535
93.6502
91.6696
96.162
103.098
135.001
120.806
91.7693
116.415
108.625
117.381
114.097
117.513
118.641
121.317
118.295
118.97
116.743
120.967
118.208
124.26
122.294
135.874
136.741
157.237
158.87
115.568
113.013
115.867
114.286
117.799
117.336
120.187
120.579
123.451
123.796
126.696
127.499
131.134
133.157
139.339
143.95
154.112
161.476
179.22
190.467
125.521
124.279
126.019
126.381
128.221
129.532
130.758
132.834
134.127
135.545
137.148
138.898
142.007
145.145
149.823
154.442
161.248
167.988
177.427
186.972
127.657
127.684
128.217
129.19
130.459
131.88
133.377
135.244
137.017
139.142
141.597
144.471
147.622
151.126
155.23
160.173
165.448
171.82
177.71
183.637
131.531
131.796
132.325
134.015
135.157
136.584
138.004
139.628
141.299
143.15
145.083
147.331
149.669
152.458
155.21
158.712
161.717
166.006
169.502
174.565
132.698
132.734
133.742
135.121
136.215
138.035
139.495
141.387
143.17
145.203
147.27
149.528
151.749
154.404
156.7
159.783
161.985
165.291
166.704
169.376
133.174
133.558
134.545
136.389
137.905
139.661
141.268
142.888
144.528
146.122
147.787
149.419
151.085
152.835
154.429
156.322
157.853
159.949
161.439
163.323
133.732
134.439
135.654
137.775
139.481
141.294
142.981
144.598
146.265
147.778
149.396
150.862
152.451
153.826
155.362
156.888
157.97
159.271
159.649
160.707
133.17
135.118
136.09
138.852
140.549
142.453
144.075
145.493
146.972
148.124
149.443
150.437
151.583
152.464
153.38
153.976
154.916
155.895
156.55
157.191
137.121
137.425
139.934
141.379
143.847
145.051
146.868
147.876
149.309
150.202
151.37
152.151
153.099
153.783
154.71
155.414
155.741
156.025
156.074
156.289
139.921
140.039
143.185
144.427
146.577
147.706
149.039
149.91
150.878
151.553
152.262
152.777
153.346
153.689
153.985
154.064
154.236
154.35
154.809
154.825
148.093
146.313
150.173
149.938
151.722
152.038
152.977
153.268
153.897
154.141
154.601
154.835
155.118
155.371
155.514
155.683
155.668
155.358
155.263
154.802
160.368
158.35
157.472
157.226
157.028
157.002
156.81
156.793
156.673
156.627
156.573
156.494
156.499
156.352
156.311
156.011
155.883
155.583
155.41
155.096
168.136
167.093
164.079
163.831
162.193
161.69
160.803
160.274
159.761
159.256
158.884
158.423
158.098
157.701
157.395
157.045
156.811
156.386
155.965
155.473
174.04
173.179
170.053
167.852
166.368
164.764
163.825
162.553
161.879
160.984
160.485
159.799
159.374
158.803
158.407
157.883
157.514
157.016
156.64
156.15
179.709
175.817
173.344
170.974
169.364
167.541
166.331
165.061
164.087
163.051
162.247
161.418
160.732
160.035
159.434
158.821
158.272
157.712
157.217
156.69
185.017
173.586
172.893
170.816
169.768
168.082
167.126
165.757
164.934
163.825
163.097
162.182
161.533
160.757
160.17
159.496
158.956
158.358
157.851
157.311
177.045
174.291
173.647
171.502
170.71
169.118
168.185
166.898
165.965
164.895
164.019
163.112
162.315
161.53
160.812
160.121
159.476
158.86
158.278
157.725
179.948
172.971
172.631
171.265
170.466
169.141
168.25
167.077
166.195
165.16
164.333
163.421
162.663
161.857
161.167
160.455
159.827
159.197
158.625
158.067
176.695
174.476
173.727
172.026
171.077
169.701
168.703
167.535
166.566
165.549
164.646
163.75
162.925
162.131
161.385
160.678
160.007
159.376
158.773
158.21
182.175
190.511