/*--------------------------------*- C++ -*----------------------------------*\
  =========                 |
  \\      /  F ield         | OpenFOAM: The Open Source CFD Toolbox
   \\    /   O peration     | Website:  https://openfoam.org
    \\  /    A nd           | Version:  9
     \\/     M anipulation  |
\*---------------------------------------------------------------------------*/
FoamFile
{
    format      ascii;
    class       surfaceScalarField;
    location    "7.9";
    object      phi;
}
// * * * * * * * * * * * * * * * * * * * * * * * * * * * * * * * * * * * * * //

dimensions      [0 3 -1 0 0 0 0];

internalField   nonuniform List<scalar> 
92080
(
-0.0052551
-0.546544
0.551799
-0.0338432
-1.09779
1.12638
-0.0803881
-1.21429
1.26083
-0.127814
-1.19598
1.24341
-0.173559
-1.1756
1.22134
-0.218543
-1.15521
1.20019
-0.263053
-1.13615
1.18066
-0.307097
-1.11789
1.16193
-0.350391
-1.10166
1.14495
-0.392749
-1.08607
1.12842
-0.434567
-1.07146
1.11327
-0.476102
-1.05744
1.09898
-0.51635
-1.04492
1.08517
-0.55644
-1.03223
1.07232
-0.595748
-1.02
1.05931
-0.633695
-1.00826
1.04621
-0.671029
-0.996119
1.03345
-0.707794
-0.983614
1.02038
-0.743939
-0.971434
1.00758
-0.964083
0.995902
-0.775758
-0.00615976
-0.540384
-0.0359906
-1.06796
-0.0830057
-1.16727
-0.131229
-1.14776
-0.178557
-1.12827
-0.225163
-1.10861
-0.270635
-1.09067
-0.315696
-1.07283
-0.360694
-1.05666
-0.405406
-1.04136
-0.449191
-1.02767
-0.492632
-1.014
-0.536006
-1.00154
-0.577352
-0.990888
-0.618391
-0.978961
-0.658162
-0.968491
-0.695893
-0.958387
-0.731757
-0.94775
-0.765416
-0.937775
-0.930442
-0.799057
-0.00801652
-0.532367
-0.0408616
-1.03512
-0.091925
-1.11621
-0.142804
-1.09688
-0.191849
-1.07923
-0.240056
-1.0604
-0.287535
-1.04319
-0.333573
-1.02679
-0.378638
-1.01159
-0.423462
-0.996531
-0.468004
-0.98313
-0.511097
-0.970905
-0.554304
-0.958337
-0.597247
-0.947946
-0.638572
-0.937635
-0.68044
-0.926623
-0.721555
-0.917273
-0.762097
-0.907207
-0.802586
-0.897286
-0.891108
-0.84192
-0.00945836
-0.522909
-0.0445935
-0.999984
-0.0945256
-1.06627
-0.145363
-1.04604
-0.195495
-1.0291
-0.244577
-1.01132
-0.293058
-0.994714
-0.341603
-0.978246
-0.388916
-0.964279
-0.435029
-0.950418
-0.481301
-0.936859
-0.527428
-0.924778
-0.572631
-0.913134
-0.617831
-0.902746
-0.6618
-0.893666
-0.70437
-0.884054
-0.746226
-0.875417
-0.785875
-0.867559
-0.825822
-0.857339
-0.849673
-0.867257
-0.0106554
-0.512254
-0.0508564
-0.959783
-0.104016
-1.01312
-0.15687
-0.993185
-0.208532
-0.977434
-0.259351
-0.960498
-0.308668
-0.945396
-0.357077
-0.929837
-0.405921
-0.915435
-0.45353
-0.90281
-0.499854
-0.890534
-0.545441
-0.879191
-0.591052
-0.867523
-0.636603
-0.857195
-0.682165
-0.848105
-0.727552
-0.838667
-0.773873
-0.829096
-0.818957
-0.822475
-0.861305
-0.81499
-0.806913
-0.904065
-0.00957741
-0.502676
-0.0526986
-0.916662
-0.104611
-0.961203
-0.157377
-0.940419
-0.209727
-0.925083
-0.261605
-0.90862
-0.313364
-0.893636
-0.363753
-0.879448
-0.413233
-0.865956
-0.46268
-0.853363
-0.511931
-0.841283
-0.560128
-0.830993
-0.607037
-0.820613
-0.654215
-0.810016
-0.70032
-0.802
-0.744516
-0.79447
-0.788512
-0.7851
-0.834393
-0.776594
-0.879293
-0.77009
-0.762959
-0.923247
-0.00761879
-0.495057
-0.0538718
-0.870409
-0.109671
-0.905404
-0.164891
-0.885199
-0.219117
-0.870857
-0.271662
-0.856076
-0.3232
-0.842098
-0.374577
-0.828071
-0.425295
-0.815238
-0.474943
-0.803715
-0.524215
-0.792011
-0.573844
-0.781364
-0.62215
-0.772307
-0.67035
-0.761816
-0.720469
-0.751881
-0.769761
-0.745179
-0.816607
-0.738254
-0.862618
-0.730582
-0.909289
-0.723419
-0.717284
-0.954963
-0.00386693
-0.49119
-0.0507994
-0.823476
-0.107287
-0.848916
-0.163672
-0.828815
-0.219874
-0.814655
-0.275365
-0.800584
-0.329303
-0.78816
-0.381748
-0.775626
-0.434074
-0.762912
-0.485308
-0.752481
-0.535262
-0.742058
-0.585081
-0.731545
-0.634453
-0.722935
-0.680943
-0.715326
-0.727503
-0.705321
-0.776131
-0.696551
-0.82518
-0.689205
-0.872855
-0.682907
-0.920344
-0.67593
-0.669581
-0.968047
-0.00216969
-0.489021
-0.0530339
-0.772612
-0.112372
-0.789579
-0.169328
-0.771859
-0.225595
-0.758388
-0.280891
-0.745288
-0.335781
-0.733271
-0.388621
-0.722786
-0.440953
-0.71058
-0.493652
-0.699782
-0.545155
-0.690555
-0.596185
-0.680515
-0.648764
-0.670356
-0.700815
-0.663275
-0.74986
-0.656276
-0.797729
-0.648682
-0.846413
-0.640522
-0.895212
-0.634108
-0.943122
-0.628021
-0.621703
-0.991
-0.00245038
-0.48657
-0.0557473
-0.719315
-0.116589
-0.728736
-0.174914
-0.713534
-0.231771
-0.701531
-0.287042
-0.690018
-0.342229
-0.678083
-0.396461
-0.668555
-0.448739
-0.658301
-0.500875
-0.647646
-0.552493
-0.638937
-0.601462
-0.631546
-0.649659
-0.622159
-0.699605
-0.613329
-0.750074
-0.605807
-0.799004
-0.599752
-0.846891
-0.592635
-0.895249
-0.58575
-0.943224
-0.580045
-0.574113
-0.990815
-0.0082858
-0.478285
-0.0645282
-0.663073
-0.125543
-0.667722
-0.184005
-0.655072
-0.242819
-0.642717
-0.299665
-0.633172
-0.355471
-0.622278
-0.410641
-0.613384
-0.463925
-0.605017
-0.516224
-0.595348
-0.57014
-0.58502
-0.624068
-0.577618
-0.675799
-0.570428
-0.725924
-0.563204
-0.776067
-0.555664
-0.82642
-0.549399
-0.875219
-0.543835
-0.923442
-0.537528
-0.971207
-0.53228
-0.526759
-1.01856
-0.0167181
-0.461566
-0.0749653
-0.604826
-0.139038
-0.603649
-0.197907
-0.596203
-0.254235
-0.586388
-0.310146
-0.577261
-0.364336
-0.568087
-0.418959
-0.558761
-0.472888
-0.551089
-0.52374
-0.544495
-0.572928
-0.535832
-0.623155
-0.527392
-0.673617
-0.519966
-0.724046
-0.512776
-0.77369
-0.50602
-0.823682
-0.499406
-0.87358
-0.493937
-0.92299
-0.488119
-0.97204
-0.483229
-0.478267
-1.02053
-0.0249082
-0.436658
-0.0818039
-0.54793
-0.141155
-0.544298
-0.201325
-0.536033
-0.259615
-0.528099
-0.317455
-0.519421
-0.374645
-0.510897
-0.43081
-0.502596
-0.487857
-0.494042
-0.544266
-0.488085
-0.598147
-0.481951
-0.650101
-0.475437
-0.700885
-0.469183
-0.750804
-0.462856
-0.800166
-0.456658
-0.849295
-0.450277
-0.898001
-0.445231
-0.946455
-0.439664
-0.994786
-0.434899
-0.430605
-1.04245
-0.0305733
-0.406085
-0.0880844
-0.490419
-0.149087
-0.483295
-0.208913
-0.476207
-0.268065
-0.468947
-0.324953
-0.462533
-0.380079
-0.455772
-0.432859
-0.449816
-0.485528
-0.441373
-0.539416
-0.434197
-0.593314
-0.428053
-0.646811
-0.42194
-0.69958
-0.416414
-0.751305
-0.411131
-0.802014
-0.405949
-0.852187
-0.400104
-0.902453
-0.394966
-0.952166
-0.389951
-1.00213
-0.384937
-0.380613
-1.05212
-0.0373727
-0.368712
-0.0961249
-0.431666
-0.157002
-0.422417
-0.215264
-0.417945
-0.273302
-0.410909
-0.331864
-0.403971
-0.390708
-0.396928
-0.448443
-0.39208
-0.502743
-0.387074
-0.556054
-0.380886
-0.608729
-0.375378
-0.66064
-0.370029
-0.712472
-0.364581
-0.76386
-0.359744
-0.81464
-0.355169
-0.86455
-0.350193
-0.914147
-0.345369
-0.963148
-0.34095
-1.01163
-0.336459
-0.332064
-1.06017
-0.0406304
-0.328082
-0.097065
-0.375232
-0.15535
-0.364133
-0.215244
-0.358051
-0.274379
-0.351773
-0.330939
-0.347411
-0.387407
-0.340461
-0.444431
-0.335057
-0.500517
-0.330987
-0.555114
-0.326289
-0.60927
-0.321223
-0.662589
-0.31671
-0.715366
-0.311804
-0.767967
-0.307143
-0.819813
-0.303323
-0.870748
-0.299258
-0.920989
-0.295128
-0.970967
-0.290972
-1.02017
-0.287259
-0.282874
-1.06936
-0.0470053
-0.281077
-0.106761
-0.315476
-0.167356
-0.303537
-0.227921
-0.297486
-0.288852
-0.290843
-0.349017
-0.287245
-0.405395
-0.284083
-0.46045
-0.280002
-0.515805
-0.275632
-0.569947
-0.272147
-0.622966
-0.268204
-0.67573
-0.263946
-0.726811
-0.260724
-0.77793
-0.256024
-0.828856
-0.252397
-0.879362
-0.248752
-0.929227
-0.245263
-0.978665
-0.241534
-1.02773
-0.238192
-0.234664
-1.07594
-0.0537673
-0.227309
-0.117173
-0.25207
-0.175622
-0.245088
-0.229986
-0.243122
-0.283378
-0.237451
-0.338782
-0.231841
-0.395193
-0.227672
-0.450869
-0.224326
-0.506154
-0.220347
-0.561453
-0.216847
-0.615507
-0.21415
-0.669445
-0.210008
-0.722743
-0.207425
-0.774813
-0.203955
-0.826492
-0.200718
-0.877874
-0.19737
-0.928474
-0.194663
-0.978437
-0.191571
-1.0277
-0.188927
-0.186006
-1.07636
-0.0667961
-0.160513
-0.135308
-0.183559
-0.197981
-0.182416
-0.257732
-0.183372
-0.312736
-0.182446
-0.366225
-0.178353
-0.419724
-0.174173
-0.473536
-0.170513
-0.526032
-0.167851
-0.57901
-0.163869
-0.631692
-0.161468
-0.683216
-0.158485
-0.735124
-0.155518
-0.785996
-0.153083
-0.836227
-0.150487
-0.885911
-0.147686
-0.935437
-0.145136
-0.984487
-0.142521
-1.03334
-0.140078
-0.137795
-1.08155
-0.0525263
-0.107987
-0.110077
-0.126008
-0.167932
-0.12456
-0.226868
-0.124436
-0.286902
-0.122412
-0.345926
-0.119329
-0.401354
-0.118744
-0.456452
-0.115416
-0.510824
-0.113479
-0.564254
-0.110439
-0.61788
-0.107842
-0.670833
-0.105532
-0.723153
-0.103198
-0.775622
-0.100614
-0.827506
-0.0986033
-0.878943
-0.096249
-0.929779
-0.0942996
-0.980156
-0.092144
-1.02996
-0.0902762
-1.07959
-0.0881647
0.0449867
-0.230058
0.185072
0.128508
-0.854531
0.77101
0.197478
-1.41607
1.3471
0.224327
-1.63733
1.61048
0.232611
-1.65674
1.64846
0.235244
-1.64315
1.64051
0.236354
-1.62017
1.61906
0.237055
-1.60093
1.60023
0.237038
-1.58292
1.58293
0.236346
-1.56654
1.56723
0.234971
-1.55074
1.55212
0.232684
-1.53526
1.53755
0.229941
-1.52016
1.52291
0.226681
-1.50518
1.50844
0.222872
-1.48992
1.49373
0.218509
-1.47258
1.47695
0.213736
-1.45332
1.4581
0.20865
-1.43191
1.43699
0.203546
-1.41442
1.41952
-1.39737
0.199032
1.40189
0.0467831
-0.276841
0.117071
-0.92482
0.1729
-1.4719
0.190544
-1.65497
0.194832
-1.66103
0.194144
-1.64246
0.19334
-1.61936
0.191832
-1.59942
0.189753
-1.58084
0.187008
-1.5638
0.183733
-1.54747
0.180272
-1.5318
0.176298
-1.51619
0.172057
-1.50094
0.167437
-1.4853
0.162431
-1.46758
0.156943
-1.44784
0.151601
-1.42656
0.146167
-1.40899
-1.39205
0.140841
0.0481858
-0.325027
0.10879
-0.985424
0.150518
-1.51363
0.159057
-1.66351
0.158732
-1.6607
0.155161
-1.63889
0.151825
-1.61603
0.148123
-1.59572
0.143846
-1.57656
0.139214
-1.55917
0.134075
-1.54233
0.128259
-1.52598
0.122172
-1.5101
0.11554
-1.49431
0.108586
-1.47835
0.101416
-1.46041
0.0940681
-1.44049
0.0864248
-1.41892
0.0786654
-1.40123
-1.38471
0.0713251
0.0394173
-0.364445
0.0924419
-1.03845
0.127066
-1.54825
0.13111
-1.66755
0.127187
-1.65678
0.121268
-1.63297
0.115574
-1.61033
0.109455
-1.5896
0.103032
-1.57014
0.0961177
-1.55225
0.0889488
-1.53516
0.0816844
-1.51872
0.0740844
-1.5025
0.0664845
-1.48671
0.0587027
-1.47057
0.0506721
-1.45238
0.0424728
-1.43229
0.0344163
-1.41086
0.0263186
-1.39313
-1.37653
0.0181398
0.0345331
-0.398978
0.0844312
-1.08835
0.105019
-1.56884
0.102242
-1.66478
0.0944843
-1.64902
0.0865385
-1.62502
0.0782595
-1.60205
0.0698799
-1.58122
0.0611829
-1.56144
0.0523432
-1.54341
0.0430885
-1.52591
0.03344
-1.50907
0.0236303
-1.49269
0.0133122
-1.47639
0.00292627
-1.46018
-0.00731144
-1.44214
-0.0175779
-1.42202
-0.0280352
-1.40041
-0.0387723
-1.38239
-1.36595
-0.0493451
0.0265575
-0.425535
0.0659908
-1.12778
0.0830392
-1.58589
0.0776933
-1.65943
0.0679303
-1.63926
0.0578837
-1.61498
0.0475966
-1.59177
0.0369046
-1.57053
0.0259234
-1.55046
0.0145938
-1.53208
0.00323558
-1.51455
-0.00818651
-1.49765
-0.0196995
-1.48118
-0.0310263
-1.46506
-0.0424348
-1.44877
-0.053934
-1.43064
-0.0652774
-1.41068
-0.0764803
-1.3892
-0.0877194
-1.37115
-1.35444
-0.09923
0.0244267
-0.449962
0.0567193
-1.16007
0.0635983
-1.59277
0.0538021
-1.64964
0.0407088
-1.62617
0.027641
-1.60191
0.0142932
-1.57842
0.000984577
-1.55722
-0.0123348
-1.53714
-0.0256878
-1.51873
-0.0393544
-1.50088
-0.0531661
-1.48384
-0.0670913
-1.46725
-0.0813614
-1.45079
-0.0954182
-1.43472
-0.109035
-1.41702
-0.122541
-1.39717
-0.136094
-1.37565
-0.150122
-1.35712
-1.34045
-0.164113
0.0229512
-0.472913
0.050231
-1.18735
0.0510095
-1.59355
0.0369605
-1.63559
0.0209584
-1.61016
0.00510649
-1.58606
-0.0106683
-1.56264
-0.0266493
-1.54124
-0.0427828
-1.52101
-0.0589753
-1.50254
-0.0749226
-1.48493
-0.0908697
-1.46789
-0.10658
-1.45154
-0.122077
-1.43529
-0.137555
-1.41924
-0.152927
-1.40165
-0.167796
-1.3823
-0.182449
-1.361
-0.197157
-1.34242
-1.32533
-0.212275
0.0190126
-0.491926
0.0391388
-1.20748
0.0327728
-1.58718
0.014983
-1.6178
-0.00386227
-1.59132
-0.0225988
-1.56732
-0.0413128
-1.54393
-0.0597165
-1.52284
-0.0779561
-1.50277
-0.0961549
-1.48434
-0.114556
-1.46653
-0.132922
-1.44952
-0.151347
-1.43312
-0.169782
-1.41686
-0.187848
-1.40117
-0.205244
-1.38426
-0.2223
-1.36525
-0.239313
-1.34399
-0.256764
-1.32496
-1.30796
-0.27414
0.0171605
-0.509086
0.0328046
-1.22312
0.0219789
-1.57635
0.0011123
-1.59693
-0.0203104
-1.5699
-0.0415013
-1.54613
-0.0626832
-1.52275
-0.0839958
-1.50152
-0.105288
-1.48148
-0.126391
-1.46324
-0.147028
-1.4459
-0.167556
-1.42899
-0.187704
-1.41297
-0.207655
-1.39691
-0.22743
-1.3814
-0.246965
-1.36472
-0.265587
-1.34662
-0.283735
-1.32584
-0.302132
-1.30657
-1.28949
-0.320596
0.0135976
-0.522684
0.0233797
-1.2329
0.00723061
-1.5602
-0.0169704
-1.57273
-0.0414515
-1.54542
-0.0659034
-1.52168
-0.0899037
-1.49875
-0.113502
-1.47793
-0.136867
-1.45811
-0.160194
-1.43991
-0.183584
-1.42251
-0.20678
-1.4058
-0.229841
-1.38991
-0.252695
-1.37405
-0.275048
-1.35905
-0.296519
-1.34325
-0.317485
-1.32566
-0.338028
-1.30529
-0.358747
-1.28585
-1.26879
-0.379452
0.0119427
-0.534626
0.0168711
-1.23783
-0.00368417
-1.53965
-0.0304453
-1.54597
-0.0571857
-1.51867
-0.0835228
-1.49534
-0.109986
-1.47228
-0.136357
-1.45155
-0.162532
-1.43193
-0.188386
-1.41406
-0.213643
-1.39725
-0.238794
-1.38065
-0.263579
-1.36512
-0.288067
-1.34957
-0.312456
-1.33466
-0.336463
-1.31924
-0.35908
-1.30304
-0.380935
-1.28344
-0.403146
-1.26364
-1.24677
-0.425167
0.00890871
-0.543535
0.00913285
-1.23806
-0.0151595
-1.51536
-0.0447491
-1.51638
-0.0744865
-1.48894
-0.104117
-1.46571
-0.133032
-1.44337
-0.161721
-1.42286
-0.190191
-1.40346
-0.218686
-1.38556
-0.247137
-1.3688
-0.275135
-1.35265
-0.302916
-1.33734
-0.330403
-1.32208
-0.357136
-1.30792
-0.383242
-1.29313
-0.408711
-1.27757
-0.432784
-1.25936
-0.456584
-1.23984
-1.2228
-0.480555
0.00734596
-0.550881
0.00337742
-1.23409
-0.0255848
-1.48639
-0.0578655
-1.4841
-0.0895012
-1.4573
-0.120954
-1.43426
-0.152483
-1.41184
-0.183568
-1.39178
-0.214342
-1.37269
-0.244741
-1.35516
-0.274598
-1.33894
-0.304473
-1.32277
-0.33388
-1.30794
-0.363059
-1.2929
-0.392291
-1.27869
-0.420744
-1.26468
-0.448078
-1.25024
-0.474453
-1.23299
-0.500498
-1.21379
-1.19712
-0.52618
0.00483023
-0.555711
-0.0034584
-1.2258
-0.0343135
-1.45554
-0.0693557
-1.44906
-0.103932
-1.42272
-0.138146
-1.40004
-0.171693
-1.37829
-0.205251
-1.35822
-0.23851
-1.33943
-0.271946
-1.32173
-0.305168
-1.30572
-0.337742
-1.2902
-0.370255
-1.27542
-0.402271
-1.26088
-0.433692
-1.24727
-0.464866
-1.23351
-0.494929
-1.22018
-0.523019
-1.2049
-0.550395
-1.18642
-1.16964
-0.577866
0.00287695
-0.558588
-0.0101513
-1.21277
-0.0446591
-1.42103
-0.0817011
-1.41201
-0.117902
-1.38652
-0.154001
-1.36394
-0.189989
-1.34231
-0.225354
-1.32286
-0.260309
-1.30448
-0.294851
-1.28718
-0.329303
-1.27127
-0.363745
-1.25576
-0.397554
-1.24161
-0.431427
-1.22701
-0.465282
-1.21342
-0.49855
-1.20024
-0.531511
-1.18722
-0.562842
-1.17357
-0.592493
-1.15677
-1.14039
-0.62175
0.000433041
-0.559021
-0.0163884
-1.19595
-0.0525487
-1.38487
-0.0918115
-1.37275
-0.130459
-1.34788
-0.168647
-1.32576
-0.206358
-1.30459
-0.244282
-1.28493
-0.28185
-1.26691
-0.3195
-1.24953
-0.356666
-1.2341
-0.393502
-1.21892
-0.430312
-1.2048
-0.466294
-1.19103
-0.502215
-1.17749
-0.537975
-1.16448
-0.573093
-1.1521
-0.606849
-1.13981
-0.638608
-1.12501
-1.10921
-0.669787
-0.00126999
-0.557751
-0.0216941
-1.17553
-0.0608218
-1.34574
-0.101838
-1.33173
-0.142033
-1.30768
-0.182129
-1.28566
-0.221843
-1.26488
-0.260961
-1.24581
-0.299679
-1.22819
-0.33808
-1.21113
-0.376777
-1.19541
-0.41514
-1.18056
-0.453227
-1.16672
-0.491432
-1.15283
-0.529258
-1.13967
-0.567048
-1.12669
-0.60511
-1.11404
-0.642384
-1.10254
-0.677332
-1.09006
-1.07534
-0.711198
-0.00262002
-0.555131
-0.0263101
-1.15184
-0.0677141
-1.30434
-0.111076
-1.28837
-0.153453
-1.2653
-0.195278
-1.24384
-0.23673
-1.22343
-0.278369
-1.20417
-0.319566
-1.18699
-0.360385
-1.17031
-0.400595
-1.1552
-0.440958
-1.1402
-0.480976
-1.1267
-0.520443
-1.11336
-0.560318
-1.09979
-0.599936
-1.08707
-0.639853
-1.07412
-0.680437
-1.06195
-0.719796
-1.0507
-1.03822
-0.756915
-0.00333259
-0.0287857
-0.0722952
-0.117262
-0.161222
-0.204863
-0.247634
-0.289874
-0.33192
-0.373808
-0.415729
-0.456949
-0.498482
-0.539518
-0.580002
-0.620867
-0.661535
-0.703108
-0.746234
-0.788554
0.130495
-12.1332
12.2018
0.0800188
-11.4544
11.5049
0.0358468
-11.0753
11.1194
0.0123381
-10.6771
10.7006
-0.00615433
-10.4204
10.4389
-0.0214404
-10.088
10.1033
-0.0306896
-9.85317
9.86242
-0.0358661
-9.65735
9.66253
-0.0385149
-9.49215
9.4948
-0.0390905
-9.34522
9.34579
-0.0382667
-9.23307
9.23225
-0.0350482
-9.12332
9.1201
-0.0300228
-9.06323
9.05821
-0.0245583
-8.9977
8.99224
-0.0176523
-8.9627
8.95579
-0.00951854
-8.85146
8.84333
0.000231703
-8.60967
8.59992
0.00634655
-7.61021
7.60409
0.00751946
-5.42747
5.42629
-2.2229
2.23042
0.0751259
-12.0675
0.023714
-11.403
-0.0223363
-11.0292
-0.0462801
-10.6531
-0.063733
-10.4029
-0.0772608
-10.0745
-0.0834654
-9.84696
-0.0856811
-9.65513
-0.0849393
-9.49289
-0.0818769
-9.34828
-0.0771472
-9.2378
-0.0697681
-9.13069
-0.0607564
-9.07224
-0.0513431
-9.00712
-0.0403411
-8.9737
-0.0274742
-8.86433
-0.0128087
-8.62434
-0.000632667
-7.62238
0.00469827
-5.4328
-2.2182
-0.00988609
-11.9863
-0.0622904
-11.3506
-0.104478
-10.987
-0.124293
-10.6333
-0.13684
-10.3904
-0.14555
-10.0658
-0.14678
-9.84573
-0.144183
-9.65773
-0.138511
-9.49856
-0.130536
-9.35625
-0.1209
-9.24744
-0.108585
-9.14301
-0.0945799
-9.08625
-0.0800962
-9.0216
-0.064087
-8.98971
-0.0458646
-8.88255
-0.0262679
-8.64393
-0.0079358
-7.64072
0.00189742
-5.44263
-2.2163
-0.0628249
-11.9053
-0.11868
-11.2947
-0.162056
-10.9436
-0.183045
-10.6123
-0.195016
-10.3784
-0.201463
-10.0593
-0.199626
-9.84757
-0.194008
-9.66335
-0.184919
-9.50765
-0.173289
-9.36788
-0.159782
-9.26094
-0.143354
-9.15944
-0.125546
-9.10406
-0.107291
-9.03986
-0.0871124
-9.00989
-0.0640333
-8.90563
-0.0393132
-8.66865
-0.0150523
-7.66498
-0.000743102
-5.45694
-2.21704
-0.143153
-11.8115
-0.201872
-11.236
-0.24255
-10.903
-0.259409
-10.5955
-0.266855
-10.371
-0.268523
-10.0577
-0.261971
-9.85412
-0.251672
-9.67365
-0.237792
-9.52153
-0.221389
-9.38428
-0.203111
-9.27922
-0.181862
-9.18069
-0.159206
-9.12671
-0.136016
-9.06305
-0.110925
-9.03498
-0.0825513
-8.934
-0.0524279
-8.69878
-0.022361
-7.69504
-0.00364996
-5.47565
-2.22069
-0.196824
-11.7139
-0.258091
-11.1747
-0.29975
-10.8613
-0.318311
-10.5769
-0.325246
-10.364
-0.324244
-10.0587
-0.314616
-9.86375
-0.301239
-9.68702
-0.283916
-9.53886
-0.263852
-9.40435
-0.241734
-9.30134
-0.216458
-9.20596
-0.190177
-9.15299
-0.16331
-9.08991
-0.134003
-9.06429
-0.100806
-8.9672
-0.065618
-8.73396
-0.029987
-7.73067
-0.00658549
-5.49905
-2.22728
-0.273306
-11.6047
-0.338181
-11.1098
-0.377926
-10.8216
-0.392476
-10.5624
-0.395255
-10.3612
-0.389684
-10.0643
-0.37556
-9.87788
-0.3577
-9.70488
-0.335781
-9.56077
-0.311082
-9.42905
-0.284316
-9.32811
-0.254403
-9.23587
-0.223464
-9.18393
-0.191716
-9.12166
-0.157533
-9.09847
-0.119245
-9.00549
-0.0786268
-8.77458
-0.0370931
-7.77221
-0.00935792
-5.52679
-2.23664
-0.326461
-11.4905
-0.393657
-11.0426
-0.434671
-10.7805
-0.45131
-10.5457
-0.45341
-10.3591
-0.444906
-10.0728
-0.427693
-9.89509
-0.406694
-9.72588
-0.381315
-9.58615
-0.35296
-9.4574
-0.322399
-9.35867
-0.288594
-9.26968
-0.254078
-9.21845
-0.218605
-9.15714
-0.180228
-9.13685
-0.137281
-9.04843
-0.0915698
-8.82029
-0.0445117
-7.81927
-0.0128337
-5.55847
-2.24947
-0.398966
-11.3657
-0.470254
-10.9714
-0.509908
-10.7409
-0.522695
-10.5329
-0.520982
-10.3609
-0.508293
-10.0854
-0.48682
-9.91656
-0.461584
-9.75112
-0.431817
-9.61592
-0.39898
-9.49024
-0.36391
-9.39374
-0.325691
-9.3079
-0.286601
-9.25754
-0.246193
-9.19754
-0.203286
-9.17976
-0.155537
-9.09618
-0.104604
-8.87123
-0.0520616
-7.87181
-0.0166894
-5.59384
-2.26616
-0.451206
-11.2351
-0.524157
-10.8984
-0.565964
-10.6991
-0.581108
-10.5178
-0.578323
-10.3636
-0.562701
-10.1011
-0.538173
-9.94109
-0.509664
-9.77963
-0.476432
-9.64915
-0.43998
-9.52669
-0.401171
-9.43255
-0.359179
-9.34989
-0.31641
-9.30031
-0.272215
-9.24174
-0.225743
-9.22623
-0.173748
-9.14818
-0.117454
-8.92752
-0.0592711
-7.92999
-0.0203032
-5.63281
-2.28646
-0.519924
-11.0946
-0.596887
-10.8214
-0.637396
-10.6586
-0.649064
-10.5061
-0.642871
-10.3698
-0.623577
-10.1204
-0.595118
-9.96955
-0.562567
-9.81218
-0.525168
-9.68655
-0.484429
-9.56743
-0.44128
-9.47569
-0.395121
-9.39605
-0.347864
-9.34756
-0.298807
-9.2908
-0.24781
-9.27722
-0.191576
-9.20441
-0.130361
-8.98873
-0.0664549
-7.9939
-0.0235931
-5.67567
-2.31006
-0.57104
-10.9488
-0.648941
-10.7435
-0.692409
-10.6151
-0.706568
-10.492
-0.698905
-10.3775
-0.676815
-10.1425
-0.645359
-10.001
-0.609382
-9.84815
-0.568555
-9.72738
-0.524248
-9.61174
-0.477396
-9.52255
-0.427549
-9.4459
-0.376725
-9.39839
-0.324014
-9.34351
-0.26939
-9.33185
-0.20924
-9.26456
-0.142991
-9.05498
-0.0735549
-8.06333
-0.0263708
-5.72285
-2.33643
-0.636362
-10.793
-0.717478
-10.6624
-0.759068
-10.5735
-0.770421
-10.4806
-0.759989
-10.3879
-0.73472
-10.1677
-0.699738
-10.036
-0.659922
-9.88797
-0.615156
-9.77214
-0.566797
-9.6601
-0.515819
-9.57353
-0.462021
-9.4997
-0.406961
-9.45345
-0.349794
-9.40067
-0.290865
-9.39078
-0.226854
-9.32857
-0.15559
-9.12625
-0.0804183
-8.13851
-0.0281783
-5.77509
-2.36461
-0.686374
-10.6328
-0.768212
-10.5806
-0.812864
-10.5289
-0.826416
-10.4671
-0.814291
-10.4001
-0.786314
-10.1957
-0.748416
-10.0739
-0.705104
-9.93128
-0.65698
-9.82027
-0.605126
-9.71195
-0.550533
-9.62812
-0.493211
-9.55702
-0.434872
-9.51179
-0.37492
-9.46063
-0.312407
-9.45329
-0.244026
-9.39695
-0.167709
-9.20256
-0.0870011
-8.21921
-0.0290963
-5.833
-2.3937
-0.748692
-10.4619
-0.832494
-10.4968
-0.87427
-10.4871
-0.885746
-10.4556
-0.871675
-10.4141
-0.840933
-10.2264
-0.799889
-10.1149
-0.752994
-9.97818
-0.701158
-9.8721
-0.645529
-9.76758
-0.587108
-9.68654
-0.526067
-9.61806
-0.463401
-9.57445
-0.399043
-9.52498
-0.332934
-9.5194
-0.260925
-9.46896
-0.179999
-9.28349
-0.0937312
-8.30548
-0.0292881
-5.89744
-2.42299
-0.797205
-10.2865
-0.882541
-10.4115
-0.926656
-10.443
-0.939526
-10.4427
-0.923771
-10.4299
-0.890386
-10.2598
-0.846546
-10.1588
-0.796222
-10.0285
-0.74113
-9.9272
-0.6821
-9.82661
-0.620226
-9.74841
-0.555898
-9.68239
-0.490025
-9.64033
-0.422069
-9.59294
-0.352944
-9.58853
-0.277657
-9.54425
-0.191899
-9.36925
-0.100184
-8.3972
-0.0291436
-5.96848
-2.45213
-0.857247
-10.099
-0.942624
-10.3261
-0.982484
-10.4031
-0.993739
-10.4315
-0.976855
-10.4468
-0.941121
-10.2956
-0.894586
-10.2053
-0.841071
-10.082
-0.782565
-9.9857
-0.720097
-9.88908
-0.654688
-9.81382
-0.586836
-9.75024
-0.517223
-9.70994
-0.445615
-9.66455
-0.37305
-9.66109
-0.294113
-9.62319
-0.203709
-9.45965
-0.10656
-8.49435
-0.0290574
-6.04598
-2.48119
-0.907022
-9.90319
-0.99465
-10.2384
-1.03441
-10.3634
-1.04544
-10.4204
-1.02667
-10.4655
-0.988166
-10.3341
-0.938817
-10.2547
-0.882011
-10.1388
-0.820396
-10.0473
-0.754635
-9.95484
-0.685989
-9.88247
-0.615025
-9.8212
-0.542481
-9.78248
-0.467607
-9.73942
-0.391981
-9.73672
-0.310027
-9.70514
-0.215526
-9.55415
-0.113136
-8.59674
-0.0292972
-6.12982
-2.51049
-0.956692
-9.70342
-1.05298
-10.1422
-1.08932
-10.327
-1.09809
-10.4117
-1.07796
-10.4857
-1.03693
-10.3751
-0.984643
-10.3069
-0.924587
-10.1989
-0.859574
-10.1123
-0.790511
-10.0239
-0.718453
-9.95452
-0.643939
-9.89572
-0.567854
-9.85857
-0.48958
-9.81769
-0.410854
-9.81544
-0.325784
-9.79021
-0.226962
-9.65297
-0.119667
-8.70403
-0.0298683
-6.21962
-2.54036
-0.99386
-9.49811
-1.09503
-10.041
-1.13136
-10.2907
-1.13996
-10.4031
-1.12076
-10.5049
-1.07828
-10.4176
-1.02472
-10.3605
-0.96196
-10.2616
-0.894567
-10.1797
-0.822449
-10.096
-0.747632
-10.0293
-0.670181
-9.97317
-0.591623
-9.93713
-0.510447
-9.89887
-0.428892
-9.897
-0.340979
-9.87813
-0.238432
-9.75552
-0.126433
-8.81603
-0.0306858
-6.31537
-2.57104
8.58894
-8.5562
-9.53085
7.4164
-8.86846
6.33212
-9.2064
5.33657
-9.40752
4.41694
-9.58524
3.63687
-9.63749
2.97883
-9.70247
2.42764
-9.71044
1.96872
-9.72081
1.58274
-9.71004
1.26881
-9.71541
1.01471
-9.71907
0.800294
-9.72271
0.625552
-9.72413
0.462123
-9.73357
0.319074
-9.73508
0.237012
-9.67346
0.151789
-8.73081
0.0719812
-6.23556
-2.49906
5.11976
-8.14564
-5.53032
4.62079
-8.36948
4.10872
-8.69434
3.5903
-8.88909
3.07975
-9.07469
2.63581
-9.19355
2.23397
-9.30062
1.88909
-9.36556
1.59101
-9.42273
1.3421
-9.46112
1.12868
-9.502
0.940383
-9.53077
0.767995
-9.55032
0.613666
-9.5698
0.468906
-9.58881
0.336182
-9.60235
0.190545
-9.52782
0.0833828
-8.62365
-0.0263231
-6.12585
-2.52539
3.75902
-8.02342
-3.88124
3.60775
-8.21822
3.36349
-8.45008
3.08985
-8.61546
2.78927
-8.77411
2.49993
-8.90421
2.21272
-9.01342
1.94348
-9.09632
1.68953
-9.16878
1.45479
-9.22638
1.232
-9.27921
1.01972
-9.3185
0.822239
-9.35284
0.634996
-9.38256
0.464436
-9.41825
0.305269
-9.44318
0.157628
-9.38018
0.090631
-8.55665
0.0411698
-6.07639
-2.48422
2.40336
-8.02807
-2.39871
2.36899
-8.18385
2.26981
-8.3509
2.14228
-8.48793
1.97884
-8.61067
1.79639
-8.72176
1.60416
-8.82118
1.41328
-8.90544
1.22704
-8.98254
1.04623
-9.04558
0.875463
-9.10844
0.717585
-9.16062
0.576593
-9.21185
0.450029
-9.25599
0.323553
-9.29177
0.204731
-9.32436
0.0894746
-9.26492
0.059649
-8.52682
0.0676649
-6.08441
-2.41655
1.71419
-8.08615
-1.65611
1.72228
-8.19193
1.6863
-8.31492
1.61822
-8.41985
1.5337
-8.52614
1.42942
-8.61749
1.30952
-8.70128
1.17891
-8.77483
1.04271
-8.84634
0.905
-8.90787
0.765308
-8.96875
0.625356
-9.02067
0.48375
-9.07024
0.344514
-9.11676
0.205632
-9.15289
0.0661526
-9.18488
-0.0497016
-9.14907
-0.0554086
-8.52112
0.0301476
-6.16996
-2.3864
1.22931
-8.13029
-1.18518
1.25597
-8.21859
1.22985
-8.28881
1.18257
-8.37257
1.11831
-8.46188
1.03746
-8.53663
0.943331
-8.60716
0.841996
-8.67349
0.734461
-8.7388
0.623775
-8.79718
0.5111
-8.85607
0.394765
-8.90433
0.278871
-8.95435
0.158825
-8.99671
0.0476359
-9.0417
-0.0610956
-9.07615
-0.157744
-9.05242
-0.14014
-8.53872
0.0125726
-6.32268
-2.37383
0.871862
-8.15948
-0.842665
0.875328
-8.22206
0.882456
-8.29593
0.86989
-8.36
0.826016
-8.41801
0.76785
-8.47847
0.69761
-8.53692
0.617875
-8.59376
0.531978
-8.65291
0.437552
-8.70276
0.338141
-8.75666
0.234194
-8.80038
0.131039
-8.85119
0.0274174
-8.89309
-0.0753743
-8.93891
-0.177252
-8.97427
-0.25809
-8.97158
-0.241765
-8.55505
-0.0431042
-6.52134
-2.41693
0.696586
-8.18548
-0.670591
0.707694
-8.23316
0.691524
-8.27976
0.658086
-8.32657
0.616978
-8.3769
0.562718
-8.42421
0.501148
-8.47535
0.429405
-8.52201
0.348211
-8.57171
0.262187
-8.61673
0.169205
-8.66368
0.0746691
-8.70585
-0.0216451
-8.75488
-0.122849
-8.79189
-0.216626
-8.84513
-0.307563
-8.88334
-0.382569
-8.89658
-0.372686
-8.56493
-0.133709
-6.76031
-2.55064
0.517727
-8.1873
-0.515909
0.506849
-8.22229
0.48906
-8.26197
0.46198
-8.29949
0.425777
-8.3407
0.379055
-8.37749
0.323844
-8.42014
0.260566
-8.45873
0.188428
-8.49957
0.108827
-8.53713
0.0256705
-8.58052
-0.0623002
-8.61788
-0.155264
-8.66191
-0.254146
-8.693
-0.359907
-8.73937
-0.462078
-8.78117
-0.554632
-8.80402
-0.558042
-8.56152
-0.271126
-7.04723
-2.82177
0.441673
-8.18257
-0.446403
0.42813
-8.20874
0.405319
-8.23916
0.37074
-8.26491
0.324918
-8.29487
0.27333
-8.3259
0.215128
-8.36194
0.148349
-8.39196
0.0759216
-8.42715
-0.00434066
-8.45687
-0.0926823
-8.49218
-0.191292
-8.51927
-0.299492
-8.55371
-0.405844
-8.58665
-0.520502
-8.62471
-0.649888
-8.65178
-0.766947
-8.68696
-0.797306
-8.53116
-0.486122
-7.35842
-3.30789
0.356762
-8.16433
-0.374999
0.330859
-8.18284
0.298888
-8.20719
0.263071
-8.22909
0.224881
-8.25668
0.179536
-8.28055
0.121646
-8.30405
0.0572293
-8.32754
-0.0162897
-8.35363
-0.0955716
-8.37759
-0.185584
-8.40217
-0.280438
-8.42442
-0.384634
-8.44952
-0.498536
-8.47275
-0.625942
-8.49731
-0.770437
-8.50729
-0.925561
-8.53184
-0.978305
-8.47841
-0.728188
-7.60853
-4.03608
0.321466
-8.1464
-0.339402
0.298954
-8.16033
0.269951
-8.17819
0.234267
-8.19341
0.189152
-8.21157
0.135977
-8.22738
0.0785304
-8.2466
0.0143743
-8.26338
-0.0571056
-8.28215
-0.137022
-8.29767
-0.223764
-8.31542
-0.316449
-8.33173
-0.420265
-8.3457
-0.539495
-8.35352
-0.6751
-8.3617
-0.809851
-8.37253
-0.974246
-8.36745
-1.10341
-8.34926
-0.927408
-7.78453
-4.96349
0.280633
-8.12147
-0.305563
0.251312
-8.13101
0.217016
-8.14389
0.178831
-8.15522
0.136174
-8.16891
0.0889693
-8.18017
0.0369961
-8.19463
-0.0215897
-8.2048
-0.0868852
-8.21685
-0.158339
-8.22622
-0.23732
-8.23644
-0.326716
-8.24233
-0.424532
-8.24788
-0.5246
-8.25345
-0.635526
-8.25078
-0.757215
-8.25085
-0.892489
-8.23217
-1.02825
-8.21349
-0.900597
-7.91218
-5.86408
0.268298
-8.09899
-0.29077
0.241952
-8.10466
0.211631
-8.11357
0.177277
-8.12087
0.138639
-8.13027
0.0964823
-8.13802
0.0467905
-8.14493
-0.00764126
-8.15036
-0.0659434
-8.15855
-0.129721
-8.16244
-0.198039
-8.16813
-0.270908
-8.16946
-0.348719
-8.17007
-0.43764
-8.16453
-0.528063
-8.16035
-0.632277
-8.14663
-0.730584
-8.13386
-0.831056
-8.11302
-0.768599
-7.97464
-6.63268
0.216468
-8.07766
-0.237802
0.192634
-8.08083
0.165076
-8.08601
0.134532
-8.09033
0.100799
-8.09654
0.0629065
-8.10012
0.0227307
-8.10476
-0.0195864
-8.10805
-0.0648334
-8.1133
-0.112802
-8.11447
-0.163919
-8.11701
-0.217852
-8.11553
-0.276059
-8.11187
-0.339299
-8.10129
-0.399107
-8.10055
-0.461685
-8.08405
-0.524325
-8.07122
-0.596134
-8.04121
-0.58122
-7.98956
-7.2139
0.183458
-8.05812
-0.202997
0.163397
-8.06077
0.141843
-8.06446
0.117343
-8.06583
0.0891122
-8.06831
0.0582836
-8.06929
0.0260088
-8.07248
-0.00839876
-8.07364
-0.0451695
-8.07653
-0.0833344
-8.07631
-0.1231
-8.07724
-0.164383
-8.07425
-0.204285
-8.07197
-0.241362
-8.06421
-0.28091
-8.061
-0.319481
-8.04548
-0.352133
-8.03857
-0.373575
-8.01977
-0.351183
-8.01195
-7.56508
0.134989
-8.03912
-0.153984
0.114698
-8.04047
0.0933317
-8.04309
0.0721514
-8.04465
0.0498093
-8.04597
0.0270973
-8.04658
0.00337668
-8.04876
-0.020882
-8.04938
-0.0465074
-8.05091
-0.0722717
-8.05054
-0.0990961
-8.05042
-0.125602
-8.04774
-0.150921
-8.04665
-0.176382
-8.03875
-0.202781
-8.0346
-0.221725
-8.02654
-0.23885
-8.02145
-0.253496