/*--------------------------------*- C++ -*----------------------------------*\
  =========                 |
  \\      /  F ield         | OpenFOAM: The Open Source CFD Toolbox
   \\    /   O peration     | Website:  https://openfoam.org
    \\  /    A nd           | Version:  9
     \\/     M anipulation  |
\*---------------------------------------------------------------------------*/
FoamFile
{
    format      ascii;
    class       volVectorField;
    location    "7.9";
    object      U;
}
// * * * * * * * * * * * * * * * * * * * * * * * * * * * * * * * * * * * * * //

dimensions      [0 1 -1 0 0 0 0];

internalField   nonuniform List<vector> 
46400
(
(9.81299 -9.62265 -6.34524e-19)
(20.0716 -19.2659 6.75979e-19)
(21.7966 -21.93 -7.29187e-20)
(21.1128 -22.0567 3.26437e-20)
(20.3996 -22.0407 -5.75096e-20)
(19.6497 -22.0406 -5.90958e-19)
(18.9826 -22.0101 2.97246e-19)
(18.3505 -22.0363 -4.16312e-20)
(17.7495 -22.0366 3.15113e-20)
(17.1704 -22.0305 -2.23979e-20)
(16.6411 -22.0474 1.42496e-20)
(16.1528 -22.072 0)
(15.6694 -22.0938 -6.65057e-20)
(15.2221 -22.091 6.57428e-20)
(14.7687 -22.1058 -4.22113e-20)
(14.3294 -22.062 -5.95769e-20)
(13.893 -22.0612 -4.26682e-20)
(13.5284 -21.9894 8.87298e-20)
(13.1428 -21.9357 2.09562e-19)
(12.6798 -22.16 -1.89119e-19)
(10.0979 -9.10629 0)
(20.2328 -18.0101 -3.6802e-20)
(21.8124 -20.3522 0)
(21.046 -20.4467 -3.81735e-19)
(20.348 -20.4826 2.80388e-19)
(19.6279 -20.569 -6.57181e-20)
(18.9867 -20.6086 0)
(18.3251 -20.6346 4.16329e-20)
(17.7522 -20.7046 -3.15129e-20)
(17.2069 -20.7772 2.23984e-20)
(16.6672 -20.8402 -1.0762e-21)
(16.1509 -20.8684 5.17312e-20)
(15.6803 -20.9575 -6.39486e-20)
(15.2262 -21.0029 0)
(14.7978 -21.0461 1.11784e-20)
(14.4155 -21.122 1.61477e-20)
(14.0144 -21.1444 0)
(13.644 -21.1159 -2.98722e-19)
(13.2983 -21.0807 -9.39782e-20)
(12.8435 -21.2697 3.09686e-19)
(10.3387 -8.55949 -2.49774e-19)
(20.2697 -16.7653 2.00673e-19)
(21.5541 -18.7106 -2.60279e-19)
(20.7805 -18.9182 -1.44223e-19)
(20.0995 -19.0056 1.41587e-19)
(19.3611 -19.1173 0)
(18.7161 -19.2078 1.62983e-20)
(18.0967 -19.3124 -2.32472e-20)
(17.4938 -19.3788 -1.27986e-19)
(16.9216 -19.4384 1.32631e-19)
(16.4133 -19.5494 2.06066e-19)
(15.9319 -19.6379 5.50814e-21)
(15.4527 -19.7007 -1.99985e-19)
(15.0534 -19.8332 0)
(14.6126 -19.8865 3.47358e-19)
(14.1935 -19.9382 -3.42091e-19)
(13.8151 -20.0472 0)
(13.4807 -20.0726 -1.70854e-20)
(13.1254 -20.1608 4.3958e-20)
(12.7112 -20.4347 -4.58056e-19)
(10.5083 -7.987 1.00539e-19)
(20.1958 -15.5095 -4.82642e-20)
(21.2707 -17.1269 -5.60163e-20)
(20.4815 -17.3411 5.53308e-20)
(19.8401 -17.5007 -1.51593e-20)
(19.1471 -17.681 3.43254e-20)
(18.5152 -17.8171 1.12285e-19)
(17.8958 -17.956 -3.69955e-19)
(17.3395 -18.1293 3.34625e-19)
(16.8097 -18.2514 -2.9298e-20)
(16.2777 -18.379 0)
(15.8067 -18.512 3.98282e-20)
(15.3314 -18.6478 -4.41557e-20)
(14.8878 -18.7475 0)
(14.4994 -18.9157 5.0272e-19)
(14.1098 -19.0038 -4.2211e-19)
(13.7177 -19.1174 0)
(13.3621 -19.1566 5.89985e-20)
(12.9882 -19.1826 7.60943e-20)
(12.5502 -19.4756 5.90248e-19)
(10.6163 -7.39821 0)
(19.9851 -14.2311 0)
(20.8259 -15.6182 -8.47187e-20)
(20.0121 -15.8911 4.06652e-20)
(19.3568 -16.0805 -1.81758e-19)
(18.6661 -16.2968 1.59074e-19)
(18.0383 -16.4861 0)
(17.43 -16.6387 2.41693e-19)
(16.8634 -16.8252 -2.87e-19)
(16.3281 -16.9893 -7.91528e-20)
(15.813 -17.1474 -8.23607e-20)
(15.3381 -17.2865 0)
(14.885 -17.4342 6.27786e-19)
(14.4885 -17.6041 -6.17962e-19)
(14.0849 -17.7514 0)
(13.7023 -17.9048 -7.42059e-19)
(13.3539 -18.0761 6.59106e-19)
(13.0655 -18.2535 6.85688e-19)
(12.7208 -18.3518 -7.45912e-19)
(12.2677 -18.636 0)
(10.6947 -6.82172 0)
(19.6355 -12.8798 0)
(20.2717 -14.074 0)
(19.5012 -14.3732 -3.24575e-20)
(18.8991 -14.6386 0)
(18.2487 -14.8981 0)
(17.6611 -15.1648 0)
(17.081 -15.3879 -9.72742e-20)
(16.5117 -15.6034 0)
(16.0323 -15.8225 7.91544e-20)
(15.5494 -16.056 -2.2859e-20)
(15.1121 -16.2646 -8.88204e-19)
(14.6466 -16.4457 6.60986e-19)
(14.2088 -16.5982 -9.10887e-19)
(13.8295 -16.8052 6.80343e-19)
(13.4477 -16.9487 0)
(13.0274 -17.0633 -8.15974e-19)
(12.7083 -17.1976 6.9423e-19)
(12.4131 -17.3775 0)
(11.9829 -17.6812 -1.14584e-19)
(10.7946 -6.22896 2.51289e-19)
(19.1634 -11.5309 8.75368e-20)
(19.7058 -12.6694 3.51206e-19)
(18.8741 -12.9954 -3.79097e-19)
(18.2363 -13.2902 -4.04577e-19)
(17.5867 -13.5797 8.20672e-19)
(16.9699 -13.8445 -9.74446e-19)
(16.4245 -14.0999 7.77851e-20)
(15.898 -14.3808 3.17659e-19)
(15.374 -14.5922 0)
(14.8655 -14.8159 -2.20479e-20)
(14.4298 -15.0427 -2.10164e-20)
(14.0191 -15.2937 1.08003e-19)
(13.6223 -15.486 9.38003e-19)
(13.2559 -15.7294 -8.33021e-19)
(12.9484 -15.9899 -1.08164e-18)
(12.6128 -16.2167 9.40262e-19)
(12.2712 -16.3491 -1.61049e-20)
(11.9677 -16.532 -1.2414e-19)
(11.5861 -16.8771 -8.77789e-19)
(10.9428 -5.62432 -1.15093e-19)
(18.5447 -10.2027 3.46277e-20)
(18.8484 -11.1291 -1.3231e-19)
(18.109 -11.5348 -5.36651e-19)
(17.5403 -11.9243 3.54918e-19)
(16.9743 -12.2913 0)
(16.4301 -12.6721 8.09819e-19)
(15.8787 -12.9425 -3.86224e-19)
(15.3412 -13.2509 2.73227e-19)
(14.9199 -13.5509 1.48578e-19)
(14.4731 -13.8413 -2.81145e-19)
(14.0437 -14.0743 6.75709e-19)
(13.6418 -14.3516 1.47304e-19)
(13.2197 -14.5499 -8.29911e-19)
(12.7873 -14.7141 2.33026e-18)
(12.4412 -14.933 -9.53893e-19)
(12.1128 -15.178 1.22384e-18)
(11.8188 -15.3929 -7.9834e-19)
(11.5111 -15.5639 2.63606e-19)
(11.1374 -15.9347 1.26841e-18)
(11.1575 -5.07669 6.45897e-19)
(17.8606 -9.00671 -1.25093e-19)
(18.0827 -9.87553 -3.14917e-20)
(17.294 -10.2606 3.05924e-19)
(16.6635 -10.6703 1.41672e-19)
(16.0779 -11.016 1.70582e-19)
(15.5257 -11.415 -7.8927e-19)
(15.0578 -11.7616 4.84249e-19)
(14.5574 -12.087 -1.48334e-19)
(14.0857 -12.3887 -1.4857e-19)
(13.637 -12.7023 -1.4846e-19)
(13.2171 -12.9746 -1.67087e-19)
(12.8403 -13.2745 -3.12802e-19)
(12.5578 -13.6218 1.10044e-18)
(12.2098 -13.8908 -1.53475e-18)
(11.8447 -14.1046 -1.59892e-19)
(11.5179 -14.3405 1.5235e-20)
(11.232 -14.5723 -1.17717e-18)
(10.9566 -14.7775 8.8067e-19)
(10.6009 -15.1386 -1.39596e-18)
(11.317 -4.58832 6.54522e-19)
(16.9343 -7.77637 -1.59668e-18)
(16.8876 -8.54438 1.06754e-18)
(16.3063 -9.02178 -1.67736e-19)
(15.7746 -9.5215 -1.95719e-19)
(15.2928 -9.93094 7.64127e-19)
(14.8047 -10.3603 -9.20845e-19)
(14.3595 -10.7475 0)
(13.8755 -11.1042 7.28222e-19)
(13.4647 -11.4299 -7.1609e-19)
(13.0961 -11.7926 -5.27312e-19)
(12.7044 -12.0845 6.85206e-19)
(12.273 -12.3253 1.65524e-19)
(11.888 -12.5781 -6.89288e-19)
(11.5842 -12.8821 1.60512e-19)
(11.2996 -13.1683 8.2962e-19)
(10.96 -13.4001 -1.47954e-18)
(10.678 -13.6317 9.77013e-19)
(10.4195 -13.8596 -1.29842e-20)
(10.0994 -14.2052 -1.36005e-18)
(11.3709 -4.16325 9.40666e-19)
(15.9918 -6.69306 -6.23375e-19)
(15.8925 -7.509 4.27005e-19)
(15.2808 -7.93436 1.40618e-20)
(14.7342 -8.47579 -8.51151e-19)
(14.2433 -8.91008 -8.10004e-19)
(13.723 -9.35347 1.01257e-18)
(13.3205 -9.76508 -6.03833e-19)
(12.9253 -10.1896 8.03429e-19)
(12.4897 -10.5151 0)
(12.0885 -10.8701 1.75307e-20)
(11.7967 -11.263 1.84986e-19)
(11.477 -11.6118 1.98495e-19)
(11.1547 -11.9174 -1.95226e-19)
(10.8141 -12.1924 0)
(10.5307 -12.4897 1.88629e-19)
(10.2704 -12.7794 0)
(9.98866 -13.0117 3.51484e-19)
(9.74524 -13.2526 1.72409e-18)
(9.46508 -13.59 -6.51604e-21)
(11.2115 -3.71775 5.35007e-19)
(14.7888 -5.67046 -1.0674e-19)
(14.5442 -6.45596 -1.65622e-18)
(14.1126 -7.02506 9.28335e-19)
(13.615 -7.53015 2.19921e-19)
(13.2542 -8.02463 -2.18091e-19)
(12.8579 -8.49498 -9.06886e-19)
(12.4811 -8.91294 6.77765e-19)
(12.1125 -9.35151 0)
(11.77 -9.7374 0)
(11.3731 -10.0538 -1.05767e-18)
(11.0078 -10.3694 8.39001e-19)
(10.6908 -10.7018 -1.98516e-19)
(10.3945 -11.0238 -6.14021e-19)
(10.1142 -11.336 2.11169e-21)
(9.84448 -11.6294 1.374e-18)
(9.58786 -11.9339 -7.68386e-19)
(9.34714 -12.2042 5.69613e-19)
(9.12319 -12.4711 -9.19589e-19)
(8.85557 -12.8115 0)
(10.8028 -3.21825 -4.79512e-19)
(13.6116 -4.77448 7.72497e-19)
(13.3042 -5.48922 1.34404e-19)
(12.9795 -6.04121 1.32741e-19)
(12.5901 -6.67289 0)
(12.1637 -7.12755 9.97494e-19)
(11.7486 -7.66777 -9.79982e-19)
(11.361 -8.09545 1.24658e-19)
(11.027 -8.57938 0)
(10.7514 -9.03554 9.31006e-19)
(10.4516 -9.46764 -7.97908e-19)
(10.1542 -9.83512 8.96034e-19)
(9.86061 -10.19 -8.81816e-19)
(9.57247 -10.5113 8.61252e-19)
(9.29678 -10.8238 -7.39225e-19)
(9.02932 -11.1174 -8.27198e-19)
(8.80246 -11.4187 1.62551e-18)
(8.56412 -11.6835 -6.96485e-19)
(8.35776 -11.9514 1.0013e-19)
(8.14805 -12.289 8.26689e-19)
(10.223 -2.69926 -3.90729e-19)
(12.4101 -3.94127 4.23343e-19)
(12.1169 -4.69277 -1.34415e-19)
(11.7013 -5.23653 -1.32742e-19)
(11.3238 -5.86088 0)
(11.0184 -6.39034 0)
(10.6903 -6.91205 0)
(10.3941 -7.36963 -2.57008e-19)
(10.0286 -7.78276 -1.00884e-18)
(9.74162 -8.20868 1.98096e-18)
(9.47608 -8.63887 -1.09061e-18)
(9.21427 -9.041 -1.21867e-19)
(8.969 -9.43452 0)
(8.73256 -9.80041 0)
(8.49914 -10.1462 -2.23008e-19)
(8.26124 -10.4663 0)
(8.05044 -10.7864 8.53978e-19)
(7.84017 -11.0857 -1.05061e-18)
(7.64465 -11.3658 -9.17367e-19)
(7.43277 -11.7239 8.75503e-19)
(9.46771 -2.19576 4.11129e-19)
(11.0666 -3.22006 7.56977e-19)
(10.6368 -3.95415 2.18501e-21)
(10.4179 -4.54241 9.94037e-22)
(10.1262 -5.15887 1.47804e-19)
(9.84617 -5.71127 -4.21263e-19)
(9.56853 -6.27337 0)
(9.32342 -6.81459 -4.1048e-19)
(9.04364 -7.29563 1.38356e-19)
(8.76157 -7.72386 5.22572e-19)
(8.50945 -8.14817 5.08826e-19)
(8.26824 -8.54467 -3.78729e-19)
(8.04522 -8.92687 9.73569e-19)
(7.83365 -9.30156 -8.36452e-19)
(7.63421 -9.65266 1.0453e-18)
(7.41456 -9.98811 -1.94381e-18)
(7.2094 -10.2999 8.96805e-19)
(7.01591 -10.6077 1.07052e-19)
(6.82094 -10.8789 8.50942e-19)
(6.64477 -11.2185 -9.12125e-19)
(8.57586 -1.71186 1.43802e-19)
(9.8181 -2.5706 -1.54474e-19)
(9.48522 -3.28616 6.27683e-19)
(9.24106 -3.8668 -6.16036e-19)
(8.91585 -4.52579 -3.02179e-19)
(8.61956 -5.06745 -7.3698e-19)
(8.31581 -5.6008 1.88764e-21)
(8.09584 -6.12585 5.69828e-19)
(7.91657 -6.64652 -1.36153e-19)
(7.69957 -7.11853 0)
(7.4949 -7.564 0)
(7.29555 -7.99888 0)
(7.08449 -8.39426 0)
(6.89474 -8.79165 4.45381e-21)
(6.71673 -9.16154 0)
(6.54406 -9.52215 1.1649e-19)
(6.37542 -9.853 4.62455e-19)
(6.21821 -10.1777 -1.35974e-18)
(6.07189 -10.4735 1.00346e-18)
(5.88761 -10.8126 -9.37881e-19)
(7.53052 -1.28572 0)
(8.40605 -2.08675 -8.46478e-20)
(7.95175 -2.80907 0)
(7.70053 -3.43407 2.39903e-19)
(7.50459 -4.09155 -1.6136e-19)
(7.39954 -4.73109 -6.1617e-19)
(7.1832 -5.29862 2.91375e-21)
(6.97227 -5.8067 5.92116e-19)
(6.78913 -6.30331 -5.75307e-19)
(6.61997 -6.79238 1.12769e-18)
(6.43168 -7.22517 -3.87449e-21)
(6.26667 -7.66109 -5.40026e-19)
(6.10448 -8.06124 5.23515e-19)
(5.9367 -8.43568 -6.41655e-19)
(5.80312 -8.81392 0)
(5.65737 -9.16354 -4.87647e-19)
(5.50924 -9.51017 4.80358e-19)
(5.3546 -9.82166 0)
(5.21687 -10.1286 -1.12561e-19)
(5.0745 -10.4589 0)
(6.37604 -0.926315 8.45234e-20)
(7.05139 -1.74701 8.48309e-20)
(6.73056 -2.48359 0)
(6.53115 -3.07855 3.29562e-19)
(6.24549 -3.62771 -4.08431e-19)
(6.02154 -4.17724 2.37011e-19)
(5.93774 -4.74294 -7.01164e-19)
(5.81221 -5.28813 3.05051e-19)
(5.65253 -5.79003 -7.51236e-20)
(5.52561 -6.28985 0)
(5.4059 -6.76223 -7.16107e-20)
(5.25173 -7.20013 -6.99055e-20)
(5.1513 -7.64182 -6.82354e-20)
(4.99119 -8.03752 0)
(4.85173 -8.42365 -5.13002e-19)
(4.72959 -8.78999 1.06952e-18)
(4.61852 -9.15217 -9.20409e-19)
(4.51026 -9.48031 4.81827e-19)
(4.40629 -9.796 5.91241e-20)
(4.29085 -10.132 4.94766e-19)
(4.87348 -0.644857 -1.31399e-19)
(5.29367 -1.6223 -1.7805e-19)
(5.16003 -2.31837 5.18219e-22)
(5.16094 -3.06243 4.69087e-19)
(5.08198 -3.63304 -1.27129e-19)
(4.94308 -4.2135 -8.21171e-20)
(4.74185 -4.70333 7.97465e-20)
(4.61908 -5.24258 1.56118e-19)
(4.50635 -5.71261 7.51354e-20)
(4.38326 -6.18507 -2.95401e-19)
(4.29621 -6.63868 3.25657e-19)
(4.17407 -7.07025 6.9914e-20)
(4.07829 -7.4748 3.42734e-19)
(3.9997 -7.88556 -2.32226e-21)
(3.91722 -8.24861 3.07905e-20)
(3.81229 -8.61651 -5.76123e-19)
(3.7318 -8.95258 1.57853e-19)
(3.63126 -9.29187 0)
(3.5539 -9.5901 -2.90714e-20)
(3.46964 -9.93117 -2.52144e-19)
(3.1608 -0.321498 4.53321e-20)
(3.81596 -1.11229 -9.05968e-20)
(3.82777 -1.7442 1.77798e-19)
(3.80748 -2.44221 -4.34161e-20)
(3.78348 -3.06117 -4.31076e-20)
(3.66144 -3.73177 0)
(3.60683 -4.28142 -8.09398e-20)
(3.50112 -4.82935 1.58545e-19)
(3.44002 -5.33222 -7.76598e-20)
(3.3252 -5.83023 7.52085e-20)
(3.25627 -6.27809 -3.74668e-20)
(3.19472 -6.7516 -7.15667e-20)
(3.1111 -7.15374 1.40239e-19)
(3.03667 -7.58828 -1.36816e-19)
(2.96153 -7.96532 3.39529e-20)
(2.89841 -8.36476 2.32402e-34)
(2.8262 -8.71016 -3.17261e-20)
(2.77034 -9.07621 1.85799e-19)
(2.7038 -9.38026 -9.14888e-20)
(2.64792 -9.74056 -6.46288e-20)
(-0.0801288 -5.18557 1.43575e-19)
(1.52743 -20.4015 7.12665e-20)
(2.82492 -34.5999 0)
(3.45513 -40.623 6.5811e-20)
(3.50728 -41.3006 6.05431e-20)
(3.49041 -41.0352 5.67218e-20)
(3.44263 -40.449 0)
(3.40485 -39.9953 5.15371e-20)
(3.35348 -39.5452 0)
(3.29821 -39.1333 0)
(3.23922 -38.7455 -4.18392e-20)
(3.1733 -38.3609 3.19525e-21)
(3.09703 -37.9755 7.92876e-20)
(3.03112 -37.592 0)
(2.93989 -37.2446 3.47449e-20)
(2.88332 -36.8317 3.29308e-20)
(2.75659 -36.341 3.12616e-20)
(2.72813 -35.7997 0)
(2.56468 -35.3608 -5.59463e-20)
(2.56773 -34.9402 5.44715e-20)
(0.194087 -6.30838 2.18057e-19)
(2.43309 -22.2258 -3.59441e-19)
(4.07574 -36.0079 0)
(4.68567 -41.0037 -3.24692e-19)
(4.71703 -41.2914 3.05594e-19)
(4.64602 -40.8772 -5.14967e-19)
(4.55721 -40.3169 2.24192e-19)
(4.48103 -39.8115 1.50392e-19)
(4.39912 -39.3649 -6.75922e-19)
(4.31331 -38.9631 3.74206e-19)
(4.22739 -38.5658 -4.33115e-20)
(4.13299 -38.1826 3.2019e-19)
(4.05151 -37.8188 -1.2301e-20)
(3.95183 -37.4608 -2.98002e-19)
(3.86288 -37.053 -3.47428e-20)
(3.7695 -36.604 -3.29306e-20)
(3.64528 -36.1414 -3.12634e-20)
(3.58258 -35.6147 0)
(3.42018 -35.1923 -2.2052e-19)
(3.40705 -34.7598 7.48514e-21)
(0.68447 -7.6252 -8.28234e-20)
(3.58468 -23.7252 0)
(5.42642 -37.0542 0)
(5.96068 -41.1557 -1.30342e-19)
(5.9385 -41.1775 1.20486e-19)
(5.81073 -40.6817 0)
(5.68348 -40.1024 -1.08934e-19)
(5.56657 -39.6207 2.99664e-19)
(5.44971 -39.1501 -2.9824e-19)
(5.32962 -38.712 3.56033e-19)
(5.21762 -38.3044 -4.35282e-19)
(5.09506 -37.9171 0)
(4.97384 -37.5129 -2.98885e-19)
(4.85387 -37.1209 -2.70675e-19)
(4.7251 -36.7601 4.88584e-19)
(4.61312 -36.3357 -5.05619e-19)
(4.4465 -35.8301 4.37548e-19)
(4.36553 -35.3006 0)
(4.15215 -34.8699 -4.86192e-19)
(4.13818 -34.4552 8.32749e-19)
(1.26612 -8.50865 0)
(4.3495 -24.9366 0)
(6.82032 -37.7403 2.78787e-19)
(7.26939 -41.0527 3.80843e-19)
(7.19401 -40.8906 -7.41157e-19)
(7.00638 -40.3213 2.29177e-19)
(6.84545 -39.7838 1.08929e-19)
(6.68804 -39.2766 1.10044e-18)
(6.53296 -38.8147 -1.53045e-18)
(6.38466 -38.4099 -1.46115e-19)
(6.23747 -38.0018 7.76838e-19)
(6.0876 -37.5993 1.57686e-19)
(5.95172 -37.2347 -7.36752e-19)
(5.80324 -36.8651 7.18989e-19)
(5.66713 -36.4545 1.99654e-19)
(5.51835 -36.0061 -1.24796e-19)
(5.35161 -35.5484 1.78476e-19)
(5.23596 -35.0152 0)
(5.02139 -34.6058 -5.16041e-20)
(4.99503 -34.1932 0)
(1.39511 -9.52468 0)
(5.75482 -26.0365 8.08348e-19)
(8.1752 -38.2086 -1.41672e-18)
(8.55744 -40.8392 1.27481e-18)
(8.41589 -40.5055 -9.93143e-19)
(8.17964 -39.9389 -2.30348e-19)
(7.97196 -39.3912 0)
(7.77728 -38.9057 5.82127e-19)
(7.58634 -38.4378 -7.70927e-19)
(7.39543 -37.9894 8.68971e-19)
(7.2225 -37.5814 -6.79456e-19)
(7.04039 -37.2022 -1.57675e-19)
(6.86531 -36.7944 7.23735e-19)
(6.68929 -36.4135 -1.24833e-18)
(6.51532 -36.0554 7.84162e-19)
(6.34587 -35.6331 -2.573e-19)
(6.13546 -35.1334 -5.74396e-19)
(5.99634 -34.6219 1.31374e-18)
(5.73472 -34.209 -7.45742e-19)
(5.69785 -33.7916 -8.77287e-19)
(2.09368 -10.1148 1.14974e-18)
(6.61829 -26.9305 8.87251e-19)
(9.61168 -38.2907 -1.12889e-18)
(9.83024 -40.3942 -2.54768e-19)
(9.64718 -39.984 2.41581e-19)
(9.38773 -39.4245 8.79087e-19)
(9.13451 -38.888 -8.63606e-19)
(8.90044 -38.3948 0)
(8.67196 -37.9359 7.19909e-19)
(8.45467 -37.5468 -7.07891e-19)
(8.24409 -37.1396 -6.33729e-19)
(8.03098 -36.7398 6.23475e-19)
(7.83753 -36.3858 0)
(7.63379 -36.0129 0)
(7.44611 -35.6167 1.12197e-18)
(7.23963 -35.1936 -1.09942e-18)
(7.02915 -34.751 -8.84329e-19)
(6.84985 -34.2242 8.71276e-19)
(6.58201 -33.8236 -7.91718e-19)
(6.53862 -33.4187 9.78321e-19)
(2.5995 -10.6543 -8.45933e-19)
(7.84752 -27.5822 3.10516e-19)
(10.981 -38.3191 5.41426e-20)
(11.1423 -39.9151 1.29723e-18)
(10.8466 -39.3922 0)
(10.5379 -38.8366 0)
(10.2357 -38.3139 1.60168e-18)
(9.95794 -37.8372 -7.76199e-20)
(9.68983 -37.3845 -1.47105e-18)
(9.425 -36.9426 1.31066e-18)
(9.18548 -36.5546 -1.28915e-18)
(8.94373 -36.1935 0)
(8.70974 -35.8029 1.08251e-18)
(8.47861 -35.4494 -1.06552e-18)
(8.25519 -35.1066 0)
(8.02832 -34.7012 0)
(7.77373 -34.2286 0)
(7.57223 -33.742 0)
(7.2653 -33.3525 0)
(7.19938 -32.9246 -9.45533e-20)
(3.16572 -11.1042 8.20278e-19)
(9.11224 -27.9061 -1.3975e-18)
(12.3291 -37.8487 0)
(12.4177 -39.1388 0)
(12.0645 -38.6309 2.00883e-18)
(11.7171 -38.1125 1.16944e-19)
(11.3666 -37.5975 -1.83106e-18)
(11.0463 -37.1422 0)
(10.742 -36.7117 1.6971e-19)
(10.4511 -36.3552 -1.58512e-19)
(10.1735 -35.9632 0)
(9.89244 -35.5868 1.38711e-19)
(9.64239 -35.2524 -1.1699e-18)
(9.37939 -34.8916 2.12171e-18)
(9.13882 -34.53 -4.3867e-20)
(8.87892 -34.1533 -9.03187e-19)
(8.62376 -33.7387 -1.0104e-19)
(8.37605 -33.2344 9.50767e-20)
(8.05632 -32.8387 0)
(7.98764 -32.4384 8.5789e-20)
(3.76842 -11.4993 5.31404e-19)
(10.358 -28.1834 4.62706e-19)
(13.6322 -37.4927 -1.60386e-18)
(13.6128 -38.3926 4.68111e-19)
(13.1752 -37.8204 2.07955e-19)
(12.7796 -37.312 1.79578e-18)
(12.3858 -36.8398 -2.49667e-18)
(12.0229 -36.3914 1.81355e-18)
(11.6772 -35.9701 -1.4652e-18)
(11.3407 -35.5577 1.73479e-18)
(11.0355 -35.2118 2.82274e-19)
(10.7352 -34.8801 1.18253e-18)
(10.4405 -34.5317 -6.63958e-19)
(10.1578 -34.2137 -1.28086e-18)
(9.88251 -33.899 1.13004e-18)
(9.60161 -33.5264 0)
(9.30482 -33.102 2.91616e-19)
(9.0404 -32.6517 8.39571e-20)
(8.69196 -32.2869 -1.68931e-19)
(8.58833 -31.8452 7.52739e-20)
(4.35682 -11.7362 -1.02083e-18)
(11.5682 -28.0957 1.05599e-18)
(14.8196 -36.6096 -2.19768e-20)
(14.7795 -37.3584 -9.16376e-19)
(14.2904 -36.8595 -8.47884e-19)
(13.8648 -36.3924 -4.0268e-19)
(13.4259 -35.9224 -1.85889e-20)
(13.0247 -35.5285 -3.48075e-19)
(12.6526 -35.1444 0)
(12.2905 -34.834 -3.02363e-19)
(11.9495 -34.4712 -2.82264e-19)
(11.6035 -34.1354 -1.52836e-20)
(11.2989 -33.831 9.20719e-19)
(10.9783 -33.5065 -4.72979e-19)
(10.689 -33.1931 -1.03621e-18)
(10.3846 -32.8804 8.07235e-19)
(10.0872 -32.5117 5.30468e-19)
(9.77368 -32.0426 -8.89408e-19)
(9.4056 -31.6587 1.6894e-19)
(9.30837 -31.2673 1.06339e-18)
(4.97715 -11.9347 -2.46531e-18)
(12.7568 -28.0095 2.50628e-18)
(16.0168 -35.9169 -2.75846e-18)
(15.8481 -36.3746 2.24868e-18)
(15.2932 -35.847 1.97953e-18)
(14.8143 -35.4023 -1.53751e-18)
(14.3388 -34.9885 -2.03424e-18)
(13.8932 -34.5843 7.30867e-20)
(13.4737 -34.2119 1.22666e-18)
(13.0697 -33.8503 -8.11286e-19)
(12.7036 -33.5656 2.06588e-18)
(12.3474 -33.2767 -1.23693e-18)
(11.9964 -32.9849 -2.32001e-19)
(11.6658 -32.7085 5.99084e-19)
(11.339 -32.4383 -1.56581e-18)
(11.0108 -32.1098 7.50896e-19)
(10.6789 -31.7587 0)
(10.359 -31.3651 -1.25351e-18)
(9.97108 -31.0188 1.23404e-18)
(9.83469 -30.5844 -9.91775e-19)
(5.57742 -11.9944 4.73436e-19)
(13.8698 -27.6113 5.25725e-19)
(17.0175 -34.7746 2.28085e-18)
(16.8428 -35.1538 1.99196e-18)
(16.2398 -34.7066 -1.19977e-18)
(15.7388 -34.2969 1.69769e-18)
(15.2314 -33.8978 -1.00132e-18)
(14.7579 -33.5797 1.16559e-18)
(14.3274 -33.2526 -2.22688e-18)
(13.9024 -32.9966 7.95405e-19)
(13.5036 -32.6778 0)
(13.1013 -32.3969 0)
(12.7465 -32.1398 0)
(12.3755 -31.8675 -1.50477e-18)
(12.0439 -31.6143 1.48154e-18)
(11.7045 -31.3811 0)
(11.3706 -31.0716 0)
(10.9999 -30.662 -1.39077e-19)
(10.5912 -30.3049 0)
(10.4591 -29.9219 -1.16612e-18)
(6.17889 -12.0032 -8.99745e-19)
(14.9251 -27.1685 -2.23823e-18)
(18.0369 -33.7498 -1.60875e-18)
(17.7731 -33.9581 -2.96905e-19)
(17.1094 -33.5201 2.12315e-18)
(16.556 -33.1575 -4.20023e-19)
(16.0136 -32.8011 -7.50694e-20)
(15.4948 -32.4609 -1.40954e-18)
(15.0104 -32.1532 0)
(14.5466 -31.8561 -6.95202e-19)
(14.1292 -31.6457 1.11553e-18)
(13.7209 -31.4078 0)
(13.3209 -31.1777 1.46979e-18)
(12.9465 -30.9564 -1.44674e-18)
(12.5707 -30.7342 1.26919e-18)
(12.203 -30.4622 -2.28724e-18)
(11.8459 -30.2139 1.16282e-18)
(11.4846 -29.8973 1.39089e-19)
(11.0597 -29.5684 -1.1515e-19)
(10.8982 -29.1563 9.16179e-19)
(6.7506 -11.9155 -1.19922e-18)
(15.9115 -26.5224 7.15224e-20)
(18.8571 -32.4389 1.02411e-19)
(18.5577 -32.6013 2.83901e-18)
(17.8717 -32.221 2.51131e-19)
(17.2845 -31.8898 -1.52054e-18)
(16.7275 -31.5788 -1.06443e-18)
(16.1922 -31.3354 3.30663e-19)
(15.7106 -31.0725 1.18484e-18)
(15.2312 -30.8745 -1.26396e-18)
(14.7814 -30.6119 6.11483e-19)
(14.335 -30.4028 -1.59697e-18)
(13.935 -30.2044 1.24228e-18)
(13.523 -29.9912 -1.21881e-18)
(13.1565 -29.8173 1.06421e-18)
(12.7888 -29.6538 9.02484e-19)
(12.4244 -29.415 -1.02989e-18)
(12.0183 -29.1168 7.93701e-19)
(11.581 -28.8096 -7.70395e-19)
(11.4094 -28.4298 -8.92592e-19)
(7.29882 -11.7715 -1.49543e-18)
(16.8166 -25.786 -2.88015e-19)
(19.6372 -31.1223 1.45556e-18)
(19.2767 -31.2322 -1.2472e-18)
(18.5688 -30.8988 1.22476e-18)
(17.9428 -30.6236 2.84506e-19)
(17.3434 -30.3311 0)
(16.7686 -30.0775 -2.13796e-19)
(16.2332 -29.8442 5.85883e-19)
(15.7194 -29.6203 -2.0722e-18)
(15.2605 -29.4873 1.45792e-18)
(14.8062 -29.301 3.23406e-19)
(14.3672 -29.1431 1.5933e-19)
(13.9536 -28.9814 0)
(13.5324 -28.8058 1.94739e-20)
(13.1352 -28.6164 9.0029e-19)
(12.7581 -28.4622 -5.69448e-20)
(12.3703 -28.2366 1.46423e-19)
(11.9227 -27.9606 -7.51892e-19)
(11.7402 -27.5804 1.70095e-19)
(7.80669 -11.5581 1.35969e-18)
(17.642 -24.9029 -2.34634e-18)
(20.3025 -29.7276 1.31701e-18)
(19.8383 -29.7748 1.11878e-18)
(19.1198 -29.4776 -7.96828e-20)
(18.4668 -29.2428 -7.75302e-19)
(17.8724 -29.0239 2.0496e-19)
(17.2843 -28.8489 2.13808e-19)
(16.7616 -28.6597 0)
(16.2365 -28.5155 0)
(15.7448 -28.322 -1.17808e-18)
(15.2672 -28.1967 1.95688e-18)
(14.8267 -28.0537 -1.05914e-18)
(14.3846 -27.9114 0)
(13.9878 -27.814 2.03087e-20)
(13.5935 -27.7044 -8.36891e-19)
(13.2081 -27.5668 8.17519e-19)
(12.7944 -27.4079 -9.00143e-20)
(12.3449 -27.1716 -6.30563e-19)
(12.1394 -26.7998 4.36741e-19)
(8.27777 -11.2718 -1.21791e-18)
(18.3346 -23.9082 1.52938e-18)
(20.8196 -28.2139 0)
(20.3427 -28.2924 0)
(19.6124 -28.0664 2.15449e-19)
(18.9327 -27.8748 -1.03305e-18)
(18.2893 -27.656 3.23719e-20)
(17.6776 -27.4994 7.18908e-19)
(17.1065 -27.3471 -1.20053e-18)
(16.5564 -27.2018 2.26767e-18)
(16.061 -27.1287 -1.06932e-18)
(15.5725 -26.9985 2.31778e-19)
(15.1078 -26.9253 8.98404e-19)
(14.6612 -26.8128 1.86108e-20)
(14.2024 -26.6921 -5.44905e-19)
(13.782 -26.5797 8.72321e-20)
(13.3768 -26.4862 -6.11877e-19)
(12.9829 -26.389 5.24881e-19)
(12.5456 -26.2309 1.79033e-20)
(12.3463 -25.8859 4.20028e-19)
(8.70551 -10.9337 0)
(18.9477 -22.8468 7.39957e-19)
(21.2958 -26.7618 -7.99197e-19)
(20.7015 -26.7582 0)
(19.9594 -26.5605 -2.15445e-19)
(19.2625 -26.4283 6.84204e-19)
(18.6437 -26.2956 -8.47604e-19)
(18.0108 -26.183 0)
(17.4575 -26.0745 9.86305e-19)
(16.9004 -25.9881 -9.69847e-19)
(16.3797 -25.8801 9.03977e-20)
(15.8774 -25.8239 -1.04044e-19)
(15.4045 -25.7376 -9.34497e-20)
(14.9469 -25.6847 -8.37896e-20)
(14.5221 -25.6407 -5.63521e-19)
(14.1055 -25.5852 9.10925e-19)
(13.6996 -25.5315 -8.00876e-19)
(13.2843 -25.4852 7.02953e-19)
(12.8523 -25.3905 -2.76374e-19)
(12.6399 -25.0619 4.15266e-20)
(9.09384 -10.5379 0)
(19.4194 -21.6814 -8.76184e-19)
(21.5467 -25.1312 4.60166e-19)
(20.9688 -25.2101 5.40598e-19)
(20.2315 -25.0898 -6.71758e-20)
(19.5063 -24.9881 -6.03472e-20)
(18.8363 -24.8535 -5.47483e-19)
(18.2037 -24.7921 0)
(17.6102 -24.7215 0)
(17.0363 -24.6515 0)
(16.5097 -24.6205 -9.03958e-20)
(16.0055 -24.562 0)
(15.5229 -24.556 -4.81908e-19)
(15.0535 -24.4908 4.28786e-19)
(14.5747 -24.4439 -3.12994e-19)
(14.1319 -24.3828 5.68113e-19)
(13.6847 -24.3356 -2.55983e-19)
(13.2787 -24.3368 -1.83529e-19)
(12.8702 -24.3411 2.90795e-19)
(12.6694 -24.0437 -1.26246e-19)
(9.46563 -10.1101 0)
(19.8202 -20.477 0)
(21.8114 -23.6025 1.88815e-19)
(21.1203 -23.6151 1.6823e-19)
(20.3802 -23.5292 0)
(19.6585 -23.5068 4.30582e-19)
(19.0241 -23.4586 -4.23036e-19)
(18.3608 -23.4064 0)
(17.7883 -23.3827 5.44927e-19)
(17.2224 -23.3685 -5.3583e-19)
(16.6848 -23.3508 0)
(16.16 -23.3334 -3.1069e-19)
(15.6678 -23.3155 1.05984e-19)
(15.2002 -23.3302 2.42201e-19)
(14.7448 -23.3079 0)
(14.3111 -23.3021 0)
(13.8587 -23.2904 0)
(13.4051 -23.2428 2.19041e-20)
(12.9844 -23.2023 -8.97389e-21)
(12.693 -23.0299 0)
(1.84139 -33.7772 0)
(1.70811 -31.8818 0)
(0.914939 -30.7995 -2.88095e-21)
(0.732029 -29.6551 -2.29354e-21)
(0.455803 -28.9337 0)
(0.273448 -28.0135 1.64794e-22)
(0.115547 -27.3603 1.13747e-21)
(0.0178442 -26.8172 0)
(-0.0471487 -26.358 4.20469e-22)
(-0.0920212 -25.9486 0)
(-0.129527 -25.637 -6.50285e-23)
(-0.124536 -25.3295 6.44204e-23)
(-0.139268 -25.1623 -6.47439e-23)
(-0.0694857 -24.9811 -3.05937e-22)
(-0.10191 -24.8824 0)
(0.0226191 -24.5734 1.19868e-22)
(-0.00696113 -23.8996 -6.2957e-22)
(0.157535 -21.128 0)
(0.0454668 -15.0738 0)
(0.12952 -6.18529 -5.85125e-22)
(2.62026 -33.6302 2.32076e-20)
(2.36682 -31.7449 0)
(1.45102 -30.712 1.30693e-20)
(1.16609 -29.6445 -7.94469e-21)
(0.817663 -28.9396 0)
(0.55331 -28.0141 -5.97796e-21)
(0.358443 -27.3631 2.19064e-21)
(0.212854 -26.8181 0)
(0.118187 -26.3598 1.85911e-22)
(0.0409289 -25.9529 -6.09678e-22)
(-0.0163554 -25.6417 1.97422e-23)
(-0.0333129 -25.3395 3.40819e-22)
(-0.0590982 -25.1728 -5.51204e-22)
(-0.0103656 -24.9901 2.16347e-22)
(-0.0539847 -24.8944 3.47301e-22)
(0.0542934 -24.5862 -4.87908e-22)
(0.0183258 -23.9178 9.99286e-22)
(0.167182 -21.136 1.11425e-21)
(0.0520736 -15.071 6.49411e-22)
(0.113141 -6.16143 7.24026e-22)
(3.1427 -33.3372 -1.15033e-20)
(2.72229 -31.5438 -1.93673e-20)
(1.72202 -30.501 -1.08682e-20)
(1.38587 -29.4796 0)
(1.00596 -28.7936 0)
(0.699626 -27.8936 6.69591e-21)
(0.484564 -27.28 -1.27558e-21)
(0.314624 -26.7596 -1.00226e-21)
(0.203722 -26.3167 -8.57981e-22)
(0.11104 -25.9207 -1.10682e-21)
(0.0421659 -25.6184 0)
(0.0148827 -25.3261 0)
(-0.0178527 -25.1686 0)
(0.0255116 -24.9903 1.35221e-21)
(-0.0224795 -24.9001 0)
(0.080561 -24.6019 1.93862e-21)
(0.0408725 -23.9374 -2.09196e-21)
(0.169081 -21.1574 -6.61082e-22)
(0.0579192 -15.0751 -1.3312e-21)
(0.0974222 -6.14713 -2.3379e-21)
(3.921 -33.1182 3.31744e-20)
(3.35376 -31.3756 -6.26384e-20)
(2.25228 -30.3896 2.20482e-21)
(1.81098 -29.4469 1.93116e-20)
(1.35667 -28.7839 0)
(0.97213 -27.8833 8.02478e-21)
(0.721893 -27.2762 -1.68611e-20)
(0.505293 -26.753 7.40291e-21)
(0.36479 -26.3132 -3.13643e-21)
(0.241525 -25.9197 3.05096e-22)
(0.152096 -25.6184 -3.33463e-22)
(0.103978 -25.3318 7.49935e-22)
(0.0593474 -25.1742 -7.53471e-22)
(0.0791734 -24.9945 -6.01796e-22)
(0.0200347 -24.9077 -7.54068e-22)
(0.108342 -24.6135 -1.93748e-21)
(0.0655445 -23.9557 2.64446e-21)
(0.175239 -21.1758 -9.55776e-22)
(0.0636073 -15.0805 5.70201e-22)
(0.0842509 -6.13348 2.3011e-21)
(4.42954 -32.7494 8.67583e-20)
(3.70338 -31.1139 1.44826e-20)
(2.51481 -30.1507 -1.90132e-20)
(2.02584 -29.2556 2.68322e-20)
(1.5385 -28.619 0)
(1.11536 -27.7494 -4.4127e-21)
(0.84604 -27.1819 3.24159e-21)
(0.605953 -26.6836 0)
(0.449149 -26.2606 1.34322e-22)
(0.311218 -25.8798 0)
(0.209104 -25.5886 1.58771e-22)
(0.151473 -25.3134 0)
(0.0990208 -25.1643 0)
(0.112817 -24.9895 3.05648e-21)
(0.0489764 -24.9096 -1.57046e-21)
(0.131791 -24.628 2.04168e-21)
(0.0864115 -23.975 0)
(0.183088 -21.2041 -5.18754e-22)
(0.0636665 -15.0922 5.91712e-22)
(0.0724047 -6.12546 0)
(5.18349 -32.4625 3.41406e-20)
(4.30055 -30.9051 -2.70956e-20)
(3.03091 -30.0098 4.53269e-20)
(2.43922 -29.2003 -4.42442e-20)
(1.87362 -28.5925 1.11752e-20)
(1.37989 -27.7287 4.42649e-21)
(1.0767 -27.1703 -5.77449e-21)
(0.791326 -26.6695 -3.71895e-21)
(0.605245 -26.2514 1.18459e-21)
(0.438607 -25.8731 1.6037e-22)
(0.315293 -25.5835 -2.93029e-22)
(0.238426 -25.3144 0)
(0.172341 -25.1647 0)
(0.16168 -24.9884 1.23001e-23)
(0.0871805 -24.9127 1.63994e-21)
(0.157125 -24.6389 -2.03971e-21)
(0.108735 -23.994 0)
(0.185983 -21.2301 4.5948e-21)
(0.0620774 -15.1033 4.484e-21)
(0.0607994 -6.12129 2.95244e-22)
(5.67587 -32.0089 -9.45686e-20)
(4.63957 -30.5904 8.76277e-20)
(3.28218 -29.7461 -1.97075e-20)
(2.64626 -28.9815 0)
(2.05063 -28.4088 -1.12228e-20)
(1.51905 -27.5842 1.37885e-20)
(1.19913 -27.0656 -8.04498e-21)
(0.890617 -26.5898 3.72947e-21)
(0.687873 -26.19 0)
(0.507202 -25.8262 0)
(0.370937 -25.5472 -1.14986e-21)
(0.285408 -25.2909 1.15401e-21)
(0.209728 -25.1484 0)
(0.192952 -24.9779 -4.84019e-21)
(0.115253 -24.911 1.70899e-21)
(0.179827 -24.6521 2.10134e-21)
(0.127907 -24.0141 -2.17794e-21)
(0.193967 -21.2642 -6.0699e-21)
(0.0657095 -15.123 -2.94814e-21)
(0.0469202 -6.12161 -6.10478e-22)
(6.38751 -31.6546 0)
(5.20301 -30.3366 -4.41321e-20)
(3.77967 -29.5725 4.42731e-20)
(3.04122 -28.9035 0)
(2.37049 -28.3646 0)
(1.77478 -27.5531 -1.29642e-20)
(1.42232 -27.0454 1.30041e-20)
(1.07 -26.5678 0)
(0.838788 -26.1746 9.12945e-22)
(0.631002 -25.8136 -5.85182e-22)
(0.473512 -25.5371 -3.31518e-22)
(0.369865 -25.2867 -2.23948e-21)
(0.278724 -25.143 2.24573e-21)
(0.239735 -24.9719 0)
(0.152226 -24.9105 0)
(0.205842 -24.6611 1.98262e-21)
(0.148474 -24.0345 -3.41959e-21)
(0.199977 -21.2972 -3.79239e-23)
(0.0643343 -15.1409 1.84785e-21)
(0.0233754 -6.12614 -6.17621e-22)
(6.85016 -31.1229 5.52334e-20)
(5.52193 -29.9738 -5.52955e-20)
(4.02134 -29.2842 -4.89516e-20)
(3.23689 -28.6567 5.58885e-20)
(2.54543 -28.164 -4.12995e-20)
(1.90997 -27.3999 5.12323e-21)
(1.54366 -26.9314 1.21561e-20)
(1.16744 -26.4788 0)
(0.919898 -26.1052 0)
(0.698238 -25.7601 -2.52243e-22)
(0.528366 -25.4947 0)
(0.416208 -25.2579 0)
(0.314128 -25.1205 0)
(0.271137 -24.9567 0)
(0.1823 -24.9054 0)
(0.226531 -24.6683 0)
(0.165292 -24.0544 2.28562e-21)
(0.206247 -21.3355 -2.42707e-21)
(0.0592714 -15.1636 6.25364e-22)
(-0.00456532 -6.13761 -6.25875e-22)
(7.49958 -30.6989 -5.90325e-20)
(6.05431 -29.6741 -7.5187e-20)
(4.49775 -29.0771 -1.28778e-20)
(3.60744 -28.5563 -5.53568e-21)
(2.85161 -28.1016 1.57396e-20)
(2.15706 -27.3578 2.2729e-20)
(1.75739 -26.9022 4.23562e-21)
(1.34026 -26.4487 0)
(1.06574 -26.0833 2.32274e-22)
(0.81807 -25.7416 3.49075e-22)
(0.627359 -25.4795 -1.46212e-21)
(0.497905 -25.2481 -2.48223e-21)
(0.379716 -25.1097 0)