/*--------------------------------*- C++ -*----------------------------------*\
  =========                 |
  \\      /  F ield         | OpenFOAM: The Open Source CFD Toolbox
   \\    /   O peration     | Website:  https://openfoam.org
    \\  /    A nd           | Version:  9
     \\/     M anipulation  |
\*---------------------------------------------------------------------------*/
FoamFile
{
    format      ascii;
    class       volScalarField;
    location    "11";
    object      nut;
}
// * * * * * * * * * * * * * * * * * * * * * * * * * * * * * * * * * * * * * //

dimensions      [0 2 -1 0 0 0 0];

internalField   nonuniform List<scalar> 
46400
(
0.0215105
0.00852194
0.00252869
0.00158927
0.00162085
0.00156772
0.00150217
0.00146823
0.00141099
0.00136958
0.00130651
0.00127007
0.0012359
0.00120482
0.0011578
0.00114491
0.001118
0.00103622
0.00135046
0.00112061
0.0210684
0.00750911
0.00226392
0.00163674
0.00162629
0.00158676
0.00149835
0.00145779
0.00139918
0.00135994
0.00131008
0.00126681
0.00121632
0.00117881
0.00113756
0.00110032
0.00103746
0.000943954
0.0011824
0.00107043
0.0205908
0.00661356
0.00153906
0.00168374
0.0016023
0.00158357
0.00150517
0.00147038
0.00140854
0.00137589
0.00131744
0.00128211
0.00124166
0.00120107
0.0011551
0.00113252
0.0010767
0.00099121
0.00129543
0.0011229
0.0200717
0.00562526
0.00147884
0.00166394
0.00160271
0.00159405
0.00151
0.0014697
0.00140397
0.00136168
0.00131259
0.00126684
0.00122538
0.00118863
0.00114738
0.00111601
0.0010708
0.000979717
0.0012849
0.00117108
0.0194569
0.0050847
0.00148958
0.00172979
0.00159278
0.00157936
0.00150587
0.00147801
0.00141716
0.00137914
0.00132996
0.00129079
0.00125091
0.00121475
0.00117268
0.00113811
0.00109203
0.00100664
0.00129916
0.00116945
0.0187926
0.00466916
0.00148502
0.00167928
0.00158545
0.00158689
0.00151057
0.00146957
0.00141579
0.0013667
0.00132022
0.00127949
0.00124203
0.00121237
0.00119113
0.00115553
0.00110736
0.0010186
0.00130532
0.00120871
0.018023
0.00540087
0.00158148
0.00174613
0.00162136
0.00158268
0.00152046
0.0014845
0.00142514
0.00138644
0.00132935
0.00128643
0.00124866
0.00120778
0.00118525
0.00117409
0.00113014
0.00103114
0.00129792
0.00120136
0.017246
0.00507438
0.00162859
0.00172131
0.00159815
0.0015836
0.00149659
0.00146721
0.00141824
0.00137363
0.00133543
0.00127471
0.00124337
0.00119568
0.00116798
0.00114606
0.00112676
0.00104504
0.00126359
0.00120895
0.0163252
0.0046127
0.00163132
0.00178269
0.00164919
0.00160006
0.00152421
0.00145644
0.00141595
0.0013637
0.00133161
0.001277
0.00123831
0.00119432
0.0011504
0.0011278
0.00108953
0.00103083
0.00121297
0.00115238
0.0148036
0.00380078
0.00166277
0.0017328
0.00161983
0.00157069
0.00151511
0.00145097
0.00140425
0.00136227
0.00133919
0.00129273
0.00124974
0.00121447
0.00115749
0.00111788
0.00107827
0.001008
0.00117336
0.00112281
0.0129589
0.00313916
0.00169066
0.00169881
0.00164397
0.0015692
0.0015109
0.00143739
0.00138117
0.00130807
0.00129708
0.00128061
0.00124951
0.00123651
0.00121514
0.00115688
0.00111378
0.00103746
0.00116684
0.00110017
0.0105225
0.00261711
0.00170046
0.00165577
0.00160096
0.0015469
0.00151681
0.00144184
0.00142259
0.00132309
0.00125438
0.00122716
0.00119072
0.00115495
0.00116372
0.00113945
0.0011021
0.00103496
0.00114591
0.00109366
0.00838973
0.00221701
0.00169377
0.00160505
0.00156841
0.00150961
0.00150783
0.00141333
0.00139517
0.00137636
0.0012933
0.0012457
0.00122231
0.00115905
0.00113737
0.00112975
0.00111156
0.00105407
0.00114682
0.00110304
0.00676353
0.00191516
0.00167731
0.00160952
0.00155384
0.00145139
0.00149036
0.00144766
0.00136507
0.00133526
0.00128909
0.00120361
0.00118453
0.00113698
0.00108872
0.00106764
0.00103717
0.00100863
0.00105526
0.0010287
0.00552921
0.00175138
0.00166306
0.00159092
0.0015612
0.00141099
0.00136771
0.00140134
0.00138756
0.00134271
0.00134542
0.00126311
0.00120818
0.00118163
0.00112452
0.00109216
0.00104197
0.000994529
0.00106198
0.000988043
0.00477284
0.00171868
0.00169902
0.00160994
0.00167029
0.0015401
0.00137068
0.00130228
0.00129359
0.00124895
0.00126644
0.00126585
0.00120708
0.00117441
0.00114189
0.00109807
0.00107288
0.000999377
0.0010743
0.00103412
0.00439453
0.00161639
0.00158873
0.00146217
0.00150969
0.00158479
0.00152105
0.001388
0.00132944
0.00123165
0.0011747
0.00116681
0.00117685
0.0011312
0.00112702
0.00109546
0.00106614
0.00100396
0.00101906
0.000997015
0.00401032
0.00173496
0.00168336
0.00154993
0.00143371
0.001398
0.00142846
0.00139684
0.00137571
0.00133588
0.00125598
0.0011598
0.00113489
0.00110489
0.00106648
0.00105585
0.00103073
0.000991165
0.00100537
0.000965702
0.0041101
0.00152532
0.0015424
0.0015615
0.00142287
0.00137408
0.00135673
0.00135823
0.00129324
0.0012939
0.00128566
0.00123454
0.00117513
0.00113454
0.00110293
0.00106057
0.00103485
0.000982966
0.00101786
0.000982501
0.00365111
0.0017086
0.00153535
0.00151376
0.0015045
0.00144839
0.0013952
0.00130826
0.0012825
0.00122857
0.00119739
0.0012018
0.0011696
0.00112756
0.00109672
0.00106559
0.00102625
0.000962916
0.000981316
0.000933993
0.00298998
0.0115025
0.0145319
0.00977588
0.00334811
0.00017079
0.000259657
0.000558235
0.000662368
0.000618384
0.000584735
0.000564946
0.000604907
0.000632577
0.000604277
0.000678931
0.000698727
0.000756267
0.000845854
0.000769155
0.00276625
0.0129302
0.0139994
0.0077342
0.00136366
0.000264749
0.000484013
0.000638533
0.000659662
0.000613157
0.000617979
0.000652675
0.000624093
0.000647864
0.000659991
0.000680834
0.000680699
0.000790684
0.000854702
0.000751467
0.00453685
0.0140043
0.0128302
0.00539973
0.000316823
0.000315212
0.000653786
0.000753603
0.000710343
0.000703564
0.000682011
0.000651209
0.000670571
0.000682939
0.000666582
0.000743069
0.000761283
0.000851674
0.000871762
0.00076878
0.0075345
0.0147707
0.0117655
0.00270307
0.000352976
0.000563825
0.000776561
0.000805221
0.000753609
0.000714595
0.000704168
0.000717102
0.00069673
0.000726579
0.000736161
0.000762951
0.000762049
0.000875055
0.00086157
0.000752037
0.0102868
0.0150651
0.0104587
0.0012419
0.000409194
0.000796786
0.000912559
0.000858819
0.000836307
0.000818856
0.000791528
0.000762804
0.000770476
0.000764353
0.000752909
0.000815763
0.000815375
0.000917525
0.000885951
0.000784898
0.0130432
0.0151763
0.00941764
0.000473015
0.000573724
0.000959926
0.000979282
0.000922581
0.000891379
0.000842556
0.000817185
0.00080008
0.000779521
0.000807475
0.000809094
0.000837706
0.000840908
0.000956355
0.000881621
0.000780831
0.0162063
0.0149893
0.0071407
0.000414033
0.000805372
0.0010526
0.00104266
0.000979725
0.000946279
0.000919119
0.000886434
0.000861197
0.00086113
0.000848191
0.000841945
0.000883476
0.000861354
0.000971074
0.000901071
0.000813176
0.017815
0.0149388
0.0049848
0.000190954
0.00100781
0.00114761
0.00106615
0.00103825
0.00100755
0.000958385
0.000924845
0.000887286
0.000865784
0.000880944
0.000869622
0.00089864
0.000904364
0.00101209
0.000903712
0.000828554
0.0193222
0.0145015
0.00364511
0.000395749
0.00115118
0.00121533
0.00114675
0.00108832
0.00104885
0.00100779
0.000971176
0.000941879
0.000932646
0.000920591
0.000920111
0.000929768
0.000898582
0.00102467
0.000906001
0.000839805
0.0199282
0.0142804
0.00245118
0.000496502
0.00121471
0.00124681
0.00117507
0.00113141
0.001105
0.00105871
0.00101882
0.000974324
0.000947185
0.000944845
0.00092697
0.00094316
0.000938914
0.00106038
0.000926554
0.000865143
0.0206312
0.0137796
0.00186718
0.000649577
0.00138029
0.00131058
0.00125791
0.00118254
0.00113975
0.00109046
0.00105084
0.00101148
0.000993124
0.000983286
0.000977214
0.000966261
0.000928683
0.0010537
0.000910374
0.000878827
0.0214551
0.0134149
0.00135036
0.000945999
0.00136222
0.00132545
0.0012699
0.0012151
0.00118486
0.0011387
0.00109686
0.00105371
0.00101623
0.000999241
0.000979762
0.000976512
0.000958026
0.00107666
0.00091515
0.000886
0.0217809
0.0129269
0.00163993
0.00103765
0.0014933
0.00137754
0.00134855
0.0012603
0.00121886
0.0011691
0.00112459
0.00107929
0.00105322
0.00103987
0.00102717
0.00100614
0.000963218
0.00107405
0.000910548
0.000912002
0.0222694
0.0125216
0.00168352
0.00122471
0.00147253
0.00139187
0.00134441
0.00128922
0.00124568
0.00120236
0.00116355
0.00112209
0.00107711
0.00105288
0.00103088
0.00101306
0.000988358
0.0010859
0.000897542
0.000930037
0.0223495
0.0119878
0.00250653
0.00127148
0.00156784
0.00144
0.00141832
0.00133248
0.00129092
0.00123983
0.00119092
0.00114761
0.00111004
0.00109158
0.00107346
0.00104165
0.000991863
0.00107074
0.000869245
0.000932466
0.0225828
0.0116963
0.00258784
0.00139295
0.00156565
0.00144997
0.00140383
0.00135357
0.00129681
0.00125667
0.00121865
0.00118126
0.00113483
0.00110277
0.00107995
0.00105869
0.00103234
0.00108118
0.000851385
0.00095616
0.022467
0.011269
0.00263308
0.00137887
0.00160378
0.00149834
0.00146378
0.00139494
0.00135303
0.00130148
0.00125105
0.00121178
0.00116783
0.00114715
0.00111796
0.00108396
0.00104978
0.00108097
0.000809081
0.000956565
0.0224512
0.0109346
0.0026493
0.00150835
0.00160196
0.00150445
0.00145326
0.00140493
0.00134305
0.00130527
0.00126385
0.00123618
0.00119016
0.00115864
0.00113403
0.00111017
0.00110582
0.00110554
0.000798572
0.000978149
0.0221362
0.0103782
0.00243123
0.00149876
0.00162526
0.00153779
0.00149579
0.00144686
0.00140087
0.00135458
0.00129902
0.00126264
0.00122491
0.00120229
0.00116705
0.00113759
0.00115171
0.00114797
0.000799491
0.000977316
0.0219072
0.00938228
0.00271278
0.00157818
0.00163402
0.00155147
0.00148457
0.00144313
0.00138311
0.00135012
0.00130904
0.00128583
0.00124743
0.00122225
0.00119828
0.00120592
0.00121646
0.00120508
0.000990414
0.00110692
0.0052705
0.00422088
0.00337521
0.00271242
0.00254206
0.00202613
0.00179479
0.00146749
0.00130316
0.00106308
0.000880039
0.000743514
0.000620654
0.000540893
0.000491684
0.000807292
0.00225095
0.00658557
0.0108733
0.0156036
0.00528285
0.00394156
0.00328156
0.00273572
0.00256426
0.0020481
0.0018253
0.00148532
0.00130439
0.00106537
0.000879179
0.000747669
0.000620717
0.000545035
0.000493049
0.00080874
0.00224468
0.00656607
0.0108545
0.0156374
0.005454
0.00421683
0.0033884
0.00268892
0.00253947
0.00199598
0.00178094
0.00145497
0.00128552
0.00105292
0.000865125
0.000738029
0.000612303
0.000536432
0.000477568
0.000763465
0.00220203
0.00656578
0.0108553
0.0156777
0.00546199
0.0039848
0.00334629
0.00272149
0.00256661
0.00201842
0.00181388
0.00147893
0.00128843
0.00106056
0.000867327
0.000744568
0.000614448
0.000541824
0.000480529
0.000760226
0.00218345
0.00653925
0.0108319
0.015667
0.00569549
0.00420891
0.003405
0.00267104
0.0025442
0.00196675
0.00176713
0.00144934
0.00126668
0.00104903
0.000853498
0.000736246
0.000606456
0.000533109
0.000463823
0.000708005
0.00211325
0.00653521
0.0108394
0.0157708
0.00570878
0.00405753
0.0034246
0.00269773
0.002568
0.00199934
0.00179928
0.00147867
0.00127292
0.00106184
0.000861338
0.000748296
0.000615743
0.000544711
0.00046933
0.000703494
0.00209323
0.00650514
0.0108221
0.0158466
0.00594827
0.0041987
0.00345777
0.00267274
0.00253291
0.00195194
0.00175116
0.00144982
0.00125018
0.00105099
0.000848953
0.000742177
0.000610251
0.000539085
0.000453653
0.000651272
0.0020079
0.00648008
0.0107585
0.0158849
0.00598272
0.00410214
0.00347042
0.00269008
0.00255351
0.00199175
0.00178236
0.00148188
0.00125968
0.00106681
0.00086078
0.000757066
0.000622516
0.000552192
0.000459631
0.000646031
0.00191389
0.00643741
0.0106708
0.0157338
0.00618936
0.0042314
0.00351381
0.00268609
0.00250727
0.00194908
0.00173376
0.00145442
0.00123781
0.00105528
0.000848617
0.000749582
0.000615701
0.000546141
0.000442609
0.000601131
0.00177159
0.00638791
0.0106763
0.0156781
0.00617106
0.00413989
0.0035074
0.00269033
0.00252311
0.00199357
0.00176252
0.0014863
0.00125035
0.0010727
0.000862962
0.000765363
0.000628122
0.000559625
0.000450462
0.000603235
0.00171228
0.00633403
0.0106673
0.0156527
0.00638117
0.0042543
0.00356257
0.00269952
0.00246748
0.00195538
0.0017161
0.0014612
0.00123039
0.00106076
0.000852446
0.000758383
0.000621873
0.000553685
0.000431876
0.000556988
0.00160274
0.00629071
0.0106861
0.0156395
0.00629499
0.00415781
0.00355247
0.0027016
0.00248015
0.00199966
0.00174083
0.00149129
0.00124545
0.00107898
0.000869156
0.000776336
0.000636996
0.000569085
0.000442389
0.000560958
0.00149404
0.00622338
0.0106923
0.0156342
0.00647402
0.00421665
0.00358798
0.00271195
0.00241717
0.00196581
0.00169799
0.00146885
0.00122744
0.00106708
0.000860686
0.000770648
0.000633523
0.000564975
0.000425438
0.000514266
0.00140149
0.00617319
0.0107
0.0156408
0.00641857
0.0041067
0.00356129
0.00271957
0.00243001
0.00200657
0.00171807
0.00149619
0.00124394
0.00108466
0.000878011
0.000788634
0.000650551
0.000583031
0.000444867
0.000515638
0.00129182
0.00611261
0.0107119
0.0156538
0.00663501
0.00413267
0.00355968
0.00271356
0.0023621
0.00197772
0.0016797
0.00147604
0.00122832
0.00107352
0.000871134
0.000782865
0.000647729
0.000581019
0.000433871
0.000482923
0.00120109
0.00606914
0.0107272
0.0156736
0.00653097
0.00404032
0.00353303
0.00271615
0.00236704
0.00201152
0.00169432
0.00149869
0.0012444
0.00108935
0.000888299
0.000800032
0.000663908
0.000598866
0.000464307
0.000500178
0.00109209
0.00600528
0.0107506
0.0156998
0.00680987
0.00402727
0.00347297
0.00270005
0.00229396
0.00198561
0.00165991
0.00147815
0.00122999
0.00107809
0.000882474
0.000794837
0.000662724
0.000595227
0.000457035
0.000504057
0.000988014
0.00588051
0.0107487
0.0157288
0.00664959
0.00393609
0.00344186
0.00271711
0.00230722
0.00201842
0.00167798
0.00150215
0.00124941
0.00109656
0.000902071
0.000814703
0.000681504
0.000615902
0.000485918
0.000546
0.000871678
0.00591659
0.0107948
0.0157619
0.00679024
0.00396249
0.00331485
0.00266509
0.00222187
0.00198774
0.00164742
0.00148118
0.00123773
0.00108658
0.000897262
0.000810715
0.000681848
0.000615708
0.000475503
0.000548887
0.000746714
0.00585009
0.0108947
0.0158375
0.00708789
0.00394812
0.00325054
0.00267163
0.00222197
0.00199643
0.00165013
0.00148249
0.00124373
0.0010893
0.000906234
0.000818462
0.000693687
0.000632684
0.000502685
0.000528838
0.000606179
0.00548707
0.0106823
0.0156643
0.0136146
0.0410048
0.0315771
0.0296428
0.0239392
0.021927
0.0179139
0.0158925
0.0133836
0.0116634
0.00964459
0.00852122
0.0072289
0.00665392
0.005486
0.0057167
0.0013001
0.052707
0.101199
0.144511
0.0346269
0.025152
0.022983
0.0201377
0.0160571
0.0146859
0.012469
0.0108753
0.00914825
0.00801499
0.0072083
0.00660382
0.00605368
0.00558305
0.00512557
0.00514492
0.0163985
0.0531553
0.0994453
0.141315
0.0160197
0.01674
0.0156261
0.0129779
0.0124412
0.010928
0.00990116
0.00914322
0.00842331
0.00786968
0.00742754
0.00709982
0.00662026
0.00599518
0.00588695
0.00537742
0.00908529
0.0530203
0.0977577
0.140886
0.0118207
0.0110996
0.0102112
0.0104191
0.00929127
0.00880715
0.00814027
0.00764922
0.00720012
0.0068226
0.00624908
0.00572419
0.00526805
0.00484886
0.00444915
0.00379548
0.0127202
0.0489562
0.0973712
0.136818
0.00643756
0.00787154
0.00812007
0.00709188
0.0071005
0.00656603
0.006308
0.00604701
0.00580329
0.00556623
0.00534335
0.00518164
0.00506147
0.00496847
0.00470558
0.00391778
0.00711797
0.0455612
0.0970268
0.135818
0.00527744
0.00566672
0.00506487
0.00513892
0.0050302
0.00541722
0.00529998
0.0052792
0.00510141
0.00507242
0.00484268
0.00472286
0.00454644
0.00445713
0.00424257
0.00336529
0.00836984
0.0400404
0.0974263
0.134154
0.0032077
0.00404844
0.00453632
0.00451837
0.00432884
0.00413275
0.00418264
0.0042387
0.00420281
0.00424765
0.00427115
0.00431842
0.00424907
0.00418286
0.00420341
0.00356715
0.00570579
0.0334775
0.0978669
0.135681
0.00295396
0.00305949
0.00275056
0.00292316
0.00320183
0.00363432
0.00360594
0.00381547
0.00378942
0.00396236
0.00391654
0.00408642
0.00397534
0.00409197
0.00397518
0.00364497
0.00581052
0.0272041
0.0976708
0.138646
0.00224474
0.00237596
0.00278918
0.00296507
0.00295615
0.00297857
0.00310182
0.00330593
0.00340627
0.00357184
0.00363293
0.00385801
0.00387433
0.0040848
0.00394203
0.0036298
0.0048533
0.0198907
0.0960721
0.145222
0.00180383
0.00183841
0.00176684
0.00198216
0.00221774
0.00263243
0.0027038
0.00290422
0.00305194
0.00332385
0.0034054
0.00367412
0.00378153
0.00419949
0.00429156
0.00464468
0.00378246
0.0151898
0.091993
0.15342
0.00144651
0.00170067
0.00191667
0.00221739
0.00227175
0.00227806
0.00246674
0.00269531
0.00271644
0.00302078
0.00315513
0.00348813
0.00357994
0.00392064
0.00399136
0.00447966
0.00398157
0.00885263
0.0748985
0.165397
0.00122311
0.00130624
0.00131681
0.00144289
0.00167257
0.00197268
0.00199456
0.00233841
0.00253559
0.00267599
0.00289918
0.00322786
0.00348251
0.00394165
0.00423579
0.00485933
0.004791
0.006219
0.0618449
0.18136
0.00111495
0.00128864
0.00139614
0.00159014
0.00159858
0.00170887
0.0018209
0.00194598
0.00215694
0.0023173
0.00249765
0.00264656
0.00296143
0.00322532
0.00393531
0.00424579
0.00535114
0.00995794
0.0343747
0.172317
0.000948688
0.00103056
0.00107702
0.00116282
0.00129292
0.00150665
0.00158213
0.00172051
0.00166562
0.00194215
0.00196431
0.00228668
0.00239709
0.00278651
0.00281482
0.00330364
0.00353881
0.00667886
0.0183586
0.124073
0.000916619
0.00100384
0.00107141
0.00118128
0.00116964
0.00116588
0.00115778
0.00121303
0.00130844
0.00141797
0.00146866
0.00166471
0.001754
0.00197697
0.00202281
0.00248549
0.00288955
0.0039682
0.00568011
0.0771006
0.000716155
0.000706446
0.000678017
0.000737477
0.000798694
0.000875746
0.000878086
0.000939071
0.000988138
0.00112184
0.00113168
0.00127727
0.00121203
0.00141119
0.00150511
0.0016237
0.00145933
0.0023717
0.00483269
0.0404261
0.000551845
0.000517733
0.000556724
0.000516788
0.000530212
0.000547184
0.000610314
0.000661426
0.000699132
0.000750024
0.000769905
0.000817826
0.000891094
0.000996221
0.00101231
0.00112802
0.00142621
0.00138069
0.000832209
0.0218312
0.000220026
0.000217256
0.000263647
0.000281148
0.000302378
0.000371349
0.000396324
0.000507295
0.000502629
0.00055227
0.000556416
0.000628933
0.000649873
0.000726597
0.000724354
0.000894464
0.000969898
0.00131806
0.00181991
0.00363112
0.000172038
0.000150005
0.000170762
0.000184262
0.000207071
0.000236415
0.000266263
0.000270706
0.000303854
0.00031566
0.000371799
0.000386742
0.0004288
0.000406311
0.000460148
0.000559406
0.00043832
0.000758786
0.00109231
0.0020123
9.97195e-05
0.000114733
0.000115608
0.00018429
0.000190591
0.000225323
0.000248379
0.000268196
0.00030653
0.000325049
0.000355365
0.000363636
0.000407823
0.000390333
0.000434543
0.000421433
0.00032593
0.000218483
0.000196477
0.000121932
0.0140577
0.0141625
0.0140297
0.0143911
0.0141864
0.0140327
0.0149615
0.0139566
0.0135166
0.0144834
0.0151479
0.0133532
0.0134411
0.0115223
0.012913
0.0121572
0.0118788
0.0109587
0.0106845
0.0101148
0.00691874
0.00696246
0.00692164
0.00692316
0.00682758
0.0069782
0.00690677
0.00644784
0.0073767
0.00902081
0.00761075
0.00641066
0.00715284
0.00788783
0.00802064
0.00631321
0.00735166
0.00653258
0.00607911
0.00759207
0.0041221
0.00418614
0.00418469
0.00435759
0.00438045
0.00441591
0.0045976
0.00490291
0.00458965
0.0039857
0.00385982
0.00491279
0.00563245
0.00565587
0.00391127
0.00332846
0.00247888
0.00257337
0.00265055
0.00326523
0.00262378
0.00264898
0.00266763
0.00270841
0.00263089
0.00266783
0.00260907
0.00236264
0.00237032
0.00293861
0.00280129
0.00231281
0.00247962
0.00357417
0.0037587
0.00309959
0.00270297
0.00283336
0.00230498
0.00259703
0.00163356
0.00167896
0.00168846
0.00169935
0.00168797
0.00166593
0.00165303
0.0017859
0.00182467
0.00175558
0.00200758
0.00225248
0.00198179
0.00203692
0.00213215
0.00204043
0.00158228
0.00130484
0.000872358
0.000937413
0.00117504
0.00119249
0.0011818
0.0011791
0.0011566
0.00115232
0.00115693
0.00120735
0.00119527
0.00114619
0.000995034
0.00095013
0.00107411
0.00138159
0.00137737
0.00164296
0.00168906
0.00164011
0.000966172
0.0011885
0.000699349
0.000696209
0.000694274
0.000688299
0.000681776
0.000696576
0.000707433
0.000768023
0.000781247
0.000880128
0.00103995
0.00113034
0.00104193
0.00087067
0.00075591
0.00087244
0.000732754
0.000755937
0.000462524
0.000240679
0.000524067
0.00050978
0.000514553
0.000522438
0.000521777
0.000530779
0.000545802
0.000562223
0.000561016
0.000576242
0.000577008
0.000478239
0.000409262
0.000404038
0.000582564
0.000895363
0.000941787
0.000805437
0.000633412
0.000653332
0.000307711
0.000301374
0.000310884
0.000321651
0.00034659
0.000369487
0.000398018
0.000406517
0.000422481
0.000433818
0.000438178
0.000499377
0.000533121
0.000378815
0.00021773
0.000254763
0.000180755
0.000376857
0.000350408
0.000251351
0.00020321
0.000206112
0.000207424
0.000206433
0.000205782
0.000206351
0.000224473
0.000229261
0.000184986
0.000252199
0.0002738
0.000286837
0.00029674
0.000355339
0.00043494
0.000447715
0.000379264
0.000413612
0.000386451
0.00041903
0.000137759
0.000147949
0.000149715
0.000168768
0.000179399
0.000167994
0.000157209
0.000174048
0.000201379
0.000210283
0.000208684
0.000211891
0.000222505
0.000236614
0.000239473
0.000266722
0.000284971
0.000296601
0.000290584
0.000286808
0.00013491
0.00015004
0.000141593
0.000132861
0.000132201
0.00016222
0.000195851
0.00018708
0.000187386
0.000206235
0.000222756
0.000237773
0.00024127
0.000232134
0.000232311
0.000228441
0.000221108
0.000222222
0.000206267
0.000267471
0.000147096
0.000153261
0.000156626
0.000158093
0.000158493
0.00014887
0.000141463
0.000151102
0.000159479
0.000166005
0.000172877
0.000180596
0.000187921
0.00019618
0.000203097
0.000210331
0.000215387
0.000220446
0.00021974
0.00023787
0.000166865
0.00017302
0.000177473
0.000183396
0.000187567
0.000192945
0.000192463
0.000189343
0.000189569
0.000190544
0.000191971
0.000192695
0.000193516
0.000195712
0.000198089
0.000202584
0.000203274
0.000207786
0.000203083
0.000219428
0.000137791
0.000136306
0.000148084
0.000160676
0.000169059
0.000173611
0.000177736
0.000184549
0.000189295
0.000192033
0.000192095
0.000195243
0.000196809
0.000199966
0.000198427
0.000201382
0.00020241
0.000209582
0.00021367
0.000217901
0.000151639
0.000155086
0.000151492
0.000139758
0.000129725
0.000129088
0.0001321
0.000133632
0.000135921
0.000140429
0.000148848
0.000156274
0.000157013
0.000155093
0.000153144
0.000153882
0.000155234
0.000158718
0.000159152
0.000172493
0.000117632
0.000117688
0.000119269
0.000125367
0.000126609
0.000123075
0.000120245
0.000117948
0.000117785
0.000115077
0.000106695
0.000102326
0.000104749
0.000110751
0.000116188
0.000121218
0.000119518
0.000120519
0.000118414
0.000126001
6.9232e-05
7.06063e-05
7.13981e-05
6.72728e-05
6.91615e-05
7.1186e-05
7.10362e-05
7.0826e-05
6.91724e-05
7.12719e-05
7.33909e-05
7.3315e-05
6.8307e-05
6.45139e-05
6.05417e-05
5.72926e-05
5.42626e-05
5.43117e-05
5.38508e-05
5.74314e-05
3.90137e-05
3.79321e-05
3.77568e-05
4.08136e-05
3.72368e-05
3.68978e-05
3.60821e-05
3.19642e-05
2.8993e-05
2.90639e-05
3.13962e-05
3.20997e-05
3.04331e-05
2.77491e-05
2.35072e-05
2.07126e-05
1.86335e-05
1.30028e-05
2.1729e-05
4.38553e-05
7.19691e-06
7.88427e-06
7.65277e-06
8.23116e-06
8.41691e-06
7.88466e-06
7.13002e-06
6.05047e-06
4.14922e-06
2.56155e-06
3.76293e-06
2.44748e-06
1.24624e-05
4.70355e-06
1.39425e-05
2.18256e-06
1.56095e-05
2.17712e-06
8.08373e-06
7.09574e-06
0.00101347
0.00126914
0.000948619
0.00101284
0.00103157
0.001022
0.00106652
0.00109263
0.00111474
0.00115688
0.00120537
0.00124028
0.00129981
0.00133469
0.00140742
0.00141124
0.00150311
0.00126835
0.00464238
0.0187552
0.000984523
0.00111067
0.000842669
0.000932932
0.000995964
0.00104361
0.00108654
0.00110235
0.00114741
0.00118557
0.0012228
0.0012566
0.00131174
0.00134643
0.00140834
0.00139299
0.00156836
0.0012651
0.00398085
0.0182816
0.000987538
0.00115612
0.000882392
0.000956444
0.00101078
0.00101791
0.00104693
0.0010859
0.00111918
0.00117244
0.00121476
0.00125797
0.00131543
0.00135154
0.00142237
0.00142498
0.00154549
0.00129887
0.00444135
0.0176866
0.00102592
0.0011574
0.000878118
0.000968179
0.00100941
0.00104065
0.00108313
0.0011136
0.00116121
0.00120272
0.00124288
0.00129025
0.00133765
0.00138898
0.00144128
0.00146013
0.00164362
0.00142074
0.00503594
0.0170773
0.00105047
0.00118641
0.000926275
0.000980785
0.0010161
0.00103361
0.00106833
0.00112126
0.00115261
0.0012007
0.0012389
0.00127409
0.00133052
0.00137066
0.00143728
0.00146085
0.00158041
0.00146605
0.00497098
0.0164515
0.00104576
0.00116405
0.00089952
0.00096019
0.00102331
0.00106714
0.00111575
0.00114084
0.00115675
0.00120603
0.00122969
0.0012899
0.00133497
0.0013899
0.00144022
0.00148236
0.00165741
0.00149192
0.00421641
0.0154746
0.00108491
0.0011437
0.000896345
0.00101165
0.00104455
0.00105945
0.00108649
0.00109874
0.0011439
0.00119566
0.00122707
0.00127809
0.00131956
0.001368
0.00140596
0.00146065
0.00155752
0.00150093
0.00326037
0.013366
0.00103996
0.00109114
0.000932473
0.00101639
0.00103584
0.0010757
0.00109107
0.00112379
0.0011671
0.001207
0.00123218
0.00129381
0.00132313
0.00136564
0.00139991
0.0014918
0.00153404
0.00152407
0.00259432
0.0106524
0.00107498
0.00114416
0.000977158
0.00102883
0.00105055
0.00106304
0.00106751
0.00111358
0.00114635
0.00118087
0.00120519
0.00125386
0.00126135
0.00130402
0.00137416
0.00142457
0.001463
0.00154491
0.00217154
0.00865409
0.00104409
0.00104413
0.00090448
0.000950871
0.000978835
0.00100332
0.00104025
0.00109314
0.00111933
0.00115699
0.00119734
0.0012455
0.00125922
0.00136349
0.00142477
0.00147973
0.00150541
0.00157745
0.00189155
0.00702086
0.000994732
0.00101301
0.000922285
0.000975812
0.00102043
0.00104228
0.00107466
0.00110441
0.00111302
0.00115179
0.00118263
0.00122285
0.00128535
0.00142219
0.00141584
0.00144813
0.00150381
0.00153764
0.00165172
0.00574662
0.000969826
0.000983149
0.000893387
0.000943276
0.000972045
0.000991931
0.00103712
0.00106398
0.00112234
0.00119582
0.00127467
0.0013436
0.00142957
0.00144241
0.00133798
0.00142157
0.00143846
0.00153876
0.00160654
0.00494567
0.000957848
0.000976152
0.000923038
0.000986115
0.00102441
0.00107272
0.00111286
0.00115982
0.00121881
0.00125148
0.00126018
0.00126235
0.00125794
0.00121685
0.00126903
0.00147526
0.00151863
0.0015748
0.00156523
0.00440242
0.000961055
0.00101272
0.000960482
0.00101309
0.00103629
0.00105566
0.00107048
0.00109926
0.00111805
0.00113539
0.00116481
0.00120757
0.00125965
0.00135037
0.0015274
0.0016326
0.00151562
0.00153688
0.00158804
0.00433896
0.000970007
0.00101435
0.000947241
0.000993125
0.0010168
0.00103425
0.00107829
0.00111148
0.00116625
0.00120644
0.00125819
0.0013158
0.00135916
0.00142632
0.00140652
0.00134526
0.00127312
0.00147487
0.00175513
0.0046959
0.000932448
0.000976837
0.000931926
0.000996268
0.00103302
0.00107527
0.00112084
0.00115866
0.00119314
0.00121406
0.00125119
0.00126998
0.00130452
0.00132141
0.00137055
0.00140032
0.00157074
0.00169449
0.00168747
0.00400487
0.000938154
0.00100146
0.000953873
0.00102692
0.00104426
0.00108351
0.00109245
0.00113111
0.00114289
0.00118869
0.00123311
0.00128905
0.00135845
0.00141315
0.00146992
0.00152835
0.00156106
0.00148097
0.00142999
0.00307991
0.000916809
0.000971021
0.000934462
0.00100383
0.00102135
0.00105851
0.00107119
0.00111904
0.00113115
0.00119182
0.00120622
0.00127789
0.00127666
0.00136414
0.00135001
0.00144996
0.00155346
0.00167348
0.00184027
0.00215243
0.000965083
0.000982814
0.000961873
0.00101384
0.00104374
0.00109173
0.00111913
0.00117908
0.00119847
0.00127319
0.00126844
0.00134043
0.00135174
0.00142595
0.00143824
0.00154503
0.00155308
0.00172931
0.00159104
0.00113921
0.000946522
0.000989526
0.000953063
0.00100381
0.00102525
0.00103668
0.00108484
0.0011073
0.0011538
0.00119701
0.00126516
0.00131131
0.00136455
0.00140789
0.00148776
0.00158599
0.00155985
0.00161969
0.00178116
0.00166991
0.000666472
0.000747657
0.000658648
0.000545449
0.000539463
0.000521965
0.000564731
0.000580315
0.000547896
0.000594575
0.000602122
0.000648324
0.000622023
0.000354371
0.000135918
0.0013027
0.00653475
0.0113377
0.0105255
0.00481717
0.000665197
0.000752658
0.000713931
0.000627617
0.000605932
0.000549288
0.000557797
0.000602836
0.000652624
0.00061222
0.000657837
0.000659274
0.000675453
0.00065212
0.000340136
0.000244086
0.00467174
0.0106144
0.0115129
0.00660379
0.000673894
0.000769966
0.000744796
0.000628036
0.000635759
0.000612251
0.000613451
0.000601137
0.000624059
0.00068417
0.000667075
0.000700765
0.000759199
0.000691147
0.000510338
0.00030474
0.00232505
0.00975337
0.0122091
0.00863425
0.000654154
0.000766335
0.000826898
0.000690773
0.000654999
0.000619363
0.000633953
0.000673173
0.0006888
0.000673035
0.000729005
0.000734387
0.000717544
0.000814628
0.000727944
0.0004284
0.000991092
0.00877893
0.0126944
0.0106306
0.000679126
0.000750246
0.000804612
0.000717402
0.000712733
0.000679093
0.000667078
0.000652649
0.000711882
0.000750674
0.000737212
0.000787819
0.000810948
0.000826844
0.000807209
0.000453525
0.000359756
0.00794145
0.0128039
0.0132561
0.000674321
0.000780339
0.000873697
0.000722199
0.000708556
0.000696488
0.000712818
0.00072646
0.0007282
0.000758925
0.000807408
0.000812619
0.000811191
0.000905192
0.000924265
0.000694933
0.000432054
0.00544027
0.0128689
0.0150894
0.000697992
0.000761645
0.000875423
0.000780354
0.000754675
0.000724993
0.00072345
0.000720941
0.000780147
0.00080026
0.000808727
0.000867039
0.000894041
0.000920271
0.000982712
0.000884986
0.000122142
0.00385389
0.0126358
0.0161537
0.000703588
0.000781921
0.000894472
0.000752873
0.000754339
0.000758613
0.000772417
0.000765982
0.000775247
0.000836737
0.000870545
0.000889852
0.000897961
0.00095467
0.00104374
0.000997742
0.000294368
0.00258349
0.0124062
0.0171388
0.000698575
0.00076917
0.000930402
0.000805806
0.000778301
0.000764981
0.000777844
0.000788582
0.000833407
0.000848539
0.000880082
0.000932705
0.000954851
0.00102249
0.00106449
0.00105455
0.000417964
0.00162643
0.0120995
0.017845
0.000714703
0.000790023
0.000934608
0.000791342
0.000799476
0.000814186
0.000820587
0.000803168
0.000830905
0.000901663
0.000925259
0.000962776
0.000976209
0.00104121
0.00111989
0.00116989
0.000608296
0.00128594
0.0117048
0.0185165
0.000751512
0.000811795
0.000983669
0.000832407
0.000817762
0.000817489
0.000833461
0.000854521
0.000887631
0.000903469
0.000952986
0.000990609
0.00101398
0.00110741
0.0011251
0.00118044
0.000883524
0.000844488
0.0113952
0.0192047
0.000737667
0.000772373
0.000952477
0.000815333
0.000836051
0.000855383
0.000855787
0.000846642
0.000891279
0.000956304