/*--------------------------------*- C++ -*----------------------------------*\
  =========                 |
  \\      /  F ield         | OpenFOAM: The Open Source CFD Toolbox
   \\    /   O peration     | Website:  https://openfoam.org
    \\  /    A nd           | Version:  9
     \\/     M anipulation  |
\*---------------------------------------------------------------------------*/
FoamFile
{
    format      ascii;
    class       volScalarField;
    location    "11";
    object      p;
}
// * * * * * * * * * * * * * * * * * * * * * * * * * * * * * * * * * * * * * //

dimensions      [0 2 -2 0 0 0 0];

internalField   nonuniform List<scalar> 
46400
(
-40.136
-31.632
-14.3654
0.0988906
13.4735
25.6604
36.6638
46.8145
56.0453
64.5796
72.4087
79.6882
86.4265
92.7377
98.6749
104.326
109.608
114.947
120.637
123.158
-8.25661
0.527186
16.5966
29.9307
42.1275
53.2879
63.3295
72.5861
80.9731
88.6872
95.7212
102.199
108.157
113.637
118.697
123.381
127.664
131.825
135.791
137.182
24.4954
33.5797
47.8843
60.1553
71.1152
81.2271
90.2216
98.5019
105.972
112.829
119.061
124.773
129.996
134.792
139.187
143.215
146.831
150.292
153.459
153.848
57.7657
65.7951
78.6296
89.6972
99.4702
108.531
116.562
123.91
130.493
136.484
141.888
146.793
151.24
155.261
158.919
162.239
165.2
168.019
170.671
170.828
90.5355
97.5612
108.815
118.861
127.56
135.59
142.674
149.108
154.85
160.029
164.671
168.844
172.593
175.957
178.962
181.646
183.981
186.188
188.227
187.886
121.802
127.472
137.68
146.797
154.544
161.668
167.849
173.429
178.328
182.716
186.6
190.05
193.119
195.83
198.248
200.367
202.198
203.902
205.578
205.026
151.149
156.486
166.086
174.219
181.11
187.285
192.625
197.33
201.443
205.025
208.176
210.913
213.311
215.392
217.201
218.76
220.043
221.236
222.451
221.657
179.61
185.277
193.717
200.883
206.649
211.878
216.256
220.109
223.402
226.238
228.659
230.719
232.467
233.933
235.177
236.195
236.991
237.722
238.453
237.477
207.795
213.918
220.756
226.784
231.564
235.713
239.214
242.13
244.608
246.646
248.342
249.705
250.796
251.628
252.264
252.702
252.943
253.132
253.323
252.011
234.944
241.361
246.481
251.243
254.965
258.123
260.714
262.817
264.526
265.851
266.888
267.618
268.137
268.404
268.521
268.456
268.238
267.985
267.743
266.225
261.507
266.854
270.858
274.223
276.982
279.111
280.843
282.096
283.046
283.662
284.044
284.187
284.131
283.882
283.467
282.91
282.186
281.449
280.683
278.851
285.653
289.654
292.702
295.071
296.971
298.333
299.332
299.905
300.192
300.157
299.935
299.484
298.905
298.151
297.286
296.287
295.156
293.979
292.805
290.671
306.666
309.809
312.036
313.59
314.733
315.395
315.759
315.75
315.502
314.97
314.251
313.329
312.281
311.106
309.841
308.491
307.047
305.591
304.208
301.882
325.31
327.774
329.433
330.32
330.899
330.948
330.767
330.193
329.433
328.381
327.198
325.816
324.336
322.738
321.075
319.34
317.551
315.765
314.057
311.657
340.962
342.789
343.894
344.249
344.305
343.834
343.175
342.207
341.086
339.696
338.167
336.443
334.622
332.673
330.675
328.588
326.456
324.303
322.198
319.527
355.463
356.702
357.348
357.193
356.769
355.819
354.635
353.165
351.567
349.785
347.904
345.876
343.764
341.552
339.282
336.967
334.587
332.226
329.955
327.079
366.727
367.137
367.341
366.757
366.047
364.87
363.479
361.74
359.849
357.763
355.592
353.316
350.986
348.587
346.141
343.665
341.144
338.636
336.268
333.363
376.918
376.743
376.403
375.38
374.165
372.633
370.888
368.904
366.73
364.391
361.93
359.375
356.774
354.112
351.441
348.735
346.016
343.301
340.704
337.724
382.753
382.653
382.004
380.937
379.524
377.809
375.896
373.755
371.479
369.035
366.498
363.848
361.139
358.368
355.577
352.766
349.934
347.115
344.445
341.3
387.22
387.046
386.374
384.999
383.529
381.558
379.491
377.116
374.656
372.021
369.333
366.532
363.703
360.812
357.918
355.009
352.098
349.213
346.508
343.357
-232.465
-231.951
-231.464
-228.916
-223.209
-216.101
-208.509
-200.969
-193.366
-185.847
-178.425
-171.123
-164.052
-156.995
-150.263
-143.509
-137.135
-130.765
-124.684
-118.883
-239.17
-238.403
-237.945
-232.427
-225.467
-217.577
-209.019
-200.708
-192.384
-184.248
-176.314
-168.533
-160.97
-153.543
-146.456
-139.382
-132.762
-126.142
-119.918
-113.928
-249.692
-248.835
-247.661
-239.932
-230.23
-220.394
-210.572
-201.068
-191.82
-182.871
-174.194
-165.79
-157.715
-149.827
-142.336
-134.934
-128.036
-121.136
-114.746
-108.55
-262.979
-262.207
-257.62
-247.402
-235.448
-223.638
-212.618
-201.813
-191.551
-181.735
-172.327
-163.297
-154.645
-146.298
-138.387
-130.621
-123.43
-116.243
-109.689
-103.251
-277.555
-276.415
-268.047
-255.05
-240.45
-226.703
-213.967
-201.952
-190.558
-179.824
-169.627
-159.931
-150.716
-141.889
-133.552
-125.466
-117.981
-110.542
-103.837
-97.194
-287.403
-286.562
-273.803
-258.592
-242.525
-227.557
-213.593
-200.644
-188.463
-177.001
-166.185
-155.952
-146.255
-137.032
-128.337
-119.937
-112.201
-104.515
-97.6687
-90.7802
-295.114
-292.41
-276.443
-259.433
-242.371
-226.437
-211.549
-197.72
-184.777
-172.675
-161.285
-150.57
-140.458
-130.885
-121.88
-113.256
-105.31
-97.4849
-90.5602
-83.4936
-296.764
-292.518
-277.059
-257.911
-239.759
-222.935
-207.375
-192.921
-179.431
-166.849
-155.058
-143.982
-133.559
-123.736
-114.503
-105.7
-97.6458
-89.6161
-82.7381
-75.4898
-294.978
-290.818
-272.41
-252.938
-234.314
-216.868
-200.825
-185.938
-172.029
-159.105
-147.015
-135.703
-125.087
-115.107
-105.743
-96.8972
-88.707
-80.6614
-73.7396
-66.4345
-289.14
-285.337
-267.893
-246.156
-226.892
-208.905
-192.294
-177.031
-162.815
-149.64
-137.35
-125.869
-115.137
-105.071
-95.6452
-86.7725
-78.5629
-70.5608
-63.6483
-56.2815
-281.748
-276.235
-256.667
-235.375
-215.469
-197.426
-180.728
-165.391
-151.129
-137.932
-125.643
-114.188
-103.487
-93.4714
-84.0967
-75.3037
-67.1464
-59.2535
-52.4913
-45.1217
-268.32
-262.636
-243.111
-221.438
-201.968
-183.899
-167.189
-151.88
-137.646
-124.473
-112.245
-100.86
-90.2607
-80.3581
-71.1196
-62.4867
-54.4682
-46.7559
-40.1266
-32.8249
-253.222
-246.279
-225.945
-204.724
-185.035
-167.393
-150.872
-135.781
-121.788
-108.842
-96.8352
-85.6654
-75.2758
-65.5776
-56.5323
-48.1062
-40.2644
-32.7982
-26.4067
-19.1593
-233.428
-226.156
-206.191
-185.407
-166.297
-148.871
-132.754
-117.962
-104.278
-91.6242
-79.9154
-69.038
-58.939
-49.5195
-40.748
-32.5772
-24.9551
-17.7154
-11.4378
-4.25623
-211.948
-204.129
-183.862
-163.61
-144.782
-128.018
-112.316
-97.9921
-84.7481
-72.4998
-61.18
-50.6721
-40.9469
-31.8934
-23.4921
-15.7
-8.43369
-1.62902
4.24796
11.2151
-186.939
-179.142
-158.777
-139.738
-121.638
-105.376
-90.3731
-76.5622
-63.8559
-52.1064
-41.261
-31.1984
-21.8813
-13.2071
-5.16224
2.29641
9.26496
15.7338
21.3893
28.1565
-160.77
-152.678
-132.205
-113.902
-96.6384
-81.1189
-66.7204
-53.5456
-41.4054
-30.1843
-19.8522
-10.275
-1.44983
6.75154
14.3236
21.333
27.8778
33.8508
39.0698
45.6008
-132.074
-123.859
-104.129
-86.7701
-70.4032
-55.6505
-42.0719
-29.5685
-18.1065
-7.5013
2.26653
11.3184
19.6828
27.4426
34.5964
41.2135
47.3997
52.9052
57.7728
64.0488
-102.795
-94.2972
-75.2204
-58.6276
-43.1197
-29.1414
-16.2832
-4.474
6.33704
16.3338
25.5125
34.0292
41.8718
49.1611
55.8757
62.1491
67.98
72.9741
77.6098
84.3396
-71.7361
-63.2654
-44.9691
-29.59
-15.0902
-2.02786
9.90775
20.942
31.0259
40.3759
48.9926
57.0134
64.4764
71.4501
77.9885
84.2113
90.0151
95.3856
101.216
107.964
-90.1205
-55.8855
-22.8741
-3.09394
18.6049
31.4441
45.0961
54.4176
63.0229
70.0861
75.6606
81.0758
84.88
89.0269
91.7932
94.9168
97.181
98.8841
99.7899
99.8889
-84.6272
-51.6712
-18.8399
0.128468
21.5139
33.8367
47.1598
56.2007
64.5388
71.4307
76.8125
82.1039
85.7663
89.8121
92.4452
95.4856
97.6265
99.3328
100.231
100.25
-78.7079
-46.9935
-14.5864
3.42227
24.4268
36.197
49.2212
57.9865
66.0613
72.7864
77.9753
83.1377
86.6515
90.5879
93.0922
96.0433
98.0684
99.8009
100.751
100.676
-72.9026
-42.3334
-10.244
6.80466
27.493
38.7139
51.3497
59.8633
67.6388
74.1997
79.1857
84.2201
87.5862
91.4165
93.785
96.6442
98.5549
100.242
101.234
101.068
-66.5314
-37.4353
-5.8162
10.2173
30.4623
41.2217
53.4604
61.7395
69.2189
75.6209
80.4041
85.307
88.5214
92.2365
94.4686
97.232
99.0329
100.687
101.735
101.489
-59.9286
-32.4679
-1.12479
13.9052
33.5669
43.8789
55.6523
63.7054
70.858
77.1003
81.672
86.4435
89.5058
93.1099
95.2018
97.8653
99.5419
101.132
102.198
101.878
-52.7213
-27.1913
3.39132
17.5419
36.6157
46.5212
57.8263
65.6682
72.499
78.5837
82.9472
87.5831
90.4925
93.9764
95.9217
98.4786
100.041
101.581
102.618
102.264
-45.346
-21.4832
8.29915
21.4607
39.8126
49.3079
60.0829
67.7172
74.2005
80.1242
84.2729
88.7719
91.5282
94.8962
96.694
99.145
100.509
102.046
102.972
102.58
-37.2788
-15.5505
13.0743
25.3429
42.9617
52.085
62.3234
69.7611
75.9047
81.6653
85.6055
89.9631
92.5676
95.8114
97.4556
99.8012
100.996
102.454
103.298
102.898
-28.9043
-9.20948
18.22
29.4718
46.2465
54.996
64.6449
71.8843
77.6692
83.261
86.988
91.2018
93.6558
96.7795
98.2714
100.52
101.493
102.856
103.585
103.198
-19.7927
-2.62063
23.3187
33.6122
49.4978
57.9042
66.9554
74.0015
79.4382
84.8547
88.3775
92.4431
94.7487
97.745
99.0803
101.218
101.974
103.257
103.87
103.484
-10.1909
4.29832
28.7184
37.9538
52.8654
60.9289
69.3422
76.1871
81.265
86.4984
89.814
93.7285
95.8894
98.7628
99.9454
101.977
102.507
103.643
104.116
103.758
0.968364
11.6383
34.1132
42.3486
56.2134
63.9576
71.726
78.3665
83.0985
88.1386
91.2573
95.017
97.0354
99.78
100.805
102.743
103.04
104.037
104.357
104.017
12.0218
19.1288
39.757
46.9087
59.6696
67.0878
74.1863
80.606
84.9891
89.826
92.7454
96.347
98.2283
100.849
101.732
103.559
103.592
104.428
104.573
104.268
24.0602
27.0788
45.6697
51.5338
63.0854
70.2044
76.6389
82.8307
86.8824
91.5057
94.2365
97.6782
99.4248
101.921
102.647
104.429
104.148
104.83
104.775
104.51
36.9986
35.3886
51.5338
56.2883
66.5941
73.3891
79.1499
85.089
88.8148
93.2149
95.7573
99.0376
100.656
103.035
103.641
105.426
104.728
105.179
104.955
104.743
50.4499
44.1579
57.4805
61.3109
70.2458
76.6915
81.7605
87.4087
90.8064
94.9623
97.3165
100.426
101.912
104.163
104.647
106.408
105.363
105.582
105.084
104.965
63.745
52.4876
63.2032
66.0196
73.753
79.9244
84.3775
89.7422
92.8375
96.7473
98.9102
101.853
103.213
105.343
105.735
107.305
105.956
106.442
105.394
105.222
82.5306
62.2512
68.4171
69.9943
76.5195
82.5258
86.4973
91.6408
94.5364
98.2394
100.267
103.085
104.355
106.377
106.681
107.903
106.471
106.503
105.287
105.312
103.412
75.3746
76.7678
77.3205
81.5792
86.6177
89.631
94.2236
96.7314
100.119
101.965
104.567
105.706
107.602
107.825
108.853
107.416
106.004
104.283
106.046
138.332
143.949
132.721
131.182
123.059
122.475
118.769
118.804
117.28
117.852
117.152
117.651
117.188
117.923
117.193
118.32
116.696
118.606
113.455
122.003
195.819
186.974
165.007
159.68
148.42
144.435
137.96
134.812
131.004
128.866
126.99
125.99
124.976
124.458
123.616
123.611
122.136
123.12
120.745
123.242
200.661
192.791
180.413
173.722
165.627
160.861
155.752
152.449
149.072
146.611
144.072
142.359
140.787
139.565
138.552
137.653
137.081
136.497
136.577
137.045
205.16
199.856
190.251
184.554
177.189
172.178
166.749
162.694
158.69
155.601
152.616
150.047
147.666
145.79
144.191
142.881
141.934
140.983
140.856
140.71
199.635
193.212
188.363
183.687
179.357
175.29
171.611
168.3
165.234
162.615
160.143
158.102
156.133
154.307
152.82
151.13
150.075
148.483
147.687
147.612
198.229
196.303
191.689
188.331
184.279
181.037
177.368
174.443
171.232
168.663
165.911
163.637
161.285
159.321
157.296
155.585
153.944
152.6
151.756
151.461
194.029
191.233
189.032
186.44
183.918
181.383
178.966
176.62
174.339
172.23
170.088
168.198
166.173
164.399
162.496
160.701
158.944
157.038
156.011
155.426
193.656
192.547
190.316
188.439
186.301
184.436
182.163
180.335
178.065
176.295
174.078
172.359
170.192
168.495
166.354
164.574
162.457
160.541
158.958
158.259
191.679
190.601
189.529
188.224
186.625
185.215
183.592
182.159
180.504
179.087
177.363
175.957
174.092
172.647
170.544
168.948
166.483
164.521
162.182
161.437
192.306
191.501
190.325
189.427
188.219
187.238
185.89
184.852
183.407
182.329
180.782
179.661
177.951
176.746
174.746
173.359
170.754
169.204
166.31
165.704
192.126
191.735
191.103
190.459
189.567
188.874
187.95
187.226
186.273
185.534
184.516
183.763
182.601
181.811
180.349
179.467
177.248
176.533
171.682
172.146
192.653
192.331
191.77
191.472
190.858
190.494
189.842
189.441
188.785
188.384
187.711
187.347
186.633
186.317
185.412
185.204
183.747
183.989
182.667
184.611
193.59
193.523
193.196
193.04
192.712
192.571
192.283
192.191
191.954
191.93
191.83
191.844
191.983
192.007
192.565
192.562
193.721
193.648
195.728
197.712
194.107
194.127
193.932
193.962
193.772
193.842
193.703
193.885
193.809
194.137
194.193
194.733
195
195.823
196.481
197.608
199.154
200.607
204.035
204.16
195.105
195.223
195.219
195.388
195.443
195.689
195.794
196.138
196.361
196.859
197.22
197.988
198.533
199.647
200.455
202.28
203.641
205.935
207.755
211.083
195.852
195.953
195.926
196.112
196.133
196.479
196.654
197.152
197.437
198.077
198.487
199.344
199.901
201.139
201.906
203.456
204.359
206.695
207.804
218.637
196.496
196.765
196.976
197.264
197.556
197.89
198.194
198.602
198.991
199.571
200.114
200.918
201.628
202.668
203.423
204.869
205.846
207.691
208.577
211.317
196.894
197.084
197.265
197.582
197.868
198.271
198.622
199.123
199.544
200.154
200.641
201.391
201.937
202.911
203.594
204.815
205.436
207.535
208.012
210.854
197.496
197.689
197.962
198.185
198.484
198.789
199.174
199.573
200.033
200.565
201.114
201.789
202.407
203.234
203.85
204.827
205.358
206.239
206.911
207.501
197.547
197.736
197.951
198.231
198.544
198.91
199.291
199.743
200.199
200.738
201.267
201.891
202.479
203.179
203.793
204.54
205.094
205.839
206.052
208.875
305.507
304.628
303.069
300.786
297.948
294.3
290.019
285.021
279.356
273.092
265.557
256.981
248.377
238.356
228.08
217.189
206.043
194.146
182.186
169.842
278.564
278.281
277.621
276.718
275.466
273.923
272.097
269.987
267.417
264.978
260.402
255.609
251.647
247.89
244.128
239.683
235.448
230.665
224.775
218.327
240.022
239.897
239.59
239.266
238.643
238.113
237.202
236.368
235.234
234.039
232.533
231.222
229.372
227.795
225.393
222.567
219.156
216.305
213.211
211.119
228.367
228.363
228.271
228.12
227.908
227.568
227.231
226.712
226.196
225.546
224.826
224.137
223.181
222.37
221.357
219.82
217.738
215.866
213.856
212.394
211.994
211.97
211.842
211.754
211.531
211.369
211.067
210.809
210.447
210.097
209.66
209.249
208.645
208.206
207.416
206.683
205.958
205.073
203.379
202.066
206.724
206.696
206.671
206.61
206.538
206.45
206.319
206.206
205.997
205.836
205.542
205.317
204.935
204.613
204.121
203.696
203.27
202.96
202.203
201.266
200.186
200.171
200.12
200.066
199.975
199.884
199.752
199.621
199.44
199.25
199.01
198.757
198.465
198.236
197.914
197.79
197.321
196.751
195.883
195.188
197.803
197.798
197.787
197.759
197.725
197.675
197.62
197.549
197.471
197.378
197.271
197.133
196.971
196.778
196.513
196.272
196.134
195.925
195.469
195.059
195.218
195.197
195.169
195.126
195.078
195.014
194.94
194.851
194.748
194.642
194.511
194.387
194.201
194.038
193.814
193.562
193.185
192.845
192.455
192.161
194.207
194.214
194.213
194.204
194.189
194.165
194.136
194.09
194.037
193.966
193.894
193.804
193.713
193.616
193.508
193.387
193.223
193.111
192.946
192.815
193.898
193.868
193.829
193.786
193.735
193.679
193.622
193.561
193.493
193.42
193.338
193.252
193.158
193.062
192.956
192.849
192.739
192.642
192.531
192.443
193.929
193.92
193.915
193.91
193.901
193.886
193.869
193.845
193.819
193.785
193.745
193.693
193.633
193.561
193.482
193.396
193.299
193.201
193.091
192.986
194.223
194.218
194.208
194.195
194.179
194.159
194.138
194.113
194.084
194.055
194.026
194
193.973
193.948
193.921
193.892
193.859
193.823
193.78
193.738
194.62
194.621
194.619
194.615
194.609
194.601
194.589
194.576
194.559
194.54
194.519
194.494
194.468
194.439
194.408
194.376
194.34
194.307
194.266
194.231
195.23
195.233
195.236
195.237
195.238
195.238
195.237
195.236
195.233
195.231
195.226
195.222
195.215
195.209
195.2
195.191
195.18
195.171
195.158
195.146
195.691
195.698
195.705
195.713
195.722
195.731
195.742
195.753
195.765
195.778
195.791
195.807
195.822
195.838
195.848
195.852
195.855
195.859
195.861
195.863
196.195
196.2
196.206
196.211
196.216
196.219
196.221
196.224
196.226
196.229
196.232
196.236
196.241
196.248
196.264
196.288
196.313
196.34
196.369
196.404
196.48
196.482
196.49
196.499
196.517
196.538
196.561
196.587
196.612
196.638
196.663
196.687
196.709
196.729
196.747
196.764
196.778
196.793
196.808
196.829
196.872
196.884
196.897
196.909
196.915
196.924
196.935
196.947
196.962
196.979
197.001
197.026
197.056
197.089
197.127
197.166
197.21
197.257
197.314
197.372
196.952
196.966
196.98
196.997
197.014
197.033
197.053
197.076
197.1
197.126
197.154
197.183
197.215
197.245
197.279
197.312
197.346
197.38
197.415
197.453
148.339
147.496
143.785
140.288
136.97
133.43
129.747
125.821
121.641
117.129
112.235
106.899
101.093
94.6637
87.7043
79.8226
71.5105
61.9488
51.1297
44.1864
163.887
163.753
161.298
158.756
156.215
153.432
150.435
147.179
143.621
139.743
135.476
130.776
125.609
119.851
113.554
106.4
98.8274
89.8177
80.3256
74.8117
179.816
180.472
178.832
176.892
174.95
172.751
170.332
167.648
164.714
161.463
157.861
153.86
149.416
144.404
138.875
132.48
125.627
117.31
108.292
103.599
196.254
197.267
196.079
194.761
193.396
191.803
189.993
187.979
185.691
183.127
180.2
176.913
173.165
168.925
164.124
158.57
152.486
144.988
136.79
131.511
212.653
213.876
213.101
212.219
211.327
210.243
208.973
207.494
205.789
203.824
201.554
198.961
195.976
192.542
188.639
184.026
178.994
172.629
165.543
159.856
228.116
229.566
229.286
228.909
228.528
227.985
227.266
226.391
225.296
223.984
222.387
220.523
218.274
215.69
212.604
209.009
204.972
199.776
194.455
188.35
243.476
245.138
245.112
245.168
245.186
245.059
244.786
244.383
243.789
243.032
242.033
240.813
239.276
237.455
235.214
232.61
229.553
225.683
221.885
215.782
257.636
259.379
259.722
260.164
260.622
260.954
261.188
261.318
261.297
261.13
260.745
260.159
259.29
258.176
256.672
254.902
252.58
249.939
246.724
242.313
270.89
272.879
273.642
274.48
275.315
276.041
276.676
277.22
277.619
277.9
277.986
277.919
277.588
277.061
276.197
275.047
273.465
271.453
268.903
265.451
282.718
284.856
285.988
287.202
288.426
289.583
290.668
291.69
292.6
293.406
294.048
294.545
294.82
294.916
294.663
294.185
293.175
291.902
289.923
287.129
293.961
296.307
297.81
299.39
300.974
302.497
303.946
305.333
306.606
307.8
308.835
309.762
310.459
310.981
311.132
311.087
310.509
309.718
308.189
306.05
303.791
306.293
308.125
310.021
311.932
313.804
315.625
317.411
319.119
320.758
322.269
323.645
324.81
325.753
326.393
326.815
326.801
326.533
325.543
323.919
312.841
315.59
317.759
319.98
322.211
324.389
326.52
328.59
330.567
332.44
334.162
335.751
337.129
338.379
339.361
340.23
340.561
340.762
340.117
339.146
320.825
323.721
326.046
328.455
330.872
333.255
335.602
337.917
340.171
342.366
344.464
346.484
348.355
350.124
351.629
352.948
353.744
354.388
354.294
353.894
327.975
331.042
333.52
336.129
338.749
341.345
343.91
346.444
348.917
351.312
353.614
355.781
357.799
359.608
361.186
362.532
363.59
364.555
364.898
365.158
333.661
336.771
339.314
342.031
344.764
347.497
350.203
352.909
355.552
358.166
360.686
363.142
365.457
367.654
369.641
371.44
372.947
374.137
374.821
374.957
338.481
341.684
344.331
347.164
350.021
352.871
355.695
358.516
361.269
363.998
366.612
369.165
371.53
373.764
375.736
377.463
378.875
379.856
380.528
380.388
341.495
344.668
347.365
350.246
353.142
356.051
358.93
361.831
364.673
367.507
370.261
372.951
375.537
377.983
380.272
382.361
384.183
385.7
386.716
387.381
343.465
346.697
349.481
352.447
355.424
358.409
361.371
364.349
367.248
370.156
372.906
375.663
378.154
380.649
382.76
384.833
386.395
387.75
388.53
388.96
344.04
347.245
349.992
352.918
355.859
358.801
361.727
364.656
367.542
370.391
373.178
375.878
378.479
380.924
383.205
385.246
386.936
388.38
389.183
389.725
-121.668
-127.608
-133.837
-140.348
-146.939
-153.916
-160.953
-168.352
-175.905
-183.771
-191.909
-200.274
-209.007
-217.84
-227.329
-236.398
-244.861
-252.294
-254.205
-254.572
-114.901
-120.872
-127.091
-133.705
-140.36
-147.471
-154.662
-162.251
-170.045
-178.196
-186.627
-195.441
-204.602
-214.081
-224.11
-234.135
-244.244
-252.684
-255.632
-256.888
-107.838
-113.864
-120.062
-126.763
-133.5
-140.724
-148.074
-155.823
-163.837
-172.23
-180.99
-190.13
-199.698
-209.828
-220.202
-231.371
-242.876
-252.381
-258.256
-259.635
-100.251
-106.329
-112.5
-119.258
-126.044
-133.35
-140.825
-148.726
-156.926
-165.539
-174.58
-184.033
-194.069
-204.525
-215.557
-227.419
-239.598
-250.319
-259.055
-261.248
-92.1248
-98.2312
-104.346
-111.147
-117.979
-125.356
-132.947
-140.982
-149.376
-158.223
-167.511
-177.319
-187.67
-198.533
-210.146
-222.427
-235.069
-247.182
-258.685
-260.284
-83.3097
-89.4258
-95.4793
-102.285
-109.125
-116.53
-124.194
-132.315
-140.831
-149.821
-159.356
-169.4
-180.129
-191.471
-203.684
-216.568
-230.236
-244.83
-255.785
-256.665
-73.8711
-79.9803
-85.87
-92.6868
-99.493
-106.878
-114.561
-122.721
-131.318
-140.435
-150.091
-160.363
-171.318
-182.966
-195.471
-208.843
-223.461
-238.725
-250.971
-253.36
-63.7717
-69.8136
-75.5239
-82.1722
-88.8863
-96.1724
-103.806
-111.936
-120.522
-129.647
-139.373
-149.688
-160.78
-172.558
-185.238
-198.934
-213.555
-229.116
-242.388
-245.031
-52.5615
-58.5036
-64.0623
-70.5836
-77.201
-84.3706
-91.9339
-100.003
-108.551
-117.657
-127.366
-137.76
-148.915
-160.782
-173.664
-187.498
-202.467
-218.652
-232.611
-236.382
-40.1429
-46.0771
-51.4703
-57.8442
-64.3457
-71.367
-78.8038
-86.7272
-95.1485
-104.145
-113.75
-124.024
-135.095
-146.887
-159.771
-173.554
-188.619
-204.831
-219.828
-224.239
-26.4303
-32.4185
-37.7318
-43.9792
-50.3453
-57.2
-64.4726
-72.2371
-80.488
-89.3104
-98.7551
-108.887
-119.805
-131.47
-144.216
-157.807
-172.694
-188.894
-204.204
-209.25
-12.9885
-18.7274
-23.6546
-29.542
-35.6169
-42.1522
-49.1369
-56.6011
-64.5707
-73.1394
-82.2969
-92.1809
-102.828
-114.25
-126.819
-140.106
-155.099
-170.867
-186.413
-192.219
2.15728
-3.42813
-8.13827
-13.7427
-19.554
-25.8042
-32.4989
-39.6707
-47.3323
-55.5629
-64.4143
-73.9535
-84.2468
-95.349
-107.468
-120.439
-134.936
-150.432
-166.111
-172.126
17.4569
12.1175
7.80433
2.62749
-2.81308
-8.65742
-14.9568
-21.7266
-28.9931
-36.8583
-45.2834
-54.4502
-64.3253
-75.0013
-86.7473
-99.2073
-113.441
-128.279
-143.963
-150.445
34.0435
28.9328
24.9338
20.1518
15.0664
9.60047
3.68809
-2.68165
-9.53379
-16.9375
-24.9346
-33.6102
-42.9679
-53.1855
-64.2939
-76.2777
-89.912
-103.732
-119.83
-126.481
51.1393
46.2967
42.7092
38.4113
33.7372
28.7191
23.2649
17.3505
10.9573
4.00303
-3.48833
-11.6824
-20.5277
-30.1903
-40.7257
-52.152
-65.0972
-78.2381
-94.4362
-101.317
69.0838
64.5449
61.3258
57.5168
53.237
48.6349
43.6113
38.1357
32.2071
25.7567
18.7601
11.1194
2.87028
-6.21049
-16.0332
-26.8377
-38.8442
-51.074
-66.9183
-74.3249
87.7731
83.4887
80.6912
77.4234
73.5311
69.334
64.7565
59.7291
54.2511
48.2799
41.8036
34.6952
27.0104
18.5307
9.35726
-0.833231
-11.9984
-23.905
-38.6853
-45.9255
107.929
103.456
100.868
97.9992
94.4468
90.5602
86.353
81.722
76.6905
71.2062
65.2353
58.7032
51.6245
43.7972
35.3339
25.8611
15.5823
4.53989
-9.36319
-16.6174
131.809
127.411
123.739
120.429
116.824
112.911
108.814
104.412
99.6717
94.5715
89.0594
83.0407
76.5416
69.3496
61.6125
52.8827
43.6352
33.1527
20.8759
13.4649
103.357
103.129
102.362
101.761
99.0194
97.1947
93.8825
90.6907
85.9734
81.4186
74.4022
67.9152
57.7485
47.9942
32.8103
18.9931
-4.12559
-24.3958
-58.6153
-92.2102
103.143
102.958
102.249
101.66
99.0931
97.3202
94.1049
91.0226
86.4681
82.0228
75.2128
68.8768
58.9235
49.4907
34.7372
21.303
-1.30847
-20.3924
-54.0004
-85.6797
103.069
102.838
102.199
101.636
99.241
97.4781
94.3775
91.3984
86.9683
82.6047
76.0344
69.7689
60.175
50.9235
36.5862
23.764
1.75859
-16.3208
-49.1254
-78.8987
102.975
102.781
102.191
101.574
99.4161
97.6539
94.6654
91.8136
87.5526
83.3225
77.0029
70.8365
61.5355
52.5345
38.6952
26.224
5.01069
-12.2003
-44.0335
-71.6933
102.975
102.741
102.258
101.557
99.6482
97.8602
95.0121
92.2767
88.1526
84.0255
77.9272
71.889
62.9423
54.179
40.8146
28.8905
8.48938
-7.79886
-38.7121
-64.183
102.989
102.697
102.339
101.534
99.861
98.108
95.3694
92.7764
88.8311
84.8615
78.9886
73.1194
64.4384
55.9429
43.0716
31.5826
12.0124
-3.22969
-33.2095
-56.1599
103.066
102.746
102.457
101.609
100.115
98.4565
95.7685
93.3255
89.5305
85.6733
80.0159
74.3499
65.9906
57.7841
45.3987
34.4644
15.7188
1.51921
-27.3204
-47.6348
103.116
102.729
102.64
101.705
100.348
98.857
96.1718
93.9152
90.3044
86.6216
81.1642
75.741
67.6202
59.6916
47.8474
37.3476
19.5118
6.35516
-21.1501
-38.9602
103.255
102.654
102.84
101.905
100.612
99.2486
96.6169
94.5454
91.1018
87.53
82.3448
77.1266
69.3142
61.6983
50.3962
40.3642
23.4896
11.3705
-14.7079
-29.7617
103.379
102.579
103.01
102.116
100.856
99.7386
97.0495
95.2231
91.9728
88.5749
83.6338
78.6236
71.0821
63.766
53.0054
43.4338
27.5722
16.5285
-7.70728
-18.25
103.578
102.593
103.301
102.407
101.134
100.387
97.5351
95.9354
92.8696
89.5916
84.978
80.1348
72.8985
65.9185
55.7138
46.6074
31.7671
21.8108
-0.549992
-7.63888
103.784
102.605
103.542
102.685
101.41
100.972
98.0076
96.688
93.8352
90.7352
86.4132
81.7317
74.8051
68.1473
58.4643
49.8297
36.088
27.1795
7.0373
2.99715
104.023
102.565
103.753
103.047
101.706
101.687
98.5365
97.4652
94.8312
91.8682
87.901
83.3571
76.7466
70.4157
61.3027
53.1413
40.4645
32.6679
14.5541
14.8515
104.272
102.506
103.999
103.438
101.965
102.345
99.1454
98.2855
95.8991
93.1161
89.4804
85.0601
78.7859
72.7941
64.2004
56.4858
44.9657
38.2692
22.6449
26.9083
104.572
102.374
104.297
103.919
102.247
103.053
99.8879
99.145
96.9925
94.3719
91.1124
86.776
80.8461
75.1641
67.1265
59.8768
49.4608
43.8961
30.7452
39.9575
104.921
102.197
104.539
104.392
102.488
103.86
100.579
100.04
98.1258
95.72
92.8066
88.5408
82.975
77.6188
70.0981
63.2554
54.0109
49.7089
39.4908
53.5716
105.203
101.942
105.198
104.977
102.779
104.744
101.292
101.284
99.3907
97.1393
94.6067
90.3901
85.2312
80.1851
73.2624
66.8611
58.8062
55.7978
48.5845
67.7785
105.811
101.784
105.463
105.698
102.952
105.685
101.939
102.417
100.593
98.6439
96.4732
92.2844
87.5312
82.7901
76.369
70.2667
63.2291
61.3566
56.7805
81.3676
105.687
101.312
105.029
106.159
103.162
106.469
102.41
102.94
101.511
99.9676
98.0353
93.7294
89.2082
84.6662
78.3365
72.3938
66.3542
66.6849
66.2255
99.4764
106.653
99.6926
105.944
106.476
105.467
107.5
104.616
104.307
103.263
101.692
100.29
96.1491
92.326
88.222
83.0324
77.755
73.9883
76.4946
84.1753
121.102
132.528
103.345
126.878
117.984
127.468
119.739
125.328
120.013
121.307
117.586
119.278
117.422
120.825
119.242
126.157
127.04
140.755
140.582
165.35
161.927
125.249
122.681
125.594
123.053
126.82
124.329
127.712
126.53
128.743
128.665
131.044
131.652
135.774
137.887
145.154
149.708
162.715
169.799
190.895
200.636
137.777
136.793
138.008
138.61
140.191
140.428
141.985
142.271
143.844
144.818
147.326
149.526
153.574
157.358
163.618
169.38
177.983
186.076
197.921
208.234
140.657
140.523
141.306
142.008
143.322
144.609
146.255
147.853
150.145
152.504
155.397
158.53
162.454
166.64
171.794
177.552
184.817
192.05
200.755
208.962
146.771
146.736
147.746
149.44
151.132
152.712
154.625
156.401
158.585
160.747
163.378
166.276
169.54
173.209
177.157
181.708
186.285
191.615
196.864
203.128
149.66
150.084
151.156
153.025
154.583
156.703
158.588
160.803
163.063
165.562
168.199
171.023
174.026
177.383
180.827
184.731
188.482
192.767
196.108
200.072
153.867
154.57
155.933
157.992
160.076
161.955
164.098
165.94
168.138
170.11
172.393
174.606
177.017
179.488
182.016
184.701
187.308
190.411
193.094
196.1
157.062
157.769
159.69
161.718
164.038
165.859
168.039
169.828
171.94
173.801
175.925
177.947
180.085
182.277
184.396
186.887
189.018
191.016
192.647
194.512
162.179
162.702
165.187
166.666
169.151
170.586
172.643
174.017
175.83
177.264
179.025
180.427
182.045
183.5
185.053
186.422
187.97
189.665
191.157
192.621
167.671
167.827
171.129
172.028
174.452
175.525
177.305
178.395
179.926
181.019
182.344
183.481
184.824
186.127
187.512
188.8
189.834
190.798
191.589
192.385
176.39
174.793
178.392
178.522
180.347
180.901
182.121
182.72
183.769
184.427
185.412
186.138
187.081
187.709
188.43
189.075
189.934
190.717
191.542
192.23
189.826
187.979
187.452
186.994
187.257
187.186
187.482
187.62
188.021
188.267
188.74
189.089
189.65
190.09
190.783
191.218
191.649
191.959
192.353
192.646
198.651
197.668
194.816
194.522
193.033
192.7
192.053
191.789
191.619
191.488
191.607
191.627
191.892
192.011
192.273
192.422
192.727
192.918
193.236
193.413
205.087
203.891
200.929
199.375
197.979
196.768
196.025
195.199
194.811
194.286
194.113
193.816
193.77
193.632
193.683
193.696
193.806
193.887
194.022
194.086
211.403
207.494
205.246
202.649
201.314
199.794
198.899
197.848
197.295
196.583
196.252
195.79
195.609
195.326
195.238
195.077
195.059
194.979
195.007
194.971
217.471
206.034
205.427
203.645
202.801
201.217
200.522
199.411
198.82
198.075
197.612
197.11
196.776
196.442
196.222
196.015
195.883
195.76
195.694
195.619
208.428
206.501
205.839
204.263
203.469
202.255
201.537
200.59
200.004
199.271
198.812
198.261
197.914
197.503
197.221
196.941
196.749
196.553
196.429
196.299
207.891
206.171
205.603
204.268
203.518
202.581
201.886
201.111
200.489
199.868
199.342
198.851
198.424
198.057
197.753
197.469
197.248
197.054
196.916
196.783
205.945
205.324
204.758
204.08
203.569
202.751
202.186
201.479
200.945
200.344
199.882
199.387
198.997
198.598
198.247
197.929
197.646
197.411
197.224
197.103
205.734
205.166
204.683
204.04
203.444
202.793
202.188
201.578
201.008
200.464
199.952
199.489
199.059
198.683
198.372
198.084
197.848
197.632
197.429
197.25
190.462
201.327
211.566
221.442
232.487
242.182
250.189
258.634
266.075
272.673
278.981
284.383
289.443
293.685
297.342
300.311
302.617
304.334
305.369
305.787
222.4
227.512
232.476
236.919
241.391