/*--------------------------------*- C++ -*----------------------------------*\
  =========                 |
  \\      /  F ield         | OpenFOAM: The Open Source CFD Toolbox
   \\    /   O peration     | Website:  https://openfoam.org
    \\  /    A nd           | Version:  9
     \\/     M anipulation  |
\*---------------------------------------------------------------------------*/
FoamFile
{
    format      ascii;
    class       surfaceScalarField;
    location    "11";
    object      phi;
}
// * * * * * * * * * * * * * * * * * * * * * * * * * * * * * * * * * * * * * //

dimensions      [0 3 -1 0 0 0 0];

internalField   nonuniform List<scalar> 
92080
(
-0.00274636
-0.511372
0.514118
-0.0285343
-1.04249
1.06828
-0.0713862
-1.16073
1.20358
-0.114844
-1.14357
1.18703
-0.157517
-1.1241
1.16678
-0.200113
-1.10528
1.14788
-0.24263
-1.08771
1.13023
-0.284239
-1.07176
1.11337
-0.325138
-1.05658
1.09747
-0.365501
-1.04166
1.08202
-0.405643
-1.02839
1.06853
-0.445318
-1.01582
1.0555
-0.484394
-1.00401
1.04309
-0.522932
-0.992683
1.03122
-0.561195
-0.981882
1.02014
-0.59896
-0.971658
1.00942
-0.635597
-0.96188
0.998516
-0.670946
-0.951523
0.986872
-0.705636
-0.940122
0.974812
-0.93297
0.96477
-0.737436
-0.00411434
-0.507258
-0.031303
-1.01531
-0.0758597
-1.11618
-0.122228
-1.0972
-0.167328
-1.079
-0.211445
-1.06117
-0.254784
-1.04437
-0.298178
-1.02837
-0.340832
-1.01392
-0.383025
-0.999466
-0.424846
-0.986565
-0.466013
-0.974654
-0.506744
-0.963279
-0.547068
-0.952359
-0.586405
-0.942545
-0.624829
-0.933234
-0.662576
-0.924133
-0.69859
-0.915509
-0.732453
-0.906258
-0.899215
-0.766208
-0.00574418
-0.501514
-0.0367082
-0.984341
-0.0848306
-1.06805
-0.132445
-1.04959
-0.179221
-1.03223
-0.225609
-1.01478
-0.271024
-0.998954
-0.315349
-0.984042
-0.359218
-0.970052
-0.402542
-0.956141
-0.445823
-0.943284
-0.488848
-0.931629
-0.530812
-0.921316
-0.572451
-0.91072
-0.614258
-0.900739
-0.655395
-0.892097
-0.695625
-0.883902
-0.735249
-0.875885
-0.773857
-0.86765
-0.860521
-0.812552
-0.00801453
-0.493499
-0.0412426
-0.951113
-0.0894677
-1.01983
-0.138415
-1.00064
-0.186158
-0.984483
-0.233249
-0.967686
-0.280514
-0.95169
-0.327343
-0.937212
-0.372809
-0.924586
-0.417436
-0.911515
-0.461412
-0.899307
-0.505549
-0.887493
-0.549594
-0.87727
-0.59238
-0.867934
-0.634495
-0.858624
-0.676921
-0.849671
-0.719151
-0.841672
-0.760374
-0.834662
-0.800641
-0.827383
-0.820157
-0.841005
-0.00989688
-0.483602
-0.0472515
-0.913759
-0.0981895
-0.968891
-0.148834
-0.949994
-0.198677
-0.93464
-0.24715
-0.919213
-0.294455
-0.904385
-0.342313
-0.889354
-0.389811
-0.877088
-0.43624
-0.865086
-0.481985
-0.853563
-0.52699
-0.842487
-0.57207
-0.83219
-0.617462
-0.822542
-0.661923
-0.814163
-0.705062
-0.806532
-0.748614
-0.79812
-0.792375
-0.7909
-0.835091
-0.784667
-0.777667
-0.877582
-0.0099813
-0.473621
-0.052087
-0.871653
-0.102868
-0.918109
-0.153574
-0.899288
-0.203806
-0.884409
-0.253866
-0.869153
-0.303094
-0.855157
-0.351273
-0.841175
-0.399749
-0.828611
-0.447406
-0.817429
-0.494257
-0.806712
-0.540821
-0.795923
-0.58662
-0.786391
-0.632207
-0.776955
-0.678928
-0.767442
-0.724892
-0.760568
-0.769156
-0.753856
-0.813872
-0.746184
-0.858141
-0.740398
-0.733828
-0.90198
-0.0087115
-0.464909
-0.0535289
-0.826836
-0.106809
-0.864829
-0.160264
-0.845833
-0.212744
-0.831929
-0.263786
-0.818111
-0.314296
-0.804648
-0.364536
-0.790934
-0.414007
-0.779141
-0.463434
-0.768002
-0.511353
-0.758793
-0.558507
-0.748769
-0.605587
-0.739311
-0.651451
-0.731091
-0.69735
-0.721543
-0.744858
-0.71306
-0.791664
-0.70705
-0.837486
-0.700362
-0.883526
-0.694357
-0.688751
-0.928603
-0.00736988
-0.457539
-0.053322
-0.780883
-0.109186
-0.808965
-0.163502
-0.791517
-0.217383
-0.778048
-0.270073
-0.765421
-0.320894
-0.753826
-0.371276
-0.740553
-0.421729
-0.728687
-0.472059
-0.717673
-0.52228
-0.708572
-0.570618
-0.700431
-0.618693
-0.691236
-0.665864
-0.683921
-0.711852
-0.675554
-0.758026
-0.666886
-0.805265
-0.659812
-0.851977
-0.653649
-0.898411
-0.647924
-0.642435
-0.944726
-0.00517087
-0.452369
-0.0536669
-0.732387
-0.111259
-0.751373
-0.168121
-0.734655
-0.22418
-0.721989
-0.279403
-0.710198
-0.332827
-0.700403
-0.384115
-0.689265
-0.434802
-0.678
-0.485128
-0.667346
-0.535851
-0.65785
-0.585589
-0.650692
-0.634553
-0.642272
-0.682949
-0.635525
-0.72991
-0.628592
-0.77658
-0.620217
-0.823153
-0.613239
-0.870298
-0.606504
-0.917045
-0.601176
-0.596101
-0.96338
-0.00337035
-0.448998
-0.0553859
-0.680372
-0.115985
-0.690774
-0.173163
-0.677477
-0.229696
-0.665456
-0.285298
-0.654596
-0.340067
-0.645634
-0.393095
-0.636237
-0.444885
-0.626211
-0.496253
-0.615978
-0.548065
-0.606038
-0.59942
-0.599337
-0.649688
-0.592004
-0.700056
-0.585157
-0.748213
-0.580435
-0.795223
-0.573207
-0.841945
-0.566518
-0.888323
-0.560126
-0.935165
-0.554334
-0.549689
-0.981577
-0.00681396
-0.442184
-0.0614112
-0.625775
-0.122416
-0.629769
-0.180919
-0.618974
-0.238348
-0.608026
-0.295136
-0.597808
-0.350615
-0.590156
-0.404331
-0.582521
-0.456156
-0.574385
-0.505957
-0.566178
-0.556744
-0.55525
-0.608536
-0.547546
-0.659554
-0.540986
-0.711481
-0.53323
-0.763577
-0.528339
-0.813194
-0.52359
-0.862172
-0.51754
-0.910128
-0.512169
-0.958133
-0.50633
-0.502062
-1.00576
-0.0137517
-0.428433
-0.0698486
-0.569678
-0.13058
-0.569038
-0.189191
-0.560364
-0.246391
-0.550826
-0.303388
-0.54081
-0.3604
-0.533144
-0.415963
-0.526957
-0.471282
-0.519067
-0.523221
-0.514238
-0.572346
-0.506126
-0.622585
-0.497307
-0.671948
-0.491622
-0.720758
-0.48442
-0.771288
-0.477808
-0.821617
-0.473261
-0.870918
-0.468239
-0.919324
-0.463763
-0.96745
-0.458204
-0.453716
-1.0158
-0.0220492
-0.406383
-0.0797154
-0.512011
-0.140599
-0.508155
-0.1985
-0.502462
-0.255012
-0.494314
-0.310762
-0.485059
-0.36757
-0.476336
-0.422067
-0.47246
-0.476796
-0.464338
-0.532533
-0.458501
-0.584913
-0.453746
-0.636403
-0.445817
-0.688073
-0.439952
-0.737779
-0.434715
-0.787318
-0.428269
-0.837478
-0.423101
-0.887878
-0.41784
-0.937746
-0.413894
-0.986545
-0.409406
-0.404537
-1.03572
-0.0300815
-0.376302
-0.0874794
-0.454614
-0.147525
-0.448109
-0.206932
-0.443055
-0.263783
-0.437463
-0.31833
-0.430513
-0.375327
-0.419339
-0.432488
-0.415299
-0.485949
-0.410877
-0.539933
-0.404518
-0.592831
-0.400848
-0.64322
-0.395427
-0.693887
-0.389285
-0.743733
-0.384869
-0.792254
-0.379749
-0.840486
-0.374869
-0.888376
-0.369951
-0.937105
-0.365165
-0.984435
-0.362076
-0.357755
-1.03122
-0.0357813
-0.340521
-0.0930335
-0.397361
-0.152769
-0.388374
-0.21218
-0.383643
-0.270559
-0.379084
-0.324244
-0.376827
-0.376358
-0.367225
-0.432492
-0.359165
-0.48865
-0.354719
-0.544213
-0.348955
-0.600352
-0.344708
-0.654217
-0.341563
-0.70649
-0.337011
-0.758871
-0.332488
-0.80964
-0.328979
-0.859972
-0.324537
-0.908922
-0.321
-0.957737
-0.31635
-1.00704
-0.312769
-0.31004
-1.05476
-0.0427486
-0.297772
-0.102799
-0.337311
-0.163503
-0.32767
-0.223912
-0.323234
-0.28669
-0.316307
-0.346599
-0.316918
-0.399783
-0.314042
-0.451499
-0.307449
-0.503729
-0.30249
-0.555488
-0.297196
-0.608847
-0.291349
-0.66323
-0.28718
-0.715725
-0.284516
-0.76784
-0.280373
-0.819437
-0.277382
-0.869848
-0.274126
-0.920045
-0.270804
-0.968756
-0.267639
-1.01806
-0.263462
-0.26031
-1.06779
-0.044236
-0.253536
-0.102614
-0.278933
-0.15957
-0.270714
-0.214904
-0.2679
-0.271879
-0.259332
-0.333901
-0.254896
-0.393712
-0.254231
-0.449977
-0.251183
-0.504643
-0.247824
-0.556565
-0.245274
-0.606706
-0.241208
-0.657883
-0.236004
-0.710132
-0.232267
-0.761275
-0.22923
-0.812984
-0.225672
-0.864011
-0.223099
-0.91449
-0.220324
-0.964251
-0.217878
-1.01239
-0.215321
-0.212016
-1.06069
-0.055588
-0.197948
-0.119242
-0.215279
-0.180417
-0.209539
-0.239482
-0.208836
-0.293762
-0.205052
-0.348617
-0.200041
-0.405579
-0.197269
-0.462193
-0.194569
-0.518892
-0.191125
-0.575118
-0.189048
-0.629012
-0.187313
-0.679874
-0.185142
-0.730634
-0.181507
-0.781272
-0.178593
-0.830959
-0.175986
-0.881059
-0.172999
-0.930728
-0.170655
-0.980377
-0.168229
-1.02941
-0.166288
-0.164133
-1.07729
-0.0617697
-0.136178
-0.11718
-0.159869
-0.174575
-0.152144
-0.233799
-0.149612
-0.289031
-0.14982
-0.34334
-0.145732
-0.397574
-0.143034
-0.452969
-0.139174
-0.506609
-0.137486
-0.561309
-0.134348
-0.616499
-0.132123
-0.670683
-0.130958
-0.723089
-0.1291
-0.774767
-0.126914
-0.825971
-0.124782
-0.876034
-0.122936
-0.925783
-0.120906
-0.975155
-0.118857
-1.02431
-0.117136
-0.115004
-1.07344
-0.0614467
-0.0747314
-0.123561
-0.0977543
-0.179385
-0.0963197
-0.237791
-0.0912063
-0.295145
-0.0924654
-0.352761
-0.0881166
-0.408525
-0.0872702
-0.462789
-0.0849102
-0.516473
-0.0838015
-0.569282
-0.0815389
-0.621397
-0.0800075
-0.674648
-0.0777077
-0.727271
-0.0764772
-0.779129
-0.075056
-0.830422
-0.0734896
-0.88123
-0.0721283
-0.931022
-0.0711139
-0.980107
-0.0697713
-1.02841
-0.0688337
-1.07578
-0.0676355
0.0496243
-0.00397506
-0.0456492
0.166904
-0.269259
0.15198
0.354684
-0.820929
0.633149
0.484111
-1.23703
1.1076
0.5406
-1.41134
1.35485
0.560024
-1.45441
1.43499
0.567005
-1.4574
1.45042
0.569144
-1.45085
1.44871
0.568928
-1.43955
1.43977
0.569488
-1.43063
1.43007
0.56976
-1.42253
1.42226
0.569813
-1.41498
1.41493
0.569057
-1.40743
1.40819
0.567503
-1.39936
1.40092
0.565253
-1.39189
1.39414
0.5625
-1.38314
1.3859
0.558734
-1.37522
1.37898
0.554286
-1.36429
1.36874
0.548666
-1.35359
1.35921
-1.33821
0.543424
1.34345
0.0469342
-0.0509093
0.181369
-0.403694
0.334651
-0.97421
0.42573
-1.32811
0.461429
-1.44704
0.473207
-1.46619
0.479074
-1.46326
0.48025
-1.45203
0.481678
-1.44098
0.482478
-1.43143
0.482467
-1.42252
0.481475
-1.41399
0.479717
-1.40568
0.477685
-1.39733
0.475048
-1.38925
0.471853
-1.37995
0.467973
-1.37134
0.463335
-1.35965
0.457554
-1.3478
-1.33284
0.452177
0.0473856
-0.0982948
0.18073
-0.537038
0.305041
-1.09852
0.372439
-1.39551
0.395636
-1.47024
0.404186
-1.47474
0.407113
-1.46619
0.407757
-1.45267
0.407836
-1.44106
0.407103
-1.4307
0.405479
-1.42089
0.403372
-1.41188
0.400862
-1.40317
0.397602
-1.39407
0.393535
-1.38518
0.388881
-1.3753
0.383202
-1.36566
0.376625
-1.35307
0.36936
-1.34054
-1.326
0.362526
0.0455983
-0.143893
0.164938
-0.656377
0.265302
-1.19889
0.310919
-1.44113
0.324376
-1.48369
0.330199
-1.48056
0.330792
-1.46678
0.331193
-1.45307
0.330931
-1.4408
0.329714
-1.42948
0.327809
-1.41899
0.325037
-1.40911
0.321226
-1.39936
0.316916
-1.38976
0.311844
-1.38011
0.306106
-1.36956
0.299764
-1.35932
0.293088
-1.3464
0.285755
-1.33321
-1.3189
0.278655
0.0474842
-0.191377
0.152515
-0.761408
0.231475
-1.27784
0.261791
-1.47144
0.270121
-1.49202
0.272122
-1.48256
0.271281
-1.46594
0.269948
-1.45174
0.267351
-1.4382
0.263805
-1.42593
0.259164
-1.41435
0.25385
-1.4038
0.248238
-1.39374
0.241878
-1.3834
0.235011
-1.37324
0.227762
-1.36231
0.21979
-1.35134
0.211097
-1.3377
0.201981
-1.32409
-1.31
0.19308
0.0518238
-0.243201
0.137241
-0.846825
0.196782
-1.33739
0.214207
-1.48887
0.216742
-1.49456
0.214189
-1.48001
0.211055
-1.46281
0.207149
-1.44783
0.202681
-1.43373
0.197522
-1.42078
0.191958
-1.40878
0.185783
-1.39762
0.178824
-1.38678
0.17149
-1.37607
0.163341
-1.36509
0.154548
-1.35351
0.145347
-1.34214
0.13592
-1.32828
0.125913
-1.31408
-1.30008
0.115991
0.0525926
-0.295794
0.12282
-0.917053
0.165426
-1.37999
0.172456
-1.4959
0.170655
-1.49276
0.165299
-1.47465
0.1599
-1.45741
0.153851
-1.44178
0.14695
-1.42683
0.139297
-1.41312
0.130676
-1.40016
0.121494
-1.38844
0.111968
-1.37726
0.10179
-1.36589
0.0914477
-1.35475
0.0809824
-1.34305
0.0701294
-1.33129
0.0590495
-1.3172
0.0477386
-1.30277
-1.28858
0.0362386
0.0425965
-0.33839
0.0994634
-0.97392
0.130759
-1.41129
0.132494
-1.49763
0.126857
-1.48712
0.11925
-1.46705
0.111135
-1.44929
0.102357
-1.43301
0.0930373
-1.41751
0.0831967
-1.40328
0.0730826
-1.39005
0.0624115
-1.37777
0.0513735
-1.36622
0.0400638
-1.35458
0.0280378
-1.34272
0.0155406
-1.33055
0.00295627
-1.31871
-0.00986162
-1.30438
-0.0228854
-1.28975
-1.27555
-0.0359178
0.0374325
-0.375823
0.0883456
-1.02483
0.105092
-1.42803
0.0995626
-1.4921
0.0892075
-1.47677
0.0784772
-1.45632
0.0673641
-1.43818
0.0557785
-1.42142
0.043739
-1.40547
0.0312013
-1.39074
0.0180167
-1.37686
0.00456188
-1.36432
-0.0092896
-1.35237
-0.0234398
-1.34043
-0.0374745
-1.32869
-0.0515472
-1.31648
-0.0658294
-1.30442
-0.0799118
-1.2903
-0.0943477
-1.27531
-1.26087
-0.109027
0.0275438
-0.403367
0.0639449
-1.06123
0.0751176
-1.43921
0.0664967
-1.48348
0.0542846
-1.46455
0.0414716
-1.4435
0.0277502
-1.42446
0.0136968
-1.40737
-0.000872793
-1.3909
-0.0158191
-1.3758
-0.0311128
-1.36157
-0.0469663
-1.34846
-0.0628699
-1.33646
-0.0791113
-1.32419
-0.0957289
-1.31207
-0.112362
-1.29985
-0.128827
-1.28796
-0.145098
-1.27403
-0.16131
-1.2591
-1.24443
-0.177744
0.0285733
-0.43194
0.0587994
-1.09146
0.0575418
-1.43795
0.04285
-1.46879
0.0254464
-1.44715
0.00827054
-1.42633
-0.00901201
-1.40718
-0.0266682
-1.38971
-0.0443509
-1.37322
-0.0622111
-1.35794
-0.0801982
-1.34358
-0.0982933
-1.33037
-0.11669
-1.31807
-0.134999
-1.30588
-0.153318
-1.29375
-0.171845
-1.28132
-0.190255
-1.26955
-0.208253
-1.25603
-0.226279
-1.24107
-1.2265
-0.244212
0.0211608
-0.453101
0.0417858
-1.11209
0.0350272
-1.43119
0.0165433
-1.45031
-0.00248389
-1.42812
-0.0218285
-1.40698
-0.0416398
-1.38737
-0.0614918
-1.36986
-0.0817668
-1.35295
-0.102307
-1.3374
-0.123228
-1.32266
-0.144453
-1.30914
-0.16562
-1.2969
-0.186935
-1.28456
-0.20799
-1.2727
-0.228769
-1.26054
-0.249388
-1.24893
-0.269434
-1.23598
-0.289262
-1.22125
-1.20637
-0.309395
0.0190022
-0.472103
0.0333055
-1.12639
0.0200447
-1.41793
-0.00240693
-1.42786
-0.0260349
-1.40449
-0.0493196
-1.3837
-0.0726956
-1.36399
-0.0962341
-1.34632
-0.119504
-1.32968
-0.142677
-1.31423
-0.165694
-1.29964
-0.188949
-1.28589
-0.21236
-1.27349
-0.235795
-1.26113
-0.259445
-1.24905
-0.283057
-1.23693
-0.306345
-1.22564
-0.329061
-1.21327
-0.351054
-1.19925
-1.18456
-0.372857
0.0139625
-0.486065
0.0207484
-1.13317
0.00156584
-1.39875
-0.0241134
-1.40218
-0.0494329
-1.37918
-0.0750215
-1.35811
-0.100627
-1.33838
-0.126322
-1.32063
-0.152313
-1.30369
-0.178399
-1.28814
-0.204581
-1.27346
-0.230676
-1.25979
-0.256705
-1.24746
-0.282454
-1.23538
-0.307859
-1.22364
-0.333333
-1.21145
-0.358644
-1.20033
-0.383269
-1.18864
-0.407657
-1.17487
-1.1604
-0.431818
0.0117653
-0.497831
0.0135507
-1.13496
-0.00965169
-1.37554
-0.038713
-1.37312
-0.0681487
-1.34974
-0.0970642
-1.32919
-0.126051
-1.3094
-0.15493
-1.29175
-0.183573
-1.27504
-0.212092
-1.25962
-0.240516
-1.24504
-0.269258
-1.23105
-0.297997
-1.21872
-0.326844
-1.20653
-0.355276
-1.19521
-0.383254
-1.18347
-0.411206
-1.17238
-0.43802
-1.16183
-0.463285
-1.1496
-1.1352
-0.488493
0.00782918
-0.50566
0.0037416
-1.13087
-0.0246881
-1.34711
-0.0567143
-1.34109
-0.0881815
-1.31827
-0.119723
-1.29765
-0.150872
-1.27825
-0.182085
-1.26053
-0.213259
-1.24387
-0.244291
-1.22859
-0.274949
-1.21438
-0.305471
-1.20053
-0.336085
-1.18811
-0.366536
-1.17608
-0.397264
-1.16449
-0.427709
-1.15303
-0.458183
-1.1419
-0.488573
-1.13144
-0.51736
-1.12081
-1.10714
-0.545417
0.00582935
-0.511489
-0.00260842
-1.12243
-0.0343187
-1.3154
-0.0691291
-1.30628
-0.103474
-1.28393
-0.137291
-1.26384
-0.171206
-1.24433
-0.204944
-1.2268
-0.238753
-1.21006
-0.272645
-1.1947
-0.306428
-1.1806
-0.340038
-1.16692
-0.373536
-1.15461
-0.406759
-1.14286
-0.439409
-1.13184
-0.472012
-1.12043
-0.50438
-1.10954
-0.536512
-1.0993
-0.567364
-1.08996
-1.07733
-0.597175
0.00238982
-0.513879
-0.0116852
-1.10836
-0.045957
-1.28113
-0.0835534
-1.26868
-0.120531
-1.24695
-0.157253
-1.22711
-0.193156
-1.20843
-0.228885
-1.19107
-0.2642
-1.17475
-0.299429
-1.15947
-0.334458
-1.14557
-0.369608
-1.13177
-0.404893
-1.11933
-0.440456
-1.10729
-0.476051
-1.09624
-0.511204
-1.08527
-0.54663
-1.07411
-0.582131
-1.0638
-0.617086
-1.05501
-1.04424
-0.650177
0.000888432
-0.514767
-0.0176407
-1.08983
-0.0551361
-1.24364
-0.094246
-1.22957
-0.132876
-1.20832
-0.171199
-1.18879
-0.209724
-1.16991
-0.248
-1.15279
-0.286318
-1.13643
-0.324533
-1.12125
-0.362306
-1.10779
-0.399641
-1.09443
-0.436955
-1.08201
-0.473958
-1.07029
-0.511165
-1.05903
-0.548293
-1.04815
-0.585606
-1.0368
-0.623537
-1.02587
-0.662549
-1.016
-1.00708
-0.699701
-0.000648912
-0.0221977
-0.0622492
-0.104795
-0.146339
-0.187252
-0.226932
-0.266354
-0.305309
-0.344538
-0.383805
-0.422739
-0.461667
-0.500736
-0.539625
-0.578348
-0.616628
-0.65563
-0.696813
-0.739128
0.439724
-11.6973
11.801
0.349344
-11.2062
11.2966
0.274325
-10.9659
11.041
0.217925
-10.7191
10.7755
0.169065
-10.4805
10.5294
0.131285
-10.262
10.2998
0.10018
-10.0689
10.1
0.0750848
-9.91535
9.94044
0.0546391
-9.76818
9.78863
0.0385532
-9.64721
9.6633
0.0263205
-9.55455
9.56678
0.0170125
-9.47325
9.48256
0.00981666
-9.41039
9.41758
0.00454612
-9.3493
9.35457
0.000771532
-9.30151
9.30528
-0.00041363
-9.22548
9.22666
0.00125705
-8.95895
8.95728
0.00109993
-7.96524
7.9654
-0.00344627
-5.65014
5.65468
-2.4221
2.41865
0.347083
-11.5922
0.266872
-11.126
0.202777
-10.9018
0.150618
-10.6669
0.104843
-10.4347
0.0704756
-10.2276
0.0429222
-10.0414
0.0215631
-9.89399
0.00546448
-9.75209
-0.00635767
-9.63539
-0.0141576
-9.54675
-0.0190755
-9.46833
-0.0218403
-9.40762
-0.0226911
-9.34845
-0.0218391
-9.30236
-0.018187
-9.22913
-0.0114221
-8.96572
-0.00588386
-7.97078
-0.00614864
-5.64987
-2.42825
0.262143
-11.4919
0.177246
-11.0411
0.110143
-10.8347
0.0627286
-10.6195
0.0229994
-10.395
-0.00474091
-10.1999
-0.0261099
-10.02
-0.041535
-9.87856
-0.0518243
-9.7418
-0.0581015
-9.62911
-0.0604434
-9.54441
-0.059992
-9.46878
-0.0574172
-9.4102
-0.052978
-9.35289
-0.0468468
-9.30849
-0.0375388
-9.23844
-0.0244179
-8.97884
-0.0121397
-7.98306
-0.00800375
-5.65401
-2.43625
0.175777
-11.389
0.100106
-10.9654
0.0409225
-10.7756
-0.00305042
-10.5755
-0.0403108
-10.3577
-0.06499
-10.1752
-0.0827199
-10.0023
-0.0945035
-9.86678
-0.100565
-9.73573
-0.102698
-9.62698
-0.10075
-9.54636
-0.0959765
-9.47356
-0.0890537
-9.41712
-0.0802439
-9.3617
-0.0694064
-9.31933
-0.055141
-9.2527
-0.0367705
-8.99721
-0.0189868
-8.00084
-0.0100318
-5.66296
-2.44628
0.0909437
-11.2869
0.0103391
-10.8848
-0.0505233
-10.7147
-0.090188
-10.5359
-0.120738
-10.3272
-0.139342
-10.1566
-0.151031
-9.99058
-0.157011
-9.8608
-0.157377
-9.73537
-0.15407
-9.63029
-0.146764
-9.55366
-0.136739
-9.48358
-0.124561
-9.4293
-0.110421
-9.37584
-0.0942694
-9.33548
-0.0744337
-9.27254
-0.0496373
-9.022
-0.0252061
-8.02527
-0.0108106
-5.67736
-2.45709
0.00962492
-11.1805
-0.0621638
-10.813
-0.117
-10.6599
-0.155116
-10.4977
-0.182948
-10.2994
-0.198586
-10.141
-0.206767
-9.9824
-0.20915
-9.85842
-0.20544
-9.73908
-0.1981
-9.63763
-0.186648
-9.56512
-0.172403
-9.49783
-0.15595
-9.44575
-0.13745
-9.39434
-0.116715
-9.35621
-0.0921231
-9.29713
-0.0619202
-9.05221
-0.0316153
-8.05558
-0.0111518
-5.69782
-2.46825
-0.0714287
-11.0728
-0.151108
-10.7334
-0.206243
-10.6047
-0.239774
-10.4642
-0.26153
-10.2776
-0.271381
-10.1311
-0.273812
-9.97997
-0.270565
-9.86166
-0.261337
-9.74831
-0.248661
-9.6503
-0.231976
-9.5818
-0.212555
-9.51725
-0.190906
-9.4674
-0.167165
-9.41808
-0.141244
-9.38213
-0.110987
-9.32739
-0.0744326
-9.08876
-0.0378722
-8.09214
-0.0105607
-5.72513
-2.47881
-0.146818
-10.9619
-0.219125
-10.661
-0.270536
-10.5533
-0.302974
-10.4318
-0.32235
-10.2582
-0.329489
-10.124
-0.328402
-9.98106
-0.321605
-9.86846
-0.308463
-9.76145
-0.291828
-9.66694
-0.271099
-9.60253
-0.247528
-9.54082
-0.221668
-9.49326
-0.193651
-9.44609
-0.163331
-9.41245
-0.128588
-9.36213
-0.0867156
-9.13063
-0.044099
-8.13475
-0.0105201
-5.75871
-2.48933
-0.224563
-10.8464
-0.30487
-10.5807
-0.356738
-10.5014
-0.384913
-10.4036
-0.39836
-10.2448
-0.400151
-10.1222
-0.393631
-9.98758
-0.381444
-9.88065
-0.363016
-9.77988
-0.34116
-9.68879
-0.315345
-9.62835
-0.286703
-9.56946
-0.255784
-9.52418
-0.222737
-9.47914
-0.187359
-9.44783
-0.147471
-9.40202
-0.0995126
-9.17859
-0.0504495
-8.18382
-0.0112354
-5.79793
-2.50056
-0.295753
-10.7284
-0.368938
-10.5076
-0.418721
-10.4517
-0.446305
-10.376
-0.457665
-10.2334
-0.456858
-10.123
-0.446816
-9.99762
-0.431115
-9.89635
-0.408946
-9.80205
-0.383225
-9.71451
-0.353496
-9.65807
-0.320836
-9.60212
-0.285815
-9.5592
-0.248603
-9.51635
-0.208939
-9.4875
-0.164884
-9.44608
-0.111934
-9.23154
-0.0569929
-8.23876
-0.0122013
-5.84272
-2.51276
-0.370382
-10.6022
-0.45148
-10.4265
-0.501166
-10.402
-0.52478
-10.3524
-0.530483
-10.2277
-0.524807
-10.1287
-0.509732
-10.0127
-0.488935
-9.91715
-0.46174
-9.82924
-0.430966
-9.74529
-0.396362
-9.69268
-0.35883
-9.63965
-0.318939
-9.59909
-0.276887
-9.55841
-0.232227
-9.53216
-0.18304
-9.49526
-0.124518
-9.29006
-0.0635737
-8.2997
-0.0132157
-5.89308
-2.52598
-0.435806
-10.4758
-0.51078
-10.3515
-0.560359
-10.3524
-0.584185
-10.3286
-0.588101
-10.2238
-0.579787
-10.137
-0.561212
-10.0313
-0.536965
-9.94139
-0.506201
-9.86001
-0.471685
-9.7798
-0.433307
-9.73106
-0.391919
-9.68104
-0.348069
-9.64294
-0.302012
-9.60446
-0.25325
-9.58092
-0.200229
-9.54828
-0.136923
-9.35337
-0.0700637
-8.36656
-0.0143142
-5.94882
-2.54029
-0.508335
-10.3403
-0.590382
-10.2694
-0.638419
-10.3044
-0.658457
-10.3085
-0.657204
-10.2251
-0.644544
-10.1497
-0.621386
-10.0544
-0.592353
-9.97043
-0.556831
-9.89553
-0.517475
-9.81916
-0.474448
-9.77408
-0.428405
-9.72708
-0.379919
-9.69142
-0.329262
-9.65512
-0.275668
-9.63451
-0.217757
-9.60619
-0.149354
-9.42177
-0.0768477
-8.43907
-0.0156133
-6.01006
-2.55591
-0.56983
-10.2023
-0.645568
-10.1937
-0.694536
-10.2554
-0.715509
-10.2876
-0.712799
-10.2278
-0.697422
-10.165
-0.670843
-10.081
-0.638463
-10.0028
-0.599542
-9.93445
-0.556576
-9.86213
-0.509903
-9.82076
-0.460146
-9.77684
-0.407878
-9.74369
-0.353453
-9.70954
-0.29624
-9.69173
-0.234676
-9.66776
-0.16155
-9.4949
-0.0834893
-8.51713
-0.0169459
-6.0766
-2.57285
-0.639847
-10.0509
-0.722177
-10.1114
-0.767501
-10.2101
-0.784936
-10.2701
-0.77777
-10.2349
-0.758632
-10.1842
-0.727912
-10.1117
-0.691041
-10.0397
-0.64765
-9.97784
-0.600114
-9.90966
-0.549032
-9.87184
-0.49485
-9.83102
-0.43819
-9.80035
-0.379423
-9.76831
-0.317716
-9.75343
-0.251661
-9.73381
-0.173856
-9.5727
-0.0903501
-8.60063
-0.0183428
-6.14861
-2.5912
-0.694876
-9.90149
-0.773927
-10.0323
-0.821555
-10.1624
-0.839575
-10.2521
-0.830999
-10.2435
-0.809086
-10.2061
-0.775098
-10.1457
-0.735003
-10.0798
-0.688366
-10.0245
-0.637372
-9.96066
-0.582803
-9.92641
-0.525085
-9.88874
-0.464809
-9.86063
-0.402457
-9.83066
-0.337674
-9.81822
-0.268336
-9.80315
-0.185972
-9.65507
-0.0971537
-8.68945
-0.0198017
-6.22596
-2.611
-0.763676
-9.73499
-0.846163
-9.94983
-0.888575
-10.12
-0.903397
-10.2373
-0.891259
-10.2556
-0.866253
-10.2311
-0.828629
-10.1833
-0.78436
-10.124
-0.73359
-10.0752
-0.678351
-10.0159
-0.61966
-9.9851
-0.557818
-9.95058
-0.493455
-9.92499
-0.42693
-9.89719
-0.357936
-9.88721
-0.284777
-9.87631
-0.198216
-9.74163
-0.104066
-8.7836
-0.0212503
-6.30878
-2.63225
-0.815913
-9.56925
-0.896154
-9.86959
-0.940282
-10.0759
-0.955582
-10.222
-0.941869
-10.2694
-0.913921
-10.259
-0.873218
-10.224
-0.825852
-10.1714
-0.771995
-10.1291
-0.713472
-10.0744
-0.651476
-10.0471
-0.586286
-10.0158
-0.518513
-9.99276
-0.448629
-9.96707
-0.376684
-9.95915
-0.300807
-9.95219
-0.210297
-9.83214
-0.110633
-8.88326
-0.0226086
-6.3968
-2.65486
-0.876013
-9.39294
-0.965176
-9.78043
-1.00424
-10.0368
-1.01617
-10.2101
-0.999129
-10.2864
-0.968159
-10.29
-0.92392
-10.2683
-0.872452
-10.2229
-0.814612
-10.1869
-0.752058
-10.137
-0.686114
-10.113
-0.617008
-10.0849
-0.545385
-10.0644
-0.471689
-10.0408
-0.395579
-10.0353
-0.316408
-10.0314
-0.222149
-9.9264
-0.117681
-8.98773
-0.024382
-6.4901
-2.67924
-0.914935
-9.21713
-1.00918
-9.68618
-1.04793
-9.99808
-1.06061
-10.1974
-1.04399
-10.303
-1.011
-10.323
-0.965036
-10.3142
-0.91072
-10.2772
-0.85038
-10.2473
-0.784622
-10.2027
-0.715753
-10.1819
-0.643396
-10.1572
-0.568776
-10.139
-0.491938
-10.1176
-0.413202
-10.114
-0.331549
-10.113
-0.233474
-10.0245
-0.124333
-9.09687
-0.026033
-6.5884
-2.70527
8.64632
-8.39795
-9.46551
7.56601
-8.60587
6.60816
-9.04023
5.67902
-9.26823
4.85609
-9.4801
4.11315
-9.58006
3.47423
-9.67532
2.92145
-9.72441
2.44017
-9.766
2.03226
-9.79483
1.68549
-9.83513
1.38743
-9.85918
1.12625
-9.87783
0.896168
-9.88752
0.693725
-9.91156
0.502386
-9.92167
0.347571
-9.86966
0.226996
-8.9763
0.118017
-6.47942
-2.58725
5.13458
-8.03164
-5.50088
4.76252
-8.23381
4.33866
-8.61637
3.8785
-8.80807
3.42446
-9.02607
3.00557
-9.16117
2.62429
-9.29404
2.28349
-9.38361
1.98359
-9.46611
1.72204
-9.53327
1.47915
-9.59225
1.25327
-9.63329
1.04098
-9.66555
0.848788
-9.69533
0.666146
-9.72892
0.497458
-9.75298
0.306036
-9.67824
0.15273
-8.82299
-0.0107599
-6.31593
-2.59801
3.78588
-7.97012
-3.8474
3.72917
-8.17711
3.5324
-8.4196
3.30634
-8.58201
3.04363
-8.76335
2.78217
-8.89972
2.51227
-9.02413
2.24821
-9.11955
1.99119
-9.20909
1.74186
-9.28394
1.49497
-9.34536
1.25581
-9.39413
1.03126
-9.44101
0.827933
-9.492
0.627374
-9.52836
0.437449
-9.56306
0.275392
-9.51618
0.158459
-8.70606
0.0554388
-6.21291
-2.54257
2.53105
-8.02956
-2.4716
2.52406
-8.17012
2.4358
-8.33134
2.32889
-8.4751
2.18583
-8.62029
2.02281
-8.7367
1.84426
-8.84558
1.66137
-8.93666
1.47441
-9.02214
1.28955
-9.09908
1.11198
-9.16778
0.947434
-9.22959
0.796804
-9.29037
0.652245
-9.34744
0.511938
-9.38805
0.376603
-9.42772
0.231925
-9.3715
0.143659
-8.61779
0.0847519
-6.15401
-2.45782
1.89769
-8.0907
-1.83655
1.92347
-8.1959
1.92277
-8.33063
1.87974
-8.43207
1.79329
-8.53384
1.68567
-8.62908
1.56011
-8.72002
1.42581
-8.80236
1.28493
-8.88125
1.14003
-8.95418
0.992242
-9.01999
0.844889
-9.08224
0.694457
-9.13994
0.538779
-9.19176
0.393113
-9.24238
0.255799
-9.29041
0.136753
-9.25246
0.0856686
-8.56671
0.0664642
-6.1348
-2.39136
1.43934
-8.14167
-1.38838
1.46796
-8.22452
1.44661
-8.30928
1.41038
-8.39584
1.34891
-8.47238
1.26786
-8.54802
1.1722
-8.62437
1.06683
-8.69698
0.955392
-8.76981
0.835746
-8.83454
0.71524
-8.89948
0.593019
-8.96002
0.471276
-9.0182
0.352558
-9.07304
0.238451
-9.12828
0.126216
-9.17818
0.0168325
-9.14307
-0.000573706
-8.5493
0.0562362
-6.19161
-2.33512
1.12139
-8.16956
-1.0935
1.12648
-8.22962
1.11536
-8.29816
1.0823
-8.36277
1.03823
-8.42831
0.982675
-8.49246
0.915295
-8.55699
0.837429
-8.61912
0.74894
-8.68133
0.650863
-8.73646
0.546788
-8.79541
0.437001
-8.85023
0.324715
-8.90591
0.210056
-8.95838
0.0903824
-9.0086
-0.029244
-9.05855
-0.123187
-9.04913
-0.117987
-8.5545
0.0149011
-6.3245
-2.32022
0.913567
-8.18959
-0.893536
0.918236
-8.23429
0.904895
-8.28482
0.872413
-8.33029
0.826636
-8.38253
0.7675
-8.43333
0.700086
-8.48958
0.620576
-8.53961
0.533539
-8.59429
0.440495
-8.64342
0.343159
-8.69807
0.239716
-8.74679
0.136046
-8.80224
0.0295427
-8.85188
-0.0742482
-8.90481
-0.179818
-8.95298
-0.271188
-8.95776
-0.258332
-8.56736
-0.0533399
-6.52949
-2.37356
0.714688
-8.18902
-0.715253
0.702708
-8.2223
0.680015
-8.26213
0.649118
-8.2994
0.609355
-8.34277
0.56011
-8.38408
0.500301
-8.42977
0.429988
-8.46929
0.350756
-8.51506
0.265452
-8.55811
0.172422
-8.60504
0.0743527
-8.64872
-0.0286839
-8.69921
-0.13702
-8.74354
-0.245716
-8.79612
-0.355353
-8.84334
-0.448937
-8.86418
-0.448068
-8.56823
-0.172501
-6.80506
-2.54606
0.595885
-8.17972
-0.605186
0.580774
-8.20719
0.555158
-8.23651
0.519677
-8.26392
0.477423
-8.30052
0.424325
-8.33098
0.360348
-8.36579
0.290051
-8.399
0.210921
-8.43593
0.123371
-8.47056
0.0289486
-8.51062
-0.0720851
-8.54768
-0.181868
-8.58942
-0.300806
-8.6246
-0.424562
-8.67236
-0.556711
-8.71119
-0.672981
-8.74791
-0.696586
-8.54462
-0.368482
-7.13316
-2.91454
0.472645
-8.16033
-0.492036
0.444322
-8.17887
0.410883
-8.20307
0.371637
-8.22467
0.322559
-8.25144
0.265658
-8.27408
0.202402
-8.30253
0.131555
-8.32815
0.0569016
-8.36127
-0.027819
-8.38584
-0.119996
-8.41844
-0.222935
-8.44474
-0.334429
-8.47793
-0.453046
-8.50599
-0.58116
-8.54425
-0.722219
-8.57013
-0.867431
-8.60269
-0.915942
-8.49611
-0.625364
-7.42374
-3.53991
0.386658
-8.14181
-0.405177
0.362423
-8.15464
0.331422
-8.17207
0.2924
-8.18565
0.244136
-8.20317
0.192029
-8.22198
0.134367
-8.24487
0.0653824
-8.25916
-0.014325
-8.28157
-0.0989042
-8.30126
-0.195343
-8.322
-0.301075
-8.33901
-0.419457
-8.35955
-0.549067
-8.37638
-0.696541
-8.39677
-0.856264
-8.41041
-1.03235
-8.4266
-1.16057
-8.3679
-0.9434
-7.64091
-4.48331
0.296691
-8.11497
-0.323532
0.264995
-8.12294
0.22922
-8.13629
0.190465
-8.14689
0.149903
-8.16261
0.101103
-8.17318
0.0441859
-8.18796
-0.0184214
-8.19656
-0.0889131
-8.21107
-0.165332
-8.22484
-0.250579
-8.23676
-0.342833
-8.24676
-0.446152
-8.25623
-0.562303
-8.26022
-0.699295
-8.25978
-0.853095
-8.25661
-1.03049
-8.24921
-1.177
-8.22139
-0.995804
-7.8221
-5.47911
0.233576
-8.09342
-0.255125
0.20892
-8.09828
0.179647
-8.10702
0.145716
-8.11296
0.103847
-8.12074
0.05688
-8.12621
0.00423799
-8.13531
-0.0511128
-8.14121
-0.108052
-8.15414
-0.174216
-8.15868
-0.244837
-8.16614
-0.32445
-8.16715
-0.411073
-8.16961
-0.507525
-8.16377
-0.604927
-8.16238
-0.716389
-8.14515
-0.833
-8.1326
-0.948644
-8.10575
-0.840154
-7.93059
-6.31927
0.139421
-8.06857
-0.164277
0.112161
-8.07102
0.0809245
-8.07578
0.0468978
-8.07894
0.0112974
-8.08514
-0.0249151
-8.09
-0.0634513
-8.09678
-0.103083
-8.10158
-0.149089
-8.10813
-0.198085
-8.10968
-0.251345
-8.11287
-0.308634
-8.10986
-0.369879
-8.10836
-0.43511
-8.09854
-0.500792
-8.0967
-0.568969
-8.07697
-0.639937
-8.06163
-0.715125
-8.03056
-0.682957
-7.96276
-7.00222
0.0891958
-8.04911
-0.108651
0.0691214
-8.05095
0.0477496
-8.05441
0.0245037
-8.05569
-0.00293247
-8.05771
-0.0314866
-8.06144
-0.0626086
-8.06566
-0.0944895
-8.06969
-0.130683
-8.07194
-0.169245
-8.07112
-0.209998
-8.07212
-0.252072
-8.06778
-0.292691
-8.06774
-0.333253
-8.05798
-0.37691
-8.05304
-0.414108
-8.03977
-0.443441
-8.0323
-0.466004
-8.008
-0.447888
-7.98087
-7.45011
0.0238358
-8.03455
-0.0384002
0.00855421
-8.03567
-0.00805696
-8.0378
-0.0242223
-8.03952
-0.0414423
-8.04049
-0.0595492
-8.04334
-0.0808607
-8.04434
-0.103816
-8.04674
-0.128887
-8.04687
-0.154469
-8.04554
-0.180681
-8.04591
-0.206176
-8.04229
-0.232616
-8.0413
-0.257393
-8.0332
-0.281415
-8.02902
-0.301428
-8.01976
-0.320254
-8.01347
-0.338823
-7.98943
-0.332322
-7.98737
-7.78243
0.000986065
-8.02844
-0.00709228
-0.00569392
-8.02899
-0.0148544
-8.02864
-0.0243576
-8.03002