/*--------------------------------*- C++ -*----------------------------------*\
  =========                 |
  \\      /  F ield         | OpenFOAM: The Open Source CFD Toolbox
   \\    /   O peration     | Website:  https://openfoam.org
    \\  /    A nd           | Version:  9
     \\/     M anipulation  |
\*---------------------------------------------------------------------------*/
FoamFile
{
    format      ascii;
    class       volVectorField;
    location    "11";
    object      U;
}
// * * * * * * * * * * * * * * * * * * * * * * * * * * * * * * * * * * * * * //

dimensions      [0 1 -1 0 0 0 0];

internalField   nonuniform List<vector> 
46400
(
(9.15056 -9.00659 -1.62216e-19)
(19.0736 -18.2352 1.08143e-19)
(20.8693 -20.9357 -6.48083e-20)
(20.227 -21.007 -7.13272e-20)
(19.5495 -20.9954 -5.0661e-20)
(18.8737 -21.0111 1.58905e-19)
(18.2736 -21.0308 -1.19102e-19)
(17.6762 -21.0552 5.6089e-20)
(17.1186 -21.0661 -6.32736e-20)
(16.5754 -21.0677 6.95968e-20)
(16.074 -21.0924 -7.50943e-20)
(15.6101 -21.1213 0)
(15.1565 -21.1541 5.35623e-19)
(14.7248 -21.1624 -6.10067e-19)
(14.3089 -21.1916 -7.717e-19)
(13.9359 -21.2166 -1.30089e-19)
(13.5479 -21.2546 -3.45437e-20)
(13.1853 -21.2181 6.20662e-19)
(12.8373 -21.1385 8.52639e-19)
(12.3703 -21.3412 -7.84653e-19)
(9.4624 -8.53595 0)
(19.2563 -17.0956 -3.19766e-20)
(20.8695 -19.4115 0)
(20.1648 -19.5372 1.60475e-19)
(19.4971 -19.5699 -1.42711e-19)
(18.8043 -19.6501 3.84105e-20)
(18.1799 -19.6599 0)
(17.5912 -19.7428 -5.60901e-20)
(17.0471 -19.8038 6.32752e-20)
(16.5164 -19.8649 -6.95981e-20)
(16.0267 -19.9344 7.8224e-19)
(15.5529 -19.9956 4.37231e-20)
(15.1121 -20.0614 -6.43562e-19)
(14.6996 -20.1356 0)
(14.3002 -20.1985 9.11097e-20)
(13.9178 -20.2456 9.39943e-20)
(13.5576 -20.3056 0)
(13.2302 -20.3434 -8.71854e-19)
(12.9142 -20.3251 -2.30145e-19)
(12.5006 -20.5253 8.91604e-19)
(9.73798 -8.03403 5.55952e-20)
(19.2884 -15.9217 -1.85917e-19)
(20.6531 -17.8927 1.66429e-19)
(19.8809 -18.0326 2.6489e-19)
(19.2414 -18.131 -2.60053e-19)
(18.5753 -18.2691 0)
(17.9875 -18.3881 -8.20436e-19)
(17.3826 -18.4728 7.09147e-19)
(16.8378 -18.576 -9.17461e-19)
(16.3011 -18.6524 9.07991e-19)
(15.7999 -18.7495 8.71203e-19)
(15.3473 -18.8551 -8.08893e-20)
(14.8959 -18.9572 -7.59729e-19)
(14.468 -19.0234 0)
(14.0703 -19.1346 9.46869e-19)
(13.712 -19.2335 -9.32501e-19)
(13.3362 -19.3309 0)
(13.009 -19.3907 -1.44991e-20)
(12.6831 -19.442 1.12761e-19)
(12.2524 -19.6899 -1.02011e-18)
(9.91834 -7.52606 -1.78602e-19)
(19.2183 -14.7379 4.62753e-20)
(20.3441 -16.3636 3.44045e-19)
(19.6371 -16.6137 -3.39697e-19)
(18.9937 -16.7414 -2.99648e-19)
(18.3143 -16.9011 4.04742e-19)
(17.7013 -17.0262 5.58587e-19)
(17.1436 -17.2113 -1.40782e-18)
(16.603 -17.3552 1.18078e-18)
(16.0903 -17.4872 -1.13214e-19)
(15.5965 -17.6149 0)
(15.1336 -17.7308 1.19339e-19)
(14.7207 -17.8936 -1.21625e-19)
(14.32 -18.0253 0)
(13.9128 -18.1308 1.07686e-18)
(13.5508 -18.249 -9.18567e-19)
(13.2116 -18.3967 0)
(12.8938 -18.5072 1.27517e-19)
(12.5904 -18.5838 1.40441e-19)
(12.1524 -18.8491 1.13613e-18)
(10.0319 -6.98438 0)
(19.0165 -13.5269 0)
(19.9344 -14.9385 -4.65177e-19)
(19.1157 -15.1547 3.25423e-19)
(18.512 -15.3695 -6.33872e-19)
(17.875 -15.5948 5.12089e-19)
(17.282 -15.7695 0)
(16.6938 -15.9308 5.71119e-19)
(16.1875 -16.1532 -6.93207e-19)
(15.6788 -16.3148 -1.55638e-19)
(15.1955 -16.4928 -1.56893e-19)
(14.7383 -16.6374 0)
(14.2897 -16.79 1.20581e-18)
(13.8984 -16.9528 -1.18695e-18)
(13.521 -17.1351 0)
(13.1519 -17.2618 -1.34928e-18)
(12.7866 -17.4045 1.18933e-18)
(12.4851 -17.5515 1.19988e-18)
(12.1929 -17.6802 -1.31491e-18)
(11.7827 -17.975 0)
(10.096 -6.41241 0)
(18.6865 -12.2972 0)
(19.3576 -13.4722 0)
(18.6721 -13.804 -2.79348e-20)
(18.0575 -14.0298 0)
(17.4395 -14.2914 0)
(16.8629 -14.5325 0)
(16.3013 -14.7377 -1.74169e-19)
(15.7741 -14.9588 0)
(15.3036 -15.1819 1.55642e-19)
(14.8361 -15.3899 -1.94321e-20)
(14.4028 -15.581 -1.52322e-18)
(13.9925 -15.7869 1.14984e-18)
(13.5866 -15.949 -1.51705e-18)
(13.2093 -16.1407 1.14718e-18)
(12.8882 -16.3592 0)
(12.5378 -16.528 -1.32096e-18)
(12.2086 -16.6735 1.1311e-18)
(11.9356 -16.8251 0)
(11.5179 -17.1327 -1.77193e-19)
(10.147 -5.89304 5.74322e-19)
(18.1871 -10.9554 1.70473e-19)
(18.789 -12.1323 6.9469e-19)
(17.9967 -12.412 -7.14055e-19)
(17.4004 -12.7315 -7.29941e-19)
(16.789 -13.0174 1.45625e-18)
(16.2259 -13.2937 -1.66738e-18)
(15.6842 -13.5518 1.57595e-19)
(15.176 -13.8166 5.40391e-19)
(14.7061 -14.0596 0)
(14.2581 -14.3197 -1.87853e-20)
(13.8222 -14.5152 -1.78715e-20)
(13.408 -14.743 1.75764e-19)
(13.0363 -14.9469 1.45697e-18)
(12.631 -15.1229 -1.27633e-18)
(12.2937 -15.3215 -1.63669e-18)
(11.9922 -15.5761 1.4273e-18)
(11.6808 -15.7428 -1.35476e-20)
(11.4123 -15.9226 -1.81846e-19)
(11.0476 -16.2633 -1.30908e-18)
(10.2167 -5.33095 -1.89753e-19)
(17.6196 -9.72034 2.94097e-20)
(17.981 -10.7126 -2.11886e-19)
(17.2978 -11.12 -8.48985e-19)
(16.7302 -11.4638 5.90432e-19)
(16.1823 -11.8313 0)
(15.6411 -12.153 1.24752e-18)
(15.1059 -12.4123 -6.02804e-19)
(14.6167 -12.7226 4.12325e-19)
(14.164 -12.9851 2.14738e-19)
(13.7599 -13.304 -4.12552e-19)
(13.3673 -13.5613 1.00156e-18)
(12.9728 -13.809 2.08996e-19)
(12.6217 -14.0541 -1.19962e-18)
(12.2599 -14.2691 3.35782e-18)
(11.8947 -14.456 -1.36873e-18)
(11.5821 -14.6808 1.74334e-18)
(11.2919 -14.9021 -1.14081e-18)
(11.0189 -15.0745 3.75991e-19)
(10.6741 -15.4218 1.79874e-18)
(10.3103 -4.76328 1.02185e-18)
(16.8965 -8.52085 -2.06253e-19)
(17.1476 -9.42447 -2.70024e-20)
(16.4378 -9.83084 4.56941e-19)
(15.8552 -10.2565 2.1707e-19)
(15.3171 -10.6349 2.40264e-19)
(14.8294 -11.0532 -1.13805e-18)
(14.3328 -11.3616 6.87334e-19)
(13.8376 -11.6775 -2.16134e-19)
(13.3934 -11.965 -2.14742e-19)
(12.9705 -12.268 -2.13057e-19)
(12.6177 -12.579 -2.27339e-19)
(12.2353 -12.8448 -4.33423e-19)
(11.9096 -13.1243 1.50938e-18)
(11.5695 -13.3676 -2.11226e-18)
(11.2408 -13.5901 -2.15128e-19)
(10.9266 -13.8189 1.27057e-20)
(10.6492 -14.0361 -1.61099e-18)
(10.4033 -14.2543 1.19942e-18)
(10.0989 -14.5868 -1.89729e-18)
(10.4491 -4.24445 9.40977e-19)
(16.0836 -7.39312 -2.26698e-18)
(16.101 -8.18958 1.50804e-18)
(15.4873 -8.65815 -2.41187e-19)
(14.96 -9.13139 -2.63518e-19)
(14.4786 -9.55334 1.03086e-18)
(14.0283 -10.0018 -1.25092e-18)
(13.5946 -10.3777 0)
(13.1542 -10.7453 9.79758e-19)
(12.7322 -11.0625 -9.63408e-19)
(12.3364 -11.4 -7.08884e-19)
(11.997 -11.7353 9.24389e-19)
(11.6493 -12.046 2.2442e-19)
(11.3366 -12.3452 -9.14278e-19)
(11.0426 -12.6474 2.18201e-19)
(10.7061 -12.8664 1.10178e-18)
(10.412 -13.1211 -1.95632e-18)
(10.1219 -13.3284 1.28972e-18)
(9.87217 -13.5457 -1.07999e-20)
(9.58709 -13.8748 -1.78844e-18)
(10.4942 -3.82479 1.27588e-18)
(15.0617 -6.29404 -8.34799e-19)
(14.9447 -7.085 5.64864e-19)
(14.445 -7.58128 1.23637e-20)
(13.9103 -8.10162 -1.11303e-18)
(13.4502 -8.54159 -1.07022e-18)
(13.0282 -9.03005 1.32957e-18)
(12.6333 -9.43169 -7.88593e-19)
(12.2153 -9.82851 1.04404e-18)
(11.8176 -10.1546 0)
(11.4062 -10.4682 1.47617e-20)
(11.0967 -10.8228 2.42497e-19)
(10.7786 -11.1625 2.52143e-19)
(10.4684 -11.4715 -2.47762e-19)
(10.2322 -11.8343 0)
(9.96284 -12.1344 2.39073e-19)
(9.67812 -12.4059 0)
(9.42804 -12.6694 4.50638e-19)
(9.18268 -12.8947 2.20984e-18)
(8.9373 -13.2471 -8.00623e-21)
(10.3966 -3.41489 6.92459e-19)
(13.9959 -5.34591 -1.41366e-19)
(13.7562 -6.09855 -2.11578e-18)
(13.3047 -6.61459 1.18635e-18)
(12.8549 -7.18113 2.84351e-19)
(12.4388 -7.63492 -2.80971e-19)
(12.0753 -8.16948 -1.14582e-18)
(11.7484 -8.61944 8.52655e-19)
(11.4164 -9.08126 0)
(11.1033 -9.49897 0)
(10.7002 -9.81603 -1.33198e-18)
(10.3521 -10.1341 1.0538e-18)
(10.0672 -10.4814 -2.52174e-19)
(9.74536 -10.7671 -7.66216e-19)
(9.4727 -11.0764 3.12438e-21)
(9.25491 -11.4117 1.71756e-18)
(9.00956 -11.7029 -9.61976e-19)
(8.77312 -11.9849 7.09791e-19)
(8.53857 -12.2189 -1.15293e-18)
(8.29881 -12.5692 0)
(10.0612 -2.96629 -5.9985e-19)
(12.768 -4.47821 9.64558e-19)
(12.4859 -5.23168 1.6487e-19)
(12.1361 -5.77651 1.62472e-19)
(11.7142 -6.3518 0)
(11.308 -6.80854 1.22851e-18)
(10.9277 -7.32211 -1.2069e-18)
(10.6261 -7.80256 1.51738e-19)
(10.2575 -8.21699 0)
(10.0244 -8.69338 1.143e-18)
(9.75867 -9.11999 -9.81023e-19)
(9.42718 -9.463 1.09981e-18)
(9.17731 -9.84123 -1.08233e-18)
(8.9158 -10.1831 1.05747e-18)
(8.64205 -10.4844 -9.08923e-19)
(8.40616 -10.8063 -1.01638e-18)
(8.19104 -11.1167 1.99762e-18)
(7.99667 -11.4311 -8.57275e-19)
(7.77833 -11.6838 1.22031e-19)
(7.55174 -12.036 1.01488e-18)
(9.50472 -2.50261 -4.78182e-19)
(11.5153 -3.71113 5.14529e-19)
(11.1794 -4.42981 -1.64896e-19)
(10.9154 -5.01234 -1.62476e-19)
(10.574 -5.63735 0)
(10.2363 -6.11432 0)
(9.8774 -6.61482 0)
(9.68892 -7.16386 -3.09689e-19)
(9.38925 -7.62786 -1.21528e-18)
(9.07198 -8.03449 2.38596e-18)
(8.84443 -8.48398 -1.3147e-18)
(8.56432 -8.85251 -1.45538e-19)
(8.30432 -9.20344 0)
(8.0938 -9.57297 0)
(7.86035 -9.8845 -2.68857e-19)
(7.64741 -10.204 0)
(7.42148 -10.4893 1.03021e-18)
(7.23801 -10.7881 -1.2677e-18)
(7.07372 -11.0667 -1.11021e-18)
(6.85826 -11.373 1.05446e-18)
(8.77126 -2.03495 4.95145e-19)
(10.266 -3.01791 8.98311e-19)
(9.92093 -3.74657 1.50389e-21)
(9.64671 -4.3168 4.15906e-22)
(9.39069 -4.9808 1.73281e-19)
(9.12969 -5.50541 -4.99578e-19)
(8.68548 -5.95141 0)
(8.42022 -6.41502 -4.84145e-19)
(8.24692 -6.96282 1.62274e-19)
(8.02977 -7.41035 6.18351e-19)
(7.84254 -7.89745 6.02671e-19)
(7.64929 -8.33584 -4.47435e-19)
(7.41499 -8.72629 1.15445e-18)
(7.21833 -9.10683 -9.92874e-19)
(7.02481 -9.47662 1.24204e-18)
(6.8321 -9.80404 -2.30777e-18)
(6.65582 -10.1433 1.06556e-18)
(6.45618 -10.4212 1.28229e-19)
(6.32261 -10.7312 1.01348e-18)
(6.16959 -11.0601 -1.08418e-18)
(7.85137 -1.58955 1.71447e-19)
(8.87972 -2.4551 -1.82386e-19)
(8.4726 -3.20106 7.3478e-19)
(8.27508 -3.79501 -7.21163e-19)
(8.03237 -4.47915 -3.52711e-19)
(7.94751 -5.12656 -8.61668e-19)
(7.70772 -5.67696 2.53682e-21)
(7.38965 -6.09727 6.65248e-19)
(7.13677 -6.56742 -1.59986e-19)
(6.88943 -6.98501 0)
(6.67858 -7.41446 0)
(6.53605 -7.85934 0)
(6.37628 -8.28492 0)
(6.19262 -8.65726 3.38764e-21)
(6.05577 -9.05064 0)
(5.88896 -9.39018 1.37379e-19)
(5.74832 -9.73879 5.42336e-19)
(5.59275 -10.0515 -1.59561e-18)
(5.42553 -10.3302 1.17727e-18)
(5.30067 -10.692 -1.10098e-18)
(6.80535 -1.16692 0)
(7.53085 -1.92334 -9.71547e-20)
(7.21634 -2.64465 0)
(7.00453 -3.20914 2.76246e-19)
(6.69073 -3.79663 -1.84036e-19)
(6.6037 -4.40458 -7.0882e-19)
(6.50017 -5.07245 2.9912e-21)
(6.33401 -5.58807 6.81505e-19)
(6.17585 -6.11662 -6.62966e-19)
(6.01692 -6.56904 1.30004e-18)
(5.79629 -6.9905 -3.97445e-21)
(5.59582 -7.37326 -6.23231e-19)
(5.4844 -7.80088 6.05212e-19)
(5.33671 -8.18771 -7.42647e-19)
(5.19927 -8.56216 0)
(5.0865 -8.93974 -5.65425e-19)
(4.94863 -9.27918 5.56974e-19)
(4.83886 -9.62424 0)
(4.70354 -9.91085 -1.31525e-19)
(4.55542 -10.2442 0)
(5.6908 -0.874657 9.70298e-20)
(6.05874 -1.68148 9.7365e-20)
(5.79123 -2.41339 0)
(5.71877 -3.08989 3.76531e-19)
(5.46638 -3.68709 -4.64859e-19)
(5.2002 -4.20258 2.70581e-19)
(5.12594 -4.78216 -7.98503e-19)
(5.01418 -5.3245 3.47605e-19)
(4.88015 -5.84926 -8.52411e-20)
(4.79764 -6.36013 0)
(4.70837 -6.84327 -8.13565e-20)
(4.55341 -7.26551 -7.94764e-20)
(4.38283 -7.64653 -7.76393e-20)
(4.28613 -8.04868 0)
(4.15937 -8.4032 -5.87092e-19)
(4.05661 -8.76485 1.22426e-18)
(3.97498 -9.1082 -1.05502e-18)
(3.88226 -9.44326 5.52411e-19)
(3.82039 -9.75272 6.76336e-20)
(3.72622 -10.0864 5.68586e-19)
(4.14694 -0.645349 -1.50307e-19)
(4.51964 -1.4044 -2.00214e-19)
(4.39473 -2.00076 4.40776e-22)
(4.31523 -2.71865 5.28239e-19)
(4.28192 -3.31431 -1.42335e-19)
(4.20803 -3.89395 -9.21179e-20)
(4.05476 -4.41537 9.02457e-20)
(3.94407 -4.95739 1.76138e-19)
(3.82171 -5.46384 8.52509e-20)
(3.72037 -5.93713 -3.34086e-19)
(3.64306 -6.43177 3.6885e-19)
(3.61762 -6.89092 7.94675e-20)
(3.53976 -7.33131 3.88854e-19)
(3.42652 -7.72241 -2.36794e-21)
(3.36257 -8.12111 3.50405e-20)
(3.25794 -8.47964 -6.54972e-19)
(3.16686 -8.83211 1.79335e-19)
(3.08484 -9.16594 0)
(2.99995 -9.47322 -3.35299e-20)
(2.93243 -9.82148 -2.87008e-19)
(2.62095 -0.419986 5.09344e-20)
(3.37086 -1.22973 -1.00928e-19)
(3.05449 -1.92222 1.9862e-19)
(2.96056 -2.52218 -4.86861e-20)
(2.95146 -3.19707 -4.7946e-20)
(2.77846 -3.76112 0)
(2.75176 -4.3687 -9.04478e-20)
(2.6305 -4.87197 1.77212e-19)
(2.62914 -5.39383 -8.68244e-20)
(2.53845 -5.86085 8.41923e-20)
(2.46798 -6.32194 -4.17131e-20)
(2.40157 -6.75095 -8.0245e-20)
(2.35206 -7.2018 1.57317e-19)
(2.32581 -7.59493 -1.53631e-19)
(2.25188 -8.00063 3.79388e-20)
(2.2363 -8.35991 2.60671e-34)
(2.19729 -8.73375 -3.56165e-20)
(2.15092 -9.05335 2.09648e-19)
(2.12458 -9.37511 -1.03364e-19)
(2.05842 -9.69502 -7.28587e-20)
(0.386217 0.511565 6.16308e-20)
(0.954373 -5.08591 2.99628e-20)
(3.56072 -18.2218 0)
(5.87986 -29.4055 2.86018e-20)
(6.82646 -34.583 2.73803e-20)
(7.0913 -36.0425 2.63076e-20)
(7.06856 -36.213 0)
(7.01487 -36.1176 2.20205e-20)
(6.89437 -35.8251 0)
(6.7863 -35.6151 0)
(6.6934 -35.3964 -1.92476e-20)
(6.58864 -35.2553 1.58065e-21)
(6.48994 -35.0911 3.62678e-20)
(6.39139 -34.8741 0)
(6.25845 -34.7228 1.55543e-20)
(6.18247 -34.5165 1.46021e-20)
(6.01318 -34.3109 1.3721e-20)
(5.95374 -34.0425 0)
(5.75749 -33.8018 -2.40387e-20)
(5.68315 -33.412 2.28923e-20)
(0.239212 -0.669095 9.4482e-20)
(1.4811 -8.27189 -1.5197e-19)
(4.69032 -22.5155 0)
(6.64655 -31.9734 -1.42697e-19)
(7.39444 -35.4702 1.37391e-19)
(7.53341 -36.1617 -2.27373e-19)
(7.52225 -36.1456 9.39518e-20)
(7.44088 -35.9197 6.62602e-20)
(7.34232 -35.6564 -3.09427e-19)
(7.2599 -35.4265 1.71226e-19)
(7.16071 -35.2491 -1.98251e-20)
(7.07024 -35.0205 1.4493e-19)
(6.9491 -34.814 -6.48795e-21)
(6.86088 -34.6347 -1.3398e-19)
(6.72274 -34.4219 -1.55539e-20)
(6.65314 -34.1959 -1.46023e-20)
(6.47717 -34.018 -1.37214e-20)
(6.43471 -33.7437 0)
(6.21465 -33.4649 -9.23194e-20)
(6.1649 -33.0897 4.48485e-21)
(0.211557 -1.85533 -6.70125e-20)
(2.32225 -11.6816 0)
(5.68001 -25.5565 0)
(7.59237 -33.5555 -6.09e-20)
(8.10753 -35.9056 5.64452e-20)
(8.19135 -36.1449 0)
(8.15225 -36.0146 -4.8303e-20)
(8.0436 -35.6899 1.36351e-19)
(7.95182 -35.4131 -1.37237e-19)
(7.84104 -35.1779 1.62313e-19)
(7.74116 -34.9218 -1.98368e-19)
(7.62254 -34.7381 0)
(7.51958 -34.5456 -1.33105e-19)
(7.40592 -34.3216 -1.17905e-19)
(7.27761 -34.1497 2.15622e-19)
(7.17958 -33.9228 -2.17183e-19)
(7.00622 -33.6962 1.88334e-19)
(6.92816 -33.3937 0)
(6.70002 -33.1135 -1.98456e-19)
(6.63445 -32.7476 3.30435e-19)
(0.336719 -3.03809 3.40028e-19)
(3.21789 -14.7178 0)
(6.76957 -28.2756 1.32523e-19)
(8.45993 -34.8044 1.77367e-19)
(8.78445 -36.1265 -3.57565e-19)
(8.79432 -36.1016 1.06171e-19)
(8.71785 -35.8202 4.90131e-20)
(8.60776 -35.4894 5.12307e-19)
(8.50426 -35.205 -7.08851e-19)
(8.40376 -34.9431 -6.46933e-20)
(8.29297 -34.731 3.55314e-19)
(8.18572 -34.4881 7.10753e-20)
(8.0589 -34.2679 -3.2656e-19)
(7.94639 -34.0609 3.17756e-19)
(7.79899 -33.8176 8.6443e-20)
(7.6957 -33.5697 -5.28699e-20)
(7.50855 -33.3535 7.46546e-20)
(7.43739 -33.0396 0)
(7.18936 -32.7449 -1.99967e-20)
(7.14651 -32.3907 0)
(0.581373 -4.15545 0)
(4.36991 -17.3535 5.54783e-19)
(7.95038 -30.1336 -6.83074e-19)
(9.44712 -35.357 6.24913e-19)
(9.62565 -36.0928 -4.80126e-19)
(9.59098 -35.9558 -1.05889e-19)
(9.45626 -35.5652 0)
(9.33684 -35.2365 2.74227e-19)
(9.21053 -34.9316 -3.62873e-19)
(9.07096 -34.6562 3.99814e-19)
(8.9389 -34.3735 -3.12426e-19)
(8.79046 -34.1554 -7.10685e-20)
(8.65752 -33.9223 3.19318e-19)
(8.51127 -33.6838 -5.45283e-19)
(8.36417 -33.4846 3.36321e-19)
(8.23212 -33.2358 -1.10377e-19)
(8.04431 -32.9926 -2.34959e-19)
(7.93911 -32.6808 5.26642e-19)
(7.67999 -32.3881 -2.96395e-19)
(7.61734 -32.0358 -3.2559e-19)
(0.968906 -5.26897 5.91343e-19)
(5.62355 -19.4801 5.71683e-19)
(9.18886 -31.5887 -5.67374e-19)
(10.4374 -35.6891 -1.30471e-19)
(10.4871 -35.9644 1.17212e-19)
(10.3567 -35.6564 4.20524e-19)
(10.1846 -35.2621 -4.22166e-19)
(10.0311 -34.9229 0)
(9.87245 -34.5972 3.37845e-19)
(9.71818 -34.3064 -3.32199e-19)
(9.56733 -34.0556 -2.87998e-19)
(9.41746 -33.7958 2.83331e-19)
(9.26548 -33.5729 0)
(9.11492 -33.3435 0)
(8.94596 -33.0877 4.71328e-19)
(8.79903 -32.8336 -4.60716e-19)
(8.59395 -32.5959 -3.52533e-19)
(8.47769 -32.2556 3.4728e-19)
(8.19711 -31.9611 -2.97601e-19)
(8.14387 -31.6173 3.61301e-19)
(1.6218 -6.67991 -3.16236e-19)
(6.94898 -21.0859 9.70254e-20)
(10.4583 -32.4578 3.3483e-20)
(11.4281 -35.6192 6.59102e-19)
(11.386 -35.6397 0)
(11.1966 -35.2787 0)
(10.9911 -34.8793 7.83229e-19)
(10.804 -34.5281 -5.03512e-20)
(10.6185 -34.2094 -7.0712e-19)
(10.4296 -33.9154 6.07064e-19)
(10.2467 -33.6284 -5.97077e-19)
(10.0572 -33.3952 0)
(9.87922 -33.1395 4.69647e-19)
(9.68995 -32.899 -4.62263e-19)
(9.50768 -32.6744 0)
(9.33146 -32.4109 0)
(9.11933 -32.1635 0)
(8.97743 -31.8547 0)
(8.68834 -31.5555 0)
(8.61793 -31.2095 -3.38462e-20)
(2.37523 -7.56052 0)
(7.81658 -22.3799 -6.43514e-19)
(11.7123 -33.0181 0)
(12.4086 -35.3857 0)
(12.2825 -35.2417 1.0181e-18)
(12.0234 -34.7866 4.38339e-20)
(11.7936 -34.4127 -9.21069e-19)
(11.5672 -34.0691 0)
(11.3418 -33.7275 8.12028e-20)
(11.1207 -33.4248 -7.40519e-20)
(10.9142 -33.1487 0)
(10.7065 -32.8849 6.1485e-20)
(10.513 -32.6641 -5.01281e-19)
(10.3133 -32.4236 8.95038e-19)
(10.1106 -32.1778 -3.02488e-20)
(9.91721 -31.9367 -3.63676e-19)
(9.68384 -31.6998 -3.78869e-20)
(9.51629 -31.3619 3.41036e-20)
(9.20572 -31.0825 0)
(9.13064 -30.7311 2.76783e-20)
(2.69954 -8.58627 2.74524e-19)
(9.27199 -23.2706 1.82083e-19)
(12.8813 -33.1367 -8.73804e-19)
(13.4329 -34.9406 2.49421e-19)
(13.1897 -34.6595 1.10043e-19)
(12.89 -34.2421 9.13743e-19)
(12.6024 -33.8532 -1.25358e-18)
(12.339 -33.5008 8.97864e-19)
(12.0786 -33.1857 -6.93275e-19)
(11.8283 -32.8936 8.16176e-19)
(11.5862 -32.6196 1.27074e-19)
(11.3481 -32.3832 5.12179e-19)
(11.12 -32.1341 -2.9147e-19)
(10.8847 -31.904 -5.20822e-19)
(10.6609 -31.6653 4.54814e-19)
(10.4331 -31.4044 0)
(10.1995 -31.169 1.05902e-19)
(10.0087 -30.8708 2.64711e-20)
(9.68487 -30.586 -5.42367e-20)
(9.60006 -30.2439 2.02799e-20)
(3.49293 -9.13459 -5.78474e-19)
(10.1396 -24.169 5.93091e-19)
(14.1101 -33.0862 -8.04403e-21)
(14.3489 -34.3571 -4.91946e-19)
(14.0649 -34.0122 -4.45002e-19)
(13.7336 -33.5684 -2.07276e-19)
(13.4109 -33.2097 -9.61148e-21)
(13.1095 -32.8745 -1.70597e-19)
(12.8138 -32.543 0)
(12.52 -32.2492 -1.40263e-19)
(12.2502 -31.9711 -1.27065e-19)
(11.9785 -31.7255 -9.45846e-21)
(11.732 -31.5122 3.71759e-19)
(11.4789 -31.2855 -1.96819e-19)
(11.2327 -31.0715 -3.90363e-19)
(10.991 -30.854 3.01267e-19)
(10.7328 -30.6287 1.74557e-19)
(10.5126 -30.3252 -2.99534e-19)
(10.1676 -30.0573 5.414e-20)
(10.0679 -29.6971 2.87157e-19)
(3.97311 -9.64908 -1.41638e-18)
(11.5286 -24.3033 1.42883e-18)
(15.1514 -32.6401 -1.53067e-18)
(15.3926 -33.6035 1.23213e-18)
(14.9443 -33.2163 1.03362e-18)
(14.5682 -32.8181 -8.04001e-19)
(14.1802 -32.4446 -1.00691e-18)
(13.8341 -32.1251 5.56485e-20)
(13.4974 -31.8293 5.84992e-19)
(13.1786 -31.5609 -3.59802e-19)
(12.8749 -31.3078 8.9984e-19)
(12.5817 -31.0794 -5.27296e-19)
(12.3038 -30.8612 -9.45737e-20)
(12.0218 -30.6459 2.17932e-19)
(11.7524 -30.4179 -5.65112e-19)
(11.4776 -30.1878 2.63253e-19)
(11.2136 -29.986 0)
(10.9755 -29.7251 -3.58147e-19)
(10.6223 -29.4757 3.52877e-19)
(10.5124 -29.1288 -2.37183e-19)
(4.71992 -10.0858 2.74493e-19)
(12.5971 -24.6528 3.11896e-19)
(16.2391 -32.0757 1.29123e-18)
(16.1941 -32.7017 1.06906e-18)
(15.7582 -32.323 -6.46715e-19)
(15.3414 -31.9358 8.54638e-19)
(14.9315 -31.621 -5.05272e-19)
(14.5494 -31.3134 5.44316e-19)
(14.1826 -31.024 -1.01949e-18)
(13.8197 -30.7634 3.57137e-19)
(13.4862 -30.5186 0)
(13.1536 -30.3068 0)
(12.8513 -30.1148 0)
(12.5482 -29.9284 -5.1606e-19)
(12.2589 -29.7464 5.08083e-19)
(11.9721 -29.551 0)
(11.6866 -29.3585 0)
(11.4199 -29.1076 -3.18667e-20)
(11.0501 -28.8659 0)
(10.9225 -28.5205 -2.22657e-19)
(5.25238 -10.2922 -5.22132e-19)
(13.7104 -24.3639 -1.28319e-18)
(17.1185 -31.2327 -8.78083e-19)
(17.1163 -31.7128 -1.32556e-19)
(16.5331 -31.3499 1.10564e-18)
(16.0855 -30.9983 -2.37476e-19)
(15.6062 -30.6652 -6.04676e-20)
(15.1824 -30.4022 -6.58109e-19)
(14.7766 -30.1376 0)
(14.3889 -29.9095 -2.82697e-19)
(14.0252 -29.6833 4.46586e-19)
(13.6748 -29.4852 0)
(13.3475 -29.3113 4.875e-19)
(13.0184 -29.1276 -4.79847e-19)
(12.7029 -28.9517 3.50972e-19)
(12.3853 -28.7727 -6.04235e-19)
(12.0876 -28.6108 2.87522e-19)
(11.8063 -28.4151 3.18674e-20)
(11.4284 -28.2129 -1.49099e-20)
(11.2857 -27.8605 1.07689e-19)
(5.92669 -10.475 -6.80689e-19)
(14.7383 -24.2368 5.56997e-20)
(18.0098 -30.3542 8.30483e-20)
(17.7692 -30.5776 1.50111e-18)
(17.2188 -30.2487 1.01674e-19)
(16.7157 -29.9335 -7.48394e-19)
(16.2403 -29.6737 -4.79584e-19)
(15.7801 -29.4181 1.7276e-19)
(15.3537 -29.194 4.98005e-19)
(14.9328 -28.9888 -4.77309e-19)
(14.5442 -28.8003 2.27632e-19)
(14.1581 -28.6224 -5.02704e-19)
(13.806 -28.4662 3.99728e-19)
(13.4596 -28.3195 -3.07534e-19)
(13.1292 -28.1647 2.75857e-19)
(12.8014 -28.0097 1.56755e-19)
(12.4879 -27.8662 -1.87205e-19)
(12.1803 -27.6805 8.57257e-20)
(11.7978 -27.5019 -7.6918e-20)
(11.6394 -27.1792 -1.29338e-20)
(6.46506 -10.4565 -8.38086e-19)
(15.6254 -23.6224 -1.38835e-19)
(18.7155 -29.1703 7.93728e-19)
(18.5287 -29.4025 -6.22612e-19)
(17.8612 -29.1204 6.1136e-19)
(17.3382 -28.8359 1.34739e-19)
(16.7892 -28.5638 0)
(16.2975 -28.3626 -8.2013e-20)
(15.8293 -28.1419 2.03274e-19)
(15.3803 -27.9687 -6.97017e-19)
(14.9631 -27.7904 4.77853e-19)
(14.5614 -27.6494 8.85962e-20)
(14.1883 -27.5275 4.32023e-20)
(13.821 -27.4037 0)
(13.4668 -27.291 1.49161e-20)
(13.1148 -27.1493 7.97586e-20)
(12.7877 -27.0348 -4.57755e-20)
(12.4788 -26.9156 -3.8551e-20)
(12.0926 -26.7616 8.17884e-21)
(11.935 -26.4316 -1.83557e-20)
(7.05382 -10.4255 7.37087e-19)
(16.5098 -23.1421 -1.24645e-18)
(19.3977 -28.0686 6.91246e-19)
(19.0062 -28.0898 5.2762e-19)
(18.3657 -27.8443 -6.81164e-20)
(17.7873 -27.6246 -3.51218e-19)
(17.2599 -27.4296 7.51037e-20)
(16.7345 -27.248 8.20122e-20)
(16.2605 -27.0944 0)
(15.7937 -26.9526 0)
(15.3603 -26.8226 -2.59042e-19)
(14.929 -26.6793 3.8736e-19)
(14.5335 -26.573 -1.83744e-19)
(14.1491 -26.4649 0)
(13.7859 -26.3751 1.58507e-20)
(13.4257 -26.2852 4.78746e-20)
(13.0804 -26.1799 -5.26508e-20)
(12.744 -26.0933 5.65036e-21)
(12.3721 -26.0152 1.79313e-19)
(12.1868 -25.7067 -1.12283e-19)
(7.52791 -10.2491 -6.31392e-19)
(17.2068 -22.2667 7.84242e-19)
(19.8629 -26.6661 0)
(19.5345 -26.7867 0)
(18.8409 -26.5918 8.2762e-20)
(18.2436 -26.3941 -3.78566e-19)
(17.6519 -26.1993 2.96428e-20)
(17.106 -26.0655 2.26075e-19)
(16.5881 -25.909 -2.64616e-19)
(16.0919 -25.8054 4.42091e-19)
(15.6356 -25.7034 -1.78904e-19)
(15.1936 -25.6252 1.77676e-20)
(14.7816 -25.5521 -2.61533e-20)
(14.3825 -25.4871 -6.82815e-20)
(13.9914 -25.4102 4.62565e-20)
(13.6157 -25.3285 -9.75351e-21)
(13.2574 -25.2593 2.15837e-19)
(12.915 -25.1939 -1.97785e-19)
(12.5448 -25.1575 1.42791e-20)
(12.3755 -24.8786 -2.79401e-19)
(8.01044 -10.0485 0)
(17.9129 -21.4943 3.25571e-19)
(20.3513 -25.3752 -3.74326e-19)
(19.8174 -25.358 0)
(19.1447 -25.2081 -8.27574e-20)
(18.513 -25.0957 1.90276e-19)
(17.9421 -24.9691 -2.38946e-19)
(17.3708 -24.8671 0)
(16.8581 -24.772 9.47233e-20)
(16.3525 -24.688 -9.31429e-20)
(15.8864 -24.6197 -1.24081e-20)
(15.4233 -24.5407 4.58516e-22)
(14.9932 -24.4933 7.88514e-21)
(14.5824 -24.4474 1.45562e-20)
(14.1944 -24.4359 2.74638e-19)
(13.8083 -24.3917 -5.4282e-19)
(13.4342 -24.3442 6.14355e-19)
(13.0617 -24.3208 -6.76073e-19)
(12.709 -24.3328 3.11344e-19)
(12.5186 -24.0982 -4.38912e-20)
(8.40919 -9.73393 0)
(18.3777 -20.4016 -3.47527e-19)
(20.6012 -23.8964 1.93433e-19)
(20.1126 -23.9602 1.60917e-19)
(19.4099 -23.8534 -5.84425e-20)
(18.7625 -23.7524 -5.22368e-20)
(18.1519 -23.656 -8.69269e-20)
(17.5691 -23.6014 0)
(17.0197 -23.5293 0)
(16.4926 -23.4901 0)
(16.0059 -23.459 1.24073e-20)
(15.5374 -23.4268 0)
(15.0927 -23.406 3.60854e-19)
(14.6646 -23.3791 -3.09932e-19)
(14.2447 -23.357 3.95662e-19)
(13.8565 -23.3441 -8.1926e-19)
(13.4639 -23.3156 4.23163e-19)
(13.0747 -23.321 5.45623e-19)
(12.7139 -23.3534 -9.79474e-19)
(12.543 -23.179 5.22575e-19)
(8.80087 -9.3953 0)
(18.8399 -19.392 0)
(20.8489 -22.4552 6.13574e-20)
(20.2187 -22.4777 4.44965e-20)
(19.5332 -22.4213 0)
(18.8614 -22.4143 -1.52664e-20)
(18.2593 -22.3483 1.49989e-20)
(17.6612 -22.3288 0)
(17.1205 -22.2939 -2.63692e-19)
(16.5887 -22.2769 2.59291e-19)
(16.1057 -22.285 0)
(15.6252 -22.2813 4.27008e-19)
(15.1716 -22.2816 3.96033e-21)
(14.7415 -22.2981 -4.62797e-19)
(14.3277 -22.317 0)
(13.9203 -22.3155 0)
(13.5045 -22.3104 0)
(13.0919 -22.2906 5.62458e-19)
(12.6934 -22.2595 -6.20812e-19)
(12.4408 -22.1603 0)
(4.86739 -32.6463 0)
(4.33219 -31.1831 0)
(3.21701 -30.5214 -4.53578e-22)
(2.8379 -29.8496 -3.23949e-23)
(2.17837 -29.1726 0)
(1.82571 -28.5492 1.24455e-22)
(1.44961 -28.0105 -8.49793e-22)
(1.16567 -27.5801 0)
(0.930689 -27.1642 -1.43095e-21)
(0.720282 -26.8211 0)
(0.566353 -26.5573 1.72849e-21)
(0.437943 -26.327 9.45826e-22)
(0.32521 -26.1482 -9.50876e-22)
(0.252577 -25.9743 -2.06032e-21)
(0.160813 -25.8385 0)
(0.129367 -25.6266 5.59187e-22)
(0.0774239 -24.885 -2.84148e-21)
(0.0993231 -22.1271 0)
(0.00438214 -15.7033 0)
(-0.0508247 -6.72345 -2.34612e-21)
(5.23522 -32.3395 9.53257e-21)
(4.64565 -31.0754 0)
(3.59205 -30.3963 1.26772e-21)
(3.17822 -29.693 -7.85583e-22)
(2.47407 -29.0419 0)
(2.06844 -28.45 4.05915e-21)
(1.66417 -27.9157 -1.79936e-21)
(1.33711 -27.492 0)
(1.08378 -27.0902 -1.62023e-21)
(0.847885 -26.7607 3.06775e-21)
(0.678942 -26.5094 -5.33261e-21)
(0.532883 -26.2877 7.45055e-21)
(0.406749 -26.1168 -5.85954e-21)
(0.320171 -25.9512 1.98328e-21)
(0.215249 -25.8214 2.11073e-21)
(0.176667 -25.6108 -2.24809e-21)
(0.108801 -24.8719 4.53797e-21)
(0.118348 -22.1116 5.74964e-21)
(0.00877433 -15.6776 2.97253e-21)
(-0.0613285 -6.72911 2.92675e-21)
(5.67244 -32.0144 -7.35669e-21)
(4.98529 -30.6882 -7.02933e-21)
(3.76228 -30.1189 -1.08224e-21)
(3.3063 -29.5169 0)
(2.58012 -28.8764 0)
(2.15676 -28.3169 -5.33039e-21)
(1.74845 -27.8141 -9.68928e-22)
(1.40779 -27.418 -7.52711e-22)
(1.1496 -27.0305 -6.64755e-22)
(0.902779 -26.711 6.26925e-21)
(0.728535 -26.4693 0)
(0.575354 -26.255 0)
(0.444042 -26.0882 0)
(0.352841 -25.9251 8.38609e-21)
(0.242838 -25.7985 0)
(0.201167 -25.6024 8.96017e-21)
(0.131098 -24.8792 -9.19532e-21)
(0.139782 -22.118 -3.38372e-21)
(0.0252697 -15.6722 -5.87619e-21)
(-0.0671346 -6.74392 -9.52423e-21)
(6.06379 -31.7163 9.95421e-21)
(5.33828 -30.5353 -1.73781e-20)
(4.15277 -29.9485 1.4869e-21)
(3.63889 -29.3528 3.00945e-22)
(2.87107 -28.7413 0)
(2.39406 -28.2164 -7.98698e-21)
(1.95957 -27.7192 2.26024e-20)
(1.57567 -27.3283 -1.56636e-20)
(1.29978 -26.9558 1.18887e-20)
(1.02763 -26.6487 -6.93169e-21)
(0.83794 -26.4195 -2.81621e-22)
(0.667115 -26.2133 7.83922e-21)
(0.522576 -26.0541 -7.87727e-21)
(0.416977 -25.8987 -4.11898e-21)
(0.295017 -25.7784 -4.28716e-21)
(0.24665 -25.5859 -8.95488e-21)
(0.165027 -24.8701 1.15099e-20)
(0.160638 -22.1147 -4.48757e-21)
(0.0297408 -15.6553 2.35406e-21)
(-0.064651 -6.75453 9.52577e-21)
(6.48168 -31.3267 3.267e-20)
(5.6189 -30.1573 3.4821e-21)
(4.30485 -29.6825 -1.30575e-23)
(3.75567 -29.1658 -1.45194e-21)
(2.97073 -28.5642 0)
(2.47562 -28.0735 3.78266e-21)
(2.03809 -27.6088 -4.67917e-21)
(1.64128 -27.2458 0)
(1.36109 -26.8901 1.45033e-22)
(1.07883 -26.5926 0)
(0.883456 -26.3737 1.46193e-20)
(0.706125 -26.1753 0)
(0.555469 -26.0207 0)
(0.445989 -25.8686 1.71394e-20)
(0.320671 -25.7531 -8.64007e-21)
(0.270032 -25.5767 9.05918e-21)
(0.18604 -24.8786 0)
(0.183463 -22.1247 -2.25831e-21)
(0.0444329 -15.6559 2.37732e-21)
(-0.0473204 -6.77018 0)
(6.88913 -31.0129 9.82895e-21)
(6.00149 -29.9504 -5.23182e-21)
(4.70105 -29.4639 -2.75949e-21)
(4.07693 -28.9863 3.3299e-21)
(3.25863 -28.4271 -6.23336e-21)
(2.70674 -27.9696 -3.79448e-21)
(2.24431 -27.5129 1.01602e-20)
(1.8059 -27.1542 1.16304e-20)
(1.50743 -26.8143 -6.32177e-21)
(1.20077 -26.5282 -1.43894e-20)
(0.989288 -26.3217 7.07389e-21)
(0.794563 -26.1309 0)
(0.630442 -25.9839 0)
(0.507284 -25.8395 2.36868e-23)
(0.371002 -25.7305 8.70965e-21)
(0.312165 -25.5591 -9.05044e-21)
(0.216483 -24.8745 0)
(0.206322 -22.1324 1.81461e-20)
(0.054038 -15.652 1.8004e-20)
(-0.0163408 -6.77907 1.19852e-21)
(7.2944 -30.5572 -2.39335e-20)
(6.24446 -29.5865 1.93589e-20)
(4.8506 -29.2126 2.02191e-22)
(4.18124 -28.7859 0)
(3.35332 -28.2404 6.25992e-21)
(2.78328 -27.8173 -1.86808e-20)
(2.31757 -27.3943 8.55349e-21)
(1.86804 -27.0639 -1.16633e-20)
(1.56462 -26.7425 0)
(1.24909 -26.4659 0)
(1.03159 -26.2701 -1.55394e-20)
(0.831225 -26.0878 1.55951e-20)
(0.661172 -25.9458 0)
(0.53511 -25.8057 -2.59783e-20)
(0.395113 -25.7029 8.77737e-21)
(0.334556 -25.5486 9.20832e-21)
(0.240952 -24.8847 -9.08856e-21)
(0.229402 -22.1489 -2.3018e-20)
(0.0657115 -15.6672 -1.1981e-20)
(0.0316388 -6.78743 -2.34792e-21)
(7.69662 -30.2185 0)
(6.62427 -29.3034 -2.33922e-21)
(5.23642 -28.9452 2.34648e-21)
(4.49101 -28.5902 0)
(3.63641 -28.0996 0)
(3.0076 -27.7094 1.96707e-20)
(2.51759 -27.2964 -1.97297e-20)
(2.02939 -26.9703 0)
(1.70634 -26.6654 -1.40007e-20)
(1.36807 -26.3994 2.90023e-20)
(1.13408 -26.2159 -1.50046e-20)
(0.917398 -26.0409 -1.65054e-20)
(0.733919 -25.9066 1.65552e-20)
(0.595354 -25.7742 0)
(0.443963 -25.6773 0)
(0.37484 -25.5307 9.24863e-21)
(0.267437 -24.8871 -1.32543e-20)
(0.252769 -22.1645 -5.6785e-23)
(0.0760297 -15.6833 7.17127e-21)
(0.0695883 -6.78725 -2.29203e-21)
(8.09562 -29.7032 9.43478e-21)
(6.85038 -28.9568 -9.45412e-21)
(5.3886 -28.7016 9.70397e-21)
(4.58494 -28.3759 -1.91986e-20)
(3.72835 -27.9028 2.94533e-20)
(3.0805 -27.5474 3.49943e-21)
(2.58685 -27.1708 -2.0727e-20)
(2.08947 -26.8729 0)
(1.75993 -26.5876 0)
(1.41429 -26.3314 -1.50456e-20)
(1.17408 -26.1588 0)
(0.952614 -25.993 0)
(0.763514 -25.8642 0)
(0.621991 -25.7368 0)
(0.465879 -25.6471 0)
(0.397035 -25.5182 0)
(0.282957 -24.8968 8.62555e-21)
(0.274275 -22.1903 -9.43744e-21)
(0.0853613 -15.7137 2.39352e-21)
(0.0931263 -6.78567 -2.28321e-21)
(8.47749 -29.3239 -2.72852e-20)
(7.21488 -28.5959 -7.94441e-21)
(5.75314 -28.388 5.79355e-21)
(4.88115 -28.1651 1.07956e-20)
(4.00314 -27.7588 -4.0577e-21)
(3.29724 -27.4345 -2.86686e-20)
(2.77969 -27.0703 -1.19821e-20)
(2.2472 -26.7771 0)
(1.89662 -26.5086 1.50479e-20)
(1.52987 -26.263 -2.97374e-20)
(1.27284 -26.1024 -1.60695e-20)
(1.03586 -25.9438 -1.68547e-20)
(0.832938 -25.8227 0)
(0.679997 -25.7026 -1.79097e-20)