/*--------------------------------*- C++ -*----------------------------------*\
  =========                 |
  \\      /  F ield         | OpenFOAM: The Open Source CFD Toolbox
   \\    /   O peration     | Website:  https://openfoam.org
    \\  /    A nd           | Version:  9
     \\/     M anipulation  |
\*---------------------------------------------------------------------------*/
FoamFile
{
    format      ascii;
    class       surfaceScalarField;
    location    "1.8";
    object      phi;
}
// * * * * * * * * * * * * * * * * * * * * * * * * * * * * * * * * * * * * * //

dimensions      [0 3 -1 0 0 0 0];

internalField   nonuniform List<scalar> 
92080
(
0.00144466
-0.428762
0.427317
-0.015083
-0.876746
0.893274
-0.0501961
-0.965647
1.00076
-0.0862602
-0.951368
0.987433
-0.121328
-0.936304
0.971372
-0.155968
-0.92175
0.95639
-0.190089
-0.908687
0.942808
-0.224099
-0.895814
0.929823
-0.257404
-0.883958
0.917263
-0.290576
-0.871357
0.90453
-0.323843
-0.862393
0.895659
-0.356887
-0.853673
0.886718
-0.389464
-0.845388
0.877965
-0.421666
-0.837145
0.869347
-0.454159
-0.829818
0.86231
-0.486533
-0.822957
0.85533
-0.518144
-0.816503
0.848115
-0.549029
-0.809386
0.840271
-0.579094
-0.801656
0.831721
-0.796518
0.824453
-0.607029
-0.000658116
-0.428104
-0.0210376
-0.856366
-0.0572365
-0.929448
-0.0945607
-0.914044
-0.1312
-0.899665
-0.167632
-0.885319
-0.203644
-0.872674
-0.238992
-0.860467
-0.273956
-0.848993
-0.309148
-0.836165
-0.344475
-0.827066
-0.37922
-0.818928
-0.413545
-0.811063
-0.447629
-0.803061
-0.481112
-0.796334
-0.513968
-0.790101
-0.546217
-0.784253
-0.577045
-0.778558
-0.606142
-0.772558
-0.767612
-0.635048
-0.00305106
-0.425053
-0.0273147
-0.832103
-0.0672294
-0.889534
-0.107277
-0.873997
-0.14647
-0.860472
-0.185013
-0.846776
-0.223106
-0.834581
-0.261034
-0.822538
-0.297852
-0.812176
-0.334204
-0.799813
-0.371092
-0.790178
-0.407922
-0.782098
-0.44402
-0.774965
-0.479634
-0.767447
-0.515597
-0.760371
-0.551441
-0.754257
-0.586769
-0.748925
-0.621327
-0.744
-0.654875
-0.739011
-0.734247
-0.68824
-0.0053781
-0.419675
-0.0339058
-0.803575
-0.0745122
-0.848927
-0.1156
-0.832909
-0.156104
-0.819967
-0.19623
-0.80665
-0.235703
-0.795107
-0.27452
-0.783722
-0.312879
-0.773816
-0.350912
-0.761781
-0.38894
-0.75215
-0.426979
-0.744059
-0.464814
-0.737131
-0.501968
-0.730292
-0.538382
-0.723958
-0.574959
-0.717681
-0.611978
-0.711906
-0.64869
-0.707287
-0.684356
-0.703346
-0.698537
-0.720065
-0.00477713
-0.414898
-0.0395073
-0.768845
-0.0825394
-0.805895
-0.125482
-0.789967
-0.168165
-0.777284
-0.210359
-0.764456
-0.252303
-0.753163
-0.294125
-0.741899
-0.33443
-0.733511
-0.37387
-0.722341
-0.413942
-0.712077
-0.454089
-0.703912
-0.493773
-0.697447
-0.533204
-0.69086
-0.572558
-0.684604
-0.6108
-0.679439
-0.648869
-0.673838
-0.687777
-0.66838
-0.726116
-0.665006
-0.661138
-0.763515
-0.000627297
-0.41427
-0.0384371
-0.731035
-0.0842626
-0.76007
-0.129971
-0.744258
-0.174736
-0.732519
-0.218863
-0.72033
-0.261916
-0.71011
-0.304618
-0.699197
-0.347093
-0.691037
-0.387934
-0.6815
-0.428231
-0.67178
-0.469365
-0.662778
-0.510605
-0.656207
-0.550813
-0.650652
-0.591012
-0.644405
-0.631695
-0.638755
-0.671173
-0.63436
-0.710856
-0.628696
-0.751332
-0.624531
-0.620869
-0.791601
3.43939e-05
-0.414305
-0.0410172
-0.689984
-0.0903151
-0.710772
-0.138396
-0.696177
-0.185688
-0.685228
-0.231993
-0.674025
-0.277823
-0.66428
-0.323033
-0.653987
-0.367043
-0.647026
-0.410104
-0.638439
-0.45226
-0.629624
-0.494091
-0.620947
-0.536928
-0.613371
-0.579509
-0.608071
-0.620543
-0.603371
-0.661448
-0.59785
-0.702359
-0.59345
-0.742067
-0.588988
-0.782296
-0.584302
-0.58063
-0.822534
0.00135843
-0.415663
-0.0412652
-0.64736
-0.0925958
-0.659441
-0.142252
-0.646521
-0.191091
-0.636388
-0.238899
-0.626216
-0.285102
-0.618077
-0.331336
-0.607753
-0.377564
-0.600798
-0.421695
-0.594308
-0.46472
-0.586599
-0.507096
-0.578571
-0.54974
-0.570726
-0.593745
-0.564067
-0.637733
-0.559382
-0.68063
-0.554953
-0.723336
-0.550744
-0.765448
-0.546876
-0.806524
-0.543226
-0.539022
-0.848133
-0.000837869
-0.414825
-0.0484277
-0.59977
-0.102476
-0.605393
-0.154091
-0.594906
-0.20425
-0.58623
-0.253737
-0.576729
-0.302251
-0.569564
-0.349215
-0.560788
-0.396281
-0.553733
-0.443075
-0.547514
-0.487911
-0.541763
-0.531095
-0.535387
-0.573372
-0.52845
-0.615651
-0.521788
-0.658976
-0.516057
-0.702566
-0.511363
-0.745714
-0.507596
-0.788725
-0.503866
-0.830864
-0.501086
-0.498099
-0.871787
-0.00699518
-0.40783
-0.055526
-0.551239
-0.109005
-0.551914
-0.16054
-0.543371
-0.211452
-0.535317
-0.261251
-0.526931
-0.30983
-0.520984
-0.358061
-0.512558
-0.405733
-0.50606
-0.45274
-0.500507
-0.500022
-0.494482
-0.54584
-0.489569
-0.590361
-0.483929
-0.63414
-0.478009
-0.677462
-0.472735
-0.721465
-0.467361
-0.765854
-0.463207
-0.810295
-0.459425
-0.855171
-0.45621
-0.453835
-0.899434
-0.0175008
-0.390329
-0.0685587
-0.500181
-0.122841
-0.497632
-0.175174
-0.491038
-0.225818
-0.484673
-0.276824
-0.475925
-0.326642
-0.471165
-0.374482
-0.464718
-0.422994
-0.457549
-0.470505
-0.452996
-0.516843
-0.448143
-0.563284
-0.443128
-0.608129
-0.439084
-0.652162
-0.433976
-0.695476
-0.42942
-0.737893
-0.424943
-0.780782
-0.420319
-0.823476
-0.416731
-0.866729
-0.412956
-0.410149
-0.910415
-0.0247873
-0.365542
-0.0759082
-0.449061
-0.129511
-0.444028
-0.182666
-0.437883
-0.234295
-0.433045
-0.284712
-0.425509
-0.3358
-0.420076
-0.385226
-0.415292
-0.433729
-0.409046
-0.483328
-0.403397
-0.532079
-0.399392
-0.580077
-0.39513
-0.628071
-0.39109
-0.674372
-0.387675
-0.720477
-0.383316
-0.765483
-0.379937
-0.809797
-0.376004
-0.854071
-0.372457
-0.89764
-0.369387
-0.366008
-0.941781
-0.0326737
-0.332868
-0.0857011
-0.396033
-0.139906
-0.389823
-0.193
-0.384789
-0.245139
-0.380905
-0.296603
-0.374045
-0.347394
-0.369286
-0.397312
-0.365374
-0.445572
-0.360785
-0.492909
-0.35606
-0.540945
-0.351355
-0.588111
-0.347964
-0.635082
-0.34412
-0.681854
-0.340903
-0.727336
-0.337834
-0.773061
-0.334213
-0.817468
-0.331597
-0.862039
-0.327886
-0.90593
-0.325496
-0.322115
-0.949823
-0.037995
-0.294873
-0.0913802
-0.342648
-0.146285
-0.334919
-0.201599
-0.329475
-0.254238
-0.328266
-0.305563
-0.32272
-0.358231
-0.316618
-0.410276
-0.313329
-0.461719
-0.309342
-0.511917
-0.305862
-0.561082
-0.302191
-0.610568
-0.298477
-0.65877
-0.295918
-0.707132
-0.29254
-0.754424
-0.290542
-0.801038
-0.287599
-0.847064
-0.28557
-0.891914
-0.283037
-0.936554
-0.280855
-0.278682
-0.979987
-0.0423484
-0.252525
-0.096857
-0.28814
-0.14988
-0.281896
-0.204859
-0.274496
-0.260128
-0.272996
-0.310863
-0.271985
-0.360455
-0.267026
-0.410725
-0.263059
-0.460192
-0.259876
-0.509979
-0.256075
-0.558759
-0.25341
-0.60749
-0.249747
-0.656286
-0.247121
-0.704683
-0.244144
-0.753536
-0.241689
-0.801764
-0.239371
-0.85023
-0.237103
-0.898086
-0.235181
-0.945822
-0.233119
-0.231275
-0.99323
-0.0447048
-0.20782
-0.104145
-0.2287
-0.159794
-0.226246
-0.214666
-0.219624
-0.272105
-0.215557
-0.329327
-0.214764
-0.382497
-0.213856
-0.434569
-0.210987
-0.485285
-0.209159
-0.534878
-0.206482
-0.583967
-0.204322
-0.631746
-0.201968
-0.679249
-0.199618
-0.726042
-0.197351
-0.772633
-0.195098
-0.819057
-0.192947
-0.865222
-0.190939
-0.911504
-0.188899
-0.957466
-0.187157
-0.185156
-1.00358
-0.0484846
-0.159335
-0.106518
-0.170667
-0.158734
-0.17403
-0.209454
-0.168905
-0.260335
-0.164676
-0.314143
-0.160956
-0.368603
-0.159396
-0.422036
-0.157553
-0.475389
-0.155807
-0.5276
-0.154271
-0.579351
-0.152571
-0.630232
-0.151087
-0.680231
-0.149619
-0.729532
-0.148051
-0.777932
-0.146698
-0.825822
-0.145057
-0.872989
-0.143771
-0.919752
-0.142137
-0.965994
-0.140915
-0.139334
-1.01182
-0.0499274
-0.109408
-0.114921
-0.105673
-0.177218
-0.111734
-0.233427
-0.112695
-0.286268
-0.111835
-0.337586
-0.109638
-0.388926
-0.108057
-0.440137
-0.106342
-0.490804
-0.105139
-0.541335
-0.103741
-0.591209
-0.102696
-0.640891
-0.101405
-0.690036
-0.100474
-0.738759
-0.0993281
-0.787012
-0.0984452
-0.834651
-0.0974176
-0.881915
-0.0965071
-0.928487
-0.0955645
-0.974796
-0.0946057
-0.0937095
-1.02042
-0.0501957
-0.0592123
-0.0994198
-0.0564486
-0.15701
-0.0541436
-0.213721
-0.0559842
-0.271221
-0.0543349
-0.326191
-0.0546681
-0.380524
-0.0537229
-0.433575
-0.0532912
-0.48621
-0.0525045
-0.537923
-0.0520275
-0.589272
-0.0513474
-0.639789
-0.0508883
-0.689995
-0.0502676
-0.739452
-0.0498712
-0.788602
-0.0492951
-0.83704
-0.0489799
-0.88512
-0.0484264
-0.932519
-0.0481654
-0.979484
-0.0476406
-0.0473654
-1.02583
-0.0779884
0.0187761
-0.129573
-0.00486364
-0.182314
-0.00140314
-0.233091
-0.00520746
-0.285721
-0.00170478
-0.337234
-0.00315427
-0.389641
-0.00131645
-0.440809
-0.00212269
-0.492359
-0.000954609
-0.542827
-0.00155945
-0.593381
-0.00079417
-0.642972
-0.00129651
-0.692487
-0.000753143
-0.741187
-0.00117101
-0.789709
-0.000773191
-0.83756
-0.00112862
-0.885142
-0.000844646
-0.93215
-0.00115676
-0.978814
-0.000976686
-1.02483
-0.0013453
-0.0112967
0.0497571
-0.0384604
0.00444816
0.0369923
-0.0527371
0.0745442
-0.0539795
-0.0161166
0.245275
-0.286915
0.116184
0.479814
-0.633979
0.399441
0.664661
-0.895312
0.710465
0.762864
-1.02891
0.930709
0.80832
-1.07828
1.03282
0.83172
-1.09385
1.07045
0.845849
-1.09715
1.08302
0.855405
-1.09581
1.08626
0.862358
-1.09187
1.08492
0.86946
-1.08974
1.08263
0.878007
-1.08797
1.07942
0.887178
-1.08816
1.07899
0.894968
-1.08637
1.07858
0.901666
-1.08599
1.07929
0.908459
-1.08402
1.07723
0.915523
-1.08418
1.07712
-1.08164
0.921547
1.07561
-0.000429198
0.0501863
0.037572
-0.00100887
0.142568
-0.158975
0.357838
-0.502186
0.549777
-0.825918
0.662869
-1.0084
0.71488
-1.08092
0.739122
-1.10252
0.752121
-1.10685
0.760541
-1.10557
0.76643
-1.1017
0.772739
-1.09818
0.780086
-1.09708
0.786857
-1.09474
0.792574
-1.09388
0.798181
-1.09198
0.803895
-1.0917
0.809326
-1.08945
0.813425
-1.08828
-1.08534
0.81713
0.00847144
0.0417149
0.0651475
-0.0576849
0.216847
-0.310675
0.415077
-0.700416
0.548365
-0.959207
0.614285
-1.07432
0.642113
-1.10875
0.655401
-1.11581
0.663776
-1.11522
0.669565
-1.11136
0.674726
-1.10686
0.680909
-1.10437
0.685984
-1.10216
0.690702
-1.09946
0.695681
-1.09886
0.700611
-1.09691
0.704694
-1.09579
0.707155
-1.09191
0.709569
-1.0907
-1.0879
0.712123
0.026035
0.0156799
0.100505
-0.132155
0.278593
-0.488763
0.432837
-0.85466
0.519639
-1.04601
0.554477
-1.10916
0.569474
-1.12375
0.577905
-1.12424
0.584011
-1.12133
0.587563
-1.11491
0.591921
-1.11122
0.595832
-1.10828
0.599528
-1.10585
0.603557
-1.10349
0.606958
-1.10226
0.6094
-1.09935
0.610699
-1.09709
0.612267
-1.09348
0.614185
-1.09261
-1.08833
0.614619
0.0402364
-0.0245565
0.130272
-0.22219
0.295529
-0.65402
0.408902
-0.968033
0.459751
-1.09686
0.479975
-1.12939
0.489443
-1.13321
0.495579
-1.13037
0.498201
-1.12395
0.501095
-1.1178
0.504419
-1.11454
0.507592
-1.11145
0.510207
-1.10847
0.512166
-1.10544
0.513456
-1.10355
0.514224
-1.10012
0.514622
-1.09748
0.51502
-1.09388
0.51459
-1.09218
-1.08663
0.512894
0.0379925
-0.062549
0.155927
-0.340124
0.292589
-0.790683
0.369865
-1.04531
0.40065
-1.12764
0.41222
-1.14096
0.418173
-1.13917
0.420821
-1.13302
0.423109
-1.12624
0.425617
-1.12031
0.427664
-1.11659
0.42875
-1.11254
0.429096
-1.10882
0.42939
-1.10574
0.429072
-1.10323
0.428008
-1.09906
0.42627
-1.09574
0.424257
-1.09186
0.421604
-1.08953
-1.08296
0.417935
0.0349949
-0.0975439
0.156269
-0.461398
0.260272
-0.894687
0.313163
-1.0982
0.330984
-1.14546
0.338206
-1.14818
0.342073
-1.14303
0.344129
-1.13508
0.34562
-1.12773
0.346269
-1.12096
0.346415
-1.11674
0.345957
-1.11208
0.345226
-1.10808
0.343884
-1.1044
0.341633
-1.10098
0.338826
-1.09625
0.335673
-1.09259
0.332424
-1.08862
0.328229
-1.08533
-1.07766
0.322926
0.0390685
-0.136612
0.14537
-0.567699
0.228017
-0.977334
0.262741
-1.13292
0.273794
-1.15652
0.279145
-1.15353
0.280143
-1.14403
0.280444
-1.13538
0.279817
-1.1271
0.278832
-1.11998
0.277261
-1.11517
0.274841
-1.10966
0.2716
-1.10484
0.267855
-1.10065
0.263495
-1.09662
0.25862
-1.09137
0.253268
-1.08724
0.247486
-1.08283
0.24079
-1.07864
-1.07052
0.23365
0.0435183
-0.180131
0.132123
-0.656304
0.191479
-1.03669
0.210952
-1.1524
0.215864
-1.16143
0.215984
-1.15365
0.21493
-1.14298
0.213335
-1.13378
0.210876
-1.12464
0.207695
-1.11679
0.20381
-1.11128
0.199168
-1.10501
0.194213
-1.09989
0.188743
-1.09518
0.182549
-1.09042
0.175882
-1.08471
0.16876
-1.08012
0.161313
-1.07539
0.153085
-1.07041
-1.06186
0.144424
0.0457581
-0.225889
0.115658
-0.726205
0.1588
-1.07983
0.169546
-1.16314
0.170852
-1.16273
0.16845
-1.15125
0.165431
-1.13996
0.161172
-1.12952
0.156017
-1.11949
0.150302
-1.11108
0.143973
-1.10495
0.136956
-1.098
0.129263
-1.09219
0.12099
-1.08691
0.112193
-1.08163
0.102974
-1.07549
0.0933403
-1.07049
0.0833142
-1.06536
0.0726347
-1.05973
-1.05105
0.0618263
0.0423517
-0.268241
0.0991688
-0.783022
0.126569
-1.10723
0.12783
-1.1644
0.123403
-1.15831
0.117124
-1.14497
0.110456
-1.13329
0.103194
-1.12226
0.0953777
-1.11167
0.087041
-1.10274
0.0781601
-1.09607
0.068673
-1.08851
0.0588174
-1.08234
0.0485272
-1.07662
0.037773
-1.07087
0.0266357
-1.06435
0.0150309
-1.05888
0.00307835
-1.05341
-0.00919569
-1.04746
-1.0385
-0.0217506
0.0364457
-0.304686
0.0830526
-0.829629
0.0986439
-1.12282
0.0953806
-1.16114
0.0877421
-1.15067
0.0794348
-1.13666
0.0703227
-1.12418
0.0604916
-1.11243
0.049942
-1.10112
0.0388177
-1.09162
0.0271526
-1.08441
0.0149164
-1.07628
0.00218261
-1.06961
-0.0109952
-1.06344
-0.0245713
-1.0573
-0.038521
-1.0504
-0.0528777
-1.04452
-0.0673985
-1.03889
-0.0822354
-1.03262
-1.0238
-0.0969353
0.0283125
-0.332999
0.0616302
-0.862946
0.0685339
-1.12973
0.0598854
-1.15249
0.0483016
-1.13908
0.0364216
-1.12478
0.0239169
-1.11168
0.0108423
-1.09936
-0.00263414
-1.08765
-0.0165592
-1.07769
-0.0308198
-1.07015
-0.0454966
-1.0616
-0.0606062
-1.0545
-0.076076
-1.04797
-0.0917512
-1.04162
-0.107697
-1.03445
-0.124045
-1.02818
-0.140642
-1.02229
-0.157264
-1.016
-1.00718
-0.173883
0.0265534
-0.359552
0.0517456
-0.888139
0.0496346
-1.12762
0.0372293
-1.14009
0.0224507
-1.12431
0.00750182
-1.10983
-0.00794091
-1.09623
-0.0237532
-1.08354
-0.0400419
-1.07136
-0.0568381
-1.0609
-0.0740496
-1.05294
-0.0916564
-1.04399
-0.109552
-1.0366
-0.127718
-1.0298
-0.146148
-1.02319
-0.164801
-1.0158
-0.183745
-1.00923
-0.202784
-1.00325
-0.221511
-0.997271
-0.988573
-0.240116
0.018758
-0.37831
0.0336887
-0.903069
0.0247319
-1.11866
0.007586
-1.12294
-0.0102695
-1.10645
-0.0284611
-1.09164
-0.0469493
-1.07774
-0.0658844
-1.06461
-0.08509
-1.05215
-0.104658
-1.04133
-0.12435
-1.03324
-0.144298
-1.02404
-0.164742
-1.01616
-0.185444
-1.0091
-0.206067
-1.00257
-0.226762
-0.995106
-0.24782
-0.988174
-0.269094
-0.981977
-0.289867
-0.976498
-0.967953
-0.310487
0.0171694
-0.395479
0.0272406
-0.913141
0.0127473
-1.10417
-0.00763418
-1.10256
-0.0287656
-1.08532
-0.0501286
-1.07028
-0.0717755
-1.0561
-0.0934998
-1.04288
-0.115472
-1.03018
-0.137922
-1.01888
-0.160656
-1.01051
-0.183514
-1.00119
-0.206474
-0.993196
-0.229707
-0.98587
-0.253143
-0.979132
-0.276559
-0.97169
-0.300118
-0.964616
-0.323908
-0.958186
-0.347135
-0.953271
-0.945115
-0.369973
0.0119053
-0.407385
0.0143854
-0.915621
-0.00588985
-1.08389
-0.0308911
-1.07756
-0.0555025
-1.06071
-0.0800703
-1.04571
-0.104507
-1.03166
-0.129207
-1.01819
-0.15395
-1.00544
-0.178931
-0.993897
-0.203899
-0.985543
-0.228995
-0.97609
-0.254566
-0.967624
-0.28023
-0.960207
-0.305664
-0.953698
-0.331044
-0.946309
-0.356655
-0.939006
-0.382642
-0.9322
-0.408328
-0.927585
-0.920275
-0.433168
0.00969512
-0.41708
0.00734054
-0.913266
-0.0161755
-1.06037
-0.0428525
-1.05088
-0.0698999
-1.03366
-0.0970359
-1.01857
-0.124232
-1.00446
-0.151255
-0.991163
-0.178381
-0.97831
-0.206028
-0.96625
-0.233896
-0.957675
-0.261595
-0.948391
-0.289343
-0.939876
-0.317615
-0.931935
-0.346109
-0.925205
-0.374326
-0.918092
-0.402411
-0.910921
-0.430894
-0.903717
-0.45996
-0.898519
-0.892108
-0.488127
0.00600591
-0.423086
-0.00148299
-0.905777
-0.0307029
-1.03115
-0.0616954
-1.01989
-0.0918849
-1.00347
-0.121979
-0.98848
-0.151686
-0.974758
-0.181519
-0.96133
-0.211126
-0.948703
-0.240892
-0.936484
-0.270695
-0.927873
-0.300518
-0.918568
-0.330578
-0.909816
-0.360652
-0.901861
-0.390813
-0.895043
-0.421159
-0.887747
-0.451631
-0.880449
-0.482265
-0.873082
-0.514223
-0.866561
-0.861152
-0.545178
0.0042316
-0.00827196
-0.0386657
-0.0711218
-0.103221
-0.13531
-0.16726
-0.198766
-0.230206
-0.26216
-0.294374
-0.326224
-0.358075
-0.390589
-0.423322
-0.455738
-0.488072
-0.520884
-0.555725
-0.592424
0.845066
-9.57674
9.65322
0.781728
-9.4409
9.50423
0.716854
-9.46202
9.5269
0.657162
-9.48313
9.54282
0.599351
-9.51855
9.57636
0.544658
-9.54097
9.59566
0.492817
-9.54005
9.59189
0.443218
-9.56501
9.6146
0.396767
-9.59751
9.64396
0.353385
-9.60962
9.653
0.313342
-9.62122
9.66126
0.276354
-9.62558
9.66257
0.242687
-9.63015
9.66382
0.211873
-9.63399
9.66481
0.18414
-9.6351
9.66283
0.158065
-9.62393
9.65
0.135234
-9.56523
9.58806
0.103476
-9.05439
9.08615
0.0525256
-7.38692
7.43787
-3.98261
4.03514
0.742665
-9.50227
0.681008
-9.37924
0.620596
-9.40161
0.56848
-9.43102
0.514382
-9.46445
0.461022
-9.48761
0.411322
-9.49035
0.366131
-9.51981
0.325941
-9.55732
0.289059
-9.57274
0.255544
-9.58771
0.225209
-9.59524
0.198412
-9.60335
0.174584
-9.61016
0.15382
-9.61433
0.135335
-9.60544
0.119244
-9.54914
0.0928554
-9.028
0.048723
-7.34279
-3.93389
0.640749
-9.4309
0.582486
-9.32097
0.525371
-9.3445
0.476775
-9.38242
0.428009
-9.41569
0.383057
-9.44266
0.34317
-9.45046
0.305232
-9.48188
0.270639
-9.52273
0.239099
-9.5412
0.210943
-9.55955
0.185851
-9.57015
0.164078
-9.58158
0.14502
-9.5911
0.12921
-9.59852
0.115092
-9.59133
0.104086
-9.53813
0.0849837
-9.0089
0.046904
-7.30471
-3.88698
0.541137
-9.35742
0.484731
-9.26457
0.431594
-9.29136
0.388615
-9.33944
0.343288
-9.37036
0.300498
-9.39987
0.263071
-9.41303
0.229365
-9.44817
0.200814
-9.49417
0.175626
-9.51601
0.15385
-9.53777
0.135231
-9.55153
0.12012
-9.56647
0.107937
-9.57892
0.0989747
-9.58956
0.0923249
-9.58468
0.0880823
-9.53389
0.07457
-8.99539
0.0433608
-7.2735
-3.84362
0.442611
-9.28713
0.388642
-9.2106
0.339135
-9.24185
0.300338
-9.30064
0.259828
-9.32985
0.224662
-9.3647
0.19632
-9.38469
0.169553
-9.4214
0.146436
-9.47106
0.126443
-9.49602
0.109871
-9.5212
0.0963905
-9.53805
0.0862259
-9.55631
0.0786931
-9.57139
0.0745785
-9.58545
0.0721684
-9.58227
0.0729638
-9.53468
0.0666838
-8.98911
0.0415828
-7.2484
-3.80204
0.345787
-9.21499
0.294265
-9.15908
0.248758
-9.19635
0.213102
-9.26499
0.175957
-9.29271
0.143732
-9.33248
0.117967
-9.35893
0.0953079
-9.39874
0.0779922
-9.45374
0.0641664
-9.48219
0.0537867
-9.51082
0.0465741
-9.53084
0.0428396
-9.55257
0.0420266
-9.57058
0.0445943
-9.58801
0.0494957
-9.58717
0.0570276
-9.54222
0.0565063
-8.98859
0.03821
-7.2301
-3.76383
0.251329
-9.14339
0.201167
-9.10892
0.158641
-9.15382
0.127424
-9.23377
0.0953928
-9.26067
0.0703893
-9.30747
0.0529794
-9.34152
0.0369152
-9.38268
0.0248585
-9.44169
0.0160664
-9.4734
0.0107176
-9.50547
0.00848914
-9.52861
0.00958658
-9.55367
0.0132608
-9.57425
0.0205232
-9.59528
0.0295212
-9.59617
0.0419965
-9.55469
0.0485995
-8.99519
0.0364034
-7.21791
-3.72743
0.159241
-9.06898
0.11111
-9.06078
0.0722778
-9.11499
0.0428308
-9.20432
0.013665
-9.23151
-0.00833471
-9.28547
-0.0232058
-9.32665
-0.0352532
-9.37063
-0.0418175
-9.43512
-0.0446774
-9.47054
-0.0440635
-9.50609
-0.0402433
-9.53243
-0.0329803
-9.56093
-0.0227704
-9.58446
-0.00904273
-9.609
0.00707204
-9.61228
0.0262046
-9.57382
0.0386589
-9.00765
0.0331443
-7.21239
-3.69428
0.0690876
-8.99364
0.0219658
-9.01366
-0.0156629
-9.07736
-0.040937
-9.17905
-0.063785
-9.20866
-0.0787354
-9.27052
-0.0860322
-9.31935
-0.0918782
-9.36479
-0.0934062
-9.43359
-0.0913992
-9.47255
-0.0859591
-9.51153
-0.0773338
-9.54106
-0.0654216
-9.57284
-0.0508916
-9.59899
-0.0326942
-9.6272
-0.0126307
-9.63234
0.0113172
-9.59777
0.0307407
-9.02707
0.0312453
-7.2129
-3.66304
-0.0175787
-8.91424
-0.0642697
-8.96697
-0.0983344
-9.04329
-0.122346
-9.15504
-0.142722
-9.18828
-0.155111
-9.25813
-0.159831
-9.31463
-0.161616
-9.363
-0.157933
-9.43728
-0.150275
-9.4802
-0.139117
-9.52269
-0.124705
-9.55547
-0.106886
-9.59066
-0.0860769
-9.6198
-0.0616875
-9.65159
-0.0347231
-9.65931
-0.00423691
-9.62826
0.0210416
-9.05235
0.0280546
-7.21991
-3.63498
-0.101986
-8.834
-0.149487
-8.91947
-0.182614
-9.01017
-0.202926
-9.13473
-0.216272
-9.17494
-0.222021
-9.25239
-0.220031
-9.31662
-0.216093
-9.36694
-0.207702
-9.44567
-0.19538
-9.49252
-0.179598
-9.53847
-0.160597
-9.57447
-0.138331
-9.61293
-0.11341
-9.64472
-0.0847994
-9.6802
-0.0540753
-9.69003
-0.0189087
-9.66342
0.0130929
-9.08435
0.0260436
-7.23286
-3.60894
-0.181683
-8.74926
-0.231082
-8.87007
-0.262589
-8.97866
-0.281108
-9.11621
-0.292302
-9.16374
-0.29566
-9.24903
-0.291106
-9.32117
-0.283051
-9.37499
-0.269707
-9.45901
-0.252043
-9.51019
-0.23082
-9.55969
-0.206318
-9.59897
-0.178436
-9.64081
-0.147531
-9.67563
-0.11303
-9.7147
-0.0756945
-9.72737
-0.034151
-9.70497
0.00355545
-9.12206
0.0229588
-7.25227
-3.58598
-0.262177
-8.66096
-0.31115
-8.8211
-0.342293
-8.94752
-0.357194
-9.10131
-0.361764
-9.15918
-0.359309
-9.25148
-0.348643
-9.33184
-0.335197
-9.38844
-0.317417
-9.47679
-0.295319
-9.53229
-0.269678
-9.58533
-0.240813
-9.62784
-0.208707
-9.67292
-0.17392
-9.71041
-0.135476
-9.75315
-0.0946001
-9.76824
-0.0485389
-9.75103
-0.0043904
-9.1662
0.0209174
-7.27757
-3.56506
-0.336728
-8.56435
-0.388218
-8.76961
-0.418397
-8.91734
-0.43155
-9.08815
-0.434059
-9.15667
-0.429412
-9.25613
-0.416475
-9.34478
-0.399025
-9.40589
-0.376581
-9.49923
-0.349464
-9.5594
-0.318673
-9.61612
-0.284609
-9.6619
-0.247203
-9.71032
-0.206765
-9.75085
-0.162759
-9.79715
-0.115605
-9.8154
-0.063397
-9.80324
-0.0136065
-9.21599
0.0179683
-7.30915
-3.5471
-0.411317
-8.46352
-0.462595
-8.71833
-0.492554
-8.88738
-0.503038
-9.07767
-0.500052
-9.15965
-0.490048
-9.26613
-0.471366
-9.36346
-0.448746
-9.42851
-0.422044
-9.52594
-0.390724
-9.59072
-0.355724
-9.65112
-0.317523
-9.7001
-0.276127
-9.75172
-0.23206
-9.79492
-0.184416
-9.8448
-0.133971
-9.86584
-0.0775133
-9.8597
-0.0216003
-9.27191
0.0159184
-7.34667
-3.53118
-0.48065
-8.35284
-0.534863
-8.66412
-0.563431
-8.85881
-0.57235
-9.06875
-0.56782
-9.16418
-0.556144
-9.27781
-0.535629
-9.38397
-0.509171
-9.45497
-0.478054
-9.55705
-0.442046
-9.62673
-0.402207
-9.69096
-0.359123
-9.74319
-0.312767
-9.79807
-0.263419
-9.84427
-0.210574
-9.89764
-0.154233
-9.92218
-0.0920164
-9.92191
-0.0306222
-9.3333
0.0133169
-7.39061
-3.51786
-0.549778
-8.23623
-0.603685
-8.61021
-0.631984
-8.83051
-0.639435
-9.0613
-0.630133
-9.17348
-0.613099
-9.29484
-0.587382
-9.40969
-0.556186
-9.48616
-0.520994
-9.59225
-0.481012
-9.66671
-0.437186
-9.73479
-0.390207
-9.79016
-0.340122
-9.84816
-0.287426
-9.89696
-0.231282
-9.95379
-0.1719
-9.98157
-0.105779
-9.98803
-0.0386959
-9.40038
0.0114419
-7.44074
-3.50642
-0.617718
-8.10664
-0.673285
-8.55464
-0.69797
-8.80583
-0.703613
-9.05565
-0.693848
-9.18325
-0.67572
-9.31297
-0.648306
-9.4371
-0.613351
-9.52112
-0.573884
-9.63171
-0.529453
-9.71115
-0.481064
-9.78318
-0.429485
-9.84174
-0.374754
-9.90289
-0.317151
-9.95456
-0.25616
-10.0148
-0.191291
-10.0464
-0.119691
-10.0596
-0.047295
-9.47278
0.00920939
-7.49725
-3.49721
-0.673085
-7.97874
-0.736159
-8.49157
-0.761948
-8.78004
-0.766693
-9.05091
-0.752147
-9.1978
-0.72875
-9.33637
-0.696944
-9.46891
-0.657995
-9.56007
-0.614581
-9.67513
-0.566338
-9.75939
-0.514144
-9.83537
-0.458846
-9.89704
-0.400597
-9.96114
-0.339941
-10.0152
-0.27594
-10.0788
-0.20831
-10.1141
-0.133346
-10.1346
-0.0556019
-9.55052
0.00751105
-7.56036
-3.4897
-0.724768
-7.84639
-0.795512
-8.42082
-0.817736
-8.75782
-0.82173
-9.04691
-0.807963
-9.21156
-0.783868
-9.36046
-0.750975
-9.5018
-0.708985
-9.60206
-0.662145
-9.72197
-0.609989
-9.81154
-0.554041
-9.89132
-0.494585
-9.9565
-0.432475
-10.0233
-0.367259
-10.0804
-0.299381
-10.1467
-0.226193
-10.1873
-0.147302
-10.2135
-0.0636883
-9.63414
0.00512006
-7.62917
-3.48458
8.0235
-7.49261
-8.37729
7.39609
-7.79341
6.8162
-8.17793
6.18609
-8.41681
5.64442
-8.6699
5.1406
-8.85664
4.67313
-9.03433
4.2531
-9.18203
3.85425
-9.32312
3.47945
-9.43674
3.12286
-9.53473
2.78016
-9.61379
2.44604
-9.68913
2.12186
-9.75626
1.7912
-9.816
1.49328
-9.88934
1.16691
-9.88711
0.799745
-9.26697
0.33044
-7.15986
-3.15414
4.70724
-7.41107
-4.78878
4.56288
-7.64905
4.33557
-7.95062
4.10656
-8.18779
3.8519
-8.41524
3.59404
-8.59878
3.32715
-8.76744
3.06208
-8.91695
2.78921
-9.05025
2.51546
-9.163
2.24378
-9.26305
1.98595
-9.35596
1.74038
-9.44357
1.50674
-9.52261
1.28734
-9.5966
1.08123
-9.68323
0.845623
-9.6515
0.57024
-8.99159
0.183939
-6.77356
-2.9702
3.39082
-7.50337
-3.29852
3.43835
-7.69658
3.41155
-7.92381
3.33476
-8.111
3.2027
-8.28318
3.04993
-8.44601
2.87599
-8.5935
2.68864
-8.7296
2.48663
-8.84824
2.28047
-8.95684
2.07462
-9.0572
1.87003
-9.15138
1.66246
-9.23599
1.45304
-9.31319
1.24165
-9.38521
1.01737
-9.45896
0.787768
-9.4219
0.54114
-8.74496
0.234415
-6.46684
-2.73578
2.18583
-7.66453
-2.02466
2.28918
-7.79993
2.30351
-7.93814
2.28457
-8.09206
2.23209
-8.2307
2.1552
-8.36912
2.05241
-8.49071
1.92804
-8.60524
1.78977
-8.70997
1.64276
-8.80983
1.49104
-8.90548
1.33567
-8.99601
1.17867
-9.07899
1.02575
-9.16027
0.870665
-9.23012
0.719368
-9.30766
0.572054
-9.27458
0.408806
-8.58172
0.177905
-6.23594
-2.55788
1.55369
-7.79878
-1.41944
1.64124
-7.88749
1.70151
-7.99841
1.73482
-8.12537
1.73076
-8.22663
1.69404
-8.33241
1.63541
-8.43207
1.55729
-8.52712
1.46716
-8.61984
1.36416
-8.70683
1.24945
-8.79077
1.12479
-8.87134
0.992522
-8.94673
0.852138
-9.01988
0.710514
-9.0885
0.563898
-9.16105
0.420267
-9.13095
0.300174
-8.46162
0.158682
-6.09445
-2.3992
1.0304
-7.90969
-0.919484
1.12774
-7.98483
1.18419
-8.05487
1.19708
-8.13826
1.19039
-8.21995
1.16223
-8.30425
1.11782
-8.38767
1.05869
-8.46798
0.98848
-8.54963
0.907878
-8.62623
0.818255
-8.70114
0.721693
-8.77478
0.623086
-8.84812
0.523856
-8.92065
0.424976
-8.98962
0.322907
-9.05898
0.23015
-9.03819
0.179661
-8.41113
0.114626
-6.02941
-2.28457
0.702285
-7.99004
-0.621935
0.758504
-8.04105
0.795758
-8.09212
0.825103
-8.1676
0.839764
-8.23461
0.831632
-8.29611
0.806846
-8.36288
0.766433
-8.42757
0.712551
-8.49575
0.646137
-8.55982
0.571656
-8.62666
0.488231
-8.69136
0.400118
-8.76001
0.30339
-8.82392
0.200763
-8.88699
0.0932779
-8.95149
-0.0071816
-8.93773
-0.02584
-8.39247
0.0414829
-6.09673
-2.24309
0.478848
-8.04587
-0.423021
0.52569
-8.08789
0.561953
-8.12838
0.574987
-8.18064
0.566748
-8.22637
0.545908
-8.27527
0.513035
-8.33001
0.469715
-8.38425
0.415066
-8.4411
0.353942
-8.49869
0.288439
-8.56116
0.215269
-8.61819
0.135315
-8.68005
0.0461922
-8.7348
-0.0421595
-8.79864
-0.136012
-8.85764
-0.216601
-8.85715
-0.199783
-8.40929
-0.0117619
-6.28475
-2.25485
0.290327
-8.08037
-0.255827
0.313314
-8.11087
0.328524
-8.14359
0.330258
-8.18237
0.327367
-8.22348
0.318029
-8.26594
0.29677
-8.30875
0.263577
-8.35106
0.220442
-8.39796
0.166406
-8.44466
0.101628
-8.49638
0.0264204
-8.54298
-0.0573634
-8.59627
-0.147554
-8.64461
-0.24177
-8.70443
-0.339739
-8.75967
-0.418938
-8.77795
-0.390462
-8.43777
-0.120899
-6.55432
-2.37575
0.185061
-8.09936
-0.166071
0.197699
-8.12351
0.203887
-8.14978
0.200973
-8.17946
0.18692
-8.20943
0.159137
-8.23815
0.123382
-8.27299
0.0815392
-8.30922
0.0327428
-8.34917
-0.0259609
-8.38595
-0.0959194
-8.42642
-0.172704
-8.46619
-0.255453
-8.51352
-0.343826
-8.55624
-0.442615
-8.60564
-0.549914
-8.65237
-0.645449
-8.68241
-0.633271
-8.44995
-0.292202
-6.89538
-2.66795
0.0798602
-8.10439
-0.0748296
0.078789
-8.12244
0.0720436
-8.14304
0.0563278
-8.16374
0.0328682
-8.18597
0.00431223
-8.2096
-0.0311715
-8.23751
-0.0747361
-8.26565
-0.127825
-8.29608
-0.188192
-8.32559
-0.2543
-8.36032
-0.328219
-8.39227
-0.41243
-8.42931
-0.505326
-8.46334
-0.608894
-8.50207
-0.725322
-8.53594
-0.833547
-8.57419
-0.843434
-8.44006
-0.503516
-7.2353
-3.17147
0.0219541
-8.10218
-0.0241622
0.0139844
-8.11447
0.00187049
-8.13092
-0.0155425
-8.14633
-0.0378115
-8.1637
-0.0682505
-8.17916
-0.106714
-8.19905
-0.153604
-8.21876
-0.209045
-8.24064
-0.269565
-8.26507
-0.338294
-8.29159
-0.414302
-8.31627
-0.503795
-8.33982
-0.600295
-8.36684
-0.712443
-8.38992
-0.836792
-8.41159
-0.969526
-8.44145
-1.01717
-8.39242
-0.743067
-7.50941
-3.91453
-0.0246196
-8.09169
0.0141279
-0.0393591
-8.09973
-0.0597258
-8.11056
-0.0855936
-8.12046
-0.116365
-8.13293
-0.150077
-8.14545
-0.187346
-8.16178
-0.229592
-8.17652
-0.27713
-8.1931
-0.334134
-8.20806
-0.403132
-8.22259
-0.479328
-8.24007
-0.562325
-8.25682
-0.653946
-8.27522
-0.757145
-8.28672
-0.871456
-8.29728
-1.01459
-8.29832
-1.12239
-8.28461
-0.92248
-7.70932
-4.83701
-0.0523995
-8.07868
0.0393905
-0.0675418
-8.08459
-0.0856053
-8.09249
-0.106906
-8.09916
-0.132344
-8.10749
-0.162023
-8.11577
-0.196744
-8.12705
-0.237937
-8.13532
-0.283826
-8.14721
-0.336314
-8.15558
-0.392149
-8.16675
-0.457484
-8.17473
-0.530215
-8.18409
-0.615807
-8.18963
-0.709017
-8.19351
-0.809688
-8.19661
-0.922234
-8.18578
-1.02757
-8.17928
-0.879307
-7.85758
-5.71632
-0.0644215
-8.06295
0.0486889
-0.0828581
-8.06615
-0.103999
-8.07135
-0.127495
-8.07566
-0.153182
-8.0818
-0.181766
-8.08718
-0.213758
-8.09506
-0.248385
-8.1007
-0.290001
-8.10559
-0.335617
-8.10996
-0.383947
-8.11842
-0.437134
-8.12155
-0.494206
-8.12702
-0.557228
-8.12661
-0.623224
-8.12752
-0.695164
-8.12467
-0.77005
-8.11089
-0.847316
-8.10201
-0.752109
-7.95279
-6.46843
-0.0637287
-8.04968
0.0504577
-0.0784184
-8.05146
-0.0946809
-8.05509
-0.112795
-8.05755
-0.132805
-8.06179
-0.15607
-8.06392
-0.183193
-8.06794
-0.2134
-8.07049
-0.244209
-8.07479
-0.277904
-8.07626
-0.316888
-8.07944
-0.3589
-8.07954
-0.404622
-8.08129
-0.451924
-8.0793
-0.501415
-8.07803
-0.552032
-8.07406
-0.594255
-8.06867
-0.642052
-8.05421
-0.597916
-7.99692
-7.06635
-0.0602953
-8.03711
0.0477293
-0.0737592
-8.038
-0.0889129
-8.03993
-0.105186
-8.04128
-0.123366
-8.04361
-0.143258
-8.04403
-0.163522
-8.04767
-0.185184
-8.04883
-0.208627
-8.05134
-0.233341
-8.05155
-0.258776
-8.05401
-0.284536
-8.05378
-0.310562
-8.05527
-0.336737
-8.05313
-0.360549
-8.05421
-0.385575
-8.04903
-0.405363
-8.04888
-0.41814
-8.04144
-0.393499
-8.02156
-7.45985
-0.0455753