/*--------------------------------*- C++ -*----------------------------------*\
  =========                 |
  \\      /  F ield         | OpenFOAM: The Open Source CFD Toolbox
   \\    /   O peration     | Website:  https://openfoam.org
    \\  /    A nd           | Version:  9
     \\/     M anipulation  |
\*---------------------------------------------------------------------------*/
FoamFile
{
    format      ascii;
    class       volVectorField;
    location    "1.8";
    object      U;
}
// * * * * * * * * * * * * * * * * * * * * * * * * * * * * * * * * * * * * * //

dimensions      [0 1 -1 0 0 0 0];

internalField   nonuniform List<vector> 
46400
(
(7.64643 -7.52587 -1.98724e-19)
(16.0955 -15.2437 1.52254e-19)
(17.4577 -17.3622 -5.828e-20)
(16.9048 -17.4219 -4.98107e-20)
(16.3792 -17.399 -4.38278e-20)
(15.8015 -17.4343 4.76731e-20)
(15.3175 -17.4207 -5.32538e-20)
(14.8407 -17.4616 3.7424e-20)
(14.4176 -17.5028 -4.36301e-20)
(13.9649 -17.4939 4.90225e-20)
(13.5877 -17.5569 -5.3665e-20)
(13.2329 -17.6093 0)
(12.8927 -17.6809 3.70583e-19)
(12.556 -17.7107 -4.2503e-19)
(12.2328 -17.7635 -5.48998e-19)
(11.9485 -17.8274 -9.76057e-20)
(11.6491 -17.8984 -2.74616e-20)
(11.3754 -17.9014 4.42236e-19)
(11.0929 -17.8732 6.11177e-19)
(10.6839 -18.0774 -5.63224e-19)
(7.97091 -7.16477 0)
(16.2458 -14.3588 -2.86854e-20)
(17.3966 -16.0847 0)
(16.8143 -16.1896 8.55451e-20)
(16.2947 -16.2292 -8.26415e-20)
(15.7661 -16.3154 2.19868e-20)
(15.2941 -16.3963 0)
(14.8134 -16.4437 -3.74219e-20)
(14.3452 -16.4899 4.36278e-20)
(13.9103 -16.53 -4.90205e-20)
(13.5255 -16.6311 5.84319e-19)
(13.1671 -16.7097 3.51701e-20)
(12.8048 -16.7904 -4.8721e-19)
(12.4858 -16.8668 0)
(12.1771 -16.9649 6.68861e-20)
(11.8864 -17.0265 6.92013e-20)
(11.6026 -17.1213 0)
(11.3636 -17.1676 -6.65002e-19)
(11.1247 -17.2096 -1.72593e-19)
(10.7849 -17.407 6.77726e-19)
(8.26187 -6.77522 2.36047e-20)
(16.2996 -13.4369 -1.26213e-19)
(17.2543 -14.8606 1.13737e-19)
(16.6015 -15.0271 2.00992e-19)
(16.0887 -15.0956 -1.97324e-19)
(15.5066 -15.2111 0)
(15.0138 -15.2916 -6.50052e-19)
(14.5477 -15.4138 5.59845e-19)
(14.1221 -15.5353 -7.32514e-19)
(13.6487 -15.5719 7.25091e-19)
(13.2526 -15.6848 6.9493e-19)
(12.9053 -15.8048 -6.67594e-20)
(12.566 -15.9388 -6.039e-19)
(12.2242 -16.0177 0)
(11.9065 -16.1315 7.52624e-19)
(11.6299 -16.2506 -7.41211e-19)
(11.341 -16.3739 0)
(11.0951 -16.4531 -1.50309e-20)
(10.8321 -16.5377 8.69324e-20)
(10.4806 -16.7803 -8.01054e-19)
(8.44597 -6.33927 -1.50278e-19)
(16.2454 -12.4844 3.28078e-20)
(16.9548 -13.6031 2.81207e-19)
(16.3181 -13.8142 -2.77676e-19)
(15.8076 -13.9493 -2.46611e-19)
(15.2931 -14.1159 3.36089e-19)
(14.814 -14.2809 4.63932e-19)
(14.3331 -14.3879 -1.17482e-18)
(13.8851 -14.5339 9.85659e-19)
(13.4608 -14.6382 -9.25065e-20)
(13.0491 -14.7723 0)
(12.6902 -14.8971 9.73469e-20)
(12.3465 -15.0546 -9.9065e-20)
(12.041 -15.1914 0)
(11.7181 -15.3206 8.87212e-19)
(11.4273 -15.4279 -7.55248e-19)
(11.154 -15.5858 0)
(10.9256 -15.7093 1.02712e-19)
(10.6963 -15.8358 1.15861e-19)
(10.3323 -16.0991 9.25762e-19)
(8.59872 -5.89268 0)
(16.0564 -11.4215 0)
(16.6004 -12.4215 -4.00718e-19)
(15.9253 -12.6503 2.77753e-19)
(15.4104 -12.8207 -5.47658e-19)
(14.8455 -13.0058 4.44013e-19)
(14.3585 -13.1879 0)
(13.9126 -13.3868 4.93861e-19)
(13.4954 -13.592 -5.97559e-19)
(13.0268 -13.6916 -1.35901e-19)
(12.6234 -13.8605 -1.36576e-19)
(12.2716 -14.025 0)
(11.9347 -14.2154 1.02829e-18)
(11.6115 -14.3622 -1.01221e-18)
(11.3144 -14.5482 0)
(11.0314 -14.6985 -1.13762e-18)
(10.7315 -14.8414 1.00395e-18)
(10.4906 -14.9732 1.0058e-18)
(10.2672 -15.1435 -1.09803e-18)
(9.93623 -15.4365 0)
(8.80144 -5.44564 0)
(15.7094 -10.2463 0)
(16.1122 -11.1595 0)
(15.4789 -11.4527 -2.91949e-20)
(14.9565 -11.6941 0)
(14.4636 -11.937 0)
(13.9817 -12.1892 0)
(13.5058 -12.3566 -1.56569e-19)
(13.1037 -12.6197 0)
(12.7115 -12.8039 1.35903e-19)
(12.2747 -12.9676 -2.0228e-20)
(11.9143 -13.1338 -1.3357e-18)
(11.5854 -13.3559 1.00572e-18)
(11.2884 -13.5431 -1.32108e-18)
(10.9673 -13.7163 9.96601e-19)
(10.7091 -13.9075 0)
(10.4396 -14.1081 -1.13723e-18)
(10.1786 -14.2328 9.72724e-19)
(9.95937 -14.4133 0)
(9.6342 -14.7407 -1.53672e-19)
(9.03521 -5.0571 5.64557e-19)
(15.2545 -9.14832 1.64261e-19)
(15.4828 -9.97957 6.42085e-19)
(14.824 -10.2876 -6.62636e-19)
(14.3206 -10.5984 -6.69138e-19)
(13.7913 -10.8599 1.33243e-18)
(13.3361 -11.1598 -1.52135e-18)
(12.9105 -11.4214 1.4423e-19)
(12.5055 -11.6992 4.88552e-19)
(12.0991 -11.9061 0)
(11.7207 -12.1459 -1.96961e-20)
(11.3464 -12.3192 -1.87633e-20)
(11.0144 -12.5507 1.55138e-19)
(10.734 -12.7775 1.28675e-18)
(10.4474 -13.0025 -1.13124e-18)
(10.1592 -13.1667 -1.43897e-18)
(9.91082 -13.3953 1.2534e-18)
(9.67019 -13.5507 -1.43417e-20)
(9.43933 -13.7108 -1.59418e-19)
(9.14862 -14.0463 -1.14509e-18)
(9.28679 -4.63939 -1.87706e-19)
(14.6486 -8.06818 3.19099e-20)
(14.745 -8.79189 -2.02233e-19)
(14.1793 -9.1729 -7.98222e-19)
(13.677 -9.53854 5.51969e-19)
(13.2353 -9.8633 0)
(12.774 -10.2026 1.15384e-18)
(12.3284 -10.4409 -5.56256e-19)
(11.9759 -10.7998 3.78684e-19)
(11.6276 -11.0605 1.97676e-19)
(11.2278 -11.3048 -3.74541e-19)
(10.8865 -11.5187 9.09203e-19)
(10.5291 -11.738 1.90092e-19)
(10.2473 -11.969 -1.07827e-18)
(9.9841 -12.2402 3.01481e-18)
(9.73472 -12.4671 -1.22788e-18)
(9.47289 -12.6957 1.55183e-18)
(9.25472 -12.9 -1.0155e-18)
(9.02335 -13.0834 3.32187e-19)
(8.7333 -13.3967 1.60403e-18)
(9.49402 -4.24274 9.6644e-19)
(13.9232 -7.08192 -1.98936e-19)
(13.8115 -7.73344 -2.83864e-20)
(13.2647 -8.12411 4.34639e-19)
(12.7918 -8.56086 2.04361e-19)
(12.3344 -8.88851 2.27417e-19)
(11.9555 -9.30628 -1.0645e-18)
(11.5513 -9.60566 6.45061e-19)
(11.1659 -9.9356 -1.99794e-19)
(10.8567 -10.2551 -1.97672e-19)
(10.5394 -10.5756 -1.9533e-19)
(10.205 -10.8087 -2.0986e-19)
(9.8853 -11.0604 -3.96467e-19)
(9.57566 -11.2609 1.37304e-18)
(9.31099 -11.5143 -1.91987e-18)
(9.07633 -11.7528 -1.95575e-19)
(8.85367 -12.0143 1.34654e-20)
(8.64603 -12.2223 -1.44123e-18)
(8.46049 -12.458 1.07508e-18)
(8.20567 -12.7606 -1.71118e-18)
(9.57226 -3.93491 8.69973e-19)
(13.0459 -6.08014 -2.20214e-18)
(12.8487 -6.75354 1.45866e-18)
(12.4454 -7.1742 -2.30562e-19)
(12.0154 -7.65765 -2.52325e-19)
(11.6233 -8.03229 9.79112e-19)
(11.2229 -8.44588 -1.18637e-18)
(10.8536 -8.76956 0)
(10.516 -9.15947 9.17655e-19)
(10.1944 -9.46071 -9.02364e-19)
(9.88351 -9.8101 -6.5756e-19)
(9.61664 -10.1152 8.57336e-19)
(9.30566 -10.3989 2.06344e-19)
(9.03834 -10.6518 -8.40217e-19)
(8.75394 -10.9023 2.02163e-19)
(8.51141 -11.1371 1.00734e-18)
(8.28154 -11.4058 -1.77743e-18)
(8.08151 -11.6361 1.17311e-18)
(7.89075 -11.8846 -1.1488e-20)
(7.67797 -12.2311 -1.6331e-18)
(9.38347 -3.55579 1.20777e-18)
(12.0792 -5.24996 -8.15158e-19)
(11.7682 -5.89564 5.44956e-19)
(11.3535 -6.33426 7.11392e-21)
(10.9452 -6.82836 -1.07204e-18)
(10.5709 -7.21497 -1.01994e-18)
(10.2778 -7.70505 1.26755e-18)
(9.92096 -8.04207 -7.4546e-19)
(9.58986 -8.42413 9.8854e-19)
(9.33691 -8.79085 0)
(9.04059 -9.12583 1.55133e-20)
(8.78673 -9.44043 2.25765e-19)
(8.54148 -9.76579 2.35575e-19)
(8.2794 -10.0194 -2.30633e-19)
(8.05553 -10.3086 0)
(7.81611 -10.5351 2.20905e-19)
(7.60344 -10.7921 0)
(7.40984 -11.0164 4.11987e-19)
(7.22636 -11.2494 2.00902e-18)
(7.03372 -11.5724 -1.42991e-20)
(8.97679 -3.10544 6.66366e-19)
(11.0222 -4.42847 -1.41064e-19)
(10.7153 -5.08122 -2.05218e-18)
(10.4362 -5.55883 1.14863e-18)
(10.111 -6.1243 2.7349e-19)
(9.73213 -6.50525 -2.69235e-19)
(9.41061 -6.98551 -1.09469e-18)
(9.14536 -7.39415 8.15749e-19)
(8.80714 -7.78387 0)
(8.54678 -8.14568 0)
(8.30775 -8.55681 -1.2551e-18)
(8.05925 -8.87765 9.93326e-19)
(7.83355 -9.2448 -2.35545e-19)
(7.61714 -9.55135 -7.14918e-19)
(7.38154 -9.85232 6.3854e-21)
(7.19333 -10.142 1.59368e-18)
(6.96961 -10.4045 -8.90496e-19)
(6.79805 -10.6576 6.52693e-19)
(6.60769 -10.8996 -1.05841e-18)
(6.42072 -11.2073 0)
(8.36833 -2.62937 -5.81073e-19)
(9.92564 -3.72682 9.4014e-19)
(9.54786 -4.37489 1.60534e-19)
(9.20099 -4.83951 1.57745e-19)
(8.90634 -5.4066 0)
(8.62406 -5.85071 1.1825e-18)
(8.34596 -6.34425 -1.16177e-18)
(8.09502 -6.75871 1.45602e-19)
(7.83943 -7.19093 0)
(7.57362 -7.53727 1.08577e-18)
(7.34435 -7.92062 -9.31782e-19)
(7.14772 -8.278 1.03778e-18)
(6.9308 -8.61587 -1.02129e-18)
(6.75715 -8.95249 9.91056e-19)
(6.56211 -9.26502 -8.51805e-19)
(6.38276 -9.55341 -9.45954e-19)
(6.21334 -9.85661 1.85612e-18)
(6.03631 -10.0942 -7.95128e-19)
(5.89202 -10.3746 1.12787e-19)
(5.70321 -10.6589 9.48571e-19)
(7.58152 -2.14343 -4.6505e-19)
(8.73679 -3.05895 5.02691e-19)
(8.41793 -3.72913 -1.60541e-19)
(8.21979 -4.2595 -1.57739e-19)
(7.97657 -4.87768 0)
(7.65748 -5.29391 0)
(7.39998 -5.81605 0)
(7.20103 -6.26976 -2.97618e-19)
(6.9642 -6.73731 -1.16269e-18)
(6.77099 -7.14949 2.27927e-18)
(6.53522 -7.55184 -1.25346e-18)
(6.35319 -7.91935 -1.38384e-19)
(6.16719 -8.3082 0)
(5.99093 -8.62813 0)
(5.83613 -8.99902 -2.52658e-19)
(5.66939 -9.27901 0)
(5.52444 -9.61712 9.59442e-19)
(5.37446 -9.86346 -1.18037e-18)
(5.23678 -10.1541 -1.02584e-18)
(5.09293 -10.4368 9.96857e-19)
(6.67081 -1.67863 4.84459e-19)
(7.55603 -2.50038 8.77315e-19)
(7.15965 -3.15243 -2.66442e-23)
(6.83891 -3.6213 -1.22784e-21)
(6.7101 -4.29312 1.6681e-19)
(6.52661 -4.78574 -4.85017e-19)
(6.23399 -5.25135 0)
(6.04884 -5.6921 -4.65967e-19)
(5.85644 -6.15237 1.57918e-19)
(5.67471 -6.54952 5.93428e-19)
(5.51792 -6.98771 5.7497e-19)
(5.3345 -7.33729 -4.2729e-19)
(5.19514 -7.74766 1.09478e-18)
(5.03884 -8.07983 -9.41626e-19)
(4.90939 -8.45819 1.17049e-18)
(4.77843 -8.78132 -2.1716e-18)
(4.65368 -9.12814 1.00103e-18)
(4.54071 -9.43202 1.19541e-19)
(4.42264 -9.73888 9.42348e-19)
(4.30563 -10.0783 -1.0298e-18)
(5.60007 -1.2198 1.68908e-19)
(6.20808 -2.01567 -1.78985e-19)
(6.01303 -2.75241 7.17082e-19)
(5.76276 -3.26418 -7.03856e-19)
(5.55823 -3.89772 -3.42953e-19)
(5.47848 -4.48092 -8.35083e-19)
(5.31414 -5.05453 4.15546e-21)
(5.12518 -5.49528 6.42975e-19)
(4.96665 -5.99996 -1.53864e-19)
(4.80141 -6.38709 0)
(4.64912 -6.83334 0)
(4.50793 -7.18717 0)
(4.35589 -7.57705 0)
(4.23054 -7.90442 3.48481e-21)
(4.0902 -8.25604 0)
(3.97836 -8.56156 1.29403e-19)
(3.85243 -8.89157 5.08958e-19)
(3.75068 -9.17135 -1.49435e-18)
(3.641 -9.47157 1.10136e-18)
(3.53242 -9.78385 -1.04474e-18)
(4.61136 -0.90539 0)
(4.82505 -1.62055 -9.51821e-20)
(4.6663 -2.32035 0)
(4.42177 -2.79946 2.68853e-19)
(4.2231 -3.37947 -1.79346e-19)
(4.08838 -3.86053 -6.8717e-19)
(4.01348 -4.47166 4.37581e-21)
(3.90778 -4.94106 6.59124e-19)
(3.80472 -5.48151 -6.38132e-19)
(3.70116 -5.91759 1.24968e-18)
(3.5956 -6.39715 -5.49012e-21)
(3.49732 -6.79571 -5.96722e-19)
(3.39978 -7.22655 5.7613e-19)
(3.30194 -7.58278 -7.06627e-19)
(3.21111 -7.97198 0)
(3.11568 -8.28968 -5.33389e-19)
(3.03157 -8.6478 5.25435e-19)
(2.94163 -8.92979 0)
(2.86632 -9.24577 -1.22987e-19)
(2.77455 -9.54997 0)
(3.19694 -0.590586 9.70305e-20)
(3.38035 -1.30871 9.5076e-20)
(3.52397 -2.19992 0)
(3.39382 -2.7732 3.66444e-19)
(3.2435 -3.41245 -4.5209e-19)
(3.08683 -3.87722 2.62075e-19)
(2.95109 -4.43134 -7.72648e-19)
(2.86062 -4.8766 3.35991e-19)
(2.75369 -5.38648 -8.20763e-20)
(2.68189 -5.79695 0)
(2.58996 -6.26688 -7.79529e-20)
(2.52259 -6.64086 -7.59531e-20)
(2.4436 -7.07525 -7.40052e-20)
(2.37958 -7.41675 0)
(2.30865 -7.81528 -5.56074e-19)
(2.24642 -8.12691 1.15796e-18)
(2.17971 -8.49276 -9.95176e-19)
(2.12018 -8.7748 5.20339e-19)
(2.05875 -9.09356 6.34111e-20)
(1.99917 -9.39599 5.42144e-19)
(2.27243 -0.562581 -1.48409e-19)
(1.78151 -0.929202 -1.94659e-19)
(1.8088 -1.7252 5.88332e-22)
(1.88257 -2.27407 5.12952e-19)
(1.87506 -2.99995 -1.37971e-19)
(1.83658 -3.51338 -8.89542e-20)
(1.79715 -4.13399 8.76105e-20)
(1.72691 -4.59283 1.70061e-19)
(1.68902 -5.14642 8.20672e-20)
(1.6242 -5.5636 -3.20356e-19)
(1.58766 -6.06372 3.53738e-19)
(1.5306 -6.44481 7.59484e-20)
(1.49369 -6.89785 3.70147e-19)
(1.44615 -7.24805 -3.03576e-21)
(1.40975 -7.65919 3.24032e-20)
(1.37116 -7.98175 -6.19009e-19)
(1.33446 -8.35764 1.69373e-19)
(1.30221 -8.65136 0)
(1.26554 -8.97859 -3.1457e-20)
(1.23319 -9.2882 -2.73847e-19)
(0.481016 -1.115 0)
(0.954721 -1.04721 -9.58241e-20)
(0.713547 -2.09119 1.06948e-19)
(0.730129 -2.37485 -4.73057e-20)
(0.597663 -3.1364 -4.62758e-20)
(0.623035 -3.51553 0)
(0.565312 -4.17563 -8.70678e-20)
(0.582605 -4.55925 1.70424e-19)
(0.536018 -5.14222 -8.34179e-20)
(0.546462 -5.51158 8.05528e-20)
(0.508178 -6.03218 -3.99148e-20)
(0.51343 -6.38004 -7.64321e-20)
(0.482369 -6.8482 1.49666e-19)
(0.483095 -7.17257 -1.45804e-19)
(0.457114 -7.59615 3.59867e-20)
(0.454778 -7.89676 2.45828e-34)
(0.432999 -8.28579 -3.34417e-20)
(0.428867 -8.55959 1.96827e-19)
(0.411595 -8.89953 -9.71145e-20)
(0.405594 -9.19722 -6.96632e-20)
(-0.112607 1.11001 0)
(-0.224912 1.28402 2.35737e-20)
(0.333135 -0.287032 0)
(1.54103 -4.52126 2.24175e-20)
(4.58503 -12.9732 1.75618e-20)
(7.22908 -20.5918 2.14396e-20)
(8.76172 -24.7242 0)
(9.30669 -26.4093 1.99011e-20)
(9.48777 -26.9594 0)
(9.52313 -27.1331 0)
(9.49279 -27.1192 -1.63874e-20)
(9.43624 -27.0473 5.35035e-22)
(9.33886 -26.9676 3.56233e-20)
(9.28776 -26.9051 0)
(9.24091 -26.9339 1.53536e-20)
(9.20348 -26.9066 1.57329e-20)
(9.12244 -26.8993 1.54029e-20)
(9.07036 -26.832 0)
(8.99524 -26.8544 -2.8809e-20)
(8.96393 -26.813 2.66665e-20)
(-0.205439 1.30858 0)
(0.112918 0.556675 -1.18378e-19)
(0.857254 -2.42467 0)
(3.44932 -9.61721 -2.9558e-20)
(6.62409 -18.3041 1.09361e-19)
(8.60711 -23.6114 -1.92722e-19)
(9.43951 -26.0526 8.2722e-20)
(9.68552 -26.8053 5.86957e-20)
(9.7345 -27.0211 -2.5022e-19)
(9.71222 -27.0069 1.35699e-19)
(9.6393 -26.9557 -1.79395e-20)
(9.56142 -26.8399 1.41438e-19)
(9.4946 -26.8204 -2.30284e-21)
(9.46301 -26.7933 -1.32232e-19)
(9.37645 -26.7799 -1.61167e-20)
(9.33385 -26.7222 -1.58818e-20)
(9.24221 -26.7185 -1.54025e-20)
(9.21226 -26.6916 0)
(9.1123 -26.6854 -1.09546e-19)
(9.07545 -26.6025 1.62535e-21)
(-0.219575 1.18866 -4.85093e-20)
(0.386507 -0.563067 0)
(1.77635 -5.33437 0)
(5.44167 -14.907 -4.50995e-20)
(8.05954 -21.9611 4.40218e-20)
(9.37511 -25.5336 0)
(9.80413 -26.6439 -3.99505e-20)
(9.89042 -26.9531 1.0905e-19)
(9.8764 -26.9506 -1.03829e-19)
(9.82703 -26.9054 1.39536e-19)
(9.73515 -26.7796 -1.79654e-19)
(9.69062 -26.728 0)
(9.61925 -26.7015 -1.33416e-19)
(9.56684 -26.619 -1.26259e-19)
(9.48197 -26.6024 2.22689e-19)
(9.44959 -26.5711 -2.35559e-19)
(9.36367 -26.5744 1.99603e-19)
(9.3243 -26.4907 0)
(9.19381 -26.4533 -2.42103e-19)
(9.17488 -26.3942 3.96801e-19)
(0.119737 0.906742 2.35376e-19)
(0.683061 -2.21831 0)
(3.51042 -9.68169 5.56987e-20)
(7.13821 -18.8659 1.34338e-19)
(9.18572 -24.3058 -2.67199e-19)
(9.96451 -26.2789 8.38006e-20)
(10.1208 -26.8202 4.09397e-20)
(10.1355 -26.8567 4.05094e-19)
(10.1058 -26.8333 -5.5087e-19)
(10.02 -26.7029 -6.38723e-20)
(9.94611 -26.6186 3.22793e-19)
(9.88289 -26.5575 6.74157e-20)
(9.80279 -26.4916 -3.244e-19)
(9.75832 -26.4487 3.17565e-19)
(9.67619 -26.4555 9.07087e-20)
(9.63995 -26.3964 -5.70013e-20)
(9.52464 -26.3595 8.33792e-20)
(9.47209 -26.2611 0)
(9.36281 -26.2674 -2.35549e-20)
(9.34364 -26.1892 0)
(0.413111 -0.0430084 0)
(1.32875 -4.15803 3.80382e-19)
(5.13194 -13.707 -4.65534e-19)
(8.41595 -21.9258 4.53696e-19)
(9.89605 -25.6141 -3.5935e-19)
(10.2655 -26.6602 -8.43082e-20)
(10.3638 -26.8313 0)
(10.3335 -26.8129 2.08626e-19)
(10.2719 -26.7065 -2.92085e-19)
(10.1622 -26.541 3.5959e-19)
(10.102 -26.4637 -2.81739e-19)
(10.0363 -26.3959 -6.74193e-20)
(9.97174 -26.3613 3.17195e-19)
(9.9121 -26.3018 -5.52881e-19)
(9.81873 -26.2609 3.53326e-19)
(9.77187 -26.1853 -1.16053e-19)
(9.64702 -26.1464 -2.70068e-19)
(9.61556 -26.0762 6.10588e-19)
(9.48659 -26.0633 -3.40887e-19)
(9.45524 -25.9325 -4.02902e-19)
(0.373805 -1.02892 4.01167e-19)
(2.24527 -6.43373 3.88478e-19)
(6.80182 -17.265 -3.82183e-19)
(9.47913 -23.8555 -9.37067e-20)
(10.4429 -26.2573 8.91054e-20)
(10.6878 -26.7517 3.21673e-19)
(10.6606 -26.7498 -3.0418e-19)
(10.6117 -26.6473 0)
(10.5022 -26.4592 2.9441e-19)
(10.4304 -26.3499 -2.89501e-19)
(10.3662 -26.2829 -2.68097e-19)
(10.2935 -26.2207 2.63734e-19)
(10.2056 -26.134 0)
(10.1301 -26.0654 0)
(10.0434 -26.0446 5.04896e-19)
(9.98113 -25.9674 -4.95609e-19)
(9.84974 -25.9224 -4.09763e-19)
(9.80408 -25.8223 3.9843e-19)
(9.64807 -25.805 -3.66097e-19)
(9.62077 -25.6652 4.38999e-19)
(0.400983 -1.9957 -3.05153e-19)
(3.56443 -9.64871 1.0506e-19)
(8.00655 -19.8338 6.65524e-21)
(10.2679 -25.1644 4.80089e-19)
(10.8898 -26.6077 0)
(10.9483 -26.7245 0)
(10.93 -26.6525 6.08957e-19)
(10.8298 -26.4728 -2.19432e-20)
(10.7649 -26.3544 -6.00741e-19)
(10.6578 -26.1996 5.50385e-19)
(10.5849 -26.1098 -5.41327e-19)
(10.4885 -26.0034 0)
(10.4071 -25.9388 4.72656e-19)
(10.3301 -25.8861 -4.65215e-19)
(10.2287 -25.8234 0)
(10.1463 -25.7206 0)
(10.0077 -25.66 0)
(9.96638 -25.5824 0)
(9.79926 -25.5571 0)
(9.76484 -25.373 -4.25741e-20)
(0.686236 -2.82267 3.24418e-19)
(4.80465 -12.0219 -5.24889e-19)
(9.19233 -21.8339 0)
(11.0614 -25.9075 0)
(11.3801 -26.6478 8.17049e-19)
(11.414 -26.6332 5.4129e-20)
(11.3204 -26.4645 -7.23136e-19)
(11.2222 -26.2834 0)
(11.0941 -26.072 7.16869e-20)
(10.9899 -25.934 -6.74387e-20)
(10.9017 -25.8471 0)
(10.8028 -25.7657 5.98414e-20)
(10.6984 -25.6746 -5.09827e-19)
(10.5896 -25.5873 9.28942e-19)
(10.4816 -25.5304 -1.58161e-20)
(10.3813 -25.4386 -4.00707e-19)
(10.2384 -25.3887 -4.51799e-20)
(10.1788 -25.2869 4.24732e-20)
(9.97597 -25.246 0)
(9.94195 -25.0521 3.75311e-20)
(1.11028 -3.75675 2.162e-19)
(6.19116 -14.255 2.04104e-19)
(10.3233 -23.2067 -6.43742e-19)
(11.7268 -26.2459 1.99332e-19)
(11.8829 -26.5928 9.01578e-20)
(11.8083 -26.467 7.39982e-19)
(11.6584 -26.2164 -1.05403e-18)
(11.5324 -26.0179 7.70028e-19)
(11.4208 -25.8725 -6.2535e-19)
(11.2832 -25.714 7.42092e-19)
(11.1787 -25.6123 1.21873e-19)
(11.0423 -25.4803 5.12899e-19)
(10.9261 -25.3899 -2.87757e-19)
(10.8166 -25.328 -5.60415e-19)
(10.6936 -25.2481 4.94749e-19)
(10.5693 -25.1375 0)
(10.4193 -25.0647 1.28958e-19)
(10.3458 -24.9784 3.59889e-20)
(10.1368 -24.9327 -7.41799e-20)
(10.0963 -24.7225 3.12627e-20)
(1.8384 -4.88248 -1.05058e-19)
(7.45441 -15.7457 3.53079e-19)
(11.37 -24.0703 7.87515e-22)
(12.4563 -26.2749 -3.98201e-19)
(12.4518 -26.3462 -3.60307e-19)
(12.3279 -26.1292 -1.68409e-19)
(12.1638 -25.9225 -4.29418e-21)
(12.0148 -25.7278 -1.49327e-19)
(11.8323 -25.4924 0)
(11.6764 -25.3388 -1.30229e-19)
(11.5416 -25.2326 -1.21864e-19)
(11.3981 -25.1326 -6.74231e-21)
(11.2591 -25.0431 3.98175e-19)
(11.1125 -24.9479 -2.04957e-19)
(10.9699 -24.8714 -4.49869e-19)
(10.8259 -24.7757 3.49992e-19)
(10.6675 -24.7179 2.29502e-19)
(10.5644 -24.6173 -3.87444e-19)
(10.3332 -24.5586 7.4638e-20)
(10.2789 -24.3499 4.51049e-19)
(2.43516 -5.57187 0)
(8.55113 -16.9031 9.68125e-19)
(12.4004 -24.5125 -1.24689e-18)
(13.0922 -26.0773 9.97181e-19)
(12.9955 -26.0298 8.62972e-19)
(12.7779 -25.7666 -6.83519e-19)
(12.5637 -25.524 -8.99095e-19)
(12.3579 -25.3032 3.55207e-20)
(12.1818 -25.1454 5.38747e-19)
(11.9917 -24.9893 -3.52451e-19)
(11.8385 -24.8854 8.95775e-19)
(11.6522 -24.7465 -5.34898e-19)
(11.4906 -24.6469 -1.00063e-19)
(11.3391 -24.5801 2.54785e-19)
(11.1805 -24.496 -6.66667e-19)
(11.0118 -24.3896 3.19021e-19)
(10.8426 -24.3123 0)
(10.7202 -24.2278 -5.26428e-19)
(10.4927 -24.1752 5.18599e-19)
(10.4155 -23.9651 -4.06843e-19)
(3.00668 -6.62908 2.25811e-19)
(9.74224 -17.7494 2.07427e-19)
(13.2883 -24.5959 1.06751e-18)
(13.762 -25.6565 9.13744e-19)
(13.5552 -25.5132 -5.4837e-19)
(13.3238 -25.25 7.70176e-19)
(13.0867 -25.0552 -4.5532e-19)
(12.8663 -24.8645 5.15655e-19)
(12.6182 -24.6332 -9.79748e-19)
(12.4009 -24.4832 3.48519e-19)
(12.2114 -24.3756 0)
(12.0152 -24.2731 0)
(11.8301 -24.1917 0)
(11.6414 -24.0995 -6.22526e-19)
(11.4572 -24.0247 6.12889e-19)
(11.2698 -23.9356 0)
(11.0882 -23.8728 0)
(10.9263 -23.7885 -5.32948e-20)
(10.6859 -23.7272 0)
(10.6005 -23.5218 -4.44546e-19)
(3.6646 -7.09005 -4.38919e-19)
(10.6538 -18.4108 -1.09039e-18)
(14.1377 -24.4666 -7.52608e-19)
(14.3458 -25.1819 -1.24543e-19)
(14.057 -24.9873 9.87562e-19)
(13.7747 -24.7247 -2.02852e-19)
(13.4763 -24.4919 -4.34533e-20)
(13.1928 -24.2796 -6.30174e-19)
(12.9505 -24.1271 0)
(12.6989 -23.9846 -2.96467e-19)
(12.491 -23.8919 4.72423e-19)
(12.251 -23.7613 0)
(12.0401 -23.6707 5.92293e-19)
(11.8444 -23.6133 -5.83001e-19)
(11.6431 -23.5404 4.91721e-19)
(11.4323 -23.4452 -8.80037e-19)
(11.2329 -23.3725 4.41531e-19)
(11.0577 -23.3111 5.32938e-20)
(10.8202 -23.2628 -3.86057e-20)
(10.7229 -23.0648 3.12622e-19)
(4.2214 -7.58951 -6.0585e-19)
(11.7449 -18.4989 4.19257e-20)
(14.8279 -24.0337 6.09099e-20)
(14.9919 -24.4383 1.36281e-18)
(14.5835 -24.2492 1.03063e-19)
(14.2878 -24.019 -7.05664e-19)
(13.9712 -23.8456 -4.72774e-19)
(13.672 -23.6791 1.56744e-19)
(13.3578 -23.4717 5.10321e-19)
(13.0763 -23.3407 -5.2163e-19)
(12.832 -23.2529 2.50962e-19)
(12.5834 -23.166 -6.1919e-19)
(12.3479 -23.0991 4.86437e-19)
(12.1166 -23.0212 -4.45062e-19)
(11.8927 -22.9678 3.92387e-19)
(11.6678 -22.8966 3.03823e-19)
(11.4533 -22.8413 -3.50919e-19)
(11.2461 -22.7801 2.52808e-19)
(11.0005 -22.7397 -2.39567e-19)
(10.8932 -22.547 -2.5131e-19)
(4.85995 -7.89972 -7.56748e-19)
(12.6109 -18.6328 -1.3754e-19)
(15.4988 -23.503 6.92801e-19)
(15.4714 -23.7453 -5.92617e-19)
(15.0304 -23.5363 5.81616e-19)
(14.6646 -23.3195 1.30088e-19)
(14.2961 -23.1154 0)
(13.9369 -22.9401 -8.82509e-20)
(13.6315 -22.8127 2.32266e-19)
(13.318 -22.6961 -8.11217e-19)
(13.0561 -22.6286 5.64962e-19)
(12.7654 -22.5224 1.16897e-19)
(12.5074 -22.4586 5.83288e-20)
(12.2708 -22.4252 0)
(12.0279 -22.3775 1.3434e-20)
(11.7796 -22.3052 2.56161e-19)
(11.548 -22.2487 -3.25833e-20)
(11.3301 -22.2194 2.10102e-20)
(11.093 -22.2045 -1.83771e-19)
(10.9771 -22.0239 3.44286e-20)
(5.37965 -8.0354 6.8911e-19)
(13.4359 -18.2892 -1.17716e-18)
(16.0875 -22.6738 6.44683e-19)
(15.9713 -22.7807 5.21156e-19)
(15.4757 -22.6158 -5.60915e-20)
(15.0935 -22.442 -3.51897e-19)
(14.7124 -22.3096 8.24357e-20)
(14.3396 -22.1853 8.82384e-20)
(13.9636 -22.0187 0)
(13.6219 -21.9208 0)
(13.3287 -21.8722 -3.8353e-19)
(13.0331 -21.8162 6.15696e-19)
(12.7466 -21.7694 -3.20069e-19)
(12.4751 -21.7177 0)
(12.218 -21.706 1.45726e-20)
(11.9624 -21.6664 -1.59285e-19)
(11.7121 -21.628 1.52805e-19)
(11.4617 -21.5975 -1.85687e-20)
(11.2209 -21.6024 -5.49921e-20)
(11.0948 -21.4299 4.40107e-20)
(5.95949 -8.13579 -6.04599e-19)
(14.1838 -18.0605 7.55834e-19)
(16.5885 -21.8074 0)
(16.3072 -21.8831 0)
(15.8033 -21.723 8.88987e-20)
(15.3476 -21.5785 -4.15519e-19)
(14.9217 -21.4246 2.33388e-20)
(14.499 -21.3104 2.66487e-19)
(14.1391 -21.2278 -3.79082e-19)
(13.7688 -21.1464 6.83508e-19)
(13.458 -21.118 -3.05639e-19)
(13.1272 -21.0537 5.41552e-20)
(12.8293 -21.0317 1.58975e-19)
(12.5553 -21.0278 -3.41239e-20)
(12.2752 -21.0141 -8.15099e-20)
(12 -20.9795 1.30574e-20)
(11.7382 -20.9527 -7.81606e-21)
(11.4788 -20.9566 -9.40365e-22)
(11.252 -20.9873 1.38934e-20)
(11.1228 -20.8404 -5.44283e-20)
(6.39853 -8.07806 0)
(14.7855 -17.4068 3.35859e-19)
(16.9274 -20.7952 -3.77892e-19)
(16.6437 -20.7662 0)
(16.0912 -20.6708 -8.88934e-20)
(15.6408 -20.5741 2.35009e-19)
(15.2154 -20.5009 -2.93462e-19)
(14.7842 -20.4306 0)
(14.3582 -20.32 2.25436e-19)
(13.968 -20.2647 -2.21689e-19)
(13.6355 -20.2677 6.74437e-21)
(13.3029 -20.2528 -1.85798e-20)
(12.9699 -20.2335 -1.24739e-20)
(12.665 -20.2212 -7.01832e-21)
(12.383 -20.2638 6.18953e-20)
(12.1047 -20.2654 -1.58348e-19)
(11.8194 -20.2591 2.15769e-19)
(11.5274 -20.2575 -2.62694e-19)
(11.287 -20.3029 1.29425e-19)
(11.1604 -20.1935 -1.59181e-20)
(6.87774 -7.98707 0)
(15.3713 -16.8699 -3.63359e-19)
(17.2126 -19.7338 2.01671e-19)
(16.804 -19.7377 1.90125e-19)
(16.2698 -19.6423 -5.01787e-20)
(15.7365 -19.5879 -4.41904e-20)
(15.275 -19.4964 -1.40169e-19)
(14.8105 -19.4571 0)
(14.4088 -19.4319 0)
(13.9901 -19.3873 0)
(13.6389 -19.4059 -6.74375e-21)
(13.2843 -19.3984 0)
(12.9554 -19.4243 1.56574e-19)
(12.6435 -19.4432 -1.30854e-19)
(12.3312 -19.4676 1.99477e-19)
(12.0418 -19.4848 -4.23534e-19)
(11.7522 -19.5126 2.2368e-19)
(11.4594 -19.5467 3.04861e-19)
(11.1969 -19.6007 -5.48028e-19)
(11.0792 -19.4902 2.96813e-19)
(7.26197 -7.76386 0)
(15.7553 -16.0454 0)
(17.3662 -18.5409 6.93122e-20)
(16.9284 -18.5403 5.46999e-20)
(16.3832 -18.5065 0)
(15.8762 -18.5 4.65575e-20)
(15.4213 -18.4985 -4.5741e-20)
(14.9538 -18.4848 0)
(14.4932 -18.4437 -1.0976e-19)
(14.0689 -18.4325 1.07934e-19)
(13.7044 -18.4863 0)
(13.3467 -18.5157 2.48194e-19)
(12.9789 -18.5346 1.62479e-20)
(12.6482 -18.5636 -2.7968e-19)
(12.3407 -18.6429 0)
(12.0362 -18.6726 0)
(11.7085 -18.7143 0)
(11.4013 -18.7255 3.71636e-19)
(11.0799 -18.7457 -4.06733e-19)
(10.9196 -18.6879 0)
(8.39785 -26.7183 0)
(8.04161 -26.313 0)
(7.27513 -26.3852 -2.46262e-21)
(6.84229 -26.438 -2.40968e-21)
(6.21806 -26.509 0)
(5.75391 -26.5538 -3.07022e-23)
(5.22039 -26.5524 2.34013e-21)
(4.76875 -26.633 0)
(4.28591 -26.724 2.19252e-21)
(3.87616 -26.7536 0)
(3.44191 -26.782 -2.13367e-21)
(3.09233 -26.7901 -1.05902e-21)
(2.69981 -26.7951 1.06581e-21)
(2.41786 -26.7986 2.03236e-21)
(2.06228 -26.7974 0)
(1.84391 -26.7636 -4.91971e-22)
(1.50955 -26.5988 1.93143e-21)
(1.34445 -25.1977 0)
(0.822495 -20.6075 0)
(0.268307 -11.145 1.86892e-21)
(8.45225 -26.4943 1.20536e-20)
(8.09509 -26.1458 0)
(7.25898 -26.1911 1.19295e-20)
(6.8652 -26.2532 -7.11715e-21)
(6.24838 -26.3732 0)
(5.74256 -26.4482 -1.10654e-20)
(5.17016 -26.4424 4.43215e-21)
(4.68882 -26.5027 0)
(4.21237 -26.5927 2.05083e-21)
(3.80779 -26.6296 -4.2649e-21)
(3.38239 -26.6644 6.26728e-21)
(3.03866 -26.6798 -8.22958e-21)
(2.65693 -26.6989 6.11066e-21)
(2.38562 -26.7162 -2.07407e-21)
(2.0426 -26.7224 -1.99001e-21)
(1.83484 -26.6944 1.91066e-21)
(1.5233 -26.5312 -3.07137e-21)
(1.34559 -25.0923 -4.61595e-21)
(0.804495 -20.422 -2.26917e-21)
(0.277684 -10.9768 -2.33101e-21)
(8.51444 -26.2866 -2.54825e-21)
(8.14098 -25.9471 -1.11022e-20)
(7.28157 -26.0193 -8.78745e-21)
(6.86385 -26.1188 0)
(6.23793 -26.1841 0)
(5.7295 -26.2371 1.27302e-20)
(5.21117 -26.2555 -1.53317e-22)
(4.75834 -26.3522 -1.13266e-22)
(4.28822 -26.4655 -1.30211e-22)
(3.87933 -26.5111 -8.13182e-21)
(3.45235 -26.5567 0)
(3.10478 -26.5808 0)
(2.71778 -26.6045 0)
(2.43888 -26.6229 -7.54978e-21)
(2.08446 -26.6377 0)
(1.87355 -26.6143 -7.36386e-21)
(1.53623 -26.4641 5.79978e-21)
(1.36139 -25.0125 2.78073e-21)
(0.826208 -20.3263 4.56851e-21)
(0.286429 -10.8517 7.09039e-21)
(8.58533 -26.0421 1.95769e-20)
(8.20376 -25.7708 -3.87453e-20)
(7.28899 -25.8224 1.6761e-22)
(6.8865 -25.9281 1.69975e-20)
(6.25779 -26.0386 0)
(5.71681 -26.1281 1.57996e-20)
(5.16741 -26.1474 -3.91015e-20)
(4.68239 -26.2237 2.34733e-20)
(4.21653 -26.3346 -1.53635e-20)
(3.812 -26.3882 7.65201e-21)
(3.39329 -26.4405 -2.18407e-22)
(3.05094 -26.4723 -7.51572e-21)
(2.6736 -26.5084 7.55757e-21)
(2.40442 -26.5408 3.86676e-21)
(2.06308 -26.5639 3.70194e-21)
(1.86138 -26.5463 7.35943e-21)
(1.54715 -26.3979 -7.21632e-21)
(1.36053 -24.9135 3.53578e-21)
(0.809398 -20.1549 -1.76443e-21)
(0.297154 -10.6891 -7.07935e-21)
(8.66104 -25.8005 4.25263e-20)
(8.25838 -25.5498 9.25991e-21)
(7.31534 -25.6342 -1.64406e-20)
(6.90797 -25.7909 2.36084e-20)
(6.26325 -25.8465 0)
(5.71214 -25.9153 -7.28549e-21)
(5.21066 -25.9634 7.63411e-21)
(4.75203 -26.0729 0)
(4.29242 -26.2088 4.04161e-22)
(3.88318 -26.2708 0)
(3.46217 -26.3338 -1.46016e-20)
(3.11547 -26.3739 0)
(2.73313 -26.4159 0)
(2.45602 -26.4488 -1.40736e-20)
(2.10286 -26.4805 7.12492e-21)
(1.89811 -26.4679 -6.87549e-21)
(1.55717 -26.3326 0)
(1.37496 -24.8397 1.70811e-21)
(0.827979 -20.0686 -1.71082e-21)
(0.307292 -10.5643 0)
(8.74602 -25.5272 1.67437e-20)
(8.31519 -25.3584 -1.63718e-20)
(7.35546 -25.4345 3.62869e-20)
(6.92755 -25.5941 -3.75118e-20)
(6.26967 -25.6884 1.35392e-20)
(5.70032 -25.8025 7.30806e-21)
(5.17188 -25.8566 -1.34961e-20)
(4.67982 -25.9453 -1.3537e-20)
(4.22247 -26.0787 7.17917e-21)
(3.81693 -26.1489 1.38853e-20)
(3.4035 -26.219 -6.80725e-21)
(3.06144 -26.267 0)
(2.68782 -26.3204 0)
(2.41943 -26.3672 4.0699e-22)
(2.07985 -26.408 -6.85568e-21)
(1.8828 -26.401 6.86877e-21)
(1.56527 -26.2683 0)
(1.37223 -24.748 -1.30924e-20)
(0.812133 -19.9151 -1.22595e-20)
(0.317828 -10.4076 -8.27524e-22)
(8.83766 -25.2663 -4.95322e-20)
(8.37562 -25.1231 4.92427e-20)
(7.38454 -25.2344 -1.44185e-20)
(6.95247 -25.4461 0)
(6.28261 -25.4954 -1.35964e-20)
(5.70338 -25.5909 2.6271e-20)
(5.21716 -25.6745 -1.28191e-20)
(4.74926 -25.7943 1.3575e-20)
(4.2981 -25.9536 0)
(3.88787 -26.0327 0)
(3.47141 -26.1131 1.31825e-20)
(3.12454 -26.1691 -1.32278e-20)
(2.74583 -26.2289 0)
(2.46918 -26.2762 1.9956e-20)
(2.11731 -26.3257 -6.58071e-21)
(1.91692 -26.324 -6.48377e-21)
(1.57243 -26.205 5.20883e-21)
(1.38477 -24.6812 1.62844e-20)
(0.827007 -19.8366 8.22553e-21)
(0.328546 -10.2839 1.60506e-21)
(8.94797 -24.9634 0)
(8.43258 -24.9078 -2.74492e-20)
(7.45049 -25.0272 2.75293e-20)
(6.97675 -25.2418 0)
(6.2868 -25.3258 0)
(5.69558 -25.4752 -2.44731e-20)
(5.18215 -25.5681 2.45464e-20)
(4.68167 -25.6669 0)
(4.23005 -25.8243 1.24331e-20)
(3.82281 -25.9117 -2.49737e-20)
(3.41307 -25.9994 1.25406e-20)
(3.07037 -26.0638 1.2574e-20)
(2.69949 -26.1343 -1.26153e-20)
(2.43074 -26.1951 0)
(2.09266 -26.2543 0)
(1.89846 -26.258 -6.265e-21)
(1.57777 -26.1429 7.53291e-21)
(1.3801 -24.5976 -7.17156e-24)
(0.811895 -19.7028 -4.67442e-21)
(0.337833 -10.1336 1.55799e-21)
(9.05547 -24.6638 2.7663e-20)
(8.493 -24.6612 -2.77768e-20)
(7.48743 -24.8149 -3.43198e-20)
(6.98738 -25.0803 4.63443e-20)
(6.30022 -25.1321 -4.55091e-20)
(5.70762 -25.2651 -1.82972e-22)
(5.22967 -25.3871 2.28106e-20)
(4.75125 -25.5161 0)
(4.30513 -25.6994 0)
(3.89352 -25.7965 1.13934e-20)
(3.4801 -25.8942 0)
(3.13203 -25.9664 0)
(2.75575 -26.0435 0)
(2.4783 -26.1052 0)
(2.12758 -26.1729 0)
(1.92921 -26.1824 0)
(1.58213 -26.082 -4.83577e-21)
(1.39034 -24.5384 6.04174e-21)
(0.822967 -19.632 -1.50855e-21)
(0.347797 -10.0122 1.50901e-21)
(9.18889 -24.3219 -2.37571e-20)
(8.55926 -24.4214 -3.66792e-20)
(7.55306 -24.5935 -1.00904e-20)
(7.01336 -24.8656 -9.87105e-21)
(6.30687 -24.9584 1.00099e-20)
(5.7014 -25.1475 3.06006e-20)
(5.19525 -25.2796 1.0114e-20)
(4.68726 -25.3883 0)
(4.23936 -25.5706 -1.14343e-20)
(3.82981 -25.6764 2.12919e-20)
(3.42229 -25.7815 1.09127e-20)
(3.07794 -25.8621 1.09821e-20)
(2.70875 -25.9497 0)
(2.43841 -26.0245 1.11964e-20)
(2.10135 -26.1023 1.13905e-20)
(1.90755 -26.1173 0)
(1.58484 -26.0223 0)
(1.38379 -24.4633 0)
(0.808281 -19.5181 0)
(0.355183 -9.86897 0)