/*--------------------------------*- C++ -*----------------------------------*\
  =========                 |
  \\      /  F ield         | OpenFOAM: The Open Source CFD Toolbox
   \\    /   O peration     | Website:  https://openfoam.org
    \\  /    A nd           | Version:  9
     \\/     M anipulation  |
\*---------------------------------------------------------------------------*/
FoamFile
{
    format      ascii;
    class       volScalarField;
    location    "2.6";
    object      nut;
}
// * * * * * * * * * * * * * * * * * * * * * * * * * * * * * * * * * * * * * //

dimensions      [0 2 -1 0 0 0 0];

internalField   nonuniform List<scalar> 
46400
(
0.018055
0.0068041
0.00198232
0.00126745
0.00130517
0.00127098
0.00118347
0.00117091
0.00109947
0.00108155
0.00103927
0.000994562
0.000966481
0.000951739
0.000918284
0.000908631
0.000869782
0.000814377
0.00116195
0.000950093
0.0177591
0.0057301
0.00149689
0.00132086
0.00127747
0.00125398
0.00119793
0.00120667
0.00113557
0.00108825
0.00105683
0.00101293
0.000970703
0.000937985
0.000905758
0.000882468
0.0008126
0.000731135
0.000996869
0.000911657
0.0174233
0.00481494
0.00123472
0.00139212
0.00131524
0.00131508
0.0012132
0.00120699
0.001147
0.0011164
0.00107518
0.00103605
0.00100163
0.000973787
0.00093985
0.000922148
0.000860572
0.00080371
0.00110119
0.000941257
0.017014
0.00397445
0.001184
0.0014157
0.00128873
0.00129329
0.001228
0.00122521
0.0011676
0.00111702
0.00109034
0.00104769
0.00100526
0.000971841
0.000943916
0.000922954
0.000874506
0.000808238
0.0011237
0.00101403
0.0165107
0.0039218
0.00126769
0.00147115
0.00135291
0.00134394
0.00124741
0.00123536
0.00118993
0.00114635
0.00110412
0.00107542
0.00104121
0.00100492
0.000975918
0.000950807
0.00089424
0.00085325
0.00114897
0.00101401
0.0159105
0.00479214
0.00132435
0.00148706
0.00135109
0.00134881
0.00127234
0.00124382
0.00120307
0.00115434
0.00112076
0.00107891
0.00105198
0.00101862
0.000995222
0.000981935
0.000921792
0.000857531
0.00117436
0.001077
0.0153812
0.00445449
0.00142623
0.00153871
0.00141028
0.00138102
0.00129634
0.00125674
0.0012154
0.00117007
0.0011277
0.00108899
0.00105721
0.00102749
0.000995065
0.000978129
0.000939727
0.000853597
0.00112556
0.00106506
0.0143316
0.00398716
0.00141793
0.0015301
0.001397
0.00137824
0.00131236
0.00125813
0.00122254
0.00117486
0.0011473
0.0010995
0.00106799
0.00104206
0.00102698
0.00100261
0.000963029
0.000905465
0.00111547
0.00106179
0.0130779
0.00321959
0.00145885
0.00153693
0.00143917
0.00138091
0.00133302
0.00126689
0.00121651
0.00117052
0.0011333
0.00109496
0.00104855
0.00100786
0.000988032
0.00098203
0.000943742
0.000903646
0.00110238
0.00102061
0.0105059
0.00255359
0.00148185
0.00147303
0.00142036
0.00136197
0.00132645
0.00128453
0.00123028
0.00116987
0.00115579
0.00112099
0.00109383
0.00104282
0.00100198
0.000975978
0.000943922
0.000899728
0.0010895
0.00105955
0.00852705
0.00214393
0.00151133
0.00146212
0.00141662
0.00135639
0.00132675
0.00127788
0.00125072
0.00115866
0.00110368
0.00108324
0.00106015
0.00104126
0.00100856
0.000972451
0.00092386
0.000871739
0.000995104
0.000970452
0.00684152
0.00185289
0.00148695
0.00143948
0.00141434
0.00132957
0.00131169
0.00128472
0.00127668
0.00123628
0.00115812
0.00108957
0.00106357
0.00102835
0.00102556
0.00100855
0.000980425
0.000944454
0.00105095
0.00100281
0.00574602
0.00170627
0.00153078
0.00143182
0.0014187
0.0013357
0.00126969
0.0012277
0.00123474
0.00121145
0.00119399
0.00111889
0.00105739
0.00100491
0.000952993
0.000940097
0.000897946
0.000876181
0.000981856
0.000960237
0.00483419
0.00160934
0.00151335
0.00146282
0.00144112
0.00136981
0.00132881
0.00123038
0.00121613
0.0012088
0.00120041
0.00119918
0.00115148
0.00111381
0.001054
0.00100039
0.000947992
0.000881213
0.000941377
0.00089508
0.00434067
0.00156979
0.00150424
0.00141951
0.00145456
0.00136038
0.00131358
0.00124298
0.00115285
0.00112819
0.00109864
0.00109578
0.00110215
0.0010863
0.00109186
0.00105918
0.00103953
0.000985818
0.00104814
0.000978453
0.00435702
0.00165481
0.00152393
0.00139564
0.00143558
0.00145759
0.00140231
0.00136024
0.00128354
0.00119622
0.00114659
0.00107167
0.00104782
0.00100137
0.00099204
0.000971632
0.000953943
0.00091997
0.000982314
0.000942722
0.003705
0.00160939
0.00144841
0.00133481
0.00126217
0.00126289
0.00131458
0.00128647
0.0013078
0.00125422
0.00123567
0.00118614
0.0011462
0.00110187
0.00105855
0.00102899
0.000987631
0.000946034
0.000986413
0.000934663
0.00375692
0.00181071
0.00172711
0.00154515
0.00141222
0.00125685
0.00122352
0.00117614
0.00116421
0.0011431
0.00112096
0.00110315
0.00107976
0.00105961
0.00103145
0.00101248
0.000977468
0.000931438
0.000982571
0.000914082
0.0026251
0.00135271
0.00152212
0.00151017
0.00153677
0.0014548
0.00138475
0.00131816
0.00126089
0.00120925
0.00116897
0.00112256
0.00109125
0.00105266
0.00102711
0.000996994
0.000968945
0.000909997
0.000954605
0.00089251
0.000724216
0.000610463
0.00129487
0.00122832
0.00137923
0.00129789
0.00132748
0.00125223
0.00125003
0.00118684
0.00117653
0.00112353
0.00110686
0.001059
0.00103969
0.00100146
0.000976869
0.000914585
0.000964321
0.000885565
0.000722296
0.000208439
0.00369835
0.00817765
0.0107246
0.00816989
0.00404091
0.0014673
0.000390224
4.25922e-05
0.00011848
0.000204586
0.000275476
0.000112776
0.000114393
0.000189516
0.000218519
0.000191007
0.000157121
0.000246954
3.86913e-23
0.00173365
0.00651929
0.0104867
0.00937877
0.00522468
0.00196914
0.000490295
0.000105935
0.00013681
0.00023785
0.000301128
0.000207042
0.000166337
0.000215611
0.00024019
0.000195448
0.000209494
0.000232574
0.000287389
0.000384257
0.00401796
0.00899893
0.0107955
0.00709736
0.00294063
0.000756707
0.000110424
0.000149403
0.000257933
0.000307533
0.000235399
0.000185668
0.00024357
0.00022992
0.000196604
0.000208236
0.000279843
0.000257431
0.000272856
0.00098833
0.00676759
0.0106845
0.00945543
0.00491321
0.0013465
9.52057e-05
0.000108379
0.000262904
0.000320057
0.000270849
0.000249277
0.000254748
0.000245798
0.000222609
0.000260025
0.000284695
0.000295424
0.000247599
0.000306259
0.00239753
0.00875778
0.011302
0.00771171
0.0025821
0.000374247
0.000143093
0.000265303
0.000334427
0.000321851
0.000299384
0.000286566
0.000241045
0.000284291
0.000271376
0.000291846
0.000279094
0.000291864
0.000289456
0.000335419
0.0024355
0.0100587
0.0109642
0.00579023
0.0011763
0.000163342
0.000251462
0.000369033
0.000383385
0.000339557
0.000331718
0.000287904
0.000313607
0.000321052
0.000280169
0.000330737
0.000323518
0.000357207
0.000328946
0.000362459
0.00520721
0.0112085
0.00979075
0.00348893
0.000301958
0.000215747
0.000386505
0.000430889
0.000406359
0.000381534
0.000356999
0.000355674
0.000331053
0.000343094
0.000338646
0.000378324
0.000333933
0.000366641
0.000356085
0.000390782
0.00725817
0.0117432
0.0086704
0.00178738
0.000255396
0.000367666
0.000490773
0.000522801
0.000457936
0.000438313
0.000427959
0.000377475
0.000398893
0.000403919
0.000368031
0.000407822
0.000367787
0.000437956
0.000404461
0.000416681
0.00970134
0.0120113
0.00752501
0.000686773
0.000308513
0.000560453
0.000614929
0.000539789
0.000523767
0.000495967
0.000452132
0.000447516
0.000433957
0.000422865
0.000422202
0.000457117
0.000397273
0.000461821
0.000422839
0.000438304
0.0122331
0.0118162
0.00541113
0.000399077
0.000435411
0.000627335
0.000656898
0.00064837
0.00058474
0.000553501
0.000536197
0.000488793
0.000499858
0.00049643
0.000469597
0.000488993
0.000442726
0.000529439
0.000470143
0.000471143
0.01407
0.0117974
0.00384403
0.000246228
0.000678178
0.000788386
0.000751438
0.000680238
0.000643817
0.00061746
0.000565761
0.000553813
0.00053973
0.000516355
0.000516204
0.000533011
0.000479249
0.000548164
0.000489249
0.000507382
0.0154871
0.0113259
0.00237196
0.000244307
0.000752606
0.000791912
0.000779126
0.00076894
0.00070972
0.000670478
0.000643455
0.000600979
0.000603599
0.000594108
0.000571989
0.000571086
0.000543658
0.000610783
0.000511844
0.000539024
0.0161901
0.0110513
0.00162377
0.000434697
0.000893403
0.000898426
0.000890134
0.0008047
0.00075777
0.000734947
0.000683254
0.000665089
0.00064587
0.000619301
0.000616108
0.00061708
0.000579357
0.000626043
0.000512087
0.000560353
0.0168893
0.0105572
0.00108702
0.000571491
0.00100483
0.000895714
0.000909375
0.000887531
0.000827065
0.000786896
0.00074856
0.000709145
0.000705784
0.000691329
0.000668105
0.000657729
0.000646614
0.000681784
0.000533891
0.000599771
0.0175402
0.0102193
0.00112434
0.000777173
0.00108627
0.000999021
0.00100263
0.000924221
0.000864971
0.000845232
0.000796842
0.000770802
0.00074464
0.000719884
0.000710908
0.000695266
0.000674364
0.000688453
0.000518012
0.000615942
0.0178127
0.00974823
0.001851
0.000897964
0.00114416
0.001011
0.00102049
0.000999754
0.000935177
0.000896211
0.000849829
0.000813812
0.000805144
0.000785837
0.000758078
0.000743219
0.000753475
0.000746988
0.000542471
0.000661854
0.0182191
0.00944007
0.0022518
0.00105787
0.00119145
0.00110347
0.00109067
0.00102903
0.000959199
0.000943923
0.000898943
0.000863403
0.000834605
0.000816457
0.000797719
0.000769373
0.000775323
0.000754277
0.000522898
0.000686244
0.0182407
0.00912321
0.00224287
0.00107055
0.00124133
0.00109924
0.0011044
0.00109704
0.00102632
0.000988214
0.00094179
0.000907861
0.00089225
0.000869891
0.000837546
0.000822293
0.000846708
0.000813966
0.000550001
0.000732906
0.018358
0.00866088
0.00212359
0.00115183
0.00127928
0.00119748
0.00114728
0.00111507
0.00104034
0.00102911
0.000987544
0.000945452
0.000920559
0.000910709
0.000880522
0.000853866
0.000873037
0.000863145
0.000567249
0.000714189
0.0182006
0.0077861
0.0019641
0.0011849
0.00127727
0.00118977
0.0011633
0.00117128
0.0010982
0.00105834
0.00102242
0.000989562
0.00096824
0.000950003
0.000926592
0.00093955
0.000939414
0.000937237
0.000735293
0.000796456
0.0022556
0.00184259
0.00187467
0.00157836
0.00159767
0.00145882
0.00144135
0.00136769
0.00130489
0.00122733
0.00113926
0.00107337
0.00098121
0.000924224
0.000850128
0.000856237
0.000958768
0.00397898
0.00992235
0.0225888
0.0022781
0.00191056
0.00190394
0.00153169
0.00165021
0.0015493
0.00152947
0.00140652
0.00129283
0.00120889
0.00111778
0.00105136
0.000948661
0.000886617
0.000806592
0.000802157
0.00092668
0.00409478
0.00995696
0.0223171
0.00231074
0.00200349
0.00201632
0.00154911
0.00165252
0.00148587
0.00144363
0.00136402
0.00128892
0.00122006
0.00112629
0.00106391
0.000970871
0.000914966
0.000837126
0.000840311
0.000946995
0.00413308
0.00999775
0.0221604
0.00239309
0.00207938
0.00203769
0.00153615
0.00172704
0.00155636
0.00150877
0.001394
0.00127647
0.00120366
0.00110545
0.00104452
0.000940484
0.000879567
0.000794596
0.000785254
0.000919432
0.00423851
0.0100309
0.021903
0.00248167
0.00213467
0.00210675
0.00157065
0.00172806
0.00150039
0.00143513
0.00136061
0.00127571
0.00121586
0.00111506
0.00105713
0.000963477
0.000909153
0.000825658
0.000823088
0.000942167
0.00426357
0.0100696
0.0217549
0.0026685
0.00221819
0.00213296
0.00158044
0.00179647
0.00157536
0.00150379
0.00139126
0.00126297
0.00120016
0.00109493
0.0010398
0.000934972
0.0008763
0.000784916
0.000766632
0.000918597
0.00435786
0.0100976
0.0215135
0.00278757
0.00222544
0.00217468
0.00165558
0.00179431
0.00151295
0.00142433
0.00135457
0.00126186
0.00121162
0.00110549
0.00105223
0.000958592
0.000906675
0.00081582
0.000804242
0.000944717
0.00436066
0.0101406
0.0213734
0.00310403
0.00233124
0.0022094
0.00166685
0.00184069
0.00160471
0.00151
0.00139441
0.00125221
0.00119569
0.00108676
0.00103629
0.000932011
0.000876722
0.00077768
0.000746475
0.000920811
0.00442268
0.0101581
0.0211516
0.00330631
0.00233019
0.0022459
0.0017694
0.00183797
0.00154239
0.00142212
0.00134686
0.00124692
0.00120464
0.00109802
0.0010487
0.000955582
0.000906864
0.000808088
0.000784623
0.000945791
0.00440474
0.0102054
0.0210197
0.00366128
0.00244796
0.00229377
0.00177146
0.00185708
0.0016386
0.00151724
0.00139385
0.00124315
0.00118893
0.00108105
0.00103329
0.000931245
0.000880627
0.000773172
0.000726215
0.000919503
0.00445168
0.0102145
0.0208172
0.00379619
0.00246113
0.00233899
0.00188128
0.00185622
0.00158023
0.00142436
0.00133763
0.00123454
0.00119475
0.00109237
0.00104598
0.000954541
0.000909754
0.000803608
0.000765451
0.000942304
0.00441579
0.010263
0.0206937
0.00398932
0.00257012
0.00238924
0.00187943
0.0018572
0.00166875
0.00151896
0.00138606
0.00123614
0.00117985
0.00107729
0.00103131
0.000932624
0.000887407
0.000772537
0.00070747
0.000914362
0.00443424
0.0102681
0.0205112
0.00408783
0.00259875
0.00245597
0.00198295
0.00184964
0.00160417
0.00142313
0.00132788
0.00122697
0.00118364
0.001088
0.00104389
0.000955155
0.000915193
0.000803387
0.000748578
0.000936728
0.00439344
0.0103166
0.0203953
0.00430364
0.00267434
0.00249184
0.00197958
0.00184495
0.00168124
0.00151069
0.00137413
0.00123188
0.00116995
0.00107459
0.00103034
0.000935957
0.000897007
0.000776295
0.000692627
0.00090775
0.00438617
0.0103202
0.0202309
0.00443121
0.00271515
0.00256721
0.00206744
0.00182305
0.00160679
0.00141888
0.0013224
0.00122351
0.00117227
0.00108383
0.00104214
0.000956959
0.000923055
0.000808226
0.0007367
0.000931448
0.00433258
0.0103591
0.0201376
0.00465393
0.00278005
0.00257179
0.00205326
0.00181586
0.00166957
0.00149179
0.00136048
0.00122719
0.00115886
0.00107085
0.00102902
0.000939805
0.000908277
0.000784956
0.000684568
0.000903903
0.00429061
0.0103463
0.0199862
0.00488192
0.00283446
0.00263758
0.00212462
0.00178652
0.00160145
0.00142164
0.00132599
0.00122396
0.00116351
0.00108032
0.00104137
0.000959823
0.000933924
0.000818554
0.000732895
0.000928877
0.00425178
0.0103976
0.0198627
0.00502296
0.00286831
0.00258603
0.00209803
0.00178915
0.00166281
0.00148606
0.00136014
0.00122984
0.00115592
0.00107174
0.00103263
0.000948043
0.000925954
0.000803374
0.000691603
0.000901162
0.0041879
0.0104215
0.0198431
0.00496194
0.00293739
0.0025707
0.00211073
0.00171869
0.00157445
0.00141276
0.00131274
0.00120543
0.00114117
0.0010656
0.00103152
0.000956558
0.000941364
0.000835322
0.000733027
0.000947695
0.00411135
0.0104223
0.0196798
0.00577518
0.00320498
0.0026115
0.00208457
0.0017368
0.00165818
0.00150346
0.00137726
0.00124666
0.00116656
0.0010829
0.00104099
0.000957717
0.000943822
0.000824297
0.00070641
0.000901142
0.00386633
0.010138
0.0192043
0.0165903
0.0320654
0.0161004
0.0234599
0.0195799
0.0178353
0.0156866
0.0142122
0.0128721
0.0119196
0.0109978
0.0105472
0.00995223
0.0098956
0.00938947
0.00935473
0.0111204
0.037051
0.0968717
0.168518
0.0323223
0.0231818
0.020203
0.0183807
0.0166745
0.0146455
0.0133189
0.0120571
0.0109036
0.00981235
0.0093022
0.00936966
0.00886131
0.00818511
0.00791232
0.00663855
0.0116301
0.0423704
0.0958645
0.154953
0.0157144
0.0147835
0.0156595
0.0133898
0.0120911
0.0111548
0.0105705
0.00978253
0.00904056
0.0085663
0.00821762
0.00790551
0.00752765
0.00735157
0.00717787
0.0067244
0.0117488
0.0409434
0.0950769
0.15114
0.0130483
0.0118504
0.0100943
0.00957902
0.00958916
0.00909571
0.00860742
0.00829808
0.00808308
0.00765906
0.00729608
0.00680638
0.00668975
0.00623851
0.00619788
0.00513011
0.00945465
0.0434942
0.0950577
0.139745
0.00654136
0.00713678
0.00841761
0.00833998
0.00743452
0.00710424
0.00680325
0.0064982
0.00607551
0.00597626
0.00596341
0.00601722
0.00579184
0.00572034
0.00567593
0.00478671
0.010576
0.040487
0.095102
0.137819
0.00561424
0.00651033
0.00596275
0.00544887
0.00535898
0.00550196
0.00544971
0.0055489
0.0056368
0.00555721
0.00531362
0.00507992
0.00505888
0.00484477
0.00478199
0.00393048
0.00715158
0.0383267
0.0958056
0.133428
0.00314281
0.00369228
0.00413146
0.00474976
0.00468961
0.00455614
0.00448725
0.00437391
0.00412751
0.0042668
0.00439762
0.00462309
0.0045146
0.00459257
0.00457594
0.00371274
0.00558505
0.0334796
0.0963638
0.132909
0.0028054
0.00334802
0.00347008
0.00336607
0.00304691
0.00320644
0.00336906
0.00367724
0.0039124
0.00399722
0.00389024
0.00383106
0.00389073
0.00395811
0.00393573
0.00341385
0.00647084
0.0281503
0.0961789
0.134807
0.00147894
0.00206394
0.00222916
0.00252706
0.00274408
0.00294329
0.00303256
0.00306125
0.00297656
0.003196
0.00338074
0.00372924
0.00368429
0.00391451
0.00391065
0.00354914
0.00255379
0.0223159
0.0961574
0.139259
0.00159618
0.00169733
0.00188088
0.00197536
0.00197125
0.00207339
0.00215482
0.00242884
0.00276257
0.00299534
0.00302615
0.00312229
0.00323945
0.00350029
0.00354795
0.00369728
0.00341012
0.0152918
0.0930236
0.147442
0.00112339
0.00108967
0.00131061
0.00147381
0.0016723
0.00187697
0.00217658
0.0023209
0.00221139
0.00239007
0.00261616
0.00302247
0.00308469
0.00338736
0.0034612
0.00370121
0.00297802
0.0104448
0.0881457
0.158513
0.000817133
0.000994008
0.00109413
0.0011868
0.0012379
0.00137276
0.00141766
0.00173977
0.00207948
0.00225643
0.00231022
0.00245241
0.00269959
0.00302497
0.00318233
0.00375477
0.00318639
0.00519052
0.0646262
0.170149
0.00057859
0.000723602
0.000857961
0.0010516
0.00116711
0.00132633
0.001502
0.00157698
0.00161781
0.00183217
0.00213783
0.0023947
0.00256371
0.00272204
0.00300385
0.00320231
0.00371244
0.00449129
0.0520501
0.187189
0.000528764
0.000641706
0.000657653
0.000782748
0.000856232
0.000992955
0.00103836
0.00126203
0.0014031
0.0016172
0.00166869
0.00186976
0.00209387
0.00236466
0.00278509
0.00288822
0.00363116
0.00813296
0.0292739
0.164954
0.000479472
0.00058533
0.000651581
0.000743029
0.000795734
0.000906714
0.00099213
0.00109698
0.00116582
0.0013419
0.00140246
0.00159756
0.00159435
0.00191385
0.00191563
0.00238185
0.00242328
0.00545932
0.0174706
0.120548
0.000348659
0.000447954
0.000483173
0.000555543
0.000601757
0.000686767
0.000761928
0.00086375
0.000895486
0.00100508
0.00106609
0.00132411
0.00139517
0.00163019
0.00164183
0.00207236
0.00188362
0.00338398
0.00588373
0.0762898
0.000354277
0.000396716
0.000422136
0.000469325
0.000501149
0.000560522
0.000568554
0.00064109
0.00070858
0.00079903
0.000812821
0.000893637
0.000884729
0.001072
0.00102115
0.00124581
0.00115282
0.00191442
0.00429732
0.0459962
0.000259731
0.000287342
0.000317739
0.000354115
0.000396527
0.000435278
0.000533899
0.000595514
0.000592126
0.000668518
0.000758635
0.000844204
0.000872949
0.00100477
0.000977075
0.00114412
0.00103443
0.00125652
0.000802539
0.0251963
0.000203463
0.00022991
0.000246913
0.000280911
0.000305908
0.000356932
0.000354164
0.000344966
0.000456397
0.000464129
0.000450359
0.000553024
0.000572143
0.000646877
0.000620676
0.000596568
0.000800657
0.000934801
0.00110252
0.00931716
0.000106424
0.000142292
0.000153174
0.000197553
0.000228349
0.000268431
0.000367853
0.000415748
0.000452668
0.000444421
0.00057413
0.000631595
0.000659536
0.000751608
0.000733435
0.000871942
0.000908143
0.000629171
0.000807042
0.00550943
0.0138827
0.0138877
0.0138645
0.0136924
0.0137285
0.0136027
0.0134252
0.0139222
0.0130519
0.0133382
0.0125608
0.0122201
0.0123913
0.0111227
0.0112629
0.00996935
0.00968339
0.00921245
0.00920545
0.00786681
0.00701641
0.00700296
0.0069461
0.00694478
0.00684151
0.00679337
0.00684647
0.0065922
0.00669082
0.00663646
0.0064362
0.00778729
0.0070802
0.00668227
0.0061589
0.00669527
0.00662504
0.00645011
0.00669914
0.00746772
0.00434126
0.00435112
0.00439373
0.00442154
0.00443458
0.00458642
0.00445747
0.00461739
0.00454468
0.00453318
0.00469693
0.00428494
0.00405779
0.00415777
0.00409475
0.0042546
0.00380157
0.00396443
0.00349096
0.00382407
0.00276682
0.0027664
0.00276447
0.00273233
0.00275525
0.00272635
0.00268885
0.00265665
0.0026479
0.00268113
0.00244999
0.00271263
0.00271878
0.0027985
0.00271405
0.00280893
0.00268818
0.00299269
0.0028321
0.00305586
0.00174564
0.00174386
0.00175215
0.00174794
0.0017634
0.0017676
0.00175801
0.00184742
0.00182187
0.00178879
0.00197419
0.00193376
0.00186298
0.00191902
0.00186774
0.0019392
0.00183154
0.0019582
0.00185861
0.00178574
0.00125369
0.00125268
0.00125978
0.00125464
0.0012657
0.00125759
0.00125787
0.0012642
0.00122048
0.00127005
0.00125091
0.00129007
0.00129275
0.00132072
0.00128539
0.00131844
0.00128835
0.00149806
0.00142431
0.00124462
0.000779926
0.000781052
0.000784203
0.000784712
0.000790016
0.000789463
0.000788859
0.000795772
0.000793467
0.000810554
0.000840187
0.00088557
0.000868896
0.000873358
0.000843482
0.000867267
0.000917523
0.0010341
0.000902428
0.000692699
0.000568723
0.000570515
0.000573032
0.000576245
0.000579578
0.000580702
0.000581161
0.000584775
0.000583368
0.000606049
0.00062431
0.00065863
0.00062745
0.0006325
0.000602688
0.000626665
0.000655128
0.000734627
0.000646742
0.00053947
0.000320532
0.000321783
0.000323874
0.000326929
0.000329571
0.000332424
0.000330782
0.000334237
0.00033446
0.000357933
0.000381728
0.000428271
0.00039179
0.00041265
0.000377912
0.000424845
0.000437886
0.000552561
0.000521364
0.000300781
0.000218238
0.000220824
0.000224177
0.000230006
0.000234198
0.000235782
0.000232784
0.000236208
0.000234987
0.000253948
0.000263266
0.000283731
0.00026011
0.000260694
0.000236026
0.000233495
0.000236389
0.000207314
0.000422998
0.000505295
8.49705e-05
8.85558e-05
9.42009e-05
0.000101161
0.000110605
0.000113959
0.00011492
0.000121632
0.000124378
0.000156654
0.000168393
0.000201721
0.000180561
0.00018474
0.000153066
0.000178106
0.000219519
0.00023235
8.92785e-05
6.67047e-05
2.39056e-05
3.31102e-05
4.07514e-05
4.8907e-05
5.76876e-05
5.53785e-05
5.48199e-05
6.01026e-05
7.66645e-05
9.49626e-05
0.000103925
9.17612e-05
0.00010583
0.000120098
0.000123611
0.000157065
0.000134572
0.000132625
0.00018532
0.000252528
1.60445e-05
2.80674e-05
3.7466e-05
5.13187e-05
6.61139e-05
5.58841e-05
5.01254e-05
5.12946e-05
4.92176e-05
5.99476e-05
6.25664e-05
7.64514e-05
7.40389e-05
6.12541e-05
7.99807e-05
8.26221e-05
9.3132e-05
0.000106035
0.000107151
0.000114384
5.11185e-05
4.94975e-05
5.00468e-05
4.99913e-05
5.25804e-05
5.33697e-05
6.37812e-05
6.12184e-05
7.01352e-05
7.75253e-05
8.95138e-05
8.89392e-05
0.000101684
0.000109188
9.78676e-05
9.12486e-05
9.77363e-05
9.38587e-05
0.000106997
0.000117529
6.00274e-05
6.52641e-05
6.73598e-05
7.00772e-05
7.4734e-05
7.1875e-05
6.52794e-05
6.71025e-05
6.55287e-05
6.46216e-05
6.59749e-05
6.53656e-05
6.8752e-05
7.31809e-05
8.64348e-05
8.71418e-05
9.41861e-05
9.54283e-05
0.000103382
0.000111305
6.49917e-05
6.66888e-05
7.09693e-05
7.04283e-05
6.78959e-05
7.09869e-05
7.445e-05
7.39838e-05
7.74592e-05
8.18999e-05
8.55502e-05
8.63727e-05
8.46564e-05
7.75156e-05
7.95552e-05
7.92956e-05
8.34952e-05
8.22896e-05
8.82747e-05
9.2386e-05
5.97639e-05
5.91049e-05
6.02866e-05
6.67632e-05
5.85405e-05
5.78384e-05
5.80597e-05
5.98026e-05
6.07913e-05
6.26256e-05
6.75757e-05
6.75526e-05
6.95771e-05
7.0347e-05
7.35964e-05
7.35051e-05
7.67301e-05
7.66742e-05
8.0248e-05
8.39898e-05
4.14155e-05
4.13485e-05
4.21741e-05
4.9259e-05
5.43431e-05
5.11148e-05
5.16114e-05
5.17243e-05
5.32511e-05
5.36478e-05
5.47999e-05
5.31781e-05
5.09537e-05
5.02515e-05
5.314e-05
5.28249e-05
5.55589e-05
5.6151e-05
5.75794e-05
6.11693e-05
2.90561e-05
2.89411e-05
2.91768e-05
2.78393e-05
2.47121e-05
2.36884e-05
2.44942e-05
2.51065e-05
2.63933e-05
2.9235e-05
3.22487e-05
3.41991e-05
3.95343e-05
3.85768e-05
4.2907e-05
4.08e-05
4.48627e-05
4.46835e-05
4.33571e-05
4.96039e-05
6.98585e-06
8.00281e-06
5.53254e-06
7.66617e-06
8.71658e-06
1.06101e-05
1.15647e-05
1.27907e-05
1.40243e-05
1.46894e-05
1.56762e-05
1.6507e-05
1.84025e-05
1.88749e-05
2.05385e-05
2.06903e-05
2.27831e-05
2.25181e-05
2.32967e-05
2.81427e-05
0.00094651
0.00114897
0.000803866
0.000861146
0.000902734
0.000913938
0.000936431
0.000953096
0.00098758
0.00102752
0.00106708
0.00108672
0.00115938
0.00118203
0.00126569
0.00129986
0.00126902
0.00195854
0.00672561
0.0179315
0.000911775
0.000986558
0.000728236
0.000809484
0.000878435
0.000901107
0.000935677
0.00096934
0.00100335
0.00104523
0.00107886
0.00111695
0.00118924
0.00119703
0.00124402
0.00126076
0.00130819
0.00145631
0.00561508
0.0176295
0.000932678
0.00108446
0.000794989
0.000851172
0.000913802
0.000932932
0.000960529
0.000989615
0.00102616
0.00106494
0.00110184
0.00113154
0.0012
0.00121429
0.00130664
0.00131408
0.00139687
0.0012362
0.00475794
0.0172994
0.0010115
0.00111067
0.000804393
0.000868097
0.00091709
0.00093665
0.000968248
0.0010029
0.00103774
0.00107887
0.00110773
0.00115647
0.00121682
0.00122903
0.00128341
0.00127485
0.00140178
0.00117299
0.00388175
0.0168884
0.000996389
0.00112399
0.000841618
0.000881309
0.000940339
0.0009715
0.00099584
0.00103001
0.00106585
0.00109915
0.00113815
0.00118001
0.00123545
0.00125098
0.00133623
0.00135552
0.00147472
0.00127534
0.00396456
0.0163759
0.00107013
0.00116154
0.000857416
0.000920353
0.000983581
0.00099239
0.00101409
0.00105071
0.00107486
0.00111636
0.00114763
0.00120087
0.00124429
0.00127233
0.0013384
0.00134238
0.00147814
0.0013203
0.00479058
0.01578
0.00105394
0.0011129
0.000852282
0.000935677
0.000971392
0.000989723
0.00102322
0.00105403
0.00108762
0.00112823
0.00117048
0.00121646
0.00125807
0.00129542
0.00137212
0.00141333
0.00153917
0.00142469
0.00439629
0.0152461
0.00107376
0.00112125
0.000907921
0.000968172
0.00100647
0.00103199
0.0010478
0.00107683
0.00110374
0.00115233
0.00117725
0.00122343
0.00125357
0.00130586
0.00136738
0.0013945
0.00151903
0.00141196
0.00390249
0.0141584
0.00101962
0.00108832
0.000900826
0.000942735
0.000979793
0.000990789
0.00101094
0.00105109
0.00109958
0.00113802
0.00116677
0.00120917
0.00125396
0.0013267
0.00137475
0.00144148
0.00152888
0.00146206
0.00315944
0.0129275
0.00106521
0.00109293
0.000910893
0.000953286
0.000988988
0.00101666
0.00105414
0.00111
0.00112911
0.00115413
0.00116368
0.00121889
0.00127377
0.00132806
0.00135859
0.00141668
0.0014564
0.00147892
0.00250213
0.010291
0.000987805
0.00100263
0.000879546
0.000932021
0.000983616
0.00101451
0.00104938
0.00106037
0.00106912
0.00108961
0.00113575
0.00122717
0.00127068
0.00132819
0.00134873
0.00140883
0.00145192
0.0015113
0.00212421
0.00840853
0.00101764
0.00105084
0.000948501
0.000990791
0.00101615
0.00103013
0.00102782
0.00104886
0.00107321
0.00113909
0.00121706
0.00127817
0.00129998
0.00132395
0.00132601
0.00141117
0.00143397
0.00148952
0.00182858
0.0067584
0.00098954
0.000986732
0.000890753
0.000907895
0.000939921
0.000944805
0.000984336
0.00103382
0.00109966
0.00118179
0.00121679
0.00125504
0.00124619
0.00127408
0.00132369
0.00141387
0.00142151
0.00152292
0.00169032
0.00573155
0.000903087
0.000914842
0.000865816
0.000919621
0.000972095
0.00101964
0.00108915
0.0011384
0.00120278
0.00121769
0.00123388
0.00123884
0.00123379
0.00131354
0.00134969
0.00143151
0.00145592
0.00151779
0.00159837
0.00486854
0.000970766
0.00101032
0.00096944
0.00102444
0.00105342
0.00109414
0.00110859
0.00112727
0.00113104
0.00112216
0.00114559
0.0011481
0.00122354
0.00129155
0.00134524
0.00146134
0.00142047
0.00150611
0.00155972
0.00443189
0.000963117
0.000981178
0.000938472
0.000972807
0.000990563
0.00101331
0.00101706
0.00105252
0.00106459
0.00112119
0.00116664
0.00124129
0.00133318
0.00138124
0.00147273
0.00146212
0.00142737
0.00154913
0.00164417
0.00433157
0.000958075
0.0009806
0.000959509
0.000990895
0.00102859
0.00105124
0.00109026
0.00113026
0.00117233
0.00122734
0.00125973
0.00132047
0.0013215
0.0013514
0.00132035
0.00128303
0.00134228
0.00140801
0.0015459
0.00360041
0.000934344
0.00097742
0.000945512
0.000981696
0.00102045
0.00103484
0.00107311
0.00108894
0.00112681
0.00113804
0.00117129
0.00118168
0.00120345
0.00123208
0.00126289
0.0013696
0.0015036
0.00168175
0.00184437
0.00365212
0.000917479
0.000957487
0.000926836
0.000974865
0.00100605
0.00103085
0.00106247
0.00109251
0.00113048
0.0011624
0.00121216
0.00124665
0.00131866
0.00136723
0.00147235
0.00154322
0.00163771
0.00161491
0.00152446
0.00210393
0.00091677
0.000958369
0.000931794
0.000982182
0.00101109
0.00104083
0.00106845
0.00110531
0.0011358
0.00117685
0.00121071
0.00125827
0.00129066
0.00133723
0.00137108
0.00140979
0.00146594
0.00145237
0.00157196
0.00203988
0.000245166
0.000160367
0.00019964
0.000223207
0.000195191
0.000115396
0.000101413
0.000246712
0.000189025
0.000113657
3.59838e-05
0.000414982
0.00154672
0.00418504
0.00828731
0.0106496
0.00797302
0.00357484
7.55717e-05
0.000867854
0.000287307
0.00022686
0.000205083
0.000192856
0.000237971
0.000216091
0.00017229
0.000190476
0.000273277
0.000223092
0.000124722
9.08897e-05
0.000535769
0.00204734
0.00535576
0.00941711
0.0103122
0.00626548
0.00153105
5.34482e-23
0.00027548
0.000260283
0.000282794
0.000209406
0.000194539
0.000220752
0.000238665
0.000185459
0.000217441
0.000281089
0.000242075
0.000129436
8.76131e-05
0.000799486
0.00304726
0.00720378
0.0107714
0.00880393
0.00387756
0.000226358
0.000304722
0.000239667
0.000290298
0.000289226
0.000262957
0.000222045
0.000242434
0.000246307
0.00024176
0.000252421
0.000300596
0.000252721
9.22068e-05
0.000109932
0.00139869
0.00495915
0.00948417
0.0105746
0.00655636
0.000921681
0.000339687
0.000286123
0.000284042
0.00027361
0.000289687
0.000268364
0.000279869
0.000238091
0.000270515
0.000280152
0.000301609
0.00031705
0.000255911
0.000135143
0.000415458
0.00270997
0.00771987
0.0112124
0.00863818
0.00211089
0.000361549
0.000326019
0.00035299
0.000321635
0.000329142
0.000279816
0.000318689
0.000311101
0.000285278
0.000311342
0.00031974
0.000368714
0.000353926
0.000243371
0.000159496
0.00122329
0.00582423
0.0109229
0.00991133
0.00244508
0.00038941
0.000349603
0.000355366
0.000326395
0.000374546
0.000335877
0.000338555
0.000328212
0.000350137
0.000347426
0.000362621
0.000384097
0.000415043
0.000371438
0.000180155
0.000318254
0.00355447
0.00978065
0.0110954
0.00500959
0.000415293
0.000405816
0.000434607
0.00036216
0.00040361
0.000367774
0.000402203
0.000394982
0.000373355
0.000411795
0.000423815
0.00044125
0.000504666
0.00048379
0.000351181
0.000245128
0.00182182
0.0086567
0.0116501
0.00712548
0.000428386
0.000413951
0.000452817
0.000391134
0.00045311
0.00041945
0.000420419
0.000433894
0.000447915
0.000444337
0.00047661
0.000503317
0.000523212
0.000599671
0.000549495
0.000286076
0.000712363
0.00750998
0.0119138
0.00954279
0.000461202
0.000467006
0.000525351
0.000432715
0.000482115
0.000468591
0.000494347
0.000494261
0.000484995
0.000526502
0.000541939
0.000563756
0.000624859
0.000648117
0.000613645
0.000424634
0.000402385
0.0053973
0.011741
0.0120668
0.000492742
0.000486425
0.000547048
0.000475849
0.00052964
0.00051359
0.000514576
0.000540432
0.000553918
0.000554992
0.000599965