/*--------------------------------*- C++ -*----------------------------------*\
  =========                 |
  \\      /  F ield         | OpenFOAM: The Open Source CFD Toolbox
   \\    /   O peration     | Website:  https://openfoam.org
    \\  /    A nd           | Version:  9
     \\/     M anipulation  |
\*---------------------------------------------------------------------------*/
FoamFile
{
    format      ascii;
    class       volScalarField;
    location    "2.6";
    object      p;
}
// * * * * * * * * * * * * * * * * * * * * * * * * * * * * * * * * * * * * * //

dimensions      [0 2 -2 0 0 0 0];

internalField   nonuniform List<scalar> 
46400
(
-45.2235
-39.1262
-26.9605
-17.5412
-8.77951
-0.781099
6.31399
12.886
18.7317
24.1081
29.0003
33.4866
37.6242
41.4576
45.0529
48.445
51.5901
54.8726
58.2948
59.2781
-21.9824
-15.9617
-4.99372
3.9876
11.9979
19.3894
25.9167
31.8924
37.2428
42.102
46.4938
50.4693
54.0868
57.38
60.379
63.1184
65.5871
68.0517
70.3169
70.6862
2.2452
8.33324
18.0129
26.2558
33.4168
40.073
45.9033
51.2631
55.9831
60.2727
64.127
67.5985
70.7295
73.5573
76.1164
78.4033
80.3976
82.3617
83.9398
83.5053
26.8599
31.9876
40.3737
48.0334
54.5005
60.5089
65.7307
70.4609
74.6463
78.3579
81.671
84.5978
87.2043
89.5067
91.5533
93.3575
94.9058
96.417
97.6933
97.0422
50.789
54.995
62.8026
69.8868
75.7664
81.1257
85.7267
89.8461
93.4097
96.5572
99.3148
101.726
103.826
105.651
107.232
108.571
109.672
110.756
111.55
110.579
73.5805
78.1046
85.261
91.6662
96.8234
101.467
105.381
108.826
111.806
114.345
116.56
118.44
120.058
121.415
122.573
123.52
124.261
124.989
125.543
124.414
97.2082
102.008
108.168
113.6
117.936
121.767
124.971
127.704
130.017
131.952
133.567
134.898
135.981
136.842
137.517
138.009
138.318
138.631
138.843
137.5
120.328
125.488
130.331
134.821
138.296
141.293
143.761
145.803
147.502
148.839
149.93
150.753
151.384
151.807
152.09
152.205
152.172
152.151
152.049
150.563
143.479
148.686
152.206
155.524
158.144
160.268
161.993
163.301
164.322
165.041
165.526
165.793
165.881
165.81
165.611
165.288
164.838
164.417
163.902
162.23
165.345
169.376
172.182
174.487
176.382
177.796
178.895
179.637
180.123
180.333
180.358
180.18
179.853
179.365
178.777
178.066
177.259
176.477
175.617
173.72
185.635
188.582
190.737
192.279
193.478
194.238
194.713
194.854
194.771
194.438
193.938
193.275
192.498
191.596
190.603
189.514
188.339
187.2
185.992
183.947
203.018
205.364
207.018
208.042
208.756
209.042
209.083
208.819
208.351
207.629
206.745
205.687
204.523
203.252
201.902
200.466
198.953
197.458
195.899
193.6
219.255
221.007
222.133
222.585
222.77
222.512
222.044
221.29
220.393
219.289
218.04
216.639
215.135
213.537
211.889
210.177
208.426
206.709
204.987
202.585
233.204
234.492
235.239
235.315
235.147
234.546
233.719
232.628
231.375
229.951
228.4
226.696
224.899
222.984
221.017
218.976
216.897
214.847
212.775
210.226
245.566
246.355
246.687
246.344
245.804
244.847
243.668
242.222
240.639
238.894
237.072
235.139
233.142
231.062
228.927
226.727
224.47
222.23
219.964
217.203
256.736
256.889
256.763
256.049
255.155
253.905
252.463
250.738
248.866
246.834
244.707
242.5
240.233
237.92
235.575
233.197
230.79
228.416
226.074
223.253
264.752
264.6
264.155
263.175
262.017
260.575
258.989
257.185
255.223
253.097
250.854
248.502
246.085
243.599
241.09
238.539
235.971
233.432
230.949
228.03
271.76
271.54
270.868
269.599
268.083
266.302
264.386
262.293
260.11
257.785
255.405
252.921
250.407
247.827
245.24
242.614
239.977
237.379
234.874
231.866
274.884
274.666
273.999
273.001
271.639
269.936
268.004
265.841
263.556
261.125
258.624
256.037
253.412
250.742
248.062
245.369
242.662
240.016
237.485
234.503
279.821
276.927
276.588
275.111
273.707
271.842
269.87
267.639
265.319
262.84
260.305
257.673
255.012
252.297
249.581
246.839
244.093
241.395
238.814
235.759
-145.641
-145.637
-145.419
-145.658
-145.274
-143.521
-141.915
-139.86
-137.894
-136.203
-134.589
-132.828
-130.981
-129.437
-127.877
-126.111
-124.478
-122.985
-121.492
-119.875
-146.611
-146.297
-146.876
-145.924
-145.72
-143.786
-141.342
-138.733
-136.544
-134.471
-132.283
-130.075
-128.079
-126.155
-124.229
-122.298
-120.497
-118.77
-117.109
-115.36
-146.955
-146.84
-147.242
-146.17
-143.928
-142.215
-139.824
-137.314
-134.866
-132.297
-129.878
-127.532
-125.309
-123.055
-120.902
-118.838
-116.832
-114.795
-112.864
-110.953
-147.187
-147.409
-146.935
-146.877
-143.929
-141.254
-138.488
-135.866
-132.96
-130.171
-127.452
-124.784
-122.244
-119.699
-117.324
-114.955
-112.693
-110.47
-108.397
-106.286
-149.173
-149.224
-147.909
-146.829
-144.438
-141.145
-137.995
-134.557
-131.386
-128.177
-125.114
-122.138
-119.287
-116.457
-113.832
-111.176
-108.724
-106.326
-104.078
-101.763
-151.987
-151.515
-151.311
-148.416
-144.923
-141.126
-137.13
-133.372
-129.637
-126.054
-122.561
-119.192
-115.965
-112.819
-109.876
-106.925
-104.242
-101.56
-99.1122
-96.6015
-156.739
-155.945
-154.961
-150.897
-146.342
-141.672
-136.937
-132.464
-128.107
-123.945
-119.984
-116.194
-112.579
-109.103
-105.855
-102.637
-99.7317
-96.8084
-94.2056
-91.4847
-164.571
-163.603
-160.375
-154.757
-148.34
-142.199
-136.573
-131.167
-126.099
-121.324
-116.815
-112.553
-108.519
-104.695
-101.109
-97.6212
-94.4942
-91.309
-88.5696
-85.7027
-170.612
-169.828
-163.85
-156.551
-148.947
-141.821
-135.204
-129.12
-123.394
-118.05
-113.062
-108.377
-103.973
-99.8334
-95.9594
-92.2514
-88.9039
-85.5094
-82.6605
-79.5987
-176.776
-174.8
-166.406
-157.434
-148.501
-140.386
-132.816
-125.933
-119.574
-113.671
-108.201
-103.098
-98.3368
-93.896
-89.7424
-85.8281
-82.2798
-78.719
-75.7674
-72.5571
-177.133
-174.555
-165.203
-154.972
-145.369
-136.558
-128.472
-121.101
-114.301
-108.021
-102.22
-96.8256
-91.811
-87.1477
-82.8022
-78.75
-75.0334
-71.3597
-68.4236
-64.926
-174.33
-172.096
-161.562
-150.651
-140.561
-131.231
-122.621
-114.81
-107.602
-100.95
-94.8352
-89.1599
-83.9107
-79.0478
-74.5275
-70.3456
-66.481
-62.7929
-59.7212
-56.1769
-169.813
-167.157
-156.41
-144.152
-133.464
-123.782
-114.787
-106.668
-99.2265
-92.3758
-86.0925
-80.2816
-74.912
-69.9451
-65.3425
-61.0907
-57.1487
-53.4196
-50.2574
-46.6398
-162.973
-159.193
-147.444
-135.491
-124.202
-114.355
-105.161
-96.8618
-89.2578
-82.2523
-75.8473
-69.9245
-64.4776
-59.4473
-54.7971
-50.5286
-46.5511
-42.8658
-39.6945
-36.0301
-152.08
-147.764
-136.116
-124.273
-112.927
-102.933
-93.667
-85.2802
-77.6507
-70.6394
-64.2398
-58.3467
-52.9224
-47.9261
-43.3258
-39.1
-35.1564
-31.5602
-28.4304
-24.7417
-139.868
-134.894
-122.774
-110.951
-99.5137
-89.5648
-80.3504
-72.0295
-64.4658
-57.5029
-51.1682
-45.3319
-39.9861
-35.0614
-30.541
-26.4027
-22.5313
-19.0802
-15.9948
-12.2905
-124.142
-119.157
-106.683
-94.9439
-83.9981
-74.302
-65.369
-57.2325
-49.8813
-43.1188
-36.963
-31.3101
-26.1162
-21.3516
-16.9911
-12.987
-9.25132
-6.00547
-3.03844
0.631306
-107.224
-101.741
-89.0745
-77.9062
-67.0696
-57.6674
-49.005
-41.1291
-34.0199
-27.4732
-21.5358
-16.0882
-11.1076
-6.53629
-2.376
1.44064
4.9775
7.96971
10.7349
14.2307
-87.9253
-82.2567
-69.1859
-58.7047
-48.5671
-39.5422
-31.3806
-23.8568
-17.113
-10.9039
-5.25547
-0.0779676
4.67716
9.02499
12.9976
16.675
20.0276
22.786
25.3848
29.2539
-67.5141
-61.6101
-48.896
-38.8203
-29.2158
-20.6335
-12.8901
-5.79581
0.595456
6.47972
11.8347
16.7587
21.2996
25.5047
29.4028
33.0771
36.4206
39.5348
42.926
46.8688
-113.209
-103.208
-95.4139
-92.9858
-88.9547
-88.0921
-85.8951
-84.8064
-83.3428
-81.9855
-80.7775
-79.2425
-78.085
-76.4686
-75.2248
-73.6063
-72.0485
-71.011
-70.2625
-69.7847
-107.96
-99.1117
-90.9472
-88.6897
-84.5569
-83.8345
-81.8082
-80.9802
-79.8254
-78.6974
-77.7329
-76.4138
-75.4884
-74.0719
-73.0553
-71.6344
-70.2609
-69.2969
-68.6975
-68.2663
-102.947
-94.8166
-86.204
-84.3176
-80.2931
-79.81
-78.0056
-77.3154
-76.3551
-75.4176
-74.6892
-73.572
-72.8647
-71.6357
-70.8304
-69.5569
-68.414
-67.638
-67.1295
-66.6957
-97.5258
-90.3603
-81.535
-79.9799
-75.9093
-75.5935
-74.0317
-73.5751
-72.9201
-72.2
-71.71
-70.7995
-70.3198
-69.2843
-68.7047
-67.6246
-66.671
-65.9559
-65.6049
-65.2092
-92.1453
-85.7267
-76.6294
-75.5169
-71.6461
-71.5846
-70.2674
-69.9623
-69.5197
-68.9861
-68.7274
-68.0132
-67.7445
-66.8926
-66.525
-65.587
-64.872
-64.3245
-64.0881
-63.6839
-86.1748
-80.8669
-71.7812
-71.1013
-67.2883
-67.392
-66.3839
-66.3027
-66.1625
-65.8345
-65.8087
-65.2916
-65.2446
-64.5829
-64.439
-63.6924
-63.18
-62.673
-62.6184
-62.2406
-80.3537
-75.8756
-66.7656
-66.5226
-63.026
-63.386
-62.6713
-62.7426
-62.8237
-62.6849
-62.8825
-62.5598
-62.7154
-62.2322
-62.3006
-61.694
-61.4351
-61.0684
-61.1367
-60.7656
-74.1521
-70.5727
-61.768
-61.9963
-58.6876
-59.2188
-58.8323
-59.1414
-59.5269
-59.5954
-60.0172
-59.8854
-60.2579
-59.959
-60.2529
-59.8324
-59.7999
-59.4493
-59.7449
-59.3777
-67.8004
-65.1677
-56.5768
-57.3259
-54.4239
-55.216
-55.1705
-55.642
-56.2517
-56.5099
-57.1457
-57.2046
-57.7698
-57.6467
-58.1515
-57.8718
-58.1154
-57.8698
-58.3131
-57.9666
-60.9547
-59.4988
-51.4209
-52.6588
-50.1178
-51.0459
-51.3801
-52.0957
-53.0097
-53.4797
-54.3291
-54.5763
-55.3492
-55.4062
-56.1305
-56.0463
-56.5498
-56.2712
-56.9949
-56.6409
-53.9947
-53.5819
-46.1569
-47.8224
-45.8618
-47.0383
-47.7622
-48.6571
-49.7935
-50.4576
-51.5089
-51.9419
-52.8995
-53.1282
-54.0578
-54.1246
-54.9184
-54.7422
-55.6334
-55.2992
-46.5734
-47.3029
-40.8462
-43.0173
-41.5637
-42.879
-44.0026
-45.1686
-46.6025
-47.4853
-48.741
-49.3579
-50.5122
-50.9148
-52.0577
-52.3304
-53.3726
-53.232
-54.3896
-54.0405
-38.8037
-40.88
-35.3963
-38.0687
-37.2998
-38.8699
-40.4078
-41.7848
-43.4394
-44.5228
-45.9697
-46.7667
-48.0967
-48.6643
-50.0053
-50.4425
-51.7498
-51.7322
-53.0948
-52.772
-30.3455
-34.1841
-29.9043
-33.1533
-33.0027
-34.7328
-36.6752
-38.3598
-40.3027
-41.6108
-43.2517
-44.2264
-45.7413
-46.4735
-48.0191
-48.6747
-50.2166
-50.3075
-51.9403
-51.586
-21.2881
-27.3091
-24.2834
-28.1251
-28.7482
-30.7479
-33.1046
-35.0434
-37.2068
-38.7206
-40.5423
-41.6881
-43.3681
-44.2547
-45.9893
-46.8286
-48.6081
-48.9137
-50.8273
-50.3821
-11.3276
-19.9875
-18.5365
-23.0584
-24.4068
-26.6033
-29.3559
-31.6499
-34.1016
-35.848
-37.858
-39.1774
-41.0323
-42.0727
-44.0058
-45.0778
-47.0779
-47.509
-49.8317
-49.3089
-1.21197
-12.6314
-12.7195
-17.8826
-20.0615
-22.5543
-25.7054
-28.3043
-30.998
-32.9614
-35.1501
-36.6381
-38.6488
-39.8291
-41.9389
-43.1926
-45.4413
-45.9813
-48.6725
-48.1105
9.0769
-5.61299
-7.31126
-13.0555
-15.976
-18.6979
-22.2015
-25.1739
-28.1315
-30.3015
-32.6447
-34.2722
-36.4297
-37.7343
-40.0063
-41.5109
-43.8995
-44.6125
-47.6819
-46.9452
24.119
3.10065
-1.31948
-8.13411
-11.9899
-15.0026
-18.8261
-22.1842
-25.3747
-27.7505
-30.2505
-32.0127
-34.314
-35.7395
-38.1942
-40.0253
-42.5081
-43.5698
-47.1425
-46.4223
41.4374
14.8566
6.72155
-1.36676
-6.24883
-9.55299
-13.7999
-17.6926
-21.3594
-24.1134
-26.9168
-28.9686
-31.4892
-33.0898
-35.8227
-37.8219
-41.1539
-42.1165
-46.3619
-44.774
65.4275
60.1972
45.1606
36.8639
25.9463
19.1932
12.4118
7.28096
1.79181
-2.7703
-7.3139
-10.8063
-14.1229
-16.4086
-19.5792
-20.0933
-25.3697
-25.7368
-31.7605
-25.7884
101.727
89.0976
69.9165
58.8038
46.773
37.6163
29.0478
22.1341
16.3531
11.511
7.21683
3.07516
-0.834667
-4.4187
-7.75821
-11.1927
-13.752
-16.4452
-17.7838
-17.7671
103.285
90.8153
79.1933
69.4598
60.5447
52.5757
45.4047
38.712
32.6002
27.3884
22.8404
19.0898
15.6364
12.8326
10.2165
8.15179
6.01489
4.31042
3.47967
3.19532
102.557
94.2236
85.9329
76.9037
69.1842
61.5198
54.9258
48.8628
43.582
38.4168
33.7668
29.2581
25.4548
21.6417
18.6025
15.4508
13.1575
10.7427
9.71711
9.44114
94.1991
87.2647
81.0713
75.0035
69.6617
64.2068
59.2005
54.383
49.922
45.8578
42.0455
38.6413
35.4359
32.5954
29.9997
27.5778
25.5907
23.4906
22.1877
21.8419
90.6779
86.1035
82.6729
77.7283
73.2211
68.5367
64.1552
59.8553
55.8006
51.9014
48.2223
44.7146
41.4437
38.3279
35.4938
32.7777
30.4372
28.1566
26.975
26.6707
84.2143
80.9946
77.7236
74.344
71.1103
67.9563
64.7028
61.6497
58.5092
55.65
52.6902
50.0474
47.3064
44.852
42.347
39.9427
37.6542
35.3266
33.6677
33.2595
82.7934
80.3927
78.6395
76.0596
73.1143
70.3852
67.6867
64.9653
62.2154
59.5757
56.8648
54.3467
51.7114
49.3212
46.8007
44.5606
42.2172
39.9646
38.4991
37.7924
79.067
77.3441
75.4459
73.7378
72.1375
70.2611
68.1613
66.2646
64.1036
62.1932
59.9925
58.0906
55.8348
53.9327
51.5715
49.579
47.0448
44.9768
42.771
42.0831
78.5643
78.0404
76.6822
75.5442
73.812
72.2106
70.4273
68.8482
67.0735
65.4095
63.5442
61.8463
59.8498
58.1216
55.9243
54.149
51.5369
49.7114
47.0761
46.4706
77.7614
76.7747
75.7879
74.9586
74.026
73.1201
71.9607
70.7855
69.4742
68.2793
66.8928
65.6768
64.1706
62.9215
61.1836
59.8496
57.5703
56.2977
53.1677
52.7826
78.2388
77.9044
77.2632
76.5688
75.6682
74.8503
73.9413
73.1212
72.1986
71.3439
70.3519
69.4775
68.3741
67.4956
66.1934
65.3731
63.5017
63.0388
59.322
59.9815
78.4381
78.1103
77.7065
77.392
76.9493
76.5577
76.0317
75.558
75.0042
74.55
74.072
73.6332
73.2692
72.8446
72.5559
72.168
71.731
71.6951
71.7152
73.1737
79.3626
79.1987
78.8665
78.6421
78.3307
78.1427
77.8756
77.7545
77.5351
77.4937
77.3654
77.4249
77.4913
77.661
78.1114
78.292
79.4497
79.5731
81.9739
83.2347
80.0443
80.0223
79.9128
79.896
79.7993
79.8172
79.7534
79.8648
79.8737
80.1288
80.2419
80.7359
81.0453
81.8853
82.4693
83.7385
84.9705
86.4733
89.3313
90.0442
80.837
80.8863
80.8788
80.9832
81.0501
81.237
81.398
81.7009
81.9786
82.4645
82.914
83.6584
84.2901
85.3408
86.2057
87.7592
88.8028
91.2277
92.7096
95.5321
81.507
81.623
81.7123
81.8882
82.0463
82.3112
82.5471
82.9464
83.2887
83.8562
84.3079
85.1211
85.7195
86.8725
87.6543
89.2818
90.2263
92.5833
93.6737
103.315
82.1208
82.2899
82.4591
82.7044
82.9609
83.3043
83.6809
84.141
84.633
85.2706
85.9159
86.7634
87.5331
88.6666
89.5317
91.0475
91.968
94.0598
95.0717
98.3446
82.5069
82.6836
82.8741
83.1309
83.4127
83.7759
84.1522
84.647
85.1491
85.7906
86.4188
87.2316
87.994
89.009
89.8846
91.1257
92.0111
93.4325
93.8691
100.095
82.7089
82.9016
83.1286
83.4074
83.7369
84.1174
84.5612
85.0655
85.6327
86.2833
86.9855
87.8067
88.6411
89.6644
90.6075
91.8795
92.8646
94.4748
95.3327
97.4624
200.509
199.91
198.524
196.84
194.132
191.262
187.323
183.124
178.19
172.716
166.698
160.08
152.934
144.271
136.699
127.529
117.674
108.484
99.25
89.4882
171.079
170.735
170.154
169.258
168.095
166.714
164.927
163.116
160.696
158.416
155.439
152.76
148.349
143.844
140.149
136.666
132.704
128.653
124.229
119.644
133.915
133.776
133.494
133.132
132.643
132.04
131.36
130.521
129.609
128.581
127.409
126.193
124.754
123.417
121.601
120.008
117.988
116.193
113.943
112.218
121.551
121.464
121.297
121.094
120.763
120.451
119.936
119.485
118.825
118.201
117.397
116.627
115.666
114.779
113.69
112.71
111.47
110.429
109.003
108.027
103.256
103.194
103.115
102.972
102.836
102.62
102.415
102.143
101.859
101.557
101.178
100.852
100.419
100.056
99.557
99.1485
98.5609
98.1165
97.4195
97.0014
97.4266
97.3946
97.3261
97.2608
97.1402
97.0411
96.8689
96.7306
96.5128
96.3064
96.0573
95.7838
95.4569
95.1472
94.7534
94.4131
93.9419
93.5801
93.032
92.6962
88.9662
88.9327
88.889
88.8185
88.7436
88.6415
88.5278
88.401
88.2413
88.0937
87.8933
87.7146
87.4834
87.271
87.0062
86.7588
86.4512
86.1727
85.811
85.5109
86.1077
86.0868
86.0467
86.0062
85.9399
85.8789
85.7868
85.7044
85.5873
85.4825
85.3404
85.2138
85.0433
84.8954
84.6962
84.5283
84.2966
84.1103
83.8362
83.5846
82.574
82.5531
82.5208
82.4773
82.4217
82.3576
82.2769
82.1948
82.0883
81.9909
81.858
81.7426
81.5767
81.4335
81.2344
81.0585
80.806
80.5763
80.1923
79.7508
81.2119
81.1965
81.1721
81.1431
81.1014
81.0595
80.9999
80.9476
80.8722
80.8118
80.7157
80.6464
80.5293
80.4242
80.3072
80.1589
80.0512
79.8675
79.7523
79.5151
80.2382
80.218
80.1892
80.1492
80.1027
80.0453
79.9826
79.9126
79.8321
79.7578
79.6586
79.5686
79.416
79.2689
79.0653
78.9023
78.7035
78.523
78.334
78.1542
79.7624
79.7346
79.7036
79.6645
79.6224
79.5741
79.5303
79.4848
79.4437
79.3966
79.3517
79.2906
79.2318
79.152
79.0776
78.9919
78.88
78.7869
78.6521
78.5615
79.8034
79.7874
79.7707
79.7518
79.7355
79.7174
79.6888
79.6521
79.6044
79.5594
79.5025
79.4455
79.378
79.3004
79.2203
79.117
79.0155
78.9158
78.7803
78.6547
80.1823
80.173
80.161
80.1451
80.1272
80.1053
80.0845
80.059
80.0347
80.0027
79.9723
79.9369
79.8998
79.8618
79.8161
79.7731
79.724
79.6673
79.6151
79.5458
80.5007
80.4943
80.486
80.4769
80.4654
80.4534
80.4388
80.4239
80.4065
80.3884
80.3684
80.3463
80.3241
80.2978
80.274
80.2458
80.2197
80.1895
80.1606
80.1281
81.0572
81.0514
81.046
81.0392
81.0332
81.0253
81.0186
81.0099
81.0023
80.9925
80.9839
80.9731
80.9633
80.9519
80.9405
80.9274
80.9151
80.9003
80.8876
80.8713
81.4545
81.4511
81.4481
81.4464
81.4451
81.4451
81.445
81.4458
81.4468
81.4483
81.4506
81.4528
81.4565
81.4591
81.4637
81.4672
81.4726
81.477
81.4831
81.4881
81.8809
81.8775
81.8758
81.875
81.876
81.878
81.8815
81.8862
81.8924
81.8998
81.9095
81.9201
81.9343
81.9484
81.9651
81.9814
82.0003
82.0192
82.0398
82.0614
82.1578
82.155
82.1547
82.1568
82.1612
82.1683
82.1776
82.189
82.2027
82.2179
82.2349
82.2519
82.271
82.2891
82.3116
82.3321
82.3574
82.3812
82.4076
82.4378
82.2846
82.2817
82.282
82.2862
82.2926
82.3009
82.3111
82.3235
82.3376
82.3534
82.3713
82.3911
82.413
82.4363
82.4627
82.4902
82.5216
82.5532
82.5903
82.6263
63.4662
62.5099
59.1597
55.959
52.8879
49.5772
46.0663
42.323
38.2741
33.8888
29.1073
23.8416
18.1261
11.7034
4.75251
-3.09226
-11.6838
-20.9335
-32.9039
-38.9243
74.7506
74.397
72.1827
69.7791
67.3755
64.7033
61.7732
58.555
55.0239
51.1355
46.8383
42.089
36.8545
31.0173
24.6149
17.371
9.52023
0.685013
-10.0642
-15.9931
87.3108
87.757
86.2361
84.3384
82.4102
80.1951
77.711
74.9698
71.9206
68.5423
64.7933
60.6111
56.0141
50.7945
45.0938
38.5893
31.5844
23.5115
14.0522
8.02236
100.688
101.34
100.119
98.6608
97.1736
95.4344
93.458
91.2268
88.7022
85.8621
82.6391
79.0282
74.9537
70.3439
65.2299
59.3521
53.0149
45.4899
37.2798
32.334
113.84
114.837
114.129
113.118
112.092
110.834
109.333
107.598
105.583
103.265
100.61
97.5687
94.1196
90.1244
85.6366
80.414
74.6671
67.7357
60.0623
55.9124
127.495
128.679
128.219
127.563
126.894
126.019
124.936
123.651
122.111
120.315
118.183
115.732
112.851
109.509
105.689
101.171
96.1377
89.8674
82.8619
78.4087
140.298
141.693
141.58
141.34
141.104
140.688
140.089
139.31
138.309
137.062
135.535
133.696
131.481
128.85
125.746
122.044
117.827
112.54
106.553
101.776
153.347
154.886
155.041
155.124
155.219
155.163
154.943
154.579
154.01
153.25
152.22
150.948
149.321
147.357
144.97
142.084
138.704
134.356
129.665
124.506
164.774
166.468
167.031
167.505
168.006
168.384
168.637
168.765
168.733
168.523
168.097
167.448
166.501
165.277
163.643
161.628
159.104
155.934
152.511
147.45
176.131
178.068
178.978
179.811
180.668
181.423
182.058
182.584
182.95
183.167
183.183
183.021
182.591
181.912
180.876
179.538
177.713
175.507
172.765
168.929
186.223
188.269
189.492
190.655
191.85
192.96
193.973
194.895
195.698
196.39
196.93
197.316
197.458
197.381
196.965
196.277
195.141
193.687
191.605
188.773
195.665
197.957
199.53
201.044
202.581
204.034
205.405
206.698
207.891
208.984
209.916
210.689
211.211
211.521
211.521
211.285
210.613
209.655
208.041
205.778
204.447
206.817
208.534
210.255
212.013
213.73
215.395
217.013
218.553
219.993
221.291
222.437
223.371
224.15
224.644
224.937
224.784
224.385
223.289
221.605
211.84
214.332
216.402
218.463
220.554
222.612
224.611
226.559
228.403
230.144
231.737
233.185
234.459
235.566
236.414
237.049
237.247
237.211
236.478
235.233
218.404
221.097
223.413
225.697
227.996
230.238
232.421
234.539
236.571
238.525
240.366
242.119
243.722
245.184
246.403
247.391
247.961
248.332
247.999
247.251
224.188
226.979
229.394
231.818
234.268
236.676
239.056
241.387
243.677
245.894
248.041
250.088
251.994
253.752
255.248
256.525
257.451
258.164
258.294
258.191
228.685
231.563
234.116
236.703
239.309
241.889
244.436
246.947
249.407
251.788
254.084
256.242
258.259
260.081
261.695
263.107
264.252
265.18
265.63
265.693
232.298
235.27
237.842
240.485
243.16
245.819
248.445
251.054
253.607
256.112
258.532
260.864
263.082
265.159
267.097
268.82
270.351
271.519
272.231
272.246
234.734
237.705
240.302
242.992
245.725
248.446
251.146
253.836
256.477
259.083
261.597
264.051
266.354
268.554
270.523
272.29
273.697
274.713
275.274
275.385
235.747
238.741
241.373
244.106
246.875
249.637
252.376
255.109
257.794
260.445
263.011
265.514
267.873
270.135
272.163
274.065
275.594
276.998
277.829
278.509
-112.695
-114.211
-115.624
-117.037
-118.562
-120.237
-121.693
-123.116
-124.858
-126.484
-128.035
-129.706
-131.556
-133.576
-135.166
-136.868
-137.31
-136.903
-137.152
-137.106
-108.298
-109.953
-111.522
-113.159
-114.858
-116.681
-118.508
-120.32
-122.193
-124.317
-126.41
-128.329
-130.435
-132.995
-135.277
-137.178
-137.333
-138.195
-137.727
-138.081
-103.955
-105.773
-107.61
-109.551
-111.461
-113.427
-115.464
-117.62
-119.746
-121.989
-124.305
-126.752
-129.022
-131.381
-133.662
-135.204
-137.089
-138.159
-137.881
-138.085
-99.37
-101.406
-103.389
-105.515
-107.685
-109.954
-112.228
-114.667
-117.091
-119.648
-122.234
-124.885
-127.655
-130.159
-132.821
-135.323
-137.87
-137.832
-138.447
-138.273
-94.97
-97.2056
-99.3568
-101.647
-104.001
-106.555
-109.072
-111.793
-114.536
-117.395
-120.34
-123.414
-126.453
-129.739
-132.751
-135.851
-138.217
-139.252
-140.531
-140.516
-89.972
-92.3829
-94.7298
-97.3086
-99.8856
-102.726
-105.558
-108.588
-111.692
-114.94
-118.297
-121.742
-125.353
-128.969
-132.807
-136.435
-139.797
-142.552
-142.834
-143.241
-85.0005
-87.614
-90.1069
-92.9123
-95.7083
-98.81
-101.941
-105.299
-108.793
-112.457
-116.288
-120.313
-124.519
-128.829
-133.397
-137.913
-142.316
-146.228
-147.123
-147.889
-79.3294
-82.0931
-84.7288
-87.8045
-90.8184
-94.1932
-97.6594
-101.362
-105.267
-109.399
-113.769
-118.394
-123.304
-128.532
-133.988
-139.907
-146.127
-151.515
-154.565
-155.533
-73.3569
-76.3028
-79.0461
-82.3285
-85.5629
-89.1527
-92.9085
-96.9265
-101.203
-105.759
-110.611
-115.808
-121.378
-127.298
-133.727
-140.677
-148.097
-155.126
-160.961
-161.782
-66.42
-69.5068
-72.3592
-75.8298
-79.2719
-83.0786
-87.115
-91.4359
-96.0679
-101.039
-106.366
-112.113
-118.306
-124.995
-132.365
-140.258
-148.957
-157.629
-165.959
-167.859
-58.8403
-62.3156
-65.1379
-68.7182
-72.3332
-76.2726
-80.5036
-85.0469
-89.9356
-95.2
-100.864
-106.995
-113.633
-120.821
-128.711
-137.316
-146.681
-156.63
-165.863
-168.366
-50.3291
-53.8056
-56.7897
-60.3665
-64.1247
-68.1971
-72.5998
-77.3427
-82.464
-88.0091
-93.9819
-100.477
-107.521
-115.136
-123.542
-132.642
-142.481
-153.109
-163.546
-165.844
-40.9544
-44.4699
-47.5414
-51.1747
-55.0123
-59.1555
-63.6472
-68.4998
-73.7495
-79.4382
-85.5927
-92.3044
-99.5938
-107.54
-116.354
-125.848
-136.328
-148.368
-158.865
-161.426
-30.5532
-34.1301
-37.2138
-40.8025
-44.6795
-48.8429
-53.3821
-58.2962
-63.6221
-69.4198
-75.6878
-82.5426
-89.9928
-98.1084
-107.113
-116.76
-127.843
-139.572
-151.155
-154.884
-19.3749
-22.9802
-26.0277
-29.5314
-33.3814
-37.507
-42.005
-46.8977
-52.2115
-57.9929
-64.2728
-71.1571
-78.6418
-86.8608
-95.9529
-105.762
-116.888
-128.513
-139.953
-144.169
-7.14879
-10.787
-13.7934
-17.1622
-20.9439
-24.9893
-29.4109
-34.2282
-39.4641
-45.1836
-51.3894
-58.2082
-65.6278
-73.7735
-82.8115
-92.5678
-103.816
-115.429
-127.368
-132.271
5.58752
2.02011
-0.864917
-4.03068
-7.67217
-11.579
-15.8412
-20.5087
-25.5983
-31.1443
-37.1856
-43.83
-51.0428
-59.0207
-67.788
-77.3125
-88.0593
-99.5913
-111.867
-116.764
18.9904
15.5769
12.8887
9.9619
6.50654
2.77281
-1.30422
-5.78095
-10.6634
-16.0079
-21.8289
-28.2416
-35.2182
-42.9271
-51.4262
-60.6486
-71.3035
-82.2715
-94.7533
-100.166
33.7985
30.0373
27.518
24.8257
21.5582
17.9734
14.0939
9.83857
5.18166
0.10964
-5.42531
-11.5204
-18.129
-25.4985
-33.5033
-42.3691
-52.3167
-62.6001
-75.4953
-81.111
51.2883
47.4129
44.0871
41.0303
37.7542
34.153
30.3261
26.2024
21.7515
16.9182
11.6658
5.9017
-0.368688
-7.31029
-14.9113
-23.3302
-32.7578
-42.6662
-55.1696
-60.9752
-67.1955
-67.6279
-68.4149
-69.3754
-70.8992
-72.4168
-73.5968
-75.0925
-76.1399
-77.5279
-78.5908
-79.7654
-81.0444
-81.8806
-83.8193
-84.3732
-87.9544
-90.0915
-97.1627
-106.52
-65.6838
-66.0744
-66.7085
-67.592
-68.9334
-70.248
-71.2061
-72.4971
-73.3164
-74.4893
-75.3099
-76.25
-77.2294
-77.8048
-79.5967
-80.0446
-83.7887
-85.6351
-93.1252
-101.353
-64.1251
-64.5227
-65.0544
-65.7454
-66.8675
-68.0271
-68.7767
-69.8804
-70.4802
-71.4492
-72.0382
-72.7925
-73.5895
-74.0206
-75.5814
-75.7358
-79.3596
-80.953
-88.9335
-96.421
-62.6481
-63.013
-63.3812
-64.0104
-64.9446
-65.9035
-66.433
-67.3355
-67.7144
-68.4776
-68.8299
-69.361
-69.8464
-70.0231
-71.4041
-71.4473
-75.1446
-76.2838
-84.5443
-91.0644
-61.1364
-61.5156
-61.7572
-62.2128
-62.9202
-63.7295
-64.0506
-64.7647
-64.9367
-65.5006
-65.6285
-65.9762
-66.2786
-66.3089
-67.4129
-67.1342
-70.6455
-71.4577
-80.0023
-85.7589
-59.703
-60.0624
-60.1147
-60.5327
-61.0381
-61.6474
-61.7489
-62.2719
-62.2242
-62.5903
-62.488
-62.6147
-62.6024
-62.3862
-63.2619
-62.8774
-66.337
-66.6199
-75.2262
-80.0815
-58.2405
-58.6044
-58.518
-58.7887
-59.0546
-59.5163
-59.4106
-59.748
-59.4996
-59.6721
-59.3539
-59.3009
-59.0974
-58.7303
-59.287
-58.5798
-61.7449
-61.6826
-70.2972
-74.3506
-56.8611
-57.2252
-56.9064
-57.1686
-57.2096
-57.4731
-57.1461
-57.2972
-56.8361
-56.8152
-56.2764
-56.0048
-55.4871
-54.8717
-55.1554
-54.3325
-57.3123
-56.7069
-65.0638
-68.2309
-55.4572
-55.8069
-55.334
-55.4837
-55.267
-55.38
-54.8482
-54.8179
-54.1634
-53.9524
-53.2053
-52.755
-52.0388
-51.2648
-51.1925
-50.0599
-52.6792
-51.5631
-59.7152
-62.0175
-54.1364
-54.5002
-53.7422
-53.9346
-53.461
-53.365
-52.6171
-52.4023
-51.545
-51.1457
-50.1881
-49.5193
-48.494
-47.4665
-47.0629
-45.8321
-48.1026
-46.429
-54.1279
-55.2676
-52.7971
-53.1502
-52.2155
-52.3036
-51.5606
-51.3025
-50.3543
-49.9619
-48.9194
-48.3364
-47.1805
-46.3285
-45.1003
-43.8967
-43.1067
-41.5935
-43.2984
-41.2272
-48.285
-48.4296
-51.5388
-51.9127
-50.7057
-50.7784
-49.7898
-49.3093
-48.1505
-47.5797
-46.3447
-45.5789
-44.2222
-43.1503
-41.6225
-40.145
-38.9912
-37.3618
-38.5734
-35.947
-42.0678
-41.0866
-50.2679
-50.6122
-49.2125
-49.1575
-47.9278
-47.269
-45.9155
-45.1743
-43.7624
-42.82
-41.2748
-40.0129
-38.2775
-36.5936
-35.0425
-33.1354
-33.6704
-30.5581
-35.7256
-33.4554
-49.0776
-49.459
-47.7897
-47.6471
-46.1887
-45.2904
-43.7339
-42.8235
-41.2306
-40.1136
-38.3779
-36.8953
-34.8706
-32.8834
-30.9553
-28.8976
-28.823
-25.0994
-29.0936
-25.1039
-47.8682
-48.3447
-46.3956
-46.0432
-44.3759
-43.2739
-41.5297
-40.4605
-38.7009
-37.4172
-35.5036
-33.8256
-31.588
-29.3539
-27.0371
-24.6933
-23.842
-19.5422
-22.3174
-16.2182
-46.7868
-47.3494
-44.9908
-44.5389
-42.6579
-41.2992
-39.3554
-38.1288
-36.1976
-34.7454
-32.647
-30.7441
-28.2175
-25.64
-22.9498
-20.4103
-18.8288
-13.8331
-15.0697
-6.36317
-45.5837
-46.1766
-43.4635
-42.911
-40.8067
-39.2452
-37.124
-35.756
-33.667
-32.0533
-29.7792
-27.6697
-24.9059
-22.0337
-18.9791
-16.1329
-13.6894
-8.0712
-7.81007
3.55995
-44.4132
-45.1805
-42.0918
-41.4038
-39.1851
-37.3225
-35.0364
-33.5406
-31.3091
-29.5632
-27.1398
-24.8341
-21.8064
-18.5777
-15.2021
-12.0879
-8.88108
-2.69595
-0.875152
13.6878
-43.8785
-44.6503
-41.0499
-40.0414
-37.7833
-35.5298
-33.0532
-31.4289
-29.0512
-27.1758
-24.602
-22.1008
-18.8428
-15.2561
-11.5986
-8.12921
-3.95379
3.20922
7.62794
28.4795
-42.2301
-43.8724
-39.5946
-38.7235
-35.4986
-33.1663
-30.3878
-28.6067
-26.0065
-23.855
-20.9694
-18.0967
-14.3505
-10.2774
-6.14584
-2.46682
2.7654
11.1665
19.2645
45.776
-23.2657
-29.2434
-23.1227
-22.8316
-17.1896
-16.7855
-13.5388
-11.3584
-8.00016
-4.44864
0.22632
4.86488
10.4831
15.7071
22.7087
29.1834
40.1748
48.2903
63.6621
69.4396
-15.3835
-15.3877
-14.0297
-11.3276
-8.70624
-5.30907
-1.95444
1.70348
5.6624
9.83913
14.1012
18.9651
24.799
31.6761
40.391
49.6685
61.5593
72.8258
91.5202
104.582
5.32495
5.60608
6.45938
8.17804
10.3565
12.4374
15.0674
17.8927
21.3328
25.1027
29.652
34.9107
40.9855
47.6374
54.7251
62.5915
71.4434
81.0524
92.5686
105.019
11.453
11.725
12.7536
15.1803
17.4702
20.6208
23.6629
27.4667
31.2723
35.7799
40.3991
45.5384
50.7782
56.8807
63.4836
71.1294
78.7671
87.7138
95.8274
103.923
23.5929
23.9384
25.2447
27.3422
29.3211
31.7486
34.3235
37.1655
40.3425
43.7348
47.508
51.549
55.9502
60.7276
65.6245
71.0247
76.2216
82.2302
88.2766
95.1792
28.3077
28.6071
29.7865
32.0619
34.3971
37.1085
39.93
43.0287
46.2817
49.7663
53.4148
57.2859
61.2998
65.5635
69.8967
74.5112
78.9627
83.8353
87.132
91.5189
34.6733
35.0883
36.7234
39.0305
41.3252
43.7065
46.1845
48.6354
51.3351
53.9701
56.8728
59.7201
62.779
65.8227
68.9614
72.1128
75.225
78.5743
81.7196
84.9179
39.0949
39.7912
41.2571
43.519
45.8334
48.0631
50.5805
52.9366
55.5561
58.0413
60.7201
63.325
66.0312
68.7033
71.3538
74.1536
76.9571
79.4183
81.0967
83.3384
43.2141
43.8991
46.0939
48.1478
50.6678
52.6499
54.9791
56.8798
59.0959
60.996
63.1427
65.0587
67.1409
69.0619
71.0561
72.8356
74.3582
76.1645
77.9368
79.5998
47.5063
48.1084
50.7375
52.5491
55.1464
56.9072
59.0952
60.7971
62.7712
64.4452
66.2684
67.9213
69.6186
71.2225
72.8967
74.5856
76.1429
77.4062
78.4375
79.4178
53.6731
54.0618
57.1722
58.427
60.7075
62.0306
63.7532
64.9892
66.4784
67.6739
69.0452
70.2106
71.5097
72.6509
73.7587
74.6329
75.4612
76.3006
77.1698
78.1553
60.7714
60.1068
63.8191
64.3043
66.1504
66.9719
68.2529
69.1217
70.1957
71.0549
72.0099
72.8476
73.7243
74.5235
75.3764
76.1642
77.0234
77.6957
78.2589
78.605
73.8721
72.4014
72.3971
72.413
72.8562
73.2211
73.5072
73.9063
74.266
74.6748
75.1424
75.5618
76.0977
76.5341
77.0326
77.4038
77.8011
78.0975
78.4464
78.7513
83.9143
82.6312
80.2373
80.1018
78.9337
78.7451
78.2756
78.094
78.0066
77.9329
78.0367
78.057
78.2551
78.3422
78.5882
78.7306
79.015
79.1921
79.4845
79.6097
90.6309
89.9075
87.0443
85.5436
84.3021
83.0213
82.4305
81.572
81.2484
80.7321
80.6003
80.3206
80.2842
80.159
80.186
80.1482
80.2079
80.198
80.2722
80.262
96.0791
93.2698
91.7914
89.3584
88.305
86.7404
85.8616
84.7997
84.1491
83.3909
82.918
82.4163
82.1099
81.7812
81.5949
81.3818
81.2829