/*--------------------------------*- C++ -*----------------------------------*\
  =========                 |
  \\      /  F ield         | OpenFOAM: The Open Source CFD Toolbox
   \\    /   O peration     | Website:  https://openfoam.org
    \\  /    A nd           | Version:  9
     \\/     M anipulation  |
\*---------------------------------------------------------------------------*/
FoamFile
{
    format      ascii;
    class       surfaceScalarField;
    location    "2.6";
    object      phi;
}
// * * * * * * * * * * * * * * * * * * * * * * * * * * * * * * * * * * * * * //

dimensions      [0 3 -1 0 0 0 0];

internalField   nonuniform List<scalar> 
92080
(
0.00158371
-0.429351
0.427768
-0.0147624
-0.878326
0.894672
-0.0495688
-0.967788
1.00259
-0.0854588
-0.95345
0.989341
-0.1204
-0.938522
0.973463
-0.15498
-0.923934
0.958514
-0.188904
-0.911695
0.94562
-0.222717
-0.897659
0.931472
-0.25628
-0.885384
0.918947
-0.289348
-0.874703
0.907772
-0.322218
-0.864304
0.897174
-0.355484
-0.854438
0.887705
-0.38842
-0.847107
0.880043
-0.420509
-0.839048
0.871137
-0.452831
-0.831232
0.863553
-0.485291
-0.823996
0.856456
-0.517024
-0.817808
0.849541
-0.547889
-0.810957
0.841823
-0.577731
-0.80334
0.833182
-0.798163
0.825962
-0.60553
-0.000637709
-0.428714
-0.02098
-0.857984
-0.0573176
-0.93145
-0.0947465
-0.916022
-0.131519
-0.90175
-0.168147
-0.887306
-0.204129
-0.875714
-0.239273
-0.862515
-0.274583
-0.850074
-0.309864
-0.839423
-0.344541
-0.829627
-0.379059
-0.819921
-0.41363
-0.812536
-0.447706
-0.804972
-0.480821
-0.798117
-0.513467
-0.79135
-0.545879
-0.785396
-0.576942
-0.779895
-0.606232
-0.77405
-0.76924
-0.635155
-0.0030462
-0.425667
-0.0272093
-0.833821
-0.0669204
-0.891739
-0.106792
-0.87615
-0.145867
-0.862675
-0.184492
-0.84868
-0.222554
-0.837652
-0.260142
-0.824926
-0.297124
-0.813092
-0.333796
-0.802751
-0.370307
-0.793116
-0.406788
-0.783439
-0.443028
-0.776296
-0.478837
-0.769163
-0.514712
-0.762243
-0.550216
-0.755845
-0.585297
-0.750316
-0.619654
-0.745537
-0.65306
-0.740643
-0.735916
-0.686385
-0.00531219
-0.420355
-0.0337848
-0.805348
-0.0743789
-0.851145
-0.115233
-0.835296
-0.155563
-0.822345
-0.195825
-0.808419
-0.235353
-0.798124
-0.273877
-0.786403
-0.31259
-0.774379
-0.351062
-0.764279
-0.388781
-0.755397
-0.42652
-0.7457
-0.464459
-0.738357
-0.501822
-0.7318
-0.538363
-0.725702
-0.574937
-0.719271
-0.612135
-0.713118
-0.649135
-0.708537
-0.684848
-0.70493
-0.700363
-0.720401
-0.00488562
-0.41547
-0.0395094
-0.770724
-0.0826587
-0.807996
-0.125858
-0.792097
-0.168287
-0.779916
-0.210272
-0.766434
-0.252141
-0.756255
-0.293178
-0.745366
-0.333338
-0.734218
-0.3735
-0.724117
-0.413208
-0.715689
-0.452535
-0.706374
-0.492048
-0.698844
-0.531528
-0.692319
-0.570806
-0.686423
-0.608665
-0.681412
-0.64621
-0.675573
-0.685106
-0.669641
-0.723836
-0.6662
-0.662785
-0.761413
-0.000789719
-0.41468
-0.038618
-0.732896
-0.0841118
-0.762502
-0.129371
-0.746837
-0.174184
-0.735104
-0.218468
-0.72215
-0.261721
-0.713001
-0.303866
-0.703221
-0.345886
-0.692199
-0.387614
-0.682389
-0.428509
-0.674794
-0.469019
-0.665864
-0.509872
-0.65799
-0.550487
-0.651705
-0.59121
-0.6457
-0.632294
-0.640328
-0.671741
-0.636126
-0.710828
-0.630554
-0.751323
-0.625706
-0.622298
-0.79181
1.02413e-05
-0.41469
-0.0408895
-0.691996
-0.0903842
-0.713007
-0.138497
-0.698725
-0.185221
-0.68838
-0.231427
-0.675944
-0.277509
-0.666918
-0.32197
-0.65876
-0.36484
-0.649329
-0.408139
-0.63909
-0.450976
-0.631957
-0.492375
-0.624465
-0.533863
-0.616502
-0.575627
-0.609941
-0.616714
-0.604613
-0.657795
-0.599248
-0.699269
-0.594651
-0.739149
-0.590674
-0.779021
-0.585834
-0.581623
-0.819696
0.00125065
-0.415941
-0.041311
-0.649435
-0.0927074
-0.661611
-0.142648
-0.648785
-0.191371
-0.639657
-0.238985
-0.62833
-0.285883
-0.620021
-0.331999
-0.612644
-0.376805
-0.604523
-0.420712
-0.595183
-0.46498
-0.587689
-0.508371
-0.581074
-0.550814
-0.574059
-0.593718
-0.567038
-0.637002
-0.561328
-0.679753
-0.556498
-0.722302
-0.552102
-0.764924
-0.548052
-0.805762
-0.544996
-0.540626
-0.846759
-0.000666228
-0.415275
-0.0478885
-0.602213
-0.101774
-0.607725
-0.153255
-0.597304
-0.203263
-0.589648
-0.25245
-0.579143
-0.301583
-0.570888
-0.349129
-0.565098
-0.394749
-0.558902
-0.439843
-0.55009
-0.484522
-0.54301
-0.5286
-0.536996
-0.571466
-0.531193
-0.613435
-0.525068
-0.655667
-0.519097
-0.698507
-0.513657
-0.741297
-0.509313
-0.784379
-0.50497
-0.827507
-0.501868
-0.499097
-0.869037
-0.00664814
-0.408626
-0.0548352
-0.554025
-0.108533
-0.554027
-0.160992
-0.544846
-0.211857
-0.538784
-0.261067
-0.529933
-0.310206
-0.521749
-0.359844
-0.51546
-0.407345
-0.511402
-0.452805
-0.50463
-0.499039
-0.496776
-0.54516
-0.490875
-0.590737
-0.485616
-0.635158
-0.480647
-0.678335
-0.47592
-0.721145
-0.470847
-0.764022
-0.466435
-0.806899
-0.462093
-0.850486
-0.45828
-0.454954
-0.89463
-0.0170696
-0.391557
-0.0675161
-0.503579
-0.120958
-0.500585
-0.173385
-0.492419
-0.224705
-0.487463
-0.275048
-0.47959
-0.324921
-0.471876
-0.374603
-0.465777
-0.424217
-0.461788
-0.470751
-0.458096
-0.51534
-0.452186
-0.560547
-0.445669
-0.605684
-0.440479
-0.651032
-0.435299
-0.695769
-0.431182
-0.739569
-0.427048
-0.78269
-0.423313
-0.825094
-0.41969
-0.866953
-0.416421
-0.412955
-0.908951
-0.0243333
-0.367224
-0.0751668
-0.452745
-0.128378
-0.447373
-0.181467
-0.439331
-0.233605
-0.435325
-0.283295
-0.4299
-0.333028
-0.422143
-0.383565
-0.41524
-0.434518
-0.410835
-0.485082
-0.407532
-0.532896
-0.404372
-0.578756
-0.399809
-0.624337
-0.394897
-0.669415
-0.390221
-0.715123
-0.385475
-0.760753
-0.381417
-0.806417
-0.377649
-0.852
-0.374106
-0.89701
-0.371411
-0.36832
-0.941645
-0.0325689
-0.334655
-0.0858877
-0.399427
-0.139845
-0.393416
-0.192758
-0.386418
-0.245828
-0.382255
-0.29733
-0.378398
-0.345974
-0.373499
-0.394609
-0.366605
-0.444491
-0.360953
-0.494678
-0.357345
-0.544887
-0.354163
-0.593016
-0.35168
-0.639379
-0.348534
-0.684509
-0.345092
-0.728187
-0.341797
-0.771989
-0.337615
-0.815076
-0.334562
-0.858729
-0.330454
-0.902339
-0.327801
-0.324419
-0.94624
-0.0376971
-0.296958
-0.0911626
-0.345961
-0.145563
-0.339015
-0.200391
-0.33159
-0.254269
-0.328377
-0.307315
-0.325352
-0.359212
-0.321602
-0.408211
-0.317607
-0.457433
-0.311731
-0.507537
-0.307241
-0.557995
-0.303705
-0.609411
-0.300264
-0.659547
-0.298398
-0.709179
-0.295459
-0.757081
-0.293896
-0.803607
-0.291089
-0.84912
-0.289049
-0.893161
-0.286413
-0.936942
-0.28402
-0.281691
-0.97967
-0.0422675
-0.25469
-0.0972218
-0.291007
-0.150347
-0.28589
-0.203754
-0.278182
-0.258843
-0.273288
-0.31212
-0.272075
-0.364049
-0.269673
-0.414598
-0.267058
-0.462193
-0.264136
-0.509998
-0.259436
-0.557253
-0.25645
-0.605269
-0.252248
-0.654113
-0.249554
-0.703061
-0.246511
-0.752802
-0.244155
-0.801793
-0.242097
-0.850928
-0.239914
-0.899113
-0.238228
-0.946963
-0.236171
-0.234513
-0.994141
-0.0445352
-0.210155
-0.103602
-0.23194
-0.15904
-0.230452
-0.211638
-0.225583
-0.265871
-0.219055
-0.322847
-0.215099
-0.378116
-0.214404
-0.433089
-0.212085
-0.485832
-0.211393
-0.536228
-0.209039
-0.585612
-0.207066
-0.632952
-0.204908
-0.680155
-0.202351
-0.726342
-0.200323
-0.772801
-0.197696
-0.819033
-0.195865
-0.865375
-0.193573
-0.911686
-0.191917
-0.957893
-0.189963
-0.188339
-1.00407
-0.0502117
-0.159943
-0.109013
-0.173139
-0.162275
-0.17719
-0.21342
-0.174439
-0.262017
-0.170459
-0.312162
-0.164954
-0.364816
-0.161751
-0.417397
-0.159504
-0.471439
-0.15735
-0.524326
-0.156153
-0.577178
-0.154214
-0.629012
-0.153074
-0.679945
-0.151418
-0.730031
-0.150237
-0.779035
-0.148691
-0.82754
-0.147361
-0.87523
-0.145883
-0.922669
-0.144478
-0.969526
-0.143107
-0.141613
-1.01625
-0.0504729
-0.10947
-0.115753
-0.107859
-0.17926
-0.113683
-0.237999
-0.115699
-0.292413
-0.116045
-0.342363
-0.115004
-0.391802
-0.112313
-0.440722
-0.110584
-0.489696
-0.108377
-0.538961
-0.106888
-0.587849
-0.105325
-0.63702
-0.103903
-0.685779
-0.10266
-0.734633
-0.101383
-0.78291
-0.100415
-0.831052
-0.0992185
-0.878563
-0.098372
-0.925851
-0.0971901
-0.972614
-0.0963434
-0.0951628
-1.01906
-0.049471
-0.0599992
-0.0976647
-0.0596656
-0.154679
-0.056668
-0.211858
-0.0585209
-0.271077
-0.0568249
-0.328312
-0.0577692
-0.383755
-0.0568695
-0.437762
-0.0565769
-0.490379
-0.0557593
-0.542025
-0.0552421
-0.592858
-0.0544923
-0.642762
-0.053999
-0.692157
-0.0532652
-0.740804
-0.0527355
-0.789153
-0.0520662
-0.836803
-0.0515685
-0.884207
-0.0509676
-0.930854
-0.0505428
-0.977204
-0.0499942
-0.0495964
-1.02277
-0.0753592
0.01536
-0.126837
-0.00818822
-0.178627
-0.00487751
-0.228675
-0.00847318
-0.281256
-0.00424391
-0.333427
-0.00559844
-0.386633
-0.0036635
-0.438564
-0.00464574
-0.490771
-0.00355243
-0.541778
-0.00423501
-0.592879
-0.00339091
-0.642958
-0.00391998
-0.692922
-0.00330147
-0.741944
-0.00371367
-0.790752
-0.0032578
-0.838716
-0.00360432
-0.886422
-0.00326183
-0.933387
-0.00357764
-0.980049
-0.00333225
-1.02594
-0.00370744
-0.0115791
0.050474
-0.0388949
0.00286935
0.0390375
-0.0534859
0.069932
-0.0509428
-0.0161199
0.236675
-0.280139
0.113396
0.471793
-0.627422
0.392304
0.658695
-0.89151
0.704608
0.759109
-1.02701
0.926601
0.805565
-1.07694
1.03048
0.830327
-1.09234
1.06758
0.846208
-1.09563
1.07975
0.858198
-1.09549
1.0835
0.866641
-1.09237
1.08393
0.873724
-1.08914
1.08205
0.882133
-1.08721
1.0788
0.891927
-1.08762
1.07783
0.900106
-1.08573
1.07755
0.907201
-1.08521
1.07812
0.914556
-1.08372
1.07637
0.922166
-1.08417
1.07656
-1.0818
0.928491
1.07547
-0.00276011
0.0532341
0.0339554
0.00232196
0.136506
-0.153494
0.351999
-0.495631
0.547572
-0.822995
0.66276
-1.0067
0.71594
-1.08019
0.741141
-1.10214
0.755284
-1.10648
0.765371
-1.10572
0.772463
-1.10258
0.77783
-1.09774
0.784726
-1.09603
0.792175
-1.09466
0.798067
-1.09351
0.803479
-1.09114
0.809351
-1.09108
0.81492
-1.08929
0.819183
-1.08843
-1.08542
0.822799
0.0100038
0.0432304
0.0668156
-0.0544898
0.217872
-0.30455
0.416818
-0.694577
0.549352
-0.955529
0.616
-1.07335
0.644263
-1.10846
0.658037
-1.11591
0.666884
-1.11533
0.672982
-1.11181
0.677507
-1.10711
0.683451
-1.10368
0.689772
-1.10235
0.694803
-1.09969
0.699676
-1.09839
0.704946
-1.09641
0.709754
-1.09589
0.712773
-1.09231
0.715523
-1.09118
-1.08818
0.718283
0.0266897
0.0165407
0.101178
-0.128978
0.279388
-0.48276
0.435511
-0.850701
0.523714
-1.04373
0.558541
-1.10817
0.573774
-1.12369
0.582317
-1.12445
0.588107
-1.12112
0.591891
-1.1156
0.596441
-1.11166
0.600918
-1.10816
0.604577
-1.10601
0.608245
-1.10335
0.611588
-1.10173
0.61428
-1.0991
0.615826
-1.09744
0.61729
-1.09378
0.618912
-1.0928
-1.08873
0.61947
0.0398867
-0.0233459
0.12968
-0.218772
0.294453
-0.647533
0.40772
-0.963968
0.460307
-1.09632
0.481565
-1.12943
0.491471
-1.1336
0.497749
-1.13073
0.500789
-1.12416
0.504398
-1.11921
0.507576
-1.11484
0.510502
-1.11109
0.51343
-1.10894
0.515657
-1.10558
0.517249
-1.10332
0.518553
-1.10041
0.519274
-1.09816
0.519942
-1.09444
0.519888
-1.09275
-1.08761
0.518764
0.0381306
-0.0614765
0.155267
-0.335908
0.294419
-0.786685
0.374577
-1.04413
0.40523
-1.12697
0.417004
-1.1412
0.423212
-1.13981
0.425964
-1.13348
0.428242
-1.12644
0.430361
-1.12133
0.431979
-1.11645
0.433539
-1.11265
0.434147
-1.10955
0.434302
-1.10574
0.434111
-1.10313
0.433304
-1.0996
0.431706
-1.09656
0.429836
-1.09257
0.427428
-1.09034
-1.08436
0.424175
0.0347162
-0.0961927
0.156076
-0.457267
0.260851
-0.89146
0.313353
-1.09663
0.331947
-1.14557
0.339646
-1.1489
0.343864
-1.14402
0.34563
-1.13525
0.347418
-1.12822
0.348517
-1.12243
0.349062
-1.117
0.348892
-1.11248
0.348278
-1.10893
0.347118
-1.10458
0.345258
-1.10127
0.342907
-1.09725
0.340089
-1.09374
0.337167
-1.08965
0.333514
-1.08669
-1.07964
0.328796
0.039263
-0.135456
0.146605
-0.56461
0.230428
-0.975283
0.266681
-1.13288
0.278327
-1.15721
0.28366
-1.15424
0.284671
-1.14503
0.285105
-1.13568
0.284784
-1.1279
0.283648
-1.12129
0.281708
-1.11506
0.279451
-1.11022
0.276383
-1.10587
0.272724
-1.10092
0.268641
-1.09719
0.26406
-1.09267
0.258932
-1.08862
0.253499
-1.08422
0.247403
-1.08059
-1.07289
0.240658
0.0431642
-0.17862
0.132343
-0.653788
0.192367
-1.03531
0.212014
-1.15253
0.217034
-1.16223
0.21742
-1.15462
0.216571
-1.14418
0.215081
-1.13419
0.212779
-1.1256
0.20975
-1.11826
0.206244
-1.11155
0.202041
-1.10602
0.197262
-1.10109
0.192002
-1.09566
0.186154
-1.09134
0.179832
-1.08634
0.173036
-1.08182
0.165983
-1.07717
0.15833
-1.07294
-1.06456
0.149995
0.0462005
-0.22482
0.116906
-0.724493
0.160817
-1.07922
0.172017
-1.16373
0.173782
-1.164
0.171593
-1.15243
0.168684
-1.14127
0.164529
-1.13004
0.159661
-1.12073
0.154062
-1.11266
0.147674
-1.10516
0.140776
-1.09912
0.133228
-1.09354
0.125115
-1.08754
0.116566
-1.08279
0.107593
-1.07737
0.0981905
-1.07242
0.0885008
-1.06748
0.0783031
-1.06274
-1.05402
0.0677676
0.0424474
-0.267268
0.0995882
-0.781634
0.12759
-1.10722
0.129459
-1.1656
0.125111
-1.15965
0.119029
-1.14635
0.112515
-1.13476
0.105462
-1.12299
0.09778
-1.11305
0.089479
-1.10436
0.0807595
-1.09644
0.0715611
-1.08992
0.0618976
-1.08388
0.0518277
-1.07747
0.041349
-1.07231
0.0304984
-1.06652
0.0191997
-1.06112
0.00758825
-1.05586
-0.00435782
-1.0508
-1.0417
-0.0166828
0.0370898
-0.304358
0.0846962
-0.829241
0.100542
-1.12306
0.0970227
-1.16208
0.089439
-1.15207
0.0813011
-1.13821
0.0723423
-1.1258
0.0625523
-1.1132
0.0521918
-1.10269
0.041275
-1.09345
0.029735
-1.0849
0.0175992
-1.07778
0.00496862
-1.07125
-0.00812782
-1.06438
-0.0216305
-1.05881
-0.0354981
-1.05265
-0.0497042
-1.04691
-0.0640374
-1.04153
-0.0786202
-1.03621
-1.02719
-0.0931295
0.0280496
-0.332407
0.061551
-0.862742
0.0691169
-1.13063
0.0611325
-1.15409
0.04993
-1.14086
0.0382852
-1.12657
0.0259594
-1.11348
0.013112
-1.10035
-0.000229408
-1.08935
-0.0141115
-1.07956
-0.0283836
-1.07063
-0.0429464
-1.06322
-0.0578765
-1.05632
-0.0731772
-1.04908
-0.0887346
-1.04325
-0.104565
-1.03682
-0.120784
-1.03069
-0.137354
-1.02496
-0.153886
-1.01968
-1.01073
-0.170345
0.0269175
-0.359325
0.0524953
-0.88832
0.0505489
-1.12868
0.0380439
-1.14159
0.023264
-1.12608
0.008439
-1.11174
-0.00679824
-1.09824
-0.0225557
-1.08459
-0.0387449
-1.07316
-0.0552965
-1.06301
-0.0723226
-1.05361
-0.0899339
-1.04561
-0.107816
-1.03843
-0.126029
-1.03086
-0.144617
-1.02466
-0.163452
-1.01799
-0.182484
-1.01166
-0.201668
-1.00578
-0.2206
-1.00075
-0.992021
-0.239307
0.0188678
-0.378193
0.0340744
-0.903526
0.0254508
-1.12006
0.00864784
-1.12479
-0.00895295
-1.10848
-0.0269676
-1.09373
-0.0452892
-1.07992
-0.0640509
-1.06583
-0.0831549
-1.05406
-0.102676
-1.04349
-0.122449
-1.03383
-0.142372
-1.02569
-0.162604
-1.0182
-0.183116
-1.01035
-0.203696
-1.00409
-0.224411
-0.997273
-0.245431
-0.990641
-0.266779
-0.984428
-0.287685
-0.979843
-0.971464
-0.308242
0.0172925
-0.395485
0.0275505
-0.913784
0.0131402
-1.10565
-0.00725561
-1.10439
-0.0283436
-1.08739
-0.049624
-1.07245
-0.0710721
-1.05847
-0.092729
-1.04417
-0.114684
-1.0321
-0.136847
-1.02133
-0.159432
-1.01125
-0.182523
-1.0026
-0.205627
-0.995099
-0.228984
-0.986994
-0.252719
-0.980351
-0.276556
-0.973436
-0.300425
-0.966772
-0.324563
-0.96029
-0.348495
-0.955912
-0.948356
-0.371603
0.0121018
-0.407587
0.0149001
-0.916583
-0.00510817
-1.08564
-0.0300208
-1.07948
-0.054566
-1.06285
-0.0790561
-1.04796
-0.103335
-1.03419
-0.127865
-1.01964
-0.152529
-1.00744
-0.177387
-0.996471
-0.202261
-0.986373
-0.227274
-0.977582
-0.252631
-0.969741
-0.278104
-0.961522
-0.303472
-0.954983
-0.328963
-0.947944
-0.354722
-0.941013
-0.38082
-0.934192
-0.406899
-0.929833
-0.923208
-0.432047
0.00972702
-0.417314
0.00743164
-0.914287
-0.0160942
-1.06212
-0.0427445
-1.05283
-0.0697487
-1.03585
-0.0968966
-1.02081
-0.123993
-1.00709
-0.151027
-0.992609
-0.178273
-0.98019
-0.205666
-0.969078
-0.233453
-0.958586
-0.26149
-0.949546
-0.289318
-0.941913
-0.31758
-0.93326
-0.34624
-0.926323
-0.374661
-0.919523
-0.402923
-0.912751
-0.431601
-0.905514
-0.461057
-0.900378
-0.894505
-0.48976
0.00620824
-0.423522
-0.000983836
-0.907095
-0.0299563
-1.03314
-0.060912
-1.02187
-0.0910816
-1.00568
-0.121101
-0.990791
-0.150591
-0.977604
-0.180176
-0.963024
-0.209779
-0.950587
-0.239338
-0.939519
-0.268837
-0.929087
-0.298724
-0.919659
-0.328806
-0.911831
-0.358761
-0.903305
-0.389009
-0.896075
-0.419666
-0.888866
-0.45041
-0.882007
-0.481183
-0.874742
-0.5134
-0.86816
-0.863063
-0.544842
0.00424557
-0.00817726
-0.0387273
-0.0712588
-0.103472
-0.135748
-0.167732
-0.199284
-0.230924
-0.262672
-0.294584
-0.326539
-0.358326
-0.390495
-0.423016
-0.455427
-0.487892
-0.520811
-0.555789
-0.592891
0.850419
-9.58496
9.66303
0.786331
-9.45542
9.51951
0.720478
-9.46352
9.52937
0.661496
-9.47203
9.53101
0.605812
-9.49867
9.55435
0.55269
-9.52433
9.57745
0.502228
-9.53349
9.58395
0.453845
-9.55939
9.60777
0.408207
-9.58913
9.63477
0.365511
-9.61264
9.65534
0.325822
-9.6311
9.67079
0.289104
-9.64037
9.67709
0.255345
-9.65328
9.68704
0.224318
-9.65617
9.6872
0.195772
-9.66157
9.69011
0.16796
-9.64107
9.66888
0.144425
-9.59852
9.62205
0.111046
-9.10101
9.13439
0.0567346
-7.47239
7.5267
-4.06798
4.12472
0.746433
-9.50859
0.684522
-9.39351
0.623611
-9.4026
0.571498
-9.41992
0.519558
-9.44673
0.468785
-9.47356
0.420905
-9.48561
0.376743
-9.51523
0.337114
-9.5495
0.300773
-9.5763
0.267541
-9.59787
0.237337
-9.61017
0.210435
-9.62638
0.186472
-9.63221
0.165207
-9.6403
0.14503
-9.62089
0.128228
-9.58171
0.100538
-9.07332
0.0529194
-7.42477
-4.01506
0.64806
-9.43837
0.587276
-9.33272
0.528416
-9.34374
0.480893
-9.3724
0.434589
-9.40042
0.391715
-9.43068
0.352315
-9.44621
0.315255
-9.47817
0.281321
-9.51557
0.250263
-9.54524
0.222393
-9.57
0.197477
-9.58525
0.175507
-9.60441
0.156318
-9.61302
0.13966
-9.62364
0.123856
-9.60509
0.11239
-9.57025
0.0918065
-9.05273
0.0505054
-7.38347
-3.96456
0.546585
-9.36548
0.487667
-9.27381
0.433684
-9.28976
0.391491
-9.3302
0.347864
-9.3568
0.307922
-9.39074
0.271796
-9.41009
0.239231
-9.4456
0.211211
-9.48755
0.186328
-9.52036
0.164786
-9.54846
0.146198
-9.56667
0.130919
-9.58913
0.118644
-9.60075
0.109162
-9.61416
0.10097
-9.5969
0.0962064
-9.56548
0.0815003
-9.03803
0.0468824
-7.34886
-3.91767
0.450119
-9.29684
0.393373
-9.21706
0.34227
-9.23866
0.303881
-9.29182
0.265831
-9.31875
0.233265
-9.35817
0.204933
-9.38176
0.178953
-9.41962
0.156365
-9.46496
0.136608
-9.5006
0.120275
-9.53213
0.106864
-9.55325
0.0963965
-9.57866
0.0887658
-9.59312
0.0837938
-9.60919
0.0799162
-9.59302
0.0804228
-9.56599
0.0728144
-9.03042
0.0445221
-7.32056
-3.87315
0.352876
-9.22554
0.297291
-9.16148
0.250391
-9.19176
0.216407
-9.25783
0.181032
-9.28337
0.151185
-9.32833
0.125925
-9.3565
0.104362
-9.39806
0.0875593
-9.44816
0.0738077
-9.48685
0.063637
-9.52196
0.0563541
-9.54597
0.0523914
-9.5747
0.0514762
-9.5922
0.053513
-9.61123
0.0572005
-9.59671
0.0643342
-9.57312
0.062712
-9.0288
0.0410914
-7.29894
-3.83206
0.258517
-9.15526
0.206542
-9.1095
0.162645
-9.14786
0.130838
-9.22602
0.10082
-9.25335
0.0782267
-9.30573
0.0606093
-9.33888
0.0454692
-9.38292
0.033946
-9.43663
0.0251742
-9.47808
0.0200403
-9.51682
0.0177897
-9.54372
0.0184935
-9.5754
0.0220678
-9.59577
0.0285133
-9.61767
0.0364238
-9.60462
0.048723
-9.58542
0.0541366
-9.03421
0.0388381
-7.28364
-3.79322
0.16699
-9.08159
0.114941
-9.05745
0.0742922
-9.10721
0.0468887
-9.19862
0.0198046
-9.22627
-0.000750505
-9.28518
-0.0160381
-9.32359
-0.027176
-9.37178
-0.0331719
-9.43064
-0.0361194
-9.47513
-0.035313
-9.51763
-0.0316401
-9.54739
-0.0246564
-9.58238
-0.0146107
-9.60582
-0.00136447
-9.63092
0.0140014
-9.61998
0.0328253
-9.60425
0.0442628
-9.04565
0.035562
-7.27494
-3.75766
0.0763204
-9.00792
0.0281834
-9.00931
-0.0106301
-9.0684
-0.0366469
-9.1726
-0.0584505
-9.20447
-0.0721633
-9.27147
-0.0797779
-9.31598
-0.0844832
-9.36708
-0.0852784
-9.42984
-0.0833632
-9.47705
-0.0777297
-9.52326
-0.0691985
-9.55592
-0.0577242
-9.59386
-0.043328
-9.62022
-0.0258382
-9.64841
-0.00636219
-9.63946
0.0174729
-9.62808
0.0358248
-9.064
0.0334535
-7.27257
-3.72421
-0.0109364
-8.92922
-0.059431
-8.96082
-0.0949615
-9.03287
-0.117091
-9.15047
-0.135454
-9.1861
-0.147748
-9.25917
-0.153483
-9.31024
-0.154608
-9.36595
-0.150272
-9.43418
-0.142762
-9.48456
-0.131452
-9.53457
-0.117219
-9.57016
-0.0997238
-9.61135
-0.0791681
-9.64077
-0.0552002
-9.67237
-0.0283729
-9.66628
0.00187734
-9.65833
0.0262071
-9.08833
0.0303455
-7.27671
-3.69386
-0.0949318
-8.85097
-0.14233
-8.91342
-0.176192
-8.99901
-0.197837
-9.12883
-0.211201
-9.17274
-0.216836
-9.25354
-0.215174
-9.3119
-0.209954
-9.37117
-0.200568
-9.44357
-0.188331
-9.49679
-0.172411
-9.55049
-0.153544
-9.58902
-0.131746
-9.63315
-0.107004
-9.66551
-0.0789351
-9.70044
-0.0482224
-9.697
-0.0131459
-9.69341
0.0178942
-9.11937
0.0283355
-7.28715
-3.66553
-0.176408
-8.76769
-0.225616
-8.86421
-0.257365
-8.96726
-0.274705
-9.11149
-0.284545
-9.1629
-0.288857
-9.24923
-0.285616
-9.31514
-0.277117
-9.37967
-0.263016
-9.45767
-0.245456
-9.51435
-0.224154
-9.5718
-0.199842
-9.61334
-0.172325
-9.66067
-0.141781
-9.69606
-0.107566
-9.73466
-0.0697344
-9.73483
-0.0284032
-9.73474
0.00846048
-9.15623
0.025423
-7.30411
-3.6401
-0.255901
-8.68213
-0.303693
-8.81642
-0.335373
-8.93558
-0.352493
-9.09437
-0.357381
-9.15801
-0.355012
-9.2516
-0.344622
-9.32553
-0.330079
-9.39421
-0.3112
-9.47654
-0.289104
-9.53645
-0.263413
-9.59749
-0.234705
-9.64205
-0.203087
-9.69229
-0.168537
-9.73061
-0.130433
-9.77276
-0.0889918
-9.77627
-0.0430216
-9.78071
1.22998e-06
-9.19926
0.0235103
-7.32762
-3.61659
-0.333639
-8.5878
-0.382723
-8.76734
-0.412086
-8.90621
-0.425347
-9.08111
-0.427071
-9.15629
-0.423448
-9.25522
-0.411628
-9.33735
-0.393989
-9.41185
-0.370752
-9.49978
-0.34363
-9.56357
-0.312861
-9.62826
-0.278994
-9.67591
-0.241997
-9.72928
-0.202039
-9.77057
-0.158151
-9.81665
-0.109894
-9.82453
-0.0578819
-9.83272
-0.00897542
-9.24816
0.0207594
-7.35736
-3.59583
-0.407124
-8.48892
-0.456437
-8.71803
-0.486602
-8.87605
-0.499736
-9.06797
-0.49641
-9.15961
-0.485903
-9.26573
-0.467381
-9.35588
-0.444265
-9.43497
-0.416591
-9.52746
-0.385161
-9.595
-0.350217
-9.6632
-0.312194
-9.71394
-0.2713
-9.77018
-0.227537
-9.81433
-0.180026
-9.86416
-0.128506
-9.87605
-0.0721448
-9.88908
-0.017106
-9.3032
0.0188433
-7.39331
-3.57699
-0.479678
-8.38084
-0.530535
-8.66717
-0.558082
-8.8485
-0.56801
-9.05805
-0.562478
-9.16514
-0.550908
-9.2773
-0.530859
-9.37592
-0.504685
-9.46114
-0.472928
-9.55921
-0.436795
-9.63113
-0.39708
-9.70291
-0.354208
-9.75681
-0.3083
-9.81608
-0.259549
-9.86308
-0.206649
-9.91706
-0.14871
-9.93399
-0.0866801
-9.95111
-0.0261655
-9.36372
0.0163177
-7.43579
-3.56067
-0.548488
-8.2644
-0.600199
-8.61546
-0.628152
-8.82055
-0.637616
-9.04858
-0.626957
-9.1758
-0.608731
-9.29552
-0.582838
-9.40182
-0.55192
-9.49206
-0.516111
-9.59502
-0.475949
-9.6713
-0.432283
-9.74658
-0.385504
-9.80359
-0.335907
-9.86568
-0.283589
-9.9154
-0.227397
-9.97325
-0.166563
-9.99482
-0.100582
-10.0171
-0.0343331
-9.42996
0.0145237
-7.48465
-3.54615
-0.618239
-8.13592
-0.671134
-8.56256
-0.695347
-8.79634
-0.701909
-9.04202
-0.690184
-9.18753
-0.671028
-9.31468
-0.643226
-9.42962
-0.609065
-9.52622
-0.569282
-9.6348
-0.524685
-9.71589
-0.476499
-9.79477
-0.42514
-9.85495
-0.370869
-9.91995
-0.313955
-9.97231
-0.252764
-10.0344
-0.185968
-10.0616
-0.114583
-10.0885
-0.0430803
-9.50147
0.0122064
-7.53993
-3.53394
-0.67408
-8.00669
-0.735277
-8.50136
-0.760336
-8.77128
-0.766423
-9.03593
-0.749664
-9.20429
-0.724601
-9.33974
-0.69196
-9.46226
-0.653738
-9.56444
-0.610129
-9.67841
-0.561706
-9.76432
-0.509728
-9.84674
-0.45464
-9.91003
-0.396851
-9.97774
-0.33663
-10.0325
-0.272461
-10.0986
-0.203162
-10.1309
-0.128354
-10.1633
-0.0515051
-9.57832
0.0104095
-7.60185
-3.52353
-0.725989
-7.87359
-0.795576
-8.43178
-0.817146
-8.74971
-0.821767
-9.03131
-0.805515
-9.22054
-0.779653
-9.3656
-0.745607
-9.49631
-0.704614
-9.60544
-0.657841
-9.72519
-0.605606
-9.81655
-0.549907
-9.90244
-0.490691
-9.96925
-0.429028
-10.0394
-0.364558
-10.097
-0.29638
-10.1668
-0.221169
-10.2061
-0.142452
-10.242
-0.0596985
-9.66107
0.0077047
-7.66925
-3.51583
8.03739
-7.49823
-8.41275
7.40471
-7.79909
6.83401
-8.17901
6.22611
-8.42341
5.67978
-8.67421
5.1744
-8.86023
4.71421
-9.03611
4.29356
-9.18479
3.89733
-9.32895
3.52583
-9.44505
3.17027
-9.54689
2.82726
-9.62623
2.49271
-9.70486
2.16902
-9.77331
1.83878
-9.83655
1.54349
-9.91084
1.21125
-9.90976
0.834943
-9.28476
0.346284
-7.18059
-3.16954
4.7489
-7.41704
-4.83009
4.59967
-7.64987
4.3719
-7.95123
4.13598
-8.18749
3.87728
-8.41551
3.61853
-8.60148
3.35343
-8.77101
3.09119
-8.92255
2.82012
-9.05788
2.54673
-9.17166
2.27256
-9.27272
2.01309
-9.36676
1.76492
-9.45668
1.52985
-9.53824
1.30659
-9.6133
1.09589
-9.70013
0.857422
-9.6713
0.584434
-9.01177
0.189304
-6.78546
-2.98024
3.42607
-7.5067
-3.3364
3.46983
-7.69363
3.44036
-7.92177
3.36496
-8.11208
3.23469
-8.28524
3.08164
-8.44844
2.90633
-8.59569
2.71785
-8.73407
2.51464
-8.85467
2.30646
-8.96348
2.09707
-9.06333
1.88935
-9.15904
1.67618
-9.24352
1.46195
-9.32402
1.2438
-9.39515
1.01455
-9.47088
0.782926
-9.43967
0.538155
-8.767
0.235263
-6.48257
-2.74498
2.20914
-7.66491
-2.05093
2.31339
-7.79789
2.329
-7.93738
2.3076
-8.09068
2.25138
-8.22901
2.17066
-8.36772
2.06597
-8.491
1.94104
-8.60914
1.80139
-8.71502
1.65335
-8.81544
1.49925
-8.90923
1.34134
-9.00113
1.18182
-9.08399
1.02262
-9.16482
0.863783
-9.23631
0.704937
-9.31204
0.550745
-9.28548
0.394188
-8.61045
0.175039
-6.26342
-2.56994
1.57646
-7.80135
-1.44003
1.66417
-7.8856
1.72318
-7.99639
1.75858
-8.12609
1.75704
-8.22747
1.72223
-8.33291
1.66272
-8.43149
1.58147
-8.52789
1.4858
-8.61935
1.37727
-8.70691
1.25899
-8.79095
1.1299
-8.87204
0.993396
-8.94749
0.84913
-9.02055
0.698563
-9.08574
0.540032
-9.1535
0.387278
-9.13273
0.273153
-8.49632
0.149512
-6.13978
-2.42043
1.04348
-7.91008
-0.934749
1.14286
-7.98498
1.19997
-8.0535
1.21308
-8.13921
1.20637
-8.22075
1.17813
-8.30468
1.13356
-8.38691
1.07392
-8.46825
1.00193
-8.54736
0.918353
-8.62334
0.827207
-8.6998
0.727481
-8.77232
0.623389
-8.8434
0.515396
-8.91256
0.40558
-8.97593
0.296756
-9.04468
0.19646
-9.03243
0.148231
-8.44809
0.104335
-6.09589
-2.31609
0.715488
-7.991
-0.634558
0.773313
-8.0428
0.811713
-8.09189
0.838649
-8.16614
0.852223
-8.23432
0.845751
-8.29821
0.822313
-8.36348
0.783286
-8.42922
0.730808
-8.49489
0.66539
-8.55792
0.589932
-8.62435
0.504267
-8.68665
0.411619
-8.75075
0.31041
-8.81135
0.207196
-8.87271
0.0965639
-8.93405
-0.0112979
-8.92457
-0.0389865
-8.4204
0.0388131
-6.17369
-2.27728
0.485681
-8.04613
-0.430556
0.532914
-8.09004
0.57039
-8.12937
0.586482
-8.18224
0.581508
-8.22935
0.560555
-8.27726
0.527759
-8.33068
0.483069
-8.38453
0.429669
-8.44148
0.369441
-8.49769
0.301709
-8.55661
0.227414
-8.61236
0.147953
-8.67129
0.0629288
-8.72633
-0.0251377
-8.78465
-0.117205
-8.84198
-0.193963
-8.84781
-0.184752
-8.42961
-0.0109311
-6.34751
-2.28821
0.298879
-8.08444
-0.260564
0.320574
-8.11173
0.337466
-8.14626
0.338708
-8.18348
0.334118
-8.22476
0.322798
-8.26594
0.303128
-8.31101
0.270698
-8.3521
0.227474
-8.39826
0.173972
-8.44419
0.110909
-8.49355
0.0396625
-8.54111
-0.0386609
-8.59297
-0.124266
-8.64072
-0.212108
-8.6968
-0.306206
-8.74788
-0.384153
-8.76986
-0.361272
-8.4525
-0.116037
-6.59274
-2.40425
0.193109
-8.1058
-0.171749
0.20437
-8.12299
0.211075
-8.15297
0.207346
-8.17975
0.195238
-8.21265
0.171502
-8.2422
0.135831
-8.27534
0.09468
-8.31095
0.0459664
-8.34955
-0.0117357
-8.38649
-0.0784949
-8.42679
-0.151658
-8.46795
-0.231382
-8.51324
-0.315095
-8.55701
-0.406177
-8.60572
-0.503271
-8.65079
-0.590615
-8.68252
-0.580149
-8.46296
-0.268065
-6.90483
-2.67231
0.0896676
-8.10818
-0.0872973
0.0905485
-8.12387
0.0835437
-8.14596
0.0703553
-8.16656
0.0479159
-8.19021
0.0187227
-8.21301
-0.0170322
-8.23958
-0.0593668
-8.26862
-0.108483
-8.30043
-0.164738
-8.33023
-0.227438
-8.36409
-0.297991
-8.39739
-0.376625
-8.43461
-0.464178
-8.46946
-0.560585
-8.50932
-0.665455
-8.54592
-0.765018
-8.58296
-0.774759
-8.45322
-0.455682
-7.2239
-3.12799
0.0300901
-8.10431
-0.0339522
0.0227593
-8.11654
0.00991333
-8.13312
-0.00701853
-8.14963
-0.0294856
-8.16775
-0.0577191
-8.18477
-0.0925566
-8.20475
-0.137514
-8.22366
-0.191096
-8.24685
-0.249696
-8.27163
-0.315525
-8.29826
-0.388514
-8.3244
-0.473106
-8.35001
-0.564688
-8.37787
-0.668057
-8.40595
-0.780286
-8.43369
-0.902182
-8.46106
-0.946926
-8.40848
-0.677463
-7.49337
-3.80546
-0.0152644
-8.09397
0.00491923
-0.0296214
-8.10218
-0.0490351
-8.1137
-0.0748857
-8.12378
-0.105402
-8.13723
-0.140547
-8.14963
-0.180229
-8.16507
-0.223517
-8.18037
-0.272194
-8.19817
-0.328925
-8.2149
-0.395409
-8.23178
-0.471057
-8.24876
-0.553031
-8.26804
-0.643216
-8.28769
-0.743803
-8.30536
-0.853897
-8.3236
-0.986719
-8.32824
-1.08478
-8.31041
-0.888568
-7.68958
-4.69402
-0.0467591
-8.08047
0.033258
-0.0625987
-8.08635
-0.0811478
-8.09515
-0.103244
-8.10168
-0.129123
-8.11135
-0.159523
-8.11923
-0.194235
-8.13035
-0.235042
-8.13956
-0.280949
-8.15226
-0.334856
-8.16099
-0.393558
-8.17308
-0.459185
-8.18313
-0.532849
-8.19438
-0.617688
-8.20285
-0.71425
-8.2088
-0.820421
-8.21743
-0.940153
-8.2085
-1.04529
-8.20527
-0.892154
-7.84272
-5.58618
-0.06016
-8.06448
0.0441696
-0.0789335
-8.06757
-0.100839
-8.07325
-0.125103
-8.07742
-0.152333
-8.08412
-0.182357
-8.08921
-0.215958
-8.09675
-0.252753
-8.10277
-0.294989
-8.11003
-0.341353
-8.11463
-0.392091
-8.12234
-0.446925
-8.12829
-0.505406
-8.1359
-0.570389
-8.13787
-0.639087
-8.1401
-0.716545
-8.13997
-0.795117
-8.12993
-0.877851
-8.12254
-0.773572
-7.947
-6.35975
-0.0624563
-8.05066
0.0486443
-0.0775998
-8.05243
-0.0949238
-8.05592
-0.114094
-8.05825
-0.135759
-8.06246
-0.159735
-8.06523
-0.187023
-8.06946
-0.21701
-8.07278
-0.249385
-8.07765
-0.284017
-8.08
-0.320851
-8.0855
-0.364121
-8.08503
-0.411762
-8.08826
-0.462803
-8.08683
-0.51546
-8.08744
-0.573197
-8.08223
-0.62251
-8.08062
-0.679113
-8.06594
-0.629717
-7.9964
-6.98947
-0.0578806
-8.0378
0.0450191
-0.0716843
-8.03862
-0.0869527
-8.04065
-0.103313
-8.04189
-0.121366
-8.0444
-0.140733
-8.04586
-0.161458
-8.04874
-0.183488
-8.05075
-0.207943
-8.0532
-0.234147
-8.05379
-0.263125
-8.05653
-0.290929
-8.05722
-0.319536
-8.05965
-0.348763
-8.0576
-0.377153
-8.05905
-0.406348
-8.05304
-0.433717
-8.05325
-0.454436
-8.04522
-0.428312
-8.02252
-7.41778
-0.0442659
-8.0286
0.0350669