/*--------------------------------*- C++ -*----------------------------------*\
  =========                 |
  \\      /  F ield         | OpenFOAM: The Open Source CFD Toolbox
   \\    /   O peration     | Website:  https://openfoam.org
    \\  /    A nd           | Version:  9
     \\/     M anipulation  |
\*---------------------------------------------------------------------------*/
FoamFile
{
    format      ascii;
    class       surfaceScalarField;
    location    "4.1";
    object      phi;
}
// * * * * * * * * * * * * * * * * * * * * * * * * * * * * * * * * * * * * * //

dimensions      [0 3 -1 0 0 0 0];

internalField   nonuniform List<scalar> 
92080
(
-0.00149098
-0.366608
0.368099
-0.0220949
-0.722828
0.743432
-0.0573762
-0.773624
0.808905
-0.0935099
-0.760391
0.796525
-0.129135
-0.748772
0.784397
-0.164637
-0.736951
0.772453
-0.199618
-0.728024
0.763006
-0.234048
-0.718465
0.752895
-0.268083
-0.709819
0.743854
-0.301575
-0.702577
0.736069
-0.334309
-0.694564
0.727297
-0.366841
-0.685748
0.71828
-0.400502
-0.678644
0.712305
-0.433584
-0.67406
0.707143
-0.465283
-0.669719
0.701418
-0.497069
-0.664
0.695786
-0.528552
-0.659053
0.690537
-0.558145
-0.654978
0.684571
-0.585714
-0.651699
0.679268
-0.647099
0.676349
-0.614965
-0.00412839
-0.36248
-0.0302884
-0.696668
-0.0685217
-0.735391
-0.106651
-0.722262
-0.143945
-0.711478
-0.181055
-0.699841
-0.218369
-0.69071
-0.255339
-0.681495
-0.291603
-0.673555
-0.32717
-0.66701
-0.36226
-0.659473
-0.39693
-0.651079
-0.43151
-0.644064
-0.467433
-0.638137
-0.503068
-0.634085
-0.536405
-0.630663
-0.570026
-0.625432
-0.605562
-0.619441
-0.638915
-0.618346
-0.616448
-0.669566
-0.00538434
-0.357096
-0.0371001
-0.664953
-0.0756877
-0.696803
-0.114617
-0.683332
-0.153342
-0.672754
-0.191703
-0.66148
-0.229568
-0.652845
-0.267332
-0.643731
-0.304729
-0.636158
-0.341073
-0.630665
-0.376087
-0.624459
-0.410756
-0.61641
-0.445756
-0.609064
-0.480239
-0.603653
-0.516303
-0.598021
-0.552217
-0.594749
-0.584038
-0.593611
-0.616104
-0.587375
-0.651507
-0.582944
-0.58171
-0.686245
-0.00382059
-0.353275
-0.0399587
-0.628815
-0.0825892
-0.654172
-0.124651
-0.641271
-0.165859
-0.631546
-0.20683
-0.620509
-0.247863
-0.611812
-0.28863
-0.602965
-0.329145
-0.595643
-0.368853
-0.590956
-0.407134
-0.586179
-0.443438
-0.580107
-0.479719
-0.572783
-0.516367
-0.567005
-0.552614
-0.561774
-0.592283
-0.55508
-0.632204
-0.55369
-0.66776
-0.551818
-0.703319
-0.547385
-0.545183
-0.739846
-0.000254199
-0.353021
-0.0381367
-0.590932
-0.0833424
-0.608967
-0.12817
-0.596443
-0.171686
-0.588029
-0.213803
-0.578392
-0.255097
-0.570517
-0.296441
-0.561621
-0.338349
-0.553736
-0.37988
-0.549425
-0.420271
-0.545787
-0.459023
-0.541355
-0.495941
-0.535866
-0.532021
-0.530924
-0.56633
-0.527465
-0.599887
-0.521523
-0.637195
-0.516382
-0.675014
-0.514
-0.711169
-0.51123
-0.508384
-0.747967
-0.00041695
-0.352604
-0.0418122
-0.549537
-0.0914009
-0.559378
-0.138713
-0.549131
-0.185167
-0.541576
-0.2303
-0.533259
-0.274445
-0.526372
-0.31755
-0.518516
-0.361197
-0.510089
-0.405616
-0.505006
-0.449408
-0.501995
-0.491392
-0.499372
-0.532913
-0.494344
-0.574552
-0.489286
-0.615216
-0.486801
-0.653344
-0.483395
-0.690176
-0.479549
-0.728439
-0.475737
-0.766537
-0.473133
-0.470725
-0.804196
-0.000733992
-0.35187
-0.0442231
-0.506048
-0.0943529
-0.509248
-0.143189
-0.500295
-0.190592
-0.494173
-0.236225
-0.487625
-0.280161
-0.482436
-0.322883
-0.475793
-0.365508
-0.467464
-0.409206
-0.461308
-0.45405
-0.457151
-0.497141
-0.456281
-0.537038
-0.454447
-0.576757
-0.449567
-0.617107
-0.446451
-0.656886
-0.443617
-0.695588
-0.440847
-0.733254
-0.43807
-0.771243
-0.435143
-0.432661
-0.809308
-0.00871051
-0.343159
-0.0564172
-0.458341
-0.108115
-0.457551
-0.157926
-0.450484
-0.207634
-0.444465
-0.256354
-0.438905
-0.303754
-0.435036
-0.348395
-0.431152
-0.391547
-0.424312
-0.434723
-0.418133
-0.480228
-0.411645
-0.528067
-0.408442
-0.574993
-0.407521
-0.618975
-0.405585
-0.662427
-0.402999
-0.704788
-0.401257
-0.746271
-0.399364
-0.786842
-0.397499
-0.825873
-0.396112
-0.394096
-0.864438
-0.0166793
-0.32648
-0.0639358
-0.411084
-0.114193
-0.407293
-0.163276
-0.401401
-0.211562
-0.396179
-0.259291
-0.391176
-0.306515
-0.387812
-0.352721
-0.384946
-0.396281
-0.380752
-0.43655
-0.377864
-0.475952
-0.372244
-0.517335
-0.367058
-0.560835
-0.364022
-0.604939
-0.36148
-0.648649
-0.359289
-0.693231
-0.356675
-0.737176
-0.355419
-0.781274
-0.353401
-0.825026
-0.35236
-0.351197
-0.867925
-0.0272384
-0.299242
-0.0781613
-0.360162
-0.130107
-0.355348
-0.180962
-0.350545
-0.231833
-0.345308
-0.282286
-0.340723
-0.332277
-0.337821
-0.381208
-0.336016
-0.431684
-0.330276
-0.480736
-0.328812
-0.526275
-0.326704
-0.57009
-0.323244
-0.612974
-0.321137
-0.655799
-0.318656
-0.69801
-0.317078
-0.739945
-0.31474
-0.782321
-0.313043
-0.824155
-0.311567
-0.866597
-0.309918
-0.309153
-0.90864
-0.0331606
-0.266081
-0.0840439
-0.309278
-0.136215
-0.303176
-0.185918
-0.300843
-0.234785
-0.296441
-0.283954
-0.291554
-0.333092
-0.288682
-0.379445
-0.289664
-0.424353
-0.285367
-0.471695
-0.28147
-0.518685
-0.279714
-0.564753
-0.277176
-0.610564
-0.275327
-0.655617
-0.273603
-0.700412
-0.272282
-0.744432
-0.27072
-0.788326
-0.26915
-0.832244
-0.267649
-0.875792
-0.26637
-0.265106
-0.919839
-0.0420233
-0.224058
-0.0969771
-0.254324
-0.151399
-0.248754
-0.205227
-0.247014
-0.256257
-0.245412
-0.307057
-0.240755
-0.360375
-0.235364
-0.412927
-0.237111
-0.461706
-0.236588
-0.508328
-0.234847
-0.55532
-0.232722
-0.601449
-0.231048
-0.646909
-0.229866
-0.692015
-0.228497
-0.736245
-0.228052
-0.780014
-0.22695
-0.822776
-0.226388
-0.865173
-0.225252
-0.907093
-0.22445
-0.223485
-0.948713
-0.0501454
-0.173912
-0.101957
-0.202513
-0.152598
-0.198114
-0.203759
-0.195853
-0.252939
-0.196231
-0.298778
-0.194916
-0.346077
-0.188065
-0.3971
-0.186088
-0.448411
-0.185278
-0.499063
-0.184195
-0.548194
-0.183591
-0.597778
-0.181464
-0.646415
-0.181229
-0.695078
-0.179835
-0.743128
-0.180002
-0.790414
-0.179664
-0.837113
-0.179689
-0.882704
-0.179662
-0.927755
-0.179399
-0.179317
-0.971923
-0.0568756
-0.117037
-0.110316
-0.149072
-0.163673
-0.144757
-0.220722
-0.138804
-0.277477
-0.139476
-0.330987
-0.141406
-0.379152
-0.139901
-0.427798
-0.137442
-0.476217
-0.136859
-0.524947
-0.135465
-0.572698
-0.13584
-0.61947
-0.134691
-0.666474
-0.134225
-0.712666
-0.133643
-0.759669
-0.132999
-0.806133
-0.1332
-0.852897
-0.132925
-0.899131
-0.133428
-0.945153
-0.133377
-0.133893
-0.990577
-0.0507216
-0.0663152
-0.102527
-0.0972667
-0.150159
-0.0971253
-0.200866
-0.0880966
-0.255689
-0.0846537
-0.312148
-0.0849469
-0.367252
-0.0847968
-0.420067
-0.084627
-0.472312
-0.0846139
-0.523346
-0.0844306
-0.574522
-0.084664
-0.624081
-0.0851316
-0.673218
-0.0850882
-0.721269
-0.0855918
-0.76865
-0.0856184
-0.815799
-0.086051
-0.862327
-0.0863975
-0.908846
-0.0869083
-0.954831
-0.0873916
-0.0878367
-1.00089
-0.0482954
-0.0180198
-0.115191
-0.0303708
-0.179034
-0.0332822
-0.231736
-0.0353954
-0.284543
-0.0318463
-0.337334
-0.0321558
-0.389561
-0.03257
-0.441808
-0.0323799
-0.492826
-0.0335963
-0.543402
-0.0338539
-0.593175
-0.0348918
-0.642816
-0.0354899
-0.691326
-0.0365786
-0.739818
-0.0370994
-0.787267
-0.0381696
-0.834585
-0.0387333
-0.881247
-0.0397355
-0.927637
-0.0405182
-0.97358
-0.0414489
-0.0425249
-1.01889
-0.0364008
0.018381
-0.0945721
0.0278005
-0.156091
0.0282371
-0.213957
0.0224702
-0.268731
0.0229279
-0.323426
0.0225386
-0.377351
0.0213557
-0.430746
0.0210146
-0.48388
0.019538
-0.536287
0.0185533
-0.58809
0.0169111
-0.639189
0.0156095
-0.689762
0.0139938
-0.739341
0.0124796
-0.788577
0.0110664
-0.836705
0.00939485
-0.884596
0.00815521
-0.931504
0.00639041
-0.97816
0.00520607
0.00345492
-1.02414
-0.0552367
0.0736177
-0.116609
0.0891727
-0.171374
0.083002
-0.229726
0.0808224
-0.285892
0.0790939
-0.34013
0.0767767
-0.393247
0.0744728
-0.444691
0.0724578
-0.496137
0.0709845
-0.546541
0.0689571
-0.597171
0.067541
-0.647061
0.0654993
-0.69701
0.063943
-0.746428
0.061898
-0.795648
0.0602861
-0.844579
0.058326
-0.893077
0.0566535
-0.941485
0.0547986
-0.989327
0.0530476
0.0511544
-1.03703
-0.064885
0.138503
-0.12712
0.151408
-0.182181
0.138063
-0.235238
0.133879
-0.287927
0.131783
-0.339236
0.128085
-0.3916
0.126837
-0.444074
0.124932
-0.496415
0.123326
-0.548731
0.121273
-0.600523
0.119333
-0.651963
0.11694
-0.702757
0.114736
-0.753106
0.112247
-0.802754
0.109934
-0.851894
0.107466
-0.900374
0.105133
-0.948319
0.102744
-0.995727
0.100456
0.0982495
-1.04282
-0.0560424
0.194545
-0.105221
0.200587
-0.162385
0.195227
-0.220604
0.192098
-0.27734
0.188519
-0.336225
0.18697
-0.393432
0.184045
-0.449578
0.181077
-0.503683
0.177432
-0.556911
0.1745
-0.608369
0.170791
-0.659315
0.167886
-0.709178
0.1646
-0.758654
0.161723
-0.807523
0.158803
-0.855945
0.155888
-0.904006
0.153193
-0.95156
0.150297
-0.998866
0.147762
-1.04553
0.144918
-0.0137413
0.00506193
0.00867939
-0.0164932
0.0215148
-0.0187629
0.012904
-0.006621
-0.0227762
0.10223
-0.114386
0.0250599
0.285941
-0.344947
0.161236
0.507611
-0.615878
0.394208
0.680488
-0.813672
0.640795
0.76266
-0.900932
0.818761
0.801397
-0.933579
0.894842
0.82211
-0.944964
0.924251
0.835544
-0.948663
0.935229
0.845096
-0.949496
0.939945
0.851411
-0.948357
0.942042
0.856707
-0.946589
0.941293
0.863354
-0.947129
0.940482
0.871302
-0.947956
0.940008
0.879049
-0.949289
0.941542
0.884886
-0.9493
0.943463
0.889793
-0.949002
0.944095
-0.951118
0.896047
0.944864
-0.0150393
0.0201012
-0.00256453
0.00904008
0.058954
-0.0681395
0.205487
-0.260919
0.418975
-0.558434
0.590831
-0.787734
0.675715
-0.898556
0.713725
-0.938942
0.732679
-0.952533
0.743613
-0.955899
0.750856
-0.955906
0.755163
-0.953804
0.759634
-0.952827
0.765719
-0.952674
0.771893
-0.953304
0.777196
-0.953259
0.78141
-0.953503
0.785107
-0.952997
0.790261
-0.954156
-0.956773
0.795917
-0.00331081
0.023412
0.0283398
-0.0226106
0.12029
-0.160089
0.313742
-0.454372
0.489238
-0.73393
0.584725
-0.883221
0.626177
-0.940007
0.64518
-0.957945
0.654742
-0.962095
0.660294
-0.961451
0.663344
-0.958955
0.667208
-0.957668
0.671964
-0.957584
0.675868
-0.956577
0.679297
-0.956733
0.682486
-0.956448
0.685385
-0.956402
0.688743
-0.956355
0.692783
-0.958196
-0.959607
0.695616
0.00634572
0.0170663
0.0573825
-0.0736474
0.195689
-0.298396
0.375374
-0.634057
0.488194
-0.84675
0.539528
-0.934555
0.560374
-0.960853
0.569421
-0.966993
0.574092
-0.966766
0.576376
-0.963735
0.579363
-0.961943
0.582799
-0.961104
0.584782
-0.959566
0.587051
-0.958846
0.589449
-0.959132
0.591068
-0.958067
0.59232
-0.957654
0.594088
-0.958123
0.596321
-0.960429
-0.960456
0.59717
0.0212021
-0.00413579
0.0899769
-0.142422
0.25251
-0.460929
0.384724
-0.766271
0.451979
-0.914005
0.477231
-0.959807
0.487112
-0.970734
0.491517
-0.971398
0.493716
-0.968964
0.49525
-0.96527
0.497245
-0.963938
0.498048
-0.961907
0.499153
-0.960672
0.500372
-0.960066
0.500415
-0.959175
0.499897
-0.957548
0.50004
-0.957797
0.500826
-0.958908
0.501023
-0.960626
-0.959251
0.499818
0.0368518
-0.0409876
0.119909
-0.22548
0.265561
-0.60658
0.356849
-0.85756
0.394139
-0.951294
0.407825
-0.973493
0.413188
-0.976097
0.415716
-0.973926
0.416305
-0.969554
0.416926
-0.965891
0.417221
-0.964233
0.417342
-0.962028
0.416924
-0.960254
0.415802
-0.958943
0.41418
-0.957553
0.412792
-0.95616
0.411694
-0.956699
0.410357
-0.957572
0.408223
-0.958492
-0.956187
0.405159
0.0305238
-0.0715114
0.139176
-0.334132
0.253465
-0.720869
0.312123
-0.916218
0.333531
-0.972702
0.34021
-0.980172
0.342653
-0.97854
0.342843
-0.974116
0.34223
-0.968941
0.341633
-0.965294
0.340646
-0.963245
0.338533
-0.959915
0.336188
-0.957909
0.33358
-0.956335
0.330316
-0.954289
0.326856
-0.9527
0.323668
-0.95351
0.320523
-0.954427
0.316793
-0.954762
-0.951117
0.311724
0.0300395
-0.101551
0.1392
-0.443293
0.223362
-0.80503
0.261329
-0.954185
0.271886
-0.98326
0.274753
-0.983038
0.274949
-0.978737
0.273892
-0.973059
0.272189
-0.967238
0.270098
-0.963203
0.266996
-0.960143
0.263486
-0.956406
0.259663
-0.954086
0.254983
-0.951655
0.249787
-0.949093
0.244895
-0.947808
0.240179
-0.948795
0.234917
-0.949165
0.228946
-0.948791
-0.943885
0.221713
0.0364349
-0.137986
0.128637
-0.535495
0.191556
-0.867949
0.212873
-0.975502
0.21699
-0.987376
0.21699
-0.983039
0.214484
-0.97623
0.211419
-0.969994
0.207434
-0.963253
0.202986
-0.958754
0.197931
-0.955088
0.192115
-0.95059
0.185855
-0.947826
0.179114
-0.944914
0.171984
-0.941963
0.164756
-0.94058
0.157431
-0.94147
0.15
-0.941734
0.141975
-0.940766
-0.934831
0.132922
0.0409485
-0.178934
0.114686
-0.609232
0.157084
-0.910347
0.166275
-0.984693
0.16593
-0.987031
0.161827
-0.978937
0.157342
-0.971745
0.151885
-0.964537
0.145799
-0.957167
0.139302
-0.952258
0.13186
-0.947646
0.123972
-0.942702
0.115763
-0.939617
0.106862
-0.936013
0.0975861
-0.932687
0.0883088
-0.931303
0.0788797
-0.932041
0.0691086
-0.931963
0.05878
-0.930438
-0.923757
0.0477056
0.0412719
-0.220206
0.0969493
-0.66491
0.123879
-0.937277
0.125272
-0.986086
0.120586
-0.982345
0.113954
-0.972305
0.10673
-0.96452
0.0986113
-0.956418
0.0899178
-0.948473
0.0805874
-0.942928
0.070579
-0.937638
0.0600975
-0.93222
0.0492011
-0.92872
0.0377819
-0.924594
0.0259282
-0.920833
0.0138682
-0.919243
0.00157147
-0.919744
-0.0108775
-0.919514
-0.0237084
-0.917607
-0.910576
-0.0368895
0.0344499
-0.254656
0.0772476
-0.707707
0.0913459
-0.951375
0.0868723
-0.981612
0.0781842
-0.973657
0.0688463
-0.962967
0.0587418
-0.954416
0.0478626
-0.945539
0.0364377
-0.937049
0.0245381
-0.931028
0.011891
-0.92499
-0.00116979
-0.919159
-0.0145504
-0.91534
-0.0284452
-0.910699
-0.0427273
-0.906551
-0.0573908
-0.904579
-0.072439
-0.904696
-0.0874877
-0.904465
-0.102487
-0.902608
-0.895774
-0.117288
0.0307238
-0.28538
0.0625241
-0.739508
0.0665257
-0.955377
0.0570889
-0.972176
0.0444808
-0.961049
0.0315479
-0.950034
0.0179742
-0.940842
0.00390435
-0.931469
-0.0105177
-0.922627
-0.0255474
-0.915998
-0.0412025
-0.909335
-0.05719
-0.903172
-0.0734446
-0.899085
-0.090124
-0.894019
-0.10738
-0.889295
-0.125063
-0.886897
-0.142957
-0.886801
-0.16072
-0.886703
-0.178216
-0.885112
-0.878922
-0.195068
0.0238959
-0.309276
0.0453812
-0.760993
0.0407586
-0.950754
0.0262048
-0.957622
0.0101867
-0.945031
-0.00584803
-0.933999
-0.0222747
-0.924415
-0.0392363
-0.914508
-0.0565029
-0.90536
-0.0742273
-0.898274
-0.0925096
-0.891053
-0.111167
-0.884514
-0.130098
-0.880154
-0.149245
-0.874873
-0.168728
-0.869811
-0.188868
-0.866757
-0.209491
-0.866178
-0.229679
-0.866514
-0.249018
-0.865773
-0.860451
-0.267489
0.0193996
-0.328675
0.0317424
-0.773336
0.019998
-0.93901
0.00234677
-0.939971
-0.0163198
-0.926364
-0.0356177
-0.914701
-0.0553444
-0.904689
-0.075386
-0.894466
-0.0957333
-0.885013
-0.116529
-0.877479
-0.13789
-0.869691
-0.159569
-0.862836
-0.181323
-0.8584
-0.203312
-0.852883
-0.225873
-0.84725
-0.248861
-0.84377
-0.272134
-0.842906
-0.295386
-0.843262
-0.317893
-0.843266
-0.839478
-0.338865
0.0155745
-0.34425
0.0222343
-0.779996
0.00509654
-0.921872
-0.0182168
-0.916657
-0.0414261
-0.903155
-0.0644609
-0.891667
-0.0874607
-0.881689
-0.110631
-0.871295
-0.133796
-0.861848
-0.15729
-0.853984
-0.181077
-0.845905
-0.205296
-0.838616
-0.229802
-0.833894
-0.253975
-0.828711
-0.278278
-0.822946
-0.303712
-0.818335
-0.329908
-0.81671
-0.355649
-0.817522
-0.380263
-0.818652
-0.816579
-0.403162
0.0110869
-0.355337
0.00912921
-0.778038
-0.0134061
-0.899336
-0.0384497
-0.891614
-0.0638849
-0.87772
-0.0895525
-0.865999
-0.115238
-0.856003
-0.141024
-0.845509
-0.166921
-0.835951
-0.192996
-0.827909
-0.219591
-0.819311
-0.246406
-0.8118
-0.273333
-0.806968
-0.300477
-0.801567
-0.327648
-0.795775
-0.355033
-0.79095
-0.383567
-0.788176
-0.413217
-0.787872
-0.441673
-0.790195
-0.790358
-0.467895
0.00779
-0.363127
0.0017762
-0.772024
-0.0254119
-0.872148
-0.0546153
-0.86241
-0.0832732
-0.849062
-0.112081
-0.837191
-0.140718
-0.827366
-0.169366
-0.816862
-0.197896
-0.807421
-0.226444
-0.799361
-0.25502
-0.790735
-0.284361
-0.782459
-0.313978
-0.777352
-0.342878
-0.772666
-0.371933
-0.76672
-0.402101
-0.760783
-0.433032
-0.757245
-0.465166
-0.755738
-0.497979
-0.757382
-0.759289
-0.529048
0.00399647
-0.367123
-0.00768789
-0.76034
-0.0376527
-0.842184
-0.0693534
-0.830709
-0.100641
-0.817774
-0.131964
-0.805868
-0.163007
-0.796323
-0.193824
-0.786045
-0.224582
-0.776664
-0.255357
-0.768586
-0.286267
-0.759825
-0.317191
-0.751536
-0.348966
-0.745576
-0.381133
-0.740499
-0.412369
-0.735484
-0.443647
-0.729505
-0.477058
-0.723835
-0.512942
-0.719853
-0.550982
-0.719342
-0.721733
-0.588538
0.000976026
-0.0159314
-0.0492099
-0.0833947
-0.116772
-0.150187
-0.183505
-0.216655
-0.249464
-0.281981
-0.314508
-0.347764
-0.381035
-0.414392
-0.448457
-0.482176
-0.515474
-0.550757
-0.59083
-0.636214
0.811624
-8.48868
8.5731
0.729992
-8.23967
8.3213
0.674672
-8.39747
8.45279
0.622663
-8.40285
8.45486
0.576291
-8.57273
8.61911
0.527595
-8.60632
8.65502
0.490362
-8.72073
8.75796
0.451554
-8.73559
8.7744
0.414358
-8.79534
8.83253
0.372441
-8.81007
8.85199
0.329403
-8.85501
8.89805
0.293653
-8.85693
8.89268
0.266548
-8.94354
8.97065
0.236484
-8.93262
8.96268
0.210094
-9.04885
9.07525
0.180042
-8.97242
9.00248
0.156736
-9.10811
9.13141
0.116763
-8.53875
8.57872
0.0607704
-6.9317
6.98769
-3.52324
3.58401
0.713407
-8.40617
0.63481
-8.16107
0.584236
-8.3469
0.537504
-8.35611
0.495832
-8.53106
0.452516
-8.56301
0.418157
-8.68637
0.379877
-8.69731
0.345137
-8.7606
0.307001
-8.77194
0.270961
-8.81897
0.243131
-8.8291
0.221705
-8.92212
0.197378
-8.90829
0.178515
-9.02999
0.155979
-8.94989
0.139875
-9.092
0.105853
-8.50473
0.0567847
-6.88263
-3.46645
0.613414
-8.32397
0.542707
-8.09037
0.496544
-8.30073
0.452054
-8.31163
0.412566
-8.49157
0.372706
-8.52315
0.344883
-8.65855
0.314926
-8.66736
0.287947
-8.73362
0.255679
-8.73967
0.226035
-8.78933
0.203438
-8.8065
0.186498
-8.90517
0.167002
-8.88879
0.153161
-9.01615
0.134355
-8.93108
0.123153
-9.0808
0.0962206
-8.4778
0.053862
-6.84027
-3.41259
0.517665
-8.24446
0.451816
-8.02452
0.407684
-8.2566
0.36868
-8.27262
0.333948
-8.45684
0.299563
-8.48876
0.273898
-8.63288
0.244198
-8.63766
0.219524
-8.70894
0.19166
-8.71181
0.169433
-8.7671
0.153853
-8.79092
0.141996
-8.89332
0.12834
-8.87514
0.121823
-9.00963
0.110487
-8.91975
0.106356
-9.07667
0.0854693
-8.45691
0.0500252
-6.80483
-3.36257
0.420986
-8.16563
0.362224
-7.96575
0.321849
-8.21623
0.284714
-8.23549
0.252674
-8.4248
0.221826
-8.45791
0.201787
-8.61284
0.180038
-8.61591
0.163142
-8.69205
0.141592
-8.69026
0.125487
-8.751
0.114435
-8.77987
0.107072
-8.88596
0.0982206
-8.86628
0.0967376
-9.00815
0.0893855
-8.9124
0.0899638
-9.07725
0.0761085
-8.44305
0.0472441
-6.77596
-3.31532
0.329612
-8.09008
0.274336
-7.91048
0.234875
-8.17677
0.203443
-8.20405
0.176493
-8.39785
0.150122
-8.43154
0.131746
-8.59446
0.110463
-8.59462
0.0959603
-8.67754
0.0793905
-8.67369
0.0708212
-8.74243
0.065613
-8.77466
0.0631134
-8.88346
0.0602783
-8.86345
0.0657696
-9.01364
0.0660282
-8.91265
0.0734752
-9.0847
0.065613
-8.43519
0.0435757
-6.75393
-3.27175
0.237602
-8.01596
0.187709
-7.86058
0.15076
-8.13982
0.120688
-8.17398
0.0966887
-8.37385
0.0739953
-8.40885
0.0611403
-8.58161
0.0475497
-8.58103
0.040815
-8.67081
0.0307355
-8.66361
0.0279446
-8.73964
0.0269235
-8.77364
0.0287464
-8.88528
0.0307687
-8.86547
0.0409492
-9.02382
0.0455328
-8.91724
0.0575731
-9.09674
0.0565432
-8.43416
0.0409011
-6.73828
-3.23085
0.149762
-7.94401
0.102833
-7.81365
0.067706
-8.10469
0.0432255
-8.1495
0.0236908
-8.35432
0.00430533
-8.38946
-0.0072249
-8.57008
-0.0201814
-8.56808
-0.024562
-8.66643
-0.0293513
-8.65882
-0.0253271
-8.74366
-0.0212288
-8.77774
-0.014036
-8.89247
-0.00593264
-8.87358
0.0103347
-9.04009
0.0227344
-8.92964
0.0415713
-9.11557
0.0463621
-8.43895
0.0374544
-6.72938
-3.19339
0.0625224
-7.87361
0.0198075
-7.77094
-0.0153866
-8.0695
-0.0389377
-8.12595
-0.0549483
-8.33831
-0.0702778
-8.37413
-0.0757347
-8.56462
-0.0812566
-8.56256
-0.0778386
-8.66985
-0.0763516
-8.6603
-0.0672244
-8.75279
-0.0590614
-8.7859
-0.0476116
-8.90392
-0.0353093
-8.88588
-0.0142249
-9.06117
0.00273719
-8.9466
0.0259084
-9.13874
0.0371199
-8.45016
0.0348649
-6.72712
-3.15853
-0.0230633
-7.80284
-0.0631821
-7.73082
-0.0935985
-8.03908
-0.112828
-8.10672
-0.125276
-8.32586
-0.13785
-8.36156
-0.141724
-8.56075
-0.14672
-8.55756
-0.140885
-8.67568
-0.134262
-8.66693
-0.118778
-8.76827
-0.105335
-8.79935
-0.0882837
-8.92097
-0.070695
-8.90347
-0.0440113
-9.08786
-0.0194909
-8.97112
0.0101298
-9.16836
0.0269367
-8.46697
0.0315385
-6.73172
-3.12699
-0.104401
-7.73533
-0.143555
-7.69167
-0.173885
-8.00875
-0.192509
-8.0881
-0.201316
-8.31705
-0.209478
-8.3534
-0.20745
-8.56278
-0.205037
-8.55997
-0.191591
-8.68913
-0.179369
-8.67915
-0.159381
-8.78826
-0.141603
-8.81713
-0.120836
-8.94174
-0.099379
-8.92492
-0.0680964
-9.11914
-0.0392027
-9.00001
-0.00522469
-9.20234
0.0177952
-8.48999
0.0288441
-6.74277
-3.09814
-0.185436
-7.66718
-0.223735
-7.65337
-0.249694
-7.98279
-0.264708
-8.07308
-0.270206
-8.31155
-0.274596
-8.34901
-0.27082
-8.56655
-0.267829
-8.56296
-0.251827
-8.70513
-0.233956
-8.69702
-0.208079
-8.81414
-0.185968
-8.83924
-0.159251
-8.96846
-0.132678
-8.9515
-0.0968487
-9.15497
-0.0609765
-9.03589
-0.0209426
-9.24238
0.00783194
-8.51877
0.025514
-6.76045
-3.07263
-0.262157
-7.60009
-0.298901
-7.61662
-0.325302
-7.95639
-0.339984
-8.0584
-0.341992
-8.30955
-0.342586
-8.34841
-0.333384
-8.57576
-0.322531
-8.57382
-0.299375
-8.72829
-0.277189
-8.71921
-0.247325
-8.844
-0.220939
-8.86562
-0.191076
-8.99832
-0.160569
-8.982
-0.120275
-9.19526
-0.080575
-9.07559
-0.0362157
-9.28674
-0.000929911
-8.55405
0.0232647
-6.78465
-3.04936
-0.339262
-7.52832
-0.375716
-7.58017
-0.398215
-7.93389
-0.410395
-8.04622
-0.408737
-8.3112
-0.404983
-8.35217
-0.394029
-8.58671
-0.381952
-8.58589
-0.355912
-8.75433
-0.328774
-8.74634
-0.293694
-8.87908
-0.263913
-8.8954
-0.227536
-9.0347
-0.191935
-9.0176
-0.147971
-9.23923
-0.10191
-9.12165
-0.0518483
-9.3368
-0.0105661
-8.59533
0.0199672
-6.81518
-3.0294
-0.411053
-7.45613
-0.446986
-7.54424
-0.46983
-7.91105
-0.480637
-8.03541
-0.475015
-8.31683
-0.468946
-8.35824
-0.452536
-8.60312
-0.432559
-8.60587
-0.400362
-8.78652
-0.369873
-8.77683
-0.331682
-8.91727
-0.297825
-8.92926
-0.258346
-9.07418
-0.218943
-9.05701
-0.170449
-9.28772
-0.121011
-9.17108
-0.067079
-9.39073
-0.0195766
-8.64284
0.0176866
-6.85244
-3.01171
-0.482873
-7.37642
-0.518996
-7.50811
-0.537397
-7.89264
-0.546736
-8.02607
-0.537994
-8.32557
-0.528092
-8.36814
-0.509848
-8.62137
-0.488701
-8.62702
-0.454193
-8.82103
-0.418592
-8.81243
-0.375385
-8.96048
-0.338413
-8.96623
-0.292392
-9.1202
-0.248173
-9.10123
-0.196649
-9.33924
-0.14149
-9.22624
-0.0825654
-9.44965
-0.0297087
-8.69569
0.0144682
-6.89662
-2.99724
-0.549619
-7.2947
-0.587758
-7.46998
-0.6058
-7.8746
-0.612527
-8.01935
-0.599403
-8.33869
-0.58691
-8.38063
-0.563015
-8.64526
-0.536037
-8.65399
-0.497009
-8.86006
-0.45836
-8.85108
-0.41109
-9.00775
-0.370201
-9.00712
-0.321516
-9.16888
-0.274129
-9.14861
-0.21858
-9.39479
-0.160419
-9.2844
-0.0977588
-9.51231
-0.0389777
-8.75447
0.0124801
-6.94808
-2.98476
-0.617195
-7.20655
-0.653836
-7.43333
-0.668524
-7.85991
-0.675224
-8.01265
-0.659219
-8.3547
-0.643129
-8.39672
-0.616507
-8.67188
-0.588442
-8.68206
-0.546525
-8.90198
-0.503878
-8.89373
-0.451827
-9.0598
-0.407249
-9.0517
-0.351173
-9.22496
-0.300539
-9.19925
-0.24167
-9.45366
-0.179871
-9.3462
-0.112704
-9.57948
-0.0486548
-8.81852
0.00912798
-7.00586
-2.97563
-0.674134
-7.12096
-0.71745
-7.39002
-0.733003
-7.84436
-0.736885
-8.00877
-0.715807
-8.37577
-0.697715
-8.41481
-0.66453
-8.70507
-0.63212
-8.71447
-0.586061
-8.94803
-0.541987
-8.9378
-0.486076
-9.11571
-0.437966
-9.09981
-0.37897
-9.28395
-0.324473
-9.25374
-0.262672
-9.51546
-0.198032
-9.41084
-0.127314
-9.6502
-0.0589243
-8.88691
0.0065315
-7.07132
-2.9691
-0.725276
-7.03189
-0.771494
-7.3438
-0.784567
-7.83129
-0.79124
-8.00209
-0.768645
-8.39837
-0.747691
-8.43577
-0.713543
-8.73922
-0.678336
-8.74968
-0.630352
-8.99602
-0.583342
-8.98481
-0.523811
-9.17525
-0.471686
-9.15193
-0.408774
-9.34687
-0.349493
-9.31303
-0.285039
-9.57992
-0.215291
-9.48059
-0.142838
-9.72265
-0.0673109
-8.96244
0.00611268
-7.14474
-2.96299
5.83045
-6.83661
-6.02574
5.5274
-7.04074
5.21313
-7.51702
4.88165
-7.67062
4.48689
-8.0036
4.17506
-8.12394
3.79975
-8.36391
3.51431
-8.46424
3.16239
-8.6441
2.89306
-8.71548
2.57915
-8.86133
2.34828
-8.92107
2.0519
-9.05048
1.85383
-9.11496
1.52443
-9.25052
1.3268
-9.28296
0.973428
-9.36928
0.693588
-8.6826
0.310997
-6.76215
-2.65199
3.04541
-6.95571
-2.92632
3.13007
-7.1254
3.07399
-7.46095
3.04797
-7.64459
2.90015
-7.85578
2.7737
-7.99749
2.59182
-8.18203
2.43608
-8.3085
2.25001
-8.45803
2.09273
-8.5582
1.91491
-8.68352
1.76563
-8.77179
1.59215
-8.87701
1.43631
-8.95912
1.23637
-9.05057
1.07924
-9.12583
0.841405
-9.13144
0.631177
-8.47237
0.149752
-6.28073
-2.50224
1.93527
-7.14545
-1.74553
2.09855
-7.28868
2.17787
-7.54026
2.25633
-7.72305
2.24554
-7.84499
2.21542
-7.96737
2.12949
-8.0961
2.03311
-8.21211
1.90658
-8.3315
1.78266
-8.43428
1.63945
-8.54031
1.49289
-8.62523
1.33089
-8.71501
1.16618
-8.79441
0.999925
-8.88432
0.826929
-8.95284
0.636849
-8.94137
0.447456
-8.28298
0.174463
-6.00773
-2.32778
0.931454
-7.38399
-0.692914
1.13763
-7.49485
1.23127
-7.6339
1.30087
-7.79265
1.34875
-7.89287
1.36553
-7.98415
1.34971
-8.08029
1.31147
-8.17387
1.24966
-8.26969
1.17563
-8.36025
1.0857
-8.45038
0.997035
-8.53657
0.899449
-8.61742
0.801383
-8.69634
0.680968
-8.7639
0.561234
-8.8331
0.437538
-8.81767
0.322185
-8.16763
0.136161
-5.82171
-2.19162
0.505911
-7.58323
-0.306671
0.667385
-7.65632
0.771661
-7.73818
0.847246
-7.86824
0.909325
-7.95495
0.951614
-8.02644
0.966868
-8.09554
0.955143
-8.16215
0.923844
-8.23839
0.878909
-8.31531
0.81943
-8.3909
0.745472
-8.46261
0.663746
-8.53569
0.566234
-8.59883
0.464734
-8.6624
0.362761
-8.73113
0.261469
-8.71638
0.189452
-8.09561
0.109385
-5.74164
-2.08223
0.114539
-7.7372
0.0394291
0.258055
-7.79984
0.370966
-7.85109
0.42873
-7.926
0.458447
-7.98467
0.487382
-8.05538
0.516372
-8.12453
0.524136
-8.16991
0.50961
-8.22386
0.480309
-8.28601
0.440068
-8.35066
0.392762
-8.4153
0.334901
-8.47783
0.278369
-8.5423
0.220807
-8.60484
0.147338
-8.65766
0.0800964
-8.64914
0.060671
-8.07618
0.057355
-5.73832
-2.02488
-0.0507158
-7.85563
0.16914
0.0446223
-7.89518
0.123058
-7.92952
0.179901
-7.98285
0.212409
-8.01717
0.228658
-8.07163
0.236587
-8.13246
0.246647
-8.17997
0.25074
-8.22796
0.239055
-8.27432
0.215765
-8.32737
0.185246
-8.38478
0.148385
-8.44097
0.102098
-8.49601
0.0445158
-8.54726
-0.0130953
-8.60005
-0.0652976
-8.59693
-0.0615651
-8.07992
0.0275612
-5.82745
-1.99732
-0.208294
-7.94042
0.293084
-0.13412
-7.96935
-0.071078
-7.99257
-0.027734
-8.02619
0.00966357
-8.05457
0.0273673
-8.08933
0.0314124
-8.1365
0.0274253
-8.17598
0.018139
-8.21867
0.00166732
-8.25785
-0.0201905
-8.30551
-0.0511992
-8.35378
-0.0866919
-8.40548
-0.12336
-8.45934
-0.157514
-8.51311
-0.187142
-8.57042
-0.220348
-8.56373
-0.175656
-8.12461
-0.0159352
-5.98717
-2.01325
-0.314425
-7.99411
0.368122
-0.27023
-8.01355
-0.235451
-8.02735
-0.210057
-8.05159
-0.185621
-8.07901
-0.173278
-8.10167
-0.165932
-8.14385
-0.167937
-8.17398
-0.174572
-8.21203
-0.185306
-8.24712
-0.20251
-8.28831
-0.224529
-8.33176
-0.251211
-8.37879
-0.284534
-8.42602
-0.31987
-8.47777
-0.360571
-8.52972
-0.387467
-8.53683
-0.325813
-8.18626
-0.0997792
-6.21321
-2.11303
-0.387314
-8.03146
0.424666
-0.357244
-8.04362
-0.330039
-8.05455
-0.308365
-8.07326
-0.295531
-8.09184
-0.288885
-8.10832
-0.28932
-8.14341
-0.304261
-8.15904
-0.321307
-8.19499
-0.341854
-8.22657
-0.367993
-8.26217
-0.400211
-8.29954
-0.436023
-8.34298
-0.475611
-8.38643
-0.517271
-8.43611
-0.55634
-8.49065
-0.580092
-8.51308
-0.524609
-8.24175
-0.22742
-6.5104
-2.34045
-0.440155
-8.0498
0.458486
-0.426519
-8.05725
-0.415379
-8.06569
-0.409977
-8.07866
-0.408713
-8.0931
-0.40725
-8.10978
-0.416652
-8.13401
-0.425351
-8.15034
-0.442202
-8.17814
-0.467525
-8.20125
-0.497193
-8.2325
-0.533194
-8.26354
-0.57489
-8.30129
-0.623799
-8.33752
-0.67723
-8.38268
-0.739529
-8.42835
-0.793004
-8.4596
-0.755388
-8.27936
-0.393387
-6.8724
-2.73384
-0.460288
-8.05869
0.469186
-0.454479
-8.06306
-0.450269
-8.0699
-0.451165
-8.07776
-0.455173
-8.0891
-0.466671
-8.09828
-0.48967
-8.11101
-0.510329
-8.12968
-0.537301
-8.15117
-0.567996
-8.17055
-0.604621
-8.19588
-0.647549
-8.22061
-0.699115
-8.24972
-0.758302
-8.27834
-0.82785
-8.31313
-0.906171
-8.35003
-0.980653
-8.38512
-0.983932
-8.27608
-0.630594
-7.22573
-3.36443
-0.471586
-8.05974
0.472628
-0.472988
-8.06166
-0.476958
-8.06593
-0.485601
-8.06912
-0.498511
-8.07619
-0.513017
-8.08378
-0.527676
-8.09636
-0.551269
-8.10608
-0.582705
-8.11973
-0.619621
-8.13364
-0.662353
-8.15314
-0.71282
-8.17014
-0.770712
-8.19183
-0.83576
-8.21329
-0.91468
-8.23421
-1.00922
-8.2555
-1.11955
-8.27479
-1.15226
-8.24337
-0.885723
-7.49227
-4.25016
-0.467273
-8.05342
0.460962
-0.474669
-8.05426
-0.48354
-8.05706
-0.493675
-8.05899
-0.505482
-8.06438
-0.520253
-8.06901
-0.538378
-8.07823
-0.557875
-8.08659
-0.581863
-8.09574
-0.61082
-8.10468
-0.646748
-8.11721
-0.690735
-8.12616
-0.745608
-8.13696
-0.810352
-8.14854
-0.889766
-8.1548
-0.976366
-8.1689
-1.08874
-8.16242
-1.16847
-8.16364
-0.960687
-7.70006
-5.21084
-0.442354
-8.04538
0.434311
-0.451503
-8.04511
-0.461359
-8.0472
-0.471972
-8.04837
-0.483836
-8.05251
-0.497446
-8.0554
-0.515372
-8.06031
-0.537906
-8.06405
-0.561572
-8.07207
-0.589971
-8.07628
-0.622858
-8.08433
-0.660432
-8.08858
-0.702486
-8.0949
-0.751537
-8.09949
-0.805315
-8.10102
-0.869075
-8.10514
-0.936904
-8.09459
-1.01692
-8.08362
-0.867535
-7.84944
-6.07838
-0.396888
-8.03723
0.388735
-0.404909
-8.03709
-0.413315
-8.0388
-0.421788
-8.0399
-0.432057
-8.04225
-0.443437
-8.04402
-0.456647
-8.0471
-0.472335
-8.04837
-0.492344
-8.05207
-0.515529
-8.0531
-0.542681
-8.05718
-0.573575
-8.05769
-0.607068
-8.06141
-0.646795
-8.05977
-0.686002
-8.06181
-0.73497
-8.05617
-0.774339
-8.05522
-0.812984
-8.04498
-0.711751
-7.95067
-6.79013
-0.328815
-8.03054
0.32213
-0.33548
-8.03043
-0.34314
-8.03114
-0.351601
-8.03144
-0.361101
-8.03275
-0.372073
-8.03305
-0.383546