/*--------------------------------*- C++ -*----------------------------------*\
  =========                 |
  \\      /  F ield         | OpenFOAM: The Open Source CFD Toolbox
   \\    /   O peration     | Website:  https://openfoam.org
    \\  /    A nd           | Version:  9
     \\/     M anipulation  |
\*---------------------------------------------------------------------------*/
FoamFile
{
    format      ascii;
    class       volScalarField;
    location    "9.9";
    object      nut;
}
// * * * * * * * * * * * * * * * * * * * * * * * * * * * * * * * * * * * * * //

dimensions      [0 2 -1 0 0 0 0];

internalField   nonuniform List<scalar> 
46400
(
0.0163921
0.00502634
0.00129878
0.00134256
0.00124652
0.00123798
0.00117649
0.00115982
0.00110089
0.00106399
0.00102012
0.000978065
0.000937954
0.000909974
0.000876694
0.000872833
0.000823473
0.000766014
0.00101631
0.000917292
0.0159872
0.00394202
0.00116237
0.00136299
0.0012634
0.00128026
0.00121472
0.00118461
0.00113208
0.00110242
0.00106986
0.00104991
0.00101735
0.000989832
0.000963674
0.000923624
0.000892508
0.000789479
0.000989711
0.000890517
0.0155272
0.00374126
0.00120893
0.00141007
0.00127525
0.00125566
0.00119035
0.00116154
0.00111298
0.00108259
0.00105042
0.00101436
0.000974111
0.000920219
0.00090185
0.000881948
0.000833291
0.000767606
0.00101634
0.00095941
0.0149342
0.00433692
0.00128459
0.00139973
0.0013202
0.00132075
0.00125757
0.00121842
0.00116124
0.00111812
0.00109038
0.00107545
0.00106846
0.00102476
0.000977407
0.000972601
0.000940495
0.000806111
0.00102587
0.00096538
0.0142739
0.00435711
0.00137684
0.00147704
0.00134651
0.00131497
0.00123975
0.00119056
0.00113602
0.00108806
0.00104918
0.00101076
0.000994199
0.000982417
0.000933056
0.00089856
0.000900983
0.000839532
0.00102899
0.000988561
0.0135148
0.00414923
0.0014218
0.00148999
0.00138093
0.0013757
0.00133058
0.00127756
0.00121982
0.00114918
0.00110336
0.00105637
0.00103828
0.00103453
0.00104444
0.00099146
0.000927072
0.000863272
0.00105008
0.000982481
0.0125438
0.00346986
0.00143803
0.00151172
0.00138819
0.00131752
0.00127395
0.00122753
0.00119321
0.0011461
0.0011012
0.00103171
0.00095965
0.000923164
0.000925196
0.000948817
0.000929784
0.000861357
0.00104831
0.00103462
0.0104103
0.00257969
0.00153465
0.00147848
0.0014223
0.00136074
0.00131972
0.00127267
0.0012341
0.0011757
0.00116803
0.00114557
0.00106946
0.00096906
0.000909155
0.000866339
0.000841957
0.000788674
0.000885143
0.000889618
0.0083399
0.00213267
0.00147951
0.00146224
0.00141085
0.00132957
0.0012933
0.00123337
0.00122726
0.0011616
0.00111458
0.00111689
0.00113741
0.00108387
0.00103609
0.000996976
0.000933784
0.00087852
0.000983066
0.000936441
0.00649272
0.00184879
0.00156539
0.00146311
0.00143646
0.00134558
0.00129922
0.00122975
0.00121495
0.00121528
0.00115031
0.00107467
0.00107357
0.00106408
0.0010159
0.000996923
0.00096224
0.000881228
0.000978393
0.000935567
0.00514107
0.00157499
0.00143777
0.00139452
0.00140944
0.00135559
0.00130881
0.0012084
0.00113055
0.00109398
0.00112047
0.00109327
0.0010513
0.00106457
0.00106662
0.00102201
0.00103168
0.0009601
0.00105097
0.00102299
0.004497
0.0016545
0.00161917
0.00146148
0.00143595
0.00139639
0.00142402
0.00138683
0.00131592
0.00117692
0.00108179
0.00103967
0.00099207
0.000919388
0.000937591
0.000907226
0.000883722
0.00086082
0.000900715
0.000920616
0.00380568
0.00152816
0.0015009
0.00135908
0.00133084
0.00121868
0.00121113
0.0012117
0.00125414
0.00127988
0.00124876
0.00118403
0.00116528
0.00110187
0.00103856
0.00102641
0.000982256
0.000934903
0.000979002
0.000947286
0.00407618
0.00160628
0.00153914
0.00151744
0.00148845
0.00138881
0.00129547
0.00122331
0.00116294
0.00113314
0.00112823
0.00110538
0.00107229
0.00106422
0.00102241
0.000977891
0.000958587
0.000899529
0.000939186
0.000939135
0.00402407
0.00155794
0.00136825
0.0013372
0.00142471
0.00142605
0.00138002
0.00134201
0.00127146
0.00122464
0.00117068
0.00113753
0.00110693
0.00106842
0.00105752
0.00102511
0.000989632
0.000937302
0.000962127
0.000929881
0.00278562
0.00169137
0.0015371
0.00151346
0.00140455
0.00140375
0.00135378
0.0013084
0.00129065
0.00123186
0.00122
0.00115105
0.00112479
0.00108077
0.00104007
0.00102108
0.00098514
0.000934753
0.000951306
0.000920532
0.00157081
0.00160742
0.00185131
0.0016506
0.00149683
0.00139289
0.00138462
0.00129449
0.00129099
0.00120958
0.00119638
0.0011493
0.00111722
0.00107791
0.00105053
0.00101433
0.000993172
0.000936143
0.000961398
0.000936085
0.00168561
0.00168079
0.00152117
0.00151835
0.00150448
0.00136451
0.00137174
0.00126004
0.00126411
0.00120728
0.00119524
0.00115495
0.00113271
0.00109776
0.0010696
0.00103912
0.00101041
0.000955104
0.000973394
0.000936597
0.00281377
0.00152049
0.00131744
0.00149042
0.00141398
0.00140084
0.00137559
0.00135031
0.00131256
0.00126062
0.00123653
0.00119404
0.0011629
0.00112024
0.00108848
0.00105332
0.00102041
0.000965614
0.0009699
0.000950544
0.0034039
0.00155267
0.0015297
0.00155527
0.00147672
0.00146228
0.00143686
0.00137124
0.0013334
0.00128283
0.00123318
0.00119301
0.00115794
0.00111441
0.00108453
0.00105196
0.00101968
0.000972729
0.000988499
0.000961085
0.00121519
0.000952116
0.00389672
0.00860676
0.0108509
0.00776917
0.00365415
0.00128267
0.000412175
0.000158867
0.000292509
0.000366766
0.000264272
0.000298342
0.000299872
0.000284027
0.000281199
0.000296985
0.000316424
0.000354077
2.30713e-23
0.0021682
0.0069383
0.0107125
0.00917256
0.00484883
0.00173075
0.000528571
0.000128064
0.00030214
0.000323798
0.000268579
0.000290343
0.00027279
0.000246508
0.000283472
0.000338507
0.000347282
0.000311884
0.000346435
0.000501934
0.00416881
0.00916087
0.0107393
0.00658035
0.00255271
0.000721045
0.000100112
0.000271129
0.000300612
0.000263028
0.000311179
0.000254879
0.000287639
0.000297186
0.000329967
0.000310532
0.000280677
0.00028767
0.000364441
0.000808393
0.00714333
0.0108138
0.00897861
0.00432309
0.0012092
3.95266e-05
0.000204156
0.000273763
0.000294412
0.000306054
0.000285894
0.000300794
0.000307819
0.000258638
0.000288491
0.000296258
0.000339342
0.000342561
0.000387915
0.00281213
0.00879013
0.0111164
0.00699759
0.0021676
0.000223979
0.000100747
0.000239991
0.000324135
0.000317189
0.000289075
0.000318805
0.000269476
0.000275823
0.000287569
0.000364695
0.000337149
0.000326035
0.00032504
0.000389482
0.00256976
0.0101508
0.010415
0.00505171
0.000887528
6.06615e-05
0.000234969
0.000341804
0.000337871
0.000302698
0.000324448
0.000304089
0.000324014
0.00035203
0.000319154
0.000335458
0.000296348
0.000355523
0.000369404
0.000418174
0.00547009
0.0110126
0.00904918
0.00275445
0.000172386
0.000175169
0.000345208
0.000360952
0.000346041
0.000369668
0.000358454
0.000382541
0.00033931
0.00031603
0.000316901
0.000392111
0.000341624
0.000379331
0.00037994
0.00043367
0.00757589
0.0114293
0.00783151
0.00111918
8.81635e-05
0.000344968
0.000417822
0.00044286
0.000443169
0.000409393
0.000408042
0.000370734
0.000379525
0.000402132
0.000386594
0.000390097
0.000332498
0.000419563
0.000424719
0.000461239
0.0098647
0.0114642
0.00617791
0.000495659
0.000252332
0.000523844
0.000558356
0.00048391
0.000476249
0.000465972
0.000457092
0.000477356
0.000438762
0.000403699
0.00039595
0.000436028
0.000371631
0.000458023
0.00044842
0.000486836
0.0123914
0.0112314
0.00399676
0.000264808
0.000515223
0.000611477
0.000569178
0.000567232
0.000568898
0.000545826
0.000525838
0.000479772
0.000475508
0.000474985
0.000456407
0.000448654
0.00040104
0.0005055
0.000481663
0.000513381
0.0139771
0.0110294
0.00258855
0.000374987
0.000649363
0.000728306
0.000706958
0.000641916
0.00061556
0.000582431
0.000568507
0.000577654
0.000541961
0.000509067
0.000501543
0.000496106
0.000441351
0.000536486
0.000483928
0.000534688
0.0151389
0.0104827
0.00146235
0.000348141
0.000804761
0.000776892
0.000728111
0.000688292
0.000688845
0.000676204
0.000647509
0.00061048
0.000598823
0.000576196
0.000547985
0.000519667
0.000482115
0.000568563
0.00048672
0.000552668
0.0156453
0.0100498
0.00102466
0.00054257
0.000890101
0.000853788
0.000854487
0.000783229
0.000746192
0.000707414
0.000685879
0.000680921
0.000648882
0.000621564
0.000609985
0.000568293
0.000530012
0.000604595
0.000499066
0.000576118
0.0163361
0.00962062
0.000958023
0.000720719
0.00102861
0.000906317
0.000883158
0.000814854
0.000801888
0.000796049
0.000761382
0.000737189
0.000718429
0.0006841
0.000652418
0.000600003
0.000576262
0.000622661
0.000474407
0.000597626
0.0167152
0.00917035
0.00163906
0.000885262
0.00105046
0.000987284
0.000970886
0.000915397
0.00086189
0.000829254
0.000799767
0.000778936
0.000749419
0.000729671
0.000714707
0.000665389
0.000648905
0.000667648
0.000483194
0.000609422
0.0169782
0.00891052
0.00215763
0.000993235
0.00115066
0.00103652
0.00101444
0.000938754
0.000907362
0.000897688
0.000861867
0.000843568
0.000817489
0.000789589
0.000761507
0.000694254
0.000721387
0.000706917
0.000451126
0.000625376
0.0171292
0.00864956
0.00202084
0.00104945
0.00117309
0.00109228
0.00106114
0.00102475
0.000958418
0.000936744
0.000902179
0.00087437
0.000845527
0.000828637
0.000819652
0.000771863
0.000796394
0.000797455
0.000507967
0.000621809
0.0170629
0.00776089
0.00174986
0.00110459
0.00122008
0.00115229
0.00110574
0.00104812
0.000996196
0.000977863
0.000947504
0.000926772
0.000900935
0.000879208
0.000845294
0.000814074
0.000850283
0.000861102
0.00057039
0.000535245
0.0169725
0.00689704
0.00192295
0.00119625
0.00122483
0.00118959
0.00113627
0.00111729
0.00105419
0.00103633
0.00100484
0.000980538
0.000945633
0.00093424
0.000916151
0.000897096
0.00093428
0.000982132
0.000770086
0.000702662
0.0166842
0.00571038
0.00163115
0.0012548
0.00124104
0.0012396
0.00117597
0.00113611
0.00107648
0.00105375
0.00103429
0.00103128
0.00102847
0.00101885
0.0010175
0.00102501
0.0010834
0.000971554
0.00104936
0.00110316
0.00380262
0.0026385
0.00219542
0.00209555
0.00177704
0.0014668
0.00134808
0.00131984
0.0011627
0.0011305
0.000956089
0.000894243
0.000771641
0.000669009
0.000420391
0.000660984
0.00152465
0.00595692
0.0104717
0.0152477
0.00367095
0.00270978
0.00237422
0.00201419
0.00176007
0.00153001
0.00137908
0.00130658
0.00112908
0.00111585
0.000935968
0.000873685
0.000754495
0.000635048
0.000425333
0.000658832
0.00144689
0.00597567
0.0104217
0.0151648
0.00377755
0.00255107
0.00225771
0.00208858
0.00182018
0.00147703
0.0013502
0.00131856
0.00115263
0.00115668
0.000954458
0.000886128
0.000778616
0.000627397
0.000464563
0.000685811
0.0014267
0.00596111
0.0104715
0.0150906
0.00372526
0.00258458
0.00247263
0.0020572
0.00173844
0.00151069
0.00139103
0.00132366
0.00113247
0.00114533
0.000934754
0.000861654
0.000760097
0.000607297
0.000454172
0.000661609
0.00134442
0.00596749
0.0104349
0.0150287
0.00381991
0.00250116
0.0023758
0.00204625
0.00181113
0.00152543
0.00137319
0.00133397
0.00115582
0.0011752
0.000944392
0.000862246
0.000770872
0.000611456
0.00047873
0.000693511
0.00130346
0.00594448
0.010491
0.0149627
0.0038764
0.0025799
0.00250861
0.00201152
0.00171879
0.0015416
0.00139748
0.00134097
0.00114194
0.00115911
0.000923279
0.000835726
0.000744685
0.000588081
0.000477654
0.000729631
0.00122595
0.00593128
0.0104671
0.0149254
0.00396434
0.00246366
0.00243567
0.00197631
0.00178736
0.00160271
0.00140393
0.00136969
0.00117168
0.00117512
0.000922793
0.000826526
0.000747245
0.000600356
0.000481166
0.000751057
0.00117102
0.00590256
0.0104977
0.0148687
0.00410592
0.00260755
0.00251384
0.00193035
0.00171526
0.00161663
0.00140633
0.00136645
0.00116096
0.00115034
0.000899787
0.000803989
0.000717172
0.000595707
0.000492154
0.000757642
0.00108973
0.00587438
0.0105075
0.0148449
0.00417192
0.00251816
0.0024203
0.00185602
0.00174543
0.00167993
0.00143073
0.00140584
0.00119496
0.00115109
0.000887914
0.000793337
0.000712809
0.000614252
0.000510451
0.000772251
0.00102461
0.00584461
0.0105278
0.0148113
0.00432903
0.00261202
0.00246919
0.00189208
0.00171558
0.00169911
0.00142662
0.00139247
0.00119112
0.00112148
0.000863756
0.000781756
0.000691161
0.000618534
0.00052264
0.000749711
0.000939428
0.00580297
0.0105505
0.0147788
0.00439409
0.00260805
0.00241603
0.00181572
0.00169025
0.00172581
0.00145583
0.00142225
0.00122248
0.00110949
0.000842251
0.000777332
0.000691311
0.00064338
0.00054151
0.000731325
0.000865847
0.00575974
0.0105494
0.014758
0.00458477
0.00263995
0.00240736
0.00190781
0.00168075
0.00173742
0.00145416
0.0014037
0.00122363
0.0010809
0.000822384
0.000779076
0.000681753
0.000654017
0.000558148
0.000707926
0.000775001
0.00572274
0.0105646
0.014738
0.00464208
0.00267259
0.00240212
0.00186857
0.00163903
0.00173481
0.00147245
0.00142026
0.00124155
0.0010603
0.000799118
0.0007795
0.000686399
0.00067758
0.000576548
0.000687589
0.000695976
0.00566811
0.0105732
0.0147222
0.00486132
0.00270001
0.00234211
0.00194379
0.00163535
0.00172807
0.00146995
0.00140405
0.00123586
0.00103498
0.000790341
0.000789134
0.000681352
0.000691436
0.000599291
0.000661253
0.000601412
0.00562128
0.0105783
0.0147044
0.00488603
0.00276262
0.00236026
0.0018365
0.00161918
0.00172143
0.00147697
0.00141064
0.00122717
0.00100771
0.000780505
0.000792616
0.000688965
0.000713868
0.000619379
0.000654648
0.000494647
0.00556951
0.0105953
0.014711
0.00514615
0.00281082
0.00224662
0.00191328
0.00162303
0.00168791
0.00147302
0.00139532
0.00120346
0.000987413
0.000778686
0.00080628
0.000691083
0.000728324
0.000629049
0.000637177
0.000424479
0.00551227
0.0106016
0.0147196
0.00506443
0.0028561
0.002266
0.00182185
0.00163297
0.00168562
0.00147038
0.0013901
0.00117069
0.000963832
0.000779476
0.000813639
0.000699487
0.000744672
0.000646781
0.000620512
0.000301968
0.00540802
0.0106147
0.0146497
0.00511433
0.00245435
0.00204581
0.00193486
0.00163917
0.0016482
0.00147817
0.00137604
0.00115734
0.000969705
0.000786766
0.000832221
0.000709553
0.000764902
0.000660798
0.00064621
0.000191397
0.00545785
0.0106455
0.0147636
0.0045125
0.00235787
0.00198958
0.00185902
0.00162407
0.00159629
0.00144449
0.00132879
0.0011002
0.000928602
0.000803283
0.000829293
0.000709459
0.000761142
0.000638862
0.000631734
0.000138947
0.00537971
0.0107129
0.014906
0.00446277
0.00270441
0.00158976
0.00193325
0.00162821
0.00155466
0.00144688
0.00128677
0.00108422
0.0009532
0.000818997
0.000840562
0.000719592
0.000775687
0.000687179
0.000636354
0.000154483
0.0050624
0.0105455
0.0144887
0.0216964
0.0279471
0.0130177
0.0206462
0.0127473
0.016639
0.0146083
0.0132253
0.0112125
0.0100525
0.00883962
0.00897408
0.00752186
0.00777991
0.00684781
0.00698688
0.00659072
0.05093
0.0998479
0.13424
0.0251228
0.0202577
0.0186547
0.0160697
0.0148043
0.0121522
0.0110576
0.00952076
0.00882716
0.00811155
0.00774842
0.00706947
0.00654426
0.00632016
0.00573485
0.00493176
0.0146319
0.0501917
0.0982328
0.131663
0.0137431
0.0141402
0.0130515
0.0110144
0.0102757
0.00912288
0.00868827
0.0083582
0.00787984
0.00736588
0.00705308
0.00671169
0.00643489
0.00595702
0.00556805
0.00509518
0.007981
0.0495035
0.0959786
0.129677
0.0115986
0.0105562
0.00932817
0.00828502
0.00754902
0.00746956
0.00709421
0.00638632
0.0062463
0.00594006
0.00566716
0.00520655
0.00499954
0.00477849
0.00462546
0.00365414
0.0109139
0.0449325
0.0957116
0.126339
0.0056416
0.00674763
0.00702773
0.00606998
0.00553259
0.00523007
0.00548037
0.00542672
0.0051618
0.00490069
0.00476904
0.00477017
0.00454102
0.0043186
0.00441159
0.00374936
0.00651479
0.040185
0.0961323
0.124998
0.00531939
0.00534836
0.00463751
0.00458981
0.00434288
0.00398274
0.00410566
0.00410131
0.00419181
0.00418593
0.00418725
0.00405616
0.0041083
0.00408025
0.00382191
0.00285312
0.00576311
0.034571
0.0965642
0.124954
0.00294803
0.00305942
0.00316219
0.00361858
0.00343837
0.00321124
0.0031881
0.00341255
0.00347347
0.00349587
0.00346482
0.00354172
0.0034143
0.00357354
0.0035522
0.0028461
0.00367459
0.0282117
0.0969727
0.127631
0.00234601
0.00258846
0.00254056
0.00235256
0.00239087
0.00262912
0.00254736
0.00257977
0.00288691
0.00301427
0.00305701
0.00323132
0.00320241
0.0035508
0.00371088
0.00315982
0.00306312
0.0218618
0.096058
0.133941
0.0012586
0.00138911
0.00149345
0.00182567
0.00193415
0.00234885
0.00233238
0.00226946
0.00246243
0.00256319
0.0026493
0.00291429
0.00294121
0.00324343
0.00330962
0.00350949
0.00234797
0.0152931
0.0940377
0.140836
0.0010064
0.00111056
0.00120871
0.00123686
0.00121963
0.00141748
0.00163849
0.00188695
0.00197606
0.00219183
0.00221988
0.00258525
0.00264631
0.00324972
0.003597
0.00386723
0.00255633
0.00919176
0.0883034
0.153747
0.000492144
0.000635534
0.000696067
0.00101168
0.00117445
0.00133581
0.00129947
0.00149969
0.00161323
0.00194946
0.00175277
0.00226789
0.00226106
0.00262432
0.00331325
0.00388194
0.00308287
0.00387705
0.0691106
0.166084
0.000387255
0.000492823
0.000451153
0.000583278
0.000561472
0.000878186
0.00100779
0.00104595
0.00118784
0.00161017
0.00169935
0.00198836
0.00227572
0.00252707
0.00288628
0.00362488
0.00403885
0.00423272
0.0547241
0.185253
0.000185858
0.00030473
0.000395418
0.000651875
0.000433429
0.000754084
0.00088195
0.00102433
0.000876551
0.00120121
0.00129631
0.00148967
0.00173069
0.00209436
0.00236034
0.00249617
0.00327171
0.00782352
0.0299697
0.15714
4.51571e-05
0.000285058
0.000163836
0.000254235
0.000399695
0.00019126
0.000525408
0.000447691
0.000780537
0.000948195
0.000993763
0.00131588
0.00136982
0.0019626
0.00160647
0.00217419
0.00189456
0.0047635
0.0187163
0.111398
7.05492e-05
0.000329605
9.91487e-05
0.000295994
0.000196658
0.000375454
0.000201541
0.000500701
0.00040687
0.000640229
0.000641838
0.000960878
0.000959203
0.00137792
0.00121912
0.00206149
0.00163407
0.00365074
0.00728163
0.0657415
0.000305204
0.000285609
0.000340682
0.000348153
0.000379829
0.00038174
0.000413848
0.000452223
0.000468089
0.000559256
0.000570225
0.000651386
0.000682082
0.000589299
0.000823372
0.000758429
0.000519248
0.00109274
0.00648628
0.0358015
0.000335742
0.000313456
0.00035031
0.00037239
0.000375027
0.000399033
0.000402754
0.000447095
0.000463698
0.000496143
0.000529732
0.00050927
0.000519702
0.000711223
0.000525841
0.000815541
0.000640704
0.00100557
0.00395412
0.01765
0.000452745
0.000456745
0.00047623
0.000478501
0.000471678
0.000498328
0.000486086
0.000523285
0.000540486
0.000554386
0.000556121
0.000640001
0.000707668
0.000681599
0.000956925
0.000466281
0.000560598
0.00136356
0.00268048
0.00819364
0.000486649
0.000496166
0.000531916
0.000532218
0.000546827
0.000549571
0.000557732
0.000556556
0.000564922
0.000577584
0.000569073
0.000634517
0.000566277
0.000672425
0.00055387
0.000672845
0.000436577
0.000376651
0.000462815
0.00608978
0.000526717
0.000522785
0.000541871
0.000544366
0.000547105
0.000557583
0.000559645
0.000574596
0.000558617
0.000580198
0.000543301
0.000538463
0.000487853
0.000482275
0.000534499
0.000359891
0.000301319
2.02312e-05
0.000186168
0.00288831
0.01424
0.0140407
0.0140016
0.0138715
0.0136378
0.0135989
0.013295
0.0132081
0.0132103
0.0124711
0.0120576
0.0119721
0.0124404
0.0111877
0.0101547
0.00878448
0.00898871
0.00988316
0.00884231
0.00904241
0.00705437
0.00699695
0.00696811
0.00691596
0.00682987
0.0067965
0.00677935
0.00671661
0.00636669
0.00636656
0.00638764
0.00625129
0.00599089
0.00573119
0.00560886
0.00625387
0.00887115
0.00763376
0.00562361
0.00743387
0.00426523
0.00425008
0.00423897
0.00425437
0.00427801
0.00433029
0.00433196
0.00435769
0.00442931
0.00443749
0.00419262
0.00435365
0.00430462
0.0044363
0.00421068
0.00398585
0.00324648
0.0033427
0.00358064
0.00358387
0.00277683
0.0027482
0.00271882
0.00267734
0.0026257
0.0025739
0.00249486
0.00245543
0.00235005
0.00230736
0.00234259
0.00232207
0.00233345
0.00239236
0.00223329
0.00238889
0.0025347
0.00274856
0.00220312
0.00252158
0.00166077
0.0016508
0.00164249
0.00163364
0.00162409
0.00161717
0.0016054
0.00160815
0.00168647
0.00185483
0.00171702
0.00171793
0.00168612
0.00169011
0.00166077
0.00164211
0.00153383
0.00165964
0.00167044
0.00158
0.00119381
0.00118176
0.00117029
0.00115979
0.00115199
0.00114539
0.00113971
0.00113137
0.00112522
0.00103828
0.00101908
0.0010402
0.00103458
0.00104844
0.00102618
0.00105651
0.00102837
0.00104821
0.00094096
0.00100066
0.000704125
0.000704628
0.000688394
0.000682413
0.000676818
0.000674371
0.000670989
0.000671176
0.000668212
0.000679235
0.000685688
0.000680724
0.000673017
0.000681087
0.000660561
0.000686643
0.000763884
0.000734396
0.000631115
0.000684075
0.000496428
0.00049807
0.000492985
0.00048745
0.000483564
0.000479456
0.000476979
0.000475081
0.000473909
0.000474884
0.000467056
0.000470606
0.000469239
0.000490656
0.000497881
0.00048353
0.000451072
0.000519091
0.000543052
0.00049073
0.000252278
0.000256205
0.00025839
0.000253492
0.000253328
0.000253699
0.000254151
0.000254609
0.000255818
0.000257609
0.000256622
0.000257248
0.000254616
0.000270315
0.000295181
0.000314192
0.00027303
0.000254075
0.000228124
0.00026069
0.000153796
0.00014923
0.000143637
0.000140097
0.000135735
0.000134736
0.000135214
0.000137853
0.000140642
0.000142818
0.000142014
0.000142285
0.000138653
0.000143672
0.000144297
0.000140474
0.000116499
0.00011998
0.000134019
0.000157029
7.09768e-05
6.98774e-05
5.50164e-05
4.5176e-05
3.4931e-05
2.82281e-05
2.66519e-05
2.75482e-05
2.96021e-05
3.18025e-05
3.50499e-05
3.76286e-05
3.73268e-05
4.34755e-05
4.95853e-05
6.09095e-05
5.97073e-05
7.5595e-05
5.49749e-05
7.48002e-05
5.9845e-05
5.61178e-05
4.99007e-05
4.37862e-05
3.5236e-05
2.72485e-05
1.77969e-05
1.13887e-05
1.26727e-05
2.35621e-05
1.48217e-05
1.41689e-05
2.9009e-05
3.2454e-05
1.40986e-05
2.38468e-05
6.32933e-05
0.00010686
0.000114381
0.000116775
4.94842e-05
4.99399e-05
5.07138e-05
4.75053e-05
4.55302e-05
4.01273e-05
3.45178e-05
3.21527e-05
2.64066e-05
3.19303e-05
2.4916e-05
6.19367e-06
1.62369e-06
7.80299e-06
1.00453e-05
1.71932e-05
1.43758e-05
2.27982e-05
2.93517e-05
4.49297e-05
8.53503e-05
7.29159e-05
6.30979e-05
5.75426e-05
5.43495e-05
5.11172e-05
4.86299e-05
4.03945e-05
3.4804e-05
2.21742e-05
1.59509e-05
2.64596e-05
2.48766e-05
4.62504e-05
4.22071e-05
4.78903e-05
4.44356e-05
5.33758e-05
8.44985e-06
5.76919e-05
7.53189e-05
7.61704e-05
7.68593e-05
7.54291e-05
7.46333e-05
7.53123e-05
7.56125e-05
7.64561e-05
7.87479e-05
8.186e-05
7.26794e-05
6.58729e-05
6.47301e-05
6.63166e-05
6.54549e-05
6.60522e-05
6.01646e-05
5.41169e-05
3.28374e-05
6.99984e-05
9.6009e-05
9.27628e-05
8.99851e-05
8.90771e-05
8.68651e-05
8.3424e-05
8.09947e-05
8.02987e-05
7.69702e-05
6.92133e-05
6.79845e-05
7.38617e-05
7.49982e-05
7.70104e-05
7.71315e-05
8.13471e-05
8.07156e-05
7.80088e-05
6.04098e-05
5.99919e-05
8.96308e-05
8.86588e-05
8.80431e-05
8.72948e-05
8.74655e-05
8.81439e-05
8.65456e-05
8.71938e-05
8.98916e-05
9.33322e-05
9.18783e-05
8.82729e-05
8.821e-05
8.81611e-05
9.04974e-05
8.6736e-05
8.49832e-05
7.81014e-05
8.56561e-05
8.66445e-05
9.26472e-05
9.45579e-05
9.57976e-05
9.63258e-05
9.66932e-05
9.84987e-05
0.00010109
9.66898e-05
9.27594e-05
9.56033e-05
9.8968e-05
9.7886e-05
9.29829e-05
9.28773e-05
9.15757e-05
9.14035e-05
9.43384e-05
9.63784e-05
9.92901e-05
0.000103831
0.000111383
0.000110685
0.000110164
0.000110984
0.000112819
0.000112525
0.000114004
0.000120334
0.00011946
0.000113791
0.000113128
0.000115806
0.000121922
0.000122541
0.000124157
0.000123665
0.000121383
0.000121764
0.000125094
0.000117398
0.000112972
0.000113611
0.000114192
0.000115246
0.000116068
0.00011671
0.000117767
0.000116668
0.000117653
0.000120493
0.000121617
0.00012254
0.000123425
0.00012386
0.000124386
0.000124684
0.000125946
0.00012653
0.000128691
0.000134161
0.00120469
0.0015576
0.00119904
0.00121539
0.00126823
0.00126246
0.00130041
0.00132841
0.00135076
0.00139319
0.00144677
0.00148063
0.00156273
0.0016201
0.0017299
0.00177257
0.00173947
0.00259214
0.00872221
0.0233858
0.0011827
0.00135573
0.00101145
0.00108397
0.0012004
0.00124374
0.00127362
0.00132878
0.00138507
0.00142434
0.00149085
0.00153624
0.00160171
0.00161598
0.001694
0.00169889
0.00175613
0.00190266
0.00747186
0.0228912
0.00116668
0.00144102
0.00108753
0.00111444
0.00120783
0.00122552
0.00126624
0.00130585
0.00133287
0.0013817
0.00143611
0.00147301
0.00154986
0.00159995
0.00171436
0.00172537
0.00177458
0.00178207
0.00674651
0.0223603
0.00120139
0.00142697
0.00104527
0.00107753
0.00118115
0.00121799
0.00125118
0.00130814
0.00136505
0.00141069
0.0014664
0.00151575
0.00158748
0.00160583
0.00168109
0.00166105
0.00179899
0.0015282
0.00555446
0.0218095
0.00125677
0.00148092
0.0010974
0.00115444
0.00123083
0.00124298
0.00128305
0.00132156
0.00134503
0.00139334
0.00144625
0.00149068
0.00155042
0.00158987
0.00169347
0.00169027
0.00178745
0.00152777
0.0051312
0.0211615
0.00121823
0.00142125
0.00107943
0.00109833
0.00117824
0.00121806
0.00125327
0.0013063
0.00135572
0.00141062
0.00145441
0.00149925
0.00155842
0.00158566
0.00166421
0.00165332
0.00183759
0.00160647
0.00529854
0.0204409
0.00125561
0.00145298
0.00110001
0.00116822
0.00125769
0.00127885
0.0013101
0.00134476
0.00136892
0.00141023
0.00144605
0.00149618
0.00154816
0.00160736
0.00170771
0.00170431
0.00182567
0.00161245
0.00564976
0.0196711
0.00124414
0.00140673
0.00110857
0.00116049
0.0012093
0.00122405
0.00124961
0.00128938
0.00132777
0.00137348
0.00141228
0.00147252
0.0015322
0.00158336
0.00164245
0.00166753
0.00189846
0.00169682
0.00549943
0.0189546
0.00123318
0.00138616
0.00109857
0.00114255
0.00119601
0.00122737
0.00127234
0.00131371
0.00133796
0.0013895
0.00143778
0.00151213
0.00155508
0.00161826
0.00170387
0.00172573
0.00181271
0.00163145
0.00486248
0.0177396
0.0012496
0.00135888
0.00108264
0.00113845
0.00119755
0.00121815
0.0012435
0.00125999
0.00130843
0.00136855
0.00142198
0.00147512
0.0015027
0.00157915
0.00160567
0.00165525
0.00184669
0.00170315
0.00393756
0.0160683
0.00115843
0.00123983
0.00105598
0.00112617
0.00117429
0.00119926
0.00123499
0.00130792
0.00137642
0.00141644
0.00144784
0.00148146
0.00153149
0.00158698
0.00160999
0.00167383
0.00168716
0.00165671
0.00317398
0.0136494
0.00120143
0.00130331
0.0011305
0.00116145
0.0011978
0.00122683
0.00127538
0.00131082
0.00130054
0.00131452
0.00134428
0.00139457
0.00142843
0.00145526
0.00150306
0.00161763
0.00170153
0.00171268
0.00272184
0.0110516
0.00111833
0.00117793
0.00102939
0.00107091
0.00112168
0.00116077
0.00118324
0.00118712
0.00121109
0.00128064
0.00133168
0.00137602
0.00140823
0.00148021
0.00156627
0.00161613
0.00162322
0.00171778
0.0022426
0.009049
0.00109978
0.00115297
0.00105662
0.00110782
0.00114272
0.00115113
0.00115279
0.00118315
0.00123689
0.00129889
0.00130255
0.00135474
0.00140177
0.00149636
0.00153108
0.00163094
0.00166211
0.00165438
0.00203072
0.0075078
0.00104331
0.00109511
0.00102343
0.00104396
0.00107917
0.00109845
0.00114089
0.00120306
0.00125695
0.00127678
0.00131601
0.00140798
0.00147989
0.00152973
0.00155648
0.00157636
0.00152968
0.00170993
0.00184411
0.00625889
0.00105624
0.00112308
0.00103744
0.00107706
0.00112588
0.00115436
0.00120252
0.00123558
0.00125599
0.00129683
0.00136805
0.00141419
0.00140696
0.00142822
0.00143079
0.0014757
0.00152357
0.00159159
0.00171536
0.00548274
0.000997693
0.0010572
0.000999819
0.00104982
0.00108235
0.00110911
0.00113772
0.00116636
0.00120897
0.00125526
0.00128863
0.00129538
0.00132111
0.00138112
0.00144507
0.00151808
0.00162
0.00180716
0.00178776
0.00505847
0.000992533
0.00105258
0.00100417
0.00104815
0.00108857
0.00110907
0.00115555
0.0011836
0.00122834
0.00125242
0.00128822
0.0013218
0.00139462
0.00147515
0.00148669
0.00159825
0.00155003
0.00156634
0.00167906
0.00418498
0.000977801
0.00102443
0.000997997
0.00105028
0.0010892
0.00111247
0.00114775
0.00117099
0.0012096
0.00123504
0.00128995
0.00132542
0.00139243
0.00141321
0.00145749
0.00157344
0.00155594
0.00164638
0.00167631
0.00351237
0.000971841
0.00101258
0.000984802
0.00102865
0.00105547
0.00107417
0.00110286
0.00112702
0.00116579
0.00118602
0.00124731
0.00126737
0.00132366
0.00134757
0.00144196
0.0015152
0.00147881
0.00179118
0.00185223
0.00307086
0.00106316
0.00123312
0.00132045
0.00130662
0.0012673
0.00114722
0.00110554
0.00112646
0.001135
0.0010759
0.00117469
0.00127351
0.00125137
0.00133312
0.00125307
0.00057695
0.000677422
0.0111469
0.0163133
0.0143332
0.00101515
0.00119759
0.00136847
0.00136574
0.00130217
0.00118566
0.00115837
0.00112191
0.00113862
0.00124301
0.00121938
0.00121548
0.00129291
0.00138876
0.00139448
0.000809801
0.000316704
0.0102432
0.0165043
0.0170375
0.00103711
0.00117263
0.00133828
0.00134903
0.00132191
0.00119304
0.00115756
0.00119344
0.00119395
0.00114447
0.00124636
0.00133073
0.00130916
0.00138206
0.00141866
0.00110946
0.00033325
0.00855284
0.0165245
0.018842
0.00103059
0.00117959
0.00135975
0.0013451
0.00132097
0.00123074
0.00119542
0.00115993
0.00119116
0.00128975
0.00127142
0.00128872
0.0013704
0.00143321
0.0015382
0.00129183
0.000745514
0.00655946
0.0163949
0.0207165
0.00103654
0.00114054
0.00136947
0.00138112
0.00134556
0.00122062
0.00119625
0.00123874
0.00124224
0.00121401
0.00130182
0.00136834
0.00135392
0.00142973
0.00150012
0.00136413
0.000629273
0.00505788
0.0162062
0.0211518
0.00103797
0.00114233
0.00134404
0.00131217
0.00130814
0.00124548
0.00121234
0.00118641
0.00122525
0.00130901
0.00131369
0.00135216
0.00142476
0.00149877
0.00159689
0.00151546
0.0006565
0.00360489
0.0160865
0.0221158
0.00104689
0.00114414
0.00141331
0.00139839
0.00134649
0.0012322
0.00121812
0.00126161
0.00127932
0.00127896
0.00134125
0.00138803
0.0013945
0.00148824
0.00154513
0.00152427
0.000561279
0.00285513
0.0156267
0.0225796
0.00105125
0.00112055
0.00134089
0.0012884
0.00128327
0.00124031
0.00121508
0.00120509
0.00124635
0.00130732
0.00133985
0.00139681
0.0014565
0.00154165
0.00161538
0.00162837
0.000890814
0.00190542
0.0155345
0.0235178
0.00107413
0.0011557
0.00144759
0.00139996
0.00132468
0.00122906
0.00122567
0.00126692
0.00130328
0.00133226
0.00137063
0.00139905
0.00143138
0.00153601
0.00156625
0.00160463
0.000938364
0.00160588
0.0149604
0.0238095
0.00106153
0.00110361
0.00135926
0.00127989
0.00125737
0.00122948
0.00121575
0.00122561
0.00126686
0.00129987
0.0013518
0.00142358
0.00147797
0.0015694
0.00161609
0.00169475
0.00123164
0.00116685
0.0148037
0.0245094
0.00109703
0.00114821
0.0014483
0.00137172
0.00128128
0.00121707
0.00122807
0.00126467
0.00131585
0.00137109
0.00139753
0.00141278
0.0014671
0.00156657
0.00157762
0.00167771
0.00118352
0.00206176
0.0142453
0.0245978
0.00107621
0.0010894
0.00138457