/*--------------------------------*- C++ -*----------------------------------*\
  =========                 |
  \\      /  F ield         | OpenFOAM: The Open Source CFD Toolbox
   \\    /   O peration     | Website:  https://openfoam.org
    \\  /    A nd           | Version:  9
     \\/     M anipulation  |
\*---------------------------------------------------------------------------*/
FoamFile
{
    format      ascii;
    class       volScalarField;
    location    "9.9";
    object      p;
}
// * * * * * * * * * * * * * * * * * * * * * * * * * * * * * * * * * * * * * //

dimensions      [0 2 -2 0 0 0 0];

internalField   nonuniform List<scalar> 
46400
(
205.756
211.183
219.858
227.109
233.392
239.184
244.205
248.758
252.761
256.376
259.604
262.522
265.158
267.562
269.801
271.918
273.887
276.082
278.543
278.829
226.739
231.675
239.071
245.771
251.372
256.597
261.121
265.21
268.806
272.016
274.869
277.398
279.651
281.642
283.414
284.972
286.339
287.593
288.759
288.329
247.9
251.816
258.333
264.323
269.292
273.799
277.648
281.052
283.993
286.58
288.838
290.821
292.548
294.054
295.379
296.541
297.505
298.421
299.294
298.524
267.605
270.819
277.063
282.494
286.922
290.907
294.25
297.17
299.649
301.761
303.564
305.068
306.323
307.325
308.151
308.78
309.224
309.59
310.037
308.915
286.523
289.936
295.657
300.413
304.158
307.409
310.056
312.261
314.081
315.565
316.79
317.778
318.575
319.171
319.616
319.913
320.045
320.148
320.287
319.05
305.532
309.881
314.502
318.496
321.492
324.067
326.095
327.71
328.961
329.881
330.543
330.956
331.189
331.224
331.136
330.871
330.471
330.032
329.647
328.002
324.651
329.129
332.285
335.23
337.394
339.122
340.467
341.415
342.102
342.483
342.676
342.657
342.503
342.21
341.808
341.311
340.711
340.079
339.534
337.786
343.732
347.31
349.789
351.743
353.227
354.228
354.916
355.246
355.329
355.143
354.753
354.147
353.392
352.489
351.506
350.453
349.309
348.196
347.098
345.216
360.055
362.566
364.349
365.549
366.402
366.818
366.986
366.834
366.496
365.923
365.21
364.335
363.355
362.226
360.991
359.651
358.221
356.77
355.329
353.066
375.523
377.476
378.659
379.275
379.544
379.389
378.981
378.281
377.412
376.311
375.075
373.686
372.21
370.616
368.971
367.233
365.439
363.638
361.868
359.433
387.21
388.59
389.417
389.573
389.529
389.022
388.327
387.301
386.128
384.764
383.313
381.744
380.084
378.336
376.531
374.652
372.696
370.752
368.883
366.252
399.477
400.305
400.624
400.24
399.668
398.67
397.485
395.988
394.322
392.471
390.548
388.513
386.437
384.309
382.162
379.981
377.791
375.614
373.539
370.98
408.008
408.048
408.043
407.36
406.524
405.336
403.979
402.419
400.698
398.822
396.797
394.642
392.38
390.041
387.646
385.204
382.725
380.249
377.828
374.98
415.899
415.786
415.312
414.309
413.081
411.448
409.658
407.638
405.527
403.278
400.96
398.537
396.084
393.557
391.017
388.447
385.854
383.281
380.81
377.925
419.107
419.201
418.896
417.999
416.847
415.333
413.573
411.541
409.358
406.986
404.541
401.966
399.356
396.67
393.971
391.233
388.484
385.749
383.154
380.1
424.234
423.745
422.589
421.407
419.773
417.884
415.808
413.502
411.091
408.531
405.902
403.192
400.438
397.646
394.842
392.026
389.193
386.396
383.729
380.689
424.842
424.222
423.578
422.121
420.541
418.483
416.388
413.991
411.549
408.92
406.25
403.468
400.661
397.799
394.927
392.046
389.148
386.287
383.568
380.478
423.988
423.117
422.202
420.73
419.07
417
414.86
412.421
409.949
407.276
404.592
401.778
398.962
396.069
393.191
390.274
387.368
384.473
381.733
378.618
420.304
419.698
418.58
417.289
415.631
413.735
411.626
409.296
406.844
404.237
401.55
398.779
395.956
393.091
390.204
387.311
384.396
381.518
378.757
375.703
413.335
413.43
412.692
411.658
410.226
408.489
406.496
404.298
401.902
399.393
396.753
394.059
391.288
388.493
385.663
382.832
379.975
377.156
374.455
371.395
94.332
94.3175
94.6816
94.1632
94.0208
95.1754
96.4853
98.5015
100.258
101.555
103.098
104.932
106.278
107.749
109.21
110.612
112.043
113.483
114.929
116.332
96.6508
97.0359
96.7014
97.8963
97.382
98.4715
100.116
101.902
103.341
105.125
107.002
108.657
110.335
112.009
113.59
115.223
116.832
118.425
119.976
121.53
98.3288
98.6608
98.2586
98.6697
100.033
101.195
103.062
104.644
106.621
108.64
110.487
112.456
114.229
116.101
117.848
119.639
121.369
123.02
124.639
126.308
100.379
100.212
101.174
100.163
101.665
103.665
105.493
107.48
109.665
111.801
113.926
115.969
118.009
120.049
121.966
123.953
125.797
127.651
129.398
131.219
99.9832
99.8415
101.039
101.614
103.1
105.143
107.275
109.747
112.248
114.686
117.023
119.404
121.639
123.911
126.023
128.182
130.183
132.157
133.987
135.923
98.2291
98.8195
98.7369
101.003
103.344
105.884
108.815
111.702
114.581
117.333
120.078
122.691
125.254
127.745
130.09
132.479
134.615
136.807
138.769
140.833
93.9125
94.9575
95.4694
98.741
102.406
105.95
109.587
113.153
116.552
119.863
123.002
126.052
128.923
131.717
134.318
136.901
139.219
141.596
143.651
145.86
86.5176
87.4925
90.7134
95.4808
100.703
105.663
110.259
114.664
118.795
122.627
126.287
129.698
132.942
135.99
138.861
141.658
144.139
146.713
148.874
151.189
81.3718
81.9247
87.5743
94.016
100.49
106.394
111.936
116.95
121.673
126.049
130.109
133.923
137.468
140.808
143.911
146.882
149.541
152.285
154.516
156.995
76.6447
78.6073
86.032
93.8095
101.36
108.219
114.506
120.224
125.495
130.332
134.811
138.944
142.78
146.321
149.64
152.74
155.539
158.391
160.624
163.254
76.7668
79.1605
87.3657
96.3708
104.609
112.077
118.892
125.024
130.697
135.863
140.607
144.98
149.003
152.722
156.161
159.353
162.265
165.151
167.413
170.165
80.5788
82.2779
91.4763
101.048
109.76
117.604
124.814
131.279
137.216
142.64
147.586
152.141
156.301
160.118
163.658
166.882
169.859
172.739
175.016
177.841
84.9843
87.9471
97.7031
107.76
116.95
125.016
132.493
139.147
145.256
150.804
155.852
160.466
164.679
168.53
172.069
175.288
178.286
181.117
183.368
186.297
93.3161
96.9084
107.015
116.717
126.266
134.385
141.942
148.681
154.793
160.371
165.405
170.018
174.184
177.991
181.472
184.591
187.541
190.202
192.336
195.357
103.67
107.658
118.053
128.001
137.333
145.491
152.951
159.645
165.707
171.212
176.181
180.694
184.781
188.483
191.849
194.854
197.702
200.192
202.216
205.226
116.428
120.794
131.573
141.283
150.541
158.459
165.748
172.256
178.097
183.416
188.175
192.5
196.373
199.886
203.033
205.822
208.491
210.61
212.341
215.419
131.343
136.03
147.171
156.21
165.043
172.698
179.613
185.884
191.487
196.587
201.153
205.272
208.961
212.261
215.184
217.751
220.149
221.828
223.215
226.003
147.611
152.494
163.834
172.536
180.927
188.285
194.856
200.785
206.044
210.814
215.058
218.873
222.264
225.287
227.927
230.238
232.292
233.592
234.571
236.994
165.982
171.193
181.997
190.174
197.85
204.755
210.842
216.4
221.327
225.809
229.811
233.406
236.608
239.445
241.922
244.106
245.957
247.216
248.324
250.669
185.276
190.416
200.29
208.22
215.293
221.766
227.432
232.588
237.169
241.344
245.12
248.569
251.731
254.658
257.384
259.986
262.402
264.549
267.736
270.207
123.493
131.785
143.337
148.319
155.886
158.791
163.433
165.571
168.384
169.982
171.452
172.836
173.421
174.846
174.773
176.347
176.233
176.896
176.748
176.693
128.854
135.894
147.339
151.345
158.552
161.154
165.548
167.369
169.962
171.386
172.718
173.972
174.439
175.757
175.527
177.058
176.769
177.409
177.11
177.069
134.25
139.763
150.925
154.372
161.164
163.34
167.478
169.105
171.574
172.834
174.032
175.148
175.494
176.693
176.296
177.79
177.278
177.989
177.529
177.471
139.425
143.808
154.874
157.339
163.803
165.683
169.55
170.897
173.157
174.239
175.303
176.281
176.501
177.623
176.995
178.542
177.718
178.543
177.857
177.82
144.634
147.686
158.509
160.374
166.389
167.91
171.516
172.646
174.769
175.679
176.608
177.442
177.549
178.557
177.74
179.295
178.158
179.135
178.259
178.196
149.838
151.854
162.284
163.337
169.024
170.197
173.555
174.406
176.346
177.078
177.885
178.573
178.575
179.459
178.475
180.013
178.595
179.68
178.541
178.522
155.12
155.878
165.919
166.359
171.576
172.46
175.543
176.164
177.952
178.511
179.184
179.721
179.632
180.383
179.238
180.751
179.042
180.291
178.92
178.873
160.604
160.097
169.698
169.387
174.183
174.747
177.524
177.892
179.527
179.903
180.469
180.85
180.67
181.285
179.99
181.465
179.471
180.866
179.233
179.183
166.287
164.248
173.333
172.449
176.678
177.014
179.517
179.636
181.128
181.325
181.766
182.008
181.735
182.208
180.769
182.196
179.868
181.477
179.54
179.517
172.293
168.746
176.961
175.617
179.241
179.269
181.49
181.33
182.698
182.713
183.06
183.135
182.787
183.117
181.546
182.902
180.243
182.014
179.893
179.813
178.492
173.275
180.639
178.643
181.774
181.504
183.475
183.042
184.288
184.125
184.349
184.292
183.862
184.046
182.351
183.622
180.613
182.552
180.234
180.131
185.134
178.051
184.292
181.912
184.329
183.709
185.44
184.698
185.844
185.508
185.655
185.422
184.93
184.968
183.166
184.325
180.96
183.091
180.559
180.433
192.186
183.012
187.995
184.881
186.983
185.902
187.416
186.371
187.413
186.912
186.955
186.577
186.016
185.91
184.01
185.01
181.302
183.637
180.872
180.727
199.828
188.038
191.748
188.158
189.656
188.046
189.364
187.991
188.95
188.292
188.267
187.713
187.1
186.854
184.882
185.717
181.648
184.175
181.161
181.01
207.891
193.528
195.436
190.95
192.498
190.179
191.298
189.6
190.468
189.661
189.569
188.858
188.189
187.809
185.776
186.598
181.999
184.689
181.423
181.307
216.926
198.982
199.415
194.123
195.329
192.243
193.2
191.163
191.955
191.022
190.875
189.991
189.279
188.76
186.677
187.335
182.353
185.122
181.597
181.55
225.88
204.784
203.622
197.129
198.477
194.584
195.214
192.857
193.572
192.613
192.255
191.191
190.417
189.788
187.667
188.283
182.704
185.592
181.69
181.816
234.062
210.207
208.123
199.23
201.644
196.474
196.976
194.248
194.96
193.867
193.578
192.28
191.5
190.77
188.605
189.472
183.076
186.363
181.781
182.394
245.386
216.912
214.752
201.551
204.898
197.9
198.433
195.143
195.841
194.604
194.697
193.058
192.336
191.435
189.252
189.998
183.38
186.486
181.507
182.171
260.041
229.266
222.849
208.61
209.045
202.102
201.544
198.204
197.982
196.897
196.433
194.916
193.818
192.968
190.698
191.154
184.627
186.645
180.525
183.054
272.72
274.54
250.382
252.477
235.768
237.899
228.058
226.914
218.629
217.235
211.021
211.298
206.671
206.63
203.046
203.383
198.892
200.653
185.236
205.626
287.971
282.411
265.411
260.091
248.328
244.418
235.357
231.756
224.969
222.043
217.479
215.213
211.817
210.15
207.384
206.408
203.74
203.675
201.017
203.205
278.535
269.557
262.13
255.625
249.612
244.844
239.917
236.015
231.919
228.472
225.083
222.49
219.814
217.641
215.249
213.662
211.607
210.787
209.813
210.201
268.712
263.958
260.351
255.344
250.55
245.915
241.571
237.518
233.709
230.509
227.244
224.478
221.795
219.649
217.466
215.823
214.024
212.986
212.002
211.843
255.367
251.238
249.536
245.845
243.335
240.284
237.87
235.179
232.744
230.313
228.049
225.863
223.769
221.744
219.943
217.929
216.589
214.45
213.851
213.654
246.9
245.362
245.376
243.343
241.789
239.174
237.411
234.952
232.908
230.689
228.568
226.54
224.518
222.591
220.744
218.864
217.284
215.578
214.516
214.161
238.744
237.674
237.451
236.238
235.173
233.998
232.696
231.503
230.131
228.831
227.28
225.898
224.231
222.738
221.035
219.279
217.724
215.493
214.818
213.302
234.002
233.803
234.554
234.152
233.695
232.961
232.24
231.124
230.111
228.95
227.624
226.388
224.813
223.47
221.652
220.125
217.97
216.191
214.277
213.526
229.716
230.003
230.273
230.294
230.207
230.142
229.5
229.042
228.45
227.858
226.943
226.189
224.948
223.972
222.331
221.058
218.799
217.2
214.725
213.927
227.71
228.326
228.968
229.23
229.284
229.311
229.108
229.002
228.607
228.368
227.719
227.259
226.348
225.719
224.419
223.523
221.457
220.464
217.725
217.652
225.75
226.444
226.939
227.675
228.196
228.589
228.766
228.999
228.905
228.959
228.729
228.667
228.174
227.995
227.229
226.823
225.467
225.12
221.785
222.846
225.184
226.086
226.876
227.565
227.957
228.376
228.713
229.131
229.331
229.753
229.858
230.288
230.291
230.697
230.628
231.173
230.936
231.575
232.094
233.815
224.891
225.748
226.666
227.417
228.156
229.036
229.541
230.271
230.786
231.462
231.899
232.61
233.185
234.019
234.881
235.701
236.982
237.825
240.329
241.706
224.794
225.763
226.479
227.398
228.008
228.948
229.595
230.519
231.147
232.139
232.769
233.905
234.597
236.001
236.62
238.615
240.32
242.554
245.322
246.408
225.007
225.965
226.724
227.708
228.533
229.451
230.189
231.194
231.874
233.03
233.694
235.139
235.832
237.709
238.385
241.608
242.256
247.307
249.249
252.249
225.185
226.092
226.945
227.847
228.653
229.578
230.395
231.378
232.202
233.322
234.152
235.447
236.186
237.817
238.4
240.104
240.591
249.31
248.365
254.588
225.476
226.358
227.179
228.1
228.92
229.899
230.717
231.771
232.594
233.763
234.586
235.945
236.773
238.518
239.133
241.627
242.387
244.979
245.77
248.716
225.637
226.488
227.331
228.207
229.055
229.962
230.813
231.764
232.602
233.62
234.405
235.517
236.17
237.394
237.81
239.247
239.629
245.95
245.903
249.652
225.813
226.647
227.474
228.349
229.184
230.098
230.94
231.893
232.734
233.735
234.554
235.623
236.381
237.554
238.139
239.601
239.898
241.709
242.013
242.8
225.871
226.69
227.527
228.375
229.23
230.103
230.97
231.867
232.735
233.655
234.506
235.453
236.25
237.23
237.914
238.952
239.351
245.524
243.652
247.634
334.697
338.077
340.797
342.985
344.376
345.437
345.481
345.373
344.184
342.678
340.649
337.718
334.567
330.818
325.901
321.546
316.046
310.581
304.168
297.466
305.397
307.697
309.688
311.411
312.817
313.958
314.819
315.421
315.736
315.919
315.717
315.473
314.813
314.157
313.001
312.188
310.704
307.279
303.537
301.387
268.205
269.99
271.67
273.255
274.672
276.057
277.211
278.389
279.292
280.253
280.898
281.646
282.018
282.59
282.747
283.119
282.929
283.068
282.52
282.769
255.29
256.665
257.98
259.226
260.411
261.526
262.569
263.545
264.416
265.252
265.944
266.664
267.187
267.801
268.143
268.649
268.886
269.472
269.539
270.132
239.399
240.489
241.544
242.572
243.547
244.516
245.419
246.337
247.176
248.054
248.842
249.671
250.384
251.176
251.795
252.557
253.049
253.789
254.171
254.966
233.342
234.218
235.071
235.901
236.711
237.498
238.265
239.012
239.733
240.447
241.095
241.758
242.34
242.975
243.509
244.12
244.597
245.222
245.576
246.224
226.422
227.152
227.875
228.572
229.256
229.92
230.566
231.197
231.807
232.404
232.98
233.564
234.104
234.676
235.172
235.729
236.192
236.796
237.198
237.778
223.639
224.252
224.839
225.425
225.991
226.553
227.094
227.631
228.145
228.66
229.144
229.634
230.09
230.562
230.988
231.455
231.837
232.275
232.611
233.056
220.806
221.338
221.864
222.373
222.873
223.357
223.83
224.291
224.737
225.175
225.595
226.013
226.409
226.812
227.184
227.573
227.916
228.305
228.619
228.992
219.746
220.189
220.621
221.046
221.461
221.869
222.268
222.66
223.042
223.419
223.79
224.162
224.525
224.893
225.245
225.603
225.934
226.276
226.574
226.93
219.135
219.514
219.884
220.25
220.612
220.975
221.333
221.691
222.042
222.391
222.728
223.054
223.36
223.657
223.935
224.215
224.473
224.741
224.977
225.226
219.188
219.528
219.867
220.202
220.528
220.845
221.149
221.441
221.725
222.003
222.272
222.539
222.798
223.06
223.316
223.578
223.824
224.08
224.314
224.569
219.362
219.653
219.943
220.227
220.508
220.786
221.068
221.353
221.632
221.91
222.184
222.455
222.723
222.982
223.226
223.463
223.688
223.912
224.122
224.342
219.707
219.968
220.226
220.482
220.735
220.985
221.233
221.477
221.719
221.958
222.193
222.429
222.659
222.892
223.12
223.349
223.572
223.798
224.017
224.241
220.251
220.487
220.722
220.956
221.19
221.422
221.654
221.884
222.112
222.34
222.565
222.789
223.01
223.23
223.446
223.663
223.873
224.085
224.289
224.498
220.633
220.849
221.066
221.282
221.499
221.715
221.93
222.145
222.359
222.574
222.786
222.999
223.21
223.422
223.631
223.841
224.047
224.254
224.459
224.663
221.13
221.33
221.53
221.731
221.933
222.135
222.337
222.54
222.743
222.945
223.148
223.351
223.553
223.755
223.957
224.158
224.359
224.559
224.759
224.958
221.402
221.592
221.783
221.975
222.168
222.362
222.556
222.751
222.947
223.143
223.34
223.538
223.735
223.934
224.131
224.33
224.528
224.727
224.926
225.124
221.683
221.865
222.048
222.232
222.418
222.604
222.792
222.98
223.17
223.361
223.552
223.744
223.938
224.131
224.326
224.52
224.716
224.911
225.108
225.304
221.777
221.955
222.134
222.314
222.496
222.679
222.864
223.05
223.237
223.425
223.614
223.805
223.996
224.189
224.383
224.577
224.773
224.969
225.166
225.363
49.7105
46.4866
39.2016
31.7311
24.7369
17.3547
9.59295
1.45213
-7.16731
-16.3688
-26.1577
-36.7294
-48.053
-60.4025
-73.6245
-88.152
-103.868
-120.841
-140.853
-151.955
68.5854
66.5502
61.3863
55.6205
49.8741
43.6915
37.0592
29.9678
22.3476
14.1784
5.36051
-4.17762
-14.4666
-25.7032
-37.8119
-51.2626
-65.7435
-81.6531
-100.157
-110.985
89.3273
88.5559
84.7088
79.7733
74.893
69.5594
63.7524
57.5316
50.8053
43.5179
35.6695
27.1201
17.9013
7.76595
-3.13125
-15.2295
-28.1578
-42.5471
-59.2147
-69.8397
111.327
111
107.734
103.709
99.6747
95.2246
90.3731
85.0849
79.3129
73.0524
66.212
58.7351
50.5748
41.5794
31.8257
20.87
9.17276
-4.06779
-18.9284
-28.0842
134.116
134.247
131.577
128.202
124.835
121.084
116.904
112.364
107.366
101.875
95.8434
89.1947
81.9224
73.8364
65.0474
55.171
44.6622
32.592
19.1765
11.8148
155.897
156.264
154.182
151.431
148.721
145.672
142.317
138.588
134.456
129.892
124.831
119.228
112.992
106.024
98.3362
89.534
80.0012
68.7539
56.265
49.6491
178.147
178.959
177.39
175.32
173.246
170.894
168.168
165.131
161.691
157.858
153.531
148.688
143.267
137.161
130.371
122.581
114.171
104.038
92.5886
85.7318
199.422
200.305
199.102
197.472
195.883
194.011
191.921
189.547
186.877
183.865
180.457
176.643
172.288
167.374
161.772
155.302
148.132
139.28
129.637
121.983
219.607
220.858
220.246
219.298
218.36
217.241
215.85
214.229
212.292
210.055
207.435
204.403
200.885
196.825
192.173
186.788
180.805
173.44
165.597
157.681
239.44
240.823
240.427
239.88
239.363
238.648
237.74
236.649
235.334
233.786
231.909
229.744
227.134
224.152
220.582
216.477
211.684
205.893
199.98
191.937
257.41
258.945
259.132
259.16
259.238
259.182
258.961
258.593
258.004
257.189
256.068
254.648
252.847
250.664
248.016
244.928
241.26
236.967
232.094
225.4
274.537
276.405
277.029
277.498
277.988
278.338
278.531
278.566
278.405
278.063
277.47
276.683
275.549
274.174
272.363
270.199
267.454
264.267
260.41
255.389
289.882
291.839
292.854
293.771
294.73
295.583
296.319
296.942
297.422
297.758
297.901
297.834
297.476
296.871
295.853
294.534
292.645
290.318
287.184
283.146
304.812
307.036
308.423
309.716
311.039
312.238
313.353
314.36
315.263
316.01
316.584
316.978
317.141
317.064
316.616
315.86
314.517
312.918
310.495
307.258
317.409
319.791
321.563
323.271
324.992
326.654
328.239
329.756
331.159
332.447
333.578
334.548
335.281
335.769
335.888
335.711
335.059
334.046
332.279
329.756
330.11
332.776
334.771
336.745
338.754
340.692
342.567
344.364
346.068
347.665
349.111
350.389
351.432
352.277
352.783
353.101
352.883
352.557
351.271
349.43
340.801
343.518
345.687
347.889
350.132
352.322
354.473
356.564
358.58
360.5
362.294
363.95
365.417
366.733
367.758
368.611
368.987
369.148
368.446
367.275
350.55
353.43
355.798
358.223
360.696
363.117
365.521
367.859
370.163
372.356
374.493
376.464
378.345
379.989
381.44
382.594
383.327
383.834
383.567
382.92
358.894
361.811
364.309
366.882
369.511
372.087
374.66
377.175
379.658
382.05
384.372
386.564
388.616
390.498
392.134
393.581
394.579
395.41
395.571
395.532
365.771
368.785
371.392
374.11
376.859
379.587
382.293
384.981
387.62
390.211
392.723
395.139
397.426
399.56
401.5
403.191
404.59
405.601
406.111
406.041
-309.091
-320.334
-332.088
-344.753
-357.946
-372.046
-386.719
-402.193
-418.385
-435.386
-453.289
-472.159
-492.033
-512.991
-535.263
-559.027
-583.499
-605.603
-624.982
-627.689
-301.825
-313.196
-324.956
-337.758
-351.049
-365.299
-380.189
-395.858
-412.344
-429.707
-447.959
-467.216
-487.664
-509.295
-532.41
-557.108
-582.934
-608.632
-627.916
-631.356
-293.417
-304.825
-316.566
-329.391
-342.729
-357.027
-372.012
-387.836
-404.484
-422.018
-440.582
-460.205
-480.979
-503.046
-526.567
-551.695
-578.398
-605.315
-626.591
-632.063
-284.221
-295.828
-307.394
-320.262
-333.591
-347.919
-362.97
-378.855
-395.628
-413.375
-432.088
-451.909
-473.019
-495.405
-519.218
-544.751
-571.441
-599.51
-621.821
-625.849
-273.669
-285.175
-296.671
-309.433
-322.736
-336.978
-352.011
-367.902
-384.691
-402.426
-421.273
-441.259
-462.532
-485.165
-509.376
-535.425
-563.144
-592.81
-615.56
-620.286
-262.402
-273.865
-285.164
-297.8
-310.975
-325.123
-340.046
-355.846
-372.565
-390.326
-409.115
-429.094
-450.415
-473.078
-497.341
-523.501
-551.234
-581.327
-605.107
-610.241
-249.136
-260.539
-271.678
-284.135
-297.187
-311.121
-325.906
-341.551
-358.129
-375.692
-394.391
-414.273
-435.519
-458.152
-482.52
-508.711
-536.789
-567.169
-592.129
-598.383
-235.384
-246.665
-257.519
-269.733
-282.549
-296.27
-310.785
-326.185
-342.501
-359.876
-378.311
-397.967
-418.952
-441.301
-465.326
-491.164
-518.657
-548.746
-574.304
-581.202
-219.49
-230.636
-241.25
-253.165
-265.732
-279.106
-293.339
-308.422
-324.433
-341.447
-359.567
-378.879
-399.556
-421.609
-445.464
-470.972
-498.53
-528.618
-554.748
-562.699
-203.092
-214.029
-224.311
-235.884
-248.125
-261.175
-275.013
-289.714
-305.308
-321.935
-339.626
-358.527
-378.687
-400.21
-423.377
-448.134
-474.713
-503.922
-530.45
-538.921
-184.915
-195.597
-205.501
-216.629
-228.465
-241.026
-254.423
-268.652
-283.779
-299.918
-317.107
-335.471
-355.169
-376.238
-399.097
-423.49
-450.17
-478.699
-504.564
-514.16
-165.741
-176.162
-185.728
-196.434
-207.88
-220.027
-232.941
-246.677
-261.277
-276.854
-293.476
-311.276
-330.256
-350.61
-372.537
-395.99
-421.404
-449.365
-475.648
-485.141
-145.492
-155.561
-164.653
-174.8
-185.689
-197.234
-209.556
-222.689
-236.672
-251.657
-267.621
-284.706
-303.051
-322.734
-344.067
-366.798
-391.92
-418.647
-444.785
-454.843
-123.811
-133.545
-142.258
-151.9
-162.331
-173.38
-185.162
-197.721
-211.12
-225.421
-240.718
-257.144
-274.676
-293.55
-313.859
-335.691
-359.547
-384.868
-411.094
-421.147
-101.382
-110.767
-119.024
-128.071
-137.877
-148.288
-159.395
-171.282
-183.954
-197.592
-212.132
-227.729
-244.479
-262.511
-282.024
-302.946
-325.922
-350.267
-376.201
-386.456
-77.5872
-86.5846
-94.4201
-102.895
-112.176
-122.021
-132.554
-143.823
-155.901
-168.802
-182.616
-197.488
-213.385
-230.553
-249.033
-268.936
-290.657
-313.79
-338.993
-349.375
-53.4447
-62.0175
-69.3799
-77.2481
-85.8935
-95.1361
-104.997
-115.592
-126.901
-139.092
-152.114
-166.128
-181.168
-197.436
-214.982
-233.883
-254.598
-276.768
-301.069
-311.517
-28.3573
-36.5294
-43.3373
-50.5383
-58.6008
-67.2333
-76.4792
-86.4084
-97.1015
-108.544
-120.807
-134.026
-148.188
-163.538
-180.055
-197.954
-217.572
-238.469
-261.795
-272.366
-0.784012
-9.33076
-16.1162
-22.904
-30.4944
-38.7449
-47.5131
-56.9058
-66.9325
-77.7071
-89.206
-101.608
-114.894
-129.314
-144.79
-161.598
-179.947
-199.563
-221.974
-232.774
30.2389
21.8475
13.7014
6.39222
-1.18367
-9.30792
-17.8152
-26.7596
-36.2726
-46.377
-57.1556
-68.7225
-81.1028
-94.5355
-108.967
-124.765
-141.994
-160.469
-181.799
-192.598
54.1895
53.805
52.3581
50.203
47.4733
43.0256
39.3514
33.1892
27.6002
19.3493
10.8321
-0.43371
-13.4295
-29.0497
-49.3463
-71.936
-104.525
-139.809
-194.125
-254.602
54.4861
54.0378
52.7696
50.4752
48.021
43.5849
40.0759
34.0022
28.5574
20.4298
12.0968
1.00251
-11.7127
-27.0344
-46.9291
-68.8899
-101.008
-134.986
-188.928
-247.727
54.83
54.3569
53.2259
50.8074
48.5918
44.1626
40.8188
34.8317
29.5323
21.536
13.3963
2.47804
-9.95547
-24.9933
-44.4904
-65.8965
-97.4898
-130.149
-183.212
-239.575
55.1807
54.5799
53.7236
51.2381
49.2118
44.8122
41.6271
35.7544
30.6029
22.7428
14.8048
4.06479
-8.04799
-22.7915
-41.7993
-62.5878
-93.5219
-124.938
-177.174
-231.308
55.5883
54.8744
54.3609
51.7194
49.8615
45.4752
42.4602
36.7001
31.6921
23.9772
16.2461
5.69017
-6.10001
-20.5622
-39.0823
-59.3084
-89.5191
-119.534
-170.273
-221.636
56.0149
55.2365
55.0189
52.2091
50.5324
46.2001
43.3722
37.7331
32.8753
25.3093
17.7929
7.42659
-4.0099
-18.1758
-36.1275
-55.7373
-85.1174
-113.84
-163.266
-211.937
56.4749
55.6102
55.6515
52.7317
51.1938
46.9465
44.3096
38.7872
34.0772
26.6713
19.3711
9.2015
-1.87985
-15.7606
-33.1403
-52.1748
-80.637
-107.87
-155.275
-200.817
56.9321
56.0143
56.305
53.3226
51.9598
47.7531
45.3048
39.9373
35.3696
28.1272
21.0489
11.0854
0.382148
-13.1938
-29.931
-48.3494
-75.7939
-101.64
-147.252
-189.593
57.4344
56.4507
56.9315
53.966
52.9174
48.6088
46.3138
41.1348
36.6822
29.6147
22.7569
13.0078
2.68236
-10.5973
-26.6854
-44.5181
-70.8456
-95.1255
-138.301
-177.087
57.9421
56.8875
57.5741
54.7202
53.9735
49.545
47.3909
42.4319
38.0798
31.1898
24.5575
15.0352
5.10304
-7.85598
-23.2356
-40.4481
-65.5624
-88.3436
-129.27
-164.211
58.4627
57.3316
58.2247
55.4797
54.9737
50.5335
48.4571
43.7517
39.4976
32.7957
26.3868
17.101
7.55844
-5.08488
-19.7505
-36.3656
-60.1628
-81.3106
-119.494
-150.269
59.0032
57.7787
58.8947
56.1406
56.0077
51.7038
49.6152
45.1557
40.9942
34.4811
28.3002
19.265
10.1206
-2.17845
-16.0835
-32.0665
-54.4527
-74.0157
-109.514
-135.699
59.5976
58.2563
59.5761
56.82
57.0002
52.7897
50.8112
46.586
42.5112
36.1963
30.242
21.4681
12.7156
0.761711
-12.3803
-27.7412
-48.6107
-66.4999
-98.9788
-120.215
60.2599
58.7653
60.2809
57.626
58.0606
54.0144
52.089
48.0643
44.1002
37.9831
32.2622
23.7645
15.4066
3.82895
-8.51889
-23.221
-42.4958
-58.7949
-88.1833
-103.954
60.9794
59.3494
61.0307
58.4889
59.1048
55.258
53.4259
49.5562
45.7027
39.7915
34.3002
26.0847
18.1056
6.90272
-4.66393
-18.712
-36.3154
-50.9722
-76.9075
-86.7211
61.7582
59.9716
61.7711
59.4207
60.1534
56.4064
54.8107
51.0809
47.3658
41.6584
36.4039
28.4871
20.8882
10.1019
-0.65142
-13.975
-29.8174
-42.8692
-65.0332
-68.417
62.5447
60.6154
62.539
60.4209
61.2594
57.6564
56.2486
52.6447
49.0825
43.598
38.5927
31.0013
23.798
13.4645
3.54248
-9.0083
-23.0114
-34.5011
-52.8435
-49.9872
63.4957
61.3582
63.5041
61.4426
62.4353
58.9976
57.7252
54.2482
50.8408
45.5686
40.8106
33.5189
26.6614
16.7432
7.56872
-4.26795
-16.6414
-26.869
-41.3423
-30.8345
64.2581
61.8308
64.1129
62.4201
63.5093
60.2539
59.0624
55.6911
52.3781
47.2761
42.6989
35.6235
28.954
19.3332
10.7762
-0.359912
-11.1762
-19.7319
-27.9483
-6.13457
65.1232
61.8924
64.196
63.7206
64.7657
61.7744
60.6792
57.4638
54.3119
49.4542
45.1518
38.574
32.4141
23.582
16.2087
6.45276
-1.73903
-7.99449
-8.1954
19.8083
79.1664
74.1356
76.1336
74.7422
75.4388
73.5919
73.321
71.2711
70.553
68.5256
67.5321
65.5548
65.6544
64.407
66.7542
65.6087
73.0362
74.3226
88.5583
74.5842
84.8057
83.7637
84.7409
84.3356
85.0647
84.7352
84.9506
84.8961
85.0431
85.353
86.4016
87.8681
90.4962
93.3148
98.7558
103.906
115.098
122.68
147.513
157.197
104.198
104.178
103.875
104.592
104.932
105.703
106.699
107.615
109.4
111.037
113.714
116.179
120.031
124.133
130.36
137.116
147.062
157.668
172.499
185.951
112.234
112.518
112.964
113.83
115.045
116.452
118.25
120.45
123.007
125.847
129.333
133.233
138.206
143.511
150.404
157.357
167.094
175.705
189.735
200.405
125.013
125.297
126.145
127.955
129.368
131.32
133.287
135.515
138.082
140.933
144.32
148.029
152.366
157.236
162.796
169.092
176.047
183.75
192.17
200.854
133.241
133.777
134.762
136.439
138.338
140.496
142.924
145.541
148.548
151.655
155.304
159.075
163.577
168.094
173.51
178.805
185.179
191.132
198.802
205.372
142.465
143.219
144.662
146.774
149.078
151.239
153.815
156.197
159.055
161.825
165.069
168.35
172.037
175.883
180.074
184.483
189.163
194.011
198.683
203.295
149.047
149.764
151.921
154.045
156.689
158.939
161.598
164.015
166.834
169.517
172.609
175.596
179.047
182.338
186.15
189.715
193.798
197.835
202.435
206.254
157.836
158.549
161.312
163.194
166.089
168.01
170.612
172.618
175.178
177.374
180.004
182.492
185.264
188.013
191.003
193.969
197.204
200.008
202.936
205.712
165.625
165.966
169.523
170.963
173.829
175.477
177.779
179.54
181.711
183.618
185.856
187.932
190.327
192.55
195.108
197.439
200.129
202.653
205.612
207.889
178.247
176.824
181.051
181.349
183.6
184.594
186.283
187.473
189.108
190.484
192.193
193.761
195.6
197.355
199.343
201.24
203.382
205.193
207.215
208.994
193.602
191.995
191.512
191.671
192.234
192.659
193.374
194.047
195.024
195.922
197.136
198.237
199.655
200.955
202.522
203.946
205.623
207.112
208.94
210.444
205.37
204.649
201.953
201.929
200.901
200.858
200.718
200.886
201.246
201.653
202.381
203.035
204.02
204.898
206.067
207.113
208.416
209.552
210.937
212.095
214.407
213.368
210.586
208.495
207.596
206.392
206.128
205.564
205.753
205.649
206.141
206.402
207.122
207.671
208.572
209.336
210.372
211.271
212.425
213.393
221.631
217.821
216.307
213.803
212.824
211.258
210.788
209.941
209.846
209.491
209.733
209.747
210.221
210.534
211.184
211.729
212.518
213.212
214.11
214.878
229.374
218.262
217.34
215.036
214.605
213.197
212.866
212.012
212.007
211.577
211.781
211.71
212.096
212.301
212.821
213.227
213.878
214.439
215.196
215.871
223.822
220.54
219.674
217.746
216.961
215.798
215.265
214.531
214.278
213.903
213.896
213.764
213.966
214.078
214.461
214.776
215.279
215.748
216.362
216.94
227.382
218.471
218.328
217.113
216.856
216.113
215.919
215.276
215.22
214.858
214.916
214.804
214.991
215.078
215.367
215.643
216.061
216.484
217.016
217.552
219.976
219.301
219.247
217.322
217.142
216.667
216.391
216.043
215.864
215.657
215.589
215.558
215.69
215.826
216.086
216.343
216.718
217.107
217.587
218.085
225.062
218.397
218.213
217.661
217.322
216.885
216.681
216.327
216.22
216.036
216.055
215.908
216.069
216.147
216.373
216.626
216.969
217.35
217.801
218.289
116.69
133.384
150.008
166.624
182.312
197.895
212.045
226.161
238.66
251.221
262.115
273.169
283.017
291.916
300.308
307.691
314.53
320.518
325.961
330.613
189.546
200.788
210.902
220.147
228.49
235.348
241.255
247.49
253.159
258.98
264.28
269.759
275.999
280.888
285.317
289.359
293.273
296.666
299.939
302.791
200.418
204.667
209.081
213.029
217.245