/*--------------------------------*- C++ -*----------------------------------*\
  =========                 |
  \\      /  F ield         | OpenFOAM: The Open Source CFD Toolbox
   \\    /   O peration     | Website:  https://openfoam.org
    \\  /    A nd           | Version:  9
     \\/     M anipulation  |
\*---------------------------------------------------------------------------*/
FoamFile
{
    format      ascii;
    class       volScalarField;
    location    "3.9";
    object      p;
}
// * * * * * * * * * * * * * * * * * * * * * * * * * * * * * * * * * * * * * //

dimensions      [0 2 -2 0 0 0 0];

internalField   nonuniform List<scalar> 
46400
(
-57.9671
-51.6114
-38.0817
-27.3719
-17.2384
-8.12159
0.0303876
7.60565
14.411
20.655
26.3557
31.631
36.4915
41.0102
45.2557
49.2783
53.0192
56.8575
60.9546
62.5907
-34.4133
-27.912
-15.2744
-5.22271
4.05677
12.5035
20.0407
26.951
33.1878
38.8733
44.0186
48.7172
53.0286
56.9523
60.5593
63.8716
66.8785
69.8229
72.5583
73.3729
-10.2558
-3.84628
7.67084
17.1024
25.5116
33.2532
40.0509
46.3384
51.9332
57.0241
61.6182
65.797
69.5933
73.0458
76.1836
79.027
81.546
83.9875
86.1009
86.106
14.9125
21.6841
31.5792
40.1626
47.6235
54.5232
60.5754
66.0842
71.0195
75.4532
79.417
82.9696
86.1791
89.0445
91.634
93.9438
95.9662
97.9099
99.6423
99.4311
40.4951
45.7194
54.4914
62.305
69.0271
75.2349
80.6106
85.5151
89.8175
93.6705
97.0877
100.112
102.8
105.172
107.263
109.097
110.655
112.155
113.427
112.85
64.9495
69.3023
77.4106
84.6003
90.596
96.0832
100.763
104.928
108.597
111.795
114.608
117.053
119.208
121.072
122.709
124.103
125.268
126.384
127.379
126.62
87.8651
92.2251
99.7538
106.26
111.545
116.312
120.319
123.834
126.844
129.445
131.678
133.566
135.175
136.519
137.648
138.578
139.293
139.989
140.58
139.622
111.315
116.328
122.628
128.202
132.578
136.483
139.719
142.463
144.814
146.744
148.386
149.714
150.813
151.666
152.334
152.811
153.106
153.392
153.613
152.416
134.108
139.447
144.435
149.001
152.556
155.599
158.112
160.151
161.826
163.15
164.188
164.956
165.513
165.879
166.091
166.147
166.04
165.929
165.734
164.354
157.2
162.45
166.055
169.407
172.033
174.167
175.892
177.193
178.213
178.904
179.378
179.598
179.645
179.505
179.242
178.842
178.317
177.794
177.19
175.547
178.404
182.349
185.338
187.675
189.614
191.017
192.107
192.799
193.236
193.392
193.343
193.09
192.68
192.12
191.435
190.64
189.729
188.831
187.864
186.027
198.199
201.132
203.344
204.912
206.098
206.851
207.302
207.415
207.309
206.942
206.404
205.679
204.825
203.837
202.759
201.569
200.298
199.021
197.687
195.612
214.736
217.081
218.756
219.761
220.469
220.695
220.689
220.334
219.789
219.006
218.067
216.956
215.728
214.383
212.957
211.45
209.856
208.275
206.629
204.356
230.201
231.928
233.039
233.464
233.632
233.37
232.873
232.089
231.126
229.951
228.633
227.166
225.591
223.923
222.191
220.402
218.562
216.751
214.965
212.513
243.026
244.261
244.969
244.958
244.74
244.07
243.199
242.037
240.738
239.272
237.688
235.978
234.16
232.241
230.251
228.193
226.092
224.012
221.961
219.459
254.625
255.287
255.549
255.101
254.465
253.463
252.193
250.678
248.983
247.151
245.227
243.214
241.142
238.999
236.81
234.568
232.274
229.994
227.73
225.036
264.168
264.186
264.012
263.214
262.209
260.941
259.513
257.828
255.982
253.939
251.787
249.536
247.221
244.865
242.47
240.058
237.61
235.194
232.84
230.099
270.886
270.814
270.331
269.367
268.069
266.529
264.785
262.908
260.85
258.693
256.388
254.017
251.547
249.041
246.485
243.914
241.31
238.736
236.231
233.422
275.463
275.476
274.917
273.971
272.583
270.908
268.96
266.861
264.615
262.266
259.829
257.318
254.755
252.145
249.512
246.854
244.175
241.518
238.94
236.02
277.988
277.841
277.084
276.07
274.653
272.959
271.013
268.859
266.561
264.121
261.6
258.986
256.332
253.624
250.905
248.16
245.408
242.677
240.051
237.093
-144.336
-144.322
-144.206
-145.201
-145.082
-143.476
-141.417
-138.56
-135.823
-133.348
-130.921
-128.271
-125.94
-123.821
-121.557
-119.343
-117.229
-115.101
-113.062
-110.948
-144.861
-144.424
-144.921
-143.773
-143.788
-142.272
-139.762
-136.978
-134.369
-131.497
-128.635
-125.922
-123.403
-120.818
-118.334
-116.012
-113.713
-111.357
-109.191
-107.024
-145.305
-144.948
-145.333
-144.638
-143.223
-141.063
-138.224
-135.319
-132.327
-129.21
-126.299
-123.407
-120.641
-117.88
-115.254
-112.662
-110.142
-107.552
-105.117
-102.74
-145.977
-146.147
-145.708
-145.793
-143.207
-140.323
-137.206
-134.145
-130.782
-127.466
-124.188
-121.045
-118.032
-114.984
-112.149
-109.288
-106.556
-103.953
-101.463
-98.8868
-148.582
-148.656
-147.665
-146.871
-144.073
-140.33
-136.67
-132.885
-129.215
-125.522
-122.022
-118.56
-115.234
-111.954
-108.863
-105.758
-102.894
-100.002
-97.3233
-94.6273
-151.572
-151.173
-150.782
-148.015
-144.517
-140.766
-136.332
-132.078
-127.925
-123.909
-119.95
-116.144
-112.478
-108.878
-105.518
-102.143
-99.0261
-95.9737
-93.1418
-90.2217
-157.457
-156.588
-155.946
-151.867
-146.69
-141.588
-136.519
-131.594
-126.757
-122.135
-117.714
-113.443
-109.363
-105.445
-101.758
-98.095
-94.8111
-91.4942
-88.5191
-85.5077
-166.05
-165
-161.949
-156.333
-149.622
-143.06
-136.945
-131.036
-125.46
-120.205
-115.185
-110.44
-105.932
-101.637
-97.5995
-93.6745
-90.1255
-86.5314
-83.4186
-80.2077
-175.244
-173.854
-167.323
-159.901
-151.516
-143.625
-136.399
-129.686
-123.339
-117.433
-111.889
-106.645
-101.708
-97.0595
-92.6826
-88.4727
-84.6735
-80.822
-77.5378
-74.0905
-182.109
-180.516
-170.227
-161.075
-151.777
-142.958
-134.75
-127.26
-120.273
-113.78
-107.699
-102.022
-96.6989
-91.7054
-87.0077
-82.5648
-78.5036
-74.4045
-70.9577
-67.2371
-184.236
-181.989
-171.942
-160.528
-150.124
-140.472
-131.503
-123.325
-115.753
-108.776
-102.298
-96.2443
-90.6113
-85.3619
-80.4405
-75.8272
-71.5891
-67.396
-63.9457
-59.9594
-183.799
-180.88
-169.613
-157.344
-146.182
-135.881
-126.385
-117.719
-109.72
-102.346
-95.504
-89.1631
-83.2762
-77.8002
-72.6827
-67.9359
-63.5442
-59.3032
-55.7467
-51.7027
-179.342
-176.995
-165.312
-151.821
-140.052
-129.309
-119.332
-110.293
-101.962
-94.3259
-87.287
-80.7424
-74.6987
-69.0973
-63.8775
-59.0425
-54.5621
-50.2961
-46.6745
-42.5561
-173.673
-169.871
-157.079
-143.661
-131.278
-120.386
-110.197
-100.959
-92.4796
-84.6762
-77.4794
-70.8359
-64.7022
-59.0227
-53.7461
-48.9004
-44.3792
-40.1481
-36.518
-32.3409
-163.635
-159.098
-146.428
-133.404
-120.737
-109.657
-99.3262
-89.9332
-81.3365
-73.4702
-66.254
-59.5689
-53.4291
-47.7578
-42.5072
-37.6736
-33.1686
-29.0311
-25.4418
-21.2231
-151.764
-146.455
-133.58
-120.606
-107.82
-96.6399
-86.3196
-76.9607
-68.4369
-60.6136
-53.4394
-46.8408
-40.7684
-35.1684
-29.9985
-25.2621
-20.8192
-16.8259
-13.2844
-9.0172
-136.759
-131.557
-117.967
-104.635
-92.5013
-81.6119
-71.5756
-62.4137
-54.0608
-46.413
-39.4159
-32.94
-27.0089
-21.543
-16.513
-11.883
-7.57126
-3.77662
-0.348727
3.86168
-119.641
-113.899
-100.273
-87.6658
-75.599
-65.0651
-55.2776
-46.3721
-38.2848
-30.8533
-24.065
-17.8299
-12.0938
-6.82559
-1.98927
2.45914
6.60698
10.1626
13.4136
17.4969
-100.507
-94.7964
-80.7473
-68.6896
-57.245
-47.0544
-37.7754
-29.2127
-21.46
-14.348
-7.8469
-1.82917
3.68613
8.7636
13.435
17.7825
21.7742
25.1455
28.3257
32.8416
-79.9653
-73.817
-60.0326
-48.595
-37.6558
-27.9789
-19.1236
-11.0175
-3.66185
3.10765
9.29686
15.016
20.3292
25.2508
29.8601
34.2328
38.2744
42.0267
46.1339
50.8381
-101.529
-88.7814
-77.0119
-72.5852
-65.9145
-63.998
-60.4592
-58.7787
-56.6581
-54.9789
-53.4756
-51.7747
-50.4693
-48.789
-47.3916
-45.7643
-43.9705
-42.9613
-41.956
-41.5703
-96.9957
-84.9416
-72.9689
-68.9408
-62.2339
-60.355
-56.9158
-55.4849
-53.6073
-52.1095
-50.8136
-49.298
-48.2029
-46.7058
-45.5243
-44.0659
-42.4235
-41.5226
-40.6659
-40.3371
-92.2562
-81.0762
-68.8401
-65.1515
-58.5008
-56.957
-53.6938
-52.3279
-50.5892
-49.243
-48.1445
-46.794
-45.894
-44.5653
-43.5765
-42.2802
-40.8946
-40.1618
-39.3302
-39.0393
-87.4102
-76.9898
-64.6075
-61.3802
-54.7931
-53.3257
-50.2244
-49.0869
-47.6052
-46.4307
-45.5386
-44.367
-43.6738
-42.5262
-41.7555
-40.6279
-39.4016
-38.7646
-38.1191
-37.8624
-82.4253
-72.8076
-60.3297
-57.4813
-51.0407
-49.9047
-47.0285
-45.9665
-44.6411
-43.6164
-42.9211
-41.9127
-41.4093
-40.4306
-39.8535
-38.8906
-37.9267
-37.437
-36.8614
-36.6328
-77.4166
-68.39
-55.9223
-53.5839
-47.3127
-46.2734
-43.6181
-42.7718
-41.7104
-40.8563
-40.3649
-39.5285
-39.2316
-38.4305
-38.072
-37.2801
-36.4959
-36.0797
-35.7317
-35.5212
-72.2299
-63.8669
-51.5122
-49.5697
-43.5524
-42.8292
-40.454
-39.6878
-38.7985
-38.0898
-37.7934
-37.1143
-37.0053
-36.3722
-36.2106
-35.5879
-35.0783
-34.7841
-34.5568
-34.3645
-66.4685
-59.0547
-46.9193
-45.5587
-39.7837
-39.2079
-37.0937
-36.5356
-35.9128
-35.3733
-35.2789
-34.7663
-34.8611
-34.4046
-34.461
-34.0155
-33.7113
-33.4617
-33.5111
-33.3176
-59.7438
-54.1367
-42.275
-41.4636
-36.0152
-35.7424
-33.9658
-33.4882
-33.0481
-32.6547
-32.7517
-32.3955
-32.6651
-32.3796
-32.6316
-32.3651
-32.3563
-32.1872
-32.4193
-32.2333
-52.795
-49.0387
-37.5389
-37.3114
-32.2612
-32.0928
-30.6555
-30.3792
-30.2026
-29.9789
-30.2714
-30.0784
-30.5468
-30.4381
-30.9037
-30.8277
-31.0452
-30.9021
-31.4503
-31.2487
-46.2009
-43.6709
-32.8612
-33.0439
-28.5076
-28.604
-27.5577
-27.3725
-27.3799
-27.3053
-27.7823
-27.7404
-28.3768
-28.4392
-29.0972
-29.2162
-29.7148
-29.6824
-30.4234
-30.24
-39.4731
-37.9357
-28.0303
-28.7544
-24.7432
-24.9446
-24.2902
-24.3137
-24.5723
-24.6697
-25.3366
-25.4537
-26.2782
-26.5163
-27.382
-27.7095
-28.4086
-28.4877
-29.5289
-29.3259
-31.9923
-32.0265
-23.1886
-24.3661
-20.9861
-21.4359
-21.2095
-21.3491
-21.7855
-22.0369
-22.8817
-23.1432
-24.1279
-24.5353
-25.5888
-26.1304
-27.0742
-27.2935
-28.5911
-28.4005
-24.079
-25.8509
-18.2183
-19.9635
-17.2083
-17.7745
-17.9822
-18.3506
-19.0174
-19.4413
-20.4705
-20.8848
-22.0434
-22.6237
-23.8777
-24.6493
-25.7679
-26.1526
-27.8025
-27.5658
-15.2345
-19.4335
-13.2343
-15.5016
-13.4761
-14.2791
-14.9339
-15.4577
-16.2841
-16.8622
-18.063
-18.6115
-19.9185
-20.6629
-22.0999
-23.1122
-24.4268
-25.0643
-26.9622
-26.6893
-5.64506
-12.5471
-8.0478
-10.9513
-9.65248
-10.5911
-11.7115
-12.5046
-13.5411
-14.2914
-15.6753
-16.3719
-17.8377
-18.7517
-20.3881
-21.6518
-23.1027
-23.9512
-26.2359
-26.0536
4.33534
-5.53212
-2.82793
-6.25975
-5.77527
-6.96117
-8.55203
-9.56575
-10.7752
-11.6865
-13.2383
-14.0718
-15.6774
-16.748
-18.563
-20.0663
-21.6974
-22.4553
-25.4986
-25.0349
14.3614
1.09944
2.01825
-1.99084
-2.19461
-3.55458
-5.58587
-6.89434
-8.24288
-9.28427
-10.9968
-11.946
-13.673
-14.8902
-16.8776
-18.7094
-20.3402
-21.1034
-24.8511
-23.7762
29.5848
9.51264
7.01601
2.02163
1.05697
-0.495477
-2.91997
-4.52527
-5.89105
-7.05402
-8.91509
-9.96937
-11.7897
-13.1742
-15.388
-17.6575
-19.1689
-20.4302
-24.4735
-23.72
47.2667
21.4348
14.5487
8.69156
6.46716
4.84517
1.73073
-0.38376
-2.25904
-3.73362
-5.89779
-7.18506
-9.21498
-10.7855
-13.3379
-15.566
-18.0002
-19.1417
-23.8345
-22.3046
70.6107
70.3277
56.9393
51.4297
40.2133
36.263
29.5832
26.12
20.2757
17.1287
13.3353
10.9794
7.90127
6.63323
3.78315
3.57097
-2.69441
-1.8746
-9.66753
-1.7305
109.956
98.8335
80.6479
71.6419
60.2951
53.1183
45.0312
39.4722
34.2093
30.3899
26.0185
22.582
19.1853
16.086
13.0576
10.4475
7.94096
5.67593
4.37126
4.61325
111.744
99.9256
89.4265
81.1497
72.8435
66.1056
59.3091
53.7459
48.3028
44.2161
40.2222
37.0276
34.0976
31.8816
29.6558
28.0134
26.1371
24.7304
23.9539
23.7873
110.977
103.548
95.882
88.1077
80.8725
74.5647
68.6711
63.4958
58.53
54.0096
49.9537
46.1792
42.7663
39.4589
36.716
34.0504
32.0083
30.0442
29.0979
28.9106
102.308
96.1383
90.7594
85.4791
80.8017
76.0465
71.6493
67.5091
63.6276
60.121
56.792
53.8716
51.1417
48.7148
46.5432
44.4791
42.8483
40.9888
40.0494
39.638
98.9561
95.1387
92.2131
87.6466
83.9302
79.8159
76.0265
72.3127
68.7324
65.3592
62.0931
59.0465
56.1239
53.3999
50.8399
48.4889
46.3261
44.4498
43.194
42.838
92.2055
89.255
86.689
84.1315
81.3549
78.7691
75.9274
73.3753
70.6229
68.1719
65.5787
63.2442
60.8345
58.5724
56.3609
54.0665
51.985
49.6209
48.0927
47.9935
90.6143
88.8396
87.4342
85.0703
82.7192
80.6141
78.2409
75.9812
73.5746
71.3048
68.8931
66.6596
64.2633
62.0631
59.6967
57.4806
55.2558
52.8605
51.4546
50.7189
86.7116
85.5396
84.1737
83.2514
81.7853
80.1682
78.4965
76.8477
75.0414
73.3687
71.4612
69.7523
67.7343
65.9377
63.7639
61.7756
59.323
57.1231
55.0222
54.2782
86.6135
85.9891
85.1092
83.9594
82.6163
81.4232
80.0942
78.7958
77.278
75.8874
74.2083
72.7303
70.8604
69.2796
67.1395
65.4119
62.7781
60.8964
58.1425
57.5351
85.287
84.6364
84.1266
83.7879
83.0876
82.3712
81.3446
80.4965
79.4054
78.4645
77.2721
76.2536
74.8904
73.7765
72.0952
70.8251
68.5232
67.1854
63.9097
63.6041
85.7294
85.6645
85.1134
84.701
84.0561
83.5679
82.9074
82.3496
81.5935
80.9679
80.0985
79.4335
78.3862
77.7223
76.4112
75.8043
73.805
73.656
69.7568
70.617
85.9166
85.8877
85.7142
85.6621
85.4372
85.2396
84.9004
84.6332
84.31
84.0263
83.7566
83.454
83.2811
82.9478
82.8463
82.4965
82.25
82.2618
82.4122
83.9327
86.9313
86.9576
86.7278
86.7223
86.5452
86.5623
86.4156
86.4735
86.3634
86.4925
86.4613
86.6689
86.839
87.1379
87.6722
87.9434
89.2175
89.3345
91.9289
92.9737
87.507
87.7122
87.8016
87.9779
88.056
88.2497
88.3404
88.5928
88.7647
89.1479
89.4146
90.0394
90.4534
91.3955
92.0768
93.4657
94.7531
96.4658
99.2413
99.8934
88.2114
88.4057
88.537
88.7953
88.9983
89.3436
89.6398
90.1064
90.4936
91.1206
91.6717
92.5191
93.243
94.3676
95.3338
96.8775
98.0781
100.345
102.119
105.176
88.865
89.1589
89.3988
89.729
90.0088
90.4058
90.7517
91.2513
91.7032
92.3835
92.9043
93.8066
94.4486
95.6955
96.4969
98.1738
99.1439
101.472
102.525
112.373
89.438
89.7137
90.0105
90.3715
90.7632
91.2233
91.7191
92.3056
92.9001
93.6082
94.346
95.252
96.1038
97.2744
98.1753
99.7432
100.674
102.719
103.564
106.747
89.7675
90.0869
90.4015
90.7985
91.1891
91.6727
92.152
92.7399
93.32
94.0541
94.749
95.6328
96.4516
97.4959
98.4353
99.6486
100.556
102.013
102.485
108.537
89.9724
90.2901
90.6423
91.0385
91.482
91.9702
92.5156
93.1137
93.7699
94.4971
95.271
96.1535
97.037
98.106
99.0714
100.369
101.353
102.957
103.803
105.897
202.389
201.922
200.902
199.275
196.999
194.18
190.567
186.698
181.819
176.668
170.766
164.534
156.999
149.263
141.131
132.214
123.06
113.569
104.381
94.6572
173.803
173.852
173.448
172.945
171.98
170.897
169.435
167.718
165.839
163.462
161.171
158.284
153.883
149.801
146.245
143.286
139.643
135.978
131.955
127.309
137.358
137.442
137.376
137.258
136.922
136.614
135.995
135.533
134.631
133.93
132.841
131.882
130.644
129.477
127.925
126.561
124.707
123.202
121.108
119.41
125.54
125.694
125.758
125.774
125.693
125.568
125.321
125.027
124.62
124.212
123.61
123.07
122.295
121.654
120.72
119.974
118.911
118.046
116.818
115.864
107.901
108.029
108.081
108.146
108.123
108.125
108.026
107.969
107.796
107.67
107.466
107.292
107.011
106.772
106.411
106.118
105.672
105.38
104.807
104.515
102.382
102.521
102.632
102.728
102.792
102.843
102.857
102.859
102.827
102.781
102.649
102.542
102.354
102.203
101.951
101.761
101.442
101.232
100.84
100.681
94.3569
94.4525
94.515
94.5784
94.6026
94.6368
94.6243
94.6271
94.5823
94.5437
94.4733
94.4084
94.3093
94.1914
94.0552
93.8927
93.7257
93.5663
93.332
93.225
91.7437
91.8505
91.9433
92.0316
92.1045
92.1713
92.2165
92.2607
92.2698
92.292
92.2578
92.2472
92.1705
92.1524
91.9913
91.8583
91.6408
91.5216
91.2547
91.1244
88.2137
88.2752
88.3156
88.3517
88.3673
88.3764
88.3668
88.3435
88.3086
88.2468
88.1787
88.0696
87.9714
87.8343
87.7245
87.7086
87.6501
87.5884
87.5297
87.4664
86.9447
87.0169
87.0747
87.1338
87.1736
87.2179
87.24
87.2703
87.2799
87.2986
87.2996
87.3026
87.2728
87.2218
87.1785
87.1033
87.0391
86.9791
86.9169
86.8474
86.1793
86.2305
86.2747
86.3126
86.3462
86.3744
86.3978
86.417
86.4195
86.4193
86.4023
86.3764
86.2912
86.2048
86.0879
86.0036
85.8902
85.7769
85.6424
85.5232
85.9026
85.9532
85.9983
86.0378
86.0749
86.1077
86.139
86.1654
86.1849
86.1906
86.1869
86.1777
86.1677
86.1564
86.1344
86.1194
86.0862
86.039
85.9845
85.9307
86.0402
86.0811
86.1197
86.1533
86.1838
86.2091
86.2297
86.2458
86.2556
86.2626
86.2589
86.2547
86.2455
86.2331
86.2205
86.1955
86.1269
86.0754
85.9988
85.9373
86.5813
86.6363
86.6891
86.7394
86.7874
86.8336
86.8758
86.9117
86.9516
86.9864
87.0227
87.0503
87.0743
87.0898
87.0987
87.1015
87.0994
87.086
87.0643
87.0402
86.9044
86.9384
86.974
87.0039
87.0356
87.0505
87.0648
87.0856
87.1099
87.1372
87.166
87.2011
87.2358
87.2737
87.308
87.3412
87.3672
87.3949
87.421
87.4476
87.5322
87.5683
87.6003
87.6402
87.6769
87.7258
87.7796
87.8323
87.8805
87.9247
87.9659
88.001
88.0348
88.0588
88.0831
88.0987
88.118
88.1357
88.152
88.1704
87.9723
88
88.0296
88.0562
88.0848
88.1157
88.1492
88.1858
88.2237
88.2638
88.3051
88.3484
88.3925
88.4391
88.487
88.5378
88.5873
88.6376
88.6872
88.7366
88.3921
88.4427
88.4936
88.5453
88.5969
88.6485
88.6994
88.7494
88.7992
88.8481
88.8967
88.9444
88.9914
89.037
89.0801
89.1215
89.1651
89.2093
89.2576
89.3046
88.692
88.724
88.7576
88.7941
88.8331
88.8741
88.9171
88.9611
89.0074
89.0545
89.1037
89.1536
89.2061
89.2594
89.3148
89.3713
89.4285
89.4885
89.5474
89.6114
88.8773
88.913
88.9505
88.9883
89.0283
89.0681
89.1109
89.1529
89.1989
89.243
89.2912
89.3386
89.3892
89.4407
89.4954
89.5519
89.611
89.6724
89.7356
89.8017
53.6465
53.0762
49.9266
46.798
43.8611
40.7128
37.3699
33.8146
29.9911
25.8342
21.3321
16.3779
10.9611
4.92586
-1.56405
-8.9963
-16.9168
-25.9328
-36.7848
-42.8766
66.4974
66.3728
64.3296
62.0529
59.8115
57.3479
54.6443
51.7046
48.4531
44.8847
40.9564
36.589
31.7669
26.3866
20.5132
13.8351
6.72412
-1.56354
-10.9176
-17.0804
80.5052
81.2608
79.9659
78.2303
76.5008
74.52
72.282
69.8013
67.0364
63.9656
60.549
56.7168
52.4577
47.6473
42.391
36.3069
29.7924
21.9553
13.6886
8.94359
95.3081
96.1977
95.1506
93.8581
92.5615
91.053
89.3189
87.3879
85.1747
82.6923
79.8691
76.6693
73.0418
68.9299
64.3062
58.9237
53.0221
45.8719
38.0995
33.664
109.561
110.793
110.216
109.401
108.597
107.587
106.371
104.952
103.276
101.343
99.0912
96.4911
93.5058
90.0481
86.1362
81.4944
76.3746
69.9923
62.8947
58.2647
124.143
125.56
125.269
124.83
124.403
123.806
123.016
122.066
120.877
119.483
117.796
115.823
113.479
110.757
107.562
103.761
99.5006
94.1167
88.1864
83.0429
137.73
139.33
139.39
139.359
139.352
139.186
138.87
138.412
137.76
136.928
135.837
134.501
132.84
130.843
128.429
125.538
122.195
117.89
113.396
107.957
151.255
153.026
153.388
153.716
154.079
154.319
154.42
154.406
154.214
153.866
153.294
152.514
151.439
150.096
148.369
146.287
143.754
140.624
137.354
132.162
163.479
165.38
166.111
166.789
167.494
168.092
168.575
168.974
169.236
169.387
169.331
169.101
168.604
167.883
166.826
165.493
163.7
161.551
158.857
155.113
175.017
177.106
178.179
179.205
180.279
181.276
182.198
183.05
183.79
184.403
184.82
185.068
185.068
184.876
184.372
183.592
182.398
180.848
178.709
175.803
185.634
187.901
189.312
190.696
192.113
193.474
194.736
195.922
196.962
197.885
198.639
199.282
199.728
200.011
199.981
199.729
199.032
198.047
196.466
194.154
195.283
197.717
199.438
201.129
202.851
204.512
206.09
207.606
209.018
210.358
211.573
212.693
213.614
214.356
214.792
215.006
214.792
214.327
213.207
211.458
204.432
207.038
208.966
210.888
212.835
214.729
216.556
218.34
220.038
221.668
223.163
224.545
225.711
226.738
227.486
228.056
228.199
228.171
227.492
226.272
212.235
214.9
217
219.131
221.294
223.436
225.533
227.61
229.619
231.569
233.41
235.143
236.718
238.139
239.327
240.294
240.915
241.353
241.115
240.433
219.37
222.21
224.523
226.873
229.252
231.607
233.901
236.17
238.336
240.451
242.415
244.307
245.996
247.589
248.927
250.156
251.072
251.83
251.877
251.935
225.086
227.963
230.35
232.805
235.296
237.765
240.201
242.616
244.98
247.297
249.539
251.708
253.762
255.7
257.462
259.027
260.287
261.178
261.553
261.641
230.281
233.226
235.699
238.262
240.887
243.484
246.071
248.629
251.15
253.606
255.986
258.252
260.38
262.333
264.042
265.516
266.583
267.443
267.843
267.758
233.389
236.418
238.981
241.661
244.343
247.046
249.686
252.357
254.939
257.53
259.999
262.44
264.723
266.908
268.895
270.68
272.238
273.472
274.488
274.79
236.073
239.007
241.647
244.378
247.146
249.898
252.636
255.357
258.028
260.658
263.184
265.641
267.918
270.09
271.998
273.746
275.169
276.368
277.226
277.472
237.408
240.309
242.887
245.568
248.304
251.008
253.723
256.402
259.072
261.674
264.238
266.701
269.077
271.322
273.392
275.32
276.912
278.368
279.16
279.92
-158.593
-161.404
-164.209
-167.134
-170.104
-173.176
-176.283
-179.539
-182.807
-186.243
-189.706
-193.402
-196.829
-200.37
-204.112
-206.549
-208.528
-210.661
-210.295
-210.969
-153.383
-156.339
-159.31
-162.441
-165.583
-168.851
-172.173
-175.657
-179.159
-182.827
-186.58
-190.383
-194.515
-198.388
-202.035
-205.623
-209.597
-210.306
-210.887
-210.758
-148.125
-151.266
-154.384
-157.619
-160.954
-164.47
-167.981
-171.726
-175.497
-179.457
-183.491
-187.674
-191.956
-196.475
-200.808
-205.275
-208.996
-210.737
-212.494
-212.47
-142.72
-145.952
-149.177
-152.586
-156.065
-159.792
-163.543
-167.52
-171.582
-175.828
-180.196
-184.749
-189.379
-194.089
-199.149
-204.117
-208.505
-211.988
-212.972
-213.34
-136.857
-140.224
-143.584
-147.217
-150.877
-154.857
-158.866
-163.152
-167.552
-172.184
-177.006
-182.008
-187.25
-192.658
-198.442
-203.942
-209.39
-214.215
-215.676
-216.39
-130.577
-134.088
-137.519
-141.356
-145.176
-149.358
-153.631
-158.174
-162.92
-167.929
-173.179
-178.716
-184.567
-190.763
-197.143
-204.176
-211.447
-217.761
-221.152
-222.06
-123.801
-127.425
-130.921
-134.943
-138.937
-143.324
-147.855
-152.692
-157.763
-163.15
-168.854
-174.879
-181.325
-188.146
-195.457
-203.352
-211.592
-219.268
-225.272
-226.136
-116.184
-119.941
-123.527
-127.693
-131.86
-136.403
-141.16
-146.226
-151.596
-157.317
-163.393
-169.889
-176.841
-184.294
-192.382
-201.01
-210.369
-219.489
-228.03
-229.997
-107.913
-111.803
-115.434
-119.689
-123.99
-128.675
-133.613
-138.896
-144.5
-150.503
-156.92
-163.766
-171.131
-179.046
-187.615
-196.776
-206.578
-216.758
-226.578
-228.272
-98.6935
-102.723
-106.397
-110.725
-115.105
-119.885
-124.966
-130.4
-136.203
-142.437
-149.11
-156.298
-164.063
-172.465
-181.586
-191.442
-202.226
-213.972
-223.389
-225.018
-88.7479
-92.7962
-96.5027
-100.804
-105.262
-110.071
-115.218
-120.74
-126.635
-133.02
-139.857
-147.221
-155.197
-163.826
-173.262
-183.5
-194.794
-206.829
-217.881
-220.716
-77.8682
-81.9433
-85.642
-89.8992
-94.3696
-99.1738
-104.336
-109.888
-115.842
-122.278
-129.199
-136.692
-144.814
-153.631
-163.287
-173.721
-185.174
-197.685
-209.14
-212.415
-66.304
-70.3331
-73.9502
-78.0819
-82.4785
-87.2
-92.2974
-97.7907
-103.687
-110.093
-116.994
-124.481
-132.6
-141.433
-151.176
-161.588
-173.248
-185.846
-198.122
-202.25
-53.7671
-57.7327
-61.2487
-65.2306
-69.5241
-74.1289
-79.1122
-84.5055
-90.3129
-96.62
-103.432
-110.844
-118.882
-127.689
-137.342
-147.68
-159.429
-171.845
-184.214
-188.88
-40.5186
-44.3945
-47.7548
-51.5147
-55.6396
-60.061
-64.8658
-70.0731
-75.6852
-81.8185
-88.4403
-95.6678
-103.514
-112.12
-121.566
-131.726
-143.258
-155.548
-168.361
-173.443
-26.2507
-30.037
-33.2481
-36.7819
-40.7257
-44.9502
-49.5425
-54.5438
-59.9576
-65.8621
-72.2602
-79.2544
-86.8453
-95.2313
-104.376
-114.227
-125.532
-137.281
-150.083
-155.477
-11.443
-15.1163
-18.1334
-21.3693
-25.0743
-29.048
-33.3825
-38.1093
-43.2278
-48.8434
-54.9217
-61.5872
-68.8333
-76.8578
-85.5778
-95.1258
-106.027
-117.194
-130.474
-136.158
4.02576
0.581866
-2.21274
-5.13991
-8.59853
-12.3236
-16.3738
-20.8137
-25.6537
-30.9451
-36.6927
-42.9981
-49.8558
-57.4737
-65.6953
-74.7567
-84.9596
-95.262
-108.762
-114.918
20.6154
16.8588
14.3142
11.702
8.50019
5.00774
1.22095
-2.92002
-7.42532
-12.3686
-17.7279
-23.6223
-30.0484
-37.192
-44.8902
-53.5401
-63.0239
-73.1123
-86.0285
-92.1638
39.3628
35.546
32.4676
29.6402
26.5511
23.1444
19.5229
15.6251
11.3902
6.7922
1.80911
-3.66193
-9.62478
-16.2533
-23.4011
-31.4208
-40.1741
-49.6419
-61.6626
-67.9162
-48.9293
-49.5296
-50.2777
-51.5953
-53.4695
-55.5882
-57.7087
-60.3079
-62.9266
-66.1253
-69.5208
-73.4395
-77.9884
-82.8591
-89.2758
-95.5056
-105.327
-114.096
-130.139
-145.491
-48.0609
-48.5942
-49.2381
-50.4733
-52.2321
-54.1509
-56.0844
-58.5128
-60.9194
-63.9289
-67.0759
-70.7686
-74.9946
-79.5624
-85.6692
-91.628
-101.191
-109.434
-125.203
-139.933
-47.0891
-47.6213
-48.2557
-49.2581
-50.8485
-52.6725
-54.415
-56.6816
-58.883
-61.7109
-64.614
-68.1144
-72.0598
-76.4277
-82.185
-87.7261
-96.9615
-104.718
-120.254
-134.087
-46.2125
-46.684
-47.2005
-48.149
-49.6043
-51.2273
-52.7888
-54.8839
-56.8732
-59.515
-62.1683
-65.448
-69.0547
-73.1293
-78.5248
-83.7804
-92.6754
-99.8381
-115.074
-127.961
-45.2456
-45.696
-46.1943
-46.946
-48.2228
-49.7444
-51.1109
-53.0428
-54.8297
-57.2902
-59.7011
-62.7884
-66.1025
-69.9747
-74.9629
-79.8226
-88.3011
-94.8916
-109.713
-121.717
-44.3713
-44.7852
-45.1206
-45.8549
-46.9597
-48.3035
-49.4784
-51.2386
-52.8147
-55.0919
-57.2526
-60.1244
-63.0882
-66.6728
-71.2498
-75.8053
-83.8512
-89.8195
-104.153
-115.243
-43.4169
-43.7956
-44.0873
-44.6751
-45.5766
-46.8061
-47.791
-49.3868
-50.7654
-52.8595
-54.7814
-57.4536
-60.1189
-63.4948
-67.6287
-71.767
-79.3291
-84.6382
-98.347
-108.638
-42.5516
-42.9249
-42.9946
-43.6106
-44.298
-45.3654
-46.1499
-47.5708
-48.7414
-50.6547
-52.3303
-54.7859
-57.0958
-60.1835
-63.8597
-67.6807
-74.7123
-79.2694
-92.3476
-100.931
-41.6163
-41.9676
-41.9301
-42.4654
-42.9087
-43.8559
-44.4539
-45.7071
-46.6842
-48.4158
-49.8591
-52.1028
-54.1131
-56.9774
-60.1594
-63.6018
-69.996
-73.8263
-86.0394
-92.8179
-40.7629
-41.1294
-40.8253
-41.4249
-41.6201
-42.4043
-42.8019
-43.8774
-44.6538
-46.2038
-47.4082
-49.4258
-51.083
-53.6452
-56.3371
-59.4568
-65.1947
-68.3006
-79.4748
-85.0761
-39.8493
-40.2005
-39.7637
-40.2821
-40.2296
-40.8801
-41.0955
-42.001
-42.588
-43.9604
-44.9396
-46.7343
-48.0907
-50.4056
-52.5809
-55.3156
-60.3013
-62.6127
-72.6382
-76.9955
-39.0096
-39.3966
-38.7088
-39.2201
-38.9289
-39.4083
-39.4303
-40.1572
-40.5485
-41.7427
-42.4922
-44.0491
-45.0573
-47.0471
-48.7117
-51.1082
-55.3312
-56.8245
-65.579
-68.2547
-38.1176
-38.5081
-37.6516
-38.056
-37.5323
-37.8657
-37.71
-38.2668
-38.4738
-39.496
-40.0279
-41.3481
-42.056
-43.7661
-44.9058
-46.9037
-50.2605
-50.8538
-58.3022
-58.9587
-37.2961
-37.7625
-36.625
-36.9755
-36.2198
-36.3666
-36.0291
-36.4077
-36.4253
-37.2758
-37.5873
-38.6565
-39.0212
-40.3771
-40.9969
-42.641
-45.1211
-44.8187
-50.8279
-49.0575
-36.4183
-36.9646
-35.5827
-35.7941
-34.8408
-34.8096
-34.3001
-34.5113
-34.3529
-35.0419
-35.1446
-35.9626
-36.0281
-37.0675
-37.1711
-38.3996
-39.8944
-38.6233
-43.1473
-38.4511
-35.645
-36.2736
-34.5204
-34.6995
-33.5109
-33.2793
-32.6006
-32.6346
-32.2934
-32.8197
-32.7051
-33.2598
-32.9822
-33.6292
-33.2139
-34.0574
-34.5376
-32.3032
-35.0911
-27.0573
-34.7462
-35.5176
-33.4021
-33.4655
-32.0256
-31.66
-30.8105
-30.6855
-30.172
-30.5411
-30.2146
-30.4934
-29.9041
-30.1907
-29.2734
-29.6777
-29.0601
-25.8605
-26.9538
-15.3759
-33.8344
-34.909
-32.3488
-32.322
-30.7385
-30.1344
-29.1377
-28.8436
-28.174
-28.4115
-27.8935
-27.9064
-26.9965
-26.8902
-25.5129
-25.5219
-23.8469
-19.8918
-19.3419
-3.84517
-33.447
-34.546
-31.5692
-31.2814
-29.65
-28.734
-27.5809
-27.106
-26.2994
-26.4498
-25.7697
-25.5049
-24.3016
-23.7998
-22.0055
-21.5098
-18.5683
-13.4401
-9.9133
12.6841
-32.1448
-33.9772
-30.5197
-30.3137
-27.8011
-26.7827
-25.3997
-24.7668
-23.7022
-23.5915
-22.5874
-21.927
-20.2248
-19.1122
-16.6656
-15.5217
-11.1728
-4.73246
2.96141
31.8264
-16.0276
-21.6745
-16.5103
-16.906
-12.3946
-12.9338
-10.245
-9.60685
-7.43532
-5.3747
-1.89586
0.863196
5.03781
8.52427
14.5523
20.0139
29.8641
38.0227
55.1114
60.9554
-9.28185
-9.53986
-8.60234
-6.83768
-5.0099
-2.42061
-0.22977
2.41044
5.45431
8.43075
11.5037
15.3353
20.2051
26.2879
33.8986
42.6602
54.3646
65.1824
85.0957
97.9886
8.21925
8.40359
8.95611
10.2355
12.0884
13.7415
15.8888
18.2443
21.0926
24.2405
28.2779
32.9611
38.5239
44.5687
51.4509
59.0149
68.0155
77.8985
89.9126
102.533
13.8044
14.0233
14.8212
17.0477
18.9251
21.7713
24.2804
27.6848
30.9464
35.0755
39.1177
43.8137
48.6157
54.5067
60.7696
68.4735
76.0736
85.1254
93.9186
102.776
24.8184
25.1359
26.2317
28.2871
30.0203
32.4323
34.7729
37.5244
40.4879
43.7598
47.3328
51.3228
55.6452
60.4166
65.3499
70.8728
76.3101
82.5834
88.7253
95.9326
29.5793
29.8042
30.7822
33.0254
35.211
37.936
40.5725
43.6044
46.654
50.0735
53.5428
57.3778
61.2076
65.5552
69.816
74.6728
79.1486
84.2993
88.0123
92.904
35.5354
35.9238
37.3902
39.9118
42.2491
44.6608
47.1802
49.6583
52.3785
55.0543
57.9693
60.9032
63.9978
67.1969
70.4122
73.8278
77.0914
80.9155
84.2081
87.8339
40.2315
40.9124
42.4305
44.7796
47.0127
49.4557
51.9066
54.3613
56.9352
59.4894
62.1449
64.8493
67.5374
70.4008
73.2253
76.3953
79.1665
81.7384
83.7988
86.3762
44.606
45.3234
47.5488
49.6926
52.3878
54.4351
56.8983
58.8458
61.1768
63.1405
65.4055
67.4115
69.6372
71.6709
73.68
75.5327
77.4974
79.7591
81.6853
83.7247
49.6644
50.2236
52.9924
54.8731
57.5385
59.3529
61.551
63.31
65.311
67.0483
68.9208
70.667
72.4388
74.2394
76.1586
77.9565
79.4846
80.937
82.2028
83.4278
56.5044
56.6739
60.0786
61.1852
63.6824
64.9273
66.8018
68.0166
69.6222
70.8438
72.3391
73.5715
75.0229
76.2144
77.3466
78.3827
79.4688
80.6561
81.8314
82.9608
65.8544
64.4421
67.9824
68.0291
69.9624
70.6435
71.9143
72.7355
73.8156
74.6991
75.6883
76.6002
77.5536
78.4626
79.4621
80.4301
81.3647
82.0774
82.7417
83.3612
79.6475
77.948
77.0939
77.1512
77.2318
77.5037
77.6183
77.9778
78.2981
78.7207
79.2149
79.6923
80.2924
80.828
81.4188
81.917
82.4952
82.9865
83.5943
84.0388
88.3548
87.6699
84.9632
84.7375
83.3965
83.1322
82.6159
82.3982
82.3138
82.2376
82.3686
82.4413
82.6966
82.8716
83.1985
83.4675
83.8529
84.1657
84.562
84.8482
95.3392
94.5718
91.8441
90.0743
88.8866
87.5273
86.9024
86.0328
85.6816
85.2509
85.1114
84.9128
84.9232
84.8878
84.9965
85.0627
85.2407
85.3676
85.5976
85.7452
101.359
98.0802
96.3217
93.941
92.6708
91.1845
90.2539
89.303
88.6438
87.9492
87.5518
87.1213
86.906
86.6707
86.5883
86.49
86.5053
86.4993