/*--------------------------------*- C++ -*----------------------------------*\
  =========                 |
  \\      /  F ield         | OpenFOAM: The Open Source CFD Toolbox
   \\    /   O peration     | Website:  https://openfoam.org
    \\  /    A nd           | Version:  9
     \\/     M anipulation  |
\*---------------------------------------------------------------------------*/
FoamFile
{
    format      ascii;
    class       surfaceScalarField;
    location    "3.9";
    object      phi;
}
// * * * * * * * * * * * * * * * * * * * * * * * * * * * * * * * * * * * * * //

dimensions      [0 3 -1 0 0 0 0];

internalField   nonuniform List<scalar> 
92080
(
0.0029093
-0.441469
0.43856
-0.0126818
-0.919
0.934592
-0.0470771
-1.02719
1.06159
-0.0829969
-1.01321
1.04913
-0.118191
-0.996769
1.03196
-0.15325
-0.980795
1.01585
-0.187808
-0.967442
1.002
-0.222068
-0.954511
0.988771
-0.255837
-0.940858
0.974627
-0.28921
-0.927961
0.961334
-0.322827
-0.916975
0.950592
-0.356543
-0.907278
0.940994
-0.389548
-0.898189
0.931195
-0.422398
-0.888899
0.921749
-0.455561
-0.881173
0.914337
-0.488299
-0.87384
0.906577
-0.519558
-0.867101
0.89836
-0.550148
-0.858926
0.889516
-0.580157
-0.850591
0.880599
-0.84481
0.872582
-0.607928
-3.8567e-05
-0.441431
-0.0203949
-0.898644
-0.0580696
-0.989518
-0.0968813
-0.974398
-0.134537
-0.959113
-0.171978
-0.943354
-0.209128
-0.930292
-0.245335
-0.918303
-0.280862
-0.905331
-0.316464
-0.892359
-0.35189
-0.881549
-0.386878
-0.872291
-0.421895
-0.863172
-0.456583
-0.854212
-0.490604
-0.847152
-0.524298
-0.840146
-0.557712
-0.833687
-0.589348
-0.827289
-0.619077
-0.820862
-0.815611
-0.648276
-0.0018559
-0.439575
-0.0246457
-0.875854
-0.0637705
-0.950393
-0.103741
-0.934427
-0.143073
-0.919781
-0.182041
-0.904386
-0.220712
-0.891621
-0.259109
-0.879906
-0.296681
-0.867759
-0.333534
-0.855506
-0.370675
-0.844408
-0.407686
-0.83528
-0.443719
-0.827139
-0.480088
-0.817843
-0.517003
-0.810236
-0.553
-0.804149
-0.588007
-0.798679
-0.622817
-0.792479
-0.657037
-0.786643
-0.781421
-0.691227
-0.00399144
-0.435583
-0.0314408
-0.848405
-0.0745785
-0.907255
-0.117768
-0.891238
-0.159631
-0.877918
-0.201036
-0.862981
-0.241987
-0.85067
-0.281864
-0.84003
-0.320956
-0.828667
-0.359693
-0.816769
-0.398113
-0.805988
-0.436559
-0.796833
-0.474554
-0.789144
-0.51126
-0.781138
-0.548436
-0.773059
-0.587015
-0.765571
-0.625244
-0.76045
-0.66195
-0.755773
-0.697906
-0.750686
-0.74542
-0.733907
-0.00656745
-0.429016
-0.0374538
-0.817519
-0.0802429
-0.864466
-0.123316
-0.848164
-0.165972
-0.835262
-0.208155
-0.820798
-0.25043
-0.808395
-0.292633
-0.797827
-0.333779
-0.787521
-0.373787
-0.776761
-0.413937
-0.765837
-0.454322
-0.756449
-0.494412
-0.749054
-0.534065
-0.741485
-0.572317
-0.734808
-0.610252
-0.727636
-0.649715
-0.720988
-0.689638
-0.71585
-0.72826
-0.712064
-0.707259
-0.766421
-0.00689581
-0.42212
-0.0441304
-0.780284
-0.0902298
-0.818367
-0.136235
-0.802159
-0.181123
-0.790374
-0.225531
-0.77639
-0.269465
-0.764461
-0.312681
-0.75461
-0.355623
-0.744579
-0.397779
-0.734605
-0.438748
-0.724869
-0.47995
-0.715246
-0.521331
-0.707674
-0.56219
-0.700626
-0.603494
-0.693503
-0.644134
-0.686995
-0.683873
-0.681249
-0.724837
-0.674885
-0.766076
-0.670826
-0.667132
-0.806203
-0.00398616
-0.418134
-0.0429748
-0.741295
-0.0900508
-0.77129
-0.137337
-0.754873
-0.18397
-0.743741
-0.229671
-0.730689
-0.275438
-0.718694
-0.320759
-0.709289
-0.364935
-0.700403
-0.408392
-0.691148
-0.451556
-0.681704
-0.494076
-0.672727
-0.536744
-0.665006
-0.578786
-0.658584
-0.619223
-0.653067
-0.660369
-0.645849
-0.701363
-0.640255
-0.741811
-0.634438
-0.783986
-0.628651
-0.624941
-0.826176
-0.00270873
-0.415425
-0.0460917
-0.697912
-0.0978967
-0.719485
-0.148404
-0.704365
-0.197374
-0.694772
-0.245179
-0.682884
-0.292389
-0.671484
-0.339131
-0.662547
-0.385449
-0.654085
-0.430478
-0.646119
-0.474198
-0.637984
-0.517927
-0.628998
-0.561873
-0.62106
-0.606876
-0.613581
-0.651231
-0.608712
-0.693339
-0.60374
-0.735521
-0.598074
-0.776452
-0.593507
-0.816842
-0.58826
-0.583439
-0.858344
2.39993e-06
-0.415428
-0.0442692
-0.653641
-0.0971315
-0.666623
-0.149004
-0.652493
-0.199845
-0.643931
-0.248691
-0.634038
-0.297154
-0.623021
-0.345068
-0.614633
-0.392106
-0.607046
-0.438728
-0.599497
-0.484277
-0.592436
-0.527912
-0.585363
-0.570771
-0.578201
-0.613773
-0.570579
-0.658323
-0.564162
-0.703091
-0.558972
-0.746949
-0.554216
-0.790972
-0.549484
-0.833556
-0.545677
-0.54149
-0.875505
-0.00286255
-0.412565
-0.0521117
-0.604392
-0.108224
-0.610511
-0.161879
-0.598838
-0.214416
-0.591394
-0.265326
-0.583128
-0.314902
-0.573445
-0.363987
-0.565548
-0.412663
-0.55837
-0.460148
-0.552012
-0.507409
-0.545175
-0.554589
-0.538183
-0.599946
-0.532844
-0.644105
-0.526419
-0.687442
-0.520826
-0.731024
-0.515389
-0.774867
-0.510373
-0.818324
-0.506027
-0.862391
-0.50161
-0.498329
-0.905552
-0.00840901
-0.404156
-0.0573115
-0.555489
-0.111894
-0.555928
-0.165788
-0.544945
-0.218861
-0.538321
-0.26983
-0.532159
-0.320367
-0.522907
-0.369873
-0.516043
-0.418713
-0.50953
-0.467133
-0.503593
-0.513686
-0.498621
-0.560118
-0.491751
-0.606996
-0.485966
-0.652843
-0.480572
-0.698684
-0.474986
-0.743299
-0.470774
-0.787711
-0.465961
-0.831864
-0.461873
-0.875627
-0.457847
-0.453857
-0.920099
-0.0179412
-0.386215
-0.0705479
-0.502882
-0.125958
-0.500518
-0.179773
-0.491129
-0.233896
-0.484198
-0.286487
-0.479568
-0.337453
-0.471942
-0.38854
-0.464955
-0.438774
-0.459296
-0.488662
-0.453705
-0.537944
-0.449339
-0.585119
-0.444575
-0.631955
-0.43913
-0.678345
-0.434182
-0.724158
-0.429173
-0.770294
-0.424637
-0.815211
-0.421045
-0.859867
-0.417217
-0.903657
-0.414057
-0.410787
-0.946727
-0.0246634
-0.361552
-0.0763578
-0.451188
-0.130333
-0.446543
-0.184005
-0.437458
-0.237502
-0.430701
-0.289917
-0.427153
-0.341524
-0.420335
-0.391976
-0.414503
-0.442146
-0.409126
-0.491694
-0.404157
-0.540847
-0.400186
-0.58935
-0.396072
-0.636578
-0.391903
-0.683573
-0.387186
-0.730255
-0.382491
-0.776908
-0.377983
-0.824417
-0.373536
-0.871365
-0.370269
-0.918794
-0.366629
-0.364043
-0.965538
-0.0331215
-0.32843
-0.0881282
-0.396181
-0.143384
-0.391287
-0.196555
-0.384287
-0.251104
-0.376151
-0.304276
-0.373981
-0.3561
-0.368511
-0.408678
-0.361925
-0.460589
-0.357215
-0.512463
-0.352284
-0.563761
-0.348888
-0.613776
-0.346056
-0.662561
-0.343119
-0.709304
-0.340443
-0.755169
-0.336626
-0.799878
-0.333275
-0.844224
-0.329191
-0.889141
-0.325351
-0.9338
-0.32197
-0.318204
-0.97964
-0.0378574
-0.290573
-0.0923348
-0.341704
-0.147737
-0.335885
-0.201979
-0.330045
-0.2556
-0.32253
-0.309259
-0.320322
-0.359409
-0.318362
-0.407778
-0.313556
-0.456964
-0.30803
-0.506192
-0.303055
-0.557098
-0.297982
-0.608592
-0.294563
-0.660421
-0.29129
-0.711817
-0.289046
-0.761683
-0.28676
-0.810774
-0.284183
-0.857795
-0.28217
-0.903954
-0.279192
-0.948911
-0.277012
-0.274026
-0.993089
-0.043004
-0.247569
-0.101426
-0.283282
-0.157551
-0.27976
-0.211111
-0.276485
-0.267066
-0.266574
-0.324182
-0.263206
-0.380862
-0.261682
-0.433749
-0.260669
-0.4833
-0.258479
-0.531318
-0.255036
-0.577799
-0.251502
-0.624918
-0.247444
-0.672064
-0.244144
-0.720421
-0.240689
-0.768857
-0.238324
-0.817562
-0.235478
-0.866377
-0.233355
-0.91445
-0.231119
-0.962451
-0.229012
-0.227242
-1.00923
-0.0450849
-0.202484
-0.104234
-0.224133
-0.161989
-0.222005
-0.214034
-0.22444
-0.262788
-0.217821
-0.315537
-0.210457
-0.369673
-0.207545
-0.426264
-0.204078
-0.481418
-0.203325
-0.535046
-0.201408
-0.586751
-0.199796
-0.636529
-0.197666
-0.685224
-0.195449
-0.73272
-0.193194
-0.780152
-0.190892
-0.826715
-0.188914
-0.873451
-0.186619
-0.919811
-0.184759
-0.966127
-0.182696
-0.180784
-1.01259
-0.0541513
-0.148333
-0.112645
-0.165639
-0.172227
-0.162423
-0.231972
-0.164695
-0.283873
-0.165919
-0.333055
-0.161276
-0.382516
-0.158084
-0.431891
-0.154704
-0.48366
-0.151556
-0.535208
-0.14986
-0.587351
-0.147653
-0.63873
-0.146287
-0.689756
-0.144424
-0.739897
-0.143052
-0.789414
-0.141375
-0.838293
-0.140035
-0.886341
-0.138571
-0.933934
-0.137166
-0.98082
-0.13581
-0.134419
-1.02718
-0.0478527
-0.10048
-0.102054
-0.111438
-0.15757
-0.106907
-0.217775
-0.10449
-0.277628
-0.106066
-0.334037
-0.104867
-0.388537
-0.103584
-0.441031
-0.102209
-0.492164
-0.100423
-0.543088
-0.0989359
-0.593292
-0.0974493
-0.643446
-0.0961326
-0.692917
-0.0949525
-0.742291
-0.0936791
-0.790999
-0.0926662
-0.839571
-0.0914641
-0.887593
-0.0905493
-0.935294
-0.0894641
-0.982563
-0.0885413
-0.0874399
-1.02954
-0.0458446
-0.0546352
-0.100065
-0.0572177
-0.153672
-0.0533003
-0.208975
-0.0491873
-0.265021
-0.0500196
-0.320907
-0.0489808
-0.375619
-0.048872
-0.430059
-0.0477701
-0.483004
-0.0474773
-0.535633
-0.0463067
-0.587104
-0.0459782
-0.638454
-0.0447833
-0.6889
-0.0445062
-0.739122
-0.0434575
-0.788629
-0.0431591
-0.837823
-0.0422699
-0.886433
-0.041939
-0.934736
-0.0411608
-0.982451
-0.0408269
-1.02977
-0.0401251
-0.00983239
0.0711682
-0.0613358
0.00896452
0.0550784
-0.0738754
0.0790952
-0.0335863
-0.0365444
0.247217
-0.265475
0.0973525
0.494577
-0.635691
0.388331
0.696007
-0.927695
0.726265
0.805792
-1.08202
0.972232
0.856638
-1.14165
1.0908
0.881453
-1.16035
1.13553
0.895439
-1.16432
1.15033
0.904101
-1.16257
1.1539
0.909483
-1.1574
1.15202
0.916089
-1.15525
1.14864
0.924425
-1.15394
1.1456
0.931405
-1.15292
1.14594
0.937756
-1.15032
1.14397
0.944261
-1.15065
1.14415
0.951019
-1.14872
1.14196
0.9576
-1.14857
1.14199
-1.14607
0.962324
1.14134
0.00119441
0.0699738
0.0366876
0.0195853
0.140929
-0.137828
0.364012
-0.488557
0.573391
-0.84507
0.700495
-1.0548
0.759889
-1.14141
0.786239
-1.168
0.799248
-1.17335
0.80681
-1.17188
0.811486
-1.16724
0.817392
-1.1633
0.824385
-1.16224
0.829597
-1.15915
0.834334
-1.15765
0.839853
-1.15584
0.845198
-1.15599
0.849079
-1.1526
0.851869
-1.15136
-1.14871
0.854508
0.011291
0.0586828
0.0683316
-0.0374553
0.219627
-0.289123
0.434395
-0.703326
0.583905
-0.99458
0.6587
-1.12959
0.688945
-1.17166
0.7018
-1.18085
0.708782
-1.18034
0.713183
-1.17628
0.717431
-1.17149
0.7225
-1.16837
0.726308
-1.16605
0.730247
-1.16309
0.734608
-1.16202
0.738469
-1.1597
0.740757
-1.15828
0.742511
-1.15436
0.744721
-1.15357
-1.15042
0.746428
0.0254863
0.0331965
0.101257
-0.113226
0.285913
-0.473779
0.456752
-0.874166
0.55381
-1.09164
0.593054
-1.16884
0.608818
-1.18742
0.616731
-1.18876
0.622153
-1.18576
0.625332
-1.17946
0.628721
-1.17488
0.631906
-1.17156
0.635287
-1.16943
0.638399
-1.1662
0.640732
-1.16435
0.642549
-1.16152
0.644006
-1.15974
0.645749
-1.1561
0.647222
-1.15504
-1.15007
0.646875
0.0424151
-0.00921857
0.134835
-0.205646
0.313322
-0.652266
0.440207
-1.00105
0.497838
-1.14927
0.520271
-1.19127
0.529336
-1.19648
0.535013
-1.19444
0.536776
-1.18752
0.538468
-1.18115
0.540773
-1.17718
0.543299
-1.17408
0.544614
-1.17074
0.545408
-1.167
0.546146
-1.16509
0.546598
-1.16197
0.54602
-1.15916
0.545028
-1.15511
0.543438
-1.15345
-1.14769
0.54106
0.0409693
-0.0501879
0.160138
-0.324814
0.310023
-0.80215
0.396443
-1.08747
0.4321
-1.18493
0.444122
-1.20329
0.449994
-1.20236
0.452094
-1.19654
0.453327
-1.18875
0.455308
-1.18313
0.456703
-1.17858
0.457109
-1.17449
0.457102
-1.17074
0.457098
-1.16699
0.456463
-1.16445
0.454878
-1.16039
0.45283
-1.15711
0.451101
-1.15338
0.448759
-1.15111
-1.14391
0.444975
0.0381139
-0.0883018
0.166173
-0.452873
0.282043
-0.91802
0.342174
-1.1476
0.362658
-1.20541
0.36974
-1.21038
0.373398
-1.20602
0.374629
-1.19777
0.375589
-1.18971
0.37544
-1.18299
0.374773
-1.17791
0.373834
-1.17355
0.372069
-1.16897
0.369711
-1.16463
0.366772
-1.16151
0.363464
-1.15708
0.359729
-1.15338
0.355629
-1.14928
0.350571
-1.14605
-1.13812
0.344781
0.0398523
-0.128154
0.155395
-0.568416
0.2458
-1.00843
0.285169
-1.18697
0.2972
-1.21744
0.302582
-1.21576
0.303394
-1.20683
0.303321
-1.1977
0.302255
-1.18865
0.300945
-1.18168
0.299069
-1.17604
0.296174
-1.17066
0.292562
-1.16536
0.288683
-1.16076
0.284158
-1.15699
0.278834
-1.15176
0.272935
-1.14748
0.266888
-1.14323
0.260053
-1.13922
-1.13072
0.252655
0.0433726
-0.171527
0.142199
-0.667242
0.209378
-1.0756
0.233174
-1.21077
0.239126
-1.22339
0.239529
-1.21616
0.238203
-1.2055
0.236265
-1.19576
0.23343
-1.18581
0.22958
-1.17783
0.224922
-1.17138
0.219706
-1.16544
0.213905
-1.15956
0.207536
-1.15439
0.200515
-1.14997
0.193059
-1.1443
0.185263
-1.13968
0.177054
-1.13502
0.167991
-1.13015
-1.12117
0.158447
0.0507916
-0.222318
0.127026
-0.743476
0.174436
-1.12301
0.18594
-1.22227
0.186991
-1.22444
0.184242
-1.21341
0.180894
-1.20216
0.176366
-1.19123
0.170899
-1.18035
0.164996
-1.17192
0.158515
-1.1649
0.151225
-1.15815
0.143229
-1.15156
0.134813
-1.14597
0.125779
-1.14093
0.116117
-1.13464
0.105855
-1.12942
0.0952813
-1.12445
0.0842369
-1.11911
-1.10993
0.0729934
0.0442369
-0.266555
0.104356
-0.803595
0.138388
-1.15705
0.142344
-1.22623
0.139275
-1.22137
0.133345
-1.20748
0.126939
-1.19575
0.11972
-1.18401
0.111765
-1.17239
0.103021
-1.16318
0.0936132
-1.15549
0.0836334
-1.14817
0.0731779
-1.14111
0.0622409
-1.13503
0.0508544
-1.12955
0.0390849
-1.12287
0.0270207
-1.11736
0.0147227
-1.11215
0.00216377
-1.10655
-1.09703
-0.0107344
0.0390454
-0.305601
0.0899596
-0.85451
0.108502
-1.17559
0.105726
-1.22345
0.0977031
-1.21335
0.0889688
-1.19875
0.0796075
-1.18639
0.0694585
-1.17386
0.0585597
-1.16149
0.0471549
-1.15177
0.0351618
-1.1435
0.0226082
-1.13562
0.00956523
-1.12806
-0.00389654
-1.12157
-0.0178819
-1.11556
-0.0323299
-1.10842
-0.0472358
-1.10245
-0.0623241
-1.09706
-0.0775274
-1.09135
-1.08205
-0.0925059
0.0319964
-0.337597
0.0692887
-0.891802
0.0786587
-1.18496
0.0709051
-1.2157
0.0596825
-1.20213
0.0479639
-1.18703
0.0354609
-1.17388
0.0224187
-1.16082
0.00877887
-1.14785
-0.00546091
-1.13753
-0.0201157
-1.12884
-0.0353131
-1.12042
-0.051007
-1.11237
-0.0670421
-1.10554
-0.0832708
-1.09933
-0.0998849
-1.09181
-0.116903
-1.08543
-0.134108
-1.07986
-0.151083
-1.07437
-1.06501
-0.16813
0.027511
-0.365108
0.0557021
-0.919993
0.0557721
-1.18503
0.0431604
-1.20309
0.0278896
-1.18686
0.0125243
-1.17166
-0.00328815
-1.15807
-0.0195475
-1.14456
-0.036279
-1.13112
-0.053514
-1.1203
-0.0712869
-1.11107
-0.0893488
-1.10236
-0.107706
-1.09401
-0.126556
-1.08669
-0.145797
-1.08009
-0.165177
-1.07243
-0.18487
-1.06574
-0.20486
-1.05987
-0.224592
-1.05464
-1.0456
-0.244
0.0209669
-0.386075
0.038421
-0.937447
0.031143
-1.17775
0.0145641
-1.18651
-0.00322078
-1.16907
-0.0213834
-1.1535
-0.0398944
-1.13956
-0.0587742
-1.12568
-0.078192
-1.1117
-0.0980816
-1.10041
-0.118178
-1.09097
-0.138766
-1.08177
-0.159769
-1.07301
-0.180922
-1.06553
-0.202172
-1.05884
-0.223936
-1.05066
-0.246165
-1.04351
-0.268552
-1.03748
-0.290409
-1.03278
-1.02413
-0.311874
0.0175089
-0.403584
0.0292379
-0.949176
0.0150636
-1.16358
-0.00532942
-1.16611
-0.0265505
-1.14785
-0.0482847
-1.13177
-0.0703659
-1.11748
-0.0925913
-1.10346
-0.11503
-1.08926
-0.138029
-1.07741
-0.161549
-1.06745
-0.18511
-1.05821
-0.208879
-1.04924
-0.233153
-1.04126
-0.2574
-1.03459
-0.281334
-1.02673
-0.30568
-1.01916
-0.330646
-1.01251
-0.35548
-1.00795
-1.00012
-0.379492
0.0139142
-0.417498
0.0192328
-0.954495
0.000254598
-1.1446
-0.0253923
-1.14047
-0.0504883
-1.12276
-0.0754946
-1.10676
-0.100354
-1.09262
-0.125225
-1.07859
-0.150364
-1.06412
-0.175689
-1.05208
-0.201042
-1.0421
-0.226902
-1.03235
-0.253028
-1.02311
-0.279359
-1.01493
-0.305994
-1.00796
-0.332878
-0.999848
-0.359862
-0.99218
-0.387129
-0.985248
-0.414452
-0.980624
-0.973751
-0.440822
0.00988284
-0.427381
0.00799463
-0.952607
-0.0156229
-1.12098
-0.0426674
-1.11342
-0.0701654
-1.09526
-0.0977546
-1.07917
-0.125496
-1.06488
-0.153104
-1.05098
-0.180704
-1.03652
-0.208986
-1.0238
-0.237666
-1.01342
-0.266095
-1.00392
-0.294757
-0.994453
-0.323822
-0.985862
-0.352815
-0.978965
-0.381562
-0.971101
-0.410657
-0.963085
-0.4406
-0.955304
-0.471261
-0.949963
-0.943691
-0.501321
0.00689102
-0.434272
0.00102088
-0.946736
-0.0272155
-1.09274
-0.0581824
-1.08246
-0.0885914
-1.06485
-0.119075
-1.04869
-0.14918
-1.03477
-0.179167
-1.02099
-0.209172
-1.00652
-0.239171
-0.993804
-0.269363
-0.983228
-0.300061
-0.973221
-0.330841
-0.963673
-0.361963
-0.954741
-0.393438
-0.94749
-0.425054
-0.939484
-0.456554
-0.931585
-0.488343
-0.923515
-0.521846
-0.91646
-0.91079
-0.554747
0.00428827
-0.00785658
-0.0390137
-0.0723403
-0.105226
-0.138061
-0.170835
-0.203056
-0.234948
-0.267417
-0.300053
-0.33228
-0.364758
-0.39775
-0.430903
-0.46381
-0.497035
-0.531035
-0.566896
-0.605105
0.867396
-10.0954
10.1903
0.796405
-9.91852
9.98952
0.727422
-9.89587
9.96486
0.661372
-9.84184
9.90789
0.59986
-9.84983
9.91134
0.54419
-9.82917
9.88484
0.492934
-9.83404
9.8853
0.443274
-9.85027
9.89993
0.39701
-9.88366
9.92992
0.353099
-9.88729
9.9312
0.312503
-9.88517
9.92577
0.275094
-9.88671
9.92412
0.24075
-9.88554
9.91988
0.209356
-9.88351
9.9149
0.18066
-9.87641
9.90511
0.152933
-9.84306
9.87078
0.130525
-9.8028
9.82521
0.0995826
-9.28197
9.31291
0.051849
-7.5886
7.63633
-4.10314
4.15499
0.76754
-10.0084
0.697033
-9.84802
0.630418
-9.82926
0.570491
-9.78191
0.514316
-9.79365
0.460378
-9.77523
0.410615
-9.78428
0.365259
-9.80491
0.325191
-9.84359
0.287837
-9.84993
0.253905
-9.85124
0.223339
-9.85615
0.196209
-9.8584
0.172068
-9.85937
0.151095
-9.85544
0.130941
-9.8229
0.114631
-9.78649
0.0891259
-9.25646
0.0483508
-7.54782
-4.05479
0.66192
-9.92388
0.597207
-9.7833
0.534429
-9.76648
0.477055
-9.72454
0.426552
-9.74315
0.381952
-9.73063
0.341711
-9.74404
0.303396
-9.7666
0.269018
-9.80921
0.237165
-9.81808
0.208691
-9.82276
0.183389
-9.83085
0.161166
-9.83618
0.141827
-9.84003
0.125243
-9.83885
0.109742
-9.8074
0.0994155
-9.77616
0.0813544
-9.2384
0.04688
-7.51335
-4.00791
0.564773
-9.84178
0.500688
-9.71922
0.439433
-9.70523
0.387069
-9.67218
0.341455
-9.69753
0.298946
-9.68812
0.260544
-9.70564
0.226565
-9.73262
0.198256
-9.7809
0.172816
-9.79264
0.15085
-9.8008
0.132189
-9.81218
0.116978
-9.82097
0.104817
-9.82787
0.0959037
-9.82994
0.08779
-9.79929
0.0835906
-9.77196
0.0711891
-9.226
0.0435724
-7.48573
-3.96434
0.462056
-9.76277
0.401598
-9.65876
0.345492
-9.64912
0.296861
-9.62354
0.256495
-9.65717
0.222423
-9.65405
0.193098
-9.67631
0.165855
-9.70538
0.143044
-9.75809
0.122946
-9.77254
0.106292
-9.78414
0.0927955
-9.79869
0.082407
-9.81058
0.074921
-9.82038
0.0702983
-9.82532
0.0666737
-9.79566
0.0684178
-9.7737
0.0633919
-9.22097
0.042083
-7.46442
-3.92225
0.368739
-9.68654
0.309492
-9.59951
0.253942
-9.59357
0.208854
-9.57845
0.172984
-9.6213
0.141157
-9.62222
0.113708
-9.64886
0.0906386
-9.68231
0.0736898
-9.74114
0.0598306
-9.75868
0.0495004
-9.77381
0.0424386
-9.79163
0.0388374
-9.80698
0.0383926
-9.81994
0.0412669
-9.82819
0.0448066
-9.7992
0.0527046
-9.7816
0.0534517
-9.22172
0.0388669
-7.44984
-3.88339
0.269439
-9.61119
0.212118
-9.54219
0.162364
-9.54382
0.12168
-9.53777
0.0904336
-9.59005
0.066517
-9.5983
0.047874
-9.63022
0.0313588
-9.66579
0.019748
-9.72953
0.011059
-9.74999
0.00587792
-9.76863
0.00380935
-9.78956
0.00490303
-9.80807
0.00892935
-9.82396
0.0159515
-9.83521
0.0238452
-9.8071
0.0375794
-9.79534
0.0455267
-9.22967
0.0372295
-7.44154
-3.84616
0.179742
-9.53828
0.123817
-9.48627
0.0738741
-9.49388
0.0361756
-9.50007
0.00915967
-9.56304
-0.0123467
-9.5768
-0.0291655
-9.6134
-0.0417362
-9.65322
-0.0478012
-9.72347
-0.0504848
-9.74731
-0.049572
-9.76955
-0.0454221
-9.79371
-0.0378154
-9.81568
-0.0269558
-9.83482
-0.0127432
-9.84943
0.00210327
-9.82194
0.0219337
-9.81517
0.0356763
-9.24341
0.0340152
-7.43988
-3.81214
0.0840236
-9.46386
0.0303445
-9.43259
-0.0141226
-9.44941
-0.0474689
-9.46673
-0.0703021
-9.5402
-0.0846399
-9.56246
-0.093009
-9.60503
-0.0992551
-9.64697
-0.100165
-9.72256
-0.0978696
-9.7496
-0.0920194
-9.7754
-0.0830536
-9.80267
-0.0709677
-9.82777
-0.0558871
-9.8499
-0.0377456
-9.86757
-0.0186445
-9.84104
0.00684381
-9.84066
0.0275908
-9.26416
0.0322035
-7.44449
-3.77994
-0.00596519
-9.3849
-0.0567143
-9.38184
-0.0996035
-9.40652
-0.130359
-9.43597
-0.14849
-9.52207
-0.160741
-9.55021
-0.167275
-9.5985
-0.169752
-9.6445
-0.16548
-9.72683
-0.157478
-9.75761
-0.145783
-9.78709
-0.130887
-9.81757
-0.112555
-9.8461
-0.0909788
-9.87148
-0.0660379
-9.89251
-0.0401739
-9.86691
-0.00872548
-9.8721
0.0178531
-9.29073
0.0290508
-7.45569
-3.75089
-0.0935543
-9.30208
-0.145579
-9.32981
-0.182635
-9.36946
-0.210293
-9.40831
-0.224765
-9.5076
-0.230003
-9.54497
-0.228683
-9.59982
-0.225175
-9.64801
-0.216
-9.736
-0.203226
-9.77038
-0.186823
-9.80349
-0.167342
-9.83705
-0.144757
-9.86868
-0.119247
-9.89699
-0.0906174
-9.92114
-0.0606093
-9.89692
-0.0236925
-9.90902
0.00971343
-9.32414
0.027176
-7.47315
-3.72371
-0.178042
-9.21654
-0.229746
-9.27811
-0.265623
-9.33359
-0.289242
-9.38469
-0.299501
-9.49734
-0.303157
-9.54131
-0.299929
-9.60305
-0.292684
-9.65525
-0.278688
-9.75
-0.260551
-9.78852
-0.238601
-9.82544
-0.213481
-9.86217
-0.184958
-9.89721
-0.153345
-9.9286
-0.11835
-9.95613
-0.0818002
-9.93347
-0.0390829
-9.95174
-6.23149e-05
-9.36316
0.0241288
-7.49735
-3.69958
-0.260808
-9.12387
-0.312295
-9.22662
-0.344124
-9.30176
-0.365932
-9.36288
-0.372124
-9.49115
-0.368823
-9.54462
-0.358433
-9.61344
-0.345686
-9.668
-0.32713
-9.76856
-0.304458
-9.81119
-0.278039
-9.85186
-0.248567
-9.89164
-0.21602
-9.92975
-0.180763
-9.96386
-0.142308
-9.99459
-0.101768
-9.97401
-0.0538648
-9.99964
-0.00806545
-9.40896
0.0221475
-7.52756
-3.67744
-0.341669
-9.0262
-0.393425
-9.17487
-0.423456
-9.27173
-0.440286
-9.34605
-0.443274
-9.48816
-0.43896
-9.54893
-0.426464
-9.62593
-0.409907
-9.68456
-0.386853
-9.79161
-0.359175
-9.83887
-0.32753
-9.88351
-0.292738
-9.92643
-0.254573
-9.96792
-0.213625
-10.0048
-0.169259
-10.039
-0.122458
-10.0208
-0.0689934
-10.0531
-0.0175605
-9.46039
0.0191384
-7.56426
-3.6583
-0.418616
-8.91946
-0.469883
-9.1236
-0.497474
-9.24414
-0.513601
-9.32993
-0.511762
-9.49
-0.500597
-9.56009
-0.481777
-9.64475
-0.460268
-9.70606
-0.433013
-9.81887
-0.401055
-9.87082
-0.365186
-9.91938
-0.326271
-9.96535
-0.284299
-10.0099
-0.239982
-10.0491
-0.192358
-10.0866
-0.141797
-10.0714
-0.0835142
-10.1114
-0.025911
-9.518
0.0171161
-7.60728
-3.64118
-0.493561
-8.80539
-0.546809
-9.07035
-0.571971
-9.21897
-0.583252
-9.31865
-0.579458
-9.49379
-0.567491
-9.57206
-0.546295
-9.66595
-0.520905
-9.73145
-0.489449
-9.85032
-0.452848
-9.90743
-0.412095
-9.96013
-0.368204
-10.0092
-0.320945
-10.0572
-0.27134
-10.0987
-0.218232
-10.1397
-0.161801
-10.1278
-0.0982774
-10.1749
-0.0351845
-9.58109
0.0144703
-7.65694
-3.62671
-0.565287
-8.68092
-0.618115
-9.01752
-0.641696
-9.19539
-0.652041
-9.3083
-0.642931
-9.5029
-0.624628
-9.59036
-0.598081
-9.6925
-0.568284
-9.76125
-0.532991
-9.88561
-0.492398
-9.94802
-0.447685
-10.0048
-0.39994
-10.057
-0.349111
-10.108
-0.296384
-10.1515
-0.240187
-10.1959
-0.180279
-10.1877
-0.112392
-10.2428
-0.0434924
-9.64999
0.0121205
-7.71255
-3.61459
-0.637406
-8.54484
-0.691655
-8.96327
-0.711362
-9.17569
-0.717848
-9.30182
-0.707775
-9.51298
-0.688539
-9.6096
-0.659261
-9.72178
-0.625451
-9.79506
-0.586109
-9.92496
-0.541173
-9.99295
-0.491892
-10.0541
-0.439503
-10.1094
-0.383702
-10.1638
-0.326036
-10.2091
-0.264702
-10.2572
-0.199362
-10.253
-0.126318
-10.3158
-0.0519842
-9.72432
0.00945754
-7.77399
-3.60513
-0.695341
-8.40424
-0.758534
-8.90008
-0.778446
-9.15577
-0.78299
-9.29727
-0.767344
-9.52862
-0.742415
-9.63453
-0.708504
-9.75569
-0.670558
-9.83301
-0.627363
-9.96815
-0.578674
-10.0416
-0.525628
-10.1072
-0.469596
-10.1654
-0.410462
-10.2229
-0.34995
-10.2696
-0.285581
-10.3216
-0.217024
-10.3216
-0.1402
-10.3927
-0.0605207
-9.804
0.00711737
-7.84163
-3.59802
-0.749378
-8.25997
-0.820531
-8.82893
-0.836799
-9.13951
-0.839056
-9.29502
-0.824249
-9.54343
-0.798171
-9.66061
-0.762483
-9.79137
-0.721119
-9.87437
-0.674964
-10.0143
-0.622569
-10.094
-0.565831
-10.1639
-0.505623
-10.2256
-0.442356
-10.2862
-0.377284
-10.3347
-0.308551
-10.3903
-0.234523
-10.3956
-0.154605
-10.4726
-0.0687489
-9.88986
0.00479451
-7.91518
-3.59322
8.61933
-7.82086
-9.05844
7.90977
-8.11937
7.21804
-8.44777
6.59285
-8.66983
5.98653
-8.9371
5.43402
-9.1081
4.93649
-9.29384
4.49823
-9.43611
4.07095
-9.58703
3.65756
-9.68065
3.26401
-9.77035
2.88725
-9.84885
2.51758
-9.91652
2.15787
-9.975
1.80014
-10.0326
1.51144
-10.1069
1.16636
-10.1275
0.793927
-9.51743
0.325375
-7.44662
-3.26785
5.25728
-7.69851
-5.37964
5.03425
-7.89634
4.75513
-8.16865
4.48397
-8.39867
4.18655
-8.63968
3.8988
-8.82036
3.60059
-8.99564
3.3027
-9.13821
2.98466
-9.26899
2.67809
-9.37409
2.38506
-9.47732
2.10288
-9.56667
1.83542
-9.64906
1.58735
-9.72693
1.35266
-9.7979
1.12678
-9.88105
0.864358
-9.86508
0.580909
-9.23398
0.180779
-7.04649
-3.08707
3.91699
-7.73372
-3.88178
3.90187
-7.88123
3.83801
-8.10479
3.73149
-8.29214
3.56973
-8.47792
3.38413
-8.63476
3.17453
-8.78603
2.95336
-8.91704
2.72151
-9.03714
2.49455
-9.14713
2.26493
-9.2477
2.03439
-9.33614
1.80012
-9.41478
1.56427
-9.49108
1.32445
-9.55808
1.0743
-9.63091
0.8208
-9.61157
0.555436
-8.96862
0.233425
-6.72448
-2.85364
2.66641
-7.82658
-2.57355
2.72453
-7.93934
2.7094
-8.08967
2.66107
-8.24381
2.57787
-8.39472
2.46874
-8.52563
2.33253
-8.64983
2.17749
-8.76199
2.01128
-8.87093
1.83654
-8.97239
1.6559
-9.06705
1.4752
-9.15544
1.29671
-9.2363
1.12095
-9.31532
0.947936
-9.38506
0.780678
-9.46365
0.612952
-9.44385
0.432668
-8.78833
0.180311
-6.47212
-2.67333
2.02397
-7.91744
-1.93311
2.08116
-7.99653
2.11641
-8.12492
2.11981
-8.2472
2.07985
-8.35476
2.01544
-8.46122
1.92949
-8.56388
1.82666
-8.65916
1.70791
-8.75218
1.57705
-8.84153
1.43843
-8.92844
1.2911
-9.00811
1.1398
-9.085
0.981921
-9.15744
0.822661
-9.2258
0.652501
-9.29349
0.485952
-9.2773
0.33911
-8.64149
0.168184
-6.3012
-2.50515
1.45693
-7.9949
-1.37947
1.52408
-8.06368
1.55221
-8.15305
1.53924
-8.23423
1.50726
-8.32278
1.45518
-8.40914
1.38706
-8.49576
1.30464
-8.57675
1.21202
-8.65957
1.10817
-8.73768
0.997021
-8.81728
0.881394
-8.89248
0.76418
-8.96778
0.646503
-9.03976
0.52826
-9.10756
0.412739
-9.17797
0.305069
-9.16963
0.223732
-8.56015
0.125747
-6.20321
-2.3794
1.083
-8.05569
-1.02221
1.12545
-8.10612
1.14288
-8.17048
1.15519
-8.24654
1.15139
-8.31898
1.12411
-8.38186
1.08137
-8.45302
1.02293
-8.5183
0.951528
-8.58817
0.866932
-8.65308
0.772481
-8.72283
0.668647
-8.78865
0.559068
-8.8582
0.443151
-8.92384
0.327387
-8.9918
0.207331
-9.05791
0.0867366
-9.04903
0.0407749
-8.51419
0.0571283
-6.21957
-2.32227
0.821834
-8.09166
-0.785863
0.856878
-8.14117
0.875856
-8.18946
0.871713
-8.2424
0.842306
-8.28958
0.802966
-8.34252
0.75182
-8.40187
0.693464
-8.45995
0.624458
-8.51916
0.547259
-8.57588
0.46371
-8.63928
0.371899
-8.69684
0.27506
-8.76136
0.172625
-8.82141
0.0666552
-8.88583
-0.0425785
-8.94868
-0.140076
-8.95154
-0.146239
-8.50803
0.00538647
-6.37119
-2.31689
0.596517
-8.11741
-0.570763
0.606573
-8.15122
0.608005
-8.19089
0.595317
-8.22971
0.578563
-8.27282
0.552545
-8.3165
0.513241
-8.36257
0.460956
-8.40766
0.400515
-8.45872
0.331239
-8.50661
0.252756
-8.5608
0.165122
-8.6092
0.070115
-8.66636
-0.0340934
-8.7172
-0.142368
-8.77755
-0.258574
-8.83247
-0.35677
-8.85334
-0.345824
-8.51898
-0.0953123
-6.6217
-2.4122
0.453058
-8.12959
-0.440885
0.454999
-8.15316
0.449735
-8.18563
0.435399
-8.21537
0.408656
-8.24608
0.370442
-8.27829
0.325346
-8.31747
0.270202
-8.35252
0.205838
-8.39436
0.132683
-8.43345
0.0517988
-8.47992
-0.0364599
-8.52094
-0.132285
-8.57053
-0.237365
-8.61212
-0.349277
-8.66564
-0.469927
-8.71182
-0.576371
-8.7469
-0.576827
-8.51852
-0.260673
-6.93786
-2.67287
0.309193
-8.12621
-0.312568
0.300105
-8.14408
0.283881
-8.1694
0.256893
-8.18839
0.226338
-8.21553
0.190108
-8.24206
0.144213
-8.27158
0.0918868
-8.30019
0.0313523
-8.33382
-0.0375015
-8.3646
-0.117107
-8.40031
-0.204102
-8.43395
-0.301256
-8.47338
-0.404654
-8.50872
-0.519599
-8.5507
-0.644217
-8.5872
-0.763928
-8.62719
-0.78863
-8.49382
-0.463887
-7.2626
-3.13676
0.209202
-8.11848
-0.216937
0.196813
-8.13169
0.179497
-8.15208
0.156785
-8.16567
0.126583
-8.18532
0.0865821
-8.20206
0.0392162
-8.22421
-0.0142048
-8.24677
-0.076688
-8.27134
-0.146812
-8.29447
-0.227692
-8.31943
-0.314449
-8.34719
-0.412603
-8.37522
-0.518492
-8.40283
-0.637581
-8.43161
-0.767361
-8.45742
-0.907029
-8.48752
-0.961849
-8.439
-0.70254
-7.52191
-3.8393
0.136037
-8.1021
-0.15242
0.115133
-8.11078
0.0869436
-8.12389
0.0547855
-8.13352
0.0185378
-8.14908
-0.0208071
-8.16271
-0.0639992
-8.18102
-0.117404
-8.19337
-0.177975
-8.21077
-0.244579
-8.22787
-0.318331
-8.24568
-0.402042
-8.26348
-0.49444
-8.28282
-0.59395
-8.30332
-0.707841
-8.31772
-0.830418
-8.33485
-0.977777
-8.34016
-1.09522
-8.32156
-0.905604
-7.71152
-4.7449
0.0749117
-8.08544
-0.091569
0.0554719
-8.09135
0.0325185
-8.10094
0.00634367
-8.10734
-0.0236005
-8.11913
-0.0593458
-8.12697
-0.103527
-8.13684
-0.150778
-8.14611
-0.20088
-8.16067
-0.259073
-8.16968
-0.32326
-8.18149
-0.395683
-8.19106
-0.476915
-8.20159
-0.571341
-8.2089
-0.675246
-8.21381
-0.789926
-8.22017
-0.918728
-8.21136
-1.03513
-8.20515
-0.889335
-7.85732
-5.63424
0.0258015
-8.06565
-0.0455941
0.0035637
-8.06911
-0.0217482
-8.07563
-0.0486136
-8.08048
-0.0795014
-8.08824
-0.113666
-8.0928
-0.15051
-8.09999
-0.189808
-8.10682
-0.236107
-8.11437
-0.287195
-8.11859
-0.342533
-8.12615
-0.402345
-8.13125
-0.46624
-8.1377
-0.536784
-8.13835
-0.610451
-8.14014
-0.692247
-8.13837
-0.775133
-8.12847
-0.861382
-8.11891
-0.766097
-7.9526
-6.40033
-0.0119116
-8.05217
-0.00156114
-0.0267253
-8.05429
-0.0438525
-8.0585
-0.0635049
-8.06082
-0.0865211
-8.06523
-0.112517
-8.06681
-0.140947
-8.07156
-0.174281
-8.07348
-0.210516
-8.07813
-0.249341
-8.07976
-0.292451
-8.08304
-0.340156
-8.08354
-0.390823
-8.08703
-0.444401
-8.08478
-0.499328
-8.08522
-0.55775
-8.07995
-0.608873
-8.07735
-0.663369
-8.06441
-0.617347
-7.99862
-7.01768
-0.0299791
-8.03884
0.0166474
-0.0443841
-8.03989
-0.0610021
-8.04188
-0.079313
-8.04251
-0.0996525
-8.04489
-0.121275
-8.04519
-0.144682
-8.04816
-0.16833
-8.04983
-0.193973
-8.05249
-0.220869
-8.05287
-0.248574
-8.05534
-0.277018
-8.0551
-0.306403
-8.05765
-0.335854
-8.05532
-0.364516
-8.05655
-0.393276
-8.05119
-0.419211
-8.05141
-0.437672
-8.04595
-0.414999
-8.0213
-7.43268
-0.0346392
-8.02964
0.0254368
-0.0446668
-8.02986
-0.0561714
-8.03038
-0.0686285
-8.03006
-0.0828683
-8.03065
-0.0975236