/*--------------------------------*- C++ -*----------------------------------*\
  =========                 |
  \\      /  F ield         | OpenFOAM: The Open Source CFD Toolbox
   \\    /   O peration     | Website:  https://openfoam.org
    \\  /    A nd           | Version:  9
     \\/     M anipulation  |
\*---------------------------------------------------------------------------*/
FoamFile
{
    format      ascii;
    class       volScalarField;
    location    "7";
    object      nut;
}
// * * * * * * * * * * * * * * * * * * * * * * * * * * * * * * * * * * * * * //

dimensions      [0 2 -1 0 0 0 0];

internalField   nonuniform List<scalar> 
46400
(
0.0170262
0.00488066
0.00132017
0.00137162
0.00127636
0.00127586
0.00120796
0.00117567
0.00111927
0.00109675
0.00105813
0.00102033
0.000990096
0.000972597
0.000941047
0.000940327
0.000892215
0.000817114
0.00110453
0.000921465
0.0166336
0.00398634
0.00120532
0.00140348
0.00129602
0.0012911
0.00122212
0.00121349
0.00115222
0.00112422
0.00109394
0.00105717
0.0010068
0.000968776
0.00093814
0.000900935
0.000865718
0.00080668
0.00102362
0.000885126
0.0161617
0.00361226
0.00120868
0.00141145
0.00130684
0.00130209
0.0012302
0.00119278
0.00114389
0.00111867
0.0010913
0.00106189
0.00104109
0.00100694
0.000988484
0.000954487
0.000877429
0.000818204
0.00110497
0.000975098
0.0154969
0.00468239
0.00135359
0.00146577
0.00135884
0.00134442
0.00127796
0.00124416
0.001172
0.00112775
0.0011031
0.00107207
0.00103733
0.00100237
0.000979718
0.000992885
0.000956711
0.000839384
0.00108949
0.000983842
0.0148719
0.00450297
0.00138932
0.00149141
0.00137289
0.00135865
0.0012841
0.00124679
0.00118705
0.00112458
0.00107325
0.00103333
0.00101328
0.0009792
0.000941957
0.000919632
0.000929951
0.000874022
0.00111927
0.0010312
0.0140706
0.00422566
0.00146683
0.00155098
0.00142479
0.00139579
0.00134164
0.00130168
0.00125651
0.00120045
0.00115785
0.00109527
0.00106045
0.00103401
0.00100425
0.000945864
0.000894508
0.000835592
0.00106416
0.00100027
0.0130271
0.00329877
0.0014339
0.00150976
0.0014029
0.00135699
0.0012988
0.00125556
0.00123023
0.00118045
0.00114983
0.00108757
0.00103444
0.000993863
0.000984191
0.000966897
0.000922918
0.00086145
0.00106342
0.00100602
0.0103524
0.00254914
0.00151267
0.00150181
0.00143711
0.00137004
0.00133199
0.00126983
0.00124802
0.00120261
0.0012002
0.00118376
0.0011429
0.00106941
0.00102066
0.000984174
0.000930815
0.000858152
0.00101633
0.000972209
0.00814959
0.00206262
0.00149151
0.00144022
0.00139048
0.00130952
0.00126833
0.00120632
0.00118863
0.00112682
0.00107535
0.00105886
0.00107677
0.00107269
0.00104828
0.00102461
0.000986777
0.00091853
0.00104309
0.000997804
0.00647903
0.00182596
0.0015229
0.00147114
0.00146502
0.00136759
0.00131606
0.00122036
0.00119278
0.00117388
0.00112627
0.00105141
0.000999271
0.000979724
0.000970923
0.000950502
0.000928909
0.000881682
0.000979258
0.000959924
0.00530119
0.00164448
0.00150186
0.00139397
0.00141197
0.00137601
0.001357
0.00125792
0.00118365
0.00114365
0.00113637
0.00110593
0.00105702
0.000999467
0.000989182
0.000963448
0.000936605
0.000892911
0.000969804
0.000948207
0.00451141
0.00161185
0.00154178
0.00141974
0.00141131
0.00137681
0.00142277
0.00137983
0.00128732
0.00118533
0.0011399
0.00109356
0.00106437
0.000997915
0.000961717
0.000947194
0.000921404
0.000892654
0.000956405
0.000938355
0.00395968
0.00148523
0.00146379
0.00138591
0.00134762
0.00121956
0.001229
0.00126631
0.00130404
0.00127018
0.00124272
0.00120129
0.00116675
0.00112264
0.00105534
0.00101652
0.000978925
0.000929172
0.000996042
0.000960592
0.00415105
0.00163342
0.00161443
0.00154346
0.00152662
0.00139402
0.0012678
0.00120801
0.00116138
0.00112433
0.00109306
0.00109034
0.00107537
0.00105985
0.00103125
0.000990669
0.000957914
0.000904799
0.000949596
0.000930406
0.00407428
0.00157945
0.00147461
0.00143536
0.00147324
0.00146125
0.00135239
0.00129398
0.00125251
0.00119733
0.00113516
0.00109069
0.00107806
0.00105539
0.00104567
0.00102374
0.000991102
0.000937894
0.000969047
0.00092128
0.00333141
0.00176425
0.00147836
0.00140721
0.00135158
0.00139478
0.00140827
0.00135618
0.00132132
0.00129068
0.00123343
0.00116927
0.00111903
0.00108067
0.00104485
0.0010181
0.000994065
0.000939408
0.000964955
0.00092794
0.00220293
0.00168259
0.00165519
0.00156299
0.00140894
0.00137525
0.00132228
0.00129777
0.00124671
0.0012315
0.00120669
0.00116749
0.0011343
0.00109504
0.00107093
0.00103417
0.00101267
0.000954722
0.000978673
0.00094608
0.0015175
0.0015322
0.00186265
0.00165276
0.00160395
0.00146485
0.00134946
0.00130302
0.00124771
0.00120007
0.00118408
0.00113198
0.00110838
0.0010591
0.00103563
0.00100427
0.000981672
0.000937026
0.000955431
0.000924242
0.00190376
0.00155269
0.00145885
0.00154275
0.00146795
0.00142389
0.00140383
0.00135527
0.00130716
0.00125963
0.00121523
0.00118879
0.00114697
0.00111805
0.0010788
0.00105075
0.00101493
0.000968105
0.000975237
0.000959598
0.00308027
0.00166196
0.00141236
0.00146583
0.00143361
0.00144479
0.00143651
0.00136442
0.00132882
0.00128936
0.0012423
0.00121076
0.00115807
0.00113914
0.00108959
0.00107703
0.0010343
0.000997336
0.00100584
0.000962927
0.000515255
0.000455501
0.00593093
0.00989864
0.00918172
0.00509008
0.00185509
0.000454026
0.000119832
0.000187119
0.000282376
0.00026421
0.00018901
0.000277026
0.000304109
0.00030421
0.000209809
0.000142244
0.000164004
0.000237978
3.75946e-24
0.00383291
0.00865702
0.0103181
0.00676778
0.00278686
0.000681561
0.000129567
0.000193023
0.000292258
0.00028599
0.000240487
0.000290734
0.000328714
0.000259948
0.000225009
0.00019447
0.000193596
0.000173499
0.000246136
0.000305665
0.00634345
0.0102335
0.0090914
0.0045661
0.00123129
0.000103015
0.000172229
0.000281286
0.000319064
0.00030288
0.000309162
0.000287909
0.000286786
0.000266378
0.000299238
0.000212971
0.000165493
0.000160939
0.000306094
0.00155211
0.00878618
0.0108446
0.00719999
0.00238351
0.000243215
6.95795e-05
0.000296409
0.000341696
0.000333721
0.000330562
0.000287057
0.000309939
0.000356619
0.000321781
0.000244549
0.000140782
0.000200043
0.000227913
0.000348686
0.00403092
0.00974215
0.01044
0.00541496
0.000952023
0.000159272
0.000307895
0.000354163
0.000362377
0.000369724
0.000347319
0.000356661
0.000379165
0.00035267
0.000267931
0.000253713
0.000209902
0.000250994
0.000256049
0.000399156
0.00623329
0.0109647
0.00927619
0.00316452
0.000208301
0.000221032
0.00039253
0.000440395
0.000413457
0.000422648
0.00041666
0.000379384
0.000372677
0.000378215
0.000344144
0.000279666
0.000169168
0.000250547
0.000319283
0.000459136
0.00809363
0.011445
0.00818413
0.00143294
0.00019842
0.000408101
0.00052498
0.000496141
0.000471668
0.000483782
0.000439683
0.000430386
0.000464358
0.000429225
0.000308112
0.000274662
0.000225632
0.000352665
0.000399608
0.000504354
0.0104103
0.0116183
0.00683821
0.000521363
0.000262696
0.000583771
0.00059702
0.000522671
0.000543842
0.000531611
0.000515905
0.000490648
0.000465038
0.000425131
0.000380171
0.000331613
0.00022957
0.000375546
0.000457929
0.000554672
0.0123818
0.0115736
0.00481249
0.000293365
0.00046212
0.000644131
0.000660834
0.000621051
0.000600889
0.000609313
0.000551838
0.000522802
0.000549108
0.000506298
0.000381563
0.000336369
0.000285321
0.00048632
0.00053386
0.00059098
0.0145299
0.0113177
0.00304995
0.000174119
0.000705415
0.000787179
0.000715835
0.000658746
0.000667046
0.000643019
0.00061709
0.000594418
0.000560248
0.000498353
0.000452889
0.000405571
0.000336312
0.000503234
0.000561176
0.000624636
0.0151937
0.0108974
0.00195323
0.00026556
0.000787849
0.000803852
0.000796041
0.000746512
0.000720411
0.000722209
0.000659793
0.000617579
0.000634129
0.000594323
0.000487927
0.000438195
0.000415953
0.000603568
0.000627164
0.000677078
0.0161229
0.0105736
0.00125334
0.000485178
0.000934362
0.00090412
0.000843188
0.00077233
0.000771917
0.000742315
0.000707498
0.000680409
0.000642076
0.000589704
0.000560432
0.000512004
0.000478644
0.000612898
0.000621079
0.000690937
0.0167341
0.0100569
0.00111538
0.000678907
0.000953012
0.00090305
0.000914253
0.000845614
0.000809127
0.000809383
0.000745201
0.00069985
0.000709605
0.000681835
0.000606494
0.000561209
0.000569887
0.000698007
0.00068255
0.000755985
0.017214
0.00969418
0.00108155
0.000818104
0.00109571
0.000989402
0.000959665
0.000881424
0.000861089
0.00083171
0.000792114
0.000753945
0.000711327
0.000683425
0.000674679
0.000621391
0.000615196
0.000715546
0.000653927
0.000756376
0.0176154
0.00932472
0.00182012
0.000977764
0.00109572
0.00101019
0.00101148
0.000941214
0.000887093
0.000886868
0.000824707
0.000781374
0.000773388
0.000750323
0.000707046
0.000672935
0.000694185
0.000777527
0.00068552
0.000786479
0.0177355
0.0090508
0.00205325
0.00102319
0.00120817
0.00107993
0.00105713
0.000992997
0.000950711
0.000924652
0.00088723
0.000841072
0.000798649
0.000782052
0.000778898
0.000736144
0.000746235
0.000814033
0.000663915
0.000776548
0.0178777
0.00883644
0.00189915
0.00110695
0.00121841
0.00112097
0.00109826
0.00104292
0.000974487
0.000974424
0.000921543
0.000885145
0.000859668
0.000837557
0.000810562
0.000791739
0.000808849
0.000848857
0.000668268
0.000785334
0.0177727
0.00786123
0.0016928
0.00114082
0.00126219
0.00118237
0.00113478
0.00110495
0.00104687
0.00102311
0.000994313
0.000951508
0.000918951
0.000902709
0.000882926
0.000865991
0.000876603
0.000892017
0.000649695
0.000767058
0.0176419
0.00683687
0.00188426
0.0012435
0.00126175
0.00122045
0.00117156
0.00113308
0.00106703
0.00106269
0.00102334
0.00099541
0.000965428
0.000955767
0.000930123
0.000904958
0.000929273
0.000929084
0.000670606
0.000776206
0.0173642
0.00575866
0.00165562
0.00129039
0.00128188
0.00126006
0.00119384
0.00119003
0.0011262
0.0011037
0.00108339
0.00105602
0.00103647
0.00102119
0.00101325
0.00100724
0.00102018
0.000989598
0.000827172
0.000882896
0.00321202
0.00256177
0.00217062
0.00191628
0.00166451
0.0014138
0.00130178
0.00115322
0.00086466
0.000769215
0.000716876
0.000715732
0.000670801
0.000628449
0.000561642
0.000677404
0.000388201
0.00576908
0.010634
0.0157756
0.00325124
0.00267078
0.00228979
0.00189911
0.00164312
0.0014883
0.00137684
0.00113975
0.000821933
0.000762153
0.000719599
0.000716815
0.00065966
0.000609298
0.000532322
0.000638323
0.000294697
0.00576961
0.0105697
0.0157205
0.0036376
0.00250539
0.00223953
0.00191285
0.00165013
0.00142188
0.00129901
0.00110486
0.000837198
0.000790998
0.000746642
0.0007496
0.000685126
0.000635846
0.000554541
0.00064743
0.000256262
0.00576216
0.0106287
0.0156391
0.00383179
0.00262037
0.00231508
0.00184176
0.00164372
0.00150127
0.00135118
0.00107328
0.000803186
0.000796593
0.000747659
0.000748776
0.000679182
0.000622602
0.000539545
0.000622145
0.000166894
0.00575748
0.0105778
0.0155763
0.00410331
0.00250698
0.00229272
0.00186371
0.00160018
0.00141481
0.00128586
0.0010602
0.00082736
0.000828319
0.00077985
0.000783497
0.00070843
0.000660412
0.000555561
0.000646567
9.96125e-05
0.00575001
0.0106263
0.0154916
0.00435183
0.00262574
0.00227978
0.00180129
0.00163565
0.00151399
0.00131879
0.00101923
0.000807869
0.000838669
0.000774586
0.000780643
0.000705882
0.000656022
0.000550309
0.000627222
8.62958e-05
0.00574398
0.0105864
0.0154354
0.00450136
0.00254546
0.00229639
0.00184295
0.00156708
0.00140275
0.00126035
0.00101624
0.000834064
0.00086975
0.000807854
0.000816406
0.000735095
0.000696695
0.000559832
0.000642532
7.6792e-05
0.00572469
0.0106228
0.0153603
0.00470911
0.00264118
0.00226417
0.00183973
0.00160382
0.0014941
0.00128309
0.000971251
0.000824115
0.000878945
0.000796187
0.000809585
0.000733243
0.000695716
0.000561838
0.000615834
8.66144e-05
0.00570188
0.0105972
0.0153205
0.00484189
0.00258852
0.00231649
0.00186321
0.00153434
0.00139373
0.00124028
0.00097181
0.000848821
0.000908272
0.000829785
0.000844085
0.000759946
0.000734931
0.000577
0.000631279
7.1224e-05
0.00567433
0.0106005
0.0152877
0.00498642
0.00268084
0.00230229
0.00193386
0.00155525
0.00144851
0.00124654
0.000922519
0.000843061
0.000915708
0.000812997
0.000833819
0.000754799
0.000734397
0.000584071
0.000605229
8.35072e-05
0.00564651
0.0106063
0.0152635
0.00501152
0.00269179
0.00237857
0.00189442
0.00147577
0.00138205
0.0012257
0.000937868
0.000863232
0.000934481
0.000848535
0.00086613
0.000776745
0.000769775
0.000609672
0.000617562
7.10334e-05
0.00561317
0.0105984
0.0152558
0.00521721
0.00277186
0.00232298
0.00198901
0.00153278
0.00142272
0.00120365
0.000894718
0.000858216
0.000936274
0.00082773
0.0008504
0.00076941
0.000767651
0.00061715
0.000598051
8.11432e-05
0.00557171
0.0105879
0.015234
0.00518111
0.00277116
0.00237978
0.00191928
0.00145525
0.00138204
0.00118516
0.000933737
0.000875187
0.000938422
0.000864532
0.000881436
0.000789276
0.000801255
0.000641697
0.000603717
7.68578e-05
0.00553432
0.0106001
0.0152206
0.00543549
0.00280114
0.00228963
0.00199725
0.00154216
0.00141945
0.00114773
0.000902176
0.000873064
0.000937384
0.000835096
0.000861228
0.000784682
0.000792272
0.00064555
0.000596184
7.99301e-05
0.00551505
0.0105949
0.0152218
0.00533452
0.00272701
0.00231995
0.00197007
0.00150203
0.00137943
0.00113651
0.000952177
0.0008902
0.000932941
0.000871469
0.000887317
0.000804132
0.000816671
0.000655071
0.000606697
0.000143253
0.00550041
0.0106102
0.0152234
0.00539937
0.00277071
0.00229032
0.0019956
0.00156641
0.00139978
0.0010977
0.000927048
0.00089292
0.000927905
0.00083331
0.000864966
0.000800531
0.000803078
0.000654758
0.000601504
0.000232097
0.00547052
0.0106619
0.0152515
0.00540861
0.00278455
0.00228957
0.00200369
0.00156253
0.00136865
0.00109867
0.000978475
0.000916183
0.000926205
0.000870777
0.00088203
0.000811814
0.000815393
0.000661105
0.000619071
0.000329007
0.00538375
0.0106154
0.0152457
0.00537188
0.0028509
0.00228784
0.00201788
0.00161952
0.0013842
0.00108178
0.000997922
0.000946277
0.000930006
0.000844607
0.000864771
0.000802289
0.000797043
0.000674713
0.000664435
0.000417832
0.00544721
0.0106485
0.0152285
0.005257
0.00278732
0.00219804
0.00198573
0.00154617
0.00131673
0.00105252
0.00100887
0.000945013
0.000911356
0.000863185
0.000860482
0.000792619
0.000795865
0.000661941
0.000646213
0.00046754
0.00542784
0.0107481
0.0154581
0.005634
0.00302851
0.00240857
0.00202727
0.00160663
0.00135229
0.001089
0.00107017
0.000995502
0.000927546
0.000852836
0.000857766
0.000792369
0.000785437
0.000697588
0.000681695
0.0004929
0.00504183
0.0105899
0.0149608
0.0194219
0.0292784
0.0151813
0.0199928
0.016693
0.0146307
0.0121992
0.011972
0.0107901
0.0101781
0.00929927
0.00885395
0.00792296
0.00761848
0.00691471
0.00720052
0.0124628
0.0482763
0.100235
0.137597
0.027916
0.0205199
0.0181739
0.0149278
0.0139467
0.0119632
0.0112741
0.010273
0.00882608
0.00841623
0.007423
0.00704302
0.00641253
0.00608949
0.00576347
0.00523353
0.0126348
0.0455062
0.0989855
0.13559
0.0126665
0.0151295
0.013323
0.0106985
0.0099377
0.00894339
0.00857982
0.00803834
0.00766111
0.00700832
0.006648
0.00625031
0.0060389
0.00580677
0.00552711
0.0053751
0.00996955
0.043877
0.0961655
0.133088
0.012155
0.0107524
0.00915552
0.00759142
0.00741713
0.00717438
0.00703043
0.00645119
0.00618208
0.00591518
0.00563522
0.00533542
0.00506
0.00477103
0.00463091
0.00351718
0.0105044
0.0388517
0.0960308
0.128892
0.00552384
0.00706038
0.00690023
0.00605729
0.00568274
0.0053026
0.00534468
0.00545967
0.00516399
0.00491897
0.00472925
0.00459697
0.00451061
0.0045775
0.00427318
0.00369807
0.00518025
0.0374102
0.0959642
0.126939
0.00563118
0.00570914
0.00492059
0.00450761
0.00405041
0.00401009
0.00396851
0.00403835
0.00422512
0.00427482
0.00422917
0.00418832
0.00403138
0.00400715
0.00394705
0.00267696
0.00658061
0.0317208
0.096201
0.125927
0.0028133
0.00322475
0.00334869
0.00316924
0.00312052
0.00321725
0.00353264
0.00362334
0.00354907
0.00351205
0.00348372
0.00346435
0.00338817
0.00355871
0.00363473
0.00334177
0.00223448
0.0279834
0.0965157
0.128945
0.00241491
0.00269186
0.00259929
0.0024902
0.00244322
0.00232084
0.00250805
0.00261684
0.00290943
0.00301519
0.00310981
0.00334017
0.00332246
0.00362153
0.00376079
0.00279632
0.00426946
0.0188834
0.0957408
0.132874
0.00129442
0.00154309
0.00134493
0.00132806
0.00181469
0.00199007
0.00228733
0.00248453
0.00242443
0.00258793
0.00261742
0.00285434
0.00275168
0.00312244
0.00344681
0.00398412
0.00245454
0.0164205
0.091876
0.14702
0.00100047
0.00114684
0.00118252
0.00126972
0.00129849
0.00149426
0.00151347
0.00170917
0.00186816
0.00211197
0.00227482
0.00257893
0.00276859
0.00302924
0.00322725
0.00356766
0.00302584
0.00848849
0.0798996
0.155763
0.000289222
0.000647401
0.000665241
0.000833792
0.000903027
0.001133
0.00141171
0.0015902
0.00146243
0.00182603
0.0018521
0.0021509
0.00226517
0.0027124
0.00298064
0.00379559
0.00316253
0.00606298
0.0625968
0.17133
0.000352346
0.000412626
0.000478129
0.000572983
0.000566404
0.000627356
0.000784998
0.00100754
0.00112316
0.00136181
0.0015481
0.00179567
0.0020284
0.00219785
0.00256362
0.00275408
0.00374968
0.00490263
0.0442842
0.192829
0.000134337
0.000229725
0.000294889
0.000439571
0.000534587
0.000662215
0.000695227
0.000848007
0.000851824
0.000998902
0.00105191
0.00127598
0.00140163
0.00168186
0.00186499
0.00222709
0.00313353
0.00765037
0.0211583
0.138557
0.000209228
0.000234347
0.000231105
0.000262967
0.000208684
0.000214046
0.000442066
0.000541743
0.000665305
0.000814059
0.000873389
0.00108129
0.00115373
0.00147624
0.00148652
0.00208573
0.00196163
0.00446352
0.0107861
0.0924203
0.000276675
0.000291555
0.000186703
0.000300621
0.000224901
0.000362391
0.000219944
0.000429911
0.000381755
0.000538098
0.00061098
0.000749148
0.000857559
0.0010286
0.00121214
0.00143818
0.00180824
0.00280116
0.00320745
0.0555548
0.00034871
0.0003544
0.000367709
0.000402042
0.000440726
0.000442328
0.000476374
0.000502149
0.000533116
0.000615179
0.000667904
0.000753432
0.000851068
0.000926206
0.00116805
0.00135763
0.0015661
0.00154383
0.00175789
0.0302095
0.000451615
0.000437762
0.000455604
0.000449939
0.000457418
0.000488109
0.000501486
0.000528536
0.00055655
0.000595041
0.000642676
0.000677626
0.000676969
0.000904744
0.00102011
0.00117916
0.00145365
0.0017373
0.0035367
0.00927455
0.000554801
0.000571869
0.000571524
0.000572054
0.000587273
0.000598446
0.000585497
0.000596292
0.000600296
0.000623021
0.000633179
0.000682915
0.000697924
0.000780413
0.000589899
0.000839891
0.000883475
0.00110074
0.00228587
0.00504824
0.000503636
0.000495132
0.000557839
0.000558086
0.00056588
0.000574097
0.000565675
0.000585467
0.000569566
0.000575507
0.000563606
0.000570627
0.000527677
0.000537037
0.000455414
0.00061989
0.000420424
0.000652662
0.000936976
0.0016632
0.000370803
0.000386927
0.000393033
0.000399233
0.000393877
0.000424308
0.00040778
0.000452106
0.000429151
0.000472234
0.00045591
0.000503123
0.000471283
0.000515492
0.000415905
0.000396888
0.000271302
0.000314731
0.000368411
0.000589714
0.0141427
0.0140781
0.0138389
0.0138641
0.0136327
0.013636
0.0134712
0.0133562
0.0130488
0.0128631
0.0125536
0.0119749
0.0116012
0.0111712
0.0103676
0.0103011
0.00967756
0.00913202
0.00700585
0.00765561
0.00698086
0.00698925
0.00691725
0.0069037
0.00681106
0.00677754
0.00671878
0.00663585
0.00635308
0.00637296
0.00618373
0.00638169
0.00646846
0.00617921
0.00652933
0.00708332
0.00645614
0.00678468
0.00633563
0.00721002
0.00422226
0.00420202
0.00421717
0.00421676
0.00424206
0.00427784
0.00430687
0.00436837
0.00448068
0.00444696
0.00430276
0.00434333
0.00417354
0.00431185
0.00410355
0.00368601
0.00305128
0.00333883
0.00314739
0.00333345
0.00273979
0.00271435
0.00267778
0.00264713
0.00259938
0.00256685
0.00249991
0.00246841
0.00232173
0.00228035
0.00227215
0.00217786
0.00213765
0.00213143
0.00214748
0.00243383
0.00254025
0.00269793
0.00223308
0.0026145
0.00161704
0.00160881
0.00160157
0.0015948
0.00158769
0.0015828
0.00157452
0.00157622
0.00162561
0.00169971
0.00164284
0.00175741
0.00172675
0.00172914
0.00164676
0.00160794
0.00152444
0.00163848
0.00168219
0.00157194
0.00115177
0.00114059
0.00112961
0.001118
0.00110883
0.0010979
0.00109474
0.00108899
0.00108039
0.00104733
0.0010513
0.00101044
0.000965307
0.000978771
0.00100645
0.00106014
0.000989604
0.00101194
0.000925265
0.00104253
0.000680986
0.000676113
0.000671366
0.000664957
0.000659932
0.000651903
0.000650271
0.000643662
0.000659635
0.000674265
0.000672378
0.000689862
0.000691699
0.000720663
0.000713368
0.000727836
0.000779288
0.000825159
0.000741781
0.000731609
0.000501097
0.000494449
0.000487942
0.00048439
0.000477828
0.000473355
0.000465242
0.000469919
0.000475391
0.000476217
0.000488797
0.000496211
0.000490325
0.000497724
0.000488313
0.000506147
0.000448049
0.000441747
0.000444233
0.00045644
0.00028483
0.000283397
0.000275892
0.000277191
0.000275661
0.00027766
0.000273621
0.000282758
0.000273101
0.000277654
0.00027693
0.000279364
0.00027192
0.000273505
0.000263951
0.000278687
0.000330911
0.000282707
0.000220433
0.000248876
0.000164636
0.000161168
0.000159142
0.00017125
0.000161654
0.000164199
0.000172509
0.000175769
0.000173793
0.000173089
0.000164868
0.000168801
0.000163217
0.000163119
0.000154657
0.000157548
0.000126914
0.000141604
0.00017372
0.00016007
9.42216e-05
9.54371e-05
7.59752e-05
6.75413e-05
5.60242e-05
5.19438e-05
5.06691e-05
4.72066e-05
4.3716e-05
3.77739e-05
3.72722e-05
3.92972e-05
4.68072e-05
4.86488e-05
5.18389e-05
5.61596e-05
5.50687e-05
6.59593e-05
5.24333e-05
5.18542e-05
8.24669e-05
8.33736e-05
6.90509e-05
5.54479e-05
4.48953e-05
3.75113e-05
3.72335e-05
4.57187e-05
5.81421e-05
5.82288e-05
5.07221e-05
3.84116e-05
2.41956e-05
1.72202e-05
1.42806e-05
1.24481e-05
2.35539e-05
5.59407e-05
2.87818e-05
5.04606e-05
9.75688e-05
7.52445e-05
5.70265e-05
4.78635e-05
4.62899e-05
4.72608e-05
4.64651e-05
3.77171e-05
2.72718e-05
2.14451e-05
2.28332e-05
1.73173e-05
1.79939e-05
2.17091e-05
2.2225e-05
3.24256e-05
4.18416e-05
1.17266e-05
9.55391e-06
1.95764e-05
7.30928e-05
7.31012e-05
7.29323e-05
7.42199e-05
7.74682e-05
8.21754e-05
8.45056e-05
8.20354e-05
7.8859e-05
7.7153e-05
7.94077e-05
7.87801e-05
5.42704e-05
3.2121e-05
3.1342e-05
2.64759e-05
3.11787e-05
3.6828e-05
5.02735e-05
5.49902e-05
0.000121043
0.000116917
0.000118263
0.000119002
0.000112345
0.0001039
9.64173e-05
9.18859e-05
8.92815e-05
8.53878e-05
7.99714e-05
7.43506e-05
7.54141e-05
7.58096e-05
7.58367e-05
7.70081e-05
7.63196e-05
7.25073e-05
7.37207e-05
7.05722e-05
0.000119867
0.000117026
0.000111846
0.000107474
0.000107851
0.000107889
0.00010667
0.00010443
0.000102111
9.99449e-05
9.85728e-05
9.71577e-05
9.57924e-05
9.37515e-05
9.34205e-05
9.09224e-05
9.122e-05
8.79955e-05
8.60735e-05
8.1327e-05
0.000119516
0.000119755
0.000121482
0.000122161
0.000119557
0.000116895
0.000115528
0.000114533
0.000113569
0.000113087
0.000113745
0.000113894
0.000114426
0.00011457
0.000115733
0.000114845
0.000115786
0.000112072
0.000110369
0.000105215
0.000122998
0.000122759
0.0001217
0.000121074
0.00012196
0.000123604
0.000124345
0.000124924
0.000125225
0.000124949
0.000124992
0.000124959
0.00012522
0.000123483
0.000123446
0.000121533
0.000122957
0.000122755
0.000130417
0.000131319
0.000122304
0.00012283
0.00012338
0.000124255
0.000124866
0.000125516
0.000126118
0.000126887
0.000127585
0.000128268
0.000128426
0.000128062
0.000127641
0.000126935
0.000126453
0.000125582
0.000125145
0.00012374
0.000128009
0.000128089
7.09418e-05
7.19171e-05
7.27609e-05
7.35741e-05
7.43332e-05
7.52153e-05
7.61407e-05
7.70656e-05
7.80883e-05
7.90195e-05
7.98984e-05
8.0544e-05
8.14817e-05
8.30864e-05
8.44387e-05
8.59264e-05
8.70747e-05
8.76957e-05
8.8106e-05
8.75869e-05
0.00117427
0.00151503
0.00116986
0.00119177
0.00126335
0.00124379
0.00127954
0.00134402
0.00138917
0.0014287
0.00149145
0.00150908
0.00156637
0.00161476
0.00171434
0.00175943
0.00173943
0.00235163
0.00842869
0.0230612
0.00118131
0.00134218
0.0010184
0.00109675
0.00118959
0.0012541
0.00128753
0.00130783
0.00136081
0.00140785
0.00146399
0.0015183
0.00160514
0.00161886
0.00169478
0.00171413
0.0017342
0.00228034
0.00772366
0.0225647
0.00115657
0.00141813
0.00108072
0.00109738
0.00120845
0.00121747
0.00124989
0.00132456
0.00136289
0.00140318
0.0014536
0.00147383
0.00154437
0.00158844
0.00170477
0.00172096
0.00179812
0.00163433
0.00662899
0.0220305
0.00122031
0.00142569
0.00105633
0.00110713
0.00119206
0.00122429
0.00125842
0.00128632
0.00133707
0.00139577
0.00145169
0.00151875
0.00159009
0.00160562
0.00168562
0.00166395
0.0017511
0.00151632
0.00571366
0.021448
0.00124326
0.00144977
0.00108977
0.00113892
0.00121027
0.00122414
0.00126609
0.00132903
0.00136254
0.0013966
0.00143757
0.00146072
0.00153493
0.0015783
0.00168521
0.00169914
0.00183369
0.00158225
0.00518508
0.0208051
0.00124114
0.00141628
0.00108117
0.001118
0.0011851
0.00122472
0.0012483
0.00128027
0.00132369
0.00139177
0.00144269
0.0015201
0.00157417
0.00159515
0.00168213
0.00164528
0.00176463
0.00154858
0.00517787
0.0200993
0.00122297
0.00141225
0.00108777
0.00113677
0.00122921
0.00124326
0.00127833
0.001329
0.00136899
0.00140548
0.00143931
0.00148089
0.00153965
0.00159901
0.00168643
0.0016968
0.00185766
0.00165746
0.00553916
0.0193041
0.00125376
0.00139531
0.00108079
0.00115129
0.00119563
0.00121581
0.00124332
0.00129257
0.00134609
0.00139569
0.00144861
0.00150788
0.00155074
0.00158706
0.00165998
0.00164664
0.00181634
0.0016626
0.00539787
0.0185276
0.00122924
0.00135152
0.00108693
0.00115569
0.0012106
0.00125124
0.0013134
0.00136103
0.00136729
0.00139814
0.00142857
0.00148553
0.00153533
0.00160058
0.00165613
0.00169301
0.00185228
0.00163194
0.00496277
0.0174569
0.001234
0.00132025
0.00109288
0.00114328
0.00119839
0.00122994
0.00123623
0.0012476
0.00128913
0.00135241
0.0014039
0.00144227
0.00146852
0.0015215
0.00157072
0.00164161
0.00178516
0.00171602
0.00386297
0.0157524
0.00115828
0.0012412
0.00105943
0.00111817
0.00117649
0.00118386
0.00121874
0.00127043
0.00131409
0.00135378
0.00136665
0.00141895
0.00147975
0.00155466
0.00160589
0.00170621
0.00173106
0.00167867
0.00326354
0.0136126
0.00117187
0.00122504
0.00106741
0.00111653
0.00114453
0.00116035
0.00119668
0.00122594
0.00124882
0.00127876
0.00131627
0.00138377
0.00144289
0.0015069
0.00156841
0.00163373
0.00169619
0.00177407
0.0026972
0.0109437
0.00108991
0.00114472
0.00102277
0.00106243
0.00109062
0.00112795
0.00117889
0.00121145
0.00126255
0.00132961
0.00140513
0.00149328
0.00151007
0.00156241
0.00158944
0.00164946
0.00165415
0.00169991
0.00225239
0.00890047
0.00111077
0.00115469
0.0010494
0.00108747
0.00114398
0.00120141
0.00122799
0.00126348
0.00131602
0.00135803
0.0013751
0.00137843
0.00139413
0.00147641
0.00150551
0.00157843
0.00159939
0.00165436
0.00195332
0.00721274
0.00105064
0.00107942
0.0010267
0.00106926
0.00112147
0.00113708
0.00115085
0.00119865
0.00123894
0.00126962
0.00129826
0.00136229
0.0014245
0.00149058
0.00149838
0.00156086
0.00160476
0.00176178
0.00182578
0.00605207
0.00105065
0.00110773
0.0010588
0.0010968
0.00112821
0.00114014
0.00117895
0.00122274
0.00124127
0.00126143
0.00129639
0.00135709
0.00139227
0.00143179
0.00146711
0.00158886
0.00158849
0.00166021
0.00169858
0.00516702
0.00100112
0.00104936
0.00100026
0.00103521
0.0010709
0.00109717
0.00115001
0.00117022
0.00120485
0.00124813
0.00132064
0.00136945
0.00138777
0.00148457
0.00153012
0.00160785
0.00157339
0.0016857
0.00173125
0.00489516
0.00100029
0.00104421
0.00101446
0.00106407
0.0011036
0.00113432
0.00116697
0.00119576
0.00124667
0.00131037
0.00134813
0.0013881
0.00144157
0.00148336
0.00145835
0.00145413
0.00147476
0.00154867
0.00164626
0.00409756
0.000988204
0.00101024
0.000998682
0.00104685
0.00106705
0.00110545
0.00112043
0.00117256
0.00119139
0.00122483
0.00123669
0.00126711
0.00131997
0.00132294
0.00140736
0.00153539
0.00169265
0.00174162
0.00177347
0.00372204
0.000994192
0.00102059
0.0010105
0.00104716
0.00108376
0.00110692
0.00114527
0.00117286
0.00121046
0.00123655
0.00128353
0.00132671
0.00135465
0.00138931
0.00145598
0.00149272
0.00147174
0.00159315
0.00174318
0.00351826
0.00104255
0.00120107
0.00131574
0.00135327
0.00129724
0.00112265
0.00108234
0.00113864
0.0011735
0.00111947
0.00112212
0.00117414
0.0012429
0.00134096
0.00125969
0.000645241
0.000510585
0.011026
0.0164099
0.0134054
0.00100046
0.00115874
0.00132378
0.0013283
0.00128058
0.00121332
0.00118533
0.00111155
0.00110634
0.00119457
0.001216
0.00121918
0.0012574
0.00138062
0.00138571
0.000847047
0.000276892
0.0103914
0.0164596
0.0170661
0.00105222
0.00116105
0.0013037
0.00136189
0.00134345
0.00119002
0.00114746
0.00120177
0.00121909
0.00116604
0.0011889
0.00125071
0.00131834
0.00138153
0.00141605
0.00111863
0.000553789
0.00830606
0.016522
0.0188017
0.00102079
0.00116937
0.00136304
0.00135307
0.00130687
0.00123584
0.00121537
0.00115964
0.00117055
0.00125861
0.00126487
0.00127177
0.00132422
0.00142939
0.00152467
0.00129147
0.000620508
0.00679849
0.0162717
0.0206969
0.00106855
0.00113546
0.00131337
0.00136296
0.00136223
0.00123817
0.00119464
0.00124155
0.00124695
0.0012017
0.00124545
0.00131297
0.00137097
0.00143102
0.00149259
0.0013469
0.000323624
0.00483778
0.016291
0.0210062
0.00103645
0.00116274
0.00138242
0.00135777
0.00130571
0.00123775
0.00122779
0.00119285
0.00121855
0.00130538
0.00130184
0.00131681
0.0013874
0.00150022
0.00157595
0.00150833
0.000411555
0.00376304
0.0160071
0.0218887
0.00108296
0.00114436
0.0013554
0.00137116
0.00136094
0.00125991
0.00122486
0.00126814
0.00126831
0.00123127
0.00129205
0.0013675
0.00141954
0.00148987
0.00154478
0.00152899
0.000627983
0.0026388
0.0156853
0.0224729
0.00106327
0.00116005
0.00138936
0.00134328
0.00128695
0.00123528
0.0012327
0.00121149
0.00124735
0.00133504
0.00133127
0.00135233
0.00143442
0.00154856
0.00160284
0.0016266
0.000829299
0.00205075
0.015423
0.0232313
0.00108965
0.00114839
0.00140287
0.00138407
0.00134641
0.00126079
0.00123737
0.00128504
0.00129118
0.00126139
0.0013279
0.00140874
0.00145881
0.00153679
0.00156805
0.0016113
0.000997951
0.0014824
0.0150026
0.02367
0.00108321
0.00115125
0.00140083
0.00132007
0.00125554
0.00122947
0.0012392
0.00122788
0.00126509
0.00135023
0.00135739
0.00138483
0.00147333
0.0015784
0.0016143
0.0016986
0.00117967
0.0012255
0.0147041
0.024237
0.00108927
0.00113892
0.00142468
0.00137097
0.00131443
0.00125213
0.00124308
0.00129703
0.00131714
0.00129796
0.001361
0.00144129
0.00149239
0.00156928
0.00158524
0.00167342
0.00123681
0.00180312
0.0142181
0.024423