/*--------------------------------*- C++ -*----------------------------------*\
  =========                 |
  \\      /  F ield         | OpenFOAM: The Open Source CFD Toolbox
   \\    /   O peration     | Website:  https://openfoam.org
    \\  /    A nd           | Version:  9
     \\/     M anipulation  |
\*---------------------------------------------------------------------------*/
FoamFile
{
    format      ascii;
    class       volScalarField;
    location    "7";
    object      p;
}
// * * * * * * * * * * * * * * * * * * * * * * * * * * * * * * * * * * * * * //

dimensions      [0 2 -2 0 0 0 0];

internalField   nonuniform List<scalar> 
46400
(
183.07
189.001
198.24
206.178
213.041
219.411
225.008
230.129
234.68
238.826
242.573
245.985
249.1
251.975
254.654
257.192
259.518
261.987
264.715
265.267
207.359
212.788
220.587
227.779
233.863
239.551
244.511
249.032
253.031
256.645
259.866
262.744
265.326
267.624
269.694
271.515
273.133
274.739
276.048
275.6
231.101
234.856
241.949
248.539
254.06
259.094
263.446
267.346
270.747
273.775
276.463
278.839
280.943
282.809
284.468
285.933
287.181
288.408
289.433
288.527
252.823
256.458
263.432
269.452
274.39
278.83
282.554
285.839
288.652
291.09
293.201
295.008
296.568
297.877
299.005
299.916
300.649
301.335
301.923
300.83
274.323
278.721
284.773
290.015
294.134
297.799
300.819
303.398
305.555
307.358
308.887
310.144
311.197
312.04
312.728
313.262
313.626
313.977
314.259
312.944
296.688
301.485
306.325
310.656
313.973
316.849
319.176
321.079
322.628
323.817
324.751
325.433
325.934
326.236
326.403
326.435
326.339
326.244
326.207
324.72
318.454
323.352
326.69
329.925
332.33
334.322
335.917
337.121
338.05
338.683
339.107
339.295
339.326
339.186
338.948
338.581
338.095
337.606
337.136
335.427
339.954
343.893
346.403
348.522
350.218
351.417
352.332
352.889
353.218
353.27
353.143
352.808
352.329
351.696
350.965
350.14
349.223
348.338
347.454
345.501
358.624
361.366
363.284
364.648
365.656
366.248
366.578
366.597
366.431
366.039
365.506
364.798
363.993
363.043
362.009
360.854
359.614
358.361
357.105
354.929
375.995
378.123
379.497
380.235
380.701
380.682
380.438
379.87
379.144
378.189
377.112
375.884
374.579
373.182
371.732
370.216
368.636
367.079
365.521
363.226
390.1
391.634
392.581
392.889
392.979
392.633
392.079
391.184
390.135
388.885
387.534
386.031
384.442
382.747
381.003
379.193
377.33
375.476
373.632
371.161
404.142
405.134
405.628
405.392
404.991
404.138
403.111
401.763
400.248
398.536
396.727
394.813
392.826
390.779
388.693
386.576
384.425
382.297
380.182
377.577
414.475
414.868
415.076
414.578
413.912
412.845
411.61
410.16
408.542
406.741
404.792
402.715
400.541
398.277
395.963
393.599
391.205
388.828
386.499
383.657
425.275
425.187
424.846
423.893
422.68
421.086
419.315
417.363
415.306
413.11
410.852
408.505
406.125
403.678
401.211
398.711
396.193
393.706
391.317
388.44
431.066
431.125
430.652
429.748
428.539
427.02
425.234
423.213
421.033
418.709
416.275
413.76
411.189
408.572
405.928
403.255
400.567
397.905
395.351
392.352
436.885
436.799
436.007
434.766
433.202
431.401
429.342
427.114
424.703
422.186
419.558
416.865
414.128
411.36
408.582
405.794
402.994
400.224
397.552
394.549
439.909
439.645
438.809
437.54
435.899
434.014
431.885
429.597
427.137
424.572
421.894
419.141
416.325
413.477
410.603
407.73
404.837
401.984
399.24
396.15
441.16
440.5
439.753
438.368
436.607
434.531
432.258
429.804
427.236
424.558
421.813
418.992
416.139
413.241
410.346
407.43
404.52
401.63
398.873
395.783
439.845
439.269
438.336
437.027
435.405
433.473
431.32
428.96
426.445
423.799
421.061
418.245
415.377
412.474
409.548
406.626
403.681
400.785
398.002
394.926
435.5
435.338
434.386
433.19
431.6
429.791
427.697
425.425
422.959
420.388
417.695
414.948
412.127
409.282
406.402
403.52
400.615
397.746
394.976
391.88
22.3004
22.3564
21.8708
23.162
24.3282
27.413
30.8606
34.3775
37.6883
41.0385
44.3942
47.5692
50.5375
53.6013
56.4928
59.4523
62.2677
65.0166
67.8709
70.5867
22.8904
22.9037
22.7581
23.8017
26.5282
29.7899
33.642
37.3212
40.982
44.7012
48.1443
51.5016
54.8087
58.0426
61.1347
64.2384
67.1988
70.1527
73.0376
75.8456
24.097
23.7111
24.8128
25.3953
28.8356
32.6448
36.6082
40.4267
44.4289
48.2724
51.9891
55.6138
59.0711
62.516
65.7896
69.0773
72.1586
75.2916
78.3226
81.342
24.0796
24.0928
25.8931
27.8226
31.3212
35.3351
39.3137
43.7299
47.9393
52.0012
55.9482
59.756
63.4659
67.0649
70.519
73.8932
77.1011
80.3826
83.3894
86.5075
22.9585
23.5315
24.4726
28.4507
32.8394
37.3903
42.2774
46.7944
51.3509
55.7304
59.9486
64.0578
67.9846
71.8325
75.4613
79.0445
82.4485
85.8099
88.9744
92.2836
20.0405
21.0624
22.6893
27.6901
33.3424
38.9331
44.3627
49.669
54.6852
59.5104
64.146
68.5392
72.7751
76.8087
80.6298
84.3609
87.8412
91.3456
94.5224
97.886
15.8341
16.8944
20.917
27.1172
34.1573
40.8365
47.0588
52.9895
58.5915
63.8698
68.8536
73.603
78.0906
82.3777
86.4034
90.3385
93.9731
97.6223
100.879
104.335
11.6145
13.6118
20.5407
28.0395
36.0703
43.5837
50.5803
57.0259
63.1388
68.8424
74.2092
79.2362
84.0124
88.4829
92.7043
96.7816
100.538
104.39
107.696
111.311
11.5455
13.3338
22.0781
30.9949
39.6587
47.7048
55.3242
62.2925
68.8053
74.8877
80.5362
85.8448
90.8058
95.4617
99.8419
104.019
107.878
111.832
115.154
118.825
15.0989
15.9837
24.56
34.7967
44.3742
53.1427
61.2138
68.6444
75.5549
81.9289
87.8512
93.3458
98.4986
103.273
107.758
111.987
115.925
119.92
123.216
126.929
17.8856
20.3235
30.2357
41.1489
51.3346
60.5407
69.0114
76.6934
83.8305
90.4164
96.4695
102.123
107.346
112.207
116.768
121.021
125.014
128.995
132.326
136.075
25.7999
28.5991
39.0387
50.1191
60.4003
69.7534
78.3843
86.2212
93.4754
100.145
106.287
111.961
117.234
122.095
126.629
130.825
134.791
138.642
141.845
145.558
34.4406
38.0386
49.2931
60.8065
71.3178
80.7193
89.4803
97.361
104.642
111.34
117.46
123.14
128.359
133.201
137.712
141.854
145.773
149.519
152.701
156.359
46.7694
51.0949
62.4398
73.5571
84.2383
93.5435
102.235
110.07
117.249
123.852
129.882
135.429
140.554
145.263
149.625
153.611
157.393
160.914
163.884
167.477
61.0684
65.6198
77.366
88.55
98.9639
108.12
116.59
124.249
131.246
137.681
143.53
148.93
153.862
158.431
162.64
166.467
170.084
173.375
176.223
179.66
77.6077
82.6299
94.5095
105.112
115.35
124.203
132.414
139.831
146.562
152.755
158.375
163.521
168.248
172.575
176.549
180.165
183.572
186.591
189.233
192.575
95.847
101.166
113.543
123.479
133.202
141.708
149.453
156.531
162.913
168.786
174.102
178.976
183.406
187.487
191.19
194.548
197.694
200.364
202.756
205.905
115.762
121.348
133.561
143.017
152.125
160.243
167.562
174.242
180.247
185.766
190.752
195.293
199.436
203.196
206.608
209.701
212.503
214.849
216.866
219.738
137.264
142.96
154.505
163.528
171.953
179.56
186.347
192.58
198.155
203.274
207.899
212.116
215.943
219.44
222.587
225.46
228.083
230.17
232.082
235.195
159.849
165.535
176.145
184.679
192.353
199.434
205.675
211.412
216.544
221.268
225.553
229.477
233.092
236.423
239.522
242.447
245.154
247.622
250.54
253.978
82.8458
98.9094
118.63
129.015
141.792
149.088
157.257
162.552
167.737
171.55
174.939
177.858
180.087
182.526
183.674
186.043
186.99
188.397
188.048
188.482
88.116
103.733
122.463
132.006
144.279
151.206
159.07
164.019
168.896
172.566
175.817
178.61
180.727
183.068
184.034
186.465
187.153
188.664
188.124
188.587
93.9166
108.131
126.12
135.037
146.754
153.164
160.65
165.436
170.125
173.639
176.727
179.399
181.422
183.646
184.469
187.088
187.396
188.991
188.289
188.727
99.7148
112.798
130.019
138.112
149.314
155.363
162.506
166.946
171.33
174.704
177.632
180.18
182.093
184.199
184.928
187.602
187.593
189.347
188.385
188.854
105.867
117.247
133.813
141.253
151.838
157.381
164.168
168.435
172.608
175.821
178.581
180.992
182.818
184.827
185.486
188.178
187.812
189.832
188.57
189.016
111.902
121.989
137.751
144.414
154.518
159.614
166.057
169.977
173.866
176.931
179.508
181.794
183.524
185.406
186.034
188.627
187.999
190.24
188.691
189.154
118.333
126.624
141.715
147.648
157.085
161.723
167.804
171.558
175.188
178.087
180.494
182.626
184.272
186.038
186.617
189.134
188.285
190.665
188.897
189.326
125.889
131.549
145.739
150.88
159.782
164.066
169.728
173.144
176.5
179.238
181.441
183.442
184.999
186.644
187.187
189.606
188.5
191.054
189.026
189.472
133.079
136.58
149.804
154.221
162.402
166.237
171.561
174.811
177.855
180.431
182.459
184.291
185.76
187.295
187.762
190.131
188.809
191.537
189.131
189.65
140.041
142.053
153.877
157.553
165.159
168.622
173.503
176.469
179.233
181.623
183.427
185.115
186.496
187.914
188.34
190.617
189.055
191.956
189.296
189.814
147.513
147.545
158.138
160.956
167.827
170.846
175.421
178.206
180.624
182.846
184.472
185.972
187.261
188.568
188.917
191.13
189.362
192.364
189.478
190.007
155.38
153.361
162.366
164.397
170.621
173.264
177.399
179.912
182.056
184.077
185.463
186.798
187.994
189.185
189.501
191.62
189.621
192.714
189.655
190.191
163.725
159.293
166.86
167.869
173.325
175.531
179.375
181.824
183.507
185.331
186.534
187.658
188.751
189.83
190.089
192.127
189.952
193.069
189.817
190.41
172.642
165.427
171.359
171.384
176.157
177.969
181.39
183.584
185.002
186.608
187.557
188.485
189.473
190.433
190.711
192.636
190.286
193.445
189.903
190.609
182.074
171.635
176.127
174.887
178.88
180.221
183.37
185.448
186.5
187.877
188.634
189.329
190.205
191.058
191.371
193.12
190.681
193.808
189.906
190.869
192.328
178.24
181.083
178.516
181.742
182.625
185.364
187.336
188.037
189.18
189.675
190.143
190.894
191.642
192.047
193.556
191.07
194.088
189.817
191.122
202.958
185.011
186.228
182.339
184.632
185.053
187.598
189.512
189.79
190.64
190.924
191.085
191.638
192.277
192.858
194.481
191.547
194.472
189.56
191.379
213.036
190.427
191.151
185.635
187.293
187.23
189.403
191.426
191.305
191.887
191.938
191.837
192.24
192.743
193.526
195.187
192.026
195.336
189.452
191.929
227.865
197.728
197.815
188.437
189.219
188.639
190.594
192.737
192.479
192.73
192.595
192.359
192.641
193.062
193.792
195.164
192.422
195.481
189.202
191.782
246.783
211.877
206.534
195.836
194.482
193.147
194.037
195.891
195.288
195.398
194.81
194.723
194.688
195.155
195.363
196.644
192.951
195.574
188.143
192.78
270.859
267.277
243.229
245.945
234.288
232.525
224.401
222.98
219.215
219.929
217.712
219.238
216.474
216.228
211.785
212.136
205.205
209.927
191.999
216.079
292.575
282.145
265.559
258.762
248.194
243.077
236.09
232.639
228.47
226.641
223.223
222.094
219.19
218.139
215.228
214.902
211.971
212.521
210.437
212.427
287.023
277.535
268.77
262.243
255.892
250.872
246.08
242.27
238.575
236.041
233.421
231.36
229.036
227.246
224.967
223.908
221.634
221.359
219.571
220.596
280.157
274.756
269.618
263.655
258.635
253.658
249.414
245.626
242.302
239.358
236.446
234.071
231.7
229.707
227.747
226.133
224.55
223.666
222.73
222.595
269.911
265.384
262.311
258.411
255.603
252.269
249.535
246.694
244.15
241.729
239.456
237.222
235.227
233.257
231.393
229.605
227.958
225.974
225.187
225.023
263.244
260.982
260.004
257.389
255.226
252.51
250.19
247.676
245.422
243.157
240.996
238.997
236.843
234.921
233.016
231.05
229.475
227.7
226.454
226.059
256.592
254.893
254.172
252.318
251.007
249.341
247.924
246.326
244.706
243.14
241.404
239.832
238.021
236.357
234.446
232.59
230.537
228.476
227.026
225.917
253.081
252.507
252.755
251.64
250.92
249.484
248.397
247.013
245.695
244.285
242.755
241.315
239.573
238.006
236.083
234.178
232.11
229.487
228.019
226.168
249.423
249.341
249.04
248.657
247.913
247.488
246.814
246.181
245.235
244.498
243.332
242.471
241.027
240.033
238.191
237.007
234.504
233.149
230.49
230.1
248.23
248.488
248.543
248.543
248.308
248.012
247.469
247.05
246.467
245.867
245.082
244.395
243.372
242.574
241.233
240.253
238.163
237.194
233.616
233.715
246.607
246.823
247.035
247.111
247.418
247.538
247.635
247.647
247.368
247.347
246.914
246.809
246.177
246.067
245.072
245.05
243.255
243.818
240.676
242.797
246.556
247.09
247.578
247.991
248.266
248.407
248.552
248.684
248.801
248.964
249.097
249.27
249.459
249.584
249.921
250.019
250.598
250.734
252.24
254.111
246.423
247.019
247.509
248.07
248.532
248.997
249.387
249.833
250.128
250.637
250.963
251.556
252.067
252.792
253.718
254.515
256.293
256.853
260.468
261.035
246.606
247.283
247.887
248.469
249.006
249.628
250.175
250.854
251.422
252.177
252.782
253.708
254.427
255.627
256.531
258.168
259.388
261.678
263.93
265.905
247.035
247.686
248.28
248.945
249.527
250.211
250.783
251.527
252.127
252.976
253.679
254.71
255.547
256.865
257.866
259.649
260.782
263.358
264.443
273.05
247.436
248.103
248.738
249.418
250.075
250.795
251.487
252.274
253.014
253.905
254.706
255.756
256.641
257.922
258.912
260.529
261.606
263.774
264.796
267.938
247.836
248.482
249.112
249.796
250.444
251.177
251.855
252.65
253.379
254.257
255.061
256.051
256.947
258.089
259.086
260.444
261.524
263.197
264.292
266.501
248.136
248.761
249.407
250.074
250.757
251.467
252.19
252.95
253.712
254.532
255.331
256.218
257.05
258.008
258.868
259.873
260.753
261.754
262.634
263.499
248.358
248.984
249.639
250.3
250.956
251.668
252.35
253.106
253.825
254.619
255.371
256.198
256.968
257.812
258.564
259.39
260.069
260.804
261.316
261.799
248.479
249.081
249.691
250.346
251.025
251.71
252.432
253.151
253.899
254.651
255.412
256.185
256.945
257.716
258.445
259.178
259.825
260.472
260.958
261.464
355.64
357.736
359.182
360.05
360.151
359.795
358.552
357.059
354.441
351.684
347.882
343.991
339.036
333.531
328.084
321.758
315.048
307.865
297.79
288.907
326.098
327.565
328.714
329.616
330.163
330.49
330.464
330.245
329.632
328.922
327.723
326.549
324.926
323.182
321.118
317.98
313.75
310.964
307.612
304.994
289.956
291.156
292.245
293.223
294.057
294.82
295.394
295.946
296.265
296.603
296.657
296.777
296.565
296.454
296.005
295.721
295.013
294.504
293.269
292.879
277.284
278.174
279.005
279.773
280.473
281.11
281.665
282.16
282.543
282.894
283.103
283.338
283.377
283.509
283.377
283.411
283.106
283.082
282.681
282.735
261.898
262.623
263.327
263.991
264.611
265.217
265.759
266.315
266.783
267.303
267.722
268.193
268.545
268.972
269.23
269.621
269.768
270.125
270.146
270.543
256.043
256.63
257.186
257.729
258.249
258.75
259.233
259.694
260.135
260.556
260.926
261.308
261.6
261.941
262.165
262.478
262.648
262.959
263.034
263.369
249.213
249.734
250.227
250.71
251.166
251.614
252.033
252.444
252.828
253.203
253.553
253.903
254.214
254.553
254.818
255.15
255.371
255.707
255.898
256.239
246.7
247.123
247.534
247.934
248.32
248.696
249.056
249.412
249.744
250.083
250.388
250.711
250.993
251.303
251.556
251.851
252.075
252.357
252.516
252.789
243.809
244.197
244.55
244.904
245.238
245.571
245.889
246.2
246.495
246.782
247.057
247.32
247.579
247.818
248.051
248.27
248.469
248.7
248.877
249.117
242.87
243.196
243.526
243.84
244.158
244.459
244.758
245.045
245.324
245.599
245.856
246.12
246.353
246.603
246.815
247.056
247.254
247.466
247.623
247.827
242.224
242.483
242.729
242.972
243.201
243.438
243.678
243.918
244.16
244.4
244.64
244.874
245.106
245.324
245.521
245.694
245.856
246.016
246.156
246.328
242.252
242.489
242.722
242.951
243.177
243.399
243.618
243.833
244.045
244.255
244.46
244.66
244.854
245.045
245.23
245.412
245.585
245.764
245.938
246.112
242.662
242.871
243.078
243.28
243.48
243.675
243.868
244.057
244.241
244.422
244.602
244.779
244.954
245.129
245.298
245.471
245.636
245.785
245.929
246.068
243.088
243.275
243.459
243.643
243.823
244.002
244.177
244.351
244.522
244.691
244.856
245.019
245.178
245.334
245.489
245.637
245.785
245.935
246.08
246.225
243.715
243.881
244.047
244.211
244.375
244.537
244.699
244.859
245.019
245.176
245.333
245.488
245.641
245.793
245.943
246.091
246.238
246.381
246.525
246.663
244.226
244.378
244.529
244.681
244.831
244.983
245.134
245.284
245.435
245.585
245.735
245.884
246.033
246.18
246.328
246.474
246.622
246.766
246.912
247.054
244.78
244.917
245.056
245.194
245.333
245.473
245.614
245.754
245.896
246.037
246.179
246.321
246.463
246.605
246.748
246.89
247.034
247.175
247.319
247.459
245.151
245.28
245.41
245.541
245.673
245.807
245.941
246.076
246.212
246.349
246.487
246.626
246.765
246.905
247.046
247.187
247.33
247.471
247.616
247.756
245.508
245.623
245.74
245.86
245.982
246.105
246.231
246.358
246.487
246.618
246.749
246.882
247.016
247.151
247.288
247.425
247.563
247.702
247.845
247.985
245.6
245.719
245.839
245.96
246.083
246.208
246.334
246.461
246.59
246.721
246.853
246.987
247.123
247.26
247.398
247.538
247.679
247.821
247.965
248.108
101.082
98.0734
91.2443
84.2315
77.6453
70.6751
63.3459
55.609
47.4237
38.6684
29.2818
19.1534
8.25302
-3.66431
-16.5131
-30.6658
-46.0408
-62.7442
-82.1315
-92.8439
118.948
117.067
112.193
106.765
101.335
95.4898
89.1834
82.4641
75.1913
67.3469
58.8883
49.6757
39.7578
28.8877
17.177
4.22169
-9.81845
-25.1511
-43.1517
-53.7249
138.345
137.674
134.067
129.456
124.891
119.868
114.421
108.513
102.159
95.2647
87.8085
79.6816
70.8802
61.1618
50.6812
38.9838
26.4282
12.4196
-3.8082
-14.0461
159.181
158.934
155.887
152.147
148.373
144.216
139.622
134.665
129.194
123.229
116.684
109.491
101.654
92.9777
83.5713
73.0147
61.6837
48.919
34.3761
25.4808
180.245
180.417
177.934
174.811
171.7
168.185
164.314
160.051
155.382
150.232
144.58
138.346
131.494
123.846
115.515
106.101
96.0087
84.4345
71.5288
63.9899
200.949
201.372
199.446
196.95
194.479
191.699
188.585
185.147
181.273
176.995
172.207
166.875
160.95
154.282
146.945
138.51
129.395
118.704
106.696
100.358
221.01
221.874
220.513
218.681
216.826
214.688
212.222
209.435
206.302
202.78
198.796
194.32
189.257
183.53
177.126
169.733
161.72
152.124
141.14
134.759
241.127
242.156
241.116
239.76
238.412
236.822
234.997
232.921
230.506
227.765
224.594
221.01
216.901
212.208
206.879
200.648
193.804
185.282
175.78
168.816
259.99
261.223
260.634
259.849
259.084
258.125
256.926
255.478
253.755
251.717
249.315
246.535
243.252
239.49
235.106
230.035
224.36
217.272
209.791
202.31
277.881
279.302
279.151
278.833
278.533
278.037
277.352
276.477
275.375
274.03
272.38
270.423
268.07
265.313
262.029
258.213
253.728
248.277
242.457
234.76
294.212
295.864
296.217
296.429
296.666
296.773
296.71
296.499
296.088
295.454
294.542
293.354
291.798
289.914
287.547
284.738
281.314
277.267
272.604
266.347
309.932
311.771
312.494
313.093
313.724
314.217
314.592
314.82
314.886
314.776
314.464
313.943
313.121
312.013
310.471
308.556
306.086
303.118
299.463
294.749
323.709
325.772
326.964
328.057
329.192
330.241
331.19
332.046
332.76
333.341
333.716
333.88
333.727
333.305
332.436
331.269
329.509
327.349
324.405
320.564
337.165
339.47
340.949
342.368
343.843
345.221
346.525
347.713
348.782
349.685
350.402
350.924
351.201
351.243
350.928
350.312
349.176
347.705
345.477
342.414
348.346
350.772
352.664
354.496
356.351
358.138
359.852
361.49
363.024
364.452
365.722
366.856
367.752
368.458
368.778
368.867
368.405
367.651
366.045
363.677
358.963
361.667
363.841
365.977
368.12
370.196
372.208
374.141
375.971
377.688
379.26
380.689
381.872
382.891
383.561
384.04
383.963
383.698
382.57
380.862
368.148
370.908
373.204
375.529
377.887
380.209
382.492
384.733
386.903
389.008
391.004
392.887
394.592
396.115
397.347
398.331
398.838
399.11
398.58
397.527
376.353
379.268
381.767
384.326
386.911
389.463
391.975
394.446
396.847
399.16
401.353
403.399
405.259
406.916
408.305
409.493
410.299
410.907
410.805
410.465
382.703
385.591
388.226
390.899
393.623
396.291
398.965
401.578
404.163
406.663
409.085
411.403
413.589
415.635
417.482
419.153
420.496
421.573
422.023
422.195
388.164
391.242
394.006
396.85
399.707
402.548
405.357
408.142
410.871
413.53
416.108
418.554
420.884
423.01
424.976
426.631
428.067
429.08
429.751
429.803
-225.927
-236.432
-247.419
-259.291
-271.676
-284.953
-298.814
-313.497
-328.893
-345.091
-362.183
-380.241
-399.327
-419.563
-441.164
-464.467
-489.115
-511.563
-528.215
-528.94
-220.581
-231.239
-242.289
-254.298
-266.832
-280.309
-294.428
-309.308
-325.013
-341.607
-359.124
-377.626
-397.244
-418.056
-440.37
-464.162
-489.34
-513.514
-533.672
-536.941
-213.756
-224.512
-235.608
-247.743
-260.392
-274.001
-288.291
-303.457
-319.431
-336.307
-354.183
-373.134
-393.236
-414.649
-437.482
-462.058
-488.124
-514.345
-534.714
-539.668
-206.314
-217.282
-228.286
-240.478
-253.155
-266.812
-281.218
-296.428
-312.547
-329.626
-347.694
-366.831
-387.195
-408.809
-431.921
-456.746
-482.876
-509.662
-533.337
-538.344
-197.438
-208.317
-219.231
-231.393
-244.111
-257.767
-272.19
-287.524
-303.733
-320.914
-339.176
-358.591
-379.236
-401.241
-424.789
-450.138
-476.69
-505.606
-528.355
-533.417
-187.727
-198.631
-209.44
-221.497
-234.115
-247.68
-262.058
-277.278
-293.451
-310.643
-328.869
-348.25
-368.962
-391.041
-414.813
-440.403
-467.942
-497.785
-521.226
-526.301
-176.218
-187.023
-197.652
-209.567
-222.095
-235.515
-249.758
-264.908
-280.974
-298.047
-316.245
-335.64
-356.32
-378.412
-402.185
-427.859
-455.222
-485.046
-509.739
-515.72
-163.983
-174.734
-185.114
-196.796
-209.102
-222.293
-236.324
-251.211
-267.053
-283.939
-301.863
-320.976
-341.438
-363.285
-386.917
-412.267
-439.53
-469.272
-494.365
-501.224
-149.761
-160.332
-170.487
-181.905
-193.992
-206.892
-220.629
-235.253
-250.799
-267.341
-285.016
-303.891
-324.043
-345.627
-368.93
-393.973
-420.914
-450.372
-476.174
-483.843
-134.91
-145.323
-155.135
-166.198
-177.947
-190.499
-203.877
-218.105
-233.254
-249.446
-266.65
-285.031
-304.726
-325.794
-348.608
-372.972
-399.313
-428.196
-454.093
-462.509
-118.19
-128.325
-137.831
-148.501
-159.891
-172.008
-184.942
-198.731
-213.426
-229.085
-245.846
-263.791
-282.98
-303.603
-325.91
-349.794
-375.836
-404.061
-429.817
-438.976
-100.798
-110.677
-119.769
-129.979
-140.925
-152.591
-165.04
-178.318
-192.475
-207.643
-223.789
-241.074
-259.61
-279.5
-301.023
-324.042
-349.143
-376.551
-402.421
-411.8
-81.6494
-91.1972
-99.933
-109.653
-120.13
-131.253
-143.151
-155.868
-169.454
-183.96
-199.502
-216.185
-234.064
-253.34
-274.19
-296.498
-321.119
-347.354
-373.159
-382.963
-61.9272
-71.1521
-79.4363
-88.6162
-98.5625
-109.16
-120.476
-132.59
-145.533
-159.431
-174.266
-190.191
-207.285
-225.685
-245.554
-266.957
-290.368
-315.253
-341.039
-350.871
-40.5014
-49.3561
-57.2623
-65.8983
-75.3091
-85.3067
-96.0182
-107.514
-119.819
-132.991
-147.11
-162.3
-178.62
-196.253
-215.348
-235.852
-258.377
-282.281
-307.781
-317.837
-18.5532
-27.1073
-34.588
-42.6784
-51.5344
-60.9863
-71.0887
-81.9406
-93.5576
-106.047
-119.417
-133.828
-149.288
-165.984
-183.98
-203.425
-224.629
-247.318
-272.032
-282.137
4.42885
-3.65477
-10.6724
-18.158
-26.4242
-35.2527
-44.7238
-54.9351
-65.875
-77.6259
-90.2306
-103.812
-118.431
-134.278
-151.449
-169.945
-190.244
-212.031
-235.857
-246.036
27.7413
19.973
13.4721
6.58738
-1.11746
-9.40325
-18.2701
-27.8109
-38.0619
-49.0908
-60.9174
-73.7285
-87.4672
-102.368
-118.395
-135.787
-154.823
-175.212
-197.893
-208.219
53.7776
45.6693
39.2763
32.8736
25.6653
17.8387
9.49378
0.508498
-9.10588
-19.4434
-30.5357
-42.486
-55.3506
-69.3405
-84.4799
-100.936
-118.999
-138.411
-160.25
-170.565
82.9234
74.9271
67.1965
60.2711
53.0657
45.3177
37.1854
28.6372
19.5347
9.82245
-0.520723
-11.7131
-23.6788
-36.693
-50.6534
-65.9039
-82.5747
-100.41
-121.2
-131.86
103.958
103.555
102.281
100.126
97.7018
93.6362
90.3555
84.8151
79.9119
72.5334
65.0471
55.0417
43.4405
29.6499
11.2715
-8.75129
-38.7862
-70.2074
-120.06
-175.296
104.173
103.692
102.636
100.373
98.1735
94.1427
90.9985
85.5432
80.7606
73.4987
66.1608
56.3204
44.9471
31.4129
13.3699
-6.17425
-35.7947
-66.2346
-115.961
-169.91
104.382
103.856
102.985
100.633
98.6569
94.6528
91.6493
86.2931
81.6243
74.4915
67.3177
57.6347
46.5003
33.2092
15.524
-3.60493
-32.7091
-62.1067
-111.133
-163.172
104.593
104.008
103.457
100.947
99.1845
95.234
92.3685
87.1142
82.5698
75.5644
68.5568
59.0405
48.177
35.1297
17.8731
-0.798281
-29.2782
-57.7425
-106.084
-156.327
104.9
104.246
104.053
101.306
99.7321
95.8231
93.0919
87.9616
83.534
76.6672
69.84
60.4847
49.9006
37.088
20.2736
2.02289
-25.7545
-53.1499
-100.204
-148.189
105.209
104.496
104.548
101.741
100.315
96.484
93.8886
88.8773
84.5767
77.8483
71.202
62.0183
51.7414
39.1678
22.8656
5.07201
-21.895
-48.2888
-94.1281
-139.862
105.534
104.764
105.06
102.21
100.892
97.1473
94.6899
89.8243
85.6409
79.0616
72.6072
63.5936
53.6287
41.2919
25.5077
8.14725
-17.9306
-43.1935
-87.2362
-130.281
105.892
105.08
105.57
102.712
101.512
97.8663
95.5827
90.8346
86.7804
80.3505
74.0878
65.2551
55.6252
43.532
28.3309
11.4383
-13.641
-37.8055
-80.1143
-120.446
106.298
105.44
106.09
103.27
102.349
98.6065
96.4651
91.8935
87.9421
81.673
75.6093
66.9609
57.6664
45.8229
31.2028
14.765
-9.24167
-32.1958
-72.264
-109.421
106.754
105.847
106.603
103.957
103.255
99.4383
97.4325
93.0198
89.1762
83.0675
77.2029
68.7491
59.8074
48.2229
34.2385
18.295
-4.53563
-26.2792
-64.1456
-97.9931
107.244
106.316
107.132
104.642
104.092
100.29
98.3881
94.1851
90.4312
84.4941
78.8337
70.5825
61.9902
50.6781
37.3201
21.8679
0.278811
-20.1679
-55.4181
-85.4232
107.779
106.839
107.714
105.273
104.99
101.278
99.4324
95.4083
91.7544
85.988
80.5327
72.4935
64.2619
53.233
40.5416
25.6287
5.37352
-13.7591
-46.3861
-72.3139
108.368
107.44
108.302
105.902
105.859
102.31
100.479
96.6767
93.0966
87.5117
82.2654
74.4504
66.5742
55.8487
43.8117
29.4491
10.5834
-7.18228
-36.8379
-58.1166
108.998
108.078
108.929
106.534
106.687
103.376
101.661
97.9733
94.5
89.0997
84.0652
76.4828
68.9683
58.5559
47.1961
33.4386
16.0268
-0.370859
-27.0107
-43.2549
109.656
108.739
109.563
107.229
107.554
104.341
102.834
99.2547
95.9183
90.7077
85.886
78.5458
71.3794
61.2945
50.588
37.4515
21.5151
6.51278
-16.6966
-27.2314
110.349
109.384
110.196
107.976
108.452
105.395
104.071
100.605
97.3919
92.3721
87.7655
80.6773
73.8636
64.1244
54.1018
41.6711
27.2836
13.7392
-5.80767
-10.2423
111.009
109.95
110.849
108.775
109.409
106.555
105.33
101.992
98.9173
94.1042
89.7262
82.9228
76.4799
67.1415
57.8231
46.1494
33.3314
21.1585
5.3414
7.12479
111.757
110.56
111.698
109.48
110.416
107.73
106.641
103.42
100.473
95.8641
91.7118
85.1616
79.0456
70.037
61.3097
50.3453
38.8311
27.8449
15.951
25.0425
112.292
110.876
112.081
109.982
111.322
108.837
107.828
104.694
101.823
97.379
93.3934
87.0185
81.0764
72.2813
64.0087
53.7902
43.4412
34.1315
28.5456
48.6258
113.038
110.673
111.816
110.896
112.374
110.223
109.272
106.354
103.569
99.3636
95.6124
89.6984
84.2384
76.1494
69.0955
60.2033
52.3826
45.6271
47.1254
73.5194
125.975
121.353
122.955
121.857
122.203
120.909
120.344
118.908
118.175
116.685
115.842
114.323
114.845
113.651
116.828
115.329
122.684
125.457
136.624
124.431
130.633
129.822
130.278
130.524
130.786
130.523
130.678
130.569
130.819
131.087
132.265
133.726
136.449
139.163
144.619
149.48
160.345
167.495
190.602
199.665
147.327
147.197
146.824
147.697
147.864
148.673
149.448
150.426
151.913
153.552
155.999
158.303
161.863
165.547
171.353
177.422
186.394
195.76
209.136
221.706
154.068
154.273
154.388
155.36
156.507
157.734
159.325
161.295
163.69
166.31
169.455
173.015
177.523
182.334
188.622
194.825
203.691
211.71
224.026
233.398
164.797
164.915
165.665
167.194
168.451
170.229
171.95
174.057
176.235
178.742
181.678
184.977
188.771
193.095
197.936
203.533
209.528
216.317
223.4
231.067
172.45
172.806
173.516
175.028
176.295
178.361
180.257
182.533
185.016
187.786
190.951
194.239
198.207
202.113
206.908
211.43
217.002
222.046
228.804
234.473
180.354
180.727
181.824
183.238
184.951
186.742
188.801
190.863
193.323
195.75
198.545
201.42
204.607
207.965
211.562
215.398
219.37
223.512
227.137
230.837
185.8
186.197
187.662
189.155
191.063
193
195.169
197.262
199.67
201.969
204.677
207.236
210.264
213.048
216.382
219.349
222.861
226.111
230.014
233.165
191.939
192.503
194.221
195.745
198.074
199.636
201.971
203.672
205.973
207.883
210.299
212.447
214.918
217.304
219.894
222.439
225.172
227.659
229.994
232.21
196.54
197.113
199.4
201.074
203.401
205.119
207.22
208.956
210.998
212.795
214.875
216.715
218.908
220.816
223.098
225.033
227.378
229.381
231.882
233.758
203.239
203.82
206.447
207.644
210.136
211.418
213.454
214.766
216.601
218.001
219.746
221.264
223.001
224.601
226.367
228.026
229.851
231.411
233.09
234.511
209.842
210.115
213.224
214.243
216.267
217.412
218.901
220.042
221.373
222.528
223.857
225.031
226.401
227.604
229.031
230.254
231.72
232.93
234.441
235.627
220.618
218.891
222.168
222.096
223.662
224.181
225.195
225.821
226.735
227.443
228.373
229.159
230.158
231.024
232.086
233.007
234.124
235.051
236.199
237.087
234.398
232.629
231.287
231.231
230.93
231.026
230.936
231.173
231.344
231.697
232.102
232.575
233.168
233.771
234.508
235.171
236.01
236.716
237.63
238.346
243.876
243.314
239.722
239.413
237.8
237.288
236.644
236.24
236.128
235.92
236.1
236.112
236.469
236.656
237.143
237.508
238.099
238.574
239.254
239.784
251.563
249.375
246.833
244.177
243.043
241.408
240.662
239.716
239.335
238.872
238.759
238.614
238.712
238.767
239.013
239.243
239.63
239.979
240.48
240.9
256.892
252.208
250.717
248.162
246.709
245.025
244.118
242.884
242.321
241.556
241.257
240.848
240.758
240.638
240.726
240.795
241.04
241.262
241.642
241.969
262.817
251.202
250.285
248.259
247.434
245.902
245.255
244.294
243.765
243.11
242.739
242.328
242.121
241.922
241.894
241.915
242.058
242.242
242.493
242.73
253.33
250.807
250.261
248.844
248.089
246.908
246.156
245.227
244.651
243.993
243.614
243.216
243.013
242.819
242.772
242.712
242.795
242.864
243.037
243.29
263.158
251.081
250.538
249.119
248.385
247.278
246.561
245.728
245.122
244.522
244.072
243.675
243.41
243.205
243.103
243.046
243.073
243.141
243.329
243.518
163.344
178.898
194.157
209.486
223.768
237.816
250.715
263.353
274.477
285.767
295.344
305.396
313.662
321.421
328.557
334.754
340.402
345.154
349.387
352.834
229.031
238.873
247.514
255.61
262.299
267.999
273.513
278.85
283.9
288.926
293.498
299.104
303.832
307.171
311.169
314.103
317.338
319.815
322.304
324.299
234.362
237.888
241.858
245.094
248.517
251.766
255.426
259.233
263.351
267.453
270.686
273.02
275.928
277.935
280.267
282.094
283.993
285.631
287.197
288.626
242.135
244.312
246.69
248.79