/*--------------------------------*- C++ -*----------------------------------*\
  =========                 |
  \\      /  F ield         | OpenFOAM: The Open Source CFD Toolbox
   \\    /   O peration     | Website:  https://openfoam.org
    \\  /    A nd           | Version:  9
     \\/     M anipulation  |
\*---------------------------------------------------------------------------*/
FoamFile
{
    format      ascii;
    class       surfaceScalarField;
    location    "7";
    object      phi;
}
// * * * * * * * * * * * * * * * * * * * * * * * * * * * * * * * * * * * * * //

dimensions      [0 3 -1 0 0 0 0];

internalField   nonuniform List<scalar> 
92080
(
-0.00238192
-0.417043
0.419425
-0.0258555
-0.81451
0.837984
-0.0649067
-0.873506
0.912557
-0.104595
-0.858746
0.898434
-0.143484
-0.845543
0.884432
-0.181703
-0.832515
0.870734
-0.219197
-0.821042
0.858536
-0.256666
-0.80819
0.845659
-0.294405
-0.797711
0.83545
-0.33168
-0.788927
0.826202
-0.368514
-0.780345
0.81718
-0.404737
-0.771854
0.808076
-0.44124
-0.764392
0.800895
-0.47699
-0.757726
0.793476
-0.512247
-0.750809
0.786067
-0.549013
-0.744128
0.780894
-0.584409
-0.739339
0.774735
-0.617682
-0.733151
0.766424
-0.648993
-0.727622
0.758934
-0.722123
0.749867
-0.676737
-0.00548555
-0.411557
-0.0336823
-0.786314
-0.0757641
-0.831424
-0.117248
-0.817261
-0.157933
-0.804858
-0.198421
-0.792027
-0.238047
-0.781416
-0.276693
-0.769544
-0.315725
-0.758679
-0.355249
-0.749403
-0.394232
-0.741362
-0.432818
-0.733267
-0.47046
-0.726751
-0.508107
-0.720079
-0.54485
-0.714067
-0.580235
-0.708743
-0.616568
-0.703005
-0.653109
-0.69661
-0.68837
-0.692361
-0.689148
-0.721346
-0.00703115
-0.404526
-0.0411783
-0.752167
-0.0831174
-0.789485
-0.125558
-0.774821
-0.167573
-0.762843
-0.209113
-0.750487
-0.250195
-0.740334
-0.290396
-0.729342
-0.329985
-0.71909
-0.36973
-0.709659
-0.409877
-0.701215
-0.450062
-0.693082
-0.490502
-0.686311
-0.529813
-0.680768
-0.569912
-0.673967
-0.609411
-0.669244
-0.645674
-0.666743
-0.681261
-0.661022
-0.717812
-0.655811
-0.651831
-0.755128
-0.0051361
-0.39939
-0.0433548
-0.713948
-0.0892667
-0.743573
-0.134565
-0.729523
-0.179113
-0.718294
-0.223518
-0.706082
-0.267393
-0.696459
-0.309798
-0.686938
-0.351251
-0.677636
-0.392118
-0.668793
-0.432586
-0.660747
-0.472945
-0.652723
-0.513506
-0.645749
-0.553813
-0.640461
-0.593116
-0.634665
-0.635262
-0.627099
-0.677691
-0.624313
-0.716965
-0.621749
-0.75497
-0.617805
-0.614199
-0.792603
-0.00113285
-0.398257
-0.0416333
-0.673447
-0.0898408
-0.695365
-0.137571
-0.681793
-0.184174
-0.671691
-0.229693
-0.660563
-0.275287
-0.650865
-0.320468
-0.641757
-0.364058
-0.634047
-0.406348
-0.626502
-0.447746
-0.619349
-0.488589
-0.61188
-0.529599
-0.604739
-0.570294
-0.599766
-0.609167
-0.595792
-0.647044
-0.589222
-0.688148
-0.58321
-0.729873
-0.580024
-0.77085
-0.576827
-0.573489
-0.81156
0.000547792
-0.398805
-0.0427353
-0.630164
-0.0952214
-0.642879
-0.145661
-0.631353
-0.19521
-0.622142
-0.243636
-0.612137
-0.291092
-0.603409
-0.338249
-0.5946
-0.385384
-0.586912
-0.431484
-0.580402
-0.476195
-0.574638
-0.519267
-0.568808
-0.562336
-0.56167
-0.606368
-0.555734
-0.649815
-0.552345
-0.69088
-0.548157
-0.730786
-0.543303
-0.771615
-0.539195
-0.81196
-0.536482
-0.533574
-0.851875
0.00131988
-0.400125
-0.0448548
-0.58399
-0.0981345
-0.5896
-0.149402
-0.580086
-0.199301
-0.572242
-0.24778
-0.563659
-0.295512
-0.555677
-0.342578
-0.547534
-0.389219
-0.540271
-0.435672
-0.533949
-0.482005
-0.528306
-0.52654
-0.524273
-0.56876
-0.519451
-0.610836
-0.513658
-0.653721
-0.509459
-0.696411
-0.505467
-0.738392
-0.501323
-0.780421
-0.497166
-0.822862
-0.49404
-0.491686
-0.864751
-0.0056032
-0.394522
-0.0553458
-0.534247
-0.110531
-0.534414
-0.163421
-0.527196
-0.215029
-0.520635
-0.265485
-0.513202
-0.314396
-0.506767
-0.362394
-0.499535
-0.410618
-0.492048
-0.458102
-0.486465
-0.506186
-0.480222
-0.555132
-0.475326
-0.603082
-0.471501
-0.649003
-0.467737
-0.693747
-0.464716
-0.737547
-0.461667
-0.780166
-0.458705
-0.821924
-0.455407
-0.8636
-0.452365
-0.450124
-0.905162
-0.0147412
-0.37978
-0.0645133
-0.484475
-0.118217
-0.48071
-0.170867
-0.474546
-0.221889
-0.469613
-0.271255
-0.463837
-0.319961
-0.458061
-0.366896
-0.4526
-0.413467
-0.445476
-0.459152
-0.44078
-0.503233
-0.43614
-0.547627
-0.430932
-0.593293
-0.425835
-0.639952
-0.421079
-0.686285
-0.418382
-0.732327
-0.415625
-0.777719
-0.413313
-0.822122
-0.411005
-0.865882
-0.408604
-0.406487
-0.909519
-0.0259572
-0.353823
-0.0788359
-0.431596
-0.133324
-0.426223
-0.187504
-0.420366
-0.24181
-0.415307
-0.294124
-0.411522
-0.344581
-0.407604
-0.393082
-0.404098
-0.441145
-0.397414
-0.489858
-0.392067
-0.537267
-0.388731
-0.582592
-0.385607
-0.626271
-0.382157
-0.670207
-0.377142
-0.714639
-0.37395
-0.758793
-0.371472
-0.802975
-0.36913
-0.846789
-0.367191
-0.890108
-0.365286
-0.363342
-0.933252
-0.0321168
-0.321706
-0.0845004
-0.379213
-0.138471
-0.372252
-0.190617
-0.36822
-0.243268
-0.362656
-0.296698
-0.358093
-0.349881
-0.354421
-0.400318
-0.353661
-0.447709
-0.350023
-0.49531
-0.344466
-0.543641
-0.3404
-0.591912
-0.337336
-0.63866
-0.335409
-0.683905
-0.331897
-0.729479
-0.328376
-0.77477
-0.326181
-0.819794
-0.324105
-0.86455
-0.322435
-0.908753
-0.321083
-0.319477
-0.952618
-0.0410396
-0.280667
-0.09672
-0.323532
-0.151849
-0.317123
-0.205344
-0.314725
-0.257861
-0.310138
-0.310873
-0.305081
-0.366088
-0.299206
-0.421653
-0.298097
-0.4741
-0.297576
-0.523401
-0.295164
-0.571632
-0.292169
-0.619341
-0.289627
-0.666787
-0.287963
-0.712382
-0.286302
-0.757283
-0.283474
-0.802303
-0.281161
-0.84715
-0.279258
-0.892122
-0.277463
-0.937054
-0.276152
-0.275052
-0.981478
-0.0423356
-0.238331
-0.0948611
-0.271007
-0.147778
-0.264206
-0.200882
-0.261621
-0.252075
-0.258945
-0.300185
-0.256971
-0.349225
-0.250167
-0.400768
-0.246553
-0.454352
-0.243992
-0.507514
-0.242003
-0.560359
-0.239324
-0.612448
-0.237538
-0.663926
-0.236485
-0.714503
-0.235725
-0.763117
-0.23486
-0.81092
-0.233359
-0.858044
-0.232134
-0.904656
-0.23085
-0.951222
-0.229586
-0.228584
-0.99769
-0.0526536
-0.185677
-0.112011
-0.211649
-0.170603
-0.205615
-0.229297
-0.202926
-0.287735
-0.200507
-0.342833
-0.201874
-0.393686
-0.199313
-0.443665
-0.196575
-0.492576
-0.19508
-0.541054
-0.193525
-0.588892
-0.191486
-0.637556
-0.188874
-0.686184
-0.187858
-0.735022
-0.186887
-0.783347
-0.186534
-0.830699
-0.186007
-0.877463
-0.18537
-0.92368
-0.184634
-0.969328
-0.183937
-0.182939
-1.01497
-0.0537496
-0.131928
-0.110337
-0.155062
-0.164901
-0.15105
-0.219146
-0.148682
-0.275634
-0.144019
-0.332926
-0.144581
-0.38714
-0.145098
-0.440105
-0.143611
-0.492425
-0.14276
-0.543548
-0.142402
-0.593112
-0.141922
-0.641714
-0.140273
-0.69061
-0.138961
-0.739345
-0.138152
-0.788341
-0.137538
-0.8371
-0.137248
-0.885241
-0.137229
-0.932889
-0.136986
-0.979769
-0.137057
-0.136805
-1.0259
-0.049506
-0.0824219
-0.112701
-0.0918667
-0.167807
-0.0959448
-0.221329
-0.0951595
-0.273981
-0.0913675
-0.328917
-0.0896448
-0.385437
-0.0885788
-0.44068
-0.0883675
-0.495738
-0.0877019
-0.550328
-0.0878115
-0.603727
-0.0885231
-0.655474
-0.0885253
-0.70609
-0.0883458
-0.755992
-0.0882499
-0.805207
-0.0883238
-0.853972
-0.0884824
-0.902466
-0.0887349
-0.950207
-0.0892448
-0.997776
-0.0894881
-0.0902705
-1.04431
-0.0478511
-0.0345709
-0.108715
-0.031003
-0.170168
-0.0344917
-0.229437
-0.0358906
-0.284373
-0.036431
-0.338815
-0.0352035
-0.392445
-0.0349482
-0.445791
-0.0350214
-0.498325
-0.0351683
-0.55087
-0.0352662
-0.603384
-0.0360091
-0.655137
-0.0367723
-0.706447
-0.0370366
-0.756909
-0.0377871
-0.807203
-0.0380298
-0.856583
-0.0391031
-0.90585
-0.039468
-0.954269
-0.0408255
-1.00243
-0.0413236
-0.042629
-1.05007
-0.0531428
0.018572
-0.110666
0.0265202
-0.178793
0.0336351
-0.241498
0.0268146
-0.303259
0.0253299
-0.361229
0.0227671
-0.415871
0.0196936
-0.469798
0.0189056
-0.52245
0.0174837
-0.574223
0.0165065
-0.62604
0.0158075
-0.676777
0.0139654
-0.727232
0.0134176
-0.776657
0.011638
-0.825723
0.0110367
-0.874262
0.00943579
-0.922402
0.00867194
-0.970325
0.00709792
-1.0178
0.00615308
0.00451122
-1.06494
-0.057867
0.076439
-0.114719
0.0833718
-0.16927
0.0881867
-0.227697
0.0852417
-0.284551
0.0821837
-0.340903
0.0791189
-0.397339
0.0761293
-0.452992
0.0745586
-0.507697
0.0721894
-0.561522
0.0703307
-0.614429
0.0687151
-0.667107
0.0666429
-0.718945
0.0652558
-0.770353
0.0630467
-0.821058
0.061741
-0.871137
0.059515
-0.92063
0.0581649
-0.969581
0.056049
-1.01805
0.0546178
0.0526872
-1.06622
-0.0601575
0.136597
-0.119925
0.143139
-0.1736
0.141862
-0.22899
0.140633
-0.284201
0.137394
-0.340723
0.135641
-0.398302
0.133708
-0.453908
0.130165
-0.509232
0.127513
-0.563778
0.124877
-0.617572
0.122508
-0.670805
0.119876
-0.722949
0.1174
-0.774936
0.115034
-0.825837
0.112642
-0.876668
0.110346
-0.926615
0.108112
-0.976379
0.105813
-1.02545
0.103687
-1.07405
0.101289
-0.0151441
-0.00110789
0.016252
0.0154269
-0.0365249
0.00595385
0.112819
-0.190442
0.0930502
0.316351
-0.507413
0.303881
0.510993
-0.825693
0.631051
0.623498
-1.00373
0.89123
0.673193
-1.07288
1.02318
0.696133
-1.09375
1.07081
0.707725
-1.09774
1.08615
0.714722
-1.09668
1.08968
0.719115
-1.09329
1.0889
0.723579
-1.09011
1.08564
0.72899
-1.08942
1.084
0.7329
-1.08666
1.08276
0.735125
-1.08376
1.08154
0.737489
-1.0815
1.07913
0.741482
-1.08146
1.07746
0.747044
-1.08314
1.07758
0.752466
-1.08617
1.08075
-1.08837
0.755653
1.08519
-0.00195859
0.000850706
0.0541143
-0.0925978
0.19448
-0.330808
0.390941
-0.703874
0.520713
-0.955465
0.582103
-1.06513
0.607537
-1.09831
0.618434
-1.10465
0.624392
-1.1037
0.628245
-1.10053
0.631451
-1.0965
0.63522
-1.09387
0.637535
-1.09173
0.63914
-1.08827
0.641401
-1.08603
0.644421
-1.08452
0.647294
-1.08433
0.650232
-1.08608
0.653292
-1.08923
-1.09032
0.655241
0.0181414
-0.0172907
0.088271
-0.162727
0.25906
-0.501598
0.410037
-0.85485
0.490867
-1.03629
0.522442
-1.0967
0.534538
-1.11041
0.540006
-1.11012
0.543077
-1.10677
0.545045
-1.1025
0.547015
-1.09847
0.548368
-1.09523
0.54967
-1.09303
0.551028
-1.08963
0.551906
-1.0869
0.552117
-1.08473
0.552958
-1.08517
0.555629
-1.08875
0.557433
-1.09103
-1.09009
0.5572
0.032372
-0.0496627
0.118121
-0.248476
0.280064
-0.663542
0.387164
-0.961949
0.434876
-1.08401
0.452014
-1.11384
0.458435
-1.11683
0.461369
-1.11305
0.462683
-1.10809
0.463818
-1.10363
0.464312
-1.09896
0.464957
-1.09587
0.464818
-1.09289
0.463692
-1.0885
0.462525
-1.08574
0.462461
-1.08466
0.463691
-1.0864
0.464455
-1.08952
0.463546
-1.09013
-1.08778
0.461239
0.0316814
-0.0813441
0.141913
-0.358707
0.2721
-0.793729
0.34488
-1.03473
0.37209
-1.11122
0.380946
-1.12269
0.384608
-1.12049
0.385526
-1.11397
0.386275
-1.10884
0.386126
-1.10348
0.38548
-1.09832
0.38398
-1.09437
0.381678
-1.09059
0.379473
-1.0863
0.377606
-1.08387
0.375705
-1.08276
0.374063
-1.08476
0.372115
-1.08757
0.369463
-1.08747
-1.08316
0.364838
0.0296335
-0.110978
0.146648
-0.475722
0.244941
-0.892022
0.293342
-1.08313
0.308519
-1.12639
0.313705
-1.12788
0.315165
-1.12195
0.315071
-1.11388
0.314336
-1.1081
0.312589
-1.10174
0.309938
-1.09567
0.306987
-1.09142
0.303557
-1.08716
0.299567
-1.08231
0.295298
-1.0796
0.291759
-1.07922
0.289411
-1.08241
0.286466
-1.08462
0.282163
-1.08317
-1.07654
0.275542
0.0373821
-0.14836
0.138801
-0.57714
0.215147
-0.968368
0.24521
-1.11319
0.252216
-1.1334
0.254002
-1.12967
0.251948
-1.1199
0.249999
-1.11193
0.247172
-1.10527
0.243393
-1.09796
0.239125
-1.0914
0.234064
-1.08636
0.228128
-1.08122
0.222019
-1.0762
0.216339
-1.07392
0.211006
-1.07389
0.205862
-1.07727
0.200087
-1.07885
0.192908
-1.07599
-1.06773
0.1841
0.0428046
-0.191164
0.126159
-0.660495
0.181056
-1.02327
0.19611
-1.12825
0.198231
-1.13552
0.195788
-1.12722
0.192682
-1.11679
0.188942
-1.10819
0.184233
-1.10056
0.178667
-1.09239
0.172193
-1.08492
0.165183
-1.07935
0.15779
-1.07383
0.150046
-1.06846
0.142024
-1.0659
0.134505
-1.06637
0.127446
-1.07021
0.119967
-1.07137
0.110795
-1.06682
-1.05714
0.10021
0.044336
-0.2355
0.110129
-0.726288
0.147564
-1.0607
0.153872
-1.13456
0.151877
-1.13352
0.146601
-1.12195
0.140856
-1.11104
0.134237
-1.10157
0.126942
-1.09327
0.118849
-1.0843
0.110289
-1.07636
0.101117
-1.07018
0.091323
-1.06404
0.0811548
-1.05829
0.0710717
-1.05582
0.0611983
-1.0565
0.0514134
-1.06042
0.0412155
-1.06117
0.029703
-1.05531
-1.04475
0.0173077
0.0369847
-0.272485
0.0882973
-0.7776
0.112428
-1.08483
0.112385
-1.13451
0.106438
-1.12758
0.0991775
-1.11469
0.0911983
-1.10307
0.0824595
-1.09283
0.0730043
-1.08381
0.0630351
-1.07433
0.052323
-1.06565
0.0411361
-1.05899
0.0296091
-1.05251
0.0176327
-1.04631
0.00518143
-1.04337
-0.00735804
-1.04396
-0.0200381
-1.04774
-0.0328531
-1.04836
-0.0463614
-1.0418
-1.03029
-0.0608235
0.0355433
-0.308028
0.0771325
-0.819189
0.0885402
-1.09624
0.0822806
-1.12825
0.0719574
-1.11725
0.0611048
-1.10384
0.0495822
-1.09154
0.0376075
-1.08085
0.0252306
-1.07144
0.0123758
-1.06148
-0.000776527
-1.0525
-0.0143921
-1.04538
-0.0282559
-1.03864
-0.0425543
-1.03201
-0.057553
-1.02837
-0.0732238
-1.02829
-0.0892217
-1.03175
-0.105232
-1.03235
-0.121635
-1.0254
-1.01334
-0.13858
0.0286338
-0.336662
0.0598335
-0.850389
0.061942
-1.09835
0.050564
-1.11688
0.0370098
-1.1037
0.0233307
-1.09016
0.00915671
-1.07737
-0.0055103
-1.06619
-0.0203521
-1.0566
-0.0353462
-1.04648
-0.0507319
-1.03711
-0.0663139
-1.02979
-0.0821201
-1.02284
-0.0983811
-1.01575
-0.115356
-1.01139
-0.133463
-1.01018
-0.152611
-1.0126
-0.171516
-1.01344
-0.190055
-1.00686
-0.994353
-0.209043
0.0237633
-0.360425
0.0446404
-0.871266
0.0392169
-1.09292
0.0239526
-1.10161
0.00721726
-1.08696
-0.00957087
-1.07337
-0.0267088
-1.06023
-0.044136
-1.04876
-0.0618007
-1.03893
-0.079565
-1.02872
-0.0975247
-1.01915
-0.115802
-1.01152
-0.133931
-1.00471
-0.152346
-0.997337
-0.172002
-0.991736
-0.193266
-0.988913
-0.215741
-0.990123
-0.238206
-0.990978
-0.260287
-0.984776
-0.972083
-0.282558
0.0189276
-0.379353
0.0320789
-0.884418
0.0203134
-1.08116
0.00144837
-1.08275
-0.0185051
-1.06701
-0.0386191
-1.05325
-0.0590444
-1.03981
-0.079746
-1.02806
-0.100257
-1.01842
-0.120689
-1.00829
-0.141163
-0.99868
-0.161687
-0.990993
-0.182283
-0.984113
-0.202891
-0.976729
-0.223707
-0.97092
-0.246202
-0.966419
-0.271118
-0.965206
-0.296453
-0.965643
-0.320613
-0.960616
-0.948243
-0.344453
0.0149671
-0.39432
0.0208521
-0.890303
0.00294842
-1.06325
-0.0204265
-1.05937
-0.043808
-1.04363
-0.0671201
-1.02994
-0.0902773
-1.01665
-0.113636
-1.0047
-0.137103
-0.994954
-0.160338
-0.985051
-0.183657
-0.97536
-0.207238
-0.967412
-0.230323
-0.961028
-0.253537
-0.953515
-0.277663
-0.946793
-0.302783
-0.941299
-0.32976
-0.93823
-0.358302
-0.9371
-0.386467
-0.932451
-0.920955
-0.413755
0.0111378
-0.405458
0.0103494
-0.889514
-0.0118011
-1.0411
-0.0376575
-1.03351
-0.0639125
-1.01737
-0.0902915
-1.00356
-0.116892
-0.990048
-0.143683
-0.977909
-0.170192
-0.968445
-0.196577
-0.958666
-0.222751
-0.949187
-0.249132
-0.94103
-0.275726
-0.934435
-0.301537
-0.927704
-0.3271
-0.921231
-0.354058
-0.91434
-0.383455
-0.908833
-0.414339
-0.906217
-0.444196
-0.902593
-0.892318
-0.472834
0.00800867
-0.413467
0.00317151
-0.884677
-0.0246899
-1.01324
-0.0547537
-1.00345
-0.0844394
-0.987688
-0.113939
-0.974064
-0.142934
-0.961052
-0.172246
-0.948597
-0.201725
-0.938966
-0.230865
-0.929526
-0.260034
-0.920018
-0.289335
-0.911729
-0.318529
-0.90524
-0.348111
-0.898123
-0.377538
-0.891804
-0.406462
-0.885416
-0.436648
-0.878648
-0.469967
-0.872898
-0.503442
-0.869119
-0.861301
-0.534458
0.00462055
-0.418087
-0.00665537
-0.873401
-0.0369158
-0.982982
-0.0691654
-0.971201
-0.101062
-0.955792
-0.133209
-0.941917
-0.165397
-0.928864
-0.197722
-0.916272
-0.230002
-0.906686
-0.262258
-0.89727
-0.294286
-0.88799
-0.32665
-0.879365
-0.359353
-0.872537
-0.391443
-0.866033
-0.42372
-0.859526
-0.456741
-0.852395
-0.489751
-0.845637
-0.523334
-0.839315
-0.558502
-0.83395
-0.827935
-0.591868
0.00191986
-0.420007
-0.0132271
-0.858254
-0.0470677
-0.949141
-0.0824034
-0.935866
-0.117105
-0.92109
-0.151545
-0.907477
-0.185454
-0.894955
-0.219774
-0.881952
-0.254463
-0.871997
-0.288858
-0.862875
-0.323297
-0.853551
-0.357776
-0.844886
-0.392606
-0.837708
-0.428273
-0.830366
-0.463162
-0.824637
-0.497188
-0.818369
-0.532664
-0.810161
-0.568953
-0.803026
-0.605955
-0.796949
-0.790676
-0.643214
-0.0005824
-0.0208527
-0.0574373
-0.0948686
-0.131527
-0.16827
-0.204689
-0.240982
-0.277529
-0.314203
-0.350574
-0.387384
-0.424196
-0.461086
-0.499657
-0.537131
-0.572556
-0.609159
-0.647174
-0.687983
0.653536
-9.62779
9.72991
0.569357
-9.25639
9.34057
0.501073
-9.2895
9.35778
0.433834
-9.03971
9.10695
0.378026
-9.083
9.13881
0.327881
-8.99484
9.04498
0.284056
-9.02328
9.06711
0.244205
-8.95215
8.992
0.215432
-8.99229
9.02106
0.189689
-8.99666
9.0224
0.166332
-9.03122
9.05458
0.143126
-9.01434
9.03754
0.121426
-9.04211
9.06381
0.102258
-9.00302
9.02219
0.0852757
-9.03132
9.04831
0.0677823
-8.94776
8.96526
0.0578701
-8.90891
8.91883
0.0384127
-8.04172
8.06117
0.0200857
-5.80592
5.82425
-2.45669
2.47677
0.560278
-9.53283
0.477269
-9.17339
0.40965
-9.22188
0.348885
-8.97894
0.299225
-9.03334
0.252131
-8.94774
0.211533
-8.98269
0.177799
-8.91841
0.155599
-8.97009
0.135282
-8.97634
0.117085
-9.01303
0.099165
-8.99642
0.0831557
-9.0261
0.0698562
-8.98972
0.0589524
-9.02042
0.0476579
-8.93647
0.0435169
-8.90477
0.0298312
-8.02803
0.0172987
-5.79339
-2.43939
0.456925
-9.43255
0.384178
-9.10064
0.323506
-9.1612
0.268294
-8.92373
0.223937
-8.98898
0.18438
-8.90819
0.151283
-8.94959
0.123691
-8.89082
0.105889
-8.95229
0.0897306
-8.96018
0.075781
-8.99908
0.0619209
-8.98256
0.0502709
-9.01445
0.041381
-8.98083
0.0347378
-9.01378
0.0281511
-8.92988
0.0290233
-8.90564
0.0219006
-8.02091
0.0157501
-5.78724
-2.42364
0.364861
-9.33618
0.291716
-9.02749
0.234065
-9.10355
0.186219
-8.87588
0.146718
-8.94948
0.109741
-8.87121
0.0803906
-8.92024
0.0591609
-8.86959
0.0473875
-8.94052
0.036099
-8.9489
0.027252
-8.99023
0.01866
-8.97396
0.0124258
-9.00822
0.00903326
-8.97744
0.00805235
-9.01279
0.00726525
-8.92909
0.0143353
-8.91272
0.013395
-8.01997
0.013313
-5.78716
-2.41032
0.266404
-9.23774
0.201081
-8.96217
0.149526
-9.052
0.106928
-8.83329
0.0744641
-8.91702
0.0455088
-8.84225
0.022775
-8.8975
0.00664734
-8.85346
-0.00122404
-8.93264
-0.00853967
-8.94158
-0.0134174
-8.98535
-0.0181261
-8.96926
-0.020224
-9.00612
-0.0196814
-8.97798
-0.0161453
-9.01633
-0.0123664
-8.93287
4.18402e-06
-8.92509
0.00560775
-8.02557
0.0117457
-5.7933
-2.39858
0.177311
-9.13951
0.11136
-8.89622
0.0654442
-9.00608
0.0296106
-8.79745
-0.000661757
-8.88675
-0.0274598
-8.81545
-0.0460965
-8.87887
-0.0559331
-8.84363
-0.0584772
-8.9301
-0.0612285
-8.93883
-0.060917
-8.98566
-0.0603889
-8.96978
-0.0573284
-9.00918
-0.0516426
-8.98366
-0.0428879
-9.02509
-0.0333289
-8.94243
-0.0150186
-8.9434
-0.00273231
-8.03786
0.00931464
-5.80534
-2.38926
0.0857248
-9.04114
0.0260133
-8.83651
-0.0165212
-8.96355
-0.0483849
-8.76559
-0.0702908
-8.86484
-0.0892694
-8.79648
-0.101913
-8.86622
-0.107223
-8.83832
-0.106023
-8.9313
-0.104871
-8.93998
-0.100769
-8.98976
-0.0965386
-8.97401
-0.0894196
-9.0163
-0.0800451
-8.99304
-0.0664671
-9.03866
-0.0524286
-8.95647
-0.029364
-8.96646
-0.00995641
-8.05727
0.00769957
-5.823
-2.38156
-0.000191877
-8.94073
-0.0593343
-8.77737
-0.0958307
-8.92705
-0.124012
-8.73741
-0.143349
-8.8455
-0.160498
-8.77933
-0.168968
-8.85775
-0.168114
-8.83917
-0.162061
-8.93735
-0.156442
-8.9456
-0.147068
-8.99914
-0.137596
-8.98349
-0.125498
-9.02839
-0.111244
-9.00729
-0.0928096
-9.0571
-0.0730849
-8.9762
-0.0436961
-8.99585
-0.0178844
-8.08308
0.00512987
-5.84601
-2.37643
-0.0827379
-8.84069
-0.140421
-8.71968
-0.175049
-8.89242
-0.198936
-8.71352
-0.210671
-8.83377
-0.220163
-8.76983
-0.223438
-8.85448
-0.21829
-8.84432
-0.208492
-8.94715
-0.199007
-8.95508
-0.186005
-9.01214
-0.172939
-8.99655
-0.156821
-9.04451
-0.138961
-9.02515
-0.116068
-9.07999
-0.0919198
-9.00034
-0.0576718
-9.0301
-0.0251692
-8.11558
0.0029774
-5.87416
-2.37346
-0.160522
-8.74099
-0.220506
-8.6597
-0.251527
-8.8614
-0.274542
-8.69051
-0.283577
-8.82473
-0.289926
-8.76349
-0.288707
-8.8557
-0.277419
-8.85561
-0.262976
-8.9616
-0.249149
-8.96891
-0.230841
-9.03045
-0.212569
-9.01482
-0.191528
-9.06556
-0.168983
-9.0477
-0.14159
-9.10738
-0.111929
-9.03001
-0.0716261
-9.0704
-0.032638
-8.15457
0.000682954
-5.90748
-2.37277
-0.239455
-8.64012
-0.297915
-8.60124
-0.32852
-8.8308
-0.345373
-8.67365
-0.347097
-8.82301
-0.347202
-8.76338
-0.341719
-8.86118
-0.326733
-8.87059
-0.308376
-8.97995
-0.29044
-8.98685
-0.26874
-9.05215
-0.24698
-9.03659
-0.221895
-9.09064
-0.195807
-9.07379
-0.164522
-9.13867
-0.130504
-9.06402
-0.0852151
-9.11569
-0.0398943
-8.19989
-0.00182547
-5.94555
-2.3746
-0.314114
-8.53505
-0.374437
-8.54091
-0.401062
-8.80417
-0.418543
-8.65617
-0.419034
-8.82252
-0.415441
-8.76697
-0.404818
-8.8718
-0.384142
-8.89127
-0.361144
-9.00295
-0.338873
-9.00912
-0.31188
-9.07914
-0.284904
-9.06356
-0.255012
-9.12053
-0.224349
-9.10445
-0.188778
-9.17424
-0.149576
-9.10323
-0.0986243
-9.16664
-0.0474298
-8.25108
-0.00445887
-5.98852
-2.37906
-0.388749
-8.42885
-0.448141
-8.48152
-0.474002
-8.77831
-0.48482
-8.64535
-0.479163
-8.82818
-0.470538
-8.7756
-0.456026
-8.88632
-0.432448
-8.91485
-0.405595
-9.02981
-0.378727
-9.03598
-0.348572
-9.1093
-0.318271
-9.09386
-0.284431
-9.15437
-0.250357
-9.13852
-0.211101
-9.21349
-0.16758
-9.14675
-0.111915
-9.22231
-0.0544658
-8.30853
-0.00664638
-6.03634
-2.3857
-0.459849
-8.31346
-0.520265
-8.42111
-0.54261
-8.75597
-0.554454
-8.63351
-0.548394
-8.83424
-0.536103
-8.78789
-0.516337
-8.90608
-0.48776
-8.94342
-0.456467
-9.0611
-0.425352
-9.0671
-0.389712
-9.14494
-0.354248
-9.12933
-0.315913
-9.19271
-0.277203
-9.17723
-0.23377
-9.25693
-0.18571
-9.19481
-0.125096
-9.28292
-0.0615374
-8.37209
-0.0085813
-6.0893
-2.39429
-0.528066
-8.19915
-0.588475
-8.3607
-0.60854
-8.7359
-0.61554
-8.62651
-0.605368
-8.84441
-0.588851
-8.80441
-0.56544
-8.92949
-0.534593
-8.97427
-0.499618
-9.09607
-0.463831
-9.10288
-0.425232
-9.18354
-0.386442
-9.16812
-0.344333
-9.23482
-0.302162
-9.2194
-0.254678
-9.30441
-0.202705
-9.24678
-0.137915
-9.34771
-0.0686654
-8.44134
-0.0101378
-6.14782
-2.40442
-0.592934
-8.07905
-0.655605
-8.29803
-0.675075
-8.71643
-0.681996
-8.61959
-0.670925
-8.85548
-0.65076
-8.82457
-0.622576
-8.95768
-0.587104
-9.00974
-0.548294
-9.13488
-0.508359
-9.14282
-0.464088
-9.22781
-0.420314
-9.21189
-0.374013
-9.28112
-0.327423
-9.26599
-0.275842
-9.35599
-0.219849
-9.30277
-0.150506
-9.41705
-0.0761131
-8.51573
-0.0118569
-6.21208
-2.41628
-0.654723
-7.95878
-0.718277
-8.23447
-0.733982
-8.70073
-0.737149
-8.61642
-0.723718
-8.86891
-0.700242
-8.84805
-0.669065
-8.98885
-0.631684
-9.04712
-0.589481
-9.17709
-0.545292
-9.18701
-0.498309
-9.27479
-0.451022
-9.25918
-0.400896
-9.33124
-0.35075
-9.31614
-0.295255
-9.41149
-0.235758
-9.36227
-0.162756
-9.49006
-0.0840276
-8.59446
-0.013718
-6.28239
-2.43
-0.71929
-7.83136
-0.785592
-8.16817
-0.800013
-8.6863
-0.801586
-8.61485
-0.785454
-8.88504
-0.758003
-8.8755
-0.722645
-9.02421
-0.681416
-9.08835
-0.635995
-9.22251
-0.587543
-9.23546
-0.535057
-9.32728
-0.482969
-9.31126
-0.428496
-9.38572
-0.373977
-9.37066
-0.314824
-9.47064
-0.25181
-9.42528
-0.174814
-9.56705
-0.0902272
-8.67905
-0.0144727
-6.35814
-2.44447
-0.769839
-7.70473
-0.843577
-8.09443
-0.854361
-8.67552
-0.855228
-8.61398
-0.836988
-8.90328
-0.806215
-8.90627
-0.767988
-9.06244
-0.725089
-9.13125
-0.676363
-9.27124
-0.624032
-9.28779
-0.568712
-9.3826
-0.512692
-9.36728
-0.45407
-9.44434
-0.395902
-9.42883
-0.332784
-9.53376
-0.266579
-9.49149
-0.186324
-9.64731
-0.0977381
-8.76763
-0.0172153
-6.43867
-2.46169
-0.814758
-7.57796
-0.897657
-8.01153
-0.911661
-8.66152
-0.907999
-8.61765
-0.888116
-8.92316
-0.854251
-8.94014
-0.813351
-9.10334
-0.768078
-9.17653
-0.718039
-9.32127
-0.661747
-9.34408
-0.602021
-9.44232
-0.541544
-9.42776
-0.47907
-9.50681
-0.416384
-9.49151
-0.351269
-9.59887
-0.281338
-9.56142
-0.197992
-9.73065
-0.104699
-8.86093
-0.0174675
-6.5259
-2.47915
6.36834
-7.28944
-6.65686
5.8846
-7.52779
5.24029
-8.01721
4.75666
-8.13401
4.25425
-8.42076
3.84454
-8.53043
3.46103
-8.71983
3.1033
-8.81879
2.74146
-8.95943
2.42071
-9.02334
2.09283
-9.11444
1.81474
-9.14967
1.53593
-9.228
1.3014
-9.25698
1.04351
-9.34099
0.840558
-9.35846
0.511435
-9.40153
0.29595
-8.64544
0.17824
-6.40819
-2.30091
3.53678
-7.26224
-3.56398
3.49706
-7.48807
3.29389
-7.81405
3.13175
-7.97186
2.89815
-8.18716
2.68713
-8.31941
2.44824
-8.48094
2.22535
-8.5959
1.99296
-8.72704
1.78091
-8.81129
1.56045
-8.89398
1.36712
-8.95634
1.16918
-9.03007
0.994328
-9.08213
0.804856
-9.15151
0.633654
-9.18726
0.411434
-9.17931
0.242189
-8.4762
-0.0153637
-6.15064
-2.31628
2.35342
-7.38271
-2.23295
2.44295
-7.5776
2.4531
-7.8242
2.43408
-7.95283
2.34424
-8.09732
2.23671
-8.21188
2.09593
-8.34016
1.94353
-8.44351
1.76434
-8.54785
1.58187
-8.62883
1.39439
-8.70649
1.2199
-8.78185
1.0418
-8.85197
0.873903
-8.91423
0.697093
-8.9747
0.525721
-9.01589
0.351241
-9.00483
0.225144
-8.3501
0.0562431
-5.98174
-2.26003
1.35683
-7.58742
-1.15211
1.48376
-7.70453
1.53121
-7.87164
1.54631
-7.96794
1.52017
-8.07119
1.47331
-8.16502
1.39456
-8.26141
1.30766
-8.35661
1.20468
-8.44487
1.09836
-8.52251
0.994363
-8.60249
0.883866
-8.67135
0.765285
-8.73339
0.642333
-8.79128
0.513354
-8.84572
0.393438
-8.89597
0.25907
-8.87046
0.167884
-8.25891
0.0985027
-5.91235
-2.16153
0.868163
-7.72892
-0.726668
0.976057
-7.81243
1.03388
-7.92946
1.08139
-8.01545
1.10388
-8.09368
1.10141
-8.16255
1.06834
-8.22834
1.01214
-8.30041
0.938457
-8.3712
0.856178
-8.44023
0.759759
-8.50607
0.652795
-8.56439
0.542467
-8.62306
0.428025
-8.67684
0.32212
-8.73982
0.215216
-8.78907
0.118256
-8.7735
0.0726484
-8.21331
0.0619386
-5.90164
-2.09959
0.454859
-7.85598
-0.327798
0.559166
-7.91673
0.612601
-7.9829
0.644446
-8.0473
0.651876
-8.10111
0.638231
-8.1489
0.615545
-8.20565
0.575805
-8.26067
0.525908
-8.3213
0.467162
-8.38148
0.400883
-8.43979
0.334039
-8.49755
0.262566
-8.55158
0.187134
-8.60141
0.104999
-8.65768
0.0224649
-8.70653
-0.051053
-8.69999
-0.0552719
-8.20909
0.034152
-5.99107
-2.06544
0.239781
-7.94025
-0.155509
0.303431
-7.98038
0.342044
-8.02151
0.361943
-8.0672
0.372183
-8.11135
0.368274
-8.14499
0.355217
-8.19259
0.330383
-8.23583
0.298435
-8.28935
0.25331
-8.33635
0.199468
-8.38595
0.134276
-8.43235
0.0631434
-8.48045
-0.0160153
-8.52225
-0.0958458
-8.57785
-0.173906
-8.62847
-0.236496
-8.6374
-0.203347
-8.24224
-0.0261856
-6.16823
-2.09163
0.0363429
-7.99776
0.0211592
0.0827822
-8.02682
0.11624
-8.05497
0.124903
-8.07586
0.126875
-8.11332
0.118654
-8.13677
0.0993104
-8.17325
0.0726883
-8.20921
0.03476
-8.25142
-0.010386
-8.29121
-0.063572
-8.33276
-0.121716
-8.37421
-0.183224
-8.41894
-0.251433
-8.45404
-0.322077
-8.50721
-0.390708
-8.55984
-0.453879
-8.57423
-0.424675
-8.27144
-0.166002
-6.4269
-2.25763
-0.0896878
-8.03308
0.125013
-0.0690792
-8.04743
-0.0583375
-8.06571
-0.0553443
-8.07885
-0.066586
-8.10208
-0.0771361
-8.12622
-0.0964494
-8.15394
-0.11805
-8.18761
-0.150153
-8.21932
-0.19121
-8.25015
-0.240184
-8.28379
-0.299343
-8.31505
-0.36732
-8.35097
-0.44191
-8.37945
-0.527632
-8.42149
-0.626254
-8.46122
-0.709889
-8.49059
-0.706439
-8.27489
-0.344808
-6.78853
-2.60244
-0.199891
-8.04859
0.215395
-0.187546
-8.05978
-0.184779
-8.06848
-0.180519
-8.08311
-0.186637
-8.09596
-0.199475
-8.11338
-0.219119
-8.13429
-0.249532
-8.1572
-0.288815
-8.18003
-0.336879
-8.20209
-0.393336
-8.22733
-0.458618
-8.24977
-0.531541
-8.27804
-0.609133
-8.30186
-0.700049
-8.33057
-0.806228
-8.35504
-0.914507
-8.38231
-0.928449
-8.26095
-0.578383
-7.1386
-3.18082
-0.280821
-8.05514
0.287376
-0.278698
-8.0619
-0.279193
-8.06798
-0.285478
-8.07683
-0.293856
-8.08758
-0.31303
-8.09421
-0.338948
-8.10838
-0.371394
-8.12475
-0.411012
-8.14042
-0.457817
-8.15528
-0.512596
-8.17255
-0.574449
-8.18791
-0.648652
-8.20384
-0.734414
-8.2161
-0.839573
-8.22541
-0.956887
-8.23773
-1.08324
-8.25596
-1.12306
-8.22113
-0.850435
-7.41123
-4.03125
-0.327942
-8.05858
0.331381
-0.328535
-8.06131
-0.331365
-8.06515
-0.338281
-8.06991
-0.349804
-8.07606
-0.36396
-8.08005
-0.383496
-8.08884
-0.413236
-8.09501
-0.449073
-8.10458
-0.493286
-8.11107
-0.545471
-8.12037
-0.607448
-8.12594
-0.678054
-8.13324
-0.756766
-8.13738
-0.846494
-8.13568
-0.945951
-8.13827
-1.07605
-8.12585
-1.18413
-8.11305
-0.978041
-7.61732
-5.00929
-0.346747
-8.05601
0.344176
-0.352456
-8.0556
-0.361025
-8.05658
-0.374079
-8.05686
-0.390711
-8.05942
-0.410441
-8.06032
-0.432431
-8.06685
-0.459553
-8.06789
-0.488326
-8.07581
-0.522109
-8.07729
-0.560157
-8.08232
-0.604757
-8.08134
-0.654722
-8.08327
-0.712874
-8.07923
-0.775023
-8.07354
-0.848955
-8.06434
-0.930766
-8.04404
-1.03853
-8.00529
-0.896066
-7.75978
-5.90536
-0.3592
-8.04981
0.353007
-0.366553
-8.04824
-0.374662
-8.04847
-0.383777
-8.04774
-0.392232
-8.05097
-0.403759
-8.0488
-0.419958
-8.05065
-0.438562
-8.04929
-0.4626
-8.05177
-0.490106
-8.04978
-0.52067
-8.05176
-0.555269
-8.04674
-0.5928
-8.04574
-0.63634
-8.03569
-0.678395
-8.03148
-0.732027
-8.01071
-0.776067
-8
-0.825297
-7.95606
-0.729589
-7.85549
-6.63495
-0.350396
-8.04147
0.342056
-0.359045
-8.03959
-0.367932
-8.03959
-0.378003
-8.03767
-0.389719
-8.03925
-0.400925
-8.03759
-0.413227
-8.03835
-0.42612
-8.03639
-0.440451
-8.03744
-0.455609
-8.03463
-0.472795
-8.03457
-0.490907
-8.02863
-0.510599
-8.02605
-0.531192
-8.0151
-0.551124
-8.01155
-0.57317
-7.98866
-0.592463
-7.98071
-0.6128
-7.93572
-0.556536
-7.91175
-7.19149
-0.320132
-8.03452
0.31318
-0.326635
-8.03309
-0.332754
-8.03347
-0.339022
-8.0314
-0.347487
-8.03079
-0.355396
-8.02968
-0.364078
-8.02967
-0.372432
-8.02804
-0.381889
-8.02798
-0.391509
-8.025
-0.402325
-8.02375
-0.412601
-8.01835
-0.422442
-8.01621
-0.43144
-8.0061
-0.441345
-8.00164
-0.445995
-7.98401
-0.452476
-7.97423
-0.44081
-7.94739
-0.416246
-7.93631
-7.60773
-0.267639
-8.02813
0.261249
-0.27393
-8.0268
-0.281077
-8.02632
-0.286463
-8.02602
-0.290804
-8.02645
-0.294746
-8.02574
-0.298472
-8.02594
-0.301819
-8.02469
-0.305313
-8.02449
-0.308061
-8.02226
-0.310565
-8.02125
-0.311148
-8.01777
-0.311558
-8.0158
-0.308428
-8.00923
-0.306535