/*--------------------------------*- C++ -*----------------------------------*\
  =========                 |
  \\      /  F ield         | OpenFOAM: The Open Source CFD Toolbox
   \\    /   O peration     | Website:  https://openfoam.org
    \\  /    A nd           | Version:  9
     \\/     M anipulation  |
\*---------------------------------------------------------------------------*/
FoamFile
{
    format      ascii;
    class       volVectorField;
    location    "7";
    object      U;
}
// * * * * * * * * * * * * * * * * * * * * * * * * * * * * * * * * * * * * * //

dimensions      [0 1 -1 0 0 0 0];

internalField   nonuniform List<vector> 
46400
(
(7.56022 -7.2523 8.4995e-19)
(14.8744 -14.3599 -1.01298e-18)
(15.7617 -15.8798 -4.08408e-20)
(15.1059 -15.9716 -2.89071e-19)
(14.6045 -16.0366 -3.0466e-20)
(14.0526 -16.1174 1.72288e-18)
(13.565 -16.1792 -9.87042e-19)
(13.0698 -16.2206 2.61471e-19)
(12.6525 -16.3344 -2.61625e-19)
(12.2418 -16.4162 2.61351e-19)
(11.8484 -16.5138 -2.60675e-19)
(11.479 -16.5884 0)
(11.1278 -16.6815 1.75517e-18)
(10.8136 -16.7887 -1.98203e-18)
(10.4664 -16.8394 -2.24866e-18)
(10.1843 -16.9354 -2.7213e-19)
(9.91652 -17.0983 -1.81152e-20)
(9.64183 -17.1202 1.69137e-18)
(9.37033 -17.1292 2.15615e-18)
(8.95598 -17.2582 -1.99873e-18)
(7.78333 -6.84263 0)
(14.8759 -13.4281 -2.35646e-20)
(15.506 -14.6123 0)
(14.8871 -14.8179 1.33667e-18)
(14.3607 -14.8956 -1.06257e-18)
(13.8241 -15.0331 2.59389e-19)
(13.3529 -15.1641 0)
(12.8611 -15.2435 -2.61457e-19)
(12.385 -15.3235 2.6161e-19)
(11.9957 -15.4591 -2.61337e-19)
(11.5925 -15.5913 2.42962e-18)
(11.221 -15.6937 2.2299e-20)
(10.8607 -15.8224 -1.86362e-18)
(10.5381 -15.917 0)
(10.2343 -16.0665 2.55276e-19)
(9.92456 -16.1282 2.53493e-19)
(9.62942 -16.2303 0)
(9.38444 -16.3321 -2.06257e-18)
(9.16961 -16.4693 -5.03636e-19)
(8.86343 -16.7081 2.09593e-18)
(7.9224 -6.43214 7.57588e-19)
(14.7699 -12.4115 -1.04412e-18)
(15.2277 -13.4301 1.13204e-18)
(14.5878 -13.6061 1.17831e-18)
(14.085 -13.774 -1.15682e-18)
(13.5421 -13.9129 0)
(13.0609 -14.079 -2.66086e-18)
(12.5954 -14.2066 2.31705e-18)
(12.158 -14.3606 -2.63676e-18)
(11.735 -14.4627 2.59562e-18)
(11.3493 -14.6345 2.30467e-18)
(10.9868 -14.7666 -2.746e-19)
(10.6505 -14.95 -1.95927e-18)
(10.3278 -15.0932 0)
(9.99415 -15.2224 2.22135e-18)
(9.73342 -15.4108 -2.18768e-18)
(9.44392 -15.5447 0)
(9.14412 -15.5796 -1.23748e-20)
(8.87832 -15.6625 2.55838e-19)
(8.53187 -15.9269 -2.20761e-18)
(8.05295 -5.99935 -8.89695e-19)
(14.4968 -11.2256 2.79631e-19)
(14.8233 -12.2041 1.26422e-18)
(14.194 -12.4489 -1.2491e-18)
(13.6552 -12.6313 -9.46087e-19)
(13.1321 -12.8427 1.25046e-18)
(12.6594 -13.0661 1.56537e-18)
(12.1889 -13.2368 -3.74809e-18)
(11.7231 -13.3997 3.08396e-18)
(11.3341 -13.5657 -2.97939e-19)
(10.9236 -13.7231 0)
(10.5542 -13.8645 2.92893e-19)
(10.1911 -14.0234 -2.90078e-19)
(9.90436 -14.2096 0)
(9.58469 -14.3633 2.33242e-18)
(9.29212 -14.5012 -2.00296e-18)
(9.09135 -14.7916 0)
(8.87187 -14.959 2.74387e-19)
(8.64078 -15.0898 2.80275e-19)
(8.31087 -15.3587 2.32049e-18)
(8.26278 -5.53524 0)
(14.1397 -10.0857 0)
(14.3225 -10.9349 -1.36593e-18)
(13.6999 -11.2199 9.95251e-19)
(13.2064 -11.5081 -1.68933e-18)
(12.6696 -11.7199 1.33792e-18)
(12.1948 -11.9835 0)
(11.7797 -12.2238 1.329e-18)
(11.3635 -12.4856 -1.62523e-18)
(10.9623 -12.6556 -3.32919e-19)
(10.5959 -12.8828 -3.28745e-19)
(10.2503 -13.0422 0)
(9.91728 -13.2466 2.50454e-18)
(9.61568 -13.4176 -2.46534e-18)
(9.32143 -13.6129 0)
(8.98483 -13.6925 -2.69845e-18)
(8.6877 -13.8467 2.36844e-18)
(8.47275 -14.0543 2.33828e-18)
(8.24704 -14.2148 -2.57377e-18)
(7.93205 -14.5271 0)
(8.52037 -5.15845 0)
(13.6136 -8.95614 0)
(13.6604 -9.73393 0)
(13.051 -10.071 -2.33835e-20)
(12.5245 -10.3986 0)
(12.0497 -10.6984 0)
(11.5629 -11.0011 0)
(11.1106 -11.2387 -3.59078e-19)
(10.6894 -11.5359 0)
(10.3421 -11.808 3.32867e-19)
(9.95839 -12.062 -1.56765e-20)
(9.61024 -12.2711 -2.99884e-18)
(9.24917 -12.4655 2.2832e-18)
(8.98104 -12.7031 -2.91041e-18)
(8.73431 -12.9634 2.21776e-18)
(8.48398 -13.1751 0)
(8.20759 -13.3411 -2.46569e-18)
(7.97893 -13.5137 2.12028e-18)
(7.7856 -13.6914 0)
(7.49027 -13.9866 -3.21928e-19)
(8.78893 -4.76217 1.47652e-18)
(12.9927 -7.91728 4.02567e-19)
(12.8453 -8.54028 1.56674e-18)
(12.3338 -8.9335 -1.56114e-18)
(11.8686 -9.34966 -1.53413e-18)
(11.3983 -9.63842 3.02171e-18)
(10.9659 -10.0024 -3.36504e-18)
(10.5836 -10.285 3.54452e-19)
(10.1776 -10.6023 1.07771e-18)
(9.81829 -10.8583 0)
(9.50585 -11.1858 -1.47279e-20)
(9.2178 -11.4546 -1.3972e-20)
(8.8919 -11.6954 3.34162e-19)
(8.56208 -11.8626 2.66984e-18)
(8.29832 -12.107 -2.31712e-18)
(8.04308 -12.3164 -2.92551e-18)
(7.79273 -12.5434 2.5566e-18)
(7.56315 -12.7244 -1.02801e-20)
(7.3643 -12.9295 -3.13818e-19)
(7.11458 -13.2469 -2.29766e-18)
(8.93291 -4.4871 -3.90334e-19)
(12.1605 -6.88317 2.29765e-20)
(11.9026 -7.54715 -4.23479e-19)
(11.4337 -7.94099 -1.658e-18)
(10.958 -8.39934 1.19609e-18)
(10.5726 -8.76314 0)
(10.1291 -9.14842 2.34718e-18)
(9.72717 -9.43503 -1.14648e-18)
(9.34615 -9.78244 7.56709e-19)
(9.02852 -10.0924 3.79343e-19)
(8.6689 -10.3919 -7.32869e-19)
(8.39694 -10.7144 1.79418e-18)
(8.12789 -11.0473 3.5974e-19)
(7.87585 -11.3312 -2.08414e-18)
(7.61837 -11.5934 5.81371e-18)
(7.3912 -11.8406 -2.35876e-18)
(7.14963 -12.0708 2.97026e-18)
(6.93 -12.2672 -1.94861e-18)
(6.72894 -12.457 6.3685e-19)
(6.49684 -12.7595 3.05124e-18)
(8.824 -4.14184 1.96681e-18)
(11.2992 -5.97088 -4.26583e-19)
(10.9196 -6.57211 -1.97534e-20)
(10.5565 -7.00921 8.54427e-19)
(10.1698 -7.52302 4.11891e-19)
(9.77485 -7.86669 4.22109e-19)
(9.43513 -8.30711 -2.02747e-18)
(9.11378 -8.63935 1.20766e-18)
(8.728 -8.96793 -3.8602e-19)
(8.41735 -9.27005 -3.79411e-19)
(8.11333 -9.5789 -3.7285e-19)
(7.81665 -9.82659 -3.78062e-19)
(7.54536 -10.1251 -7.3075e-19)
(7.29592 -10.4042 2.51428e-18)
(7.08473 -10.7226 -3.52758e-18)
(6.87537 -10.9932 -3.50449e-19)
(6.68149 -11.2888 9.16738e-21)
(6.49338 -11.5303 -2.65424e-18)
(6.30779 -11.7649 1.96961e-18)
(6.09961 -12.077 -3.12532e-18)
(8.45185 -3.69904 1.67687e-18)
(10.2251 -5.12753 -4.12301e-18)
(9.82986 -5.75921 2.7133e-18)
(9.45652 -6.18614 -4.36476e-19)
(9.07778 -6.74506 -4.45099e-19)
(8.79382 -7.1925 1.73523e-18)
(8.41241 -7.63377 -2.11913e-18)
(8.1134 -8.00371 0)
(7.78934 -8.37219 1.62493e-18)
(7.54162 -8.73057 -1.59779e-18)
(7.28152 -9.10153 -1.16592e-18)
(7.04054 -9.40777 1.52664e-18)
(6.7667 -9.69234 3.71025e-19)
(6.51636 -9.93589 -1.4734e-18)
(6.30119 -10.2255 3.62996e-19)
(6.11465 -10.4865 1.77341e-18)
(5.91988 -10.7591 -3.12363e-18)
(5.75577 -11.0044 2.05558e-18)
(5.58916 -11.2459 -7.57721e-21)
(5.40252 -11.5393 -2.85204e-18)
(7.87242 -3.19227 2.2008e-18)
(9.25392 -4.33268 -1.426e-18)
(8.83134 -4.96909 9.38294e-19)
(8.5241 -5.40892 9.34859e-22)
(8.17006 -5.94839 -1.82259e-18)
(7.87583 -6.38758 -1.76037e-18)
(7.63389 -6.92614 2.17135e-18)
(7.40528 -7.36011 -1.27255e-18)
(7.05399 -7.73761 1.6764e-18)
(6.73388 -8.03932 0)
(6.49423 -8.42684 1.01761e-20)
(6.2937 -8.76831 3.88884e-19)
(6.10537 -9.14066 3.90427e-19)
(5.86934 -9.41129 -3.82479e-19)
(5.66394 -9.71605 0)
(5.491 -9.99783 3.6714e-19)
(5.32463 -10.2902 0)
(5.17437 -10.5515 6.98101e-19)
(5.03023 -10.8121 3.41632e-18)
(4.86386 -11.1088 -1.69865e-20)
(7.07751 -2.66093 1.15389e-18)
(7.97605 -3.61676 -2.44542e-19)
(7.55296 -4.27326 -3.39639e-18)
(7.30916 -4.75938 1.90112e-18)
(6.96831 -5.31273 4.59122e-19)
(6.70003 -5.75563 -4.50215e-19)
(6.36813 -6.25676 -1.78705e-18)
(6.21317 -6.76832 1.32366e-18)
(6.04739 -7.28266 0)
(5.82387 -7.66806 0)
(5.57147 -8.04166 -2.0494e-18)
(5.36149 -8.38144 1.61605e-18)
(5.18114 -8.73903 -3.90428e-19)
(5.01288 -9.0619 -1.15923e-18)
(4.81399 -9.34848 8.18428e-21)
(4.65933 -9.63917 2.59839e-18)
(4.50269 -9.92341 -1.45656e-18)
(4.3677 -10.1938 1.06657e-18)
(4.24501 -10.4622 -1.74401e-18)
(4.10694 -10.7659 0)
(6.16169 -2.12878 -9.58717e-19)
(6.95324 -2.94345 1.50772e-18)
(6.61153 -3.58802 2.50766e-19)
(6.40334 -4.08515 2.45707e-19)
(6.129 -4.66284 0)
(5.84584 -5.07588 1.86401e-18)
(5.55589 -5.51645 -1.83118e-18)
(5.33878 -5.9439 2.2575e-19)
(5.14359 -6.43207 0)
(4.96114 -6.88314 1.71175e-18)
(4.78404 -7.33091 -1.47213e-18)
(4.61158 -7.74556 1.63958e-18)
(4.45431 -8.15094 -1.61355e-18)
(4.30563 -8.53226 1.57053e-18)
(4.14669 -8.88877 -1.35241e-18)
(3.98433 -9.20186 -1.50491e-18)
(3.84457 -9.52468 2.9559e-18)
(3.7063 -9.8088 -1.26967e-18)
(3.5821 -10.0916 1.78302e-19)
(3.45757 -10.4156 1.51306e-18)
(5.0959 -1.65212 -7.53328e-19)
(5.53438 -2.48103 7.77609e-19)
(5.16356 -3.14086 -2.50689e-19)
(4.93641 -3.7435 -2.45625e-19)
(4.74221 -4.37099 0)
(4.6477 -4.97238 0)
(4.34017 -5.43202 0)
(4.13426 -5.87268 -4.55132e-19)
(3.94456 -6.30293 -1.77759e-18)
(3.78908 -6.70543 3.4865e-18)
(3.59554 -7.08911 -1.92158e-18)
(3.45623 -7.45798 -2.09852e-19)
(3.33494 -7.84692 0)
(3.2356 -8.20324 0)
(3.14287 -8.57569 -3.90486e-19)
(3.04579 -8.90005 0)
(2.93703 -9.22676 1.49216e-18)
(2.844 -9.51899 -1.83641e-18)
(2.74092 -9.80032 -1.60843e-18)
(2.63354 -10.1085 1.54383e-18)
(3.82952 -1.16353 7.82012e-19)
(4.32472 -1.98819 1.30981e-18)
(4.06661 -2.62381 -1.64249e-21)
(3.86672 -3.17802 -2.47553e-21)
(3.63501 -3.76052 2.44736e-19)
(3.50443 -4.34244 -7.24266e-19)
(3.41989 -4.93021 0)
(3.26155 -5.39393 -6.91916e-19)
(3.14368 -5.90607 2.31633e-19)
(3.01767 -6.32903 8.85791e-19)
(2.90404 -6.78276 8.61227e-19)
(2.73567 -7.1324 -6.37486e-19)
(2.61465 -7.53634 1.64706e-18)
(2.49691 -7.87776 -1.41854e-18)
(2.39205 -8.25639 1.77205e-18)
(2.30589 -8.58706 -3.28697e-18)
(2.21924 -8.94265 1.51836e-18)
(2.1343 -9.24013 1.84158e-19)
(2.06062 -9.55221 1.44465e-18)
(1.968 -9.8578 -1.56078e-18)
(2.50749 -0.621578 2.6738e-19)
(2.83955 -1.57853 -2.6377e-19)
(2.64603 -2.21407 1.03974e-18)
(2.50541 -2.80728 -1.02066e-18)
(2.2823 -3.35389 -4.97967e-19)
(2.22431 -3.89609 -1.21526e-18)
(2.10743 -4.47933 4.7592e-21)
(1.99679 -5.00188 9.34404e-19)
(1.86927 -5.52018 -2.26764e-19)
(1.79857 -6.00482 0)
(1.70305 -6.48731 0)
(1.63434 -6.91242 0)
(1.52586 -7.32844 0)
(1.46012 -7.70343 1.21257e-21)
(1.38235 -8.08428 0)
(1.32019 -8.42263 1.93926e-19)
(1.26403 -8.77706 7.58613e-19)
(1.21447 -9.09068 -2.2322e-18)
(1.16811 -9.39956 1.64579e-18)
(1.12494 -9.7213 -1.56068e-18)
(1.51155 -0.418056 0)
(1.37884 -1.18603 -1.23603e-19)
(1.56406 -1.91719 0)
(1.45315 -2.63218 3.83437e-19)
(1.30157 -3.21638 -2.52504e-19)
(1.09639 -3.76429 -9.78604e-19)
(0.978381 -4.30451 4.90406e-21)
(0.913031 -4.80951 9.40029e-19)
(0.841965 -5.31722 -9.13604e-19)
(0.768573 -5.76465 1.79116e-18)
(0.745415 -6.24994 -5.63449e-21)
(0.680202 -6.6647 -8.58428e-19)
(0.643878 -7.10427 8.33509e-19)
(0.585399 -7.48202 -1.02437e-18)
(0.544243 -7.87929 0)
(0.505561 -8.23043 -7.79054e-19)
(0.462228 -8.58975 7.67415e-19)
(0.436487 -8.91713 0)
(0.397394 -9.22774 -1.82658e-19)
(0.37302 -9.56052 0)
(0.112716 -0.488883 0)
(-0.0675543 -0.878897 1.33882e-19)
(-0.274037 -1.80147 0)
(-0.253516 -2.47274 5.12542e-19)
(-0.227285 -3.20707 -6.28612e-19)
(-0.215231 -3.80988 3.67106e-19)
(-0.240431 -4.4014 -1.07958e-18)
(-0.28479 -4.88551 4.70328e-19)
(-0.32762 -5.41988 -1.14467e-19)
(-0.350775 -5.84578 0)
(-0.403906 -6.3264 -1.0931e-19)
(-0.39642 -6.72841 -1.06826e-19)
(-0.449843 -7.15587 -1.04411e-19)
(-0.442452 -7.52802 0)
(-0.482119 -7.90843 -7.96192e-19)
(-0.472036 -8.25307 1.6602e-18)
(-0.495196 -8.6016 -1.43287e-18)
(-0.477964 -8.92122 7.50188e-19)
(-0.487997 -9.2309 9.13435e-20)
(-0.471121 -9.55278 7.83824e-19)
(-1.10376 -0.271725 -1.89502e-19)
(-1.41783 -1.03805 -2.54555e-19)
(-1.68276 -1.59681 6.68928e-22)
(-1.47072 -2.29553 7.04013e-19)
(-1.53261 -2.90876 -1.87876e-19)
(-1.51503 -3.51576 -1.217e-19)
(-1.42965 -4.07857 1.2109e-19)
(-1.43108 -4.64827 2.34646e-19)
(-1.39975 -5.15007 1.14451e-19)
(-1.40217 -5.66413 -4.45531e-19)
(-1.38704 -6.11124 4.93142e-19)
(-1.37007 -6.57705 1.06814e-19)
(-1.35462 -6.98914 5.2016e-19)
(-1.33463 -7.41076 -2.88174e-21)
(-1.32343 -7.78828 4.67985e-20)
(-1.30987 -8.16972 -8.77239e-19)
(-1.30199 -8.51551 2.39752e-19)
(-1.29225 -8.86151 0)
(-1.28235 -9.16575 -4.58924e-20)
(-1.27272 -9.50582 -3.91193e-19)
(-2.71606 -0.236491 6.74745e-20)
(-2.82446 -1.14627 -1.32198e-19)
(-2.84568 -1.69503 2.59333e-19)
(-2.96402 -2.36125 -6.41536e-20)
(-2.7935 -2.93259 -6.2032e-20)
(-2.70527 -3.54092 0)
(-2.68439 -4.10676 -1.18381e-19)
(-2.64928 -4.68969 2.32038e-19)
(-2.60033 -5.17821 -1.13736e-19)
(-2.54638 -5.71444 1.10482e-19)
(-2.51553 -6.15622 -5.42924e-20)
(-2.46692 -6.64081 -1.05514e-19)
(-2.44541 -7.0446 2.06966e-19)
(-2.38923 -7.47626 -2.02321e-19)
(-2.36546 -7.85317 4.96117e-20)
(-2.29837 -8.23681 3.41965e-34)
(-2.26704 -8.59267 -4.67719e-20)
(-2.19851 -8.9357 2.77255e-19)
(-2.16197 -9.2559 -1.36973e-19)
(-2.09581 -9.59364 -9.78836e-20)
(-0.247941 -0.189555 -1.08341e-21)
(-0.107453 -0.274946 -3.43476e-21)
(0.525969 -3.26639 0)
(2.50923 -9.89077 -3.37008e-21)
(5.47331 -18.522 -3.5919e-21)
(7.23545 -23.9292 -3.99829e-21)
(7.94374 -26.2524 0)
(8.15536 -26.9822 -4.84654e-21)
(8.19348 -27.1928 0)
(8.15603 -27.1871 0)
(8.08897 -27.1358 5.83503e-21)
(7.99195 -27.0332 7.85009e-22)
(7.92855 -27.0294 -1.23341e-20)
(7.87828 -26.9985 0)
(7.7613 -26.9329 -7.09646e-21)
(7.70489 -26.8384 -7.41919e-21)
(7.57924 -26.8255 -7.39177e-21)
(7.56747 -26.8786 0)
(7.48812 -26.9816 1.56283e-20)
(7.46499 -27.0418 -1.4642e-20)
(-0.361292 0.116096 -1.07207e-20)
(0.402766 -1.53918 1.72376e-20)
(1.35352 -6.17926 0)
(4.58657 -15.2297 1.78056e-20)
(6.89442 -22.2925 -1.87924e-20)
(8.0162 -25.6929 3.74276e-20)
(8.35669 -26.7891 -1.7145e-20)
(8.41392 -27.0939 -1.54019e-20)
(8.38314 -27.0836 7.23844e-20)
(8.3176 -27.0395 -4.45925e-20)
(8.21891 -26.9338 6.00932e-21)
(8.16018 -26.8845 -5.4329e-20)
(8.08031 -26.8547 -3.28955e-21)
(7.99286 -26.7557 5.58519e-20)
(7.89501 -26.6844 7.16536e-21)
(7.8437 -26.6706 7.42044e-21)
(7.75558 -26.6894 7.65075e-21)
(7.72032 -26.7221 0)
(7.63332 -26.7804 6.79784e-20)
(7.61218 -26.832 2.24534e-21)
(0.0991045 -0.0720719 0)
(0.619551 -3.01716 0)
(2.89116 -10.0536 0)
(6.17757 -19.2228 7.65842e-21)
(7.8976 -24.4649 -7.8523e-21)
(8.53999 -26.4184 0)
(8.66216 -26.9522 9.81628e-21)
(8.64297 -26.9667 -3.15266e-20)
(8.58665 -26.9361 3.24073e-20)
(8.48766 -26.838 -5.25181e-20)
(8.41465 -26.753 6.60983e-20)
(8.32554 -26.6805 0)
(8.23854 -26.619 6.11419e-20)
(8.16777 -26.5561 6.68327e-20)
(8.07394 -26.5301 -1.08441e-19)
(8.01747 -26.4753 1.35539e-19)
(7.89525 -26.4638 -1.10776e-19)
(7.88739 -26.5223 0)
(7.80152 -26.6335 1.62738e-19)
(7.79321 -26.6373 -2.79525e-19)
(0.450867 -0.741501 -2.26339e-21)
(1.11878 -4.97119 0)
(4.51293 -14.3166 -1.4672e-20)
(7.30713 -22.1976 -2.55907e-20)
(8.57118 -25.7521 5.19883e-20)
(8.86703 -26.7365 -2.00815e-20)
(8.91708 -26.8816 -1.00232e-20)
(8.86903 -26.8516 -1.27713e-19)
(8.76915 -26.7346 2.02736e-19)
(8.69537 -26.6376 3.69139e-20)
(8.59962 -26.5405 -1.26168e-19)
(8.51826 -26.472 -3.16397e-20)
(8.44266 -26.4408 1.64331e-19)
(8.34638 -26.3535 -1.6358e-19)
(8.24507 -26.2654 -5.21766e-20)
(8.16624 -26.2285 3.6409e-20)
(8.10003 -26.2852 -5.48682e-20)
(8.09401 -26.408 0)
(7.98752 -26.4373 2.02676e-20)
(7.96842 -26.3899 0)
(0.387193 -1.64984 0)
(1.98748 -7.11114 -5.72046e-20)
(5.91404 -17.6533 7.09266e-20)
(8.24252 -24.0479 -8.73688e-20)
(9.03067 -26.3395 7.10019e-20)
(9.21006 -26.7902 1.9695e-20)
(9.1742 -26.7821 0)
(9.09049 -26.6521 -8.02434e-20)
(9.01548 -26.5453 1.05438e-19)
(8.91816 -26.4439 -1.50643e-19)
(8.8323 -26.3344 1.20175e-19)
(8.74007 -26.2724 3.16371e-20)
(8.63736 -26.1822 -1.73658e-19)
(8.53657 -26.0768 3.18584e-19)
(8.43992 -26.0565 -2.20549e-19)
(8.38552 -26.0584 7.21228e-20)
(8.29216 -26.1133 1.96092e-19)
(8.26817 -26.154 -4.75079e-19)
(8.15072 -26.1885 2.67679e-19)
(8.1323 -26.1218 3.58061e-19)
(0.311146 -2.36695 -4.85833e-20)
(3.20481 -10.1461 -5.19985e-20)
(7.08257 -20.2302 5.1319e-20)
(9.00104 -25.2916 1.59564e-20)
(9.50025 -26.6408 -1.90583e-20)
(9.52976 -26.7261 -9.09385e-20)
(9.48573 -26.6431 8.91306e-20)
(9.38327 -26.4705 0)
(9.28838 -26.3495 -1.22671e-19)
(9.19303 -26.215 1.20611e-19)
(9.08044 -26.0982 1.37833e-19)
(8.97398 -25.9994 -1.356e-19)
(8.87867 -25.9346 0)
(8.76973 -25.864 0)
(8.6663 -25.8003 -3.59642e-19)
(8.57668 -25.7714 3.52783e-19)
(8.50753 -25.8525 3.35896e-19)
(8.5013 -25.96 -3.27028e-19)
(8.37397 -25.9707 3.39459e-19)
(8.33894 -25.8292 -4.19458e-19)
(0.601717 -3.1308 3.11719e-20)
(4.41022 -12.5138 -3.03205e-21)
(8.13277 -21.9989 1.20128e-20)
(9.74963 -25.9159 -7.20997e-20)
(9.96593 -26.6136 0)
(9.95897 -26.5961 0)
(9.84171 -26.4106 -2.17097e-19)
(9.71429 -26.224 -2.52098e-20)
(9.61295 -26.093 2.39693e-19)
(9.48362 -25.9537 -2.8034e-19)
(9.36461 -25.8151 2.75725e-19)
(9.25189 -25.7467 0)
(9.1274 -25.6461 -3.22716e-19)
(8.99377 -25.524 3.17666e-19)
(8.88312 -25.4998 0)
(8.82326 -25.5441 0)
(8.73959 -25.6626 0)
(8.71204 -25.6776 0)
(8.54407 -25.6625 0)
(8.50064 -25.4821 4.47511e-20)
(1.1475 -4.17201 -1.41605e-21)
(5.68184 -14.6499 3.48485e-20)
(9.21539 -23.4215 0)
(10.4 -26.2378 0)
(10.4633 -26.5114 -2.00679e-19)
(10.3755 -26.3613 -5.73432e-20)
(10.2017 -26.1201 2.38815e-19)
(10.0928 -25.9603 0)
(9.9523 -25.8135 -3.54311e-20)
(9.8143 -25.6478 3.79483e-20)
(9.67155 -25.518 0)
(9.52952 -25.3973 -4.21736e-20)
(9.39834 -25.3017 3.90852e-19)
(9.26584 -25.2384 -7.45679e-19)
(9.15506 -25.2065 -1.61777e-20)
(9.05107 -25.2069 3.63741e-19)
(8.97543 -25.309 4.92648e-20)
(8.95189 -25.3889 -4.98218e-20)
(8.76899 -25.3544 0)
(8.70633 -25.1343 -5.14977e-20)
(1.64866 -4.97099 0)
(6.8048 -16.0113 -2.86943e-20)
(10.163 -24.0677 5.6059e-20)
(11.0042 -26.1088 -3.85643e-20)
(10.9912 -26.2089 -2.61366e-20)
(10.8366 -26.0071 -2.59733e-19)
(10.6697 -25.8101 3.96328e-19)
(10.4902 -25.6105 -3.28501e-19)
(10.3386 -25.4527 3.44035e-19)
(10.1603 -25.2911 -4.24178e-19)
(9.99374 -25.1298 -8.74458e-20)
(9.84628 -25.0505 -4.10358e-19)
(9.69124 -24.9501 2.16096e-19)
(9.52462 -24.8272 5.30457e-19)
(9.39427 -24.803 -4.81845e-19)
(9.31463 -24.8869 0)
(9.23764 -25.0362 -1.55064e-19)
(9.18186 -25.0436 -5.74381e-20)
(8.9559 -24.9716 1.09103e-19)
(8.8839 -24.7278 -5.90265e-20)
(2.25884 -6.04974 3.83499e-20)
(7.75012 -17.3023 -3.49258e-20)
(11.1212 -24.6351 -4.8327e-21)
(11.6647 -26.0124 8.20217e-20)
(11.5129 -25.9107 1.02155e-19)
(11.3057 -25.6241 5.70328e-20)
(11.0831 -25.3846 -7.60791e-21)
(10.9071 -25.2085 7.15237e-20)
(10.7114 -25.0502 0)
(10.5197 -24.8703 8.27899e-20)
(10.3346 -24.7368 8.74364e-20)
(10.1519 -24.6091 -8.31595e-21)
(9.97979 -24.5014 -4.14036e-19)
(9.81753 -24.4395 1.94399e-19)
(9.68668 -24.4287 5.29443e-19)
(9.55854 -24.4577 -4.21804e-19)
(9.4741 -24.5772 -3.40127e-19)
(9.40533 -24.6558 5.47126e-19)
(9.18 -24.5825 -1.09346e-19)
(9.07841 -24.3278 -8.20106e-19)
(2.79959 -6.66223 1.09923e-19)
(8.83338 -17.9357 -1.12625e-19)
(11.9417 -24.5186 2.43235e-19)
(12.289 -25.4632 -2.0997e-19)
(12.0623 -25.3443 -3.09881e-19)
(11.8257 -25.1172 2.53107e-19)
(11.5815 -24.9191 4.78151e-19)
(11.3352 -24.7176 3.23785e-20)
(11.1223 -24.5583 -3.44674e-19)
(10.8888 -24.4006 2.93982e-19)
(10.6693 -24.2332 -8.00515e-19)
(10.4793 -24.1538 5.05597e-19)
(10.2882 -24.0622 1.03471e-19)
(10.085 -23.9395 -3.46552e-19)
(9.92314 -23.9114 9.0965e-19)
(9.80949 -24.014 -4.56131e-19)
(9.71989 -24.171 0)
(9.60543 -24.2011 9.7319e-19)
(9.35123 -24.1159 -9.58846e-19)
(9.22134 -23.8428 8.71341e-19)
(3.41781 -7.376 -2.89661e-20)
(9.84512 -18.5186 -8.21003e-21)
(12.762 -24.4242 -2.02009e-19)
(12.9141 -25.0225 -3.22503e-19)
(12.5829 -24.8015 1.77625e-19)
(12.2958 -24.5338 -4.20216e-19)
(11.9897 -24.3116 2.47316e-19)
(11.7412 -24.1526 -3.92497e-19)
(11.4867 -24.0094 8.01539e-19)
(11.2358 -23.8428 -3.08178e-19)
(11.0025 -23.724 0)
(10.7766 -23.6044 0)
(10.5643 -23.5104 0)
(10.369 -23.4522 9.84498e-19)
(10.199 -23.4338 -9.69349e-19)
(10.0319 -23.4569 0)
(9.92085 -23.5834 0)
(9.80278 -23.695 1.34144e-19)
(9.55331 -23.6323 0)
(9.40368 -23.3713 1.20192e-18)
(3.99961 -7.76886 7.4895e-20)
(10.7606 -18.7311 2.12515e-19)
(13.4137 -23.8894 2.598e-19)
(13.4154 -24.2389 1.16464e-19)
(13.0532 -24.071 -4.87681e-19)
(12.7555 -23.8762 4.4011e-20)
(12.435 -23.6982 -3.69935e-20)
(12.1201 -23.5172 5.21316e-19)
(11.8536 -23.3874 0)
(11.5686 -23.2588 3.58867e-19)
(11.2988 -23.1089 -6.0348e-19)
(11.0673 -23.0495 0)
(10.8381 -22.9789 -1.05163e-18)
(10.5952 -22.8617 1.03516e-18)
(10.3908 -22.825 -1.08944e-18)
(10.2273 -22.9011 2.03506e-18)
(10.0969 -23.0328 -1.08724e-18)
(9.93077 -23.1121 -1.34124e-19)
(9.66578 -23.0646 1.45193e-19)
(9.47127 -22.7989 -1.15198e-18)
(4.5458 -8.07548 1.82553e-19)
(11.606 -18.6409 3.73248e-20)
(14.0526 -23.3424 5.30283e-20)
(13.9967 -23.5386 -6.89179e-19)
(13.5274 -23.328 -1.35596e-19)
(13.1751 -23.1089 5.16115e-19)
(12.7968 -22.9263 4.71755e-19)
(12.4746 -22.8065 -8.04613e-20)
(12.165 -22.6964 -6.21366e-19)
(11.8599 -22.571 7.97752e-19)
(11.5764 -22.4824 -3.98417e-19)
(11.306 -22.3869 1.27275e-18)
(11.0578 -22.3342 -9.61627e-19)
(10.8285 -22.2946 1.16704e-18)
(10.604 -22.2519 -9.96943e-19)
(10.3841 -22.2298 -1.05173e-18)
(10.2287 -22.3283 1.17551e-18)
(10.0709 -22.4806 -1.05378e-18)
(9.8089 -22.4708 1.0465e-18)
(9.6164 -22.2252 1.39721e-18)
(5.11321 -8.25143 2.97902e-19)
(12.4111 -18.515 1.2722e-19)
(14.5948 -22.5058 -3.39809e-19)
(14.3516 -22.5706 4.39564e-19)
(13.8987 -22.4309 -4.31793e-19)
(13.5134 -22.2943 -1.14034e-19)
(13.1332 -22.1547 0)
(12.7475 -22.0204 1.44174e-19)
(12.4342 -21.9472 -4.43917e-19)
(12.1026 -21.8685 1.61674e-18)
(11.7848 -21.763 -1.16765e-18)
(11.5126 -21.7394 -3.04777e-19)
(11.2437 -21.7067 -1.47957e-19)
(10.967 -21.6225 0)
(10.7215 -21.6118 1.3113e-20)
(10.5026 -21.6385 -1.29137e-18)
(10.3004 -21.688 -2.61116e-20)
(10.0916 -21.7858 -3.45962e-19)
(9.82746 -21.8217 1.28263e-18)
(9.60072 -21.5999 -3.31797e-19)
(5.5914 -8.29816 -3.76706e-19)
(13.0384 -18.002 7.16351e-19)
(15.0181 -21.6373 -4.21047e-19)
(14.791 -21.6609 -5.16876e-19)
(14.247 -21.5147 -4.39725e-20)
(13.8198 -21.3727 3.91351e-19)
(13.3905 -21.2519 -1.56566e-19)
(13.0011 -21.1853 -1.44157e-19)
(12.6385 -21.1244 0)
(12.2889 -21.0629 0)
(11.9547 -21.0212 1.33646e-18)
(11.6374 -20.9621 -2.33569e-18)
(11.3562 -20.9776 1.33369e-18)
(11.0892 -20.9748 0)
(10.8077 -20.9341 1.39039e-20)
(10.5374 -20.9042 1.57523e-18)
(10.3151 -20.9539 -1.55461e-18)
(10.094 -21.0753 1.67518e-19)
(9.82347 -21.1178 1.58062e-18)
(9.61665 -20.9357 -1.05678e-18)
(6.07118 -8.28379 4.63036e-19)
(13.6974 -17.5466 -5.9548e-19)
(15.3723 -20.6099 0)
(14.9932 -20.5612 0)
(14.4835 -20.4794 -1.64242e-19)
(14.0122 -20.4209 8.08685e-19)
(13.5854 -20.3321 1.34172e-20)
(13.1369 -20.2579 -6.68026e-19)
(12.7829 -20.2555 1.42382e-18)
(12.411 -20.2374 -2.84728e-18)
(12.0504 -20.1989 1.4235e-18)
(11.734 -20.214 -3.65968e-19)
(11.4211 -20.2238 -1.68318e-18)
(11.1217 -20.2215 -2.24032e-19)
(10.8421 -20.27 1.10236e-18)
(10.5666 -20.2713 -1.7969e-19)
(10.28 -20.2508 1.68414e-18)
(10.0172 -20.3205 -1.47931e-18)
(9.76356 -20.4342 1.2652e-20)
(9.54973 -20.2863 -1.51553e-18)
(6.4934 -8.13145 0)
(14.1282 -16.8367 -4.57574e-19)
(15.5898 -19.489 4.34808e-19)
(15.2057 -19.5136 0)
(14.6595 -19.425 1.64226e-19)
(14.1566 -19.3832 -7.4114e-19)
(13.6988 -19.3392 9.04195e-19)
(13.2536 -19.3252 0)
(12.8399 -19.3195 -1.57091e-18)
(12.4589 -19.3301 1.54467e-18)
(12.0795 -19.3468 -2.06856e-19)
(11.7199 -19.3379 1.91069e-19)
(11.402 -19.4119 1.92337e-19)
(11.09 -19.445 1.93199e-19)
(10.7691 -19.4682 1.8152e-18)
(10.4783 -19.5074 -3.21629e-18)
(10.1856 -19.5565 3.20965e-18)
(9.87908 -19.5702 -3.17489e-18)
(9.59197 -19.6465 1.38169e-18)
(9.44449 -19.5885 -1.97923e-19)
(6.88606 -7.92264 0)
(14.5325 -16.1052 6.6124e-19)
(15.7835 -18.3441 -3.39256e-19)
(15.2408 -18.3349 -5.82332e-19)
(14.7315 -18.3119 -3.69134e-20)
(14.1994 -18.3273 -3.25486e-20)
(13.7332 -18.3039 8.12722e-19)
(13.2438 -18.2881 0)
(12.8531 -18.3513 0)
(12.4511 -18.3912 0)
(12.0595 -18.4238 2.0684e-19)
(11.703 -18.4775 0)
(11.35 -18.5294 1.97522e-18)
(11.0339 -18.6057 -1.72221e-18)
(10.7167 -18.7021 1.74497e-18)
(10.397 -18.7183 -3.45791e-18)
(10.0753 -18.7505 1.71334e-18)
(9.77744 -18.844 1.93451e-18)
(9.4848 -18.9199 -3.39586e-18)
(9.31992 -18.8462 1.74991e-18)
(7.23508 -7.61314 0)
(14.7507 -15.2597 0)
(15.7838 -17.095 -1.96434e-19)
(15.2401 -17.2039 -2.04083e-19)
(14.7091 -17.1829 0)
(14.1645 -17.2337 -9.15815e-19)
(13.6917 -17.2716 8.9974e-19)
(13.208 -17.3008 0)
(12.7523 -17.3408 -1.87877e-18)
(12.356 -17.4154 1.84739e-18)
(11.9466 -17.4858 0)
(11.561 -17.5252 1.88873e-18)
(11.2054 -17.6347 -1.97625e-19)
(10.8484 -17.6763 -1.85697e-18)
(10.5157 -17.7837 0)
(10.2175 -17.9034 0)
(9.86016 -17.9319 0)
(9.51018 -17.9406 1.63169e-18)
(9.19956 -17.9817 -1.82725e-18)
(8.96827 -17.9368 0)
(6.84784 -26.9025 0)
(6.06589 -25.8414 0)
(5.3556 -25.9028 3.04424e-21)
(4.7341 -25.2147 3.31284e-21)
(4.15045 -25.2977 0)
(3.64647 -25.0395 7.76981e-23)
(3.2236 -25.1126 -3.95034e-21)
(2.78564 -24.9209 0)
(2.45816 -25.0227 -4.36715e-21)
(2.20888 -25.0309 0)
(1.94165 -25.121 4.61722e-21)
(1.72989 -25.0743 2.36916e-21)
(1.45693 -25.1542 -2.38176e-21)
(1.27811 -25.0376 -4.8913e-21)
(1.03271 -25.1108 0)
(0.91628 -24.8824 1.26035e-21)
(0.631609 -24.7576 -5.27369e-21)
(0.674859 -22.3725 0)
(0.169713 -16.1587 0)
(0.261964 -6.85202 -5.00877e-21)
(6.99555 -26.6022 -7.61765e-21)
(6.1773 -25.5785 0)
(5.38767 -25.7023 -1.59106e-20)
(4.73671 -25.0048 9.61382e-21)
(4.18397 -25.1603 0)
(3.66013 -24.9244 1.96329e-20)
(3.20803 -25.0065 -8.00576e-21)
(2.75374 -24.8049 0)
(2.45341 -24.9276 -4.5021e-21)
(2.20333 -24.9427 8.94422e-21)
(1.93931 -25.0434 -1.39554e-20)
(1.72043 -24.996 1.88988e-20)
(1.45233 -25.0698 -1.44057e-20)
(1.27379 -24.9686 4.84679e-21)
(1.03592 -25.0525 4.93454e-21)
(0.926697 -24.8158 -4.44619e-21)
(0.645277 -24.7242 8.43744e-21)
(0.679505 -22.2927 1.28432e-20)
(0.157557 -16.0886 6.41785e-21)
(0.268147 -6.79317 6.47292e-21)
(6.98973 -26.3341 -3.67528e-21)
(6.23109 -25.3677 9.23198e-21)
(5.44651 -25.5058 1.29717e-20)
(4.7976 -24.8472 0)
(4.22706 -24.991 0)
(3.7135 -24.7516 -2.39535e-20)
(3.28765 -24.8617 -6.33788e-22)
(2.84887 -24.7006 -4.90844e-22)
(2.54974 -24.8607 -4.26859e-22)
(2.28594 -24.8789 1.8019e-20)
(2.01478 -24.9806 0)
(1.78257 -24.9343 0)
(1.50345 -25.0232 0)
(1.316 -24.9216 1.9683e-20)
(1.0674 -25.0062 0)
(0.949487 -24.7703 1.40553e-20)
(0.657904 -24.6898 -1.0954e-20)
(0.682429 -22.2579 -7.71028e-21)
(0.15993 -16.0577 -1.28022e-20)
(0.284011 -6.7438 -2.07232e-20)
(7.12637 -25.9958 -2.12797e-20)
(6.31139 -25.1076 4.42716e-20)
(5.46359 -25.299 8.26846e-22)
(4.81431 -24.639 -2.73565e-20)
(4.2691 -24.8503 0)
(3.7247 -24.6345 -3.27381e-20)
(3.27356 -24.7494 8.38856e-20)
(2.82611 -24.5843 -5.1666e-20)
(2.55452 -24.7641 3.55899e-20)
(2.28235 -24.7869 -1.84922e-20)
(2.01241 -24.8983 -2.04378e-22)
(1.7752 -24.8508 1.91963e-20)
(1.49919 -24.9365 -1.92892e-20)
(1.30957 -24.8504 -9.80618e-21)
(1.06784 -24.944 -8.51713e-21)
(0.946201 -24.713 -1.72311e-20)
(0.664772 -24.6571 9.59204e-21)
(0.684413 -22.19 -1.02589e-20)
(0.149092 -16.0094 3.96733e-21)
(0.294761 -6.68751 2.06896e-20)
(7.15623 -25.705 -3.76917e-20)
(6.35883 -24.8849 -1.16691e-20)
(5.53088 -25.1021 2.76327e-20)
(4.86126 -24.4926 -4.27702e-20)
(4.31874 -24.684 0)
(3.79691 -24.4627 1.63644e-20)
(3.37262 -24.6139 -1.69383e-20)
(2.93066 -24.4906 0)
(2.6559 -24.6981 1.32515e-22)
(2.36726 -24.7187 0)
(2.08966 -24.8327 3.77018e-20)
(1.83511 -24.7876 0)
(1.55013 -24.8876 0)
(1.34676 -24.8006 3.90988e-20)
(1.09171 -24.8961 -1.56817e-20)
(0.968847 -24.6629 1.56157e-20)
(0.667554 -24.6271 0)
(0.68851 -22.1592 -5.11442e-21)
(0.151218 -15.9877 4.59884e-21)
(0.309883 -6.64219 0)
(7.30207 -25.344 -2.33076e-20)
(6.41424 -24.6231 2.53401e-20)
(5.57056 -24.892 -7.24493e-20)
(4.91093 -24.2873 7.26572e-20)
(4.37907 -24.5468 -3.21441e-20)
(3.80987 -24.3474 -1.64155e-20)
(3.35867 -24.4943 3.46894e-20)
(2.91761 -24.3717 3.55588e-20)
(2.66432 -24.598 -1.81493e-20)
(2.36262 -24.6222 -3.75165e-20)
(2.08676 -24.746 1.87471e-20)
(1.83003 -24.6984 0)
(1.5462 -24.7978 0)
(1.33981 -24.7269 6.50188e-23)
(1.0876 -24.834 1.55745e-20)
(0.960298 -24.6092 -2.03136e-20)
(0.670507 -24.5966 0)
(0.690362 -22.1073 4.11116e-20)
(0.142354 -15.96 1.68762e-20)
(0.3167 -6.58927 2.57545e-21)
(7.36306 -25.019 7.27062e-20)
(6.48449 -24.3853 -7.56984e-20)
(5.65617 -24.7032 2.87449e-20)
(4.95129 -24.1483 0)
(4.42072 -24.374 3.22812e-20)
(3.88722 -24.1734 -6.85163e-20)
(3.46481 -24.3674 3.39011e-20)
(3.02388 -24.2856 -3.566e-20)
(2.76615 -24.5301 0)
(2.4472 -24.549 0)
(2.1639 -24.6776 -3.84265e-20)
(1.8878 -24.6341 3.8563e-20)
(1.59551 -24.7463 0)
(1.37471 -24.6733 -5.9617e-20)
(1.10723 -24.7846 1.5073e-20)
(0.98627 -24.5579 2.03191e-20)
(0.672549 -24.5685 -1.2733e-20)
(0.696396 -22.0837 -5.13031e-20)
(0.148127 -15.9471 -1.50691e-20)
(0.325797 -6.54789 -5.13943e-21)
(7.52289 -24.5977 0)
(6.53271 -24.1189 5.72219e-20)
(5.72681 -24.4833 -5.73654e-20)
(4.99874 -23.9416 0)
(4.4732 -24.2465 0)
(3.90001 -24.0604 6.97125e-20)
(3.44614 -24.2417 -6.98594e-20)
(3.01486 -24.1658 0)
(2.77205 -24.4257 -3.74832e-20)
(2.4402 -24.4482 7.57088e-20)
(2.15872 -24.5877 -3.82292e-20)
(1.88412 -24.5393 -3.91679e-20)
(1.59146 -24.6533 3.92857e-20)
(1.36875 -24.595 0)
(1.10131 -24.7227 0)
(0.974886 -24.5032 2.03227e-20)
(0.676838 -24.5397 -1.51017e-20)
(0.697728 -22.0489 -1.40983e-23)
(0.143695 -15.9381 4.53606e-21)
(0.323842 -6.49905 -5.12392e-21)
(7.59067 -24.2815 -5.35202e-20)
(6.63286 -23.869 5.60707e-20)
(5.80715 -24.3013 9.49439e-20)
(5.04044 -23.7926 -1.29584e-19)
(4.52007 -24.0699 1.35141e-19)
(3.98004 -23.8853 1.92289e-21)
(3.55047 -24.1209 -7.10301e-20)
(3.11799 -24.0839 0)
(2.87112 -24.3551 0)
(2.52244 -24.3705 -3.83571e-20)
(2.23338 -24.5165 0)
(1.93888 -24.4745 0)
(1.63848 -24.5993 0)
(1.40208 -24.5379 0)
(1.11883 -24.672 0)
(0.995243 -24.4521 0)
(0.679705 -24.5147 1.49867e-20)
(0.703276 -22.031 -1.99087e-20)
(0.146887 -15.9339 1.00069e-21)
(0.323199 -6.46271 -5.10596e-21)
(7.7615 -23.8492 1.82757e-20)
(6.67304 -23.5748 8.95436e-20)
(5.89536 -24.0688 3.34863e-20)
(5.06632 -23.5885 3.58521e-20)
(4.54229 -23.9492 -3.2767e-20)
(3.98219 -23.7733 -1.06317e-19)
(3.52452 -23.9901 -3.68968e-20)
(3.10822 -23.9648 0)
(2.874 -24.2455 3.8386e-20)
(2.5129 -24.2661 -7.69344e-20)
(2.22606 -24.4244 -3.91492e-20)
(1.93602 -24.375 -3.95496e-20)
(1.63421 -24.5039 0)
(1.39945 -24.4554 -4.01813e-20)
(1.11263 -24.6081 -3.4481e-20)
(0.984227 -24.3979 0)