/*--------------------------------*- C++ -*----------------------------------*\
  =========                 |
  \\      /  F ield         | OpenFOAM: The Open Source CFD Toolbox
   \\    /   O peration     | Website:  https://openfoam.org
    \\  /    A nd           | Version:  9
     \\/     M anipulation  |
\*---------------------------------------------------------------------------*/
FoamFile
{
    format      ascii;
    class       volScalarField;
    location    "4.5";
    object      nut;
}
// * * * * * * * * * * * * * * * * * * * * * * * * * * * * * * * * * * * * * //

dimensions      [0 2 -1 0 0 0 0];

internalField   nonuniform List<scalar> 
46400
(
0.020084
0.00700376
0.00179659
0.00155203
0.00154077
0.00151684
0.00144418
0.00141405
0.00134744
0.00131393
0.00126015
0.00122372
0.00117694
0.00114041
0.00110477
0.00107717
0.00103635
0.000938784
0.00120614
0.00104265
0.0196197
0.00597712
0.00156223
0.00158859
0.00153463
0.00151594
0.00143161
0.00140229
0.00133735
0.0013025
0.00125535
0.0012195
0.00118171
0.00114517
0.0011139
0.00108568
0.0010358
0.000933881
0.00114553
0.00102792
0.0191294
0.00516787
0.00141887
0.00163799
0.00152293
0.00151646
0.00143355
0.00141268
0.00134724
0.00131091
0.00125954
0.00121756
0.00117382
0.00113364
0.00109714
0.00106706
0.00101534
0.000914934
0.00118109
0.0010465
0.0185693
0.0044084
0.00137917
0.00159871
0.00151768
0.00152183
0.00144031
0.00140437
0.00135556
0.0013154
0.00127338
0.00123167
0.00119579
0.00115567
0.00112565
0.00110204
0.00106326
0.000964659
0.00121225
0.00109518
0.0178836
0.00476907
0.00147808
0.00166272
0.00153181
0.00151281
0.0014409
0.00140592
0.00133934
0.00130633
0.00126083
0.00121936
0.0011789
0.00114068
0.00110714
0.00108861
0.00105431
0.00098716
0.00124713
0.00111009
0.017143
0.0051859
0.00152739
0.00164486
0.00154314
0.00153932
0.0014555
0.00142521
0.00136812
0.00131945
0.00128759
0.0012445
0.00121262
0.00116679
0.00112992
0.00109662
0.0010634
0.000980402
0.00124075
0.00115619
0.0163961
0.00490362
0.00157257
0.00171286
0.00156989
0.00153887
0.00145992
0.00140677
0.00135782
0.00129614
0.00125711
0.00121693
0.00118551
0.00115951
0.00112595
0.00109474
0.00105797
0.000959716
0.00117513
0.00112609
0.0153015
0.00431923
0.00160544
0.00170203
0.00156639
0.00154361
0.00147265
0.00141868
0.00137878
0.00132753
0.00127696
0.00123405
0.0011916
0.00115537
0.00113785
0.00110752
0.00107533
0.000994638
0.00114819
0.00108732
0.0139125
0.00343846
0.00161911
0.0016842
0.00158226
0.00151426
0.00146393
0.0013857
0.00134343
0.00129762
0.00125213
0.00121081
0.00117586
0.00112389
0.00110567
0.00108922
0.00106925
0.00100545
0.00116249
0.00108886
0.0113838
0.00279628
0.00166302
0.00163713
0.00158425
0.00151027
0.00147436
0.00141227
0.00136055
0.00132222
0.00128201
0.00122631
0.0012024
0.00113417
0.00108727
0.00104776
0.0010209
0.000961855
0.00109262
0.0010723
0.00919677
0.00232686
0.00162819
0.00157135
0.00154717
0.00147107
0.00142799
0.0013675
0.00130884
0.00125698
0.00124886
0.0012038
0.0012037
0.00118774
0.0011526
0.00111846
0.0010715
0.00100898
0.0010942
0.00105063
0.00739186
0.00202524
0.00163757
0.00156953
0.0015587
0.00149605
0.00147978
0.00143051
0.00137543
0.00126718
0.00121604
0.00114143
0.00109609
0.00107858
0.00105998
0.0010525
0.00101945
0.000971885
0.00103791
0.00100627
0.0060453
0.00180525
0.00163661
0.00152439
0.00149681
0.0014037
0.00137772
0.00136222
0.00138722
0.00135297
0.0013235
0.0012673
0.00118688
0.00112861
0.00108128
0.0010492
0.0010289
0.000971122
0.00104518
0.00100454
0.00508088
0.00172852
0.00166659
0.00156964
0.0015694
0.00148565
0.00140026
0.00130246
0.00127613
0.00123699
0.00122767
0.0012275
0.00120507
0.00115506
0.00112319
0.00107244
0.00105
0.000991951
0.00104466
0.0010141
0.00440183
0.00164482
0.0016469
0.00147224
0.00147822
0.001467
0.00147028
0.0013755
0.00132652
0.00126916
0.00120526
0.00117362
0.00116888
0.0011383
0.00111614
0.00108604
0.00105062
0.00100128
0.0010371
0.000997933
0.00438026
0.0016509
0.00169854
0.00160559
0.00150192
0.00139302
0.00137812
0.00134115
0.00131732
0.00128444
0.00124902
0.00117982
0.00113917
0.00111379
0.00107737
0.00106143
0.0010302
0.000982616
0.00101781
0.000985648
0.00409438
0.00152372
0.00149131
0.00150497
0.0015096
0.001443
0.00141699
0.00137896
0.0013154
0.00126683
0.00124167
0.00121204
0.00116246
0.00112844
0.00108778
0.0010579
0.00102278
0.000968376
0.000989921
0.000963004
0.00401352
0.00182621
0.0016196
0.00146568
0.00145338
0.00141142
0.00135711
0.00133264
0.00130061
0.00127069
0.00122025
0.00119735
0.00116506
0.00112707
0.00109584
0.0010647
0.00103511
0.000978846
0.000993107
0.000958571
0.00256905
0.00167746
0.00164656
0.00165243
0.00153827
0.00146336
0.00138561
0.00132887
0.00129569
0.0012491
0.00121969
0.00116802
0.00113915
0.00110658
0.00108071
0.00105167
0.00103255
0.000975825
0.000998019
0.000966606
0.00166812
0.001527
0.00152709
0.00148269
0.00155981
0.00144446
0.00149549
0.00137585
0.00136607
0.00128363
0.00126022
0.00120639
0.00117602
0.0011276
0.00109261
0.00105422
0.00102304
0.000967283
0.000977834
0.000954683
0.00240539
0.0107052
0.0137988
0.00952
0.0033723
0.00024703
0.000153626
0.000461112
0.000537676
0.000491532
0.000482501
0.000480568
0.000512683
0.000573919
0.000534172
0.000573032
0.00059842
0.000677136
0.000753803
0.000693556
0.00290992
0.0120904
0.0133941
0.00739448
0.00145006
0.000202482
0.000388012
0.000525305
0.000567941
0.000535684
0.00053004
0.00055748
0.000541898
0.000565334
0.00057831
0.000589681
0.000594498
0.00071501
0.000775035
0.000698107
0.00363654
0.013197
0.0122046
0.00521673
0.000341299
0.000301853
0.00056194
0.000651318
0.000599119
0.00057201
0.000560168
0.000546643
0.000579056
0.000621263
0.00058249
0.00063812
0.000673639
0.000773381
0.000781786
0.000700233
0.00670853
0.0139336
0.0111471
0.00257304
0.000273038
0.000506314
0.00067579
0.00068832
0.000636554
0.000617254
0.000613398
0.000637812
0.000628575
0.000653042
0.000649759
0.000661622
0.000672155
0.00079791
0.000787127
0.000701697
0.00946352
0.0142302
0.00982648
0.00119058
0.000419266
0.000701962
0.0008071
0.000754596
0.000727966
0.000698233
0.000674858
0.00065869
0.00068307
0.000688693
0.000651007
0.000710014
0.000737825
0.000841739
0.000800071
0.000721923
0.0121606
0.0143188
0.00862163
0.000428184
0.000526093
0.000849913
0.00087617
0.000812376
0.000768371
0.000725188
0.000713337
0.000721221
0.00071099
0.00073554
0.000718122
0.000733301
0.000747626
0.000871139
0.000809654
0.000730558
0.0151435
0.0141353
0.00630378
0.0003673
0.000724965
0.00094979
0.000940228
0.000871278
0.000838752
0.000808091
0.00077956
0.000768996
0.000782958
0.000761026
0.00072786
0.00077744
0.000782277
0.000890353
0.000818312
0.000750568
0.0168303
0.0140276
0.0042778
0.000169196
0.000940923
0.00104356
0.000972173
0.000941964
0.000890873
0.000834705
0.000812359
0.000800066
0.000791735
0.000805463
0.000769672
0.000791399
0.000809781
0.000921888
0.000826132
0.000767048
0.0181875
0.01364
0.00301481
0.000300099
0.00105108
0.00110401
0.00105329
0.000981073
0.000941483
0.000899019
0.000869068
0.00086071
0.000860827
0.00083263
0.000801361
0.000821933
0.000813109
0.000939635
0.000829513
0.000772736
0.0189127
0.0133194
0.00202793
0.000499575
0.00114285
0.00115248
0.00108895
0.0010449
0.000999646
0.00093988
0.000903075
0.000879005
0.000869521
0.000867001
0.000821959
0.00082963
0.000831204
0.000950709
0.000831477
0.000778573
0.0195487
0.0128308
0.00149082
0.000656965
0.00127048
0.00119734
0.0011692
0.00108375
0.00103721
0.000985016
0.000952867
0.00093803
0.000924406
0.000906444
0.000874623
0.000864691
0.000844354
0.000976487
0.000848097
0.000792044
0.0203287
0.0124554
0.00116323
0.000928905
0.00128099
0.00123425
0.00118726
0.00113449
0.00109291
0.00103354
0.000987722
0.000963071
0.000945573
0.000929671
0.000892259
0.000880676
0.000860132
0.000989076
0.00086026
0.000826644
0.020632
0.0119577
0.00157962
0.0010211
0.00139336
0.00126979
0.00126138
0.00116993
0.0011222
0.00106824
0.00102428
0.00100307
0.000984574
0.00097046
0.000937798
0.000909302
0.000880567
0.000997567
0.000856564
0.00085033
0.0210791
0.0115307
0.00167724
0.00119333
0.00138604
0.0013013
0.00126233
0.00121067
0.00116416
0.00111133
0.00106021
0.0010297
0.0010039
0.000982533
0.000949767
0.00091495
0.000871382
0.000971623
0.000810198
0.000839914
0.0211371
0.0111457
0.00239063
0.001223
0.00148322
0.00134353
0.00133483
0.00124846
0.00120179
0.00115122
0.00109689
0.00106973
0.0010439
0.00103064
0.00100022
0.000961508
0.000920647
0.00098734
0.000806062
0.000859946
0.021317
0.0108718
0.0025727
0.00133864
0.00147628
0.00136451
0.00132388
0.00127817
0.00122005
0.00117877
0.0011242
0.00108805
0.0010547
0.00103647
0.00101043
0.000965215
0.000925014
0.000974074
0.000758751
0.000855906
0.0211778
0.0104849
0.00223088
0.00133239
0.00153045
0.00141708
0.00138825
0.00132143
0.00127488
0.00123238
0.00117735
0.00114522
0.00110795
0.00109253
0.00107174
0.00102971
0.001004
0.00101062
0.000748574
0.000870571
0.0210933
0.00986564
0.00234053
0.00144266
0.00152517
0.00142791
0.00137675
0.00133471
0.00126755
0.00123714
0.00118588
0.00115181
0.00111617
0.00109668
0.00107714
0.00103957
0.00103245
0.001036
0.000747333
0.000894689
0.0207804
0.00895114
0.00205842
0.00144563
0.00155222
0.00147955
0.00142992
0.00139004
0.00133675
0.00130055
0.00125058
0.00121825
0.00117856
0.00116367
0.00114325
0.00111648
0.00112964
0.00110837
0.000816181
0.000918762
0.0204868
0.00803034
0.00229484
0.00152631
0.00155072
0.00148582
0.00141246
0.00137744
0.00131474
0.00128983
0.00124575
0.00122085
0.00118987
0.00117744
0.00116827
0.00117805
0.00122413
0.00118598
0.00108029
0.00119069
0.00508422
0.00359374
0.00296846
0.00253293
0.00232726
0.00190407
0.00167878
0.00140751
0.00121924
0.00101629
0.000829668
0.00068115
0.000559555
0.000458711
0.00045646
0.000923372
0.00235437
0.0063327
0.0105134
0.0144053
0.00520544
0.00347717
0.0028592
0.00250218
0.00232064
0.00189318
0.00168599
0.00142345
0.00121098
0.000988712
0.000815535
0.00067654
0.000545145
0.000452622
0.000437297
0.000922525
0.00234284
0.0063265
0.0104572
0.0143861
0.00521298
0.00366369
0.00303505
0.00252152
0.00231817
0.00186764
0.00164924
0.0013766
0.00119155
0.000996063
0.000807023
0.00066455
0.000519053
0.000423155
0.000398037
0.000879398
0.00233141
0.00632042
0.0104559
0.0143773
0.00536988
0.00351739
0.00293673
0.00248993
0.00231228
0.00186698
0.00165718
0.00140896
0.00119526
0.000975151
0.000795621
0.000665747
0.000527118
0.00042455
0.000381416
0.000860899
0.00230359
0.00631116
0.0104378
0.0143667
0.0054413
0.00372259
0.0030916
0.00250822
0.0023061
0.00183883
0.00162019
0.00135733
0.00116854
0.000981677
0.000789751
0.00065683
0.000514514
0.000391912
0.000341106
0.000848085
0.00227576
0.00629831
0.010447
0.0143591
0.00557202
0.00359953
0.00303165
0.00248308
0.00230312
0.00185292
0.00162788
0.00139656
0.00118244
0.000970888
0.000784939
0.000666339
0.000529456
0.000409029
0.000320609
0.000836175
0.00222632
0.00627059
0.0104707
0.0143779
0.00567663
0.00377347
0.00316013
0.00252122
0.00228701
0.00182244
0.00159119
0.00134673
0.00115073
0.000972522
0.000778922
0.000659164
0.000521483
0.000409023
0.000289214
0.000764644
0.00213609
0.00625977
0.0104746
0.0143863
0.00575746
0.0036606
0.00310731
0.00249599
0.0022937
0.0018479
0.00160065
0.00138659
0.00117169
0.00097173
0.000780108
0.000672737
0.000536548
0.000428128
0.000324245
0.000713061
0.00209544
0.0062352
0.010499
0.0144001
0.005892
0.0037947
0.00319358
0.00254271
0.00227249
0.00181508
0.00156498
0.00134253
0.00113843
0.000968299
0.000772764
0.000662782
0.00052135
0.000421742
0.000172703
0.000663361
0.00204052
0.00620979
0.0105248
0.0144036
0.0058768
0.00375354
0.00314144
0.002502
0.00228784
0.00184589
0.00157551
0.00137962
0.00116278
0.0009757
0.000779713
0.000678253
0.000535199
0.000456193
0.000152562
0.000628989
0.00197037
0.00619044
0.0105428
0.0144326
0.00587129
0.00382116
0.00322223
0.00254115
0.00226042
0.00181505
0.00154165
0.0013433
0.00113048
0.000968033
0.000772291
0.00066845
0.000522962
0.000436649
0.000225298
0.000586817
0.0019032
0.00616879
0.0105448
0.0144904
0.00596216
0.00371526
0.00313015
0.00249593
0.0022741
0.00184878
0.00155141
0.00137611
0.00115589
0.000981226
0.00078456
0.000687247
0.000538781
0.000457833
0.00023801
0.000578365
0.00182893
0.00613558
0.0105407
0.0146042
0.0060655
0.00378518
0.00320463
0.00249616
0.00222627
0.00182137
0.00152055
0.00134752
0.00112615
0.000970885
0.000778033
0.000680782
0.00053133
0.000430697
0.000304488
0.000576246
0.0017482
0.00610482
0.0104851
0.0146945
0.00610755
0.00374161
0.00314363
0.00247327
0.00222653
0.00185345
0.00152947
0.00137552
0.00115123
0.000987351
0.000793228
0.000701829
0.000557062
0.000469568
0.000307701
0.00054685
0.00165818
0.00606322
0.010412
0.0146381
0.00614279
0.00374235
0.0031585
0.00248104
0.00216562
0.00182828
0.00150399
0.00135369
0.0011249
0.000976036
0.000787048
0.00069543
0.000552021
0.000467768
0.000318588
0.000509832
0.00155728
0.00601989
0.0104152
0.0146176
0.00618115
0.00366919
0.00309904
0.00249137
0.00215872
0.00185297
0.00151299
0.00137672
0.00114861
0.000993021
0.000802854
0.000714994
0.000573493
0.00049894
0.00036355
0.000470857
0.00146188
0.00598106
0.0104455
0.0146276
0.00619716
0.00365211
0.00305898
0.0024747
0.00209244
0.00182412
0.00149266
0.00135865
0.00112541
0.000980914
0.000797059
0.000707018
0.000568837
0.000499506
0.000373172
0.000447257
0.00136125
0.00583911
0.0104493
0.0146377
0.00620317
0.00355187
0.00299937
0.00250527
0.00209561
0.00184592
0.00150747
0.00138268
0.00115048
0.00099982
0.000814659
0.000727489
0.000590647
0.000529341
0.000406325
0.00045404
0.00125256
0.00594464
0.0104986
0.0147199
0.00603856
0.00356953
0.00289086
0.00244863
0.00201381
0.00180461
0.00148837
0.00136599
0.00113249
0.000988901
0.000809952
0.00072174
0.000586543
0.000525085
0.000417073
0.000473163
0.00113714
0.00589244
0.0106146
0.0147931
0.00633886
0.00349753
0.00279086
0.00245661
0.00201719
0.00181037
0.00149742
0.00137578
0.00114769
0.000997489
0.000820487
0.000735601
0.000616398
0.000553744
0.000442751
0.000490496
0.00102311
0.0055052
0.0104358
0.0144564
0.0199004
0.0336051
0.0257153
0.0265065
0.0221875
0.0196018
0.0165071
0.0150149
0.0120715
0.0106727
0.0087764
0.00756799
0.00643797
0.00573289
0.00522636
0.00513508
0.00255772
0.0534863
0.0989891
0.133376
0.0312573
0.0224686
0.0205839
0.0180259
0.0158812
0.0130403
0.0117929
0.00997587
0.00846847
0.00730655
0.00648586
0.00590943
0.00529231
0.00494763
0.00443307
0.00423909
0.0120985
0.0553598
0.0970309
0.131386
0.0139435
0.0145514
0.0144389
0.0117909
0.0109179
0.00980221
0.00902765
0.00816332
0.0074116
0.00684302
0.00637554
0.0060255
0.00560324
0.00531027
0.00494008
0.00428533
0.0101845
0.054995
0.0949787
0.131036
0.0117325
0.00967396
0.00915251
0.0090045
0.00841531
0.00770019
0.00721122
0.00680984
0.00630132
0.00588498
0.0055143
0.00501727
0.00453517
0.00422642
0.00383568
0.00312072
0.00866319
0.0541108
0.09497
0.12751
0.00374923
0.00729497
0.00768885
0.00673796
0.00619988
0.00570852
0.00534318
0.00519335
0.00498911
0.00467694
0.00448137
0.00434898
0.00427594
0.0039976
0.0038222
0.00283467
0.00607376
0.0529803
0.0949261
0.126355
0.00522566
0.00514692
0.0044161
0.00460739
0.00470488
0.00474268
0.00451202
0.00442079
0.00436371
0.0042736
0.00404702
0.0039525
0.00379014
0.00374309
0.00363013
0.00238159
0.00572547
0.0507058
0.0956152
0.124988
0.00229936
0.0035241
0.00402817
0.00382991
0.00355189
0.00357771
0.00358632
0.00351496
0.00352885
0.00358924
0.00351572
0.00347408
0.00346823
0.0032233
0.00315336
0.00223193
0.00455112
0.0443546
0.0965767
0.125733
0.00245486
0.00252393
0.00223052
0.00235884
0.00269551
0.00283963
0.00296421
0.0031159
0.00307439
0.00326806
0.00328224
0.00334637
0.00334322
0.00346653
0.00327422
0.00202286
0.00366525
0.0392694
0.097041
0.127173
0.00148264
0.00177963
0.00218786
0.00236288
0.00229119
0.00244175
0.00251125
0.00273487
0.00274801
0.00287448
0.00292651
0.00317305
0.00315734
0.00339082
0.00339418
0.00235735
0.00225067
0.0306982
0.0978728
0.131018
0.00124479
0.00141214
0.00128705
0.00139725
0.00175866
0.00204259
0.00217705
0.00243534
0.00267726
0.00286705
0.00292973
0.00318824
0.00324618
0.00352417
0.00361798
0.00329
0.00189653
0.025095
0.0967697
0.136988
0.000928476
0.00110114
0.00144269
0.00172819
0.00175351
0.0019465
0.00202075
0.00222732
0.00233947
0.00277049
0.00289685
0.00323299
0.00349448
0.00388405
0.00400746
0.00387965
0.00336842
0.0163589
0.0938344
0.147273
0.000902767
0.00106562
0.00104296
0.00127879
0.00152726
0.00180045
0.00206354
0.00228045
0.00232366
0.00253923
0.00276728
0.00316898
0.00331682
0.00398827
0.00415848
0.00507288
0.0031629
0.00996265
0.0855003
0.160521
0.000855327
0.00109874
0.00123441
0.00140488
0.00145614
0.00153529
0.00162349
0.00199835
0.00226144
0.00252761
0.00267924
0.00304413
0.00333614
0.00386874
0.00420703
0.00526307
0.00506268
0.0060241
0.0676895
0.177252
0.000837455
0.000896281
0.000951799
0.00111095
0.00124112
0.00145396
0.00150325
0.00161185
0.00174861
0.00202497
0.00224403
0.00243296
0.00283884
0.0032819
0.00406678
0.00423642
0.00585705
0.00995749
0.0389089
0.169926
0.00076804
0.000827309
0.000851799
0.000931737
0.000985467
0.0010916
0.00124627
0.00139889
0.00139507
0.00158637
0.001695
0.00205433
0.00207711
0.00263393
0.00274787
0.00356082
0.00422658
0.00677687
0.0149043
0.114044
0.000616194
0.0006289
0.000636657
0.000690142
0.000723992
0.000832098
0.000834796
0.00101515
0.00111333
0.00130116
0.00136061
0.00156435
0.00171006
0.00190369
0.0021599
0.00257641
0.00256755
0.00342942
0.00435849
0.0613012
0.000417721
0.000463475
0.000497512
0.00052906
0.000560281
0.000586026
0.00062069
0.000664618
0.000742105
0.000805762
0.000834116
0.000957498
0.00104094
0.00127567
0.00127843
0.00149712
0.00176275
0.00229847
0.00383791
0.029814
0.000225229
0.000263079
0.000304519
0.000352761
0.000424654
0.000483482
0.00050675
0.000601147
0.000623506
0.000697723
0.000736829
0.000845099
0.000862231
0.00100968
0.000896065
0.00106638
0.00088605
0.000876294
0.001023
0.0152411
0.000150446
0.000174176
0.000244854
0.000289503
0.000316026
0.000340674
0.000346698
0.000363163
0.000418493
0.000424941
0.000488938
0.000537691
0.000615127
0.000696847
0.000840832
0.000634773
0.0009771
0.000599124
0.000982411
0.00155922
0.000263126
0.00028232
0.000314658
0.000342079
0.000327331
0.000377838
0.000418574
0.000432318
0.000437279
0.000519274
0.000563093
0.000572083
0.000604139
0.000594493
0.000598751
0.000594334
0.000540279
0.000487922
0.000476489
0.00294653
0.0140025
0.0140418
0.0139798
0.0139819
0.0139706
0.0139372
0.0138184
0.0136767
0.0143258
0.0137315
0.0127639
0.012687
0.01328
0.0130338
0.011034
0.0104765
0.0101322
0.0106849
0.0105956
0.0104834
0.00689907
0.00690489
0.00685978
0.00685754
0.00680752
0.00674103
0.00666756
0.0067468
0.00657048
0.00650654
0.00637838
0.00763551
0.00849356
0.00641963
0.00552157
0.00488445
0.00734746
0.00834098
0.00779125
0.00771024
0.00404815
0.00406646
0.00410681
0.00418237
0.00421638
0.0043649
0.00439759
0.00446451
0.00455418
0.00474796
0.00438145
0.00394239
0.00360997
0.00435122
0.004217
0.00446875
0.00436109
0.00437043
0.00391542
0.0036227
0.00255183
0.00255648
0.00254377
0.00254579
0.00254656
0.00257902
0.00253054
0.00250227
0.00243599
0.00241409
0.00246287
0.00280324
0.00274859
0.00245024
0.00215869
0.0023281
0.00240191
0.00334352
0.003131
0.0028874
0.00155629
0.00156155
0.00156446
0.00158607
0.00160447
0.00164263
0.00161784
0.00166492
0.00174296
0.00174864
0.0016101
0.00151606
0.0016146
0.00195865
0.00184966
0.0016573
0.00146424
0.00153495
0.00136094
0.00127657
0.00108985
0.00109048
0.00109438
0.00110366
0.00110492
0.00110925
0.00108595
0.00108727
0.00103873
0.00101765
0.00101027
0.00107175
0.000939709
0.000945005
0.00109103
0.00127382
0.00119962
0.00128703
0.00108794
0.00102779
0.00066197
0.000661887
0.000662242
0.0006609
0.000653459
0.000654031
0.00065178
0.000656422
0.000647597
0.000655542
0.000664941
0.000713288
0.00079571
0.000824213
0.000697555
0.000649313
0.000592017
0.000627799
0.000547675
0.000538665
0.000478396
0.000478186
0.000474038
0.000467352
0.000465589
0.000479677
0.000491544
0.000491749
0.000472744
0.000465555
0.000453993
0.000448998
0.000450711
0.000448106
0.000390519
0.000439801
0.000519012
0.000514346
0.000462488
0.000539229
0.000235302
0.000234128
0.000233142
0.000235876
0.000252764
0.000279064
0.000289398
0.000271815
0.000240294
0.00022793
0.000224876
0.000244762
0.000271446
0.000291959
0.000329663
0.00036236
0.000320623
0.000336872
0.0002846
0.000274447
0.000148752
0.000155741
0.000152213
0.00015695
0.000175388
0.000185525
0.000180777
0.000157666
0.000148241
0.000152961
0.000149511
0.000159137
0.000166676
0.000177943
0.000209497
0.000223036
0.000225601
0.000223576
0.00023805
0.000275892
7.4302e-05
8.07999e-05
8.45129e-05
9.2387e-05
0.000109693
0.000123429
0.000119182
9.66468e-05
0.000106419
0.000113243
0.000119998
0.000133155
0.0001386
0.000145835
0.000131174
0.000126224
0.000118258
0.000118216
0.000163941
0.000223744
6.70195e-05
7.11023e-05
7.23498e-05
7.43585e-05
8.68099e-05
9.64032e-05
8.73661e-05
7.69822e-05
7.20243e-05
6.12099e-05
8.01794e-05
9.21423e-05
0.000105347
0.000119227
0.000128872
0.00014569
0.000151779
0.000176143
0.000215559
0.00021775
8.40897e-05
9.06754e-05
9.94776e-05
0.000106368
0.00011664
0.000111626
0.000104673
0.000108715
0.000122224
0.000126127
0.000132157
0.00013502
0.000142939
0.000144066
0.000162403
0.000169765
0.000181026
0.000200424
0.000170488
0.000167917
0.000140502
0.000145797
0.000150026
0.000154489
0.00015509
0.000159047
0.000165711
0.000175295
0.000179839
0.000183174
0.000181707
0.000174276
0.000167373
0.000167714
0.000161936
0.000160875
0.000165014
0.000174172
0.000186516
0.000196595
0.000139037
0.000140092
0.000141524
0.000144477
0.000146825
0.000145496
0.000149697
0.000152006
0.000150511
0.000150529
0.000155195
0.000166262
0.000177258
0.000180018
0.000179155
0.00017776
0.000176014
0.000179467
0.000179823
0.000186849
0.000110064
0.000108033
0.000106175
0.000104232
0.000107663
0.000113183
0.000106408
9.92358e-05
9.97547e-05
0.000103757
0.000106298
0.000106073
0.000107074
0.000110639
0.000116487
0.000123149
0.000122365
0.000122846
0.000129018
0.000142569
6.03616e-05
6.01375e-05
6.02896e-05
6.03314e-05
5.79536e-05
5.65001e-05
6.11785e-05
6.35733e-05
6.25501e-05
5.95629e-05
5.59949e-05
5.34098e-05
5.25896e-05
5.53081e-05
5.66169e-05
5.95796e-05
6.00358e-05
6.12087e-05
6.27199e-05
9.87083e-05
2.44586e-05
2.46553e-05
2.64464e-05
2.7748e-05
3.00059e-05
3.01857e-05
3.18285e-05
3.57107e-05
4.12129e-05
4.60377e-05
5.19719e-05
5.19037e-05
5.15957e-05
4.99574e-05
5.07307e-05
5.04153e-05
5.16093e-05
5.24169e-05
5.25749e-05
5.65386e-05
3.53479e-05
3.54374e-05
3.3268e-05
2.72702e-05
2.54794e-05
2.27859e-05
2.16958e-05
1.90506e-05
1.91793e-05
1.71518e-05
2.06687e-05
2.22415e-05
2.54517e-05
2.49373e-05
2.67345e-05
2.60289e-05
2.67912e-05
2.68441e-05
3.436e-05
3.33564e-05
2.31882e-05
2.57405e-05
2.83977e-05
3.09814e-05
3.36309e-05
3.6213e-05
3.90796e-05
4.11352e-05
4.25377e-05
4.42632e-05
4.53919e-05
4.7164e-05
4.83372e-05
5.04835e-05
5.15683e-05
5.36658e-05
5.44852e-05
5.69399e-05
5.64574e-05
5.8837e-05
0.00104118
0.00128347
0.000962086
0.00103213
0.00107096
0.00110371
0.00110961
0.00113528
0.00118501
0.00121936
0.00125385
0.00128521
0.00137007
0.00139195
0.00148126
0.00154926
0.00155696
0.00189907
0.00662626
0.0201444
0.000971368
0.00108869
0.000871401
0.000956908
0.00101895
0.00105101
0.00110123
0.00115454
0.00117431
0.0012294
0.00128035
0.0013057
0.00136911
0.00137908
0.00147288
0.00144826
0.00155564
0.00132309
0.00503405
0.0197183
0.00102435
0.0012026
0.000919857
0.00100066
0.00105519
0.00108843
0.00110244
0.00112478
0.00117072
0.0012147
0.00124703
0.00129139
0.00137253
0.00139689
0.00148567
0.00151323
0.00158927
0.00133825
0.00470738
0.0192204
0.00107755
0.00119442
0.000902082
0.000985996
0.00103012
0.00104923
0.00108715
0.00114461
0.00117135
0.00123078
0.00127506
0.00132186
0.0013823
0.00140045
0.00150205
0.00147927
0.00162229
0.00137167
0.00425165
0.0186607
0.00107079
0.0012075
0.000942002
0.00101397
0.00104688
0.00108192
0.0011189
0.00115032
0.0012014
0.0012568
0.00128435
0.0013411
0.00139943
0.00142361
0.00150302
0.00150654
0.00160692
0.00140797
0.00514378
0.0179782
0.00110857
0.00121502
0.000935849
0.00101148
0.0010628
0.0011068
0.00112224
0.00116303
0.00119276
0.0012337
0.00127382
0.00133047
0.00137159
0.0014125
0.00150394
0.00151263
0.00170396
0.00155765
0.00509981
0.0173887
0.00110918
0.00119444
0.000936101
0.0010241
0.00107327
0.00108382
0.00110722
0.00115917
0.00120246
0.0012586
0.00128517
0.00133993
0.00137624
0.00141852
0.00149721
0.00152791
0.00164629
0.00150593
0.00479716
0.0164184
0.00109884
0.0011525
0.000928562
0.00105378
0.0010807
0.00109822
0.00113901
0.0011852
0.00121258
0.00124043
0.00127609
0.00131929
0.00134644
0.00142755
0.00150125
0.00154838
0.0017124
0.00157268
0.00394514
0.0151932
0.0010693
0.00114622
0.00100268
0.00107088
0.00107234
0.00110645
0.00113196
0.00117062
0.00118481
0.00121823
0.00124292
0.00127679
0.00134715
0.00142716
0.00147001
0.00153781
0.00157846
0.00155092
0.00296382
0.0124155
0.00112235
0.00118993
0.000999021
0.00103701
0.00106778
0.00109931
0.00112462
0.00115911
0.00115941
0.00121201
0.00124528
0.00132898
0.00140931
0.00146222
0.00148546
0.0015316
0.00157324
0.00155378
0.00253242
0.0102687
0.00107786
0.00107412
0.000928793
0.00099661
0.00103569
0.00105916
0.00108501
0.00109573
0.00113005
0.00120587
0.00126153
0.00136284
0.00140242
0.00141055
0.00140902
0.00146582
0.00149072
0.00155711
0.00214215
0.00835732
0.0010006
0.00101763
0.000943109
0.00101048
0.00104227
0.00106231
0.0010865
0.00113054
0.00122022
0.00130845
0.00134982
0.0013777
0.00132338
0.00131189
0.00136442
0.00147441
0.00150514
0.00160214
0.00199321
0.00714553
0.000989906
0.00103091
0.000959597
0.00100169
0.00102809
0.00105436
0.00110229
0.00117172
0.00123282
0.00122651
0.0011979
0.00118896
0.00118932
0.00130098
0.00145438
0.00155057
0.0015575
0.00168705
0.00182565
0.00581748
0.00100104
0.00105014
0.000975242
0.00102834
0.00106134
0.0010954
0.00113632
0.00116593
0.00116158
0.00114809
0.00118628
0.00125475
0.00137458
0.00153912
0.00158696
0.0015388
0.00150318
0.00157338
0.00160584
0.00483486
0.000989522
0.00101952
0.000955173
0.00101216
0.00103503
0.00107035
0.00110062
0.00113279
0.00115955
0.00122161
0.00130316
0.0013998
0.00147352
0.00149333
0.00141941
0.00139186
0.00149085
0.00162479
0.00157461
0.00431532
0.000976769
0.00102985
0.000978653
0.00103289
0.00107018
0.00109895
0.00113931
0.00116052
0.00121012
0.00124493
0.00129896
0.00131512
0.0013062
0.00130679
0.00127936
0.00148902
0.00159047
0.00161815
0.00165054
0.00443655
0.000957631
0.00101529
0.00096603
0.00102211
0.00105347
0.00107082
0.00109344
0.0011161
0.00114709
0.00117408
0.00122479
0.00123731
0.00130866
0.00134033
0.00145693
0.0015811
0.0015591
0.00159125
0.00167902
0.00405191
0.000933472
0.000982567
0.000937191
0.000995219
0.00101889
0.00104174
0.00107904
0.00111853
0.00117354
0.00123053
0.0012862
0.00132739
0.00138854
0.00142081
0.00153595
0.00152768
0.00158013
0.00165227
0.00160967
0.00364509
0.000927354
0.000998423
0.000952477
0.00102257
0.00105135
0.00108803
0.00112498
0.00116388
0.00120037
0.00123376
0.00125458
0.00129137
0.00132031
0.00135563
0.0014127
0.00141203
0.00153183
0.00156756
0.00170437
0.0029146
0.00092882
0.000978112
0.000943803
0.00101295
0.00103278
0.00107499
0.00109233
0.00114393
0.00114779
0.00119914
0.00121506
0.00127259
0.00131312
0.00137785
0.00141333
0.00145484
0.00151212
0.00159251
0.00188525
0.0017061
0.000707379
0.000725287
0.000669227
0.000637183
0.000602772
0.00053746
0.000581633
0.000603319
0.000592871
0.000616724
0.00061906
0.000708305
0.000677061
0.000379739
0.000133188
0.00170024
0.00745574
0.0124847
0.0110341
0.00416917
0.00075861
0.000781955
0.00066528
0.000625832
0.000662274
0.000613309
0.000595521
0.000582725
0.000644955
0.00064175
0.00067442
0.000673082
0.00071956
0.000687233
0.000339167
0.000398424
0.00563672
0.0117257
0.0122541
0.00632017
0.000767269
0.000856039
0.000778714
0.000639576
0.000643752
0.000609883
0.000647083
0.000651362
0.000634916
0.000695093
0.000697065
0.000739279
0.00081912
0.000733498
0.000521744
0.000194952
0.00310318
0.0107418
0.0130166
0.00829019
0.000792494
0.000869782
0.000812792
0.000722414
0.00071259
0.000643349
0.000629896
0.000651593
0.000710271
0.000688797
0.000742972
0.000764996
0.000790135
0.000894757
0.000751572
0.000445923
0.0013217
0.00979918
0.0136218
0.0104971
0.000794612
0.000940157
0.000906879
0.000712343
0.000728883
0.000704156
0.000713594
0.000702832
0.000716053
0.000788923
0.000774558
0.000824525
0.000883148
0.000919328
0.000881265
0.000407547
0.000562962
0.00875731
0.0136338
0.0130851
0.000782935
0.000910114
0.000968677
0.000825442
0.000771448
0.000701843
0.000708041
0.000747011
0.000783016
0.000761587
0.000835581
0.000859293
0.00086703
0.000991799
0.000986675
0.000708815
0.000385665
0.00693536
0.0138493
0.0157879
0.000804518
0.00094789
0.000988292
0.000811248
0.00082048
0.000791087
0.000776627
0.000761259
0.000810261
0.000877851
0.000848027
0.000905756
0.00098653
0.00101283
0.00104971
0.000849848
0.000174683
0.00466464
0.0136979
0.0168896
0.000781863
0.000923684
0.00104053
0.000872023
0.000831442
0.000783557
0.000807566
0.000852687
0.000865661
0.000852005
0.00092706
0.000955447
0.000963423
0.0010638
0.00113003
0.00106127
0.000122865
0.00336168
0.013448
0.0178288
0.000812733
0.000924333
0.00102296
0.000868849
0.000870571
0.000856011
0.000838818
0.000832376
0.000907064
0.000956706
0.000927129
0.000992725
0.00107602
0.00112188
0.00115793
0.00110928
0.000410078
0.00215225
0.0131425
0.0187743
0.000791955
0.00091212
0.00105069
0.000881246
0.000869982
0.00085697
0.000892417
0.000936331
0.000938199
0.000932829
0.00100316
0.00104432
0.00105766
0.00115328
0.0011994
0.00122748
0.00055653
0.00163919
0.0127703
0.019394
0.000827241
0.000899701
0.0010149
0.000882034
0.00089862
0.000904515
0.000898439
0.000908824
0.00099221
0.00102154
0.00100794
0.00106882
0.00114759
0.00122241
0.00123313
0.00127189
0.000861165
0.00111335
0.0124301
0.0202111
0.000826913
0.000893666
0.00103552
0.000891145
0.00090456
0.00092253
0.000959959
0.000995482
0.000995547
0.000995602
0.00106183