/*--------------------------------*- C++ -*----------------------------------*\
  =========                 |
  \\      /  F ield         | OpenFOAM: The Open Source CFD Toolbox
   \\    /   O peration     | Website:  https://openfoam.org
    \\  /    A nd           | Version:  9
     \\/     M anipulation  |
\*---------------------------------------------------------------------------*/
FoamFile
{
    format      ascii;
    class       surfaceScalarField;
    location    "4.5";
    object      phi;
}
// * * * * * * * * * * * * * * * * * * * * * * * * * * * * * * * * * * * * * //

dimensions      [0 3 -1 0 0 0 0];

internalField   nonuniform List<scalar> 
92080
(
-0.0039092
-0.483275
0.487184
-0.030392
-0.96732
0.993802
-0.0742444
-1.05903
1.10288
-0.118038
-1.04206
1.08586
-0.161094
-1.0248
1.06786
-0.204369
-1.00715
1.05043
-0.247274
-0.991698
1.0346
-0.288993
-0.976959
1.01868
-0.330376
-0.963291
1.00467
-0.371473
-0.950134
0.991231
-0.412007
-0.938352
0.978886
-0.452043
-0.926878
0.966914
-0.491767
-0.916416
0.956141
-0.530769
-0.906947
0.945948
-0.569011
-0.897786
0.936028
-0.605869
-0.888712
0.92557
-0.641059
-0.879733
0.914923
-0.675414
-0.869433
0.903788
-0.708114
-0.859901
0.8926
-0.85253
0.88239
-0.737973
-0.0051198
-0.478155
-0.0334317
-0.939008
-0.078192
-1.01427
-0.124261
-0.995993
-0.16889
-0.980175
-0.212609
-0.963434
-0.256258
-0.948049
-0.299923
-0.933294
-0.34254
-0.920674
-0.384719
-0.907954
-0.426589
-0.896482
-0.467985
-0.885483
-0.509278
-0.875123
-0.550454
-0.865771
-0.591141
-0.857099
-0.631159
-0.848693
-0.669412
-0.84148
-0.705946
-0.832899
-0.741409
-0.824438
-0.81821
-0.775729
-0.00741343
-0.470742
-0.0400251
-0.906396
-0.0884363
-0.965856
-0.136129
-0.9483
-0.182987
-0.933316
-0.228855
-0.917566
-0.273367
-0.903536
-0.317867
-0.888795
-0.36228
-0.876261
-0.405823
-0.864411
-0.448873
-0.853432
-0.491138
-0.843217
-0.532856
-0.833405
-0.574124
-0.824503
-0.615062
-0.81616
-0.655977
-0.807778
-0.69631
-0.801147
-0.73448
-0.79473
-0.771716
-0.787201
-0.780488
-0.809438
-0.00919493
-0.461547
-0.0459382
-0.869653
-0.0933117
-0.918483
-0.141081
-0.900531
-0.188173
-0.886224
-0.2352
-0.87054
-0.281669
-0.857067
-0.326908
-0.843556
-0.372366
-0.830803
-0.417495
-0.819281
-0.462387
-0.80854
-0.506777
-0.798828
-0.55079
-0.789392
-0.594533
-0.780761
-0.637548
-0.773146
-0.680403
-0.764923
-0.723673
-0.757877
-0.766287
-0.752116
-0.806541
-0.746947
-0.741002
-0.846026
-0.00887162
-0.452675
-0.0505727
-0.827952
-0.101086
-0.867969
-0.151325
-0.850292
-0.200446
-0.837103
-0.248528
-0.822459
-0.296223
-0.809371
-0.343157
-0.796622
-0.389025
-0.784935
-0.434728
-0.773578
-0.480014
-0.763255
-0.524809
-0.754032
-0.568863
-0.745337
-0.612827
-0.736797
-0.656422
-0.729551
-0.699545
-0.7218
-0.742991
-0.71443
-0.787466
-0.707642
-0.831945
-0.702468
-0.698256
-0.874692
-0.00727151
-0.445404
-0.0507939
-0.784429
-0.102629
-0.816134
-0.154266
-0.798654
-0.20515
-0.78622
-0.25501
-0.772598
-0.304251
-0.76013
-0.352931
-0.747941
-0.401071
-0.736795
-0.448256
-0.726393
-0.495646
-0.715864
-0.542807
-0.706872
-0.589417
-0.698727
-0.635345
-0.690869
-0.680588
-0.684308
-0.724882
-0.677506
-0.768548
-0.670764
-0.812002
-0.664188
-0.856893
-0.657577
-0.653073
-0.902076
-0.00490495
-0.440499
-0.0506
-0.738734
-0.104855
-0.761879
-0.15891
-0.744599
-0.212208
-0.732922
-0.263986
-0.72082
-0.314544
-0.709572
-0.364033
-0.698452
-0.412909
-0.68792
-0.460417
-0.678885
-0.50699
-0.669291
-0.553667
-0.660195
-0.600099
-0.652295
-0.646871
-0.644097
-0.693423
-0.637756
-0.739148
-0.631782
-0.784301
-0.62561
-0.828282
-0.620207
-0.871922
-0.613937
-0.608571
-0.916423
-0.00201472
-0.438484
-0.0509435
-0.689806
-0.109218
-0.703604
-0.164511
-0.689307
-0.219066
-0.678367
-0.272556
-0.66733
-0.324946
-0.657182
-0.376142
-0.647256
-0.427056
-0.637005
-0.477444
-0.628497
-0.526298
-0.620437
-0.574648
-0.611845
-0.621841
-0.605102
-0.668669
-0.59727
-0.716072
-0.590353
-0.762939
-0.584915
-0.809377
-0.579172
-0.855299
-0.574285
-0.899867
-0.569369
-0.564568
-0.94387
-0.00300676
-0.435477
-0.0548524
-0.63796
-0.11385
-0.644606
-0.170871
-0.632286
-0.226285
-0.622954
-0.280453
-0.613161
-0.33348
-0.604155
-0.384699
-0.596037
-0.434848
-0.586856
-0.484932
-0.578413
-0.533868
-0.571501
-0.582541
-0.563171
-0.6308
-0.556842
-0.677495
-0.550574
-0.724516
-0.543332
-0.771755
-0.537676
-0.818987
-0.531941
-0.866122
-0.52715
-0.913208
-0.522283
-0.518403
-0.959373
-0.00932429
-0.426153
-0.0630292
-0.584255
-0.122675
-0.58496
-0.180168
-0.574793
-0.236911
-0.566211
-0.292047
-0.558025
-0.346779
-0.549424
-0.400438
-0.542377
-0.452386
-0.534908
-0.50434
-0.526459
-0.555232
-0.52061
-0.604803
-0.5136
-0.654572
-0.507073
-0.702553
-0.502594
-0.749144
-0.49674
-0.795121
-0.4917
-0.840957
-0.486105
-0.886665
-0.481441
-0.932425
-0.476523
-0.472077
-0.978751
-0.018017
-0.408136
-0.0731191
-0.529153
-0.131132
-0.526947
-0.1873
-0.518625
-0.243249
-0.510262
-0.297859
-0.503414
-0.351369
-0.495914
-0.404224
-0.489522
-0.455144
-0.483989
-0.505374
-0.47623
-0.556291
-0.469693
-0.606188
-0.463703
-0.656957
-0.456304
-0.708162
-0.451389
-0.758531
-0.446371
-0.808062
-0.442169
-0.856398
-0.437769
-0.904372
-0.433467
-0.951033
-0.429863
-0.42565
-0.99746
-0.0262029
-0.381933
-0.0822602
-0.473096
-0.140968
-0.468239
-0.198217
-0.461377
-0.25527
-0.453209
-0.311988
-0.446697
-0.368332
-0.43957
-0.424611
-0.433243
-0.479147
-0.429452
-0.530445
-0.424932
-0.580484
-0.419653
-0.628576
-0.415612
-0.675401
-0.409479
-0.72285
-0.40394
-0.770396
-0.398824
-0.81847
-0.394095
-0.865922
-0.390317
-0.913208
-0.386181
-0.960124
-0.382947
-0.379822
-1.00595
-0.0335774
-0.348356
-0.0903898
-0.416283
-0.148797
-0.409832
-0.205128
-0.405045
-0.260265
-0.398072
-0.313805
-0.393156
-0.366575
-0.386801
-0.420608
-0.37921
-0.476477
-0.373583
-0.532192
-0.369218
-0.587404
-0.36444
-0.641482
-0.361534
-0.692885
-0.358076
-0.742913
-0.353912
-0.791747
-0.34999
-0.840155
-0.345687
-0.888566
-0.341906
-0.936256
-0.338491
-0.984344
-0.334859
-0.332156
-1.03201
-0.0400808
-0.308275
-0.0983216
-0.358043
-0.158349
-0.349804
-0.217436
-0.345958
-0.2761
-0.339408
-0.333901
-0.335355
-0.388228
-0.332474
-0.440121
-0.327317
-0.491514
-0.322191
-0.542726
-0.318005
-0.594332
-0.312835
-0.647149
-0.308717
-0.699678
-0.305547
-0.751143
-0.302446
-0.802016
-0.299117
-0.851547
-0.296157
-0.900928
-0.292525
-0.949699
-0.28972
-0.998023
-0.286535
-0.283713
-1.04647
-0.0441637
-0.264111
-0.102766
-0.29944
-0.161387
-0.291184
-0.217086
-0.290259
-0.27239
-0.284104
-0.329753
-0.277993
-0.387646
-0.274581
-0.443401
-0.271562
-0.497946
-0.267646
-0.551354
-0.264596
-0.602794
-0.261396
-0.654009
-0.257502
-0.705769
-0.253787
-0.757096
-0.25112
-0.808241
-0.247971
-0.858814
-0.245584
-0.908602
-0.242737
-0.958141
-0.240181
-1.00695
-0.237722
-0.235311
-1.05536
-0.0490606
-0.215051
-0.109173
-0.239329
-0.170713
-0.229644
-0.232102
-0.228869
-0.288802
-0.227404
-0.343357
-0.223437
-0.397865
-0.220073
-0.452365
-0.217061
-0.506469
-0.213542
-0.560612
-0.210454
-0.614156
-0.207852
-0.665882
-0.205776
-0.716779
-0.20289
-0.767598
-0.2003
-0.817687
-0.197883
-0.867796
-0.195475
-0.917276
-0.193257
-0.966491
-0.190965
-1.01537
-0.188845
-0.186778
-1.0639
-0.0595181
-0.155533
-0.115483
-0.183364
-0.169353
-0.175773
-0.226958
-0.171265
-0.284941
-0.169421
-0.341965
-0.166413
-0.398495
-0.163542
-0.454751
-0.160806
-0.509365
-0.158928
-0.563129
-0.156689
-0.616669
-0.154313
-0.670066
-0.152378
-0.722173
-0.150784
-0.773758
-0.148715
-0.8245
-0.147141
-0.874691
-0.145284
-0.924125
-0.143823
-0.973098
-0.141992
-1.02137
-0.140569
-0.138709
-1.06944
-0.0579299
-0.0976026
-0.122911
-0.118382
-0.182666
-0.116018
-0.238556
-0.115375
-0.294432
-0.113546
-0.350174
-0.110671
-0.404676
-0.10904
-0.459496
-0.105986
-0.51379
-0.104634
-0.567972
-0.102507
-0.620864
-0.101421
-0.67378
-0.0994623
-0.726173
-0.0983905
-0.777944
-0.0969445
-0.829196
-0.095889
-0.879911
-0.094569
-0.930034
-0.0936992
-0.979578
-0.0924483
-1.02851
-0.0916407
-0.0904829
-1.07673
-0.0502889
-0.0473137
-0.110617
-0.0580547
-0.172798
-0.0538364
-0.235019
-0.0531538
-0.294464
-0.0541015
-0.352278
-0.0528567
-0.407927
-0.053391
-0.46268
-0.0512333
-0.516771
-0.050543
-0.570369
-0.0489084
-0.623389
-0.0484008
-0.675557
-0.0472947
-0.727099
-0.0468485
-0.778342
-0.045701
-0.8291
-0.0451312
-0.879506
-0.0441631
-0.929582
-0.0436235
-0.979161
-0.0428693
-1.02838
-0.0424196
-0.0416666
-1.0772
-0.0529125
0.00559888
-0.110111
-0.000856541
-0.166052
0.00210462
-0.22332
0.00411463
-0.283005
0.00558331
-0.340485
0.00462335
-0.400056
0.00617954
-0.456703
0.00541431
-0.513474
0.00622767
-0.568386
0.00600392
-0.62292
0.00613311
-0.676513
0.00629803
-0.729451
0.0060891
-0.781525
0.00637339
-0.832816
0.00615952
-0.883407
0.00642796
-0.933247
0.00621646
-0.982578
0.00646229
-1.03128
0.00628284
-1.0796
0.00664818
0.0510689
0.0096186
-0.0606875
0.160089
-0.226643
0.117622
0.345085
-0.746771
0.561775
0.473681
-1.14406
1.01547
0.530833
-1.31394
1.25679
0.550725
-1.35726
1.33737
0.557968
-1.36146
1.35422
0.561052
-1.35677
1.35369
0.561717
-1.34767
1.34701
0.563164
-1.34057
1.33912
0.564226
-1.33431
1.33325
0.564479
-1.32811
1.32786
0.563841
-1.3222
1.32283
0.562338
-1.31531
1.31681
0.559978
-1.30855
1.31091
0.557471
-1.30137
1.30388
0.5542
-1.29536
1.29863
0.549996
-1.28584
1.29004
0.544552
-1.27597
1.28142
-1.2626
0.539417
1.26774
0.0467009
-0.0370823
0.177137
-0.357079
0.330924
-0.900558
0.422228
-1.23537
0.458265
-1.34998
0.470333
-1.36933
0.476164
-1.36729
0.477405
-1.35802
0.478391
-1.34866
0.478792
-1.34097
0.478362
-1.33388
0.477479
-1.32723
0.475798
-1.32052
0.473701
-1.31321
0.471221
-1.30607
0.468262
-1.29841
0.464422
-1.29152
0.459624
-1.28104
0.453757
-1.27011
-1.25699
0.448146
0.0467444
-0.0838267
0.179062
-0.489396
0.301019
-1.02252
0.366734
-1.30108
0.388912
-1.37215
0.397072
-1.37749
0.400178
-1.3704
0.400795
-1.35863
0.401244
-1.34911
0.40108
-1.34081
0.400364
-1.33317
0.398818
-1.32568
0.396661
-1.31836
0.393544
-1.31009
0.389492
-1.30202
0.385046
-1.29396
0.379657
-1.28613
0.373353
-1.27473
0.366306
-1.26306
-1.25031
0.359631
0.045656
-0.129483
0.164269
-0.608009
0.263204
-1.12145
0.307707
-1.34559
0.321013
-1.38546
0.326707
-1.38318
0.327407
-1.3711
0.327858
-1.35908
0.327665
-1.34892
0.326434
-1.33958
0.324247
-1.33098
0.321378
-1.32281
0.317316
-1.3143
0.312768
-1.30555
0.307863
-1.29711
0.302355
-1.28846
0.296153
-1.27993
0.289428
-1.26801
0.282102
-1.25573
-1.24314
0.27493
0.0459687
-0.175451
0.15091
-0.71295
0.227497
-1.19804
0.256676
-1.37476
0.264767
-1.39355
0.266749
-1.38517
0.266083
-1.37043
0.264786
-1.35779
0.262156
-1.34629
0.258781
-1.3362
0.254685
-1.32689
0.249813
-1.31794
0.244646
-1.30913
0.238686
-1.29959
0.232132
-1.29056
0.22533
-1.28165
0.217752
-1.27235
0.20952
-1.25978
0.200846
-1.24706
-1.23451
0.192211
0.0498979
-0.225349
0.135119
-0.798171
0.192427
-1.25535
0.208891
-1.39123
0.2114
-1.39606
0.209247
-1.38301
0.206395
-1.36758
0.20277
-1.35416
0.198749
-1.34227
0.193926
-1.33138
0.188566
-1.32153
0.182574
-1.31195
0.175491
-1.30205
0.168041
-1.29214
0.160138
-1.28266
0.15155
-1.27307
0.142523
-1.26332
0.133323
-1.25058
0.123667
-1.2374
-1.22482
0.11398
0.051726
-0.277075
0.120614
-0.867059
0.160715
-1.29545
0.167376
-1.39789
0.165943
-1.39463
0.160918
-1.37799
0.155837
-1.3625
0.149941
-1.34826
0.142937
-1.33526
0.135313
-1.32376
0.126845
-1.31306
0.11792
-1.30303
0.108832
-1.29296
0.0990473
-1.28235
0.0891691
-1.27278
0.0793573
-1.26325
0.0690009
-1.25297
0.0583965
-1.23997
0.0475803
-1.22659
-1.21387
0.0366306
0.0414668
-0.318542
0.0962025
-0.921794
0.12553
-1.32477
0.126741
-1.3991
0.121136
-1.38902
0.113986
-1.37084
0.1062
-1.35471
0.0976773
-1.33974
0.0887518
-1.32634
0.0792246
-1.31423
0.0695323
-1.30336
0.0591561
-1.29265
0.0481788
-1.28198
0.0370301
-1.2712
0.0252036
-1.26095
0.0130894
-1.25114
0.000992992
-1.24087
-0.0113124
-1.22767
-0.0239065
-1.21399
-1.20123
-0.0365432
0.0367721
-0.355314
0.0854198
-0.970442
0.100509
-1.33986
0.0951324
-1.39372
0.0852701
-1.37916
0.0749423
-1.36051
0.0640647
-1.34383
0.052657
-1.32833
0.0405437
-1.31422
0.0279878
-1.30167
0.0147236
-1.2901
0.00144161
-1.27937
-0.0120886
-1.26845
-0.0260702
-1.25722
-0.0398926
-1.24713
-0.0536859
-1.23735
-0.0676304
-1.22692
-0.0812322
-1.21407
-0.0949236
-1.2003
-1.18724
-0.108919
0.0279335
-0.383248
0.0624272
-1.00494
0.0710622
-1.3485
0.0618469
-1.38451
0.0495636
-1.36688
0.0367612
-1.34771
0.0232635
-1.33034
0.00930408
-1.31437
-0.00517713
-1.29974
-0.0201336
-1.28672
-0.0352333
-1.275
-0.0510257
-1.26358
-0.0667637
-1.25271
-0.0826311
-1.24135
-0.0991886
-1.23057
-0.115572
-1.22096
-0.131648
-1.21085
-0.147427
-1.19829
-0.163104
-1.18462
-1.17129
-0.179051
0.0276135
-0.410861
0.0560201
-1.03334
0.053556
-1.34603
0.038781
-1.36973
0.0216236
-1.34972
0.00473767
-1.33082
-0.0124013
-1.3132
-0.0298527
-1.29692
-0.0474796
-1.28211
-0.0653986
-1.2688
-0.0835738
-1.25683
-0.10169
-1.24546
-0.120327
-1.23408
-0.138849
-1.22283
-0.15744
-1.21198
-0.176502
-1.2019
-0.19525
-1.1921
-0.213454
-1.18008
-0.231634
-1.16644
-1.15281
-0.25012
0.0207306
-0.431592
0.0393596
-1.05197
0.0311949
-1.33787
0.012654
-1.35119
-0.00634385
-1.33072
-0.0258142
-1.31135
-0.0455431
-1.29347
-0.0654409
-1.27703
-0.0858719
-1.26168
-0.106617
-1.24805
-0.127616
-1.23583
-0.148785
-1.22429
-0.169713
-1.21315
-0.190835
-1.20171
-0.211883
-1.19093
-0.232786
-1.181
-0.253608
-1.17128
-0.273807
-1.15988
-0.293924
-1.14633
-1.13214
-0.314592
0.0183384
-0.44993
0.0305467
-1.06418
0.015962
-1.32328
-0.00662342
-1.32861
-0.0302163
-1.30713
-0.0533496
-1.28822
-0.0766041
-1.27021
-0.0998681
-1.25376
-0.122942
-1.23861
-0.146251
-1.22474
-0.169526
-1.21255
-0.192917
-1.2009
-0.216536
-1.18953
-0.240014
-1.17823
-0.263759
-1.16719
-0.287504
-1.15725
-0.310793
-1.14799
-0.333081
-1.1376
-0.354546
-1.12486
-1.11072
-0.375959
0.0135248
-0.463455
0.0184666
-1.06912
-0.00178047
-1.30304
-0.0276045
-1.30278
-0.0530097
-1.28172
-0.0788111
-1.26242
-0.104527
-1.2445
-0.130338
-1.22795
-0.156357
-1.21259
-0.182527
-1.19857
-0.208945
-1.18613
-0.234959
-1.17488
-0.260756
-1.16373
-0.286528
-1.15246
-0.312088
-1.14163
-0.337812
-1.13153
-0.363351
-1.12245
-0.388022
-1.11293
-0.411389
-1.10149
-1.08769
-0.434425
0.0108132
-0.474268
0.0103859
-1.06869
-0.0138722
-1.27878
-0.0431195
-1.27354
-0.072683
-1.25216
-0.101664
-1.23343
-0.130657
-1.21551
-0.15949
-1.19912
-0.188141
-1.18394
-0.216857
-1.16986
-0.245777
-1.15721
-0.274951
-1.14571
-0.303673
-1.13501
-0.332275
-1.12386
-0.360913
-1.11299
-0.389445
-1.103
-0.417785
-1.09411
-0.445218
-1.08549
-0.471079
-1.07563
-1.06207
-0.496696
0.00709103
-0.481359
0.00134632
-1.06295
-0.0279049
-1.24953
-0.0601715
-1.24127
-0.0918144
-1.22052
-0.12368
-1.20157
-0.155119
-1.18407
-0.186454
-1.16778
-0.217565
-1.15283
-0.248567
-1.13886
-0.279506
-1.12627
-0.310541
-1.11468
-0.341498
-1.10405
-0.372069
-1.09329
-0.402598
-1.08246
-0.433466
-1.07213
-0.464474
-1.0631
-0.494939
-1.05503
-0.523506
-1.04707
-1.03494
-0.550636
0.0049036
-0.486263
-0.00585876
-1.05219
-0.0382357
-1.21715
-0.0733419
-1.20616
-0.108007
-1.18585
-0.142169
-1.16741
-0.176452
-1.14978
-0.210685
-1.13355
-0.244911
-1.1186
-0.279159
-1.10461
-0.313358
-1.09207
-0.347554
-1.08048
-0.381483
-1.07012
-0.415134
-1.05964
-0.448479
-1.04912
-0.481728
-1.03888
-0.51549
-1.02934
-0.549263
-1.02125
-0.581984
-1.01434
-1.00387
-0.613058
0.00202199
-0.488285
-0.013447
-1.03672
-0.0487729
-1.18183
-0.0867167
-1.16822
-0.124009
-1.14856
-0.161124
-1.13029
-0.197314
-1.11359
-0.233191
-1.09767
-0.268608
-1.08319
-0.304123
-1.06909
-0.339711
-1.05649
-0.375587
-1.0446
-0.411572
-1.03414
-0.447182
-1.02403
-0.482864
-1.01343
-0.518624
-1.00312
-0.554624
-0.993339
-0.591324
-0.984554
-0.627573
-0.978095
-0.9697
-0.66174
3.31837e-05
-0.488318
-0.0203226
-1.01636
-0.0585035
-1.14364
-0.0980395
-1.12868
-0.136986
-1.10961
-0.175925
-1.09135
-0.215233
-1.07429
-0.254419
-1.05849
-0.293254
-1.04435
-0.331688
-1.03066
-0.370099
-1.01808
-0.408464
-1.00624
-0.447084
-0.995517
-0.485533
-0.985576
-0.523528
-0.975439
-0.561919
-0.964731
-0.600863
-0.954394
-0.641182
-0.944236
-0.683431
-0.935846
-0.92859
-0.724541
-0.00113383
-0.0236937
-0.0644579
-0.107287
-0.14904
-0.189965
-0.229649
-0.269458
-0.309135
-0.348562
-0.387752
-0.427078
-0.466455
-0.506082
-0.545494
-0.584655
-0.624126
-0.664573
-0.707819
-0.75402
0.429463
-11.0054
11.1153
0.341688
-10.514
10.6018
0.267578
-10.4234
10.4975
0.206855
-10.1896
10.2504
0.156477
-10.0359
10.0862
0.117249
-9.82838
9.8676
0.0860135
-9.68261
9.71385
0.0616704
-9.52151
9.54585
0.0417313
-9.39683
9.41677
0.0264714
-9.28183
9.29709
0.0158358
-9.19637
9.207
0.00880193
-9.11542
9.12245
0.00494204
-9.06405
9.06791
0.0038674
-8.99729
8.99837
0.00567897
-8.96605
8.96424
0.00825343
-8.86503
8.86245
0.0114488
-8.58318
8.57998
0.0111929
-7.54622
7.54648
0.00878074
-5.33915
5.34157
-2.14832
2.15711
0.339338
-10.8966
0.259582
-10.4342
0.195498
-10.3593
0.140299
-10.1344
0.0935126
-9.98906
0.0579025
-9.79277
0.0302848
-9.65499
0.00901945
-9.50024
-0.00667511
-9.38113
-0.0171028
-9.2714
-0.0233633
-9.19011
-0.0262756
-9.11251
-0.0261836
-9.06414
-0.0229701
-9.0005
-0.0169121
-8.97211
-0.00954117
-8.8724
-0.00138572
-8.59133
0.0041509
-7.55176
0.00587444
-5.34088
-2.14245
0.257727
-10.7947
0.175233
-10.3518
0.107509
-10.2916
0.0556162
-10.0825
0.0144078
-9.94786
-0.0151312
-9.76323
-0.0365169
-9.63361
-0.0511246
-9.48563
-0.061136
-9.37112
-0.0668108
-9.26573
-0.0679576
-9.18896
-0.0656894
-9.11477
-0.0604379
-9.06939
-0.0519485
-9.00899
-0.0407822
-8.98327
-0.0280196
-8.88516
-0.0144387
-8.60491
-0.00295961
-7.56324
0.00318291
-5.34702
-2.13927
0.171135
-10.6909
0.0974052
-10.278
0.0381088
-10.2323
-0.00937594
-10.0351
-0.0472854
-9.90995
-0.0737886
-9.73672
-0.091407
-9.61599
-0.102881
-9.47416
-0.109075
-9.36493
-0.110214
-9.26459
-0.107106
-9.19207
-0.100831
-9.12105
-0.0918176
-9.07841
-0.0792516
-9.02156
-0.0638675
-8.99866
-0.0461868
-8.90284
-0.0272703
-8.62383
-0.0100129
-7.5805
0.000565217
-5.3576
-2.1387
0.0926301
-10.5913
0.0134366
-10.1988
-0.0492162
-10.1696
-0.0931077
-9.99117
-0.125084
-9.87797
-0.145897
-9.71591
-0.157641
-9.60425
-0.162847
-9.46895
-0.163339
-9.36444
-0.159603
-9.26832
-0.151456
-9.20021
-0.140159
-9.13235
-0.126075
-9.09249
-0.108289
-9.03935
-0.0882219
-9.01872
-0.0650738
-8.92599
-0.0402332
-8.64867
-0.0169919
-7.60374
-0.00196711
-5.37262
-2.14067
0.00954884
-10.4869
-0.0602027
-10.1291
-0.115322
-10.1145
-0.15653
-9.94997
-0.18559
-9.84891
-0.203612
-9.69789
-0.211716
-9.59614
-0.213586
-9.46708
-0.21041
-9.36761
-0.202478
-9.27626
-0.190277
-9.21242
-0.175056
-9.14757
-0.157463
-9.11008
-0.135868
-9.06094
-0.111385
-9.04321
-0.0833221
-8.95405
-0.0531472
-8.67885
-0.0239364
-7.63295
-0.00440339
-5.39216
-2.14507
-0.0648349
-10.3854
-0.143092
-10.0508
-0.200425
-10.0572
-0.238045
-9.91234
-0.261604
-9.82535
-0.274136
-9.68536
-0.27669
-9.59359
-0.27275
-9.47102
-0.264064
-9.3763
-0.251155
-9.28917
-0.233971
-9.2296
-0.213725
-9.16781
-0.19134
-9.13247
-0.165037
-9.08724
-0.135403
-9.07284
-0.102118
-8.98734
-0.0663895
-8.71457
-0.0312982
-7.66804
-0.00708664
-5.41637
-2.15216
-0.140884
-10.2811
-0.211542
-9.98016
-0.263765
-10.005
-0.299355
-9.87675
-0.320688
-9.80402
-0.330668
-9.67538
-0.329783
-9.59447
-0.322357
-9.47845
-0.310031
-9.38862
-0.293233
-9.30596
-0.272156
-9.25068
-0.248021
-9.19195
-0.221626
-9.15886
-0.191369
-9.1175
-0.157945
-9.10626
-0.120686
-9.0246
-0.0793593
-8.7559
-0.0383838
-7.70901
-0.00979993
-5.44495
-2.16196
-0.215158
-10.1748
-0.292644
-9.90268
-0.345568
-9.95203
-0.377847
-9.84448
-0.394111
-9.78775
-0.398967
-9.67052
-0.392901
-9.60054
-0.380138
-9.49121
-0.362595
-9.40616
-0.340804
-9.32776
-0.314832
-9.27665
-0.285738
-9.22104
-0.254514
-9.19009
-0.219776
-9.15224
-0.181362
-9.14468
-0.139008
-9.06695
-0.0922045
-8.8027
-0.0454487
-7.75577
-0.0125786
-5.47782
-2.17454
-0.285617
-10.0683
-0.357128
-9.83117
-0.40666
-9.9025
-0.437052
-9.81408
-0.451636
-9.77317
-0.454053
-9.6681
-0.444753
-9.60984
-0.428445
-9.50752
-0.40726
-9.42735
-0.381845
-9.35317
-0.352159
-9.30633
-0.3193
-9.2539
-0.284046
-9.22534
-0.24637
-9.18992
-0.204501
-9.18655
-0.157176
-9.11428
-0.105004
-8.85488
-0.0524239
-7.80835
-0.0152946
-5.51495
-2.18983
-0.356989
-9.96139
-0.435201
-9.75296
-0.484994
-9.8527
-0.511893
-9.78718
-0.521706
-9.76336
-0.519576
-9.67023
-0.505503
-9.62391
-0.484339
-9.52868
-0.458262
-9.45343
-0.427925
-9.38351
-0.393544
-9.34071
-0.355958
-9.29149
-0.316079
-9.26522
-0.273376
-9.23262
-0.226851
-9.23307
-0.175051
-9.16608
-0.1176
-8.91233
-0.0594624
-7.86649
-0.0178347
-5.55658
-2.20767
-0.426028
-9.84996
-0.497068
-9.68191
-0.543071
-9.8067
-0.569131
-9.76112
-0.577398
-9.75509
-0.572894
-9.67474
-0.555797
-9.64101
-0.531128
-9.55335
-0.501447
-9.48311
-0.467708
-9.41725
-0.429791
-9.37863
-0.388589
-9.33269
-0.344878
-9.30893
-0.29856
-9.27894
-0.248595
-9.28304
-0.192595
-9.22208
-0.129982
-8.97494
-0.065971
-7.9305
-0.01932
-5.60323
-2.22699
-0.498019
-9.7279
-0.5744
-9.60553
-0.618687
-9.76241
-0.640266
-9.73955
-0.643651
-9.7517
-0.63517
-9.68322
-0.613762
-9.66242
-0.5847
-9.58242
-0.550454
-9.51735
-0.511941
-9.45576
-0.469568
-9.421
-0.423958
-9.3783
-0.375885
-9.357
-0.32446
-9.33036
-0.270081
-9.33742
-0.210063
-9.28209
-0.142294
-9.04271
-0.0725531
-8.00024
-0.0201771
-5.65561
-2.24716
-0.556913
-9.60541
-0.631156
-9.53129
-0.674864
-9.71871
-0.695829
-9.71858
-0.697312
-9.75022
-0.686317
-9.69421
-0.662152
-9.68658
-0.629712
-9.61486
-0.591961
-9.5551
-0.550226
-9.4975
-0.504427
-9.4668
-0.455329
-9.4274
-0.403826
-9.40851
-0.349493
-9.3847
-0.291835
-9.39507
-0.227519
-9.34641
-0.154477
-9.11575
-0.0790501
-8.07567
-0.0205705
-5.71408
-2.26773
-0.62858
-9.47352
-0.703887
-9.45598
-0.745381
-9.67721
-0.762456
-9.70151
-0.759489
-9.75319
-0.744978
-9.70873
-0.71698
-9.71458
-0.680571
-9.65127
-0.63858
-9.59709
-0.592285
-9.54379
-0.542266
-9.51682
-0.488958
-9.48071
-0.433241
-9.46422
-0.374699
-9.44324
-0.312881
-9.45689
-0.244656
-9.41463
-0.166666
-9.19374
-0.0855063
-8.15683
-0.0212189
-5.77837
-2.28895
-0.68205
-9.34211
-0.756208
-9.38183
-0.798069
-9.63535
-0.815793
-9.68378
-0.810828
-9.75815
-0.793589
-9.72596
-0.763137
-9.74503
-0.723551
-9.69085
-0.678212
-9.64243
-0.628839
-9.59316
-0.575495
-9.57017
-0.518813
-9.53739
-0.459667
-9.52337
-0.398107
-9.5048
-0.333429
-9.52157
-0.261684
-9.48638
-0.178751
-9.27668
-0.0920648
-8.24351
-0.021997
-5.84844
-2.31095
-0.752578
-9.20259
-0.825621
-9.30878
-0.863548
-9.59742
-0.877105
-9.67023
-0.868526
-9.76673
-0.848164
-9.74633
-0.814387
-9.77881
-0.771279
-9.73396
-0.722075
-9.69164
-0.668437
-9.6468
-0.611165
-9.62744
-0.550496
-9.59806
-0.487349
-9.58651
-0.421952
-9.57019
-0.353757
-9.58976
-0.278603
-9.56153
-0.190852
-9.36443
-0.0984686
-8.3359
-0.0227207
-5.92419
-2.33367
-0.805574
-9.05876
-0.876883
-9.23747
-0.913771
-9.56053
-0.928083
-9.65591
-0.917261
-9.77755
-0.893867
-9.76972
-0.857896
-9.81478
-0.811885
-9.77997
-0.759537
-9.74398
-0.702969
-9.70337
-0.642515
-9.68789
-0.578648
-9.66193
-0.512295
-9.65287
-0.443957
-9.63853
-0.373181
-9.66054
-0.295177
-9.63954
-0.202978
-9.45662
-0.104693
-8.43418
-0.0234587
-6.00542
-2.35713
-0.868164
-8.91513
-0.943516
-9.16212
-0.976818
-9.52723
-0.986737
-9.64599
-0.97243
-9.79186
-0.945656
-9.79649
-0.906166
-9.85427
-0.856808
-9.82933
-0.800786
-9.80001
-0.74021
-9.76395
-0.676063
-9.75204
-0.608452
-9.72954
-0.538322
-9.723
-0.466187
-9.71067
-0.392183
-9.73454
-0.311224
-9.7205
-0.214551
-9.5533
-0.111764
-8.53697
-0.0245943
-6.09259
-2.38172
-0.91069
-8.75846
-0.986801
-9.08601
-1.01913
-9.4949
-1.02924
-9.63589
-1.01485
-9.80625
-0.986059
-9.82528
-0.945785
-9.89454
-0.894024
-9.88109
-0.835758
-9.85827
-0.772242
-9.82746
-0.705278
-9.819
-0.634632
-9.80018
-0.562093
-9.79554
-0.487176
-9.78559
-0.410769
-9.81095
-0.326929
-9.80434
-0.225724
-9.6545
-0.118299
-8.64439
-0.0253765
-6.18551
-2.4071
7.51478
-8.07532
-8.19792
6.7059
-8.27713
5.85702
-8.64602
5.05868
-8.83755
4.31761
-9.06518
3.67716
-9.18483
3.09435
-9.31174
2.57953
-9.36627
2.14556
-9.42431
1.77433
-9.45623
1.45962
-9.5043
1.19507
-9.53564
0.96312
-9.56358
0.764508
-9.58697
0.57417
-9.62061
0.401596
-9.63176
0.308914
-9.56182
0.20976
-8.54524
0.0994964
-6.07525
-2.3076
4.26695
-7.81899
-4.52328
3.9762
-7.98638
3.63718
-8.307
3.28762
-8.48799
2.91914
-8.6967
2.57209
-8.83778
2.23398
-8.97364
1.93818
-9.07047
1.67329
-9.15941
1.4448
-9.22773
1.23453
-9.29403
1.04011
-9.34121
0.858836
-9.38231
0.694927
-9.42306
0.537901
-9.46359
0.397375
-9.49124
0.246301
-9.41075
0.117202
-8.41614
-0.0490934
-5.90895
-2.3567
2.95998
-7.80349
-2.97548
2.9358
-7.9622
2.81016
-8.18135
2.66307
-8.3409
2.47018
-8.50381
2.26518
-8.63278
2.04492
-8.75338
1.83072
-8.85627
1.61896
-8.94765
1.4158
-9.02457
1.21217
-9.0904
1.0169
-9.14595
0.833303
-9.19871
0.659459
-9.24922
0.496894
-9.30102
0.344309
-9.33865
0.206801
-9.27324
0.118652
-8.32799
0.0240379
-5.81434
-2.33266
1.82431
-7.88001
-1.74779
1.8579
-7.9958
1.82194
-8.14539
1.76479
-8.28375
1.67499
-8.41401
1.56947
-8.52725
1.4429
-8.62681
1.30576
-8.71914
1.16351
-8.8054
1.01979
-8.88084
0.878343
-8.94896
0.747891
-9.0155
0.626344
-9.07716
0.513057
-9.13593
0.400142
-9.18811
0.290026
-9.22854
0.187042
-9.17025
0.128017
-8.26897
0.0725404
-5.75886
-2.26012
1.2562
-7.95519
-1.18102
1.31161
-8.0512
1.333
-8.16678
1.3204
-8.27116
1.27682
-8.37042
1.21521
-8.46565
1.13918
-8.55077
1.0491
-8.62906
0.949014
-8.70531
0.845355
-8.77718
0.737799
-8.8414
0.627727
-8.90542
0.514787
-8.96423
0.403451
-9.0246
0.293356
-9.07801
0.194361
-9.12954
0.107341
-9.08323
0.078953
-8.24058
0.0605414
-5.74045
-2.19958
0.841238
-8.04404
-0.752387
0.910513
-8.12048
0.935534
-8.1918
0.935524
-8.27115
0.910649
-8.34555
0.865101
-8.4201
0.809269
-8.49494
0.74296
-8.56276
0.66656
-8.62891
0.585753
-8.69638
0.504291
-8.75994
0.420123
-8.82126
0.336549
-8.88065
0.252689
-8.94074
0.168752
-8.99408
0.0894004
-9.05019
0.0129088
-9.00674
0.0185204
-8.24619
0.0557872
-5.77772
-2.14379
0.58067
-8.09665
-0.528062
0.611579
-8.15139
0.634831
-8.21506
0.638723
-8.27504
0.629025
-8.33585
0.603186
-8.39426
0.563861
-8.45561
0.516992
-8.51589
0.461242
-8.57316
0.398228
-8.63336
0.331103
-8.69282
0.261562
-8.75171
0.190017
-8.80911
0.118208
-8.86893
0.0473773
-8.92324
-0.0250813
-8.97773
-0.0909388
-8.94088
-0.067634
-8.2695
0.0268739
-5.87223
-2.11692
0.456324
-8.13818
-0.414793
0.485187
-8.18025
0.493748
-8.22362
0.487782
-8.26907
0.469063
-8.31713
0.439934
-8.36513
0.400746
-8.41643
0.351707
-8.46685
0.301484
-8.52294
0.241186
-8.57306
0.177862
-8.62949
0.110042
-8.68389
0.0416925
-8.74076
-0.0280754
-8.79916
-0.0894746
-8.86185
-0.146901
-8.9203
-0.198035
-8.88975
-0.145847
-8.32168
0.00078497
-6.01886
-2.11613
0.329947
-8.15267
-0.315456
0.334253
-8.18456
0.332508
-8.22187
0.320251
-8.25682
0.297469
-8.29435
0.267848
-8.33551
0.231738
-8.38032
0.18845
-8.42356
0.141184
-8.47567
0.0890835
-8.52096
0.0329705
-8.57338
-0.0297905
-8.62113
-0.0927362
-8.67781
-0.160259
-8.73164
-0.229157
-8.79295
-0.292057
-8.8574
-0.332155
-8.84965
-0.266756
-8.38708
-0.0536413
-6.23197
-2.16977
0.279392
-8.15704
-0.275026
0.276505
-8.18167
0.264275
-8.20964
0.242087
-8.23463
0.215931
-8.26819
0.183359
-8.30294
0.143327
-8.34028
0.0965163
-8.37675
0.0364676
-8.41562
-0.0269626
-8.45753
-0.0957661
-8.50458
-0.16786
-8.54904
-0.242038
-8.60363
-0.316372
-8.6573
-0.38922
-8.7201
-0.463734
-8.78289
-0.513738
-8.79965
-0.455061
-8.44576
-0.164068
-6.52297
-2.33384
0.210787
-8.14785
-0.219977
0.196148
-8.16703
0.172928
-8.18642
0.148261
-8.20996
0.118825
-8.23876
0.0792336
-8.26335
0.0346089
-8.29566
-0.0179741
-8.32417
-0.0747754
-8.35882
-0.141943
-8.39037
-0.215501
-8.43102
-0.294405
-8.47014
-0.382989
-8.51505
-0.475677
-8.56461
-0.575187
-8.62059
-0.677458
-8.68062
-0.75996
-8.71715
-0.720073
-8.48565
-0.344967
-6.89807
-2.67881
0.176378
-8.13325
-0.190979
0.155913
-8.14656
0.132175
-8.16268
0.099868
-8.17765
0.0582031
-8.19709
0.0108251
-8.21597
-0.0468606
-8.23797
-0.108212
-8.26282
-0.173379
-8.29365
-0.24414
-8.3196
-0.324209
-8.35095
-0.415259
-8.37909
-0.514248
-8.41606
-0.627297
-8.45157
-0.748168
-8.49972
-0.887904
-8.54088
-1.00958
-8.59547
-1.02772
-8.46751
-0.649229
-7.27656
-3.32804
0.117484
-8.11172
-0.13901
0.0895878
-8.11867
0.0582873
-8.13138
0.0228612
-8.14223
-0.0158742
-8.15836
-0.0589929
-8.17285
-0.106756
-8.19021
-0.165637
-8.20394
-0.237348
-8.22194
-0.316558
-8.24039
-0.406088
-8.26142
-0.503669
-8.28151
-0.615735
-8.30399
-0.739726
-8.32757
-0.886128
-8.35332
-1.05631
-8.3707
-1.24516
-8.40661
-1.35226
-8.36042
-1.05868
-7.57013
-4.38672
0.0583754
-8.09199
-0.0781111
0.0366035
-8.0969
0.0103148
-8.10509
-0.0215841
-8.11033
-0.0589742
-8.12097
-0.102182
-8.12965
-0.150628
-8.14176
-0.204276
-8.15029
-0.263659
-8.16256
-0.332389
-8.17167
-0.40953
-8.18428
-0.494936
-8.1961
-0.59477
-8.20416
-0.712281
-8.21006
-0.854816
-8.21078
-1.00855
-8.21697
-1.21007
-8.2051
-1.37861
-8.19187
-1.15413
-7.79462
-5.54085
-0.00942682
-8.06948
-0.013083
-0.0333492
-8.07297
-0.0591302
-8.07931
-0.0866808
-8.08278
-0.117796
-8.08985
-0.153292
-8.09415
-0.196037
-8.09902
-0.241618
-8.1047
-0.290739
-8.11344
-0.3454
-8.117
-0.406758
-8.12292
-0.478297
-8.12456
-0.552705
-8.12975
-0.641291
-8.12148
-0.736636
-8.11544
-0.84629
-8.10732
-0.974269
-8.07712
-1.10754
-8.0586
-0.971712
-7.93045
-6.51256
-0.0362525
-8.05075
0.0175221
-0.0558775
-8.05335
-0.077236
-8.05795
-0.100283
-8.05973
-0.125886
-8.06425
-0.154575
-8.06546
-0.184892
-8.0687
-0.220057
-8.06954
-0.260361
-8.07313
-0.304858
-8.07251
-0.352682
-8.0751
-0.40449
-8.07275
-0.459886
-8.07436
-0.515356
-8.06601
-0.573615
-8.05718
-0.638013
-8.04292
-0.685643
-8.02949
-0.744547
-7.99969
-0.706926
-7.96807
-7.21949
-0.0582626
-8.03702
0.044538
-0.0738567
-8.03776
-0.0914258
-8.04038
-0.109714
-8.04144
-0.129902
-8.04406
-0.150333
-8.04503
-0.172611
-8.04642
-0.195707
-8.04644
-0.221441
-8.0474
-0.247557
-8.04639
-0.274369
-8.04828
-0.30167
-8.04545
-0.330254
-8.04577
-0.356913
-8.03935
-0.376202
-8.03789
-0.394208