/*--------------------------------*- C++ -*----------------------------------*\
  =========                 |
  \\      /  F ield         | OpenFOAM: The Open Source CFD Toolbox
   \\    /   O peration     | Website:  https://openfoam.org
    \\  /    A nd           | Version:  9
     \\/     M anipulation  |
\*---------------------------------------------------------------------------*/
FoamFile
{
    format      ascii;
    class       volVectorField;
    location    "4.5";
    object      U;
}
// * * * * * * * * * * * * * * * * * * * * * * * * * * * * * * * * * * * * * //

dimensions      [0 1 -1 0 0 0 0];

internalField   nonuniform List<vector> 
46400
(
(8.70026 -8.48592 -1.62715e-19)
(17.6879 -16.9944 1.16374e-19)
(19.0306 -19.1872 -5.18003e-20)
(18.3606 -19.2791 -4.98179e-20)
(17.7334 -19.2965 -3.95857e-20)
(17.0761 -19.3443 7.25969e-20)
(16.5095 -19.4092 -6.47041e-20)
(15.9259 -19.4403 3.77255e-20)
(15.3934 -19.4845 -4.32722e-20)
(14.885 -19.5214 4.81406e-20)
(14.4061 -19.585 -5.23442e-20)
(13.9545 -19.6176 0)
(13.5221 -19.6852 3.64539e-19)
(13.1292 -19.7325 -4.17106e-19)
(12.7342 -19.7888 -5.33729e-19)
(12.3741 -19.817 -9.29238e-20)
(12.0022 -19.8474 -2.52619e-20)
(11.6668 -19.8256 4.28975e-19)
(11.3606 -19.7782 6.01431e-19)
(10.9175 -19.9186 -5.51276e-19)
(8.97549 -8.00602 0)
(17.7814 -15.8979 -2.65781e-20)
(18.9629 -17.7285 0)
(18.2533 -17.8823 9.92277e-20)
(17.6326 -17.9421 -9.18625e-20)
(16.9642 -18.0293 2.39425e-20)
(16.3737 -18.0762 0)
(15.8186 -18.1893 -3.77263e-20)
(15.2961 -18.2772 4.32731e-20)
(14.7978 -18.3575 -4.81417e-20)
(14.3262 -18.4508 5.60671e-19)
(13.8855 -18.5351 3.25299e-20)
(13.4574 -18.6243 -4.64973e-19)
(13.0692 -18.722 0)
(12.6927 -18.8247 6.44001e-20)
(12.3333 -18.9081 6.65306e-20)
(11.9843 -18.999 0)
(11.636 -19.0129 -6.31223e-19)
(11.3386 -19.03 -1.64486e-19)
(10.9458 -19.235 6.41754e-19)
(9.18989 -7.51893 3.52039e-20)
(17.7436 -14.7726 -1.34399e-19)
(18.6564 -16.2865 1.21797e-19)
(17.8886 -16.4568 1.97075e-19)
(17.3015 -16.5981 -1.93477e-19)
(16.6651 -16.7532 0)
(16.0985 -16.8806 -6.14237e-19)
(15.517 -16.9663 5.29765e-19)
(15.0068 -17.1199 -6.8559e-19)
(14.514 -17.2244 6.78399e-19)
(14.0415 -17.3577 6.47632e-19)
(13.6057 -17.4562 -6.25299e-20)
(13.1768 -17.5762 -5.62585e-19)
(12.789 -17.6691 0)
(12.4068 -17.7881 6.98208e-19)
(12.062 -17.881 -6.8761e-19)
(11.7333 -18.0265 0)
(11.4334 -18.1071 -1.22349e-20)
(11.1237 -18.1407 8.22785e-20)
(10.7281 -18.3772 -7.44647e-19)
(9.31382 -7.01371 -1.41609e-19)
(17.5909 -13.6207 3.50788e-20)
(18.2917 -14.8649 2.66965e-19)
(17.6077 -15.1205 -2.63524e-19)
(17.0059 -15.2742 -2.30673e-19)
(16.3741 -15.4525 3.13004e-19)
(15.8063 -15.6274 4.29145e-19)
(15.2584 -15.7797 -1.08222e-18)
(14.7289 -15.9293 9.06544e-19)
(14.2539 -16.0917 -8.56224e-20)
(13.791 -16.2548 0)
(13.3704 -16.4152 8.98355e-20)
(12.9562 -16.5701 -9.13337e-20)
(12.58 -16.7266 0)
(12.2154 -16.8811 8.11902e-19)
(11.8555 -17.006 -6.9216e-19)
(11.5247 -17.1625 0)
(11.2318 -17.3174 9.45171e-20)
(10.9542 -17.4206 1.05642e-19)
(10.539 -17.6643 8.43072e-19)
(9.39861 -6.49843 0)
(17.2813 -12.3628 0)
(17.8422 -13.5328 -3.68552e-19)
(17.066 -13.7568 2.57006e-19)
(16.4929 -14.0007 -4.99049e-19)
(15.8738 -14.2125 4.03668e-19)
(15.3245 -14.4302 0)
(14.7877 -14.6254 4.45429e-19)
(14.2791 -14.8218 -5.3978e-19)
(13.8047 -14.9895 -1.21547e-19)
(13.3464 -15.1828 -1.22077e-19)
(12.9309 -15.3489 0)
(12.5192 -15.529 9.23851e-19)
(12.1411 -15.6763 -9.09392e-19)
(11.786 -15.8637 0)
(11.4449 -16.0025 -1.02376e-18)
(11.1038 -16.1696 9.02656e-19)
(10.8161 -16.321 9.05483e-19)
(10.5638 -16.5072 -9.93573e-19)
(10.2091 -16.8177 0)
(9.49583 -5.98231 0)
(16.8503 -11.0879 0)
(17.2247 -12.1074 0)
(16.5579 -12.4494 -2.38946e-20)
(15.9893 -12.7268 0)
(15.3996 -13.0005 0)
(14.8442 -13.2574 0)
(14.3272 -13.4871 -1.3832e-19)
(13.8292 -13.7437 0)
(13.3696 -13.9483 1.21544e-19)
(12.9216 -14.1807 -1.62761e-20)
(12.5256 -14.3979 -1.18612e-18)
(12.1389 -14.6298 8.94866e-19)
(11.7739 -14.8266 -1.1727e-18)
(11.4279 -15.0371 8.86301e-19)
(11.0939 -15.2121 0)
(10.7623 -15.3891 -1.01002e-18)
(10.4452 -15.533 8.64767e-19)
(10.1684 -15.6733 0)
(9.82864 -16.0195 -1.34347e-19)
(9.62151 -5.44578 4.98585e-19)
(16.3123 -9.8576 1.44912e-19)
(16.5918 -10.8047 5.66014e-19)
(15.8326 -11.118 -5.81951e-19)
(15.2793 -11.4816 -5.88113e-19)
(14.7152 -11.7924 1.1705e-18)
(14.1862 -12.1123 -1.33449e-18)
(13.6894 -12.3755 1.27775e-19)
(13.206 -12.655 4.29224e-19)
(12.7769 -12.9083 0)
(12.3276 -13.1335 -1.55689e-20)
(11.9282 -13.354 -1.4762e-20)
(11.5508 -13.5892 1.36875e-19)
(11.2002 -13.8072 1.13002e-18)
(10.8805 -14.0543 -9.91111e-19)
(10.5765 -14.2683 -1.26212e-18)
(10.2714 -14.4846 1.10007e-18)
(9.99622 -14.6776 -1.1035e-20)
(9.71523 -14.812 -1.39423e-19)
(9.3835 -15.1305 -9.9263e-19)
(9.81688 -4.92794 -1.6255e-19)
(15.6263 -8.68206 2.58093e-20)
(15.7012 -9.48645 -1.75117e-19)
(15.0538 -9.91334 -6.92745e-19)
(14.5134 -10.3108 4.81633e-19)
(14.0007 -10.6806 0)
(13.4981 -11.0524 1.00242e-18)
(13.0335 -11.3645 -4.84507e-19)
(12.5743 -11.69 3.28598e-19)
(12.173 -11.9939 1.70677e-19)
(11.7759 -12.298 -3.25415e-19)
(11.3914 -12.5474 7.9002e-19)
(11.0312 -12.8213 1.64162e-19)
(10.6715 -13.0342 -9.35927e-19)
(10.3479 -13.2873 2.61587e-18)
(10.0562 -13.5269 -1.06493e-18)
(9.75727 -13.7578 1.3463e-18)
(9.49176 -13.9772 -8.81436e-19)
(9.23667 -14.1615 2.88695e-19)
(8.91738 -14.4528 1.371e-18)
(9.97239 -4.50469 8.33706e-19)
(14.8058 -7.54157 -1.72524e-19)
(14.7107 -8.29871 -2.24765e-20)
(14.128 -8.72513 3.73864e-19)
(13.6043 -9.21126 1.76638e-19)
(13.1241 -9.58351 1.94593e-19)
(12.6524 -10.0076 -9.15319e-19)
(12.2299 -10.3483 5.53092e-19)
(11.7777 -10.6841 -1.72537e-19)
(11.3916 -10.9896 -1.70686e-19)
(11.0145 -11.3178 -1.68671e-19)
(10.6546 -11.582 -1.79492e-19)
(10.3357 -11.8982 -3.40685e-19)
(10.0197 -12.1477 1.17983e-18)
(9.69811 -12.3994 -1.65062e-18)
(9.43179 -12.6551 -1.67365e-19)
(9.15886 -12.9142 1.00633e-20)
(8.91583 -13.1554 -1.24187e-18)
(8.68668 -13.3806 9.25428e-19)
(8.42059 -13.7164 -1.44826e-18)
(10.0072 -4.14223 7.57307e-19)
(13.8529 -6.48708 -1.88025e-18)
(13.6185 -7.22897 1.24374e-18)
(13.1142 -7.68709 -1.97355e-19)
(12.6529 -8.22445 -2.14075e-19)
(12.2235 -8.64991 8.32927e-19)
(11.7938 -9.10625 -1.0103e-18)
(11.4243 -9.51104 0)
(11.0329 -9.90927 7.8179e-19)
(10.6605 -10.2415 -7.68743e-19)
(10.33 -10.6239 -5.60814e-19)
(9.97733 -10.9132 7.31662e-19)
(9.65504 -11.2334 1.76512e-19)
(9.37371 -11.5335 -7.15534e-19)
(9.06334 -11.7891 1.72935e-19)
(8.78622 -12.0384 8.58749e-19)
(8.51478 -12.2758 -1.51478e-18)
(8.27273 -12.5152 9.98987e-19)
(8.03687 -12.7175 -8.53181e-21)
(7.78449 -13.0401 -1.36556e-18)
(9.80569 -3.71296 1.05158e-18)
(12.7821 -5.55508 -6.88684e-19)
(12.4584 -6.25481 4.60074e-19)
(12.0287 -6.72215 6.09449e-21)
(11.5799 -7.26172 -9.03631e-19)
(11.2047 -7.71141 -8.63323e-19)
(10.7894 -8.17085 1.07159e-18)
(10.4427 -8.57446 -6.30733e-19)
(10.0908 -8.99374 8.35228e-19)
(9.73276 -9.31798 0)
(9.4285 -9.70091 1.14459e-20)
(9.13981 -10.0397 1.91566e-19)
(8.83885 -10.3683 1.98272e-19)
(8.60587 -10.7212 -1.94153e-19)
(8.35664 -11.0499 0)
(8.12813 -11.3613 1.86083e-19)
(7.87921 -11.6486 0)
(7.65915 -11.915 3.48494e-19)
(7.44262 -12.1606 1.70288e-18)
(7.19563 -12.4626 -1.13556e-20)
(9.38271 -3.24239 5.75683e-19)
(11.6392 -4.69078 -1.18257e-19)
(11.3212 -5.40943 -1.72158e-18)
(10.9488 -5.90973 9.63801e-19)
(10.5385 -6.48738 2.30181e-19)
(10.2045 -6.97018 -2.26573e-19)
(9.857 -7.49474 -9.17889e-19)
(9.54742 -7.95009 6.83174e-19)
(9.26958 -8.44274 0)
(8.95489 -8.82718 0)
(8.63758 -9.18954 -1.05253e-18)
(8.35736 -9.5327 8.32303e-19)
(8.03858 -9.81758 -1.98308e-19)
(7.77015 -10.1155 -5.98383e-19)
(7.52196 -10.4102 5.04782e-21)
(7.30243 -10.7055 1.33564e-18)
(7.10011 -11.0045 -7.46914e-19)
(6.89457 -11.2691 5.47212e-19)
(6.72893 -11.5399 -8.89443e-19)
(6.52724 -11.8423 0)
(8.75557 -2.74587 -4.96183e-19)
(10.4435 -3.91553 7.84139e-19)
(10.0453 -4.61433 1.33234e-19)
(9.7257 -5.13301 1.30882e-19)
(9.33406 -5.70137 0)
(9.01504 -6.17039 9.84609e-19)
(8.66079 -6.64821 -9.67303e-19)
(8.34813 -7.07458 1.20772e-19)
(8.10405 -7.56647 0)
(7.9001 -8.03889 9.04684e-19)
(7.67428 -8.48976 -7.76853e-19)
(7.48785 -8.92709 8.64681e-19)
(7.26522 -9.31737 -8.50984e-19)
(7.03563 -9.65857 8.25662e-19)
(6.81251 -9.98971 -7.10018e-19)
(6.59216 -10.2865 -7.87991e-19)
(6.39943 -10.5955 1.54595e-18)
(6.21054 -10.8796 -6.62507e-19)
(6.03384 -11.1436 9.36689e-20)
(5.86721 -11.478 7.73991e-19)
(7.92968 -2.24355 -3.94161e-19)
(9.16182 -3.22156 4.16461e-19)
(8.82057 -3.9583 -1.33232e-19)
(8.58434 -4.53153 -1.30873e-19)
(8.27633 -5.16359 0)
(8.05514 -5.71491 0)
(7.7916 -6.26645 0)
(7.47449 -6.6874 -2.46097e-19)
(7.16776 -7.11969 -9.60888e-19)
(6.90051 -7.51874 1.88366e-18)
(6.63819 -7.91857 -1.03636e-18)
(6.43688 -8.31808 -1.14064e-19)
(6.25243 -8.73047 0)
(6.06386 -9.10113 0)
(5.88671 -9.46402 -2.09019e-19)
(5.70443 -9.79946 0)
(5.52471 -10.112 7.94165e-19)
(5.36604 -10.4285 -9.76973e-19)
(5.20291 -10.6957 -8.50141e-19)
(5.03884 -11.0352 8.05859e-19)
(6.97259 -1.76674 4.07761e-19)
(7.86665 -2.60309 7.2178e-19)
(7.43225 -3.3225 -5.15653e-23)
(7.19817 -3.87449 -1.03157e-21)
(6.87627 -4.45029 1.36676e-19)
(6.62583 -4.97709 -3.98995e-19)
(6.46272 -5.57066 0)
(6.284 -6.09773 -3.82683e-19)
(6.10445 -6.58809 1.2934e-19)
(5.94625 -7.06239 4.87785e-19)
(5.74579 -7.4842 4.72606e-19)
(5.54518 -7.87824 -3.50891e-19)
(5.37378 -8.27063 8.99896e-19)
(5.22047 -8.66014 -7.74364e-19)
(5.05356 -9.0174 9.62632e-19)
(4.9157 -9.38129 -1.78518e-18)
(4.75556 -9.70636 8.23142e-19)
(4.61577 -10.0322 9.86422e-20)
(4.48183 -10.3203 7.76002e-19)
(4.33681 -10.6571 -8.26892e-19)
(5.85096 -1.32953 1.41768e-19)
(6.43894 -2.11241 -1.46671e-19)
(6.16738 -2.84344 5.8545e-19)
(6.11213 -3.53294 -5.74621e-19)
(5.88461 -4.16645 -2.80017e-19)
(5.61994 -4.68874 -6.82044e-19)
(5.39121 -5.20831 3.325e-21)
(5.21214 -5.71897 5.24674e-19)
(5.00109 -6.1946 -1.26018e-19)
(4.81638 -6.66554 0)
(4.68017 -7.11784 0)
(4.5182 -7.55042 0)
(4.34764 -7.92638 0)
(4.20943 -8.32037 2.13128e-21)
(4.07446 -8.67397 0)
(3.94719 -9.03159 1.06027e-19)
(3.83082 -9.36658 4.15689e-19)
(3.71066 -9.6926 -1.22062e-18)
(3.60363 -9.98655 8.99396e-19)
(3.49242 -10.3274 -8.33246e-19)
(4.69008 -1.03862 0)
(5.08193 -1.81219 -7.68848e-20)
(4.6543 -2.3857 0)
(4.4587 -2.9928 2.18445e-19)
(4.40433 -3.63437 -1.45177e-19)
(4.28516 -4.2336 -5.57707e-19)
(4.17017 -4.7869 3.59479e-21)
(4.02587 -5.33801 5.34907e-19)
(3.9024 -5.83914 -5.17858e-19)
(3.77808 -6.32458 1.01413e-18)
(3.63981 -6.76781 -4.41996e-21)
(3.55504 -7.22548 -4.84237e-19)
(3.45417 -7.63829 4.67595e-19)
(3.33528 -8.03856 -5.73835e-19)
(3.23258 -8.41266 0)
(3.12405 -8.77355 -4.33022e-19)
(3.0211 -9.11457 4.2655e-19)
(2.92164 -9.44182 0)
(2.82768 -9.7375 -1.00173e-19)
(2.72678 -10.0679 0)
(2.92652 -0.60547 7.88077e-20)
(3.73824 -1.50186 7.68924e-20)
(3.6277 -2.25002 0)
(3.45732 -2.86737 2.96036e-19)
(3.27878 -3.44937 -3.64466e-19)
(3.11019 -4.03522 2.1161e-19)
(2.95522 -4.56439 -6.23096e-19)
(2.83579 -5.09414 2.71042e-19)
(2.74778 -5.59384 -6.60136e-20)
(2.64499 -6.0832 0)
(2.55755 -6.54243 -6.26922e-20)
(2.43997 -6.97558 -6.10816e-20)
(2.36144 -7.40345 -5.95159e-20)
(2.28144 -7.80427 0)
(2.21485 -8.19275 -4.48529e-19)
(2.14371 -8.56019 9.33851e-19)
(2.09065 -8.91683 -8.02849e-19)
(2.0195 -9.25281 4.19691e-19)
(1.97053 -9.56193 5.10061e-20)
(1.90004 -9.89675 4.26573e-19)
(1.90951 -0.360914 -1.19305e-19)
(1.99568 -1.12854 -1.00715e-19)
(1.88626 -1.83467 5.47666e-22)
(1.91227 -2.54711 4.11895e-19)
(1.89788 -3.23343 -1.10484e-19)
(1.82769 -3.82051 -7.11753e-20)
(1.81088 -4.41924 7.05063e-20)
(1.69509 -4.9214 1.36417e-19)
(1.63306 -5.45045 6.60144e-20)
(1.55342 -5.91426 -2.56906e-19)
(1.51173 -6.39262 2.8394e-19)
(1.46267 -6.82182 6.1084e-20)
(1.41963 -7.24725 2.97013e-19)
(1.36424 -7.6413 -2.41959e-21)
(1.31619 -8.0302 2.59213e-20)
(1.26341 -8.39395 -4.96624e-19)
(1.21638 -8.75124 1.35774e-19)
(1.17158 -9.09144 0)
(1.13132 -9.40129 -2.54619e-20)
(1.09068 -9.74558 -2.14151e-19)
(0.422483 -0.453926 0)
(0.822216 -0.921847 -7.84396e-20)
(0.657259 -1.79367 1.53636e-19)
(0.558631 -2.23491 -3.78845e-20)
(0.557657 -3.04941 -3.68748e-20)
(0.524729 -3.53398 0)
(0.516654 -4.22951 -6.94692e-20)
(0.485309 -4.73474 1.35969e-19)
(0.470202 -5.31332 -6.65491e-20)
(0.431768 -5.79275 6.42426e-20)
(0.410778 -6.28923 -3.17492e-20)
(0.371014 -6.73539 -6.09376e-20)
(0.358552 -7.17611 1.19318e-19)
(0.325633 -7.58657 -1.16225e-19)
(0.315203 -7.9788 2.85994e-20)
(0.291083 -8.35273 1.95367e-34)
(0.283623 -8.70639 -2.65605e-20)
(0.264184 -9.04844 1.56832e-19)
(0.25821 -9.35468 -7.74501e-20)
(0.23437 -9.69319 -5.41633e-20)
(0.429521 0.860168 5.47462e-20)
(0.903769 -4.15461 2.66302e-20)
(3.42161 -16.3451 0)
(5.69267 -27.1235 2.55359e-20)
(6.67594 -32.1793 2.47217e-20)
(6.91784 -33.6235 2.35045e-20)
(6.92422 -33.8154 0)
(6.87423 -33.7574 2.01706e-20)
(6.76393 -33.5224 0)
(6.67232 -33.3681 0)
(6.58588 -33.2169 -1.82528e-20)
(6.49483 -33.0852 1.15977e-21)
(6.39074 -32.9728 3.46042e-20)
(6.30192 -32.7783 0)
(6.16337 -32.6249 1.52616e-20)
(6.09187 -32.4692 1.44958e-20)
(5.92798 -32.3097 1.37861e-20)
(5.87409 -32.0797 0)
(5.67997 -31.8549 -2.48769e-20)
(5.60984 -31.5233 2.37259e-20)
(0.252762 -0.342453 8.38127e-20)
(1.37545 -7.08004 -1.34991e-19)
(4.5299 -20.7072 0)
(6.45943 -29.637 -1.27834e-19)
(7.20833 -33.029 1.24287e-19)
(7.36244 -33.7373 -2.0607e-19)
(7.34192 -33.7476 8.4968e-20)
(7.27488 -33.5797 6.08648e-20)
(7.17375 -33.3676 -2.87055e-19)
(7.08938 -33.1731 1.59302e-19)
(6.98834 -33.0205 -1.86746e-20)
(6.89806 -32.8489 1.38702e-19)
(6.78366 -32.6731 -4.84909e-21)
(6.69713 -32.5298 -1.29558e-19)
(6.56082 -32.3559 -1.52615e-20)
(6.49635 -32.1574 -1.44959e-20)
(6.32832 -32.0286 -1.37862e-20)
(6.28133 -31.7864 0)
(6.06965 -31.5335 -9.62119e-20)
(6.01412 -31.2006 3.36759e-21)
(0.185081 -1.48162 -5.9459e-20)
(2.20269 -10.5416 0)
(5.46369 -23.6849 0)
(7.29433 -31.2584 -5.44102e-20)
(7.79317 -33.5029 5.07188e-20)
(7.87285 -33.7454 0)
(7.83941 -33.6392 -4.41699e-20)
(7.73504 -33.3542 1.26056e-19)
(7.65114 -33.1116 -1.26845e-19)
(7.55084 -32.9342 1.52956e-19)
(7.46753 -32.7439 -1.87164e-19)
(7.36347 -32.5965 0)
(7.26768 -32.4521 -1.29394e-19)
(7.16182 -32.2437 -1.17431e-19)
(7.03205 -32.0801 2.11796e-19)
(6.94257 -31.9067 -2.19034e-19)
(6.77632 -31.7163 1.89675e-19)
(6.70185 -31.442 0)
(6.48303 -31.1804 -2.08895e-19)
(6.41874 -30.8647 3.51024e-19)
(0.301771 -2.68661 3.01826e-19)
(3.05623 -13.4947 0)
(6.4796 -26.3849 1.18011e-19)
(8.09535 -32.4351 1.59257e-19)
(8.39955 -33.6787 -3.2123e-19)
(8.42391 -33.6867 9.66219e-20)
(8.34916 -33.451 4.48762e-20)
(8.2502 -33.1653 4.74465e-19)
(8.154 -32.9501 -6.60162e-19)
(8.06547 -32.7315 -6.40192e-20)
(7.95468 -32.5607 3.3587e-19)
(7.85413 -32.3555 6.83901e-20)
(7.72715 -32.1567 -3.18596e-19)
(7.61814 -31.9743 3.1075e-19)
(7.47087 -31.7639 8.61161e-20)
(7.38085 -31.5525 -5.35281e-20)
(7.20123 -31.3888 7.6475e-20)
(7.13371 -31.106 0)
(6.89403 -30.8337 -2.14712e-20)
(6.84899 -30.5201 0)
(0.507278 -3.78649 0)
(4.15421 -16.1782 4.93626e-19)
(7.55663 -28.2027 -6.07568e-19)
(8.96612 -33.0112 5.61095e-19)
(9.13009 -33.7002 -4.32228e-19)
(9.10368 -33.5735 -9.64188e-20)
(8.97799 -33.2238 0)
(8.86716 -32.9349 2.55592e-19)
(8.7499 -32.6651 -3.37502e-19)
(8.61764 -32.4444 3.78833e-19)
(8.50366 -32.2136 -2.96458e-19)
(8.36788 -32.0416 -6.83866e-20)
(8.24772 -31.8477 3.13077e-19)
(8.10977 -31.6256 -5.38864e-19)
(7.97046 -31.4541 3.37033e-19)
(7.85296 -31.2603 -1.10642e-19)
(7.67685 -31.0488 -2.43924e-19)
(7.57446 -30.7551 5.54336e-19)
(7.33265 -30.4824 -3.13712e-19)
(7.26905 -30.176 -3.57937e-19)
(0.866116 -4.87819 5.28339e-19)
(5.36055 -18.2887 5.10656e-19)
(8.68908 -29.6392 -5.06537e-19)
(9.86383 -33.3277 -1.17454e-19)
(9.88745 -33.5611 1.06039e-19)
(9.7803 -33.2877 3.85852e-19)
(9.61888 -32.9432 -3.86842e-19)
(9.48058 -32.637 0)
(9.33566 -32.375 3.1848e-19)
(9.20413 -32.1342 -3.13155e-19)
(9.06286 -31.9417 -2.77563e-19)
(8.92892 -31.7119 2.73054e-19)
(8.77671 -31.5105 0)
(8.63462 -31.3019 0)
(8.46591 -31.0742 4.79135e-19)
(8.33979 -30.8618 -4.69168e-19)
(8.14106 -30.6731 -3.71155e-19)
(8.03663 -30.3665 3.65618e-19)
(7.76714 -30.0921 -3.25701e-19)
(7.71465 -29.7811 3.96462e-19)
(1.45777 -6.18849 -3.68371e-19)
(6.65696 -19.9165 7.94355e-20)
(9.85267 -30.448 2.78079e-20)
(10.7497 -33.2553 5.92961e-19)
(10.708 -33.2824 0)
(10.5383 -32.9547 0)
(10.3446 -32.5919 7.26744e-19)
(10.1731 -32.2816 -4.00541e-20)
(10.0003 -32.0067 -6.62677e-19)
(9.82139 -31.762 5.81604e-19)
(9.65591 -31.5201 -5.72027e-19)
(9.47734 -31.3319 0)
(9.31237 -31.0998 4.68162e-19)
(9.13173 -30.8758 -4.60808e-19)
(8.96454 -30.6963 0)
(8.80926 -30.4833 0)
(8.61155 -30.2659 0)
(8.47664 -29.9756 0)
(8.20567 -29.7019 0)
(8.13607 -29.3953 -3.7856e-20)
(2.25612 -7.1608 0)
(7.41542 -21.1597 -5.76979e-19)
(11.0242 -31.0086 0)
(11.6401 -33.0702 0)
(11.4998 -32.9169 9.33864e-19)
(11.2657 -32.4905 4.74187e-20)
(11.0493 -32.1632 -8.50748e-19)
(10.838 -31.8411 0)
(10.6275 -31.5484 7.70875e-20)
(10.4329 -31.3 -7.11664e-20)
(10.2439 -31.0864 0)
(10.0588 -30.8558 6.07519e-20)
(9.86866 -30.6645 -5.04359e-19)
(9.68253 -30.4412 9.087e-19)
(9.48389 -30.2263 -2.37382e-20)
(9.3164 -30.0351 -3.7955e-19)
(9.09309 -29.8378 -4.12541e-20)
(8.94315 -29.5297 3.80936e-20)
(8.64643 -29.2696 0)
(8.57409 -28.9553 3.28248e-20)
(2.58645 -8.01871 1.16994e-19)
(8.78227 -22.0464 1.83034e-19)
(12.0917 -31.0836 -7.85958e-19)
(12.5746 -32.6077 2.2677e-19)
(12.3339 -32.3586 1.0113e-19)
(12.0686 -31.9923 8.46581e-19)
(11.7913 -31.635 -1.16674e-18)
(11.5464 -31.3196 8.41498e-19)
(11.3037 -31.0555 -6.63405e-19)
(11.0682 -30.8079 7.83468e-19)
(10.8453 -30.5842 1.24833e-19)
(10.6187 -30.3857 5.13208e-19)
(10.4014 -30.1488 -2.89982e-19)
(10.1745 -29.9395 -5.40177e-19)
(9.96805 -29.7469 4.74495e-19)
(9.76627 -29.5425 0)
(9.54383 -29.3432 1.173e-19)
(9.36773 -29.0658 3.18004e-20)
(9.05995 -28.8016 -6.47109e-20)
(8.97934 -28.4949 2.68692e-20)
(3.31162 -8.68122 -5.21902e-19)
(9.6573 -22.8589 5.33722e-19)
(13.2254 -31.0381 -6.85843e-21)
(13.4146 -32.0988 -4.47643e-19)
(13.1242 -31.7703 -4.08256e-19)
(12.8114 -31.3532 -1.91478e-19)
(12.5015 -31.0333 -8.17623e-21)
(12.2144 -30.717 -1.60946e-19)
(11.9312 -30.421 0)
(11.6632 -30.1837 -1.35772e-19)
(11.4145 -29.9637 -1.24827e-19)
(11.1691 -29.7633 -8.09198e-21)
(10.93 -29.5861 3.86322e-19)
(10.6926 -29.3683 -2.0152e-19)
(10.455 -29.187 -4.21975e-19)
(10.2425 -29.0231 3.27337e-19)
(9.9983 -28.8401 2.04297e-19)
(9.80228 -28.5701 -3.46064e-19)
(9.47408 -28.3366 6.4712e-20)
(9.38085 -28.0128 3.80907e-19)
(3.77967 -9.16996 -1.2803e-18)
(10.941 -23.01 1.28864e-18)
(14.1676 -30.5664 -1.38897e-18)
(14.3512 -31.3281 1.11991e-18)
(13.9138 -30.9906 9.54706e-19)
(13.5755 -30.6432 -7.43268e-19)
(13.202 -30.3093 -9.50247e-19)
(12.8736 -30.0177 4.49809e-20)
(12.5593 -29.7712 5.60716e-19)
(12.2594 -29.5405 -3.56338e-19)
(11.9787 -29.347 8.98476e-19)
(11.6991 -29.1475 -5.31968e-19)
(11.4287 -28.9481 -9.76447e-20)
(11.1566 -28.7624 2.38439e-19)
(10.8992 -28.5651 -6.21558e-19)
(10.651 -28.3996 2.94277e-19)
(10.3965 -28.2414 0)
(10.1736 -28.0049 -4.52601e-19)
(9.82716 -27.7788 4.46047e-19)
(9.7132 -27.4676 -3.3635e-19)
(4.497 -9.59957 2.48451e-19)
(11.9441 -23.3184 2.79482e-19)
(15.166 -30.0299 1.16802e-18)
(15.088 -30.5109 9.81993e-19)
(14.658 -30.1645 -5.93051e-19)
(14.2602 -29.807 8.02638e-19)
(13.8646 -29.5245 -4.74287e-19)
(13.4968 -29.2406 5.2647e-19)
(13.1418 -28.9783 -9.94264e-19)
(12.8023 -28.769 3.51117e-19)
(12.4915 -28.5748 0)
(12.1873 -28.4161 0)
(11.8956 -28.2475 0)
(11.6062 -28.0723 -5.78225e-19)
(11.3274 -27.9189 5.69299e-19)
(11.0659 -27.7639 0)
(10.7973 -27.6227 0)
(10.5558 -27.4103 -4.48694e-20)
(10.1963 -27.2093 0)
(10.066 -26.8784 -3.56243e-19)
(5.01255 -9.80488 -4.73208e-19)
(12.977 -23.0304 -1.16126e-18)
(15.9476 -29.1921 -8.04636e-19)
(15.9014 -29.5282 -1.29157e-19)
(15.3323 -29.2184 1.02607e-18)
(14.9183 -28.9076 -2.14389e-19)
(14.4605 -28.6202 -4.91227e-20)
(14.0532 -28.3767 -6.34427e-19)
(13.6726 -28.1543 0)
(13.3067 -27.9591 -2.8932e-19)
(12.9706 -27.7979 4.59311e-19)
(12.6415 -27.6327 0)
(12.3233 -27.487 5.50088e-19)
(12.0098 -27.328 -5.41455e-19)
(11.7039 -27.1745 4.37689e-19)
(11.4183 -27.0508 -7.74448e-19)
(11.136 -26.9274 3.832e-19)
(10.8754 -26.7568 4.48697e-20)
(10.5103 -26.5657 -3.05937e-20)
(10.3701 -26.2388 2.38133e-19)
(5.65827 -9.9787 -6.19583e-19)
(13.9191 -22.8791 4.7532e-20)
(16.7602 -28.3211 6.94463e-20)
(16.4895 -28.4657 1.38281e-18)
(15.9546 -28.1764 1.02957e-19)
(15.4747 -27.8989 -7.05151e-19)
(15.0168 -27.6707 -4.66827e-19)
(14.5736 -27.4474 1.59443e-19)
(14.161 -27.2455 4.97817e-19)
(13.7609 -27.0747 -5.0002e-19)
(13.396 -26.9296 2.39743e-19)
(13.0425 -26.8092 -5.74608e-19)
(12.7048 -26.6709 4.52873e-19)
(12.3732 -26.5439 -3.97281e-19)
(12.0553 -26.4145 3.51502e-19)
(11.7511 -26.2995 2.56114e-19)
(11.4653 -26.2108 -2.97223e-19)
(11.1947 -26.0837 1.99542e-19)
(10.8357 -25.9522 -1.89419e-19)
(10.6876 -25.6322 -1.78654e-19)
(6.16388 -9.97136 -7.63837e-19)
(14.7336 -22.2653 -1.3004e-19)
(17.3552 -27.1909 7.23262e-19)
(17.1476 -27.3225 -5.81517e-19)
(16.4972 -27.0924 5.71013e-19)
(16.0011 -26.8404 1.2836e-19)
(15.4782 -26.615 0)
(15.0027 -26.431 -8.36778e-20)
(14.5611 -26.2551 2.17616e-19)
(14.1346 -26.1101 -7.58279e-19)
(13.7447 -25.9881 5.26487e-19)
(13.3721 -25.8934 1.06665e-19)
(13.0122 -25.805 5.2917e-20)
(12.6605 -25.6894 0)
(12.3134 -25.5909 1.30054e-20)
(11.9906 -25.4976 2.04308e-19)
(11.6786 -25.4197 -3.49534e-20)
(11.3906 -25.3308 6.02584e-21)
(11.0306 -25.2315 -1.30958e-19)
(10.8665 -24.933 2.09344e-20)
(6.71727 -9.92463 6.74721e-19)
(15.5309 -21.7722 -1.14095e-18)
(17.9627 -26.0978 6.33014e-19)
(17.55 -26.0725 4.97392e-19)
(16.9393 -25.8664 -5.52237e-20)
(16.385 -25.6909 -3.35947e-19)
(15.8815 -25.5293 7.669e-20)
(15.3745 -25.3844 8.36757e-20)
(14.9184 -25.2492 0)
(14.4698 -25.1334 0)
(14.0576 -25.0321 -3.41779e-19)
(13.6627 -24.949 5.43078e-19)
(13.2904 -24.8838 -2.78728e-19)
(12.9267 -24.8077 0)
(12.5693 -24.7241 1.3967e-20)
(12.2305 -24.659 -1.11565e-19)
(11.9195 -24.6192 1.05802e-19)
(11.62 -24.582 -1.25198e-20)
(11.2795 -24.5575 -7.91249e-21)
(11.1029 -24.267 1.29975e-20)
(7.15474 -9.75998 -5.80716e-19)
(16.1633 -20.9017 7.19452e-19)
(18.3398 -24.7569 0)
(17.991 -24.8179 0)
(17.3197 -24.6708 8.14615e-20)
(16.7431 -24.4986 -3.83625e-19)
(16.1788 -24.3495 2.18496e-20)
(15.6506 -24.2395 2.42448e-19)
(15.1604 -24.1357 -3.34031e-19)
(14.6871 -24.0562 5.95393e-19)
(14.2499 -23.9959 -2.62556e-19)
(13.8361 -23.9487 4.42629e-20)
(13.4383 -23.9161 1.13613e-19)
(13.0589 -23.8661 -3.83489e-20)
(12.675 -23.8191 -5.13577e-20)
(12.3125 -23.7552 8.00736e-21)
(11.9665 -23.7142 3.44552e-20)
(11.6426 -23.7066 -3.76599e-20)
(11.3124 -23.7261 1.26481e-20)
(11.1378 -23.5229 -9.48118e-20)
(7.60848 -9.55146 0)
(16.7743 -20.1117 3.03081e-19)
(18.746 -23.4919 -3.4692e-19)
(18.1995 -23.4443 0)
(17.5614 -23.3324 -8.14577e-20)
(16.9519 -23.2664 2.08128e-19)
(16.4108 -23.1703 -2.60796e-19)
(15.8577 -23.1005 0)
(15.3675 -23.0285 1.85121e-19)
(14.8838 -22.9735 -1.82031e-19)
(14.4364 -22.9349 2.62187e-21)
(14.0096 -22.9081 -1.38923e-20)
(13.6098 -22.911 -7.96478e-21)
(13.2222 -22.8992 -2.66557e-21)
(12.8377 -22.8829 9.34175e-20)
(12.47 -22.8717 -2.10984e-19)
(12.1192 -22.855 2.65581e-19)
(11.7714 -22.8767 -3.10769e-19)
(11.4489 -22.9344 1.48925e-19)
(11.2578 -22.7653 -1.96257e-20)
(7.99337 -9.23422 0)
(17.16 -19.0821 -3.23332e-19)
(18.9138 -22.0618 1.81003e-19)
(18.4024 -22.1083 1.66415e-19)
(17.74 -22.0358 -4.67957e-20)
(17.1032 -21.9616 -4.15591e-20)
(16.5238 -21.9118 -1.15862e-19)
(15.9604 -21.8864 0)
(15.4386 -21.8674 0)
(14.9316 -21.8406 0)
(14.4569 -21.8371 -2.62159e-21)
(14.0082 -21.8301 0)
(13.5778 -21.8489 1.83242e-19)
(13.1794 -21.8688 -1.54902e-19)
(12.7642 -21.8749 2.20096e-19)
(12.3747 -21.8589 -4.6271e-19)
(11.988 -21.8674 2.42269e-19)
(11.6099 -21.8994 3.26107e-19)
(11.2785 -21.9907 -5.84507e-19)
(11.097 -21.9235 3.12899e-19)
(8.36386 -8.89285 0)
(17.5144 -18.0665 0)
(19.0984 -20.6634 6.0256e-20)
(18.4449 -20.6843 4.66365e-20)
(17.8058 -20.6624 0)
(17.1556 -20.6867 2.72962e-20)
(16.5798 -20.6453 -2.68175e-20)
(16.0047 -20.6479 0)
(15.494 -20.6588 -1.308e-19)
(14.9956 -20.6813 1.28616e-19)
(14.5232 -20.7006 0)
(14.0752 -20.7262 2.59882e-19)
(13.6453 -20.7659 1.2453e-20)
(13.2398 -20.804 -2.89453e-19)
(12.8372 -20.8521 0)
(12.4366 -20.8546 0)
(12.0254 -20.8641 0)
(11.6015 -20.861 3.81718e-19)
(11.2194 -20.8169 -4.18252e-19)
(10.8956 -20.801 0)
(4.78692 -30.7375 0)
(4.15991 -29.3088 0)
(3.18319 -29.0534 -1.11991e-21)
(2.70573 -28.3992 -8.15247e-22)
(2.05724 -27.9519 0)
(1.67975 -27.3555 9.03585e-23)
(1.29829 -26.9372 1.72547e-22)
(1.02311 -26.4905 0)
(0.792163 -26.144 -2.60384e-22)
(0.591317 -25.8074 0)
(0.442036 -25.5602 4.75613e-22)
(0.34351 -25.3285 2.97906e-22)
(0.242696 -25.1788 -2.99497e-22)
(0.22768 -24.9841 -7.2093e-22)
(0.157974 -24.8932 0)
(0.22187 -24.6178 2.10144e-22)
(0.144191 -23.8345 -1.07437e-21)
(0.23119 -20.9578 0)
(0.066659 -14.8347 0)
(0.133975 -5.97835 -9.18171e-22)
(5.10076 -30.4031 1.00838e-20)
(4.42324 -29.1058 0)
(3.48781 -28.8499 4.84033e-21)
(3.00057 -28.2028 -2.92272e-21)
(2.32318 -27.794 0)
(1.90021 -27.2362 -9.39614e-22)
(1.49729 -26.8445 2.53277e-22)
(1.181 -26.3956 0)
(0.922576 -26.0476 -4.12748e-22)
(0.708893 -25.7448 6.76781e-22)
(0.548545 -25.5169 -1.5492e-21)
(0.432151 -25.2984 2.31136e-21)
(0.317309 -25.1621 -1.92464e-21)
(0.285272 -24.9854 6.64217e-22)
(0.205801 -24.9026 7.50355e-22)
(0.256083 -24.6177 -8.49154e-22)
(0.170715 -23.8361 1.71636e-21)
(0.237438 -20.9526 1.81707e-21)
(0.0734686 -14.8196 1.10863e-21)
(0.114152 -5.95388 1.1419e-21)
(5.4816 -30.0925 -5.44914e-21)
(4.74397 -28.8145 -8.20211e-21)
(3.66313 -28.6522 -3.81925e-21)
(3.11419 -28.05 0)
(2.41869 -27.6483 0)
(1.97786 -27.1149 7.42105e-22)
(1.56991 -26.7387 -7.25328e-22)
(1.24741 -26.3266 -5.56579e-22)
(0.997463 -26.0131 -5.00384e-22)
(0.763673 -25.7058 1.47906e-21)
(0.596369 -25.4816 0)
(0.472006 -25.2691 0)
(0.353945 -25.1367 0)
(0.316215 -24.9607 3.01073e-21)
(0.236853 -24.885 0)
(0.280078 -24.6173 3.41108e-21)
(0.19331 -23.8376 -3.507e-21)
(0.244063 -20.9519 -1.05092e-21)
(0.0788111 -14.8156 -2.13551e-21)
(0.0992654 -5.93481 -3.67141e-21)
(5.79124 -29.7701 1.32739e-20)
(5.01683 -28.59 -2.48504e-20)
(3.98237 -28.4076 1.05011e-21)
(3.39978 -27.8443 6.29219e-21)
(2.68249 -27.4925 0)
(2.19329 -26.9983 2.53931e-22)
(1.76527 -26.653 1.27568e-21)
(1.40645 -26.2428 -2.26048e-21)
(1.12618 -25.9185 2.55762e-21)
(0.876774 -25.6395 -1.98914e-21)
(0.698868 -25.4366 -2.10039e-22)
(0.5566 -25.2366 2.63028e-21)
(0.42475 -25.1161 -2.64305e-21)
(0.366689 -24.9567 -1.46142e-21)
(0.279915 -24.8893 -1.55659e-21)
(0.307644 -24.6125 -2.90098e-21)
(0.217904 -23.8407 4.40265e-21)
(0.251639 -20.9552 -1.61091e-21)
(0.0828529 -14.8116 8.38139e-22)
(0.0870395 -5.91888 3.63668e-21)
(6.18961 -29.4125 3.59057e-20)
(5.30485 -28.2943 5.58266e-21)
(4.13537 -28.213 -6.00435e-21)
(3.50145 -27.6806 7.8763e-21)
(2.77052 -27.3325 0)
(2.26336 -26.8633 -2.35247e-22)
(1.8317 -26.5357 -3.86916e-22)
(1.46408 -26.1566 0)
(1.19277 -25.8743 1.36215e-22)
(0.92775 -25.5957 0)
(0.742621 -25.3956 4.52669e-21)
(0.593052 -25.2016 0)
(0.456228 -25.0851 0)
(0.3941 -24.9312 6.30269e-21)
(0.306654 -24.87 -3.16803e-21)
(0.322748 -24.612 2.81251e-21)
(0.238087 -23.8434 0)
(0.260663 -20.9608 -8.57725e-22)
(0.0862035 -14.8118 8.78667e-22)
(0.0775796 -5.90715 0)
(6.50048 -29.0847 1.2836e-20)
(5.58688 -28.0288 -9.70729e-21)
(4.46066 -27.9298 1.25134e-20)
(3.77956 -27.4668 -1.23273e-20)
(3.03121 -27.1801 1.27798e-21)
(2.47299 -26.7471 2.35985e-22)
(2.0221 -26.4529 1.50151e-21)
(1.62115 -26.0813 2.52197e-21)
(1.32091 -25.7829 -1.58383e-21)
(1.03774 -25.5273 -4.44368e-21)
(0.841291 -25.3489 2.14325e-21)
(0.673642 -25.166 0)
(0.523475 -25.0604 0)
(0.439624 -24.9155 6.36413e-23)
(0.342548 -24.8642 2.92081e-21)
(0.348976 -24.6091 -2.88131e-21)
(0.257235 -23.8505 0)
(0.269966 -20.9725 7.369e-21)
(0.089201 -14.8158 6.95207e-21)
(0.0699341 -5.89829 4.58238e-22)
(6.89452 -28.668 -3.46307e-20)
(5.84614 -27.7382 3.15624e-20)
(4.61091 -27.7395 -5.62063e-21)
(3.87185 -27.2867 0)
(3.11247 -27.0057 -1.28344e-21)
(2.53737 -26.5995 -1.85816e-21)
(2.08343 -26.327 3.58266e-22)
(1.67344 -25.9813 -2.52912e-21)
(1.37929 -25.7281 0)
(1.08519 -25.4771 0)
(0.881582 -25.3014 -5.29606e-21)
(0.707973 -25.1254 5.31504e-21)
(0.554102 -25.0226 0)
(0.461231 -24.8951 -9.48264e-21)
(0.362465 -24.8454 2.81919e-21)
(0.367743 -24.61 3.14438e-21)
(0.269841 -23.8568 -3.38166e-21)
(0.276468 -20.9865 -9.35898e-21)
(0.0864486 -14.8237 -4.60944e-21)
(0.0625205 -5.89329 -9.30087e-22)
(7.21013 -28.3315 0)
(6.13753 -27.4107 -1.31193e-20)
(4.92562 -27.4205 1.31594e-20)
(4.14486 -27.0643 0)
(3.36737 -26.8546 0)
(2.74057 -26.482 2.69264e-21)
(2.26837 -26.2435 -2.70071e-21)
(1.82659 -25.9112 0)
(1.50619 -25.64 -4.27952e-21)
(1.19227 -25.4079 9.22715e-21)
(0.976224 -25.2533 -4.94964e-21)
(0.785573 -25.0873 -5.99264e-21)
(0.619313 -24.9934 6.00956e-21)
(0.51326 -24.8692 0)
(0.403285 -24.8369 0)
(0.387193 -24.6071 3.43797e-21)
(0.283285 -23.8657 -5.12282e-21)
(0.285574 -21.006 -2.2046e-23)
(0.0860522 -14.8357 2.82118e-21)
(0.0517394 -5.89205 -9.39705e-22)
(7.56854 -27.8693 1.80079e-20)
(6.35563 -27.1223 -1.80444e-20)
(5.07708 -27.2247 -9.61035e-21)
(4.23287 -26.8663 8.58196e-21)
(3.44421 -26.6643 -1.31799e-21)
(2.80163 -26.3231 2.45655e-21)
(2.32622 -26.111 -3.54002e-21)
(1.87565 -25.8006 0)
(1.55769 -25.5753 0)
(1.23671 -25.3507 -5.09384e-21)
(1.01359 -25.1995 0)
(0.81849 -25.0419 0)
(0.649213 -24.9521 0)
(0.538331 -24.8484 0)
(0.422047 -24.8178 0)
(0.406913 -24.6016 0)
(0.297427 -23.8754 3.45124e-21)
(0.293822 -21.0278 -3.73963e-21)
(0.0857982 -14.8507 9.42477e-22)
(0.0390668 -5.89534 -9.43388e-22)
(7.8935 -27.5156 -2.6113e-20)
(6.64303 -26.7469 -2.2418e-20)
(5.36627 -26.8827 -1.36457e-21)
(4.49694 -26.6357 2.1805e-21)
(3.69047 -26.5126 2.52781e-21)
(2.99702 -26.2023 -3.88638e-21)
(2.50507 -26.0242 -3.04552e-21)
(2.02391 -25.7325 0)
(1.68224 -25.4897 5.08223e-21)
(1.34073 -25.2815 -1.00096e-20)
(1.10397 -25.1502 -5.79134e-21)
(0.892683 -25.0015 -6.37501e-21)
(0.710466 -24.9195 0)
(0.589014 -24.8151 -7.05305e-21)
(0.441282 -24.802 -6.25068e-21)