/*--------------------------------*- C++ -*----------------------------------*\
  =========                 |
  \\      /  F ield         | OpenFOAM: The Open Source CFD Toolbox
   \\    /   O peration     | Website:  https://openfoam.org
    \\  /    A nd           | Version:  9
     \\/     M anipulation  |
\*---------------------------------------------------------------------------*/
FoamFile
{
    format      ascii;
    class       volScalarField;
    location    "3";
    object      nut;
}
// * * * * * * * * * * * * * * * * * * * * * * * * * * * * * * * * * * * * * //

dimensions      [0 2 -1 0 0 0 0];

internalField   nonuniform List<scalar> 
46400
(
0.0179774
0.00683156
0.00200929
0.00126751
0.00131835
0.0012715
0.00117379
0.00117172
0.00110255
0.00107059
0.00102719
0.000990841
0.000953993
0.000934566
0.000909494
0.000898914
0.000859724
0.000803607
0.00114917
0.000942358
0.0176701
0.00566925
0.00142061
0.00130949
0.0012616
0.00124522
0.00119269
0.00119586
0.00112903
0.00109049
0.00105321
0.00101198
0.000978229
0.000941752
0.000903347
0.000880823
0.00081294
0.000731218
0.000992518
0.000906356
0.0173445
0.00487079
0.00124778
0.00138969
0.00132412
0.00131485
0.001206
0.00120789
0.00114819
0.00111091
0.00106907
0.0010315
0.000994212
0.000964849
0.000935489
0.000916549
0.000854322
0.000797369
0.00109402
0.000936413
0.0169364
0.00391523
0.0011775
0.00140853
0.00127917
0.00128787
0.00122168
0.00121371
0.00116122
0.00111414
0.00108109
0.00104165
0.00100676
0.000972109
0.00093827
0.000922132
0.000876632
0.000807328
0.00111989
0.0010122
0.016431
0.00390304
0.00126372
0.00146448
0.00135639
0.00134735
0.00124747
0.00123782
0.00119069
0.00114949
0.0011051
0.00107154
0.00103659
0.00100191
0.000974215
0.000942528
0.000889325
0.000848191
0.00114155
0.00100987
0.0158296
0.00478972
0.00132331
0.00148047
0.00134103
0.00134315
0.00126626
0.00123782
0.00119877
0.00114781
0.00111491
0.00107319
0.00104837
0.00101763
0.000995262
0.00098553
0.000923278
0.000856822
0.00117341
0.00107929
0.0153068
0.00440322
0.0014245
0.0015376
0.00140921
0.00137916
0.00129371
0.00125421
0.0012145
0.00117383
0.00112706
0.00108816
0.00105059
0.00101755
0.000990305
0.000973422
0.000938222
0.000850474
0.00112056
0.00106183
0.0142599
0.00396558
0.00140402
0.001515
0.00139186
0.0013781
0.00130791
0.00125641
0.00121952
0.00117161
0.00114599
0.00109639
0.00107314
0.00103778
0.00101616
0.00100064
0.000959223
0.000905895
0.00111203
0.00105658
0.0130244
0.003226
0.00146796
0.00154315
0.00142907
0.00137296
0.00132611
0.00125618
0.00121072
0.00116508
0.00113046
0.00108975
0.00104136
0.00100966
0.000978156
0.000966457
0.000937795
0.000893391
0.00110081
0.0010235
0.0104608
0.00253896
0.00146563
0.00145787
0.00142035
0.00136187
0.00132989
0.00128397
0.00122955
0.00116979
0.00115618
0.00112557
0.00109885
0.00104398
0.00100848
0.000966805
0.000928584
0.000885551
0.00106209
0.00104632
0.00856398
0.00216989
0.00151405
0.00145774
0.00140892
0.00134627
0.00131514
0.00127245
0.00123881
0.00114507
0.00109346
0.0010747
0.0010614
0.00105291
0.00102248
0.000996545
0.000932769
0.000879386
0.000991998
0.000952894
0.00681945
0.00184616
0.00149591
0.00144393
0.00140566
0.00132875
0.0013097
0.00128486
0.00129108
0.0012396
0.0011478
0.00107501
0.00104073
0.00101283
0.00101638
0.00100878
0.000994403
0.000953824
0.00107031
0.00101166
0.00578146
0.00170417
0.00150544
0.00143126
0.00143105
0.00133433
0.00126926
0.00121899
0.00122861
0.00123164
0.00120887
0.0011294
0.00105975
0.000996208
0.000944789
0.000927791
0.000893566
0.000875493
0.000987001
0.000971281
0.00484622
0.00161465
0.00151751
0.00145022
0.00142995
0.00136892
0.00132118
0.00122366
0.0011962
0.00119507
0.0012049
0.00120522
0.00116146
0.00111873
0.00105507
0.000999343
0.000939299
0.000874356
0.000930004
0.000884014
0.00437913
0.00158219
0.00149777
0.00141825
0.00145921
0.00136533
0.00132029
0.00124503
0.00114389
0.00110718
0.00108088
0.00108638
0.00109565
0.00108502
0.00108751
0.00105892
0.001038
0.00098377
0.00104745
0.000975284
0.00433237
0.00165777
0.001523
0.00139325
0.00143625
0.00145724
0.00140684
0.00137313
0.00129188
0.00119586
0.0011339
0.00106184
0.00103852
0.00099634
0.000987506
0.00096538
0.00094903
0.000911781
0.000978079
0.000937546
0.0036406
0.0016151
0.00147966
0.00133322
0.0012437
0.00125093
0.00129364
0.00127964
0.00131088
0.00126036
0.00123932
0.00118121
0.00114262
0.00109568
0.00105648
0.00102562
0.00098481
0.000940921
0.000979317
0.000930392
0.00370659
0.00177656
0.0017293
0.00156177
0.00142107
0.00127848
0.00123152
0.0011731
0.00116414
0.00114258
0.0011239
0.00110153
0.00107601
0.00105173
0.0010246
0.00100457
0.000972855
0.000926033
0.000976615
0.00090924
0.00264005
0.00131966
0.00148549
0.0015004
0.00152684
0.00143741
0.00139029
0.00131214
0.00126161
0.0012116
0.00117801
0.00113271
0.00110447
0.00106198
0.00103576
0.00100137
0.000972493
0.000912
0.000953174
0.000897813
0.000707228
0.000641201
0.00130522
0.0012394
0.00138681
0.00128786
0.00132076
0.00124719
0.001242
0.00117389
0.00116589
0.00111325
0.00109994
0.00105577
0.00103715
0.00100256
0.000976955
0.000918579
0.000964832
0.000888943
0.000758917
0.000139377
0.00357327
0.00792542
0.0106562
0.008298
0.00420618
0.00160544
0.00044849
6.52942e-05
0.000115726
0.000221258
0.000269558
0.00015382
0.00012494
0.000200911
0.000223652
0.000193853
0.000156779
0.000238236
3.44007e-23
0.00174242
0.00636815
0.0103556
0.00944406
0.00537153
0.00208679
0.000530335
9.42806e-05
0.000141293
0.00023547
0.000271219
0.000189044
0.000174728
0.000221561
0.000235413
0.000182322
0.000194673
0.000221412
0.000276795
0.000266628
0.00390172
0.00880152
0.0107227
0.00716525
0.00304994
0.000794036
0.000105085
0.000140384
0.000244884
0.000289068
0.000233327
0.000203622
0.000252054
0.000224834
0.000188468
0.000199452
0.000276792
0.000258839
0.000267316
0.000854236
0.00663727
0.0105558
0.00950782
0.00500454
0.00139409
0.00010802
9.8908e-05
0.000260187
0.000323034
0.00027857
0.000251066
0.000250957
0.000236511
0.000211949
0.000248663
0.000278305
0.000292594
0.000236486
0.000291901
0.00237263
0.00862569
0.0112728
0.00775016
0.00277606
0.000396267
0.000138405
0.000266958
0.000347425
0.000322726
0.000280768
0.000273733
0.000243762
0.000282976
0.000266065
0.000285179
0.000273972
0.000284586
0.000277455
0.000327582
0.00252008
0.00994003
0.0109419
0.00585731
0.00122005
0.000160396
0.000257547
0.000365923
0.000381111
0.000328126
0.000324873
0.000301261
0.000322781
0.00031535
0.000268845
0.000321152
0.000318972
0.000349066
0.000315519
0.000350874
0.00502306
0.0111145
0.00982699
0.003583
0.000312494
0.000145194
0.000361997
0.000417411
0.000408559
0.000387775
0.000356721
0.000353631
0.000324756
0.000331378
0.000331399
0.000374393
0.000330842
0.000357139
0.000342907
0.000387021
0.00714861
0.01169
0.00869611
0.00181356
0.000245072
0.000350156
0.000487365
0.000529004
0.000467811
0.000421803
0.00040911
0.000379748
0.000401613
0.000397802
0.000359927
0.000400154
0.000361708
0.000426893
0.000395506
0.000410786
0.00954589
0.0119343
0.00753619
0.000747287
0.00023691
0.000548998
0.000600586
0.000531
0.000515003
0.00049643
0.000463657
0.000461176
0.000433077
0.000414184
0.000419107
0.000458082
0.000397446
0.000457141
0.000416715
0.000438067
0.0120942
0.0117896
0.00549035
0.000400334
0.000444704
0.000614011
0.000646254
0.000650545
0.000596306
0.000540718
0.00051737
0.000481629
0.000492665
0.000487424
0.000463069
0.000481509
0.000434621
0.000520105
0.000463061
0.000463102
0.0139539
0.0117327
0.00386082
0.000223595
0.000641908
0.000768921
0.000744134
0.000676018
0.000633383
0.000611483
0.000575141
0.000571703
0.000543563
0.000512069
0.000516659
0.000537124
0.000483892
0.000549052
0.000484715
0.000504022
0.0153896
0.0113081
0.00242606
0.000248797
0.000759783
0.00078397
0.000764984
0.000767688
0.000716812
0.000661944
0.000631892
0.00059356
0.000593093
0.00058493
0.000566618
0.000562509
0.000533471
0.000597637
0.000500158
0.000528978
0.0160594
0.0110025
0.00163143
0.000422784
0.000879884
0.00088487
0.000882202
0.00080365
0.000751091
0.000725262
0.000683474
0.000677694
0.000648843
0.000614237
0.000614923
0.000620474
0.000584116
0.000621653
0.00050158
0.000554603
0.0167887
0.0105333
0.00106073
0.000563544
0.000999469
0.000886673
0.000898582
0.000885475
0.000829082
0.000780657
0.000743589
0.000703883
0.000694767
0.00068206
0.000661612
0.0006449
0.000632197
0.000663661
0.000514481
0.000585458
0.0174348
0.0101813
0.00112113
0.000769031
0.00108527
0.000991041
0.000992554
0.000921449
0.000862558
0.000834327
0.000787744
0.000777196
0.000745799
0.000712534
0.000707126
0.000697636
0.000680349
0.00068007
0.000507262
0.000611553
0.0177061
0.00972272
0.00182626
0.000888245
0.00113131
0.000997319
0.00101147
0.000995701
0.000930395
0.000890531
0.000847556
0.000807144
0.000793491
0.00077695
0.000748809
0.000726238
0.000738364
0.000729185
0.00052216
0.000650979
0.0181321
0.00940523
0.00223881
0.00105404
0.00119753
0.00110246
0.00108101
0.0010278
0.000963082
0.000934637
0.000885869
0.000867881
0.000833912
0.000806003
0.000791996
0.000770132
0.000776278
0.000746429
0.000512528
0.000674599
0.0181377
0.00908505
0.00222722
0.00106114
0.00122333
0.00108247
0.00109494
0.0010881
0.00101538
0.000984472
0.000940213
0.00090035
0.000885619
0.000866338
0.000830194
0.000809369
0.000837641
0.000806585
0.000543041
0.000728205
0.0182786
0.00862969
0.00215113
0.00115066
0.00128904
0.00119917
0.00113826
0.00111651
0.00104706
0.00101943
0.000973973
0.000947514
0.000914197
0.000895289
0.000872535
0.000849564
0.00086561
0.000853303
0.000561882
0.000705332
0.0181036
0.00774435
0.00192224
0.00117498
0.00125734
0.00117464
0.0011553
0.00115988
0.00108797
0.00105979
0.00102145
0.00098583
0.000972804
0.000954537
0.000924259
0.000935856
0.000939548
0.000938561
0.000739365
0.000798609
0.00219248
0.00176349
0.00177023
0.00158447
0.0016786
0.00149857
0.00144994
0.00136513
0.00132079
0.00125772
0.0011746
0.0011085
0.00101588
0.000955254
0.000879233
0.000857099
0.000955841
0.00399226
0.00995434
0.0226672
0.00222697
0.00185042
0.00181018
0.00151069
0.00168855
0.00159688
0.00159332
0.00143812
0.00132229
0.00123807
0.00115256
0.00108703
0.000987944
0.000923711
0.000838867
0.000789882
0.000931431
0.00411015
0.00997512
0.0223925
0.00232017
0.00191055
0.00193294
0.00164884
0.00174088
0.00147929
0.00142508
0.0013552
0.00130913
0.00124247
0.0011596
0.00109532
0.000999772
0.000942224
0.000861336
0.000839736
0.000964231
0.00411724
0.0100315
0.0222591
0.00236836
0.00197039
0.00196386
0.00160876
0.00173426
0.00155153
0.00155846
0.00143404
0.00131384
0.00122406
0.00113864
0.00107487
0.000974438
0.000913785
0.000823589
0.000772923
0.000936127
0.00421617
0.0100427
0.0219967
0.00248924
0.00200463
0.00204751
0.00174837
0.00177566
0.0014439
0.00141384
0.00136124
0.00129993
0.00122951
0.00114649
0.00108425
0.000986389
0.000931986
0.000845271
0.000825085
0.000970245
0.00421177
0.0101002
0.0218654
0.00263848
0.00207477
0.00209601
0.00172863
0.00174741
0.00151066
0.00154051
0.00143684
0.00130288
0.00121256
0.00112634
0.0010649
0.000963134
0.00090599
0.000810426
0.000759635
0.000938277
0.00428949
0.0101076
0.0216205
0.00278356
0.00207942
0.00214692
0.0018583
0.00177262
0.00142649
0.00142299
0.00137169
0.00128824
0.00121965
0.00113474
0.00107531
0.00097584
0.000924657
0.000832285
0.000813304
0.00097211
0.00427165
0.0101634
0.0214915
0.00304492
0.00217753
0.0022226
0.00184985
0.00173563
0.00150352
0.00153931
0.00143464
0.00128884
0.00120479
0.00111539
0.00105725
0.000954361
0.000900732
0.000800422
0.000750087
0.000937303
0.00432695
0.0101675
0.0212647
0.00328661
0.00221115
0.00225756
0.00193308
0.00175104
0.00144822
0.00143857
0.00137498
0.00127605
0.00121241
0.00112405
0.00106847
0.000968377
0.000920659
0.0008236
0.000804353
0.000969423
0.00429376
0.0102215
0.0211383
0.00357933
0.0023413
0.00237268
0.00192578
0.0017125
0.00153267
0.00154441
0.00142701
0.00127428
0.00119882
0.00110607
0.00105188
0.000948531
0.000898496
0.000795056
0.000744256
0.000932838
0.00432844
0.0102219
0.02093
0.00376564
0.00240433
0.00238635
0.00195617
0.00173389
0.00150337
0.00144759
0.00136751
0.00126358
0.00120585
0.00111478
0.00106354
0.000964163
0.000920177
0.000820844
0.00079801
0.000961337
0.00428495
0.0102745
0.0208066
0.00390625
0.00254365
0.00251703
0.00195008
0.0016933
0.00158554
0.00154564
0.00141614
0.0012624
0.00119356
0.00109854
0.00104852
0.000945993
0.000899867
0.000795791
0.000741271
0.000924404
0.00428346
0.0102753
0.020618
0.00404296
0.00261342
0.00251545
0.00195552
0.00172585
0.00156637
0.00144541
0.0013531
0.001252
0.00119919
0.00110662
0.00106025
0.000963201
0.00092348
0.000824428
0.000793581
0.000951531
0.00424045
0.0103265
0.0204997
0.00423955
0.00271557
0.00262675
0.00195639
0.00168526
0.00164443
0.00153767
0.00140091
0.00125359
0.00118827
0.00109225
0.001047
0.000947065
0.000905297
0.00080251
0.00074114
0.000914654
0.00421292
0.0103279
0.0203333
0.00436633
0.00277829
0.00261233
0.00196418
0.001722
0.00161516
0.0014356
0.00133892
0.00124276
0.00119193
0.00109913
0.00105819
0.000965127
0.000930543
0.000834074
0.000791697
0.000941702
0.00415649
0.0103704
0.020241
0.00461097
0.00284826
0.0026721
0.00196619
0.00168476
0.00168687
0.00151795
0.00138039
0.00124346
0.00118096
0.00108544
0.00104571
0.000950478
0.00091398
0.000814691
0.000743763
0.000907993
0.00410242
0.0103602
0.0200949
0.00481935
0.0029093
0.0026522
0.00199156
0.00172049
0.00164672
0.00143107
0.00133263
0.00123707
0.00118619
0.0010931
0.00105783
0.00096993
0.00094191
0.000849275
0.000792495
0.000932652
0.00405962
0.010411
0.0199841
0.00498706
0.00292886
0.00263053
0.00198598
0.00169799
0.00171968
0.00150628
0.00137133
0.00124071
0.00117957
0.00108377
0.00105014
0.000960735
0.000931331
0.000836114
0.000755543
0.000902352
0.0039851
0.0104322
0.0199775
0.0049199
0.0029896
0.00255953
0.00197717
0.00168586
0.00164363
0.00141918
0.00131173
0.00121279
0.00116393
0.00107662
0.00104919
0.000970163
0.000951269
0.000869587
0.000789139
0.000947956
0.00390195
0.0104296
0.0198356
0.00572123
0.00323096
0.00260268
0.00200242
0.00169131
0.00172891
0.00151097
0.0013811
0.00125548
0.00119039
0.00109401
0.00106089
0.000972431
0.000950186
0.000855134
0.000761201
0.000896924
0.00367486
0.0101435
0.0193006
0.0168457
0.0319805
0.0159959
0.0227787
0.0196117
0.018338
0.0156809
0.0141521
0.0128426
0.0120516
0.0110479
0.0106887
0.0101082
0.0102297
0.00969304
0.00961115
0.0105264
0.0344086
0.097035
0.170168
0.0323814
0.0230568
0.0200826
0.0183671
0.0168816
0.0146583
0.013334
0.0121198
0.0109638
0.00984914
0.00933243
0.00944434
0.00892928
0.00825325
0.00787346
0.00676652
0.010997
0.0396584
0.0959869
0.157255
0.0155882
0.0149092
0.0156693
0.013379
0.0120195
0.0110067
0.0104999
0.00972912
0.00901692
0.00851356
0.008158
0.00784268
0.00744048
0.0073168
0.0071205
0.00678847
0.010912
0.0374366
0.0951435
0.153667
0.0131848
0.0118359
0.0100344
0.00947849
0.00952632
0.00912246
0.00859469
0.00825765
0.00803164
0.00759883
0.00718361
0.00671448
0.00655714
0.00608311
0.00600537
0.00505877
0.00934989
0.0401546
0.0951491
0.142267
0.00660328
0.00717424
0.00848961
0.00832337
0.00735491
0.00692504
0.00670211
0.00635679
0.00596511
0.00586698
0.00581828
0.00580877
0.00558167
0.00547524
0.00535115
0.00451702
0.0100138
0.0381572
0.0949089
0.140039
0.00583665
0.00646425
0.00582242
0.00532163
0.0054147
0.00549876
0.00539882
0.00547203
0.0055572
0.00540024
0.00515806
0.00489818
0.00482495
0.00459795
0.00442625
0.00356595
0.00659867
0.0373825
0.095774
0.134634
0.00331934
0.00368227
0.00420091
0.00478879
0.00468334
0.00449917
0.00442402
0.00429696
0.004067
0.0041674
0.00429227
0.00444464
0.00437677
0.00437864
0.00437265
0.00320165
0.00497019
0.0348293
0.0961408
0.133021
0.00295314
0.00331303
0.00350677
0.00332623
0.0030524
0.00321808
0.0034265
0.00373442
0.00396758
0.00401233
0.0039001
0.0038193
0.00386811
0.00386324
0.00385389
0.00312481
0.00521416
0.0308832
0.0963013
0.132393
0.00165882
0.00205734
0.00227824
0.00259465
0.00286792
0.00304202
0.0030597
0.00307485
0.00301574
0.00325469
0.00343337
0.00382049
0.0038176
0.00404325
0.00405997
0.00304326
0.00190059
0.0264275
0.0967029
0.135481
0.00170045
0.00176096
0.00192622
0.0020077
0.0019711
0.00210826
0.00227022
0.00262242
0.0029187
0.00317996
0.00315787
0.00328377
0.00344314
0.00379693
0.00398025
0.00398033
0.00360664
0.0196334
0.094963
0.141532
0.000787162
0.0012091
0.00131207
0.00157138
0.00175415
0.00205058
0.00224874
0.00239581
0.00235281
0.00262893
0.00291185
0.00340753
0.00351989
0.00400318
0.00417133
0.00443818
0.00297934
0.0139595
0.0913862
0.151863
0.000851526
0.00100552
0.00110131
0.00120808
0.00126137
0.00144115
0.00157028
0.00193967
0.00227699
0.00251249
0.0025775
0.00281
0.00311948
0.00362604
0.0040282
0.00497417
0.00398776
0.00774015
0.0726549
0.164737
0.000590828
0.000724043
0.00087668
0.00107766
0.00119445
0.00139173
0.00151253
0.00165294
0.00176827
0.00210204
0.00241772
0.00277281
0.00290013
0.00332273
0.00354072
0.00433674
0.00493192
0.00573424
0.0582633
0.185527
0.000520349
0.000649582
0.000655024
0.000802606
0.000868147
0.00105085
0.00114153
0.00133016
0.00146416
0.00174244
0.00185002
0.00211548
0.00248745
0.00275187
0.00338958
0.00347183
0.00480154
0.00816281
0.0274744
0.155036
0.00047326
0.000569723
0.000640436
0.000733157
0.000782808
0.00089333
0.00100239
0.0011575
0.00120731
0.00143592
0.00147077
0.00175527
0.00173356
0.00222018
0.00225828
0.0030126
0.00325927
0.00590756
0.0132052
0.105223
0.000301651
0.000432615
0.000473458
0.000538096
0.000591356
0.000664543
0.000753408
0.000864071
0.000934068
0.000967395
0.00116504
0.00140194
0.00156979
0.00177754
0.00199312
0.00237888
0.0026757
0.00301586
0.00293673
0.0570952
0.000335414
0.000381984
0.00039967
0.000458092
0.000485994
0.000563804
0.000554434
0.000622335
0.000653951
0.000803403
0.000804438
0.000887603
0.000898764
0.00112144
0.00113736
0.00127869
0.00117624
0.00228339
0.00338206
0.0295252
0.000245608
0.000269031
0.000302638
0.000336845
0.000387827
0.000414412
0.000509495
0.000573757
0.000611696
0.00067393
0.000730349
0.000790297
0.000808314
0.000909319
0.000866421
0.00100482
0.000952146
0.000807988
0.000631992
0.0164143
0.000196119
0.000220309
0.000242896
0.000272992
0.000297038
0.000341108
0.000356222
0.000305655
0.000391509
0.000411211
0.000427323
0.000495274
0.000540933
0.000598257
0.000639682
0.000603433
0.000545919
0.000781291
0.00100392
0.00519005
0.000107807
0.000132031
0.000137761
0.000174011
0.000196631
0.000240926
0.000327427
0.000373074
0.000414232
0.000395848
0.000478366
0.000520401
0.000558354
0.000562105
0.00061106
0.000573688
0.000656155
0.000557609
0.000447311
0.00446261
0.0138496
0.0138706
0.0138263
0.0137061
0.0137446
0.0135935
0.0134417
0.0139298
0.0129732
0.0132587
0.0125973
0.0121965
0.012455
0.0112502
0.0112308
0.00991087
0.00961446
0.00912614
0.00912644
0.00782572
0.00701429
0.00700561
0.00694555
0.00696454
0.00684334
0.00678666
0.00685822
0.00659822
0.00668991
0.00664794
0.0063364
0.00767069
0.00724765
0.00674821
0.00603883
0.0066251
0.00661005
0.00653335
0.00669296
0.00744352
0.00435581
0.00436072
0.00440382
0.0044335
0.00443957
0.00458947
0.00446273
0.00458912
0.00453206
0.00450015
0.00465138
0.00428248
0.00407031
0.00418031
0.00413993
0.00429431
0.00382484
0.00396061
0.00348008
0.00379044
0.00277467
0.00277173
0.00277014
0.00273927
0.00275007
0.00271675
0.00266855
0.00264424
0.00263804
0.00268396
0.00244771
0.00266912
0.00271095
0.00283201
0.002735
0.00279917
0.0026383
0.00293519
0.00277513
0.00304637
0.00175347
0.00174964
0.00175786
0.00175346
0.00176717
0.00176547
0.00175901
0.00185268
0.00182334
0.0017827
0.00194173
0.00189692
0.00185276
0.00192548
0.00188508
0.00195683
0.00185985
0.00197224
0.00182704
0.00178803
0.00126262
0.00126007
0.00126749
0.00126367
0.00127479
0.00126187
0.00126603
0.0012732
0.00122779
0.00127475
0.00123362
0.00124895
0.00128207
0.00134373
0.00132523
0.00134466
0.00126615
0.00141511
0.00134376
0.00126561
0.000785421
0.000786365
0.000789202
0.000793266
0.000794716
0.00079104
0.000792638
0.000800103
0.000798129
0.000805128
0.000808602
0.000832513
0.000857324
0.000902672
0.000881869
0.000897563
0.000883791
0.000968869
0.000885331
0.000768206
0.000575357
0.000577242
0.000580807
0.00058653
0.000585103
0.000584786
0.000587055
0.000592578
0.000592191
0.000599853
0.000595512
0.000610916
0.000630667
0.000672286
0.000651032
0.000659994
0.000642531
0.000692113
0.000617185
0.000546077
0.000326005
0.000326891
0.000330859
0.000333107
0.000329632
0.000330206
0.000332528
0.000337752
0.000339727
0.000344534
0.000346485
0.000371322
0.000399752
0.000449309
0.00043229
0.000449268
0.000437774
0.000484801
0.000410386
0.000301183
0.000219423
0.000221672
0.000225584
0.000225794
0.00022319
0.000226637
0.000228906
0.000233926
0.000235515
0.000239021
0.000235761
0.000242827
0.000246135
0.000280129
0.000259772
0.000265229
0.000245706
0.000214776
0.000298999
0.000343405
8.24257e-05
8.49177e-05
9.17564e-05
9.3129e-05
9.73088e-05
0.00010427
0.000113437
0.000121945
0.000129682
0.000138134
0.000135587
0.000150667
0.000154918
0.000223334
0.000197782
0.000220884
0.000191777
0.000231251
0.00016586
0.000131273
8.43774e-06
1.76297e-05
1.85781e-05
2.17714e-05
4.44637e-05
5.81072e-05
7.53065e-05
7.83717e-05
8.76117e-05
9.19076e-05
9.24641e-05
9.31245e-05
9.50113e-05
9.46362e-05
0.000117415
0.000136363
0.000162185
0.000151092
0.000195608
0.000248332
1.46018e-05
2.36907e-05
2.96202e-05
2.97819e-05
2.94129e-05
3.73989e-05
4.78239e-05
5.89394e-05
6.25372e-05
6.84561e-05
6.71679e-05
7.16436e-05
6.33242e-05
9.95006e-05
0.000104402
0.00010027
8.45734e-05
9.60281e-05
0.000126592
9.75287e-05
4.46395e-05
4.3864e-05
4.29211e-05
4.39326e-05
5.01099e-05
5.29344e-05
5.46339e-05
5.44378e-05
6.15724e-05
6.56712e-05
7.96121e-05
8.25256e-05
9.38e-05
7.85151e-05
9.88776e-05
0.000103892
0.000106082
9.80386e-05
0.000100951
0.000125246
5.42753e-05
5.79942e-05
6.24234e-05
6.36718e-05
6.07876e-05
6.29441e-05
6.30689e-05
6.53121e-05
6.4452e-05
6.66113e-05
6.54846e-05
6.92225e-05
6.59632e-05
7.40699e-05
7.65411e-05
8.03593e-05
8.56141e-05
9.0846e-05
8.4113e-05
0.000103543
6.47844e-05
6.58523e-05
7.01437e-05
6.60341e-05
6.46756e-05
6.35832e-05
6.56286e-05
6.53997e-05
6.8605e-05
6.7675e-05
7.14978e-05
7.84772e-05
8.31317e-05
7.15256e-05
7.5425e-05
7.51099e-05
7.84086e-05
7.87805e-05
8.28852e-05
8.85241e-05
5.40216e-05
5.37396e-05
5.45215e-05
5.97813e-05
5.434e-05
5.55083e-05
5.42256e-05
5.88963e-05
5.75278e-05
6.01958e-05
5.95598e-05
6.15434e-05
6.47458e-05
6.65301e-05
6.83612e-05
6.93169e-05
7.22975e-05
7.18684e-05
7.63164e-05
7.8593e-05
3.89169e-05
3.84557e-05
4.22017e-05
5.0692e-05
5.13314e-05
4.78018e-05
4.96655e-05
4.8205e-05
4.96487e-05
5.08342e-05
5.17172e-05
4.853e-05
4.75498e-05
4.83543e-05
4.99872e-05
5.04147e-05
5.24337e-05
5.24493e-05
5.5349e-05
5.66694e-05
2.69428e-05
2.7304e-05
2.73018e-05
2.58431e-05
2.21946e-05
2.39856e-05
2.32985e-05
2.59113e-05
2.94021e-05
3.30152e-05
3.27645e-05
3.61276e-05
3.81878e-05
3.94192e-05
3.9951e-05
4.10009e-05
4.2079e-05
4.2609e-05
4.46427e-05
4.50936e-05
7.72584e-06
8.89465e-06
1.00992e-05
1.10633e-05
1.22376e-05
1.33825e-05
1.47043e-05
1.5865e-05
1.71341e-05
1.68085e-05
1.79037e-05
1.91546e-05
2.01899e-05
2.13143e-05
2.14623e-05
2.27108e-05
2.28178e-05
2.41798e-05
2.44816e-05
2.61892e-05
0.00094832
0.00116324
0.000815617
0.000864345
0.000906598
0.000914623
0.000936851
0.000955484
0.000988429
0.00102628
0.00106599
0.00108542
0.0011612
0.00118326
0.00126975
0.00131335
0.0012648
0.00198866
0.00675019
0.0179693
0.000908506
0.000984564
0.00072751
0.000808276
0.00087719
0.000899773
0.000936494
0.000972448
0.00100789
0.0010498
0.00108151
0.00111884
0.00119228
0.00120111
0.00124679
0.00125581
0.00131597
0.00141264
0.00557521
0.0176641
0.000932522
0.00109124
0.000800584
0.000852056
0.000916334
0.000934353
0.000962825
0.000992331
0.00102748
0.00106472
0.00110202
0.00113299
0.00120197
0.00121426
0.00130647
0.00132083
0.00139419
0.0012419
0.00477874
0.0173342
0.00101409
0.00111314
0.000804106
0.000869711
0.00091686
0.000935233
0.000968256
0.00100413
0.00103954
0.00107976
0.00110875
0.00115766
0.00121844
0.00123098
0.00128675
0.00127444
0.00140587
0.00117154
0.00384957
0.0169239
0.00099778
0.00112608
0.00084161
0.000880125
0.000938505
0.000970861
0.000998741
0.00103237
0.00106623
0.00110073
0.00114086
0.00118169
0.00123569
0.00125034
0.00133558
0.00135812
0.00147172
0.00127388
0.00398346
0.0164075
0.00106695
0.00116036
0.000855893
0.000917994
0.000983409
0.000995346
0.001014
0.00104781
0.00107532
0.0011166
0.00114556
0.00119868
0.00124342
0.00127242
0.00134128
0.00134115
0.00147949
0.00132469
0.00479681
0.0158146
0.00104878
0.00111586
0.000853623
0.000934953
0.000973504
0.000986871
0.00101725
0.00105415
0.0010887
0.00112601
0.00116844
0.00121378
0.001255
0.0012956
0.00137054
0.00141378
0.00154123
0.00142182
0.00440376
0.01528
0.00107927
0.00113391
0.000908814
0.00096744
0.00100347
0.00102514
0.0010489
0.00108166
0.001101
0.00114788
0.00117415
0.0012226
0.00125948
0.00131138
0.00137274
0.00139719
0.00151639
0.00140852
0.00390162
0.0141903
0.00103044
0.00109225
0.000892788
0.000936658
0.000972975
0.000988359
0.00101421
0.00104487
0.00108948
0.00113641
0.00116731
0.00121373
0.00125616
0.00132479
0.00137124
0.00143739
0.00153026
0.00145966
0.00317512
0.0129639
0.00105692
0.00108082
0.0009022
0.000950782
0.000989101
0.00102393
0.00105592
0.00110863
0.00113841
0.00116498
0.00117098
0.00122448
0.00127496
0.00132986
0.00135822
0.00141672
0.00145673
0.00147772
0.00250559
0.0103341
0.000990088
0.00100968
0.000891305
0.000940564
0.00099506
0.00101981
0.00104934
0.00106279
0.00107073
0.00108626
0.00112959
0.00122174
0.00126882
0.00131877
0.00134351
0.00141095
0.00144174
0.00149909
0.00214374
0.00845916
0.00101249
0.00105579
0.000946599
0.000989586
0.00101295
0.00102445
0.00102627
0.00104872
0.00107811
0.00114117
0.00122598
0.00129101
0.00129705
0.00131911
0.00133146
0.00140542
0.00143877
0.00151136
0.00184331
0.0068011
0.00100901
0.00100489
0.000900067
0.000919716
0.000947492
0.000957825
0.000994567
0.00104825
0.00110543
0.00118275
0.00121613
0.00123229
0.00122436
0.00126887
0.00132425
0.00141367
0.00141978
0.00150079
0.00167904
0.00573903
0.000903068
0.000908595
0.000862472
0.000913164
0.000968412
0.00101426
0.00108052
0.00112563
0.00118184
0.0012024
0.00121291
0.00122746
0.00124569
0.00133261
0.0013643
0.00143455
0.00146083
0.00153175
0.00160907
0.00491489
0.000970308
0.00101051
0.00096969
0.00102218
0.00105386
0.00108797
0.00110388
0.00112001
0.00112992
0.00112391
0.00115102
0.00116231
0.00123371
0.00128924
0.00132673
0.00144333
0.00140944
0.00150455
0.00156624
0.00443298
0.000958075
0.000980411
0.000933338
0.000966915
0.000984732
0.00100468
0.00101566
0.00104899
0.00106968
0.00112368
0.00117464
0.00124715
0.0013342
0.00138169
0.0014726
0.00148007
0.00144051
0.00153549
0.00162164
0.00432836
0.000955542
0.00097635
0.000952218
0.000986791
0.00102593
0.00105199
0.00109308
0.00113297
0.00117618
0.00122705
0.00125727
0.00130987
0.00131063
0.00133555
0.00131406
0.00127687
0.00133685
0.00143812
0.00155956
0.00359463
0.000932796
0.000973823
0.000942981
0.000980079
0.00101576
0.00103223
0.00106528
0.0010835
0.00111731
0.00113038
0.00116471
0.0011802
0.00121012
0.00123918
0.00128162
0.00137867
0.00152723
0.00168237
0.00179907
0.00361206
0.000919179
0.000957164
0.000927657
0.000977087
0.00100784
0.00103471
0.00106572
0.00109804
0.0011354
0.00116939
0.00121871
0.00125456
0.00131791
0.00136983
0.00146339
0.00152384
0.00161215
0.00156539
0.00151829
0.00218721
0.000914912
0.000956589
0.000928536
0.000977952
0.00100624
0.0010338
0.00106249
0.00109696
0.00113017
0.00117027
0.0012059
0.00125119
0.00128411
0.00132796
0.00136378
0.00140487
0.00143332
0.00146124
0.0016266
0.00207296
0.000231381
0.000178092
0.000211697
0.000210369
0.000190719
0.000114719
0.000117244
0.000246663
0.000186978
0.000108713
5.66362e-05
0.000402055
0.00150377
0.00406223
0.00816374
0.010547
0.00794481
0.0036398
0.000257002
0.000677206
0.000272645
0.000209749
0.000207089
0.000198353
0.000235543
0.000210717
0.000161364
0.000193069
0.000269336
0.000213225
0.000125936
9.83012e-05
0.000508167
0.00197672
0.00524829
0.00929363
0.010265
0.00623132
0.00165995
4.46139e-05
0.000278821
0.000256892
0.000270228
0.000204431
0.000196377
0.000228179
0.000239275
0.000182202
0.000224012
0.000282521
0.000236421
0.00013405
9.74329e-05
0.000749252
0.00296279
0.00708113
0.0106995
0.00884607
0.00394643
0.000364798
0.000300192
0.000248667
0.000302583
0.00028821
0.000259725
0.000218417
0.000244336
0.000251955
0.000240782
0.000253529
0.000304072
0.000254101
0.000110041
0.000103248
0.00133132
0.00484038
0.00936776
0.0105661
0.00672417
0.000863054
0.000337051
0.000277796
0.000277291
0.000281533
0.000299684
0.000273962
0.000278471
0.000239454
0.000281403
0.00028669
0.000303154
0.000325873
0.00027119
0.000144124
0.000368234
0.00269285
0.00761552
0.0111735
0.00865863
0.00189589
0.000366397
0.000338297
0.000359172
0.000317848
0.000327161
0.00028459
0.000326537
0.000315646
0.000285166
0.00031609
0.000322493
0.000360787
0.000359136
0.000269352
0.000163414
0.00115614
0.00575041
0.0108809
0.00996771
0.00267202
0.000392008
0.000354345
0.000361916
0.000338707
0.000386416
0.000340142
0.000337505
0.000334077
0.000363442
0.000357349
0.000375627
0.000386974
0.000418481
0.000380832
0.000183988
0.000295644
0.00356466
0.00967956
0.0111196
0.00524447
0.000421518
0.000417736
0.000440149
0.000359178
0.000405459
0.000377321
0.000411638
0.000397314
0.000372581
0.000415298
0.000427218
0.000445188
0.000505526
0.000490664
0.000366016
0.000249951
0.00169073
0.00861081
0.0116739
0.00731147
0.000433905
0.000424637
0.000466767
0.000405186
0.000463934
0.000423099
0.000420179
0.000441903
0.000461565
0.000454465
0.00048861
0.000502774
0.000523417
0.000612954
0.000560824
0.000262794
0.000709771
0.00743595
0.011929
0.0096354
0.000470977
0.000478214
0.000530403
0.000433277
0.000486108
0.000479204
0.000503225
0.000494962
0.000484348
0.000530548
0.000549848
0.000573452
0.000624569
0.000649885
0.000625107
0.00044223
0.000397262
0.00537564
0.0117529
0.0121951
0.000499724
0.00048848
0.000554602
0.000489398
0.000540271
0.000517613
0.000515755
0.00054859
0.00056601