/*--------------------------------*- C++ -*----------------------------------*\
  =========                 |
  \\      /  F ield         | OpenFOAM: The Open Source CFD Toolbox
   \\    /   O peration     | Website:  https://openfoam.org
    \\  /    A nd           | Version:  9
     \\/     M anipulation  |
\*---------------------------------------------------------------------------*/
FoamFile
{
    format      ascii;
    class       volScalarField;
    location    "3";
    object      p;
}
// * * * * * * * * * * * * * * * * * * * * * * * * * * * * * * * * * * * * * //

dimensions      [0 2 -2 0 0 0 0];

internalField   nonuniform List<scalar> 
46400
(
-40.2648
-34.2064
-22.133
-12.8359
-4.16795
3.7464
10.7584
17.2615
23.0384
28.3608
33.1896
37.6187
41.7091
45.4863
49.0301
52.376
55.4811
58.7155
62.1
63.0823
-17.3781
-11.4319
-0.568619
8.35501
16.31
23.6314
30.1006
36.0202
41.3205
46.1216
50.4663
54.4008
57.97
61.2253
64.1863
66.8889
69.3201
71.7465
73.9801
74.3344
6.62044
12.702
22.3035
30.4373
37.5169
44.1003
49.8557
55.1537
59.8143
64.0567
67.855
71.2815
74.3764
77.1577
79.6802
81.9335
83.8993
85.829
87.3887
86.9566
30.9757
36.012
44.311
51.899
58.3059
64.2489
69.4168
74.0968
78.2389
81.904
85.1801
88.0697
90.6401
92.9163
94.9311
96.7086
98.231
99.7154
100.975
100.327
54.6247
58.7919
66.5343
73.5387
79.3566
84.6583
89.1957
93.2605
96.7721
99.8742
102.581
104.953
107.018
108.804
110.357
111.667
112.745
113.8
114.582
113.611
77.0962
81.5643
88.6432
94.9823
100.086
104.682
108.559
111.967
114.917
117.427
119.615
121.466
123.06
124.398
125.53
126.458
127.179
127.883
128.438
127.307
100.489
105.228
111.325
116.689
120.975
124.755
127.906
130.597
132.867
134.764
136.341
137.641
138.696
139.533
140.194
140.673
140.973
141.276
141.501
140.183
123.226
128.335
133.138
137.594
141.033
144.007
146.449
148.465
150.142
151.46
152.529
153.327
153.932
154.329
154.584
154.674
154.619
154.576
154.449
152.972
146.142
151.292
154.766
158.017
160.599
162.679
164.37
165.648
166.641
167.336
167.801
168.053
168.126
168.04
167.828
167.491
167.028
166.594
166.068
164.397
167.73
171.689
174.485
176.769
178.636
180.034
181.108
181.829
182.294
182.487
182.492
182.291
181.943
181.433
180.819
180.085
179.254
178.449
177.572
175.678
187.697
190.588
192.71
194.215
195.389
196.132
196.592
196.722
196.628
196.286
195.78
195.118
194.341
193.44
192.447
191.349
190.163
189.005
187.778
185.723
204.907
207.217
208.85
209.85
210.535
210.79
210.81
210.523
210.035
209.293
208.387
207.309
206.136
204.856
203.506
202.069
200.553
199.053
197.481
195.173
220.773
222.499
223.615
224.061
224.244
223.993
223.515
222.766
221.867
220.768
219.519
218.113
216.599
214.995
213.34
211.628
209.875
208.162
206.451
204.033
234.535
235.808
236.531
236.599
236.416
235.797
234.959
233.848
232.588
231.161
229.614
227.916
226.122
224.21
222.247
220.211
218.143
216.105
214.058
211.519
246.66
247.438
247.757
247.403
246.858
245.898
244.714
243.263
241.668
239.917
238.093
236.163
234.172
232.096
229.966
227.77
225.517
223.281
221.024
218.274
257.589
257.743
257.608
256.892
255.993
254.742
253.297
251.566
249.687
247.644
245.515
243.307
241.047
238.741
236.407
234.04
231.644
229.285
226.966
224.15
265.347
265.228
264.795
263.8
262.636
261.187
259.605
257.804
255.855
253.735
251.497
249.148
246.735
244.255
241.753
239.211
236.653
234.126
231.661
228.759
272.141
271.906
271.255
270.002
268.5
266.715
264.801
262.703
260.525
258.2
255.825
253.34
250.832
248.252
245.672
243.05
240.421
237.828
235.33
232.343
275.044
274.776
274.15
273.148
271.811
270.124
268.208
266.068
263.795
261.383
258.894
256.321
253.703
251.045
248.37
245.686
242.983
240.344
237.814
234.852
279.948
277.039
276.661
275.177
273.745
271.861
269.885
267.648
265.332
262.857
260.328
257.705
255.055
252.349
249.642
246.907
244.168
241.472
238.89
235.845
-137.542
-137.593
-136.94
-137.007
-136.573
-135.324
-134.014
-132.104
-130.301
-128.771
-127.264
-125.485
-123.708
-122.22
-120.656
-118.919
-117.294
-115.767
-114.249
-112.627
-138.608
-138.236
-138.606
-137.455
-137.103
-135.397
-133.346
-131.117
-129.068
-127.021
-124.898
-122.825
-120.903
-119.015
-117.124
-115.23
-113.449
-111.732
-110.076
-108.332
-139.57
-139.453
-139.848
-138.873
-136.823
-134.831
-132.398
-129.928
-127.557
-125.06
-122.683
-120.338
-118.139
-115.923
-113.802
-111.764
-109.783
-107.776
-105.859
-103.963
-140.053
-140.32
-139.944
-139.778
-136.868
-134.174
-131.337
-128.683
-125.815
-123.059
-120.36
-117.737
-115.236
-112.723
-110.374
-108.04
-105.8
-103.584
-101.524
-99.4307
-141.892
-141.995
-140.796
-139.824
-137.282
-133.993
-130.868
-127.44
-124.266
-121.108
-118.086
-115.129
-112.306
-109.514
-106.919
-104.302
-101.877
-99.5061
-97.2849
-94.9919
-144.452
-144.077
-143.816
-141.021
-137.73
-134.024
-130.004
-126.297
-122.61
-119.079
-115.633
-112.316
-109.137
-106.031
-103.13
-100.216
-97.5607
-94.9135
-92.4881
-90.0066
-149.214
-148.376
-147.537
-143.605
-139.07
-134.479
-129.851
-125.422
-121.12
-117.012
-113.106
-109.356
-105.786
-102.358
-99.1494
-95.9762
-93.1045
-90.2244
-87.6531
-84.9651
-156.803
-155.861
-152.734
-147.263
-141.02
-135.028
-129.477
-124.175
-119.189
-114.495
-110.054
-105.859
-101.891
-98.1231
-94.5913
-91.1494
-88.0623
-84.9245
-82.2128
-79.3811
-163.179
-162.312
-156.467
-149.35
-141.822
-134.766
-128.246
-122.222
-116.568
-111.293
-106.371
-101.74
-97.3927
-93.31
-89.4834
-85.8256
-82.523
-79.1753
-76.3652
-73.3489
-169.094
-167.191
-158.756
-150.017
-141.277
-133.324
-125.877
-119.125
-112.869
-107.064
-101.676
-96.6498
-91.9645
-87.5881
-83.4934
-79.631
-76.1282
-72.6105
-69.694
-66.5281
-169.605
-167.162
-157.889
-147.845
-138.397
-129.712
-121.729
-114.439
-107.723
-101.523
-95.7944
-90.4636
-85.5127
-80.9101
-76.6166
-72.6183
-68.9472
-65.3211
-62.4265
-58.9477
-166.966
-164.776
-154.421
-143.635
-133.697
-124.526
-116.034
-108.338
-101.231
-94.6747
-88.6411
-83.041
-77.8685
-73.0727
-68.6135
-64.4866
-60.6708
-57.0346
-53.9987
-50.486
-162.861
-160.262
-149.631
-137.518
-126.918
-117.327
-108.431
-100.387
-93.0239
-86.2528
-80.0396
-74.293
-68.9886
-64.0815
-59.5322
-55.3348
-51.4393
-47.7577
-44.6337
-41.0531
-156.089
-152.383
-140.771
-128.929
-117.789
-108.074
-98.9919
-90.7998
-83.2921
-76.3791
-70.0564
-64.2069
-58.8358
-53.8747
-49.286
-45.0752
-41.1463
-37.5166
-34.3891
-30.7552
-145.529
-141.282
-129.754
-118.055
-106.817
-96.9268
-87.7541
-79.4435
-71.8908
-64.9534
-58.6205
-52.7897
-47.43
-42.4919
-37.9475
-33.7775
-29.8797
-26.3459
-23.2574
-19.5972
-133.553
-128.625
-116.652
-104.959
-93.6215
-83.7845
-74.6691
-66.4429
-58.9661
-52.0917
-45.8373
-40.0682
-34.7923
-29.9328
-25.4678
-21.3801
-17.5509
-14.1571
-11.1137
-7.41509
-118.086
-113.181
-100.82
-89.2
-78.3704
-68.7678
-59.9241
-51.8612
-44.5853
-37.8904
-31.8009
-26.212
-21.0837
-16.3793
-12.0808
-8.13664
-4.45507
-1.274
1.63889
5.26983
-101.48
-96.0412
-83.5107
-72.4419
-61.6979
-52.4018
-43.8287
-36.0386
-29.0041
-22.5383
-16.6721
-11.2789
-6.35872
-1.84293
2.27312
6.04707
9.54459
12.4913
15.2188
18.6772
-82.3861
-76.7643
-63.8085
-53.4522
-43.434
-34.4991
-26.425
-18.9733
-12.304
-6.15611
-0.574263
4.53916
9.23427
13.5228
17.4357
21.0569
24.3606
27.074
29.6292
33.4407
-62.3135
-56.5205
-43.9612
-33.9349
-24.3948
-15.8975
-8.22194
-1.19496
5.13835
10.9544
16.2523
21.1333
25.6212
29.7809
33.6426
37.2791
40.5876
43.6709
47.0318
50.9164
-105.812
-96.1659
-88.4368
-85.9174
-82.0092
-81.4891
-79.345
-78.5664
-77.1791
-76.0531
-74.9504
-73.5776
-72.5334
-71.0353
-69.905
-68.34
-66.9294
-65.9015
-65.1745
-64.6919
-100.829
-92.1656
-84.0161
-81.8488
-77.8034
-77.3279
-75.2613
-74.7825
-73.6914
-72.797
-71.9297
-70.7679
-69.9545
-68.6472
-67.738
-66.393
-65.1461
-64.1826
-63.623
-63.192
-95.9486
-87.9939
-79.4239
-77.5364
-73.5202
-73.4143
-71.5852
-71.2148
-70.2692
-69.5611
-68.9161
-67.9549
-67.356
-66.2418
-65.5392
-64.3267
-63.2913
-62.542
-62.0152
-61.6119
-90.7671
-83.6559
-74.7793
-73.3689
-69.3263
-69.3091
-67.5976
-67.5035
-66.8626
-66.3788
-65.964
-65.206
-64.8297
-63.9048
-63.4204
-62.4228
-61.5648
-60.8635
-60.5335
-60.1545
-85.5043
-79.1292
-70.0305
-68.9936
-65.0476
-65.401
-63.9694
-63.9953
-63.5152
-63.2124
-63.0151
-62.451
-62.2841
-61.5453
-61.2665
-60.4014
-59.761
-59.2522
-58.9874
-58.6313
-79.7673
-74.4184
-65.2003
-64.7021
-60.8661
-61.3272
-60.0748
-60.3518
-60.1817
-60.0989
-60.1262
-59.7581
-59.8067
-59.2573
-59.1936
-58.539
-58.0957
-57.6126
-57.5735
-57.226
-73.9744
-69.5114
-60.3462
-60.2251
-56.5998
-57.4146
-56.4804
-56.8954
-56.9046
-56.9949
-57.2377
-57.0561
-57.3095
-56.9383
-57.0795
-56.5618
-56.3504
-56.0302
-56.0986
-55.7679
-67.9547
-64.3773
-55.3747
-55.7926
-52.4119
-53.3637
-52.6554
-53.319
-53.6396
-53.9444
-54.4062
-54.414
-54.8764
-54.6924
-55.0483
-54.7381
-54.7475
-54.4292
-54.7584
-54.4209
-61.7006
-59.0443
-50.3176
-51.2598
-48.1541
-49.4428
-49.0954
-49.9062
-50.4256
-50.9006
-51.5732
-51.7624
-52.421
-52.4117
-52.9692
-52.8042
-53.0682
-52.876
-53.3591
-53.0322
-55.0324
-53.557
-45.1738
-46.6855
-43.978
-45.3817
-45.3468
-46.3923
-47.2247
-47.9094
-48.7956
-49.1655
-50.0255
-50.2034
-50.9699
-51.0198
-51.5361
-51.3006
-52.0909
-51.7458
-48.1786
-47.7284
-40.0548
-41.9679
-39.74
-41.4453
-41.8173
-43.024
-44.0691
-44.9266
-46.0154
-46.5616
-47.6098
-47.9571
-48.9183
-49.1296
-49.9092
-49.7803
-50.7633
-50.4271
-40.9271
-41.6141
-34.7705
-37.2425
-35.551
-37.381
-38.1222
-39.5699
-40.9277
-41.9926
-43.2882
-44.0076
-45.2485
-45.7803
-46.9429
-47.3812
-48.3904
-48.3105
-49.5609
-49.2
-33.2941
-35.3066
-29.4664
-32.4013
-31.3111
-33.4333
-34.6167
-36.2439
-37.8251
-39.068
-40.5592
-41.4467
-42.8656
-43.5617
-44.9108
-45.5303
-46.7752
-46.8445
-48.2928
-47.9476
-24.9966
-28.7712
-24.0229
-27.5469
-27.1006
-29.3724
-30.9648
-32.851
-34.7433
-36.1937
-37.8835
-38.9358
-40.537
-41.4107
-42.9512
-43.8143
-45.2667
-45.4376
-47.1745
-46.7782
-16.1274
-22.0484
-18.5575
-22.6097
-22.8693
-25.4354
-27.4933
-29.5839
-31.7075
-33.3408
-35.2178
-36.428
-38.1952
-39.2241
-40.9414
-42.0118
-43.6677
-44.0541
-46.0619
-45.5767
-6.33131
-14.8908
-12.8985
-17.5804
-18.6036
-21.3499
-23.8395
-26.2209
-28.6602
-30.5061
-32.5765
-33.9459
-35.8863
-37.084
-38.9847
-40.3163
-42.1595
-42.6494
-45.054
-44.4987
3.58225
-7.71375
-7.26242
-12.4619
-14.2888
-17.3519
-20.3157
-22.9203
-25.6175
-27.6606
-29.9153
-31.4325
-33.5268
-34.8707
-36.9367
-38.4812
-40.5353
-41.1314
-43.9154
-43.286
13.6853
-0.863401
-1.98083
-7.65816
-10.1934
-13.5178
-16.91
-19.8145
-22.8012
-25.0404
-27.4556
-29.0998
-31.3358
-32.8215
-35.0359
-36.891
-39.0104
-39.7617
-42.9568
-42.0989
28.4232
7.62381
3.79058
-2.78639
-6.09864
-9.76832
-13.6372
-16.8598
-20.0717
-22.5126
-25.0964
-26.8663
-29.2436
-30.8681
-33.2537
-35.5014
-37.6299
-38.7076
-42.4124
-41.527
45.5461
19.2308
11.5486
4.05105
-0.709048
-4.39393
-8.78795
-12.4427
-16.1378
-18.9133
-21.806
-23.8386
-26.4416
-28.2275
-30.8937
-33.2247
-36.2726
-37.2118
-41.6325
-39.8634
69.1125
64.0425
48.5369
40.7818
28.7682
23.1745
16.133
11.7172
6.18959
1.97133
-2.58671
-5.90502
-9.22878
-11.2735
-14.5214
-14.9133
-20.515
-20.9853
-27.0234
-21.2152
104.684
92.127
73.3914
62.408
51.067
42.1229
33.452
26.5226
20.7137
15.9889
11.7308
7.69362
3.8317
0.303176
-2.96569
-6.35459
-8.83578
-11.5721
-12.889
-12.9433
105.583
93.2766
81.8735
72.3722
63.5237
55.7717
48.7327
42.2528
36.2756
31.2176
26.7676
23.1863
19.7799
17.1807
14.6307
12.7619
10.7095
9.14678
8.32529
8.04847
104.49
96.4573
88.3119
79.5194
71.9706
64.5845
58.117
52.2251
47.0262
42.0412
37.4723
33.1438
29.4538
25.82
22.8743
19.966
17.773
15.6568
14.68
14.4002
95.9844
89.1634
83.2374
77.2921
72.1389
66.7914
61.9541
57.2527
52.9368
48.9972
45.3157
42.0614
38.9831
36.3433
33.8887
31.7238
29.9242
28.1304
27.08
26.7796
92.1815
87.8067
84.5271
79.7069
75.3885
70.8146
66.5941
62.4117
58.496
54.7265
51.1746
47.8188
44.6775
41.7651
39.0592
36.6623
34.4224
32.6547
31.3809
30.9962
85.7518
82.5793
79.4711
76.1805
73.1125
70.0319
66.9001
63.9362
60.8994
58.1315
55.2781
52.7251
50.1188
47.7489
45.4395
43.1417
41.1661
38.9888
37.5923
37.4467
84.0142
81.7924
80.1503
77.593
74.7876
72.161
69.5618
66.9159
64.2571
61.6918
59.0531
56.6094
54.0421
51.7144
49.2851
47.0588
44.8323
42.6796
41.279
40.731
80.2734
78.6482
76.8964
75.2234
73.721
71.8527
69.8632
67.9799
65.8782
63.998
61.8211
59.9399
57.6954
55.7799
53.4473
51.3942
48.9756
46.6941
44.8826
44.137
80.0393
78.9265
77.9847
76.6317
75.1124
73.4612
71.8759
70.3199
68.5754
66.9671
65.0323
63.3745
61.3041
59.5495
57.2198
55.2754
52.4835
50.2571
47.5991
46.9131
78.7188
77.7519
76.9133
76.1169
75.2687
74.3674
73.142
72.021
70.6829
69.5224
68.0508
66.819
65.1614
63.7997
61.7932
60.183
57.3873
55.5419
52.2024
51.7198
79.1141
78.7695
78.1907
77.5246
76.6747
75.9248
75.0623
74.3115
73.3786
72.5799
71.5606
70.7156
69.5675
68.6591
67.3092
66.2785
64.2921
63.4877
58.9324
60.3085
79.163
78.8669
78.5337
78.246
77.8408
77.4968
76.9567
76.543
75.9932
75.6123
75.0961
74.7555
74.2977
74.0191
73.5437
73.38
72.6544
72.9114
72.9714
74.9541
80.0007
79.9078
79.6042
79.4532
79.1643
79.0414
78.8018
78.724
78.5331
78.5284
78.4605
78.5269
78.6927
78.8411
79.4548
79.6389
81.0212
81.2383
83.735
85.2424
80.601
80.6087
80.5427
80.5668
80.5003
80.5677
80.5319
80.6937
80.7491
81.0916
81.2375
81.8655
82.2393
83.3592
84.0137
85.7773
87.0385
89.2497
92.2357
93.0436
81.322
81.4059
81.4355
81.5676
81.673
81.884
82.0849
82.4096
82.7412
83.2243
83.7654
84.5439
85.2772
86.3261
87.34
88.8657
90.2322
92.7996
95.177
99.6334
81.9137
82.0513
82.164
82.3654
82.5366
82.8335
83.0645
83.5111
83.8416
84.4639
84.9425
85.7565
86.3732
87.5166
88.3745
89.9397
91.1115
93.1144
93.9675
103.893
82.4754
82.661
82.8551
83.1153
83.3871
83.7307
84.1164
84.5627
85.033
85.6377
86.2005
86.9889
87.6975
88.7041
89.501
90.7633
91.6082
93.427
94.2318
96.5712
82.8165
82.9995
83.2086
83.462
83.7481
84.1024
84.4731
84.9419
85.432
86.0278
86.6352
87.3963
88.0947
89.0427
89.792
90.9656
91.6207
92.7929
93.108
97.8064
82.9894
83.1877
83.4287
83.7073
84.036
84.4048
84.8284
85.3031
85.8252
86.4205
87.0473
87.7729
88.5044
89.368
90.1744
91.191
91.9978
93.2152
93.8352
95.3814
200.76
200.268
199.039
197.472
194.923
192.193
188.4
184.369
179.579
174.253
168.392
161.921
154.98
146.511
139.008
130.059
120.474
111.429
102.346
92.7527
171.532
171.286
170.783
169.992
168.909
167.631
165.925
164.222
161.873
159.715
156.794
154.253
150.175
145.731
141.954
138.567
134.71
130.788
126.446
122.007
134.43
134.369
134.173
133.888
133.488
132.958
132.37
131.606
130.784
129.834
128.746
127.616
126.252
125.001
123.28
121.764
119.826
118.112
115.944
114.301
122.096
122.067
121.951
121.811
121.53
121.282
120.821
120.431
119.83
119.27
118.531
117.826
116.937
116.117
115.095
114.184
113.011
112.042
110.68
109.782
103.88
103.864
103.836
103.739
103.654
103.486
103.335
103.114
102.887
102.643
102.324
102.059
101.693
101.387
100.93
100.574
100.033
99.6421
98.9995
98.6389
98.0346
98.043
98.0121
97.9873
97.9047
97.8453
97.7127
97.6142
97.4379
97.2705
97.0647
96.8347
96.5519
96.2866
95.9358
95.6434
95.214
94.8997
94.3918
94.1091
89.5882
89.5852
89.5751
89.5357
89.4945
89.4239
89.3463
89.2524
89.1301
89.0169
88.8562
88.7141
88.5243
88.3535
88.1296
87.9314
87.6631
87.4465
87.1296
86.9088
86.7057
86.7143
86.7029
86.6918
86.6551
86.6232
86.5624
86.5082
86.4239
86.3465
86.2382
86.1392
86.0044
85.8859
85.7231
85.5846
85.3952
85.2357
85.0095
84.8449
83.1021
83.1029
83.0941
83.0718
83.0396
82.9955
82.9386
82.8759
82.7934
82.7144
82.6066
82.513
82.3817
82.2664
82.1017
81.9543
81.7576
81.5647
81.3128
81.0411
81.6629
81.668
81.6624
81.6516
81.6288
81.6028
81.5647
81.5278
81.4742
81.4285
81.3564
81.3086
81.2158
81.1603
81.0439
80.9558
80.8333
80.714
80.5772
80.431
80.7454
80.7462
80.7374
80.718
80.6916
80.654
80.6118
80.559
80.4996
80.4338
80.3546
80.2818
80.1765
80.1
79.9464
79.815
79.6066
79.4424
79.2383
79.0683
80.2048
80.2099
80.2041
80.196
80.1845
80.1623
80.1326
80.0934
80.053
80.0056
79.959
79.9083
79.8579
79.8074
79.7446
79.673
79.5981
79.5167
79.4202
79.3415
80.2485
80.2595
80.263
80.2575
80.2446
80.2263
80.2016
80.174
80.1419
80.1062
80.0662
80.0215
79.9681
79.9127
79.827
79.7417
79.6406
79.5444
79.4374
79.325
80.5206
80.526
80.5287
80.5289
80.5274
80.522
80.5161
80.5052
80.4944
80.4783
80.4628
80.4414
80.4216
80.3942
80.3689
80.3351
80.2997
80.2586
80.2128
80.1643
80.8075
80.8134
80.817
80.8198
80.8198
80.8195
80.8159
80.8125
80.8056
80.799
80.789
80.779
80.766
80.7528
80.7388
80.7218
80.7073
80.6877
80.6718
80.649
81.3144
81.3198
81.3254
81.3297
81.3348
81.3379
81.3423
81.3443
81.3479
81.3486
81.3513
81.3506
81.352
81.3506
81.3503
81.3476
81.3452
81.3413
81.3378
81.3326
81.6701
81.6772
81.6843
81.6933
81.7014
81.7116
81.7201
81.7312
81.7401
81.752
81.7617
81.7739
81.7852
81.797
81.8092
81.8211
81.8345
81.8464
81.861
81.8729
82.0701
82.0768
82.0852
82.0938
82.104
82.114
82.1265
82.1389
82.1538
82.1687
82.1855
82.2041
82.2248
82.2459
82.2687
82.2919
82.317
82.3423
82.3698
82.3969
82.3256
82.3338
82.3435
82.3551
82.368
82.3841
82.4007
82.4203
82.4405
82.4621
82.4833
82.5053
82.528
82.5519
82.577
82.6038
82.6322
82.6617
82.6936
82.7258
82.4438
82.4524
82.4629
82.4752
82.4896
82.5052
82.5224
82.5408
82.5604
82.5815
82.6051
82.6301
82.6566
82.6845
82.7146
82.7461
82.7794
82.8142
82.8509
82.889
60.227
59.2817
55.9158
52.6731
49.5723
46.2266
42.682
38.9077
34.8261
30.4076
25.5925
20.293
14.545
8.09191
1.10377
-6.77236
-15.3879
-24.661
-36.6674
-42.7324
71.6039
71.2429
69.0226
66.6014
64.1839
61.4982
58.5548
55.3213
51.7714
47.8605
43.5407
38.7633
33.5051
27.6333
21.2014
13.9214
6.02521
-2.86574
-13.6548
-19.609
84.3594
84.8214
83.3055
81.3826
79.4336
77.1945
74.6857
71.9178
68.8393
65.4327
61.6519
57.4423
52.8144
47.5684
41.8377
35.3043
28.2799
20.1863
10.7115
4.6292
97.925
98.5733
97.3327
95.8515
94.3434
92.5846
90.5906
88.3409
85.7969
82.9363
79.6934
76.0586
71.963
67.3234
62.182
56.2775
49.9007
42.3356
34.0949
29.157
111.282
112.279
111.545
110.511
109.465
108.183
106.659
104.899
102.859
100.517
97.8321
94.7684
91.2888
87.2692
82.7553
77.5023
71.7287
64.7715
57.0692
52.8994
125.07
126.251
125.77
125.095
124.409
123.517
122.418
121.114
119.555
117.738
115.587
113.114
110.212
106.847
103.003
98.4642
93.4023
87.105
80.0727
75.5971
138.063
139.46
139.331
139.07
138.813
138.373
137.751
136.948
135.923
134.654
133.1
131.24
129.001
126.349
123.225
119.498
115.256
109.951
103.948
99.1434
151.279
152.82
152.958
153.02
153.097
153.025
152.79
152.409
151.824
151.044
150
148.709
147.066
145.083
142.673
139.762
136.358
131.981
127.264
122.078
162.924
164.605
165.141
165.587
166.067
166.42
166.648
166.749
166.693
166.459
166.01
165.339
164.368
163.116
161.454
159.412
156.863
153.679
150.231
145.156
174.435
176.367
177.258
178.075
178.918
179.659
180.279
180.794
181.147
181.351
181.352
181.168
180.717
180.017
178.963
177.605
175.764
173.534
170.771
166.92
184.738
186.781
187.986
189.127
190.299
191.382
192.367
193.258
194.029
194.688
195.196
195.55
195.661
195.551
195.11
194.389
193.233
191.757
189.658
186.811
194.326
196.606
198.159
199.651
201.165
202.6
203.951
205.23
206.405
207.485
208.403
209.163
209.671
209.973
209.961
209.721
209.042
208.075
206.452
204.174
203.352
205.722
207.418
209.114
210.852
212.542
214.184
215.77
217.277
218.679
219.936
221.043
221.947
222.696
223.169
223.426
223.245
222.812
221.685
219.976
210.835
213.305
215.342
217.373
219.435
221.465
223.439
225.36
227.187
228.911
230.5
231.945
233.226
234.335
235.182
235.81
236
235.951
235.214
233.942
217.636
220.319
222.614
224.876
227.154
229.374
231.536
233.634
235.646
237.581
239.402
241.131
242.704
244.129
245.309
246.264
246.81
247.151
246.798
246.028
223.464
226.242
228.631
231.033
233.463
235.854
238.218
240.536
242.816
245.024
247.163
249.203
251.103
252.852
254.348
255.62
256.538
257.232
257.342
257.19
228.263
231.129
233.651
236.213
238.799
241.358
243.887
246.378
248.817
251.175
253.446
255.579
257.57
259.369
260.962
262.356
263.484
264.392
264.805
264.868
231.904
234.852
237.41
240.041
242.701
245.346
247.959
250.555
253.096
255.592
258.004
260.333
262.547
264.625
266.562
268.284
269.81
270.967
271.667
271.673
234.553
237.508
240.097
242.775
245.498
248.205
250.897
253.572
256.204
258.795
261.299
263.734
266.023
268.2
270.146
271.892
273.276
274.303
274.883
275.002
235.714
238.701
241.32
244.043
246.794
249.545
252.266
254.989
257.654
260.298
262.844
265.34
267.68
269.934
271.949
273.843
275.374
276.779
277.649
278.347
-118.436
-120.018
-121.585
-123.171
-124.801
-126.596
-128.184
-129.761
-131.626
-133.434
-135.153
-136.963
-138.923
-141.002
-142.52
-144.106
-144.49
-144.31
-144.555
-144.352
-114.08
-115.819
-117.502
-119.283
-121.106
-123.047
-125.009
-126.943
-128.955
-131.194
-133.427
-135.5
-137.705
-140.253
-142.596
-144.609
-144.891
-145.834
-145.156
-146.02
-109.752
-111.668
-113.593
-115.637
-117.665
-119.742
-121.906
-124.195
-126.45
-128.844
-131.296
-133.881
-136.325
-138.817
-141.244
-143.148
-144.971
-145.703
-145.535
-145.88
-105.066
-107.194
-109.295
-111.557
-113.833
-116.23
-118.634
-121.212
-123.788
-126.501
-129.255
-132.092
-135.059
-137.828
-140.802
-143.626
-145.858
-145.941
-146.909
-146.551
-100.625
-102.955
-105.204
-107.583
-110.054
-112.721
-115.358
-118.208
-121.082
-124.088
-127.181
-130.415
-133.644
-137.124
-140.337
-143.593
-146.455
-147.859
-148.94
-148.925
-95.4964
-97.9956
-100.447
-103.141
-105.825
-108.792
-111.749
-114.914
-118.159
-121.552
-125.067
-128.675
-132.453
-136.23
-140.343
-144.145
-147.494
-150.425
-150.874
-151.184
-90.3578
-93.0767
-95.6713
-98.5875
-101.494
-104.706
-107.958
-111.44
-115.064
-118.868
-122.843
-127.027
-131.394
-135.901
-140.612
-145.38
-150.094
-154.257
-155.164
-156.007
-84.5864
-87.444
-90.1711
-93.351
-96.4682
-99.9587
-103.54
-107.366
-111.397
-115.664
-120.176
-124.947
-130.016
-135.399
-141.049
-147.154
-153.458
-159.121
-162.417
-163.366
-78.4145
-81.4664
-84.3007
-87.6862
-91.0247
-94.7179
-98.5867
-102.719
-107.117
-111.799
-116.78
-122.12
-127.835
-133.909
-140.497
-147.621
-155.208
-162.559
-168.396
-169.103
-71.3761
-74.5793
-77.517
-81.0601
-84.591
-88.494
-92.6277
-97.0546
-101.795
-106.884
-112.336
-118.213
-124.546
-131.374
-138.897
-146.935
-155.786
-164.768
-172.846
-174.887
-63.6882
-67.1577
-70.0783
-73.7336
-77.4296
-81.46
-85.7896
-90.4348
-95.4319
-100.808
-106.589
-112.846
-119.619
-126.943
-134.972
-143.732
-153.253
-163.408
-172.621
-175.117
-54.943
-58.4615
-61.5115
-65.1814
-69.0193
-73.1818
-77.6739
-82.5109
-87.728
-93.3775
-99.4597
-106.075
-113.246
-120.995
-129.565
-138.831
-148.917
-159.874
-169.97
-171.89
-45.311
-48.9081
-52.0586
-55.7728
-59.6913
-63.9171
-68.4964
-73.4364
-78.7766
-84.5553
-90.8018
-97.609
-104.998
-113.04
-121.938
-131.54
-142.137
-154.168
-164.966
-167.703
-34.7812
-38.417
-41.5574
-45.2197
-49.1599
-53.3995
-58.0138
-63.006
-68.41
-74.2933
-80.6481
-87.598
-95.1451
-103.35
-112.463
-122.203
-133.345
-145.195
-156.718
-160.406
-23.4227
-27.0748
-30.1847
-33.7651
-37.6784
-41.8709
-46.4402
-51.4019
-56.786
-62.6364
-68.9864
-75.9438
-83.5013
-91.7947
-100.956
-110.841
-122.071
-133.758
-145.337
-149.656
-11.0258
-14.7093
-17.7636
-21.2
-25.0369
-29.1428
-33.6269
-38.5075
-43.8041
-49.591
-55.8627
-62.753
-70.2426
-78.4495
-87.5539
-97.3755
-108.663
-120.391
-132.389
-137.285
1.8487
-1.78595
-4.71647
-7.93807
-11.634
-15.5917
-19.908
-24.6269
-29.7684
-35.3673
-41.4625
-48.1655
-55.434
-63.4694
-72.2955
-81.8732
-92.6876
-104.248
-116.613
-121.58
15.4661
11.9708
9.23934
6.26739
2.76181
-1.02105
-5.14782
-9.67436
-14.6042
-20.0012
-25.8726
-32.3398
-39.3671
-47.1246
-55.6719
-64.9519
-75.6571
-86.7056
-99.2393
-104.67
30.3014
26.457
23.9154
21.1873
17.8779
14.2575
10.3419
6.05387
1.36282
-3.74599
-9.31908
-15.457
-22.1055
-29.5163
-37.5679
-46.4721
-56.4632
-66.7681
-79.7301
-85.3987
47.7973
43.8271
40.5499
37.5174
34.235
30.6211
26.7779
22.6334
18.1563
13.2902
8.00441
2.20197
-4.10273
-11.084
-18.7195
-27.1851
-36.66
-46.6292
-59.1932
-65.0295
-68.8889
-69.3173
-70.1216
-71.077
-72.6416
-74.2562
-75.5207
-77.1187
-78.309
-79.8467
-81.0764
-82.4508
-83.905
-85.0509
-87.1499
-88.0976
-91.8134
-94.6381
-102.1
-111.716
-67.3566
-67.7233
-68.3824
-69.3064
-70.6478
-72.0504
-73.0916
-74.5064
-75.4639
-76.7847
-77.7666
-78.9064
-80.0381
-80.8897
-82.8299
-83.7545
-87.6559
-90.0998
-98.0248
-106.634
-65.7554
-66.1216
-66.7099
-67.3984
-68.5739
-69.833
-70.6669
-71.8746
-72.6108
-73.7251
-74.468
-75.423
-76.3735
-77.1315
-78.8254
-79.3867
-83.2053
-85.3299
-93.742
-101.684
-64.2606
-64.5851
-65.0001
-65.6795
-66.6158
-67.6774
-68.2928
-69.3154
-69.8258
-70.732
-71.2317
-71.9617
-72.5706
-73.051
-74.5601
-75.0778
-78.9742
-80.6201
-89.294
-96.3572
-62.7078
-63.0234
-63.3487
-63.8297
-64.5799
-65.4955
-65.905
-66.7335
-67.0309
-67.7364
-68.0052
-68.5568
-68.9814
-69.3632
-70.5536
-70.7128
-74.4337
-75.6954
-84.6892
-90.9887
-61.2602
-61.5679
-61.6695
-62.1627
-62.6571
-63.387
-63.5808
-64.2217
-64.3015
-64.8062
-64.8359
-65.1654
-65.2406
-65.3629
-66.3254
-66.434
-70.102
-70.8216
-79.8118
-85.0383
-59.7642
-60.0621
-60.0409
-60.3777
-60.6566
-61.2395
-61.2258
-61.6859
-61.5598
-61.8701
-61.6763
-61.8335
-61.714
-61.7269
-62.3096
-62.0809
-65.4541
-65.7902
-74.8489
-79.228
-58.3719
-58.6863
-58.3954
-58.7615
-58.7669
-59.1759
-58.9426
-59.2168
-58.8805
-58.9963
-58.5734
-58.5069
-58.0368
-57.7988
-58.1052
-57.8162
-60.9909
-60.7729
-69.5099
-73.0327
-56.9405
-57.2515
-56.7892
-57.0472
-56.7999
-57.0577
-56.6235
-56.7273
-56.1911
-56.1155
-55.4782
-55.2397
-54.5642
-54.2013
-54.0797
-53.4775
-56.2614
-55.5654
-64.1239
-66.6901
-55.6053
-55.9416
-55.1709
-55.4853
-54.9442
-55.0296
-54.3778
-54.2954
-53.5584
-53.2921
-52.4367
-51.9732
-50.9532
-50.3362
-49.8823
-49.2316
-51.6407
-50.3895
-58.4194
-59.8288
-54.2422
-54.5736
-53.6202
-53.824
-53.0103
-52.9356
-52.0914
-51.844
-50.9179
-50.4652
-49.4068
-48.7635
-47.5307
-46.7628
-45.8493
-44.917
-46.7452
-45.1081
-52.5252
-52.865
-52.9638
-53.3214
-52.0942
-52.2639
-51.185
-50.9341
-49.8778
-49.4509
-48.3314
-47.6919
-46.4265
-45.554
-43.9876
-42.9453
-41.661
-40.6706
-41.9625
-39.7791
-46.224
-45.4226
-51.6665
-52.0114
-50.5854
-50.6182
-49.2776
-48.8605
-47.6198
-47.035
-45.7364
-44.916
-43.4591
-42.3951
-40.61
-39.3786
-37.6264
-36.3663
-36.9416
-34.3191
-39.8312
-37.6467
-50.4477
-50.8473
-49.1315
-49.0596
-47.4761
-46.8762
-45.4344
-44.6785
-43.1952
-42.1943
-40.5426
-39.2441
-37.138
-35.598
-33.4566
-32.1134
-32.0186
-28.8157
-33.1317
-29.1295
-49.2078
-49.686
-47.7049
-47.4327
-45.6089
-44.8299
-43.2113
-42.3079
-40.6561
-39.4811
-37.6499
-36.1473
-33.8157
-32.0372
-29.4436
-27.8301
-26.8953
-23.1982
-26.2908
-20.0967
-48.0886
-48.6163
-46.2564
-45.8703
-43.8241
-42.8523
-41.0414
-39.9763
-38.1456
-36.7944
-34.7767
-33.0293
-30.38
-28.2464
-25.2728
-23.5315
-21.7895
-17.4486
-18.974
-10.0643
-46.8549
-47.4292
-44.6963
-44.2197
-41.8687
-40.7783
-38.7997
-37.5938
-35.6032
-34.0886
-31.8988
-29.931
-27.0388
-24.621
-21.2334
-19.1947
-16.5133
-11.659
-11.6514
0.0259613
-45.6498
-46.4257
-43.2946
-42.6343
-40.1555
-38.8486
-36.7237
-35.3851
-33.2434
-31.5839
-29.2421
-27.045
-23.8591
-21.0642
-17.3146
-15.0885
-11.5778
-6.2771
-4.66166
10.3217
-45.0594
-45.8909
-42.2076
-41.2183
-38.6226
-37.0429
-34.7467
-33.2759
-30.9785
-29.168
-26.6668
-24.2278
-20.7769
-17.5934
-13.5112
-10.9827
-6.40412
-0.29598
4.06044
25.2997
-43.4038
-45.1055
-40.722
-39.8264
-36.5332
-34.7363
-32.1228
-30.4586
-27.9289
-25.8399
-23.0459
-20.2233
-16.3099
-12.5985
-8.30372
-5.49083
0.195142
7.61657
15.9249
42.813
-24.7699
-30.48
-24.7353
-24.1604
-19.1005
-18.434
-15.3049
-13.0778
-9.88359
-6.46773
-2.13579
2.27944
7.29405
11.9955
18.4661
25.5024
35.9693
44.8316
60.6993
66.1488
-16.4307
-16.3522
-15.0904
-12.3448
-9.90992
-6.50431
-3.1912
0.341228
4.20692
8.30718
12.5693
17.5196
23.3266
30.6873
39.3701
48.8301
60.3735
71.1809
90.0388
102.582
4.94689
5.19774
6.03092
7.58045
9.61669
11.5195
14.0759
16.7271
20.142
23.7791
28.2725
33.3675
39.3881
45.8357
52.8996
60.728
69.6217
79.3992
91.1688
103.755
11.4913
11.7664
12.7496
14.8776
17.1099
20.0413
23.0328
26.7001
30.4445
34.8478
39.4603
44.5894
49.8673
56.0497
62.6897
70.3908
78.0213
86.9585
95.1026
103.251
24.1978
24.4993
25.5646
27.4102
29.2258
31.4332
33.9045
36.5964
39.7084
43.0202
46.7562
50.7603
55.1478
59.916
64.8377
70.2693
75.5452
81.6342
87.832
94.7744
28.7547
29.1481
30.4353
32.1935
34.4498
36.8768
39.6273
42.5815
45.7843
49.2018
52.8331
56.6904
60.7105
65.005
69.3547
74.0465
78.5083
83.407
86.8221
91.2927
35.4788
35.6295
36.9973
39.2139
41.2099
43.5478
45.8717
48.287
50.9203
53.5347
56.4268
59.2706
62.3562
65.4137
68.6094
71.7888
74.9841
78.4241
81.6
84.8942
39.0488
39.5917
41.0068
43.1528
45.3815
47.6159
50.0737
52.4361
55.0501
57.5384
60.2396
62.8629
65.6008
68.309
71.001
73.8509
76.7367
79.2833
81.0438
83.3585
42.6882
43.4269
45.218
47.4859
49.9048
51.9715
54.3315
56.2732
58.5621
60.4861
62.715
64.6524
66.8253
68.7842
70.861
72.6904
74.2544
76.1235
77.9503
79.7075
45.6305
46.3168
48.9477
51.1768
53.9567
55.9189
58.2674
60.0511
62.1627
63.8745
65.7981
67.4753
69.2764
70.9027
72.6188
74.3504
75.9792
77.3259
78.4303
79.4945
50.4625
50.9859
54.2225
56.1241
58.9164
60.5687
62.6062
64.0045
65.7132
66.9832
68.5154
69.7204
71.1316
72.3065
73.5441
74.4858
75.3987
76.2927
77.219
78.2836
58.9328
57.6231
62.2527
63.1601
65.1484
66.221
67.5997
68.5454
69.7244
70.6134
71.6626
72.5235
73.4775
74.3188
75.2395
76.0585
76.9617
77.703
78.3061
78.7416
73.5266
71.5924
71.6863
71.3488
72.2347
72.4273
72.9829
73.2939
73.829
74.1984
74.7936
75.2006
75.8358
76.2817
76.8461
77.2537
77.705
78.0642
78.4597
78.8314
84.1805
82.5891
80.1672
80.0457
78.6743
78.549
77.9533
77.8472
77.7179
77.6893
77.7912
77.8364
78.0675
78.1739
78.4743
78.6407
78.9819
79.1891
79.5257
79.694
91.9833
91.2877
88.2577
86.1274
84.8909
83.1762
82.5446
81.4571
81.1086
80.5246
80.4122
80.1046
80.0944
79.9717
80.0461
80.0213
80.1321
80.1512
80.2732
80.3066
98.9722
94.4819
92.1173
89.5397
88.1483
86.6398
85.6461
84.623
83.9083
83.1526
82.643
82.1789
81.8784
81.586
81.4242
81.2506
81.185
81.0975
81.1065
81.0709
103.531
93.3437