/*--------------------------------*- C++ -*----------------------------------*\
  =========                 |
  \\      /  F ield         | OpenFOAM: The Open Source CFD Toolbox
   \\    /   O peration     | Website:  https://openfoam.org
    \\  /    A nd           | Version:  9
     \\/     M anipulation  |
\*---------------------------------------------------------------------------*/
FoamFile
{
    format      ascii;
    class       surfaceScalarField;
    location    "3";
    object      phi;
}
// * * * * * * * * * * * * * * * * * * * * * * * * * * * * * * * * * * * * * //

dimensions      [0 3 -1 0 0 0 0];

internalField   nonuniform List<scalar> 
92080
(
0.00156381
-0.427048
0.425485
-0.0147056
-0.874369
0.890638
-0.049876
-0.963444
0.998615
-0.0859066
-0.949382
0.985413
-0.120751
-0.934589
0.969433
-0.155354
-0.919833
0.954436
-0.189332
-0.907865
0.941844
-0.223061
-0.894076
0.927805
-0.256378
-0.881802
0.915119
-0.289459
-0.870829
0.90391
-0.322311
-0.860646
0.893498
-0.355045
-0.851235
0.883969
-0.387826
-0.84339
0.876171
-0.419899
-0.835443
0.867516
-0.451686
-0.828135
0.859922
-0.483676
-0.820845
0.852836
-0.51526
-0.8146
0.846184
-0.545854
-0.807938
0.838532
-0.575389
-0.800244
0.829778
-0.795061
0.822689
-0.603017
-0.000481745
-0.426567
-0.0207857
-0.854065
-0.0566678
-0.927562
-0.0938824
-0.912168
-0.13053
-0.897941
-0.166961
-0.883402
-0.202814
-0.872013
-0.237904
-0.858986
-0.273133
-0.846573
-0.308081
-0.83588
-0.342837
-0.82589
-0.377694
-0.816379
-0.412006
-0.809078
-0.446224
-0.801225
-0.479886
-0.794472
-0.512596
-0.788136
-0.544974
-0.782222
-0.576121
-0.776791
-0.605421
-0.770944
-0.766162
-0.63432
-0.00291144
-0.423655
-0.027044
-0.829932
-0.0669712
-0.887635
-0.106778
-0.872361
-0.14572
-0.858998
-0.184406
-0.844717
-0.222535
-0.833884
-0.260077
-0.821444
-0.297025
-0.809625
-0.333771
-0.799135
-0.369979
-0.789681
-0.40619
-0.780168
-0.44255
-0.772718
-0.477967
-0.765808
-0.513531
-0.758909
-0.549118
-0.752548
-0.584086
-0.747254
-0.61826
-0.742616
-0.651542
-0.737663
-0.732942
-0.684762
-0.00540589
-0.418249
-0.0336423
-0.801696
-0.0740552
-0.847222
-0.115081
-0.831335
-0.155387
-0.818693
-0.195412
-0.804691
-0.23483
-0.794466
-0.273318
-0.782956
-0.311866
-0.771078
-0.350059
-0.760941
-0.38785
-0.751891
-0.425444
-0.742574
-0.463059
-0.735104
-0.500695
-0.728172
-0.537288
-0.722315
-0.573807
-0.71603
-0.611205
-0.709856
-0.648251
-0.705571
-0.68396
-0.701954
-0.697345
-0.719557
-0.00501632
-0.413233
-0.0396807
-0.767031
-0.0826584
-0.804244
-0.125475
-0.788518
-0.167838
-0.77633
-0.210014
-0.762515
-0.25201
-0.75247
-0.293073
-0.741893
-0.333321
-0.730829
-0.373667
-0.720596
-0.413257
-0.7123
-0.452592
-0.703239
-0.492026
-0.695669
-0.531109
-0.689088
-0.570382
-0.683043
-0.60812
-0.678292
-0.645514
-0.672462
-0.684406
-0.666679
-0.722971
-0.663389
-0.65984
-0.760475
-0.000796816
-0.412436
-0.0383495
-0.729479
-0.0838422
-0.758752
-0.129205
-0.743155
-0.173662
-0.731873
-0.217603
-0.718574
-0.260829
-0.709243
-0.303096
-0.699627
-0.344913
-0.689012
-0.386327
-0.679182
-0.427418
-0.671209
-0.467748
-0.662909
-0.508305
-0.655113
-0.549023
-0.64837
-0.589748
-0.642318
-0.630964
-0.637076
-0.670452
-0.632974
-0.709635
-0.627495
-0.750122
-0.622902
-0.619381
-0.790582
-0.000317393
-0.412119
-0.0412995
-0.688496
-0.0906727
-0.709378
-0.138828
-0.695
-0.185556
-0.685145
-0.231567
-0.672562
-0.277433
-0.663378
-0.321845
-0.655214
-0.365003
-0.645854
-0.408298
-0.635887
-0.450904
-0.628603
-0.492703
-0.62111
-0.533907
-0.613909
-0.574871
-0.607406
-0.615815
-0.601373
-0.656814
-0.596077
-0.698221
-0.591567
-0.738158
-0.587559
-0.777983
-0.583077
-0.578912
-0.818452
0.00116878
-0.413288
-0.0410988
-0.646229
-0.0919931
-0.658484
-0.14151
-0.645483
-0.190184
-0.636472
-0.237688
-0.625058
-0.284472
-0.616594
-0.33048
-0.609205
-0.375062
-0.601272
-0.41899
-0.591959
-0.463285
-0.584308
-0.506561
-0.577834
-0.54964
-0.570831
-0.592429
-0.564617
-0.63494
-0.558862
-0.677572
-0.553445
-0.719912
-0.549227
-0.762487
-0.544984
-0.803519
-0.542045
-0.538045
-0.844386
-0.000935559
-0.412352
-0.0482319
-0.598933
-0.102407
-0.604309
-0.154135
-0.593755
-0.203723
-0.586884
-0.252661
-0.57612
-0.301493
-0.567762
-0.348806
-0.561893
-0.394473
-0.555605
-0.4392
-0.547232
-0.483703
-0.539805
-0.527683
-0.533854
-0.570296
-0.528217
-0.612687
-0.522227
-0.654652
-0.516897
-0.6968
-0.511297
-0.739412
-0.506615
-0.782058
-0.502339
-0.825271
-0.498831
-0.496176
-0.86714
-0.00707194
-0.40528
-0.055064
-0.550941
-0.108018
-0.551355
-0.160171
-0.541602
-0.211255
-0.5358
-0.260241
-0.527134
-0.309491
-0.518512
-0.358913
-0.512471
-0.406323
-0.508196
-0.451977
-0.501578
-0.49815
-0.493632
-0.544444
-0.487559
-0.590317
-0.482345
-0.634823
-0.47772
-0.67842
-0.4733
-0.720872
-0.468845
-0.763091
-0.464395
-0.805417
-0.460013
-0.848001
-0.456247
-0.452506
-0.891672
-0.0171506
-0.388129
-0.0677079
-0.500383
-0.121312
-0.497751
-0.173312
-0.489602
-0.224392
-0.48472
-0.274467
-0.477059
-0.323916
-0.469063
-0.373596
-0.46279
-0.422835
-0.458957
-0.468763
-0.45565
-0.512937
-0.449457
-0.557741
-0.442755
-0.602923
-0.437163
-0.648823
-0.431821
-0.694199
-0.427923
-0.739081
-0.423964
-0.782593
-0.420884
-0.82535
-0.417256
-0.867225
-0.414372
-0.411018
-0.908713
-0.0245831
-0.363546
-0.0756172
-0.449349
-0.129116
-0.444253
-0.182595
-0.436122
-0.234495
-0.432821
-0.284083
-0.42747
-0.333614
-0.419532
-0.384012
-0.412393
-0.435581
-0.407388
-0.486426
-0.404805
-0.533826
-0.402057
-0.579119
-0.397462
-0.623709
-0.392573
-0.668132
-0.387398
-0.71347
-0.382585
-0.759143
-0.37829
-0.805411
-0.374616
-0.851338
-0.371328
-0.897158
-0.368552
-0.36586
-0.942316
-0.0323844
-0.331162
-0.0850431
-0.39669
-0.13807
-0.391225
-0.190753
-0.383439
-0.244316
-0.379259
-0.295681
-0.376105
-0.344229
-0.370984
-0.392331
-0.364291
-0.441832
-0.357886
-0.49275
-0.353887
-0.543539
-0.351269
-0.592028
-0.348973
-0.638461
-0.34614
-0.683168
-0.342691
-0.726485
-0.339268
-0.769703
-0.335073
-0.81258
-0.331739
-0.856197
-0.327711
-0.89981
-0.324939
-0.321444
-0.944225
-0.0375033
-0.293659
-0.09107
-0.343124
-0.145647
-0.336649
-0.199997
-0.329089
-0.253587
-0.325668
-0.306759
-0.322933
-0.358438
-0.319305
-0.40725
-0.315479
-0.45562
-0.309516
-0.505186
-0.304322
-0.555846
-0.300608
-0.607505
-0.297313
-0.65803
-0.295616
-0.707834
-0.292887
-0.755759
-0.291343
-0.802245
-0.288587
-0.847381
-0.286603
-0.891216
-0.283876
-0.934515
-0.28164
-0.279189
-0.97677
-0.0418827
-0.251776
-0.0970873
-0.287919
-0.15015
-0.283586
-0.203449
-0.27579
-0.258655
-0.270462
-0.312077
-0.26951
-0.36427
-0.267112
-0.414915
-0.264834
-0.462213
-0.262218
-0.509173
-0.257362
-0.555775
-0.254007
-0.603468
-0.24962
-0.652091
-0.246992
-0.701007
-0.243971
-0.750578
-0.241772
-0.799547
-0.239618
-0.848621
-0.237529
-0.896732
-0.235765
-0.944617
-0.233755
-0.232141
-0.991665
-0.0437427
-0.208033
-0.102937
-0.228725
-0.158382
-0.228141
-0.210825
-0.223347
-0.26513
-0.216157
-0.322118
-0.212523
-0.377564
-0.211666
-0.43303
-0.209367
-0.486072
-0.209176
-0.53646
-0.206974
-0.585309
-0.205157
-0.632262
-0.202667
-0.679104
-0.20015
-0.725101
-0.197974
-0.771383
-0.19549
-0.817349
-0.193652
-0.863465
-0.191413
-0.909477
-0.189753
-0.955436
-0.187796
-0.186161
-1.00141
-0.0490863
-0.158947
-0.108009
-0.169802
-0.162409
-0.173741
-0.213525
-0.172232
-0.261345
-0.168337
-0.31107
-0.162798
-0.362914
-0.159822
-0.415287
-0.156994
-0.469431
-0.155033
-0.522566
-0.153839
-0.575556
-0.152168
-0.627203
-0.15102
-0.678004
-0.149349
-0.727865
-0.148113
-0.776807
-0.146549
-0.825208
-0.14525
-0.872797
-0.143824
-0.92009
-0.142461
-0.966727
-0.141159
-0.139682
-1.01321
-0.0501961
-0.108751
-0.114557
-0.105441
-0.178058
-0.11024
-0.23749
-0.112799
-0.292211
-0.113616
-0.342971
-0.112038
-0.392653
-0.110141
-0.441425
-0.108223
-0.490328
-0.106129
-0.539573
-0.104594
-0.588527
-0.103213
-0.637656
-0.101891
-0.686243
-0.100763
-0.734824
-0.0995322
-0.782819
-0.0985538
-0.830683
-0.0973859
-0.877998
-0.096509
-0.925074
-0.0953845
-0.971699
-0.094535
-0.0934788
-1.0179
-0.0494943
-0.0592565
-0.0967757
-0.0581595
-0.152247
-0.0547689
-0.209182
-0.0558638
-0.267975
-0.0548232
-0.32457
-0.0554422
-0.380239
-0.0544724
-0.433998
-0.0544633
-0.486664
-0.053463
-0.538338
-0.0529208
-0.589492
-0.0520584
-0.639703
-0.0516796
-0.689571
-0.0508949
-0.738497
-0.0506057
-0.787159
-0.049892
-0.834921
-0.049624
-0.882451
-0.0489797
-0.929105
-0.0487301
-0.975488
-0.0481516
-0.0478642
-1.0211
-0.0761238
0.0168672
-0.127251
-0.00703211
-0.179426
-0.00259364
-0.229786
-0.00550426
-0.282729
-0.00187984
-0.334583
-0.00358858
-0.387516
-0.00153965
-0.439293
-0.00268657
-0.491193
-0.00156217
-0.541744
-0.00237001
-0.592456
-0.00134674
-0.642161
-0.00197451
-0.691863
-0.00119249
-0.740761
-0.00170847
-0.789455
-0.00119739
-0.837458
-0.00162093
-0.885136
-0.00130212
-0.932213
-0.00165286
-0.978907
-0.00145789
-1.02493
-0.00184306
-0.0117943
0.0494875
-0.0376932
0.0019442
0.0373791
-0.0511176
0.0690271
-0.0495999
-0.0174829
0.231313
-0.269967
0.107682
0.465816
-0.611694
0.377192
0.657115
-0.878279
0.686979
0.761195
-1.01737
0.913294
0.809835
-1.0703
1.02166
0.834532
-1.08682
1.06213
0.849463
-1.0905
1.07557
0.860512
-1.0901
1.07905
0.868384
-1.08691
1.07904
0.875431
-1.08411
1.07706
0.883855
-1.08239
1.07397
0.893371
-1.0827
1.07318
0.901154
-1.08076
1.07297
0.907987
-1.08014
1.07331
0.915274
-1.07895
1.07166
0.92291
-1.07944
1.0718
-1.07735
0.929401
1.07086
-0.00382184
0.0533093
0.0299892
0.00356808
0.129104
-0.148715
0.341888
-0.482751
0.539654
-0.80946
0.658533
-0.997158
0.714618
-1.07346
0.740818
-1.0965
0.755103
-1.10111
0.764886
-1.10028
0.772056
-1.09727
0.778037
-1.09289
0.785439
-1.09151
0.792789
-1.08974
0.798561
-1.08847
0.804104
-1.0863
0.810358
-1.08639
0.816357
-1.08495
0.821053
-1.08413
-1.08123
0.824933
0.00877117
0.0445382
0.0635602
-0.0512209
0.209875
-0.29503
0.409548
-0.682424
0.546213
-0.946126
0.615687
-1.06663
0.645049
-1.10282
0.659379
-1.11083
0.668579
-1.11031
0.675156
-1.10686
0.680072
-1.10218
0.686078
-1.0989
0.691904
-1.09733
0.69665
-1.09449
0.701482
-1.0933
0.706821
-1.09164
0.711772
-1.09135
0.714735
-1.08791
0.717412
-1.08681
-1.08408
0.720257
0.0250678
0.0194704
0.0979694
-0.124123
0.274634
-0.471694
0.432576
-0.840366
0.522455
-1.036
0.558361
-1.10254
0.574095
-1.11855
0.583003
-1.11974
0.58895
-1.11625
0.59256
-1.11047
0.596895
-1.10652
0.601308
-1.10331
0.605086
-1.10111
0.609027
-1.09843
0.612679
-1.09696
0.615621
-1.09458
0.617325
-1.09305
0.618904
-1.08949
0.620731
-1.08864
-1.085
0.621655
0.0401365
-0.0206661
0.128402
-0.212388
0.294092
-0.637384
0.409096
-0.95537
0.462385
-1.08929
0.483952
-1.1241
0.493947
-1.12855
0.500074
-1.12587
0.502965
-1.11915
0.506486
-1.11399
0.509964
-1.11
0.513128
-1.10647
0.516007
-1.10399
0.51814
-1.10056
0.519684
-1.0985
0.520949
-1.09585
0.52162
-1.09372
0.522287
-1.09016
0.522314
-1.08867
-1.08397
0.52128
0.0384177
-0.0590839
0.153966
-0.327937
0.293289
-0.776706
0.373701
-1.03578
0.405499
-1.12109
0.417312
-1.13592
0.423354
-1.13459
0.426145
-1.12866
0.428671
-1.12167
0.431077
-1.1164
0.432824
-1.11174
0.434195
-1.10785
0.434672
-1.10447
0.434911
-1.1008
0.434902
-1.09849
0.434234
-1.09518
0.432747
-1.09223
0.430987
-1.0884
0.428765
-1.08644
-1.0809
0.425693
0.0346936
-0.0937775
0.155969
-0.449212
0.26247
-0.883208
0.316872
-1.09018
0.335581
-1.1398
0.343177
-1.14351
0.347588
-1.139
0.349494
-1.13056
0.351017
-1.12319
0.351792
-1.11717
0.352119
-1.11207
0.35186
-1.10759
0.351201
-1.10381
0.350026
-1.09962
0.348084
-1.09655
0.34558
-1.09268
0.342618
-1.08927
0.339587
-1.08537
0.335904
-1.08276
-1.07599
0.330996
0.0386514
-0.132429
0.146326
-0.556887
0.230356
-0.967237
0.266147
-1.12597
0.277689
-1.15134
0.283064
-1.14889
0.284068
-1.14001
0.284328
-1.13082
0.28406
-1.12293
0.283243
-1.11636
0.281663
-1.11049
0.279521
-1.10545
0.27651
-1.1008
0.272942
-1.09605
0.268953
-1.09256
0.264448
-1.08817
0.25938
-1.0842
0.25399
-1.07998
0.247917
-1.07669
-1.06918
0.241109
0.0430041
-0.175433
0.133339
-0.647222
0.194359
-1.02826
0.215326
-1.14694
0.220785
-1.1568
0.22129
-1.14939
0.220548
-1.13926
0.219158
-1.12943
0.216798
-1.12056
0.213593
-1.11315
0.20977
-1.10666
0.205255
-1.10093
0.200284
-1.09583
0.194893
-1.09066
0.188855
-1.08652
0.182286
-1.0816
0.175261
-1.07718
0.167997
-1.07271
0.160135
-1.06883
-1.06062
0.151573
0.0462364
-0.221669
0.117407
-0.718393
0.161501
-1.07235
0.17226
-1.1577
0.173574
-1.15812
0.171295
-1.14711
0.168316
-1.13628
0.164094
-1.12521
0.15922
-1.11569
0.153752
-1.10768
0.147624
-1.10054
0.140964
-1.09427
0.13359
-1.08845
0.125613
-1.08269
0.117177
-1.07809
0.108303
-1.07273
0.0989485
-1.06782
0.0892508
-1.06301
0.0790023
-1.05858
-1.0501
0.0684852
0.0429129
-0.264582
0.100544
-0.776024
0.129216
-1.10102
0.131435
-1.15992
0.12761
-1.15429
0.121657
-1.14116
0.115271
-1.1299
0.108269
-1.11821
0.100653
-1.10807
0.092411
-1.09944
0.0836146
-1.09174
0.0742326
-1.08489
0.0644374
-1.07866
0.0542458
-1.07249
0.0435853
-1.06743
0.0325111
-1.06165
0.0210234
-1.05634
0.00926705
-1.05126
-0.00277896
-1.04653
-1.03773
-0.0151514
0.0365717
-0.301154
0.0840895
-0.823542
0.100288
-1.11722
0.0971856
-1.15682
0.0896976
-1.1468
0.0815892
-1.13305
0.0727148
-1.12102
0.0630596
-1.10856
0.0527781
-1.09779
0.0418981
-1.08856
0.0304997
-1.08034
0.018629
-1.07302
0.00623029
-1.06626
-0.00665043
-1.05961
-0.0199291
-1.05415
-0.0335862
-1.048
-0.0476414
-1.04228
-0.061848
-1.03705
-0.0762846
-1.0321
-1.02343
-0.0905836
0.0284788
-0.329633
0.0622814
-0.857345
0.0701218
-1.12506
0.0621595
-1.14885
0.0510888
-1.13573
0.0396409
-1.12161
0.0274877
-1.10887
0.0147112
-1.09578
0.00151662
-1.0846
-0.012132
-1.07491
-0.0262605
-1.06621
-0.0408062
-1.05847
-0.0557138
-1.05135
-0.0710195
-1.04431
-0.0866337
-1.03853
-0.102529
-1.0321
-0.118771
-1.02604
-0.135318
-1.0205
-0.151788
-1.01563
-1.0071
-0.168112
0.0268882
-0.356521
0.0528562
-0.883313
0.0511813
-1.12339
0.0390314
-1.1367
0.0244385
-1.12114
0.0096241
-1.10679
-0.00561694
-1.09363
-0.0212447
-1.08015
-0.0373562
-1.06849
-0.0539625
-1.05831
-0.0708964
-1.04928
-0.0882079
-1.04116
-0.105806
-1.03375
-0.123717
-1.0264
-0.141942
-1.02031
-0.160415
-1.01363
-0.179172
-1.00728
-0.198069
-1.0016
-0.216605
-0.997089
-0.988676
-0.235033
0.0190065
-0.375528
0.0342767
-0.898583
0.0258743
-1.11499
0.00899001
-1.11982
-0.00852766
-1.10362
-0.0263172
-1.089
-0.0444152
-1.07553
-0.06306
-1.06151
-0.0819496
-1.0496
-0.101153
-1.0391
-0.120763
-1.02967
-0.140603
-1.02132
-0.160722
-1.01363
-0.181181
-1.00594
-0.201769
-0.99972
-0.222442
-0.992954
-0.243407
-0.986317
-0.264752
-0.98026
-0.285621
-0.976221
-0.96823
-0.306067
0.0174121
-0.39294
0.0280159
-0.909186
0.0138808
-1.10085
-0.00608576
-1.09985
-0.0269727
-1.08274
-0.0482016
-1.06777
-0.0696223
-1.05411
-0.0911262
-1.04
-0.112984
-1.02774
-0.135201
-1.01689
-0.157615
-1.00726
-0.180353
-0.998584
-0.203164
-0.990823
-0.226159
-0.982944
-0.24944
-0.97644
-0.272832
-0.969562
-0.296323
-0.962827
-0.320124
-0.956458
-0.343864
-0.952481
-0.945383
-0.366712
0.0121681
-0.405108
0.0150606
-0.912079
-0.00492037
-1.08087
-0.029926
-1.07485
-0.0543385
-1.05832
-0.0786522
-1.04346
-0.102797
-1.02997
-0.12728
-1.01552
-0.151754
-1.00327
-0.176368
-0.992273
-0.201295
-0.982327
-0.226279
-0.9736
-0.251462
-0.96564
-0.276911
-0.957495
-0.302352
-0.950998
-0.32773
-0.944185
-0.353281
-0.937276
-0.379273
-0.930466
-0.405326
-0.926428
-0.920318
-0.43039
0.00992678
-0.415035
0.00793513
-0.910087
-0.0152068
-1.05773
-0.0415007
-1.04855
-0.0683399
-1.03148
-0.0953496
-1.01645
-0.122284
-1.00303
-0.149103
-0.9887
-0.176235
-0.976134
-0.203557
-0.96495
-0.231043
-0.954842
-0.258915
-0.945728
-0.286661
-0.937893
-0.314547
-0.929609
-0.342882
-0.922663
-0.371214
-0.915853
-0.399316
-0.909173
-0.427861
-0.901921
-0.457357
-0.896932
-0.891471
-0.486205
0.00608171
-0.421116
-0.00109435
-0.902911
-0.0302097
-1.02861
-0.0612517
-1.01751
-0.0912996
-1.00144
-0.12123
-0.986518
-0.150676
-0.973585
-0.180256
-0.95912
-0.209692
-0.946699
-0.239147
-0.935494
-0.268779
-0.92521
-0.29842
-0.916087
-0.328338
-0.907976
-0.35837
-0.899577
-0.388429
-0.892604
-0.418731
-0.88555
-0.449155
-0.87875
-0.479659
-0.871416
-0.511777
-0.864814
-0.859982
-0.543265
0.00436829
-0.00790498
-0.0379027
-0.0700008
-0.102005
-0.134087
-0.165829
-0.197144
-0.228723
-0.260307
-0.29202
-0.324137
-0.355942
-0.388003
-0.420686
-0.453401
-0.485967
-0.518851
-0.553887
-0.59118
0.854042
-9.54537
9.62073
0.792241
-9.40786
9.46966
0.729916
-9.42882
9.49114
0.67086
-9.45857
9.51763
0.612636
-9.47756
9.53578
0.557996
-9.50272
9.55736
0.507514
-9.52121
9.57169
0.459174
-9.55227
9.60061
0.413206
-9.5908
9.63677
0.369364
-9.61232
9.65616
0.328487
-9.63211
9.67299
0.290492
-9.64404
9.68204
0.25551
-9.65475
9.68973
0.22338
-9.66211
9.69424
0.193808
-9.66644
9.69601
0.165897
-9.64151
9.66942
0.141502
-9.61525
9.63965
0.108494
-9.1244
9.15741
0.0559652
-7.49935
7.55188
-4.07789
4.13386
0.75181
-9.47225
0.691637
-9.34769
0.633869
-9.37105
0.582462
-9.40716
0.529616
-9.42471
0.477179
-9.45028
0.427435
-9.47146
0.382031
-9.50686
0.341602
-9.55037
0.304161
-9.57488
0.269768
-9.59772
0.238281
-9.61256
0.209999
-9.62647
0.184723
-9.63684
0.162332
-9.64405
0.142536
-9.62172
0.124939
-9.59766
0.0972933
-9.09676
0.0519085
-7.45396
-4.02599
0.652442
-9.40443
0.59449
-9.28973
0.538103
-9.31466
0.487108
-9.35617
0.43829
-9.37589
0.395415
-9.40741
0.356888
-9.43294
0.319927
-9.4699
0.285552
-9.516
0.253612
-9.54294
0.224635
-9.56874
0.198578
-9.5865
0.175591
-9.60348
0.155422
-9.61667
0.13793
-9.62656
0.122076
-9.60586
0.10962
-9.5852
0.089444
-9.07658
0.0501065
-7.41463
-3.97588
0.55121
-9.33399
0.495719
-9.23424
0.443971
-9.26291
0.399264
-9.31146
0.356034
-9.33266
0.315911
-9.36729
0.278309
-9.39533
0.244068
-9.43566
0.215007
-9.48694
0.189322
-9.51726
0.166683
-9.5461
0.146997
-9.56681
0.13053
-9.58701
0.11702
-9.60316
0.10653
-9.61607
0.09869
-9.59802
0.0931025
-9.57961
0.0785634
-9.06204
0.0463152
-7.38238
-3.92956
0.453115
-9.26582
0.400526
-9.18165
0.351112
-9.2135
0.306716
-9.26706
0.267768
-9.29372
0.236829
-9.33635
0.209454
-9.36796
0.183128
-9.40934
0.159958
-9.46377
0.139613
-9.49691
0.12224
-9.52873
0.107833
-9.55241
0.0965502
-9.57573
0.0880683
-9.59468
0.0824201
-9.61042
0.0783761
-9.59398
0.0778105
-9.57905
0.0706671
-9.0549
0.0445307
-7.35624
-3.88503
0.355742
-9.19587
0.304977
-9.13089
0.259336
-9.16786
0.220282
-9.22801
0.187011
-9.26045
0.158678
-9.30801
0.132316
-9.3416
0.108782
-9.3858
0.0908362
-9.44582
0.0765503
-9.48262
0.0653451
-9.51752
0.0571361
-9.5442
0.0521793
-9.57077
0.0501534
-9.59265
0.0512916
-9.61156
0.0551043
-9.59779
0.0614107
-9.58535
0.0601027
-9.05359
0.0409785
-7.33712
-3.84406
0.260067
-9.12494
0.212717
-9.08354
0.169964
-9.1251
0.131482
-9.18953
0.102747
-9.23171
0.0827311
-9.288
0.0655002
-9.32436
0.0493904
-9.36969
0.0371239
-9.43356
0.0279684
-9.47347
0.0218587
-9.51141
0.0187498
-9.54109
0.0188213
-9.57085
0.021683
-9.59551
0.0275415
-9.61742
0.0350015
-9.60525
0.0462058
-9.59656
0.0521606
-9.05954
0.0391602
-7.32412
-3.8049
0.168294
-9.05213
0.121428
-9.03667
0.0812701
-9.08495
0.0475067
-9.15576
0.0238455
-9.20805
0.00595875
-9.27011
-0.0100713
-9.30833
-0.0230622
-9.3567
-0.0301953
-9.42642
-0.033544
-9.47012
-0.0336915
-9.51127
-0.0308122
-9.54397
-0.0246361
-9.57702
-0.0155317
-9.60462
-0.00311609
-9.62983
0.0119836
-9.62035
0.0299879
-9.61456
0.0418776
-9.07143
0.0357891
-7.31803
-3.76911
0.0771262
-8.97768
0.0323569
-8.9919
-0.00583271
-9.04676
-0.0369566
-9.12464
-0.0559315
-9.18907
-0.0667931
-9.25925
-0.0744762
-9.30065
-0.0805238
-9.35065
-0.0822873
-9.42466
-0.0807184
-9.47169
-0.0759597
-9.51603
-0.0681771
-9.55175
-0.0571835
-9.58802
-0.0433851
-9.61842
-0.026463
-9.64676
-0.00784897
-9.63896
0.014923
-9.63733
0.0338764
-9.09039
0.033884
-7.31804
-3.73522
-0.00922211
-8.89997
-0.0541608
-8.94697
-0.0901881
-9.01073
-0.118206
-9.09662
-0.1326
-9.17468
-0.141809
-9.25004
-0.14798
-9.29448
-0.150693
-9.34794
-0.147447
-9.4279
-0.140336
-9.4788
-0.129869
-9.52649
-0.116349
-9.56527
-0.09949
-9.60487
-0.079682
-9.63822
-0.0564881
-9.66995
-0.0304699
-9.66498
-0.00101525
-9.66679
0.0238431
-9.11525
0.0306292
-7.32482
-3.70459
-0.0939351
-8.82119
-0.140429
-8.90047
-0.173289
-8.97787
-0.197677
-9.07224
-0.208017
-9.16434
-0.211284
-9.24677
-0.209771
-9.29599
-0.205919
-9.35179
-0.197643
-9.43618
-0.185828
-9.49062
-0.170666
-9.54166
-0.152469
-9.58347
-0.131038
-9.62631
-0.106796
-9.66247
-0.0793479
-9.6974
-0.0499712
-9.69436
-0.0159054
-9.70086
0.0157555
-9.14691
0.0285795
-7.33765
-3.67601
-0.172993
-8.73878
-0.221853
-8.85161
-0.254846
-8.94488
-0.27594
-9.05114
-0.282043
-9.15824
-0.283596
-9.24522
-0.280456
-9.29913
-0.273299
-9.35895
-0.260263
-9.44922
-0.243196
-9.50768
-0.222618
-9.56223
-0.198969
-9.60711
-0.171944
-9.65333
-0.141964
-9.69245
-0.108533
-9.73083
-0.0720662
-9.73083
-0.0315289
-9.74139
0.00586962
-9.18431
0.0254053
-7.35718
-3.65061
-0.253877
-8.65301
-0.303286
-8.8022
-0.333706
-8.91446
-0.350657
-9.03419
-0.353632
-9.15526
-0.350003
-9.24885
-0.339528
-9.30961
-0.326099
-9.37238
-0.308326
-9.46699
-0.286766
-9.52924
-0.261711
-9.58729
-0.233628
-9.6352
-0.202307
-9.68465
-0.168189
-9.72656
-0.130801
-9.76822
-0.0911488
-9.77048
-0.0461339
-9.78641
-0.00236707
-9.22807
0.0232372
-7.38279
-3.62737
-0.328823
-8.55922
-0.380117
-8.75091
-0.41112
-8.88345
-0.425428
-9.01988
-0.424095
-9.15659
-0.418825
-9.25412
-0.406827
-9.32161
-0.390251
-9.38895
-0.368053
-9.48919
-0.341558
-9.55574
-0.311399
-9.61745
-0.278173
-9.66842
-0.241568
-9.72126
-0.202021
-9.76611
-0.158951
-9.81129
-0.11257
-9.81686
-0.0613492
-9.83763
-0.0119053
-9.27752
0.0201304
-7.41482
-3.60724
-0.403838
-8.46145
-0.456129
-8.69862
-0.485028
-8.85455
-0.496128
-9.00878
-0.492423
-9.1603
-0.48192
-9.26462
-0.462896
-9.34063
-0.440425
-9.41142
-0.41377
-9.51584
-0.382998
-9.58651
-0.34859
-9.65186
-0.311182
-9.70583
-0.270568
-9.76187
-0.227203
-9.80948
-0.180508
-9.85798
-0.131139
-9.86623
-0.0757022
-9.89307
-0.0201846
-9.33303
0.0178342
-7.45284
-3.58941
-0.474344
-8.35382
-0.528165
-8.6448
-0.557317
-8.8254
-0.566321
-8.99978
-0.558703
-9.16792
-0.547017
-9.27631
-0.526634
-9.36101
-0.501084
-9.43697
-0.470284
-9.54664
-0.434904
-9.62189
-0.395713
-9.69105
-0.353487
-9.74806
-0.307933
-9.80742
-0.259486
-9.85792
-0.207436
-9.91003
-0.151747
-9.92192
-0.0905322
-9.95428
-0.0295574
-9.39401
0.0149979
-7.4974
-3.57441
-0.544447
-8.23976
-0.598858
-8.59039
-0.625662
-8.7986
-0.632822
-8.99262
-0.623145
-9.17759
-0.605838
-9.29362
-0.579125
-9.38773
-0.548285
-9.46782
-0.513341
-9.58159
-0.47394
-9.66129
-0.430751
-9.73424
-0.384608
-9.7942
-0.335337
-9.8567
-0.283425
-9.90984
-0.228122
-9.96533
-0.169631
-9.98041
-0.104532
-10.0194
-0.0379282
-9.46061
0.0128234
-7.54815
-3.56159
-0.613528
-8.11244
-0.668472
-8.53544
-0.693569
-8.7735
-0.698305
-8.98788
-0.685717
-9.19018
-0.66791
-9.31143
-0.639751
-9.41589
-0.605699
-9.50187
-0.56671
-9.62058
-0.522942
-9.70506
-0.475223
-9.78195
-0.424543
-9.84488
-0.370654
-9.91058
-0.314013
-9.96648
-0.253637
-10.0257
-0.189297
-10.0447
-0.118762
-10.0899
-0.0468722
-9.5325
0.0103767
-7.6054
-3.55121
-0.670404
-7.9853
-0.732876
-8.47297
-0.756647
-8.74973
-0.760864
-8.98367
-0.745679
-9.20537
-0.722243
-9.33486
-0.688896
-9.44923
-0.650359
-9.5404
-0.60741
-9.66353
-0.559803
-9.75266
-0.508284
-9.83347
-0.453907
-9.89926
-0.39655
-9.96794
-0.336816
-10.0262
-0.273496
-10.089
-0.206578
-10.1117
-0.132651
-10.1638
-0.0555185
-9.60963
0.00841555
-7.66933
-3.54279
-0.722574
-7.85391
-0.792606
-8.40294
-0.814088
-8.72825
-0.816506
-8.98125
-0.801111
-9.22076
-0.777147
-9.35883
-0.742918
-9.48346
-0.701578
-9.58174
-0.655408
-9.7097
-0.603942
-9.80413
-0.548712
-9.8887
-0.490225
-9.95775
-0.429029
-10.0291
-0.364926
-10.0903
-0.297395
-10.1566
-0.224612
-10.1844
-0.146851
-10.2416
-0.0639073
-9.69258
0.0058149
-7.73905
-3.53698
8.01146
-7.48268
-8.38269
7.39082
-7.78229
6.82686
-8.16429
6.25332
-8.40771
5.69152
-8.65896
5.17588
-8.84318
4.71284
-9.02042
4.30035
-9.16925
3.90492
-9.31428
3.53047
-9.42967
3.17243
-9.53067
2.82512
-9.61043
2.48291
-9.68693
2.14715
-9.75455
1.80416
-9.81357
1.50486
-9.88515
1.16948
-9.90623
0.803581
-9.32667
0.335912
-7.27138
-3.20107
4.7289
-7.40307
-4.80851
4.5861
-7.6395
4.36241
-7.9406
4.12754
-8.17284
3.87282
-8.40424
3.61659
-8.58695
3.35253
-8.75636
3.09007
-8.90679
2.8176
-9.04181
2.54243
-9.1545
2.26605
-9.25429
2.00279
-9.34717
1.7506
-9.43474
1.51113
-9.51508
1.28549
-9.58794
1.07243
-9.6721
0.827543
-9.66133
0.556152
-9.05528
0.182612
-6.89785
-3.01845
3.40973
-7.49428
-3.31852
3.45365
-7.68342
3.42696
-7.91391
3.35568
-8.10156
3.22658
-8.27514
3.07453
-8.4349
2.90032
-8.58215
2.71267
-8.71914
2.50964
-8.83878
2.30259
-8.94745
2.09342
-9.04512
1.88584
-9.1396
1.67231
-9.2212
1.45659
-9.29936
1.23686
-9.36821
1.00701
-9.44224
0.771386
-9.42571
0.528776
-8.81267
0.228551
-6.59762
-2.7899
2.19692
-7.65507
-2.03613
2.30307
-7.78957
2.31899
-7.92984
2.30105
-8.08362
2.24574
-8.21983
2.1667
-8.35586
2.06332
-8.47877
1.93957
-8.59539
1.80043
-8.69964
1.65289
-8.7999
1.50015
-8.89239
1.34309
-8.98254
1.18432
-9.06243
1.02833
-9.14338
0.871957
-9.21183
0.717532
-9.28782
0.563328
-9.27151
0.397827
-8.64717
0.170543
-6.37034
-2.61936
1.56746
-7.79324
-1.42929
1.65658
-7.87869
1.71713
-7.99039
1.75047
-8.11696
1.75074
-8.2201
1.71933
-8.32445
1.66255
-8.42199
1.58426
-8.5171
1.49199
-8.60737
1.38704
-8.69495
1.272
-8.77735
1.14723
-8.85777
1.01641
-8.93161
0.878847
-9.00581
0.736971
-9.06995
0.588424
-9.13927
0.43988
-9.12296
0.311218
-8.51851
0.156197
-6.21532
-2.46316
1.04199
-7.90469
-0.930535
1.14171
-7.97841
1.19884
-8.04752
1.21249
-8.13061
1.20548
-8.21309
1.18017
-8.29913
1.13842
-8.38024
1.08273
-8.46142
1.01557
-8.54021
0.937732
-8.6171
0.852127
-8.69174
0.760713
-8.76636
0.665624
-8.83652
0.568875
-8.90906
0.473198
-8.97428
0.379604
-9.04568
0.289189
-9.03255
0.219473
-8.44879
0.124067
-6.11991
-2.3391
0.715825
-7.98766
-0.63285
0.773801
-8.03638
0.813681
-8.0874
0.845831
-8.16276
0.862552
-8.22982
0.85738
-8.29396
0.835846
-8.35871
0.800344
-8.42591
0.752846
-8.49272
0.693689
-8.55795
0.62706
-8.62512
0.551471
-8.69077
0.470576
-8.75562
0.384047
-8.82253
0.295362
-8.88559
0.20391
-8.95423
0.114838
-8.94348
0.0745658
-8.40852
0.0659837
-6.11133
-2.27311
0.487624
-8.04413
-0.43116
0.535841
-8.0846
0.573737
-8.12529
0.589596
-8.17862
0.586099
-8.22632
0.56896
-8.27682
0.54129
-8.33104
0.502164
-8.38679
0.454407
-8.44496
0.400892
-8.50443
0.340826
-8.56505
0.275574
-8.62552
0.208525
-8.68857
0.137866
-8.75188
0.0682161
-8.81594
-0.00220077
-8.88381
-0.0635138
-8.88216
-0.0630568
-8.40898
0.0290352
-6.20342
-2.24408
0.297436
-8.07906
-0.262505
0.322079
-8.10924
0.338595
-8.14181
0.341927
-8.18195
0.338546
-8.22294
0.328776
-8.26705
0.310181
-8.31244
0.280675
-8.35728
0.241598
-8.40588
0.193223
-8.45606
0.137825
-8.50965
0.0746217
-8.56231
0.00657027
-8.62052
-0.0666338
-8.67867
-0.138461
-8.74412
-0.209994
-8.81228
-0.265949
-8.82621
-0.238746
-8.43618
-0.0473487
-6.39482
-2.29143
0.190189
-8.09727
-0.171981
0.204221
-8.12328
0.211379
-8.14897
0.209639
-8.18021
0.198111
-8.21141
0.174293
-8.24323
0.141183
-8.27933
0.101094
-8.31719
0.054969
-8.35976
-0.000230397
-8.40086
-0.0612404
-8.44864
-0.128767
-8.49479
-0.200918
-8.54837
-0.278146
-8.60144
-0.358893
-8.66337
-0.444072
-8.7271
-0.506029
-8.76425
-0.472232
-8.46998
-0.186366
-6.68068
-2.47779
0.0840682
-8.10284
-0.0784996
0.0833222
-8.12253
0.0774734
-8.14312
0.0626303
-8.16537
0.0406183
-8.1894
0.0117394
-8.21435
-0.0230056
-8.24459
-0.0655578
-8.27464
-0.115209
-8.31011
-0.171838
-8.34423
-0.236773
-8.38371
-0.310237
-8.42132
-0.392752
-8.46586
-0.485558
-8.50864
-0.587891
-8.56104
-0.701663
-8.61332
-0.802846
-8.66307
-0.799674
-8.47315
-0.42068
-7.05968
-2.89847
0.0248349
-8.1016
-0.0260708
0.0165398
-8.11424
0.00442739
-8.13101
-0.0133574
-8.14758
-0.0363543
-8.1664
-0.0668983
-8.18381
-0.10611
-8.20537
-0.154869
-8.22588
-0.21236
-8.25262
-0.276672
-8.27991
-0.349933
-8.31045
-0.43221
-8.33905
-0.527139
-8.37093
-0.635257
-8.40052
-0.760001
-8.43629
-0.907384
-8.46594
-1.05763
-8.51282
-1.10441
-8.42637
-0.761675
-7.40241
-3.66015
-0.0227243
-8.0911
0.0122252
-0.0376083
-8.09935
-0.0577125
-8.1109
-0.084225
-8.12107
-0.115568
-8.13506
-0.152002
-8.14738
-0.19206
-8.16532
-0.237843
-8.1801
-0.292563
-8.19789
-0.358184
-8.21429
-0.435032
-8.2336
-0.522122
-8.25195
-0.617941
-8.27511
-0.727951
-8.29051
-0.851836
-8.31241
-0.999005
-8.31877
-1.17756
-8.33426
-1.30712
-8.29681
-1.06344
-7.64609
-4.72359
-0.0512447
-8.0773
0.0374454
-0.067463
-8.08313
-0.0865196
-8.09184
-0.109508
-8.09808
-0.136678
-8.10789
-0.169028
-8.11502
-0.207609
-8.12674
-0.251597
-8.13611
-0.301051
-8.14844
-0.360215
-8.15513
-0.425491
-8.16832
-0.50055
-8.1769
-0.588073
-8.18759
-0.687546
-8.19104
-0.804351
-8.1956
-0.930066
-8.19306
-1.08556
-8.17876
-1.23219
-8.15018
-1.03959
-7.8387
-5.76317
-0.0644558
-8.06161
0.0487665
-0.0828439
-8.06475
-0.104603
-8.07009
-0.128634
-8.07405
-0.155878
-8.08064
-0.18584
-8.08506
-0.220626
-8.09195
-0.259674
-8.09706
-0.303682
-8.10443
-0.353193
-8.10562
-0.407206
-8.11431
-0.467332
-8.11677
-0.53193
-8.12299
-0.604334
-8.11863
-0.682166
-8.11777
-0.77154
-8.10368
-0.867314
-8.08299
-0.969199
-8.0483
-0.86612
-7.94178
-6.62929
-0.0656482
-8.0482
0.0522336
-0.0803438
-8.05005
-0.0973478
-8.05308
-0.116015
-8.05538
-0.137288
-8.05937
-0.160567
-8.06178
-0.187231
-8.06529
-0.21697
-8.06732
-0.250049
-8.07136
-0.283015
-8.07265
-0.321838
-8.07549
-0.366276
-8.07233
-0.416269
-8.07299
-0.468129
-8.06677
-0.522766
-8.06313
-0.577947
-8.0485
-0.623184
-8.03775
-0.668804
-8.00268
-0.636164
-7.97442
-7.26546
-0.0600589
-8.03606
0.0479187
-0.0733487
-8.03676
-0.0878187
-8.03861
-0.103698
-8.0395
-0.121267
-8.0418
-0.140377
-8.04267
-0.160773
-8.04489
-0.181701
-8.0464
-0.20433
-8.04873
-0.229261
-8.04772
-0.255903
-8.04885
-0.280288
-8.04795
-0.304613
-8.04867
-0.328181
-8.0432
-0.349749
-8.04157
-0.36611
-8.03214
-0.374969
-8.02889
-0.364871
-8.01278
-0.338591
-8.0007
-7.60405
-0.0465852
-8.02749
0.0380196