/*--------------------------------*- C++ -*----------------------------------*\
  =========                 |
  \\      /  F ield         | OpenFOAM: The Open Source CFD Toolbox
   \\    /   O peration     | Website:  https://openfoam.org
    \\  /    A nd           | Version:  9
     \\/     M anipulation  |
\*---------------------------------------------------------------------------*/
FoamFile
{
    format      ascii;
    class       volVectorField;
    location    "3";
    object      U;
}
// * * * * * * * * * * * * * * * * * * * * * * * * * * * * * * * * * * * * * //

dimensions      [0 1 -1 0 0 0 0];

internalField   nonuniform List<vector> 
46400
(
(7.61462 -7.49907 -2.14747e-19)
(16.0569 -15.1999 1.72145e-19)
(17.4259 -17.3258 -5.79759e-20)
(16.8898 -17.4051 -4.51084e-20)
(16.3542 -17.365 -4.36107e-20)
(15.7664 -17.3923 1.85786e-20)
(15.3049 -17.3984 -3.67514e-20)
(14.8177 -17.424 3.32161e-20)
(14.3791 -17.4528 -3.94426e-20)
(13.9551 -17.465 4.48865e-20)
(13.571 -17.527 -4.95886e-20)
(13.1953 -17.5448 0)
(12.8606 -17.6248 3.43106e-19)
(12.5424 -17.6775 -3.94048e-19)
(12.2117 -17.7146 -5.1419e-19)
(11.9218 -17.7635 -9.36064e-20)
(11.6318 -17.8433 -2.73666e-20)
(11.3652 -17.8547 4.16253e-19)
(11.0831 -17.8191 5.79673e-19)
(10.6762 -18.0172 -5.33783e-19)
(7.93887 -7.13578 0)
(16.2032 -14.3178 -2.85033e-20)
(17.3554 -16.0434 0)
(16.7651 -16.1324 6.2994e-20)
(16.2668 -16.1948 -6.47965e-20)
(15.7405 -16.2833 1.76769e-20)
(15.2875 -16.3796 0)
(14.7882 -16.4058 -3.32143e-20)
(14.3183 -16.4514 3.94405e-20)
(13.9151 -16.5258 -4.48843e-20)
(13.4962 -16.5817 5.46806e-19)
(13.1395 -16.6636 3.50134e-20)
(12.7854 -16.7537 -4.58686e-19)
(12.4566 -16.8186 0)
(12.1565 -16.932 6.29779e-20)
(11.8616 -16.9873 6.53372e-20)
(11.576 -17.0802 0)
(11.3441 -17.136 -6.34267e-19)
(11.1072 -17.1864 -1.64988e-19)
(10.771 -17.3838 6.46137e-19)
(8.23386 -6.75556 1.00965e-20)
(16.2588 -13.3964 -1.09896e-19)
(17.225 -14.8342 9.48913e-20)
(16.5865 -15.0123 1.81934e-19)
(16.0619 -15.0601 -1.78613e-19)
(15.4674 -15.1699 0)
(15.0038 -15.276 -6.08436e-19)
(14.5297 -15.3876 5.23589e-19)
(14.0706 -15.4795 -6.91804e-19)
(13.6419 -15.5565 6.8505e-19)
(13.2512 -15.6811 6.59708e-19)
(12.8607 -15.7416 -6.24986e-20)
(12.5301 -15.8896 -5.74009e-19)
(12.2052 -15.9842 0)
(11.8775 -16.0825 7.19127e-19)
(11.6035 -16.202 -7.08223e-19)
(11.3158 -16.3222 0)
(11.0726 -16.4004 -1.48692e-20)
(10.8119 -16.4818 8.31351e-20)
(10.465 -16.7248 -7.68316e-19)
(8.41612 -6.32034 -1.35759e-19)
(16.2064 -12.4523 2.85838e-20)
(16.9153 -13.5682 2.60893e-19)
(16.2749 -13.7734 -2.5761e-19)
(15.7881 -13.9266 -2.31709e-19)
(15.2631 -14.0811 3.16447e-19)
(14.806 -14.2645 4.3974e-19)
(14.322 -14.3636 -1.1174e-18)
(13.8512 -14.492 9.38579e-19)
(13.4505 -14.6206 -8.7954e-20)
(13.0383 -14.7496 0)
(12.6777 -14.8743 9.29258e-20)
(12.3151 -15.0053 -9.4702e-20)
(12.0119 -15.1501 0)
(11.7064 -15.2999 8.5274e-19)
(11.4056 -15.3963 -7.25656e-19)
(11.1335 -15.5582 0)
(10.9128 -15.6933 9.86378e-20)
(10.6841 -15.8237 1.11738e-19)
(10.3221 -16.0841 8.91505e-19)
(8.56613 -5.8744 0)
(16.0181 -11.3981 0)
(16.5708 -12.4026 -3.79488e-19)
(15.9066 -12.6407 2.6221e-19)
(15.3837 -12.7975 -5.21633e-19)
(14.8035 -12.9716 4.23466e-19)
(14.3467 -13.1769 0)
(13.9039 -13.3737 4.73773e-19)
(13.4363 -13.5304 -5.72981e-19)
(13.0125 -13.6738 -1.30934e-19)
(12.6316 -13.8686 -1.3169e-19)
(12.2416 -13.9841 0)
(11.9066 -14.1784 9.90792e-19)
(11.5782 -14.3139 -9.75305e-19)
(11.2794 -14.4978 0)
(11.0076 -14.6563 -1.09753e-18)
(10.6938 -14.7774 9.68741e-19)
(10.4564 -14.9094 9.71221e-19)
(10.2413 -15.0898 -1.05994e-18)
(9.91817 -15.387 0)
(8.76273 -5.42381 0)
(15.6718 -10.2229 0)
(16.0755 -11.1333 0)
(15.4405 -11.419 -2.88848e-20)
(14.9522 -11.679 0)
(14.4356 -11.9019 0)
(13.9728 -12.1679 0)
(13.5237 -12.3537 -1.51191e-19)
(13.0714 -12.5738 0)
(12.6685 -12.7469 1.30933e-19)
(12.2776 -12.9576 -2.00083e-20)
(11.9271 -13.1343 -1.29175e-18)
(11.5598 -13.308 9.72336e-19)
(11.2681 -13.5063 -1.27849e-18)
(10.9559 -13.691 9.64203e-19)
(10.7007 -13.8908 0)
(10.4395 -14.1029 -1.10098e-18)
(10.1659 -14.2131 9.41566e-19)
(9.94199 -14.3881 0)
(9.62363 -14.7205 -1.48821e-19)
(8.98985 -5.0388 5.41507e-19)
(15.224 -9.13346 1.58095e-19)
(15.463 -9.97052 6.18361e-19)
(14.8164 -10.2931 -6.38898e-19)
(14.3039 -10.5891 -6.45906e-19)
(13.7557 -10.8345 1.28673e-18)
(13.3195 -11.1451 -1.47066e-18)
(12.9226 -11.4225 1.38814e-19)
(12.4765 -11.6575 4.72299e-19)
(12.0711 -11.8643 0)
(11.7108 -12.1211 -1.95066e-20)
(11.3525 -12.3087 -1.85783e-20)
(11.0197 -12.5351 1.50208e-19)
(10.6937 -12.7018 1.24718e-18)
(10.4043 -12.9223 -1.09682e-18)
(10.1256 -13.0945 -1.3959e-18)
(9.8772 -13.3241 1.21574e-18)
(9.65398 -13.5024 -1.41895e-20)
(9.41267 -13.6484 -1.54885e-19)
(9.11891 -13.9831 -1.11154e-18)
(9.23061 -4.61794 -1.81545e-19)
(14.6147 -8.04794 3.16125e-20)
(14.7051 -8.76587 -1.95858e-19)
(14.1341 -9.13696 -7.73591e-19)
(13.6913 -9.53881 5.34177e-19)
(13.2139 -9.83467 0)
(12.7557 -10.1798 1.1192e-18)
(12.3707 -10.4606 -5.39456e-19)
(11.9691 -10.7773 3.67505e-19)
(11.5689 -10.9873 1.9208e-19)
(11.207 -11.2701 -3.64009e-19)
(10.894 -11.5127 8.83016e-19)
(10.5531 -11.7486 1.84806e-19)
(10.2788 -11.9863 -1.04784e-18)
(9.97499 -12.2053 2.92966e-18)
(9.72638 -12.4309 -1.19329e-18)
(9.46147 -12.6542 1.50811e-18)
(9.24175 -12.8549 -9.86834e-19)
(9.02843 -13.0622 3.22821e-19)
(8.72708 -13.3527 1.55827e-18)
(9.43914 -4.22051 9.36024e-19)
(13.9082 -7.07348 -1.92464e-19)
(13.8146 -7.72941 -2.81689e-20)
(13.2704 -8.13182 4.21902e-19)
(12.7894 -8.55561 1.98215e-19)
(12.3194 -8.87094 2.21208e-19)
(11.9238 -9.27481 -1.03426e-18)
(11.5802 -9.61703 6.26983e-19)
(11.2095 -9.94929 -1.94105e-19)
(10.8471 -10.2148 -1.92087e-19)
(10.4944 -10.498 -1.89848e-19)
(10.1893 -10.7588 -2.0429e-19)
(9.88411 -11.0243 -3.85712e-19)
(9.5842 -11.2315 1.33576e-18)
(9.32384 -11.4887 -1.86773e-18)
(9.05651 -11.6807 -1.90386e-19)
(8.83702 -11.9452 1.32924e-20)
(8.61925 -12.1371 -1.40197e-18)
(8.43861 -12.3812 1.04589e-18)
(8.20457 -12.7108 -1.66366e-18)
(9.51056 -3.91407 8.45483e-19)
(13.0238 -6.06666 -2.14076e-18)
(12.7997 -6.72218 1.41848e-18)
(12.3873 -7.13279 -2.24089e-19)
(12.0423 -7.67648 -2.45806e-19)
(11.6151 -8.01621 9.54024e-19)
(11.1791 -8.41434 -1.15561e-18)
(10.8698 -8.78121 0)
(10.5503 -9.19028 8.94027e-19)
(10.2018 -9.4626 -8.7916e-19)
(9.86403 -9.78523 -6.40561e-19)
(9.58617 -10.0758 8.34991e-19)
(9.31004 -10.3955 2.00873e-19)
(9.05984 -10.6658 -8.18485e-19)
(8.78723 -10.9276 1.96909e-19)
(8.54925 -11.1636 9.81137e-19)
(8.28652 -11.3857 -1.73096e-18)
(8.08117 -11.6013 1.14248e-18)
(7.86133 -11.8065 -1.137e-20)
(7.64178 -12.1351 -1.58878e-18)
(9.32624 -3.5335 1.17651e-18)
(12.0943 -5.24731 -7.93841e-19)
(11.8039 -5.89458 5.31002e-19)
(11.3484 -6.3082 7.1744e-21)
(10.95 -6.80795 -1.04517e-18)
(10.6018 -7.21284 -9.94175e-19)
(10.2302 -7.64353 1.23578e-18)
(9.90965 -8.01474 -7.26825e-19)
(9.65057 -8.45003 9.64057e-19)
(9.3837 -8.80375 0)
(9.04034 -9.09195 1.53483e-20)
(8.75337 -9.37311 2.20084e-19)
(8.48922 -9.67732 2.29816e-19)
(8.25742 -9.9655 -2.24982e-19)
(8.05158 -10.281 0)
(7.84131 -10.5446 2.15487e-19)
(7.65063 -10.8357 0)
(7.44383 -11.042 4.0165e-19)
(7.27118 -11.2925 1.95835e-18)
(7.0424 -11.5597 -1.42525e-20)
(8.92962 -3.08772 6.50409e-19)
(11.0177 -4.42325 -1.37398e-19)
(10.6884 -5.06776 -2.00295e-18)
(10.3805 -5.53329 1.12107e-18)
(10.1114 -6.12941 2.66787e-19)
(9.7574 -6.5145 -2.62684e-19)
(9.37735 -6.95806 -1.06886e-18)
(9.08407 -7.33718 7.96567e-19)
(8.80854 -7.79127 0)
(8.61495 -8.20529 0)
(8.37107 -8.6129 -1.22498e-18)
(8.09379 -8.89476 9.69643e-19)
(7.82932 -9.21686 -2.29831e-19)
(7.5771 -9.47083 -6.97756e-19)
(7.34706 -9.77499 6.19853e-21)
(7.14939 -10.0468 1.55518e-18)
(6.95723 -10.3509 -8.68899e-19)
(6.79725 -10.6184 6.36835e-19)
(6.6255 -10.891 -1.03249e-18)
(6.45602 -11.2252 0)
(8.32312 -2.61212 -5.67729e-19)
(9.9476 -3.72956 9.18195e-19)
(9.59185 -4.37538 1.56892e-19)
(9.18572 -4.8013 1.5418e-19)
(8.90055 -5.38351 0)
(8.6915 -5.87209 1.15555e-18)
(8.3644 -6.32852 -1.13537e-18)
(8.04356 -6.68997 1.42314e-19)
(7.77297 -7.10925 0)
(7.56533 -7.51147 1.06103e-18)
(7.38826 -7.95411 -9.10556e-19)
(7.20849 -8.3333 1.01388e-18)
(6.99733 -8.68402 -9.97877e-19)
(6.79583 -8.98751 9.67944e-19)
(6.58 -9.27495 -8.3193e-19)
(6.37944 -9.52993 -9.23656e-19)
(6.18861 -9.80408 1.81223e-18)
(6.01131 -10.0347 -7.76229e-19)
(5.85785 -10.3007 1.10137e-19)
(5.67563 -10.5964 9.24939e-19)
(7.5486 -2.12694 -4.54736e-19)
(8.75004 -3.0571 4.91438e-19)
(8.44669 -3.73528 -1.56897e-19)
(8.18432 -4.23491 -1.54176e-19)
(7.91626 -4.83817 0)
(7.68915 -5.31015 0)
(7.46645 -5.85447 0)
(7.22251 -6.25963 -2.91016e-19)
(6.9251 -6.67403 -1.13672e-18)
(6.70573 -7.0486 2.22819e-18)
(6.50042 -7.47883 -1.22527e-18)
(6.34469 -7.868 -1.35275e-19)
(6.18874 -8.29833 0)
(6.03091 -8.63909 0)
(5.88077 -9.02472 -2.46865e-19)
(5.71497 -9.30444 0)
(5.56366 -9.6377 9.37286e-19)
(5.40423 -9.8679 -1.1531e-18)
(5.26263 -10.15 -1.00201e-18)
(5.10807 -10.4115 9.73193e-19)
(6.64585 -1.66316 4.74215e-19)
(7.56384 -2.49978 8.58782e-19)
(7.20942 -3.17266 -4.51078e-23)
(6.85645 -3.62235 -1.2022e-21)
(6.65314 -4.24972 1.63258e-19)
(6.50045 -4.77462 -4.74558e-19)
(6.28165 -5.29579 0)
(6.12006 -5.76174 -4.55858e-19)
(5.90542 -6.20408 1.54665e-19)
(5.6837 -6.55532 5.80465e-19)
(5.49667 -6.96134 5.62239e-19)
(5.30937 -7.28966 -4.1781e-19)
(5.17432 -7.70018 1.07024e-18)
(5.02748 -8.03381 -9.2047e-19)
(4.90943 -8.42662 1.14392e-18)
(4.78546 -8.75555 -2.12216e-18)
(4.66762 -9.11465 9.78154e-19)
(4.55738 -9.42122 1.16772e-19)
(4.44193 -9.73235 9.20366e-19)
(4.32831 -10.0695 -1.00568e-18)
(5.59568 -1.21189 1.6541e-19)
(6.19882 -1.99659 -1.75255e-19)
(6.05223 -2.74754 7.01732e-19)
(5.81872 -3.25166 -6.88855e-19)
(5.51385 -3.82053 -3.3566e-19)
(5.40482 -4.37187 -8.17331e-19)
(5.27818 -4.9765 4.02704e-21)
(5.13728 -5.45773 6.29218e-19)
(5.02174 -6.01565 -1.50515e-19)
(4.85035 -6.40776 0)
(4.6975 -6.86443 0)
(4.53192 -7.19727 0)
(4.37623 -7.5859 0)
(4.24205 -7.89793 3.43447e-21)
(4.10103 -8.24796 0)
(3.99007 -8.54851 1.26485e-19)
(3.86425 -8.8757 4.9743e-19)
(3.76622 -9.15795 -1.46031e-18)
(3.65615 -9.45344 1.07615e-18)
(3.55398 -9.76844 -1.02057e-18)
(4.62299 -0.916938 0)
(4.83328 -1.62559 -9.32132e-20)
(4.71356 -2.36081 0)
(4.54248 -2.87131 2.63135e-19)
(4.30162 -3.43384 -1.75628e-19)
(4.07204 -3.83844 -6.72544e-19)
(3.96423 -4.41341 4.29072e-21)
(3.83721 -4.85392 6.44967e-19)
(3.76313 -5.40296 -6.24396e-19)
(3.68467 -5.85838 1.22271e-18)
(3.59327 -6.34616 -5.43533e-21)
(3.51167 -6.76851 -5.83767e-19)
(3.41029 -7.1946 5.63436e-19)
(3.32504 -7.57397 -6.91048e-19)
(3.22559 -7.95254 0)
(3.14313 -8.2928 -5.21277e-19)
(3.0502 -8.63878 5.13504e-19)
(2.97309 -8.9419 0)
(2.89063 -9.24955 -1.20124e-19)
(2.811 -9.56753 0)
(3.16357 -0.596801 9.51088e-20)
(3.32925 -1.30127 9.31807e-20)
(3.45821 -2.1855 0)
(3.42653 -2.80441 3.58807e-19)
(3.33129 -3.49098 -4.42701e-19)
(3.1867 -3.9556 2.5652e-19)
(3.0198 -4.49295 -7.56343e-19)
(2.90903 -4.90982 3.28872e-19)
(2.76645 -5.38728 -8.03324e-20)
(2.68645 -5.78758 0)
(2.58329 -6.238 -7.62692e-20)
(2.5132 -6.61238 -7.42997e-20)
(2.42928 -7.0341 -7.2383e-20)
(2.36596 -7.37871 0)
(2.29416 -7.77134 -5.43639e-19)
(2.23285 -8.08615 1.13195e-18)
(2.16849 -8.4538 -9.72622e-19)
(2.10669 -8.73708 5.08493e-19)
(2.04744 -9.06339 6.1965e-20)
(1.9797 -9.36897 5.29061e-19)
(2.27512 -0.564167 -1.45344e-19)
(1.82721 -0.914117 -1.90742e-19)
(1.80866 -1.67642 5.54821e-22)
(1.8618 -2.20738 5.02287e-19)
(1.87482 -2.95665 -1.35094e-19)
(1.85274 -3.48362 -8.71014e-20)
(1.82645 -4.12915 8.57829e-20)
(1.76763 -4.59652 1.66491e-19)
(1.72265 -5.1561 8.03126e-20)
(1.66065 -5.56841 -3.13474e-19)
(1.62012 -6.0716 3.46134e-19)
(1.56494 -6.4456 7.42937e-20)
(1.52447 -6.89939 3.62022e-19)
(1.47223 -7.24104 -3.0127e-21)
(1.43274 -7.65067 3.16414e-20)
(1.38605 -7.96366 -6.05208e-19)
(1.34855 -8.33737 1.6561e-19)
(1.309 -8.62187 0)
(1.27438 -8.94492 -3.07509e-20)
(1.23691 -9.24701 -2.67474e-19)
(0.482359 -1.08203 0)
(0.99258 -1.02813 -9.38834e-20)
(0.746479 -2.05726 1.06542e-19)
(0.745596 -2.33595 -4.6346e-20)
(0.6246 -3.0999 -4.53414e-20)
(0.648009 -3.4838 0)
(0.575363 -4.14757 -8.52331e-20)
(0.601493 -4.5408 1.66818e-19)
(0.55095 -5.12813 -8.16466e-20)
(0.555158 -5.50109 7.88117e-20)
(0.511732 -6.01998 -3.90537e-20)
(0.519257 -6.37313 -7.47489e-20)
(0.483686 -6.83863 1.46354e-19)
(0.494963 -7.16982 -1.42546e-19)
(0.465613 -7.59082 3.51767e-20)
(0.474761 -7.89779 2.40179e-34)
(0.450037 -8.28324 -3.26532e-20)
(0.455325 -8.56288 1.92232e-19)
(0.435411 -8.89942 -9.48672e-20)
(0.439242 -9.19919 -6.80313e-20)
(-0.11498 1.0776 3.00525e-20)
(-0.244243 1.25943 2.36747e-20)
(0.297526 -0.207686 0)
(1.43352 -4.19511 2.24751e-20)
(4.34847 -12.3288 2.19329e-20)
(7.1017 -20.0697 2.1428e-20)
(8.70495 -24.3613 0)
(9.31299 -26.1827 1.97973e-20)
(9.5116 -26.7707 0)
(9.55031 -26.9512 0)
(9.53257 -26.9567 -1.59194e-20)
(9.49539 -26.9156 4.79816e-22)
(9.40424 -26.8372 3.55137e-20)
(9.33584 -26.7648 0)
(9.3018 -26.7896 1.50009e-20)
(9.2602 -26.7686 1.57745e-20)
(9.179 -26.7469 1.55792e-20)
(9.12727 -26.6949 0)
(9.06077 -26.7233 -2.90502e-20)
(9.03121 -26.699 2.69292e-20)
(-0.283263 1.36011 7.27773e-20)
(0.0915825 0.604202 -1.18765e-19)
(0.692208 -2.28028 0)
(3.15469 -9.13767 -1.07631e-19)
(6.49176 -17.8769 7.49724e-20)
(8.50293 -23.2929 -1.93632e-19)
(9.40397 -25.847 8.30324e-20)
(9.69394 -26.6413 5.7937e-20)
(9.75052 -26.8657 -2.48637e-19)
(9.74133 -26.86 1.33487e-19)
(9.68761 -26.8311 -1.73227e-20)
(9.6162 -26.719 1.39751e-19)
(9.53505 -26.6677 -2.18966e-21)
(9.51038 -26.6531 -1.31419e-19)
(9.43273 -26.6465 -1.60354e-20)
(9.37905 -26.5748 -1.60508e-20)
(9.29366 -26.5732 -1.55805e-20)
(9.26734 -26.5691 0)
(9.17573 -26.5728 -1.08915e-19)
(9.13917 -26.4967 1.54281e-21)
(-0.236142 1.26635 -4.88348e-20)
(0.385678 -0.399218 0)
(1.6742 -5.01227 0)
(5.33518 -14.429 -4.54713e-20)
(7.95408 -21.5721 4.42601e-20)
(9.36122 -25.3077 0)
(9.81881 -26.4783 -4.03535e-20)
(9.91316 -26.8095 1.08328e-19)
(9.91018 -26.8128 -1.01535e-19)
(9.87181 -26.78 1.35186e-19)
(9.78812 -26.6724 -1.79e-19)
(9.72383 -26.5761 0)
(9.66404 -26.5679 -1.34238e-19)
(9.61751 -26.4997 -1.2723e-19)
(9.52495 -26.4569 2.2467e-19)
(9.49111 -26.4281 -2.37151e-19)
(9.41687 -26.4467 1.97546e-19)
(9.38151 -26.3813 0)
(9.25867 -26.3516 -2.43298e-19)
(9.23519 -26.2867 4.02682e-19)
(0.0778375 0.978993 2.03688e-19)
(0.677303 -2.03741 0)
(3.33334 -9.23751 6.55306e-20)
(7.15799 -18.4628 2.90912e-20)
(9.16173 -24.0373 -2.68828e-19)
(9.97729 -26.0998 8.46302e-20)
(10.146 -26.6764 4.12074e-20)
(10.1786 -26.7415 4.07277e-19)
(10.1426 -26.7136 -5.58199e-19)
(10.0601 -26.5899 -6.50444e-20)
(9.97561 -26.481 3.25085e-19)
(9.92144 -26.4264 6.80012e-20)
(9.84423 -26.372 -3.27417e-19)
(9.79306 -26.3084 3.20773e-19)
(9.71307 -26.3123 9.17224e-20)
(9.6774 -26.2639 -5.73925e-20)
(9.57406 -26.2506 8.3997e-20)
(9.52152 -26.1535 0)
(9.408 -26.157 -2.42136e-20)
(9.39124 -26.0889 0)
(0.401315 0.0722362 0)
(1.27446 -3.94052 3.81722e-19)
(5.04303 -13.2995 -4.67332e-19)
(8.32571 -21.6116 4.56412e-19)
(9.88933 -25.3966 -3.61215e-19)
(10.2789 -26.5101 -8.49992e-20)
(10.3922 -26.7072 0)
(10.3643 -26.6895 2.11638e-19)
(10.2922 -26.5619 -2.96495e-19)
(10.1987 -26.4192 3.62444e-19)
(10.1416 -26.3515 -2.84011e-19)
(10.0695 -26.2633 -6.8003e-20)
(10.0063 -26.2288 3.20368e-19)
(9.95038 -26.1738 -5.58684e-19)
(9.85429 -26.1238 3.57344e-19)
(9.81269 -26.0643 -1.16863e-19)
(9.69684 -26.0359 -2.72486e-19)
(9.66259 -25.968 6.20412e-19)
(9.5393 -25.9588 -3.46479e-19)
(9.51431 -25.8486 -4.08531e-19)
(0.385301 -0.950496 4.02332e-19)
(2.17439 -6.17764 3.89402e-19)
(6.68384 -16.8799 -3.83007e-19)
(9.45732 -23.5535 -9.39984e-20)
(10.4572 -26.0781 8.91487e-20)
(10.7189 -26.6182 3.23285e-19)
(10.6903 -26.6218 -3.04505e-19)
(10.6461 -26.5263 0)
(10.5357 -26.3464 2.96607e-19)
(10.4756 -26.2594 -2.91769e-19)
(10.3904 -26.1509 -2.70652e-19)
(10.3209 -26.0883 2.66261e-19)
(10.2404 -26.0248 0)
(10.1571 -25.9321 0)
(10.0705 -25.9129 5.11477e-19)
(10.0175 -25.8553 -5.02102e-19)
(9.89048 -25.823 -4.15822e-19)
(9.84491 -25.7236 4.04237e-19)
(9.69468 -25.7105 -3.71848e-19)
(9.67314 -25.5911 4.45371e-19)
(0.382417 -1.89573 -3.05771e-19)
(3.46288 -9.32038 1.05019e-19)
(7.94209 -19.539 6.35693e-21)
(10.2585 -24.9794 4.81005e-19)
(10.8976 -26.4473 0)
(10.9712 -26.5888 0)
(10.9604 -26.5321 6.08462e-19)
(10.8632 -26.3545 -2.13714e-20)
(10.7875 -26.2199 -6.05348e-19)
(10.6871 -26.0717 5.55564e-19)
(10.61 -25.9801 -5.46421e-19)
(10.5196 -25.8799 0)
(10.4356 -25.8087 4.78477e-19)
(10.3571 -25.7515 -4.70952e-19)
(10.26 -25.6963 0)
(10.1843 -25.6149 0)
(10.0507 -25.5583 0)
(10.0066 -25.4824 0)
(9.84927 -25.4689 0)
(9.82278 -25.3135 -4.31181e-20)
(0.652221 -2.73646 3.24318e-19)
(4.72827 -11.7618 -5.24676e-19)
(9.12708 -21.5706 0)
(11.0365 -25.6878 0)
(11.3848 -26.5071 8.20296e-19)
(11.4227 -26.5134 5.52791e-20)
(11.3374 -26.3595 -7.26758e-19)
(11.2261 -26.1544 0)
(11.1052 -25.9602 7.23453e-20)
(11.0162 -25.8488 -6.81306e-20)
(10.9099 -25.7252 0)
(10.8162 -25.6442 6.06131e-20)
(10.7176 -25.5701 -5.16993e-19)
(10.6044 -25.4634 9.42641e-19)
(10.4999 -25.4152 -1.55333e-20)
(10.4103 -25.3413 -4.07401e-19)
(10.2706 -25.2981 -4.6065e-20)
(10.2124 -25.1993 4.33337e-20)
(10.023 -25.1748 0)
(9.99297 -24.9954 3.82212e-20)
(1.05562 -3.66119 2.16247e-19)
(6.11786 -13.9999 2.04437e-19)
(10.2595 -22.9834 -6.44148e-19)
(11.7321 -26.1102 1.99976e-19)
(11.8968 -26.4615 9.05786e-20)
(11.825 -26.3395 7.44401e-19)
(11.6844 -26.0993 -1.0616e-18)
(11.5586 -25.9 7.76168e-19)
(11.4464 -25.7539 -6.31711e-19)
(11.3106 -25.5922 7.49898e-19)
(11.1957 -25.4796 1.23473e-19)
(11.0705 -25.3661 5.20327e-19)
(10.9488 -25.2669 -2.91637e-19)
(10.8352 -25.1978 -5.69973e-19)
(10.7198 -25.1337 5.03433e-19)
(10.6018 -25.0447 0)
(10.4533 -24.9726 1.31742e-19)
(10.3805 -24.8917 3.6984e-20)
(10.1834 -24.8692 -7.57877e-20)
(10.1471 -24.6745 3.2155e-20)
(1.75677 -4.768 -1.45278e-19)
(7.42745 -15.5577 3.38714e-19)
(11.3142 -23.8833 9.57638e-22)
(12.4345 -26.1209 -3.99659e-19)
(12.4383 -26.2256 -3.62048e-19)
(12.3197 -26.0226 -1.69379e-19)
(12.1633 -25.8285 -4.13921e-21)
(12.0007 -25.6074 -1.50638e-19)
(11.8253 -25.3858 0)
(11.6838 -25.2534 -1.31745e-19)
(11.5333 -25.1168 -1.23463e-19)
(11.3986 -25.0199 -6.58373e-21)
(11.2639 -24.9412 4.05817e-19)
(11.1154 -24.8311 -2.08582e-19)
(10.9792 -24.7669 -4.59589e-19)
(10.8451 -24.6859 3.5775e-19)
(10.691 -24.6336 2.35629e-19)
(10.5925 -24.5395 -3.97273e-19)
(10.3739 -24.5068 7.64285e-20)
(10.3225 -24.2985 4.64307e-19)
(2.39955 -5.50691 0)
(8.48921 -16.7075 9.44799e-19)
(12.3509 -24.3439 -1.25101e-18)
(13.0783 -25.9555 1.00047e-18)
(12.9962 -25.9105 8.67531e-19)
(12.7826 -25.655 -6.87709e-19)
(12.5763 -25.4171 -9.0819e-19)
(12.3686 -25.1932 3.49701e-20)
(12.1984 -25.0435 5.45246e-19)
(12.0089 -24.8808 -3.57821e-19)
(11.8442 -24.7623 9.10452e-19)
(11.6729 -24.6475 -5.44166e-19)
(11.5042 -24.5372 -1.01951e-19)
(11.3487 -24.4614 2.61037e-19)
(11.1994 -24.3953 -6.83123e-19)
(11.0376 -24.3095 3.27259e-19)
(10.8702 -24.2296 0)
(10.7483 -24.1541 -5.43682e-19)
(10.5317 -24.1303 5.35724e-19)
(10.4591 -23.9262 -4.21648e-19)
(2.95805 -6.54285 2.27111e-19)
(9.70076 -17.6017 1.92206e-19)
(13.2391 -24.4621 1.07019e-18)
(13.7319 -25.5467 9.19786e-19)
(13.5327 -25.4168 -5.51515e-19)
(13.3034 -25.1559 7.78395e-19)
(13.0764 -24.9719 -4.60097e-19)
(12.8432 -24.7565 5.23128e-19)
(12.6033 -24.5361 -9.94981e-19)
(12.3995 -24.4033 3.54373e-19)
(12.1934 -24.2676 0)
(12.0075 -24.1686 0)
(11.8265 -24.0963 0)
(11.6366 -23.9914 -6.4089e-19)
(11.4591 -23.9285 6.30983e-19)
(11.2818 -23.8523 0)
(11.1057 -23.7972 0)
(10.9495 -23.7228 -5.57413e-20)
(10.7271 -23.6864 0)
(10.6421 -23.4817 -4.65428e-19)
(3.6324 -7.01477 -4.41196e-19)
(10.5779 -18.2765 -1.09651e-18)
(14.0915 -24.3449 -7.57802e-19)
(14.321 -25.0856 -1.26493e-19)
(14.0412 -24.8929 9.98317e-19)
(13.7653 -24.636 -2.04089e-19)
(13.476 -24.4064 -4.30266e-20)
(13.1884 -24.1855 -6.40479e-19)
(12.9545 -24.0437 0)
(12.7035 -23.891 -3.03132e-19)
(12.4842 -23.783 4.83667e-19)
(12.2628 -23.6795 0)
(12.0444 -23.5762 6.11459e-19)
(11.8443 -23.5073 -6.0188e-19)
(11.6533 -23.4514 5.11508e-19)
(11.4506 -23.3761 -9.16904e-19)
(11.2531 -23.3009 4.61203e-19)
(11.0793 -23.2484 5.57296e-20)
(10.8605 -23.2312 -4.12336e-20)
(10.7665 -23.0399 3.32875e-19)
(4.17569 -7.51766 -6.11136e-19)
(11.6898 -18.3839 4.14971e-20)
(14.7868 -23.9302 6.02384e-20)
(14.9626 -24.3495 1.37787e-18)
(14.5619 -24.1673 1.05557e-19)
(14.2667 -23.939 -7.16341e-19)
(13.9601 -23.7744 -4.81981e-19)
(13.6461 -23.5844 1.58447e-19)
(13.3413 -23.3874 5.22265e-19)
(13.0734 -23.2748 -5.36565e-19)
(12.8086 -23.155 2.58443e-19)
(12.5701 -23.0714 -6.42766e-19)
(12.3409 -23.0171 5.04314e-19)
(12.1066 -22.9254 -4.6655e-19)
(11.8873 -22.8796 4.10798e-19)
(11.6719 -22.8206 3.2305e-19)
(11.465 -22.7745 -3.72406e-19)
(11.2606 -22.7223 2.72023e-19)
(11.0362 -22.7087 -2.58548e-19)
(10.9301 -22.5233 -2.75747e-19)
(4.82647 -7.84144 -7.64831e-19)
(12.5516 -18.5356 -1.40385e-19)
(15.4552 -23.414 6.98236e-19)
(15.4448 -23.6742 -6.02301e-19)
(15.0064 -23.4647 5.91114e-19)
(14.6456 -23.2491 1.32437e-19)
(14.2864 -23.0491 0)
(13.922 -22.8619 -9.0996e-20)
(13.6241 -22.744 2.4054e-19)
(13.3121 -22.6153 -8.41059e-19)
(13.0388 -22.5356 5.86394e-19)
(12.7683 -22.4562 1.22447e-19)
(12.5026 -22.3794 6.10182e-20)
(12.2609 -22.3317 0)
(12.0278 -22.2982 1.32543e-20)
(11.789 -22.244 2.79121e-19)
(11.5597 -22.1856 -3.20968e-20)
(11.3406 -22.1644 2.72829e-20)
(11.128 -22.1814 -2.06641e-19)
(11.0125 -22.0095 4.02445e-20)
(5.33703 -7.97825 6.98654e-19)
(13.3799 -18.1925 -1.1945e-18)
(16.0453 -22.5981 6.53114e-19)
(15.938 -22.7036 5.32214e-19)
(15.4524 -22.5469 -5.57267e-20)
(15.0733 -22.3782 -3.59944e-19)
(14.7035 -22.2542 8.54169e-20)
(14.3125 -22.1046 9.09828e-20)
(13.9478 -21.9491 0)
(13.6223 -21.8723 0)
(13.3011 -21.782 -4.07614e-19)
(13.0151 -21.7303 6.57661e-19)
(12.7405 -21.7059 -3.4391e-19)
(12.4623 -21.638 0)
(12.2047 -21.6248 1.43929e-20)
(11.9583 -21.5961 -1.86879e-19)
(11.7164 -21.5698 1.80019e-19)
(11.4632 -21.542 -2.14816e-20)
(11.2438 -21.5701 -8.24829e-20)
(11.1203 -21.4192 6.25078e-20)
(5.92788 -8.08931 -6.15571e-19)
(14.1348 -17.9912 7.69889e-19)
(16.553 -21.7357 0)
(16.2821 -21.8346 0)
(15.7784 -21.6689 9.21121e-20)
(15.3224 -21.5217 -4.31066e-19)
(14.9073 -21.375 2.33486e-20)
(14.4777 -21.2484 2.78894e-19)
(14.1213 -21.1713 -4.04587e-19)
(13.7555 -21.0806 7.34023e-19)
(13.4335 -21.0436 -3.30666e-19)
(13.1189 -20.9971 6.05368e-20)
(12.8141 -20.963 1.8787e-19)
(12.5366 -20.9482 -3.04088e-20)
(12.2642 -20.9455 -1.0038e-19)
(11.9971 -20.9226 1.61728e-20)
(11.7377 -20.8974 -3.66467e-20)
(11.4771 -20.9055 2.42601e-20)
(11.2632 -20.9468 1.37211e-20)
(11.1459 -20.8339 -2.90291e-20)
(6.36115 -8.03506 0)
(14.7326 -17.3298 3.45758e-19)
(16.8881 -20.7339 -3.87291e-19)
(16.6042 -20.6939 0)
(16.0654 -20.612 -9.21088e-20)
(15.621 -20.5228 2.48671e-19)
(15.2089 -20.4588 -3.1013e-19)
(14.7563 -20.3617 0)
(14.343 -20.2643 2.52841e-19)
(13.9736 -20.2341 -2.48629e-19)
(13.6032 -20.1838 1.0225e-20)
(13.2801 -20.1763 -2.18689e-20)
(12.967 -20.1914 -1.57527e-20)
(12.6498 -20.1564 -1.02962e-20)
(12.3613 -20.1876 3.15308e-20)
(12.092 -20.2002 -1.04723e-19)
(11.8152 -20.2086 1.62371e-19)
(11.5213 -20.2044 -2.09597e-19)
(11.2885 -20.259 1.0635e-19)
(11.169 -20.1779 -1.26249e-20)
(6.8477 -7.95145 0)
(15.3272 -16.8199 -3.77093e-19)
(17.1784 -19.6822 2.08503e-19)
(16.7824 -19.7079 2.01023e-19)
(16.2439 -19.6033 -4.98542e-20)
(15.7058 -19.5431 -4.39404e-20)
(15.2594 -19.4635 -1.54666e-19)
(14.7859 -19.4092 0)
(14.3806 -19.3821 0)
(13.9754 -19.3398 0)
(13.6133 -19.3521 -1.02242e-20)
(13.2607 -19.3394 0)
(12.9289 -19.3606 1.24453e-19)
(12.6223 -19.3856 -1.0281e-19)
(12.3119 -19.4117 1.71262e-19)
(12.0242 -19.4291 -3.67667e-19)
(11.7396 -19.4639 1.9602e-19)
(11.448 -19.4984 2.73994e-19)
(11.187 -19.5501 -4.93649e-19)
(11.0768 -19.4608 2.68711e-19)
(7.22767 -7.72661 0)
(15.7045 -15.9905 0)
(17.3265 -18.4921 7.30961e-20)
(16.8827 -18.4727 5.85072e-20)
(16.3548 -18.4571 0)
(15.8549 -18.4598 6.23587e-20)
(15.4162 -18.4706 -6.12633e-20)
(14.9258 -18.4309 0)
(14.4746 -18.3999 -7.88212e-20)
(14.0772 -18.4189 7.75077e-20)
(13.6697 -18.4152 0)
(13.3195 -18.4523 2.18081e-19)
(12.9734 -18.5027 1.97047e-20)
(12.6263 -18.5051 -2.50334e-19)
(12.3126 -18.5754 0)
(12.0138 -18.6134 0)
(11.6932 -18.6701 0)
(11.3859 -18.6808 3.47832e-19)
(11.0623 -18.6967 -3.79884e-19)
(10.9003 -18.6536 0)
(8.47447 -26.6194 0)
(8.13052 -26.223 0)
(7.37634 -26.2842 -2.48532e-21)
(6.97713 -26.3669 -2.43446e-21)
(6.33739 -26.4137 0)
(5.87659 -26.4545 -2.95732e-23)
(5.34766 -26.4935 2.36791e-21)
(4.91536 -26.5895 0)
(4.44194 -26.7016 2.24395e-21)
(4.03223 -26.7595 0)
(3.59263 -26.8111 -2.20635e-21)
(3.23336 -26.8409 -1.10321e-21)
(2.83383 -26.8669 1.10875e-21)
(2.53392 -26.8803 2.13397e-21)
(2.17266 -26.8857 0)
(1.92463 -26.818 -5.22586e-22)
(1.58382 -26.7399 2.05508e-21)
(1.39629 -25.3943 0)
(0.871886 -20.9243 0)
(0.288882 -11.4156 2.00105e-21)
(8.5271 -26.4182 1.22082e-20)
(8.18118 -26.0515 0)
(7.35982 -26.1064 1.20537e-20)
(6.9999 -26.1908 -7.19773e-21)
(6.36665 -26.2446 0)
(5.89519 -26.3355 -1.12272e-20)
(5.31656 -26.3948 4.49469e-21)
(4.84128 -26.4739 0)
(4.36103 -26.5775 2.11584e-21)
(3.95663 -26.6389 -4.3805e-21)
(3.52471 -26.696 6.49621e-21)
(3.17221 -26.7316 -8.5625e-21)
(2.77977 -26.7641 6.37649e-21)
(2.491 -26.7906 -2.16803e-21)
(2.13904 -26.8085 -2.09517e-21)
(1.90779 -26.7389 2.03227e-21)
(1.59474 -26.6681 -3.26691e-21)
(1.39089 -25.2845 -4.93738e-21)
(0.850865 -20.7304 -2.43238e-21)
(0.297491 -11.2357 -2.49603e-21)
(8.61061 -26.1983 -2.54694e-21)
(8.2458 -25.8676 -1.12851e-20)
(7.38435 -25.9362 -8.9103e-21)
(6.98225 -26.0469 0)
(6.30114 -26.0889 0)
(5.8411 -26.1432 1.29436e-20)
(5.32437 -26.2012 -1.29643e-22)
(4.89596 -26.312 -7.80836e-23)
(4.42749 -26.4437 -9.85475e-23)
(4.02283 -26.515 -8.36869e-21)
(3.58944 -26.5817 0)
(3.23461 -26.6262 0)
(2.8397 -26.6682 0)
(2.54585 -26.6976 -7.95316e-21)
(2.18653 -26.7173 0)
(1.94636 -26.6597 -7.82988e-21)
(1.60511 -26.5969 6.18939e-21)
(1.40797 -25.2022 2.97278e-21)
(0.874168 -20.6342 4.89e-21)
(0.30597 -11.1037 7.61026e-21)
(8.66771 -25.9833 1.99185e-20)
(8.2891 -25.6775 -3.94108e-20)
(7.38633 -25.7396 1.56353e-22)
(6.99905 -25.8582 1.7273e-20)
(6.32541 -25.9178 0)
(5.86196 -26.0278 1.61118e-20)
(5.3021 -26.1035 -3.99212e-20)
(4.82753 -26.1969 2.40309e-20)
(4.34951 -26.3196 -1.58e-20)
(3.94908 -26.3948 7.93007e-21)
(3.52271 -26.4674 -2.02694e-22)
(3.17391 -26.5183 -7.86528e-21)
(2.78573 -26.5671 7.90153e-21)
(2.50154 -26.6083 4.06314e-21)
(2.15101 -26.6404 3.91017e-21)
(1.92616 -26.5831 7.82518e-21)
(1.61337 -26.5267 -7.70423e-21)
(1.40147 -25.099 3.78846e-21)
(0.855502 -20.4573 -1.89081e-21)
(0.314828 -10.9299 -7.59849e-21)
(8.74737 -25.7312 4.3181e-20)
(8.34482 -25.4765 9.42703e-21)
(7.42757 -25.5623 -1.67294e-20)
(6.9937 -25.7042 2.40756e-20)
(6.27443 -25.7551 0)
(5.82348 -25.8367 -7.47476e-21)
(5.31711 -25.9127 7.79086e-21)
(4.88217 -26.0339 0)
(4.41688 -26.1861 3.99402e-22)
(4.01531 -26.2729 0)
(3.587 -26.3546 -1.51924e-20)
(3.23512 -26.4141 0)
(2.84405 -26.4722 0)
(2.55476 -26.5169 -1.48867e-20)
(2.19687 -26.5516 7.53971e-21)
(1.96368 -26.5048 -7.33721e-21)
(1.62094 -26.4573 0)
(1.41674 -25.0232 1.83489e-21)
(0.875148 -20.3685 -1.83768e-21)
(0.324863 -10.7987 0)
(8.82794 -25.4821 1.72883e-20)
(8.39362 -25.2734 -1.67535e-20)
(7.44573 -25.3497 3.71326e-20)
(6.99998 -25.4998 -3.83482e-20)
(6.30091 -25.5851 1.38432e-20)
(5.84496 -25.7264 7.49798e-21)
(5.29773 -25.8148 -1.38469e-20)
(4.81542 -25.9178 -1.39853e-20)
(4.34168 -26.0621 7.40731e-21)
(3.9429 -26.1533 1.44553e-20)
(3.52122 -26.2412 -7.07888e-21)
(3.17463 -26.3075 0)
(2.78996 -26.3727 0)
(2.50922 -26.4286 4.19583e-22)
(2.1598 -26.4758 -7.2694e-21)
(1.94034 -26.4304 7.33005e-21)
(1.62645 -26.3892 0)
(1.40909 -24.9278 -1.40866e-20)
(0.85835 -20.2108 -1.32125e-20)
(0.333773 -10.6313 -8.91226e-22)
(8.90618 -25.2081 -5.09072e-20)
(8.4419 -25.0537 5.04592e-20)
(7.50536 -25.1661 -1.47508e-20)
(7.0042 -25.3348 0)
(6.2716 -25.417 -1.39019e-20)
(5.82325 -25.5343 2.70584e-20)
(5.31881 -25.6244 -1.32605e-20)
(4.86988 -25.7543 1.40245e-20)
(4.41027 -25.9293 0)
(4.00895 -26.0329 0)
(3.58499 -26.1297 1.38141e-20)
(3.23459 -26.2041 -1.3863e-20)
(2.84662 -26.2785 0)
(2.56034 -26.338 2.11681e-20)
(2.20347 -26.3886 -6.99278e-21)
(1.97563 -26.353 -6.9505e-21)
(1.63118 -26.3221 5.57863e-21)
(1.42231 -24.8594 1.7527e-20)
(0.873846 -20.1297 8.86271e-21)
(0.344654 -10.5014 1.73141e-21)
(9.01923 -24.9226 0)
(8.50329 -24.8404 -2.82376e-20)
(7.5364 -24.9386 2.83191e-20)
(7.00364 -25.1144 0)
(6.30367 -25.2501 0)
(5.84177 -25.4276 -2.5299e-20)
(5.29673 -25.5246 2.53731e-20)
(4.80374 -25.6365 0)
(4.33806 -25.8053 1.29509e-20)
(3.93767 -25.9139 -2.60718e-20)
(3.52004 -26.0172 1.31192e-20)
(3.17417 -26.0989 1.3272e-20)
(2.79221 -26.1806 -1.33114e-20)
(2.51367 -26.2512 0)
(2.16506 -26.3142 0)
(1.94943 -26.2806 -6.73058e-21)
(1.63396 -26.2562 8.09282e-21)
(1.41326 -24.7725 3.46385e-25)
(0.858028 -19.9923 -5.04856e-21)
(0.353319 -10.3408 1.6836e-21)
(9.11517 -24.6136 2.85698e-20)
(8.55039 -24.5967 -2.86904e-20)
(7.59198 -24.7432 -3.55577e-20)
(7.01556 -24.941 4.79805e-20)
(6.29885 -25.0755 -4.71403e-20)
(5.83233 -25.2313 -2.25637e-22)
(5.32215 -25.3342 2.36881e-20)
(4.85941 -25.4741 0)
(4.40741 -25.6737 0)
(4.00335 -25.7944 1.19589e-20)
(3.58326 -25.9068 0)
(3.23286 -25.9963 0)
(2.84719 -26.0869 0)
(2.56223 -26.1608 0)
(2.20585 -26.2279 0)
(1.98119 -26.204 0)
(1.63587 -26.1917 -5.21512e-21)
(1.42399 -24.7122 6.52105e-21)
(0.868902 -19.9192 -1.63321e-21)
(0.364293 -10.2131 1.63374e-21)
(9.25603 -24.2874 -2.41783e-20)
(8.63326 -24.3712 -3.816e-20)
(7.62833 -24.499 -1.05931e-20)
(7.01048 -24.7124 -1.03674e-20)
(6.33409 -24.9132 1.03925e-20)
(5.84689 -25.1229 3.20275e-20)
(5.29783 -25.2319 1.05279e-20)
(4.79399 -25.3546 0)
(4.33767 -25.5493 -1.19965e-20)
(3.93357 -25.676 2.23705e-20)
(3.51914 -25.7953 1.1526e-20)
(3.17257 -25.8923 1.16554e-20)
(2.79234 -25.9904 0)
(2.51472 -26.0758 1.19912e-20)
(2.16633 -26.1551 1.22222e-20)
(1.95238 -26.1335 0)
(1.63599 -26.1285 0)
(1.41331 -24.6338 0)
(0.853236 -19.8025 0)