/*--------------------------------*- C++ -*----------------------------------*\
  =========                 |
  \\      /  F ield         | OpenFOAM: The Open Source CFD Toolbox
   \\    /   O peration     | Website:  https://openfoam.org
    \\  /    A nd           | Version:  9
     \\/     M anipulation  |
\*---------------------------------------------------------------------------*/
FoamFile
{
    format      ascii;
    class       volScalarField;
    location    "7.6";
    object      nut;
}
// * * * * * * * * * * * * * * * * * * * * * * * * * * * * * * * * * * * * * //

dimensions      [0 2 -1 0 0 0 0];

internalField   nonuniform List<scalar> 
46400
(
0.0162354
0.00350916
0.00113701
0.00135693
0.0012257
0.00124548
0.00117296
0.00114252
0.00109348
0.00106661
0.00104015
0.00100801
0.000976091
0.000946455
0.000912504
0.000910194
0.000892258
0.000794047
0.00105865
0.000912849
0.0157287
0.0037013
0.00118395
0.00139693
0.00130255
0.00129532
0.00121984
0.00118553
0.00113667
0.00110513
0.00107425
0.00103532
0.00100488
0.000980375
0.000932623
0.000901956
0.000899572
0.000806001
0.000992392
0.000895081
0.0151043
0.00470187
0.00131218
0.00143411
0.00129941
0.00129661
0.001222
0.00118183
0.00113113
0.00108662
0.00105312
0.00101721
0.000988953
0.000972465
0.000964453
0.000904341
0.000861482
0.00079321
0.00101639
0.000919335
0.0145597
0.00435423
0.00137047
0.00148819
0.00137551
0.00134821
0.00127381
0.00122825
0.00118358
0.00113568
0.001089
0.0010318
0.000977553
0.000943248
0.0009474
0.000978982
0.000926984
0.000816037
0.00104146
0.000955999
0.0137334
0.00408007
0.00138531
0.00149195
0.0013637
0.00133603
0.00126669
0.00120951
0.00116598
0.00111885
0.00109004
0.00106317
0.00101498
0.000937475
0.000882287
0.000865826
0.000889391
0.00079797
0.00100799
0.00098074
0.012115
0.00303186
0.00142471
0.00148941
0.00140572
0.00136749
0.00132431
0.00125652
0.00122207
0.00116958
0.00111428
0.00108484
0.00109376
0.00105518
0.000984801
0.000907004
0.000869002
0.000789826
0.000934708
0.000918746
0.00946488
0.00232063
0.00139515
0.00138734
0.00135625
0.00129871
0.00128499
0.00122557
0.00118462
0.00116325
0.00110937
0.00102978
0.0010074
0.00101114
0.00101394
0.00099136
0.000956254
0.000868826
0.000993051
0.00095811
0.00779235
0.00199721
0.00148475
0.00140756
0.00135657
0.00130221
0.00127423
0.00121786
0.00117048
0.00115594
0.00119599
0.00114395
0.00106474
0.000998743
0.000975463
0.000952957
0.000935413
0.000875481
0.000987861
0.000957848
0.00616587
0.00174635
0.00145163
0.00137533
0.00134046
0.00124601
0.00126119
0.00121168
0.00112946
0.00103253
0.00102029
0.00100718
0.00104491
0.00102258
0.000998351
0.000988238
0.000962969
0.000903285
0.00101025
0.00100009
0.0052252
0.00169384
0.00155991
0.00142758
0.00142246
0.00128682
0.00125506
0.00129991
0.00130005
0.00119208
0.00109702
0.00101937
0.000988363
0.000966475
0.000918208
0.00089214
0.000865602
0.000810851
0.00086832
0.000889802
0.00424038
0.00156742
0.00154215
0.00140396
0.00139827
0.00130824
0.00116198
0.00108102
0.00116416
0.00117482
0.00116538
0.00113152
0.0010795
0.00105216
0.00103362
0.00100299
0.000974382
0.00091175
0.000967192
0.000938427
0.00362427
0.001478
0.00150171
0.00144376
0.00149818
0.0015339
0.00144764
0.00125662
0.00116388
0.00112905
0.00110677
0.0010634
0.00103176
0.000994763
0.000967981
0.000955055
0.000942831
0.000891218
0.000943427
0.000928736
0.00321434
0.00134599
0.00139047
0.00129453
0.00123731
0.00132345
0.00140767
0.00137502
0.00132645
0.00123529
0.00120055
0.00116399
0.00111012
0.00106791
0.00102407
0.000986117
0.00097605
0.000916561
0.000970386
0.000954215
0.00392936
0.00155983
0.0015991
0.00161871
0.00138073
0.00122691
0.00124885
0.00121618
0.00121191
0.00118154
0.00112639
0.00110896
0.00108805
0.00103783
0.00102083
0.000964724
0.000947188
0.000887896
0.000915638
0.00091434
0.00348753
0.00165523
0.00142328
0.00138344
0.00142608
0.00126862
0.00126134
0.00120566
0.0011863
0.00116315
0.00115777
0.00109832
0.00110722
0.00106579
0.00104978
0.00101869
0.000988344
0.000932158
0.000955515
0.000936303
0.00178984
0.00171135
0.00156383
0.00136683
0.00151223
0.00141995
0.00137779
0.00131276
0.00129372
0.00120278
0.00119481
0.00112255
0.00110105
0.0010558
0.0010396
0.0010062
0.00099526
0.000934293
0.000954419
0.000927758
0.000441166
0.00153428
0.00164536
0.00163643
0.00150117
0.00148985
0.00142474
0.00137368
0.00130435
0.00126321
0.00121599
0.00117452
0.0011443
0.00109201
0.00106396
0.00102358
0.00100195
0.000938997
0.000965799
0.000929849
0.00161091
0.00183779
0.00170778
0.00159864
0.00145097
0.00140319
0.00132337
0.00126834
0.001257
0.00121818
0.00119551
0.00116252
0.00110781
0.00108396
0.0010334
0.00101286
0.000972189
0.00091954
0.00094216
0.000901625
0.00303986
0.00161808
0.00135091
0.00148274
0.00151607
0.00143225
0.00140153
0.00137243
0.00133426
0.00129133
0.00122421
0.00118022
0.00112289
0.00112255
0.00107166
0.00106212
0.00104111
0.000984568
0.00101035
0.000961313
0.00316723
0.00157342
0.00158266
0.00153627
0.00146366
0.00146897
0.00145475
0.00141458
0.00129528
0.00126222
0.00119526
0.0011863
0.0011834
0.0011368
0.00111627
0.00108412
0.00105238
0.000989729
0.000997888
0.000959825
1.98022e-24
0.00348203
0.00823102
0.00991012
0.00675142
0.00287433
0.000777571
7.01254e-05
0.000135255
0.000271825
0.000299053
0.000230055
0.000204888
0.000214704
0.000222448
0.000206346
0.000164695
0.000185175
0.000213809
0.000311503
0.000281033
0.00550824
0.00970823
0.00879065
0.00451987
0.00128826
0.000106869
0.000121817
0.00027522
0.000325029
0.000280327
0.000242522
0.00019549
0.000205277
0.00022488
0.000249747
0.0002406
0.000214116
0.000224572
0.000338311
0.00118132
0.00813656
0.0103309
0.00706372
0.00243263
0.000345664
0.000137836
0.000262865
0.000332667
0.000333834
0.000289234
0.000239596
0.00022716
0.00027912
0.000291391
0.000252092
0.00017528
0.000190231
0.000305726
0.000426871
0.00365197
0.00921277
0.0101224
0.00537633
0.00104297
0.00015217
0.000246761
0.000321332
0.000381173
0.000357071
0.000312496
0.000285602
0.000282766
0.000297404
0.000251314
0.000235477
0.000239866
0.000328271
0.000451092
0.000476514
0.00561208
0.0104473
0.00906259
0.00333322
0.000221717
0.000170793
0.000351549
0.000418898
0.00042758
0.000398636
0.0003549
0.000313811
0.000293339
0.000321785
0.000318066
0.000333266
0.000289381
0.000350566
0.000464014
0.000504748
0.00748565
0.0109759
0.00802525
0.00147532
0.000246628
0.00037567
0.000480461
0.000488667
0.000469428
0.000451602
0.000393328
0.000359167
0.000377263
0.00039675
0.000332012
0.000311931
0.000302048
0.000465879
0.000566574
0.00052163
0.00976549
0.0112167
0.00676036
0.000542395
0.000220238
0.000511093
0.000533604
0.000503335
0.000544607
0.000495426
0.00045123
0.000426172
0.000400244
0.000388386
0.000374012
0.00041782
0.000411244
0.000521875
0.000539824
0.000512649
0.0117584
0.0111705
0.00480353
0.000285373
0.000446199
0.000600919
0.000606679
0.000594217
0.000579755
0.000552208
0.000495281
0.000449641
0.00046342
0.000485253
0.000436807
0.000419162
0.000398541
0.000550242
0.000595237
0.000561252
0.0138373
0.0109625
0.00289952
0.000132396
0.000626192
0.000706013
0.000642402
0.000626304
0.000656561
0.000601953
0.00055499
0.000540286
0.000513173
0.000475642
0.000448152
0.000487954
0.000485142
0.000588371
0.000563563
0.000547469
0.014663
0.0106356
0.00188302
0.000212425
0.000766868
0.000764896
0.000725642
0.000705406
0.000689953
0.000659153
0.000609287
0.000549938
0.000547985
0.000563988
0.000530896
0.000510143
0.000476859
0.00061135
0.000607164
0.000592405
0.0153887
0.0102381
0.00121818
0.000396372
0.000869665
0.000822091
0.00076797
0.000738063
0.000764713
0.000705239
0.000650843
0.000639549
0.000611971
0.000566011
0.000535328
0.000555983
0.000546236
0.000642397
0.000579498
0.000583737
0.0162009
0.00984896
0.000798565
0.000648051
0.000932693
0.000872589
0.000842435
0.000794183
0.000782252
0.00075926
0.000711542
0.000644709
0.000627329
0.000634901
0.000609666
0.000584754
0.00055387
0.000666743
0.00060844
0.00061883
0.0165725
0.00936546
0.00122867
0.000744826
0.00103239
0.000904081
0.000889534
0.000839731
0.000855128
0.000801511
0.000740645
0.00072763
0.00069679
0.0006571
0.000637143
0.000641365
0.000624533
0.000694063
0.000575051
0.000612649
0.0171005
0.00918846
0.00112091
0.000938611
0.00109731
0.000982515
0.000948901
0.000891529
0.000863235
0.000852862
0.000802188
0.000735469
0.000708641
0.000709005
0.000692419
0.000659765
0.000640071
0.00071682
0.000582695
0.000633439
0.0171917
0.00884415
0.00191081
0.000962616
0.00114023
0.0010114
0.000988646
0.000945393
0.000935263
0.000892537
0.000835689
0.000817099
0.000779034
0.000745709
0.000734184
0.00071588
0.000699618
0.000728469
0.000550192
0.000640636
0.0174081
0.00871967
0.00184845
0.00107274
0.00121297
0.00109452
0.00104171
0.000991835
0.000948306
0.000945559
0.000896291
0.000838511
0.000806994
0.00079439
0.0007744
0.000735371
0.000727774
0.000770519
0.00056178
0.000647023
0.0172987
0.00729726
0.00138945
0.00108736
0.00119127
0.0011216
0.00106856
0.00104546
0.00100835
0.000977541
0.000932183
0.000907983
0.000867114
0.000837074
0.000825038
0.000787652
0.000778328
0.000790483
0.00055754
0.000668175
0.0172125
0.00654993
0.00176128
0.00120706
0.00124785
0.00120181
0.00111813
0.0010842
0.00103551
0.00102808
0.000986247
0.000939211
0.000911181
0.000892266
0.000869295
0.000841013
0.000839137
0.000854061
0.000611052
0.00070449
0.0169418
0.00521352
0.00126233
0.00124268
0.00121179
0.00120953
0.00113752
0.00112002
0.00107133
0.0010461
0.00101042
0.00098167
0.000945195
0.000925793
0.000913905
0.000880229
0.000890773
0.000924174
0.000666481
0.000725213
0.0166246
0.0045648
0.00126699
0.00133994
0.0012574
0.00126298
0.00117213
0.00114685
0.00110372
0.00109033
0.00106024
0.00102201
0.000998714
0.00097835
0.000971099
0.000976588
0.000980398
0.000997036
0.000878074
0.000851845
0.00332062
0.0022486
0.00162708
0.00128632
0.00130262
0.00123471
0.00106072
0.00088982
0.000902925
0.000837411
0.000744277
0.000698919
0.000619131
0.000611307
0.000472519
0.000688854
0.000677221
0.00567019
0.0102272
0.0149296
0.00349873
0.00216587
0.00158797
0.00145207
0.00133705
0.0012394
0.00111882
0.000934208
0.000914909
0.000828407
0.000730009
0.000684977
0.000597617
0.000594288
0.000439323
0.000658824
0.000575295
0.0056751
0.010184
0.014841
0.00366086
0.00215308
0.00174647
0.00134181
0.00135001
0.00126727
0.00108227
0.000932148
0.000923084
0.000827372
0.000744693
0.000702615
0.000613861
0.000611436
0.000444511
0.000670184
0.000517177
0.00568453
0.0102286
0.014774
0.00360027
0.00213404
0.00167888
0.00145951
0.00138361
0.00129369
0.00113719
0.000974305
0.000925084
0.000811066
0.000731814
0.000686875
0.000590513
0.000595948
0.000411169
0.000638154
0.000419733
0.00568387
0.0101852
0.0147045
0.00369995
0.0021202
0.00181162
0.00141767
0.00142348
0.00130399
0.00108162
0.000973476
0.000939105
0.000810685
0.000747263
0.000702369
0.000605416
0.000617102
0.000414666
0.000644997
0.000364912
0.00567937
0.0102279
0.0146408
0.00374707
0.00214024
0.00181395
0.00148771
0.00141454
0.00134423
0.00114613
0.00101076
0.00094511
0.000792192
0.000732521
0.000685706
0.000581347
0.000602789
0.000385124
0.000577855
0.000273784
0.0056669
0.0101947
0.0145912
0.00389398
0.00217343
0.00190234
0.00145181
0.00146215
0.00134481
0.00107454
0.000993069
0.000963705
0.000794806
0.00074617
0.000700906
0.000595828
0.00062347
0.000406235
0.000582767
0.000210157
0.00564793
0.0102135
0.0145232
0.00404391
0.00214215
0.00194642
0.00157053
0.00143812
0.00140627
0.00114255
0.00102249
0.000967383
0.00077768
0.000731261
0.000684734
0.000570469
0.000599077
0.000389766
0.000556771
0.000131949
0.00563009
0.0101992
0.0144831
0.00422182
0.0022876
0.00198027
0.00151969
0.00145293
0.00138668
0.00108024
0.000998035
0.000979149
0.000784037
0.000744529
0.000701776
0.000586085
0.00060863
0.000411323
0.000594043
6.36699e-05
0.00559331
0.0101983
0.0144366
0.00429322
0.00224638
0.00206142
0.00166201
0.00143581
0.00145606
0.00114908
0.00101887
0.000969397
0.000767957
0.000732901
0.000686285
0.000561922
0.000593434
0.000381746
0.000567034
5.55588e-05
0.00556502
0.010196
0.0143914
0.00452167
0.00241181
0.00204364
0.00160997
0.00141912
0.00141732
0.00111195
0.000995816
0.000970223
0.000773681
0.000751776
0.000704973
0.000583735
0.000617138
0.000407683
0.000573469
5.32472e-05
0.00553848
0.0101873
0.0143621
0.00454878
0.00236791
0.00213141
0.00176325
0.0014074
0.00147307
0.00115637
0.00100863
0.000955
0.000755474
0.000747915
0.000688572
0.000565035
0.000606066
0.000397023
0.000543954
5.18659e-05
0.00551462
0.0101989
0.0143357
0.00476606
0.00249986
0.00208005
0.00171973
0.00137783
0.00143049
0.00113997
0.000990419
0.000947514
0.000766349
0.000768574
0.000704054
0.000591491
0.000631296
0.000433951
0.00055399
4.58644e-05
0.00549023
0.0101984
0.0143413
0.00480399
0.00246589
0.00215744
0.00188218
0.00138152
0.00144877
0.0011584
0.000999401
0.000928686
0.00075883
0.00076245
0.000684907
0.000582231
0.000626942
0.000425117
0.000531712
3.32366e-05
0.00546032
0.0101916
0.0143383
0.00499309
0.00258413
0.00208961
0.00182516
0.00135618
0.00140302
0.0011565
0.000985889
0.000918881
0.000775544
0.000776614
0.000701017
0.000614233
0.000648244
0.000456692
0.000542784
8.26849e-05
0.00543414
0.010193
0.0143213
0.00502356
0.00253981
0.00212077
0.00195877
0.00138432
0.00139636
0.00114579
0.000991131
0.000901388
0.000769844
0.000770066
0.000679179
0.000607455
0.00063794
0.000466544
0.000535713
0.000201301
0.00543756
0.0102319
0.0143394
0.00524718
0.00263716
0.00210527
0.00190596
0.00138816
0.00134311
0.00113144
0.000993484
0.000888788
0.000786718
0.000780137
0.000692292
0.000642775
0.000661466
0.000509259
0.000548235
0.000314995
0.00537342
0.0102193
0.0143507
0.00517014
0.00234059
0.00196208
0.00197382
0.00142486
0.00134426
0.00114541
0.00102249
0.000879902
0.000807351
0.00078192
0.000681983
0.000649527
0.000654515
0.000533449
0.000561778
0.000433842
0.00545833
0.0102617
0.014346
0.00510056
0.00208541
0.00161204
0.0019003
0.00140888
0.00128765
0.00108086
0.00100099
0.000852356
0.000805637
0.000756098
0.000673439
0.000672242
0.000655819
0.000584986
0.000561855
0.000428932
0.00549848
0.0103367
0.0146293
0.00515624
0.00237905
0.00141348
0.00197921
0.00150308
0.00128934
0.00112441
0.00103137
0.000876996
0.000828657
0.000760765
0.000697235
0.000681909
0.000665309
0.000605315
0.000561935
0.000388924
0.0051224
0.0102152
0.0141308
0.0197658
0.0260221
0.0112772
0.0193442
0.0127654
0.0139683
0.011682
0.0113083
0.00938107
0.00877004
0.00806956
0.00729294
0.00720664
0.00686273
0.00671354
0.0064206
0.00674693
0.0503632
0.0968035
0.129278
0.0245028
0.0197244
0.0183684
0.0144975
0.0135696
0.0109455
0.0101719
0.00907123
0.0080751
0.00769582
0.00669998
0.00650431
0.00542712
0.00540944
0.0054548
0.00419989
0.0134636
0.0485887
0.0948075
0.127603
0.0108469
0.0140364
0.0132864
0.0114255
0.00908823
0.00805921
0.00803415
0.00716187
0.00686358
0.00631738
0.00599564
0.00568125
0.00532287
0.00520613
0.00479509
0.00474336
0.00783298
0.0485626
0.0939607
0.125801
0.0110752
0.0103791
0.00858175
0.0080363
0.00743159
0.00645291
0.00620969
0.00596391
0.0056763
0.00533378
0.00510178
0.00471899
0.00444269
0.00407134
0.00395052
0.00278715
0.00983907
0.0442572
0.094256
0.12206
0.00619082
0.00658857
0.00636798
0.00659896
0.00569962
0.00517282
0.00490287
0.00490012
0.00473737
0.00447315
0.00431585
0.00410441
0.00396192
0.00384053
0.00364647
0.00271062
0.00463538
0.0412738
0.0945869
0.120318
0.00520091
0.00499024
0.00483812
0.00476109
0.0039878
0.00395966
0.00383448
0.00370346
0.0038385
0.00388463
0.00382303
0.00378526
0.00377752
0.00372382
0.00344405
0.00191041
0.0041
0.036634
0.0950592
0.120089
0.00299971
0.00301359
0.00327413
0.00341007
0.00309813
0.00314871
0.00327549
0.00332711
0.00337866
0.00329617
0.003262
0.00326378
0.00313194
0.00331342
0.00353338
0.00252136
0.000986388
0.0317044
0.0956657
0.122499
0.00238825
0.0023936
0.00262756
0.0025852
0.00211264
0.00217619
0.00237328
0.00232038
0.00247995
0.00271407
0.00281737
0.00308616
0.00330516
0.00352926
0.00369922
0.00276738
0.00128904
0.0239912
0.0953967
0.127127
0.0013709
0.00133746
0.00141448
0.00159952
0.00137718
0.00150095
0.00188275
0.00223448
0.00210581
0.00226555
0.00223612
0.00251119
0.00250512
0.0031196
0.00326182
0.00334856
0.00213158
0.017002
0.092253
0.142472
0.000953505
0.000938426
0.0010126
0.00107472
0.00102943
0.00113874
0.00109747
0.00125343
0.00152853
0.00179183
0.00195156
0.00227005
0.00242789
0.00286747
0.00344157
0.00364454
0.00281054
0.0114667
0.085736
0.152827
0.00043738
0.000387857
0.000416664
0.000534508
0.00059244
0.000879421
0.000880664
0.00111425
0.00101617
0.00151189
0.00146098
0.00189257
0.00201339
0.00250954
0.00282015
0.00409775
0.00334072
0.00792347
0.0669
0.169566
0.000217438
0.000143689
0.000166426
0.000323085
0.000275718
0.000389698
0.000560826
0.000733792
0.000771304
0.000994629
0.00120411
0.00142892
0.00172291
0.00199629
0.00245634
0.00286398
0.00435666
0.00502143
0.0426946
0.181237
0.000221042
0.000135865
4.82358e-05
0.000187924
0.000202198
0.000405977
0.000312993
0.000590778
0.000337487
0.000766651
0.000520043
0.0011094
0.000948951
0.00161919
0.00194808
0.0026228
0.0035515
0.00712735
0.0179993
0.12789
0.000404919
0.000340057
0.000326102
0.0003372
0.000363886
0.000423237
0.000480499
0.000493858
0.000675198
0.000759015
0.000906883
0.00105289
0.00122056
0.0014559
0.00170255
0.00210525
0.0021469
0.00407815
0.00882937
0.0814826
0.000460413
0.000437143
0.00041313
0.000400077
0.000414606
0.000459596
0.000485808
0.00051193
0.000532483
0.000639201
0.000682707
0.000816162
0.000904269
0.00107856
0.00122843
0.00172487
0.00205416
0.00238201
0.00394332
0.0499676
0.000531116
0.000523518
0.00054284
0.00055696
0.000545922
0.000597663
0.000581374
0.000655777
0.000645737
0.000733817
0.000754861
0.000826833
0.000923709
0.00110217
0.00115413
0.000958866
0.000796337
0.00167845
0.00216157
0.0292938
0.000556792
0.000538807
0.000524556
0.000518037
0.000589664
0.00057164
0.00059682
0.000615726
0.000635895
0.000654208
0.000679654
0.000781615
0.000858898
0.00088623
0.00083958
0.00127184
0.00151127
0.00069898
0.00314626
0.00854452
0.000538826
0.000548973
0.000564396
0.000571106
0.000587335
0.000592873
0.000580603
0.000581282
0.00057072
0.000599319
0.000594003
0.000621572
0.000677334
0.000734949
0.000527825
0.000634621
0.000581856
0.00107258
0.00228759
0.00502167
0.000508076
0.000466695
0.000475145
0.000500175
0.000521644
0.000512769
0.00053493
0.000528954
0.000543095
0.000516534
0.000542036
0.000519855
0.000522024
0.000495994
0.000424804
0.000702017
0.000498576
0.00045386
0.000743775
0.0016342
0.000383639
0.000417881
0.000406804
0.00042768
0.000434288
0.000447571
0.000454276
0.00046755
0.000468684
0.000503986
0.000471139
0.000486624
0.000443539
0.000488935
0.000438968
0.000330962
0.000333839
0.000406012
0.000284986
0.000529933
0.0142451
0.0141625
0.0141129
0.0140195
0.0136839
0.0136758
0.0133752
0.0132509
0.0130065
0.012615
0.0126103
0.0119763
0.0107233
0.0108514
0.00996566
0.010196
0.00936507
0.00919076
0.00792733
0.0075059
0.00701474
0.00700041
0.00696428
0.0069295
0.00682987
0.00677803
0.00669246
0.0066522
0.00644665
0.00644032
0.00607725
0.00604733
0.00617339
0.0061513
0.00634244
0.00689169
0.00649542
0.00574486
0.00526019
0.0071382
0.00433016
0.00426576
0.00424239
0.00423095
0.00424749
0.00425514
0.00430026
0.00435038
0.00437078
0.00429782
0.00422032
0.00426615
0.00409502
0.00413109
0.00388441
0.00411188
0.00368563
0.00361554
0.00310372
0.00330659
0.00287598
0.00282554
0.00278312
0.00272782
0.00267128
0.00261698
0.00254907
0.0024859
0.00244908
0.00241196
0.00239052
0.00238198
0.00235996
0.00236893
0.00231398
0.00226047
0.00235332
0.00278617
0.00241443
0.00256318
0.00172387
0.00171197
0.00170379
0.00168689
0.00167613
0.00166544
0.00165239
0.00166289
0.00176708
0.00180602
0.0017619
0.00177783
0.00172915
0.0017352
0.00167649
0.00171718
0.00159175
0.00149942
0.00142964
0.00148
0.00123809
0.0012273
0.00122276
0.00121214
0.00120157
0.00119202
0.00118286
0.00116474
0.00111722
0.0010561
0.00107199
0.00106767
0.00101107
0.00100449
0.000979554
0.00103586
0.00109244
0.00120076
0.00104318
0.00108307
0.000729816
0.000720513
0.000717847
0.000718357
0.000710478
0.00070462
0.000700317
0.000696465
0.000691826
0.000690438
0.000730922
0.000776993
0.000749221
0.000760724
0.000750964
0.000743166
0.000692364
0.000680444
0.00070878
0.000706085
0.000555649
0.000540904
0.000530793
0.000525764
0.000519118
0.000509937
0.000504317
0.000500252
0.000496696
0.000490356
0.000478045
0.000433526
0.000437927
0.000436136
0.000441174
0.000451372
0.000460077
0.000480744
0.000459947
0.000458402
0.000358012
0.00034181
0.000336898
0.000331278
0.000324634
0.000316224
0.000307026
0.0003078
0.000301101
0.000298139
0.000291652
0.000290602
0.000286725
0.000290991
0.000288749
0.000289946
0.000279447
0.000286732
0.000281215
0.000298862
0.000258783
0.000257421
0.000258826
0.000260373
0.000257375
0.000247833
0.000237717
0.000234642
0.000236916
0.000229368
0.000224397
0.000217592
0.000210539
0.000205328
0.000202242
0.000198154
0.000195693
0.000196938
0.00020789
0.000215966
0.000218556
0.000208989
0.000194475
0.000181072
0.000175781
0.00016618
0.000156883
0.0001523
0.000148765
0.000145504
0.000140953
0.000143844
0.000136073
0.000127536
0.00012473
0.000117436
0.000110073
0.000103016
0.000102656
9.9335e-05
0.000171022
0.000164737
0.000157597
0.000146365
0.000137498
0.000140201
0.000146519
0.000142674
0.000133759
0.000127241
0.000112111
7.91873e-05
6.36983e-05
6.93193e-05
7.29537e-05
7.55729e-05
7.16835e-05
6.24974e-05
5.21384e-05
5.23239e-05
0.000168089
0.000165797
0.000163592
0.000159131
0.000151235
0.000142761
0.000131617
0.000122491
0.000116578
0.000107951
0.000100888
9.72088e-05
0.000100449
0.000105737
0.000105133
9.93624e-05
9.30003e-05
7.58204e-05
5.72886e-05
4.94414e-05
0.000176508
0.000170063
0.00016784
0.000166396
0.000161838
0.000152162
0.000148694
0.000146264
0.000143495
0.000139242
0.000135435
0.000134687
0.000134588
0.000127839
0.000122083
0.000118761
0.000113437
0.000104568
0.00010058
9.419e-05
0.000151224
0.000146435
0.000136807
0.000133523
0.000139064
0.000144222
0.000142647
0.000137933
0.00013636
0.000134901
0.000137033
0.000135855
0.000128218
0.000117181
0.000114918
0.000112584
0.000114332
0.000112395
0.000129064
0.000125289
0.000156294
0.000160623
0.000169805
0.000168799
0.000154179
0.000143876
0.000139517
0.000140275
0.000136849
0.000136527
0.000130469
0.000121107
0.000121975
0.000127297
0.000129324
0.000122023
0.000128362
0.000128448
0.000135489
0.00013193
0.000136293
0.000129612
0.000120733
0.000120878
0.000131763
0.000139329
0.000141931
0.000140948
0.000143024
0.000141592
0.000147656
0.00015849
0.000158602
0.000146203
0.000140665
0.000139397
0.000139954
0.000136476
0.000134542
0.000128485
0.000125202
0.000132293
0.000140243
0.000140005
0.000131546
0.000125007
0.000122266
0.000121012
0.000120234
0.000119938
0.000113867
0.000103896
0.000105045
0.000119434
0.000130692
0.000131336
0.000130101
0.000130743
0.000131221
0.000124737
0.000101235
9.68453e-05
8.86954e-05
8.82384e-05
9.4371e-05
9.9346e-05
0.000101915
0.000103818
0.000102482
0.00010675
0.000119181
0.000125073
0.00012346
0.00011845
0.00011547
0.000115703
0.000113288
0.000112518
0.000122542
0.000121214
7.62772e-05
7.70859e-05
7.83605e-05
7.9904e-05
8.12385e-05
8.25671e-05
8.3237e-05
8.44492e-05
8.58131e-05
8.6355e-05
8.38943e-05
7.96253e-05
8.04087e-05
8.24474e-05
8.61813e-05
8.74063e-05
9.15011e-05
9.12538e-05
8.72881e-05
9.38478e-05
0.00122618
0.00149274
0.00114875
0.00123271
0.00127106
0.00128044
0.00131854
0.00134071
0.00138989
0.00142936
0.00148287
0.00151882
0.0015993
0.00164212
0.00169239
0.00178017
0.00175155
0.00291473
0.00981176
0.0236358
0.00119194
0.00130436
0.00102305
0.00113878
0.0012023
0.00124147
0.00128241
0.00132604
0.00138655
0.001424
0.00147629
0.00152074
0.0015855
0.00162996
0.00168871
0.00174302
0.00171211
0.00245426
0.00872196
0.0231214
0.00121207
0.00139648
0.00106233
0.00116894
0.0012388
0.00125498
0.00129645
0.00133196
0.00137459
0.0014131
0.00147166
0.00151055
0.00158981
0.00162576
0.0016941
0.00175595
0.00178184
0.00234513
0.00807617
0.0226355
0.00123651
0.00136381
0.0010494
0.00115141
0.00119238
0.00122041
0.0012618
0.00130146
0.00136153
0.00140651
0.00146099
0.00150698
0.00157376
0.00160181
0.00167458
0.00171078
0.00175877
0.00161428
0.00688942
0.0221244
0.0012607
0.00140944
0.00108793
0.00117659
0.00122997
0.00125856
0.00129064
0.00133455
0.0013797
0.0014151
0.00146699
0.00150381
0.00157113
0.00160113
0.00168772
0.00172326
0.00179335
0.00157004
0.00619767
0.0215341
0.00123624
0.00136703
0.00107628
0.00115951
0.00120732
0.00122829
0.00126567
0.00131455
0.00135601
0.00139607
0.00144543
0.00149379
0.00155667
0.00158738
0.0016659
0.00168307
0.00178895
0.00155656
0.00527995
0.0209088
0.00124502
0.00137926
0.00109669
0.00119108
0.00124305
0.00126005
0.00129802
0.00133294
0.00136838
0.00141313
0.00146611
0.0015052
0.00156564
0.00159948
0.00168689
0.00171042
0.00179422
0.00157127
0.00507998
0.020198
0.00127397
0.00135168
0.00108965
0.00119738
0.00121797
0.00123427
0.00127734
0.0013222
0.00136559
0.00141259
0.0014449
0.00149998
0.00156394
0.00159803
0.00167682
0.00169215
0.00181216
0.00165308
0.00569985
0.0194027
0.00122533
0.00133501
0.00111683
0.00118732
0.00122108
0.00126301
0.00130873
0.00132821
0.00136474
0.00140562
0.0014644
0.00152806
0.00156693
0.00160436
0.00169337
0.00170332
0.00183059
0.001674
0.00540759
0.0186163
0.00125145
0.00130453
0.00108908
0.00116966
0.00120117
0.00124217
0.00125308
0.00130281
0.00136287
0.00141648
0.00145711
0.00148546
0.00152071
0.00158161
0.00165002
0.00168585
0.00186582
0.00169003
0.00476757
0.0176884
0.00117041
0.00120923
0.00107847
0.00115103
0.00120062
0.00123354
0.0012644
0.00133176
0.00136048
0.00137747
0.0014084
0.00146621
0.00152361
0.00159061
0.00166109
0.00170995
0.00181825
0.00167506
0.00392433
0.0159073
0.0011585
0.00121658
0.00109532
0.00114709
0.00118188
0.00119513
0.00122734
0.00127768
0.00127956
0.00132897
0.00138452
0.00146073
0.00149277
0.0015587
0.00160264
0.00166938
0.00178741
0.00173742
0.00328902
0.0140193
0.0011064
0.0011505
0.00104602
0.00109369
0.00113251
0.00115692
0.00121038
0.001243
0.00127429
0.00137875
0.00143432
0.00145074
0.00148618
0.00156208
0.00160552
0.00168462
0.00170953
0.00171252
0.00274543
0.01136
0.00110166
0.0011563
0.00106569
0.00112767
0.00115699
0.00118181
0.00122089
0.00125733
0.00131633
0.0013734
0.00133119
0.00139031
0.00148655
0.00153239
0.00154938
0.00161362
0.00167721
0.00174116
0.0023406
0.00923561
0.001092
0.0011466
0.00107052
0.00112536
0.00114382
0.00118537
0.00123182
0.00125866
0.00130299
0.00130084
0.00134487
0.00146746
0.00144023
0.00144619
0.0015086
0.0016358
0.00165903
0.00170225
0.00197749
0.00734377
0.00106491
0.00110975
0.00105356
0.00109824
0.0011321
0.00118148
0.0011851
0.00120971
0.00123849
0.00125474
0.0013329
0.00134485
0.00133856
0.00145938
0.00158231
0.00161859
0.00157656
0.0017146
0.00185346
0.006193
0.00101413
0.00106959
0.00101652
0.00106582
0.00110613
0.00111838
0.00113808
0.00120568
0.00123954
0.00130492
0.00136348
0.00137858
0.00147425
0.00161592
0.00157508
0.00151949
0.00154856
0.00168278
0.00170756
0.00505593
0.00100613
0.00106082
0.00102706
0.00109736
0.00113132
0.00114966
0.00121388
0.00124686
0.00126109
0.00130838
0.00131367
0.00137702
0.00142388
0.00139409
0.00131072
0.00146099
0.00159537
0.00166027
0.00170664
0.00435897
0.000998897
0.00103717
0.00101518
0.00105822
0.00107406
0.00110457
0.00114597
0.00114764
0.00119614
0.00125224
0.00128075
0.00132477
0.00132742
0.00133809
0.00145043
0.00163445
0.00156797
0.00160593
0.00175359
0.00391304
0.000983234
0.0010047
0.000982429
0.00102739
0.00105804
0.00110544
0.00111973
0.00117763
0.0012317
0.00124974
0.00127879
0.00130661
0.00134348
0.00141664
0.00153521
0.00149122
0.00157053
0.00167358
0.00167688
0.00356821
0.000944673
0.00112403
0.00116285
0.00106845
0.000961711
0.00086458
0.000885812
0.000884346
0.000884139
0.000881701
0.000890687
0.000908588
0.0010009
0.000917132
0.00046725
0.000180571
0.00500393
0.013813
0.0155747
0.00668037
0.000934485
0.00111189
0.00116511
0.00107932
0.0010307
0.000955568
0.000923595
0.000896948
0.000914472
0.000938844
0.000955803
0.000984238
0.00103968
0.00102232
0.000684378
0.000194708
0.00283691
0.0125982
0.016173
0.00934783
0.000944384
0.00111429
0.00121591
0.00114162
0.00106486
0.000955203
0.000967231
0.000975289
0.000972193
0.000979871
0.00100297
0.00104105
0.00108429
0.0011826
0.00106932
0.000605088
0.00108272
0.0115796
0.0165704
0.0120565
0.000942956
0.00110553
0.00122636
0.0011438
0.00110149
0.00102811
0.000999885
0.000981721
0.0010099
0.00104575
0.00106589
0.0011028
0.00115261
0.00121113
0.00115916
0.000671094
0.000432715
0.0105028
0.0166241
0.0145327
0.000969495
0.00112857
0.00126488
0.00119559
0.00114795
0.00103727
0.00103774
0.00105371
0.00105463
0.00107131
0.00110713
0.00115004
0.00119781
0.00130404
0.00131561
0.000988372
0.000547787
0.00903573
0.0165483
0.0179043
0.000968718
0.00110294
0.00127193
0.00119172
0.00115263
0.00108535
0.00106572
0.00105371
0.00108768
0.00113494
0.00115081
0.0011961
0.0012574
0.00127776
0.0013432
0.00116059
0.000202179
0.00656924
0.0165374
0.0193924
0.00100129
0.00114165
0.00130764
0.00122416
0.00119275
0.00109721
0.00109015
0.00111746
0.00112931
0.00114548
0.00119117
0.00124419
0.00128918
0.00138014
0.00145693
0.0013024
0.000115258
0.00517341
0.0161569
0.0211189
0.000984349
0.00109503
0.00130887
0.00122639
0.00118901
0.00112684
0.00112178
0.00111531
0.00114661
0.00120485
0.00122375
0.00127308
0.00133356
0.00136586
0.00143318
0.0013743
0.000452038
0.00347921
0.0160576
0.0215392
0.00103389
0.00116357
0.00135347
0.00123998
0.00120823
0.00114023
0.00113441
0.00116908
0.00119772
0.00121354
0.00126413
0.00132528
0.00137066
0.00146837
0.00152541
0.00152462
0.000531271
0.00276601
0.0156134
0.0223657
0.0010179
0.00109495
0.00132539
0.00123624
0.00120844
0.00115606
0.00116496
0.00117005
0.00119493
0.00125459
0.00128389
0.00133918
0.00140118
0.00144739
0.00150053
0.00153604
0.000849397
0.00192452
0.0152958
0.0232293
0.00105595
0.00115899
0.00138432
0.00124446
0.00120338
0.00117027
0.00117593
0.00121047
0.00125128
0.00127357
0.0013266
0.00138841