/*--------------------------------*- C++ -*----------------------------------*\
  =========                 |
  \\      /  F ield         | OpenFOAM: The Open Source CFD Toolbox
   \\    /   O peration     | Website:  https://openfoam.org
    \\  /    A nd           | Version:  9
     \\/     M anipulation  |
\*---------------------------------------------------------------------------*/
FoamFile
{
    format      ascii;
    class       volScalarField;
    location    "7.6";
    object      p;
}
// * * * * * * * * * * * * * * * * * * * * * * * * * * * * * * * * * * * * * //

dimensions      [0 2 -2 0 0 0 0];

internalField   nonuniform List<scalar> 
46400
(
112.192
116.883
124.044
130.894
136.503
141.833
146.368
150.531
154.18
157.479
160.414
163.044
165.428
167.584
169.581
171.462
173.199
174.903
177.004
177.048
134.562
138.113
144.911
151.218
156.408
161.186
165.254
168.886
172.051
174.849
177.321
179.484
181.403
183.083
184.569
185.905
187.06
188.143
189.35
188.715
155.363
159.064
165.548
171.272
175.809
179.941
183.354
186.379
188.954
191.19
193.132
194.797
196.259
197.516
198.608
199.548
200.33
201.012
201.796
200.784
177.049
181.364
186.971
191.867
195.671
199.081
201.862
204.227
206.215
207.852
209.234
210.345
211.265
212.002
212.59
213.04
213.347
213.544
213.924
212.666
198.382
203.141
207.351
211.328
214.275
216.871
218.956
220.659
222.052
223.134
223.999
224.624
225.084
225.373
225.544
225.617
225.584
225.468
225.554
224.183
220.221
224.901
227.872
230.76
232.953
234.734
236.149
237.176
237.955
238.44
238.746
238.846
238.785
238.566
238.218
237.778
237.242
236.655
236.283
234.638
239.929
243.313
245.705
247.641
249.209
250.33
251.194
251.7
252.004
252.042
251.922
251.608
251.182
250.637
250.009
249.281
248.455
247.561
246.829
244.987
258.837
261.42
263.173
264.395
265.277
265.748
265.991
265.904
265.646
265.159
264.53
263.719
262.787
261.749
260.633
259.453
258.193
256.898
255.747
253.64
274.348
276.343
277.636
278.305
278.752
278.74
278.586
278.11
277.487
276.628
275.695
274.609
273.471
272.202
270.88
269.474
268.011
266.497
265.157
262.888
290.039
291.501
292.25
292.352
292.213
291.657
290.937
289.942
288.792
287.424
285.95
284.367
282.725
281.006
279.254
277.45
275.614
273.757
272.013
269.687
301.815
302.728
303.214
303.017
302.668
301.845
300.893
299.64
298.341
296.835
295.245
293.481
291.658
289.721
287.745
285.707
283.622
281.504
279.513
276.868
314.161
314.448
314.491
313.891
313.106
311.873
310.411
308.674
306.842
304.866
302.828
300.699
298.522
296.298
294.055
291.786
289.501
287.199
285.041
282.354
321.867
321.863
321.692
320.998
320.07
318.838
317.485
315.795
313.955
311.893
309.733
307.446
305.106
302.675
300.234
297.743
295.25
292.733
290.377
287.506
330.493
330.331
329.634
328.439
326.951
325.19
323.321
321.224
319.039
316.689
314.298
311.8
309.283
306.703
304.115
301.509
298.898
296.286
293.84
290.965
334.919
334.784
333.893
332.746
331.301
329.561
327.654
325.531
323.303
320.894
318.429
315.831
313.216
310.505
307.809
305.05
302.315
299.54
296.967
293.916
339.551
338.43
337.597
335.906
334.424
332.32
330.239
327.816
325.373
322.752
320.11
317.364
314.624
311.819
309.032
306.22
303.412
300.597
297.951
294.926
339.608
339.079
338.349
337.058
335.498
333.594
331.484
329.148
326.689
324.063
321.382
318.597
315.78
312.921
310.047
307.18
304.298
301.44
298.79
295.669
338.902
338.261
337.124
335.812
334.048
332.057
329.842
327.466
324.965
322.353
319.666
316.906
314.118
311.292
308.47
305.641
302.824
300.008
297.44
294.345
333.762
333.858
333.244
332.254
330.882
329.242
327.26
325.11
322.718
320.223
317.572
314.87
312.087
309.28
306.437
303.594
300.723
297.866
295.169
292.067
328.764
328.711
328.083
327.142
325.736
324.09
322.135
319.983
317.651
315.195
312.651
310.046
307.385
304.691
301.964
299.228
296.47
293.715
291.116
288.139
-56.9864
-55.8846
-56.0992
-54.7789
-52.7152
-50.569
-47.0006
-43.6257
-40.5937
-37.3587
-34.2652
-31.2446
-28.3311
-25.4542
-22.6926
-19.9622
-17.3252
-14.7602
-12.2537
-9.70278
-56.0586
-57.118
-55.7221
-55.0055
-50.9542
-47.9954
-44.8275
-41.4931
-37.9217
-34.5675
-31.3012
-28.0748
-25.0146
-21.9673
-19.0479
-16.1598
-13.3723
-10.671
-8.06601
-5.42879
-57.7876
-57.6286
-55.0977
-53.8307
-50.6934
-46.6693
-43.0392
-39.0911
-35.3798
-31.7067
-28.1937
-24.7578
-21.4708
-18.2254
-15.1576
-12.1448
-9.25587
-6.51173
-3.84357
-1.19262
-58.5971
-58.0532
-57.3187
-53.4839
-49.5971
-45.5007
-40.9788
-36.8594
-32.7311
-28.7965
-24.9891
-21.2847
-17.7745
-14.2963
-11.0489
-7.8554
-4.88038
-1.89871
0.928
3.5493
-62.2363
-61.2873
-59.8865
-55.0956
-49.7395
-44.7022
-39.5929
-34.7711
-30.1424
-25.7414
-21.5472
-17.5327
-13.7174
-10.0016
-6.57188
-3.13807
0.010464
3.10808
5.96458
8.82893
-66.1716
-65.2109
-61.7495
-56.0171
-49.4582
-43.3227
-37.5976
-32.1261
-26.9931
-22.1754
-17.6178
-13.2865
-9.19862
-5.25895
-1.60229
2.0255
5.26645
8.5882
11.5264
14.4573
-70.1609
-68.527
-62.1946
-55.5212
-47.9658
-41.1144
-34.6841
-28.7492
-23.1099
-17.8903
-12.9689
-8.34468
-3.98025
0.176634
4.03143
7.80504
11.2214
14.7015
17.7104
20.8059
-70.8266
-69.1509
-60.8909
-53.0383
-45.0187
-37.6401
-30.6486
-24.2598
-18.2629
-12.7027
-7.51213
-2.63927
1.92475
6.24215
10.2534
14.1609
17.6525
21.2311
24.2589
27.4696
-68.098
-67.2148
-58.9151
-49.6896
-40.9324
-32.919
-25.4808
-18.6459
-12.2799
-6.4345
-0.984115
4.07466
8.81141
13.2461
17.3634
21.3011
24.8357
28.4721
31.4331
34.6846
-65.6672
-63.5377
-54.5017
-44.4366
-35.0308
-26.565
-18.7512
-11.6535
-5.03977
1.00464
6.59416
11.7944
16.6129
21.1101
25.2847
29.2461
32.8105
36.4239
39.3268
42.6106
-59.2198
-56.7345
-46.8135
-36.5944
-26.9344
-18.2706
-10.2577
-3.00877
3.71931
9.85947
15.5218
20.746
25.5948
30.0928
34.2608
38.1638
41.707
45.2402
48.076
51.367
-51.034
-47.8394
-37.3665
-26.7718
-17.0499
-8.36487
-0.246685
7.0259
13.7844
19.9361
25.5692
30.7866
35.5759
40.0076
44.1098
47.9242
51.3916
54.8161
57.5163
60.7996
-40.4781
-36.5508
-25.6301
-15.2066
-5.18434
3.35705
11.4826
18.7136
25.3724
31.4587
37.0001
42.0948
46.7794
51.0965
55.0783
58.7308
62.0828
65.3295
67.8627
71.0932
-26.8511
-22.5971
-11.6011
-1.44699
8.37871
16.8101
24.6799
31.7794
38.2535
44.1647
49.5177
54.4515
58.9398
63.0665
66.8641
70.32
73.5115
76.5257
78.8626
82.0573
-11.9644
-7.31634
4.19907
14.0439
23.672
31.847
39.4617
46.3019
52.5084
58.1893
63.3055
67.9833
72.2414
76.1368
79.693
82.8925
85.8762
88.5602
90.6401
93.7855
5.44096
10.6156
22.4061
31.3775
40.5067
48.301
55.454
61.9798
67.8306
73.1897
77.998
82.3968
86.3624
89.9762
93.2623
96.1964
98.9237
101.315
103.123
106.128
24.096
29.2993
40.9564
49.7064
58.2435
65.7743
72.4922
78.6492
84.1378
89.1592
93.6427
97.7031
101.361
104.667
107.633
110.258
112.706
114.667
116.153
119.068
44.7679
50.1162
61.0872
69.3598
77.2012
84.2283
90.4426
96.1555
101.219
105.842
109.97
113.708
117.054
120.067
122.76
125.129
127.28
128.979
130.222
132.695
66.34
71.6362
81.5424
89.4985
96.5956
103.171
108.839
114.081
118.699
122.906
126.643
129.997
133.003
135.687
138.062
140.155
142.049
143.419
144.357
146.951
88.8782
94.4333
102.999
110.37
116.698
122.656
127.807
132.542
136.736
140.548
143.971
147.062
149.862
152.411
154.729
156.876
158.842
160.544
162.387
165.012
2.02787
13.437
29.6264
37.5537
47.6615
52.7599
59.5276
63.1281
67.2785
70.1831
72.6501
74.9622
76.4919
78.3462
79.4364
80.6612
82.0571
82.2056
82.5098
82.41
6.82852
17.1711
33.0827
40.4219
50.0598
54.7952
61.3258
64.7144
68.5901
71.3548
73.6362
75.8636
77.2252
79.0443
79.9643
81.1785
82.3808
82.5465
82.7368
82.6341
11.5927
21.0237
36.7668
43.0637
52.5288
56.9238
62.9713
66.2068
69.8947
72.5421
74.6706
76.813
78.0194
79.7959
80.549
81.7666
82.7271
82.9428
83.0295
82.9089
16.3556
24.8998
40.1969
46.0379
54.9778
59.0613
64.8198
67.836
71.2328
73.7387
75.669
77.7399
78.7491
80.5292
81.0568
82.312
83.0113
83.3288
83.2322
83.1374
21.7508
28.9976
44.517
48.8549
57.4794
61.2625
66.5062
69.3694
72.5672
74.9625
76.7227
78.712
79.5494
81.2987
81.6378
82.8961
83.3205
83.7875
83.5024
83.4114
27.7866
33.2625
48.8369
51.9286
59.9518
63.5185
68.4125
71.025
73.9363
76.1768
77.7454
79.64
80.3132
82.0204
82.1807
83.4714
83.5824
84.21
83.6647
83.6437
34.3842
37.8137
52.9825
54.8406
62.4399
65.7488
70.1516
72.597
75.3011
77.4374
78.8241
80.6184
81.141
82.7839
82.8233
84.3839
83.9018
84.6822
83.9244
83.9142
40.5699
42.2821
56.912
58.125
64.8942
68.0783
72.1087
74.2735
76.6922
78.6699
79.8758
81.5451
81.9426
83.4897
83.4421
84.9579
84.2015
85.0862
84.1161
84.1523
47.0268
47.0891
60.8136
61.2192
67.3892
70.3008
73.9141
75.8767
78.0827
79.945
80.9723
82.5286
82.8027
84.2293
84.1641
85.4563
84.5342
85.5308
84.2894
84.4236
54.0325
51.8654
64.9227
64.6753
69.8945
72.6676
75.9272
77.5705
79.4887
81.2106
82.0543
83.4556
83.6468
84.9157
84.8449
85.8403
84.895
85.9462
84.4388
84.6703
61.3826
57.0972
69.0153
67.9473
72.4414
74.8811
77.8129
79.2019
80.8935
82.5035
83.1743
84.4408
84.5442
85.6418
85.6244
86.2647
85.2729
86.4556
84.6159
84.9454
69.2561
62.3162
73.2759
71.5251
75.069
77.249
79.8779
80.9142
82.3057
83.7818
84.28
85.3694
85.4308
86.3191
86.3762
86.7082
85.6595
86.8744
84.7688
85.2012
77.6413
68.0536
77.4767
74.9291
77.768
79.4474
81.8387
82.5733
83.7119
85.0961
85.4159
86.3514
86.3694
87.0345
87.2328
87.2754
86.0591
87.2297
84.9032
85.4874
86.5291
73.7295
81.9011
78.5651
80.6502
81.7948
83.9533
84.3185
85.1296
86.3913
86.5477
87.2889
87.301
87.71
88.079
87.7917
86.4858
87.583
84.974
85.7453
96.0028
79.727
86.2009
81.908
83.6141
83.9857
85.9484
86.0152
86.5255
87.7048
87.6862
88.2625
88.2755
88.4079
89.0246
88.3413
86.9356
88.0027
85.0109
86.0828
106.091
85.7977
91.3614
85.6204
86.8134
86.3136
87.988
87.7258
87.8812
88.9692
88.7755
89.1523
89.2197
89.0466
89.9678
88.8409
87.3929
88.3964
85.0076
86.5507
116.819
91.911
96.6001
89.1574
90.1932
88.6282
90.1374
89.6656
89.4138
90.4523
90.0617
90.2944
90.2845
89.8139
91.0278
89.437
87.8976
88.8061
84.8548
86.8193
126.565
97.5333
101.534
92.391
93.6932
91.0561
92.1636
91.4593
90.7762
91.7739
91.167
91.1652
91.3044
90.4108
92.1421
90.0278
88.3771
89.748
84.7775
87.5924
140.405
104.541
107.98
95.0864
96.733
92.4609
93.3261
92.4943
91.5721
92.3885
91.7895
91.7351
91.9254
90.8034
93.1789
89.9297
88.6454
89.8224
84.6298
87.7305
158.115
118.502
116.636
103.153
101.898
96.8771
96.8231
95.705
94.3445
94.8405
93.9867
94.0595
93.5915
92.8917
94.3735
91.5126
89.5324
89.9257
83.4729
88.5408
175.844
175.451
146.652
150.82
134.026
136.199
126.775
126.194
121.227
119.657
116.385
115.67
111.819
112.788
106.119
110.892
102.02
108.215
86.9829
113.3
195.893
185.703
168.026
161.767
149.071
145.546
136.789
134.053
127.825
125.615
121.175
119.707
115.949
115.374
111.299
112.164
108.194
109.979
106.932
109.294
187.654
178.645
169.419
163.221
155.948
151.125
145.745
141.861
137.929
134.549
131.61
128.938
126.098
124.405
121.395
120.92
117.655
117.978
116.045
117.11
179.919
174.075
169.088
162.902
157.748
152.758
148.133
144.179
140.205
137.328
133.745
131.477
128.54
126.707
124.39
122.899
121.314
120.356
119.347
119.245
168.465
163.809
161.126
157.094
154.373
150.708
147.996
144.777
142.233
139.396
137.088
134.56
132.392
130.167
128.111
126.166
124.274
122.538
121.645
121.58
161.026
158.782
157.84
155.098
152.941
150.168
147.706
145.153
142.643
140.356
137.906
135.82
133.544
131.562
129.542
127.54
125.83
123.909
122.845
122.396
154.059
152.393
151.906
149.984
148.675
146.77
145.502
143.692
142.132
140.367
138.632
136.867
134.996
133.167
131.174
129.148
127.047
124.809
123.241
122.54
149.935
149.346
149.417
148.494
147.877
146.568
145.321
143.884
142.44
141.039
139.415
137.936
136.131
134.492
132.51
130.488
128.34
125.606
124.104
122.347
146.444
146.168
146.178
145.611
144.948
144.415
143.758
143.208
142.259
141.498
140.269
139.395
137.855
136.841
134.885
133.63
131.005
129.455
126.835
126.425
144.654
144.912
145.201
145.335
145.091
144.893
144.428
143.77
143.121
142.444
141.745
141.021
140.046
139.209
137.893
136.879
134.734
133.666
129.371
129.463
143.318
143.643
143.926
144.04
144.151
144.222
144.356
144.535
144.32
144.369
143.781
143.829
143.083
143.165
142.124
142.285
140.435
141.524
139.113
141.733
142.806
143.316
143.801
144.27
144.664
145.029
145.099
145.39
145.493
145.756
145.927
146.135
146.436
146.607
147.164
147.346
148.262
148.713
150.638
152.824
142.771
143.403
143.907
144.451
144.882
145.362
145.751
146.242
146.566
147.193
147.497
148.289
148.72
149.753
150.574
151.641
153.57
154.209
157.821
158.411
142.976
143.624
144.238
144.862
145.435
146.096
146.655
147.374
147.976
148.748
149.451
150.393
151.237
152.458
153.538
155.279
156.565
159.205
161.982
164.572
143.245
143.92
144.539
145.216
145.815
146.516
147.115
147.882
148.497
149.384
150.071
151.131
151.954
153.267
154.299
155.969
157.224
159.448
160.303
171.037
143.641
144.319
144.981
145.685
146.353
147.11
147.796
148.627
149.349
150.284
151.054
152.157
152.972
154.321
155.177
156.873
157.722
159.884
160.68
163.522
143.923
144.583
145.238
145.929
146.601
147.334
148.033
148.823
149.564
150.43
151.228
152.199
153.064
154.187
155.095
156.462
157.317
159.135
159.976
162.789
144.23
144.882
145.547
146.239
146.927
147.665
148.376
149.166
149.899
150.748
151.503
152.413
153.19
154.141
154.951
155.897
156.746
157.593
158.199
158.991
144.385
145.02
145.674
146.349
147.028
147.742
148.446
149.198
149.926
150.714
151.46
152.28
153.025
153.872
154.571
155.432
156.018
156.894
157.237
157.726
144.494
145.127
145.782
146.453
147.137
147.842
148.552
149.288
150.018
150.778
151.519
152.292
153.026
153.79
154.489
155.211
155.827
156.42
156.918
157.378
251.566
254.409
256.306
257.844
258.603
258.817
258.307
257.364
255.484
253.426
250.207
247.105
242.642
238.498
233.103
228.15
221.972
215.842
208.531
199.613
224.947
226.637
227.96
229.027
229.763
230.251
230.419
230.383
229.992
229.498
228.611
227.668
226.311
225.059
223.107
221.451
217.793
213.916
210.356
208.54
187.258
188.498
189.819
190.909
191.942
192.867
193.613
194.366
194.828
195.392
195.547
195.991
195.884
196.026
195.644
195.605
194.919
194.791
193.616
193.545
174.712
175.698
176.643
177.513
178.323
179.063
179.732
180.332
180.83
181.293
181.613
181.981
182.109
182.404
182.335
182.522
182.242
182.414
181.954
182.159
158.599
159.424
160.215
160.975
161.683
162.382
163.013
163.661
164.221
164.831
165.319
165.885
166.291
166.818
167.128
167.643
167.835
168.358
168.287
168.808
152.559
153.205
153.843
154.446
155.038
155.599
156.146
156.666
157.167
157.645
158.077
158.509
158.871
159.274
159.564
159.954
160.157
160.545
160.651
161.073
145.765
146.32
146.861
147.384
147.882
148.373
148.83
149.289
149.707
150.135
150.523
150.941
151.298
151.696
152.024
152.391
152.666
153.017
153.224
153.614
142.972
143.414
143.851
144.269
144.682
145.078
145.47
145.844
146.214
146.566
146.913
147.243
147.551
147.859
148.135
148.441
148.69
149.012
149.226
149.532
140.284
140.672
141.067
141.441
141.805
142.161
142.5
142.835
143.151
143.465
143.758
144.05
144.323
144.599
144.851
145.112
145.338
145.589
145.777
146.025
139.343
139.678
139.999
140.319
140.627
140.928
141.221
141.505
141.78
142.048
142.303
142.554
142.788
143.02
143.236
143.455
143.652
143.862
144.035
144.245
138.32
138.616
138.906
139.185
139.46
139.721
139.987
140.258
140.53
140.806
141.078
141.363
141.613
141.832
142.037
142.23
142.412
142.595
142.758
142.933
138.703
138.947
139.185
139.419
139.648
139.871
140.089
140.301
140.508
140.71
140.906
141.1
141.287
141.469
141.643
141.815
141.977
142.139
142.288
142.442
138.68
138.908
139.133
139.354
139.573
139.788
140
140.208
140.413
140.614
140.812
141.004
141.193
141.376
141.556
141.73
141.899
142.062
142.221
142.375
139.251
139.449
139.646
139.839
140.03
140.218
140.405
140.587
140.769
140.946
141.122
141.294
141.465
141.632
141.797
141.958
142.118
142.272
142.427
142.574
139.712
139.888
140.063
140.237
140.411
140.583
140.754
140.925
141.094
141.261
141.428
141.592
141.756
141.916
142.077
142.233
142.391
142.542
142.697
142.843
140.248
140.409
140.57
140.731
140.891
141.052
141.212
141.371
141.531
141.689
141.848
142.005
142.162
142.318
142.474
142.627
142.783
142.933
143.088
143.235
140.698
140.844
140.991
141.138
141.285
141.433
141.582
141.731
141.88
142.03
142.18
142.329
142.48
142.629
142.781
142.929
143.081
143.228
143.38
143.525
141.088
141.225
141.362
141.501
141.64
141.781
141.923
142.066
142.21
142.354
142.5
142.646
142.793
142.94
143.089
143.236
143.386
143.534
143.686
143.832
141.328
141.458
141.589
141.721
141.855
141.99
142.126
142.264
142.403
142.543
142.684
142.826
142.969
143.113
143.259
143.404
143.552
143.698
143.848
143.995
141.469
141.595
141.722
141.851
141.981
142.113
142.247
142.382
142.518
142.656
142.796
142.937
143.078
143.222
143.366
143.512
143.659
143.807
143.957
144.106
-17.4015
-21.2498
-29.0539
-36.3918
-43.6584
-51.4002
-59.4775
-68.0167
-77.0627
-86.7676
-97.1222
-108.327
-120.336
-133.424
-147.55
-162.935
-179.847
-197.908
-218.736
-229.001
0.0758201
-2.47346
-8.22878
-14.1052
-20.1871
-26.7688
-33.8042
-41.3661
-49.4759
-58.2363
-67.6591
-77.9021
-88.935
-101.017
-114.101
-128.435
-144.149
-161.154
-180.96
-190.928
20.3603
18.9682
14.2455
9.13648
3.85132
-1.96796
-8.21975
-14.9687
-22.2237
-30.101
-38.5818
-47.8291
-57.7961
-68.7551
-80.5851
-93.6283
-107.905
-123.351
-141.727
-152.534
41.0469
40.0116
35.9821
31.7117
27.2412
22.3047
16.9507
11.129
4.80164
-2.10329
-9.59949
-17.8286
-26.7583
-36.6369
-47.3349
-59.2431
-72.1202
-86.3409
-102.997
-113.165
62.622
62.0865
58.6566
55.018
51.2008
46.9406
42.2977
37.2191
31.6826
25.6034
18.9725
11.6724
3.73144
-5.07268
-14.611
-25.2382
-36.7497
-49.5782
-64.5721
-73.9822
83.4446
83.1708
80.3815
77.3599
74.2163
70.7115
66.8325
62.5729
57.8675
52.6744
46.9617
40.6361
33.6963
25.9366
17.4894
7.93809
-2.35012
-14.0764
-27.3046
-35.181
104.01
104.263
102.137
99.7981
97.3063
94.4514
91.2494
87.695
83.7302
79.3206
74.4202
68.9486
62.8799
56.0481
48.5427
40.0184
30.7269
20.0469
7.83543
1.35562
125.035
125.382
123.453
121.578
119.575
117.289
114.72
111.877
108.651
105.052
100.985
96.4197
91.2875
85.4658
79.0062
71.4926
63.2709
53.5502
42.1143
35.8223
144.229
144.852
143.578
142.313
140.972
139.347
137.47
135.321
132.817
129.973
126.702
122.985
118.728
113.842
108.331
101.877
94.8498
86.2473
76.234
69.3954
162.764
163.671
162.889
162.129
161.289
160.215
158.935
157.432
155.633
153.576
151.109
148.276
144.917
141.082
136.65
131.435
125.641
118.268
110.351
102.937
180.044
181.217
180.996
180.799
180.55
180.099
179.477
178.632
177.538
176.153
174.424
172.379
169.915
167.027
163.576
159.498
154.839
148.985
142.968
135.213
196.298
197.761
198.022
198.298
198.493
198.539
198.412
198.123
197.609
196.914
195.947
194.734
193.107
191.143
188.662
185.733
182.177
177.843
173.12
166.414
211.305
212.999
213.735
214.481
215.199
215.793
216.258
216.589
216.749
216.719
216.417
215.859
214.965
213.772
212.14
210.094
207.491
204.334
200.513
195.436
225.402
227.378
228.531
229.693
230.805
231.809
232.682
233.452
234.04
234.47
234.681
234.715
234.439
233.93
232.982
231.726
229.923
227.683
224.766
220.822
237.988
240.239
241.749
243.289
244.815
246.253
247.602
248.855
249.962
250.937
251.724
252.318
252.642
252.726
252.45
251.894
250.793
249.317
247.054
243.832
249.813
252.264
254.06
255.917
257.729
259.464
261.094
262.651
264.064
265.387
266.523
267.517
268.269
268.86
269.089
269.039
268.455
267.573
265.957
263.507
259.856
262.468
264.476
266.593
268.697
270.752
272.757
274.709
276.576
278.363
279.989
281.513
282.782
283.886
284.572
285.063
285.033
284.814
283.752
282.003
269.51
272.26
274.466
276.79
279.122
281.392
283.627
285.782
287.862
289.819
291.661
293.334
294.81
296.075
297.088
297.94
298.348
298.56
298.021
296.95
276.596
279.428
281.809
284.322
286.833
289.308
291.755
294.166
296.514
298.796
300.978
303.035
304.959
306.7
308.273
309.587
310.56
311.201
311.188
310.814
283.509
286.481
288.983
291.652
294.322
296.967
299.59
302.174
304.698
307.14
309.488
311.709
313.803
315.721
317.401
318.861
319.944
320.822
321.129
321.278
-327.931
-336.829
-346.15
-356.128
-366.319
-377.177
-388.271
-399.921
-411.916
-424.404
-437.33
-450.738
-464.564
-478.974
-493.776
-509.078
-524.151
-535.882
-539.662
-540.321
-322.435
-331.552
-341.009
-351.259
-361.728
-372.953
-384.458
-396.588
-409.204
-422.393
-436.198
-450.599
-465.756
-481.749
-498.113
-515.8
-533.915
-549.041
-556.781
-557.572
-315.912
-325.292
-334.966
-345.541
-356.364
-367.993
-380.017
-392.709
-405.954
-419.869
-434.474
-449.85
-466.102
-483.207
-501.352
-520.867
-541.463
-560.014
-572.306
-573.19
-309.125
-318.713
-328.485
-339.285
-350.325
-362.257
-374.62
-387.708
-401.469
-415.965
-431.297
-447.497
-464.698
-482.979
-502.629
-523.68
-546.195
-567.601
-583.96
-584.533
-301.01
-310.815
-320.73
-331.761
-343.066
-355.267
-368.011
-381.504
-395.709
-410.722
-426.622
-443.464
-461.377
-480.474
-500.951
-522.815
-546.233
-569.504
-589.128
-592.652
-292.574
-302.441
-312.27
-323.403
-334.795
-347.149
-360.083
-373.797
-388.303
-403.667
-419.985
-437.308
-455.817
-475.581
-496.759
-519.611
-544.176
-569.413
-589.213
-594.631
-282.213
-292.302
-302.174
-313.385
-324.935
-337.397
-350.518
-364.447
-379.185
-394.818
-411.453
-429.133
-448.013
-468.156
-489.697
-513.011
-537.588
-563.057
-586.441
-591.487
-271.17
-281.29
-291.099
-302.293
-313.832
-326.305
-339.45
-353.422
-368.258
-384.046
-400.86
-418.788
-438.025
-458.572
-480.788
-504.755
-530.153
-558.437
-580.468
-585.211
-258.38
-268.538
-278.273
-289.386
-300.92
-313.326
-326.471
-340.443
-355.294
-371.088
-387.947
-405.937
-425.217
-445.89
-468.175
-492.24
-518.397
-546.512
-570.705
-576.824
-244.845
-254.94
-264.476
-275.433
-286.811
-299.058
-312.04
-325.862
-340.565
-356.272
-373.031
-390.948
-410.226
-430.824
-453.173
-477.277
-503.044
-531.447
-555.888
-562.272
-229.446
-239.468
-248.807
-259.518
-270.716
-282.728
-295.513
-309.128
-323.645
-339.122
-355.671
-373.389
-392.403
-412.831
-434.961
-458.693
-484.592
-512.643
-537.878
-545.681
-213.3
-223.161
-232.222
-242.646
-253.568
-265.272
-277.727
-291.02
-305.177
-320.338
-336.539
-353.897
-372.601
-392.614
-414.361
-437.736
-463.007
-490.568
-516.001
-524.22
-195.352
-205.049
-213.806
-223.852
-234.435
-245.753
-257.846
-270.75
-284.539
-299.281
-315.058
-332.003
-350.193
-369.773
-391.046
-413.775
-438.618
-465.855
-491.223
-500.339
-176.669
-186.138
-194.553
-204.187
-214.391
-225.29
-236.923
-249.377
-262.663
-276.911
-292.166
-308.543
-326.193
-345.142
-365.72
-387.706
-411.971
-438.21
-463.599
-472.907
-156.338
-165.573
-173.626
-182.798
-192.559
-202.965
-214.119
-226.058
-238.826
-252.517
-267.184
-282.98
-299.949
-318.264
-338.113
-359.429
-382.989
-407.888
-433.453
-443.092
-135.259
-144.262
-151.923
-160.604
-169.906
-179.825
-190.445
-201.846
-214.031
-227.119
-241.154
-256.253
-272.531
-290.044
-309.049
-329.456
-351.94
-375.77
-401.352
-411.029
-113.033
-121.701
-128.925
-137.076
-145.892
-155.273
-165.348
-176.179
-187.761
-200.213
-213.56
-227.969
-243.445
-260.175
-278.293
-297.831
-319.252
-342.057
-366.885
-376.832
-90.568
-98.9006
-105.541
-113.069
-121.349
-130.185
-139.672
-149.896
-160.842
-172.624
-185.275
-198.918
-213.618
-229.484
-246.713
-265.234
-285.615
-307.433
-331.476
-341.437
-65.1767
-73.9692
-80.4408
-87.4476
-95.3584
-103.807
-112.814
-122.518
-132.887
-144.044
-155.988
-168.903
-182.753
-197.77
-214.008
-231.579
-250.877
-271.5
-294.461
-304.521
-35.8742
-44.9913
-52.9984
-60.3124
-68.226
-76.6311
-85.4113
-94.7268
-104.601
-115.155
-126.425
-138.564
-151.59
-165.701
-180.99
-197.506
-215.685
-235.189
-257.272
-267.403
-15.6527
-16.1628
-17.1176
-19.612
-22.3261
-26.6299
-30.408
-36.12
-41.4954
-49.0602
-56.9122
-66.9445
-78.8057
-92.3365
-110.743
-129.717
-159.136
-187.841
-234.388
-284.541
-15.1426
-15.6795
-16.4166
-19.002
-21.5224
-25.7556
-29.3963
-35.0019
-40.2218
-47.637
-55.2752
-65.1046
-76.6693
-89.8647
-107.918
-126.225
-155.291
-182.999
-229.399
-278.534
-14.5709
-15.1166
-15.6652
-18.3515
-20.7379
-24.8907
-28.3943
-33.8769
-38.9412
-46.2128
-53.6419
-63.2737
-74.5361
-87.4184
-105.082
-122.796
-151.458
-177.913
-223.775
-271.352
-13.9813
-14.466
-14.9454
-17.6412
-19.8769
-23.9452
-27.3123
-32.6792
-37.585
-44.7015
-51.9025
-61.3407
-72.2647
-84.8513
-102.051
-119.195
-147.344
-172.75
-218.325
-264.405
-13.3302
-13.7787
-14.2036
-16.9095
-19.0319
-23.0092
-26.2406
-31.4739
-36.2193
-43.1885
-50.1659
-59.413
-69.9956
-82.2978
-99.0193
-115.625
-143.129
-167.413
-212.107
-256.171
-12.6631
-13.0622
-13.4632
-16.1262
-18.1168
-21.9946
-25.0893
-30.1978
-34.7825
-41.5902
-48.3292
-57.3864
-67.5953
-79.6296
-95.8024
-111.882
-138.696
-161.958
-205.893
-248.045
-11.95
-12.2848
-12.7241
-15.3347
-17.2147
-20.9887
-23.948
-28.9128
-33.3346
-39.9883
-46.4948
-55.3605
-65.1958
-76.9664
-92.5762
-108.161
-134.167
-156.267
-198.864
-238.756
-11.2166
-11.4685
-11.9612
-14.4993
-16.2456
-19.9072
-22.7288
-27.5587
-31.8201
-38.3042
-44.5678
-53.2394
-62.675
-74.1957
-89.1778
-104.266
-129.406
-150.413
-191.81
-229.449
-10.4634
-10.6313
-11.1818
-13.665
-15.2873
-18.8324
-21.5182
-26.195
-30.2936
-36.6145
-42.6427
-51.1149
-60.1545
-71.4221
-85.7646
-100.392
-124.559
-144.331
-183.978
-218.831
-9.70243
-9.78964
-10.3839
-12.7934
-14.2655
-17.6856
-20.2323
-24.7643
-28.7054
-34.8475
-40.6339
-48.8997
-57.5247
-68.5477
-82.1913
-96.3484
-119.457
-138.038
-176.085
-208.038
-8.94633
-8.97903
-9.58445
-11.9288
-13.2526
-16.5427
-18.9529
-23.3239
-27.1045
-33.0731
-38.6261
-46.6771
-54.8955
-65.663
-78.6034
-92.3237
-114.285
-131.559
-167.476
-195.907
-8.2011
-8.20557
-8.77323
-11.0368
-12.1791
-15.331
-17.6017
-21.8189
-25.4469
-31.2278
-36.5447
-44.3697
-52.1716
-62.6852
-74.8721
-88.1398
-108.842
-124.831
-158.765
-183.472
-7.46884
-7.48344
-7.9659
-10.1564
-11.1102
-14.1195
-16.2544
-20.3046
-23.7768
-29.3744
-34.4636
-42.0522
-49.4496
-59.6904
-71.1283
-83.9684
-103.336
-117.975
-149.413
-169.658
-6.76579
-6.81353
-7.15567
-9.24917
-9.97607
-12.8406
-14.8384
-18.7275
-22.0533
-27.4553
-32.3156
-39.6525
-46.6423
-56.602
-67.2537
-79.6397
-97.5482
-110.857
-139.916
-155.451
-6.09277
-6.17748
-6.34118
-8.36797
-8.84816
-11.5578
-13.4238
-17.1419
-20.3187
-25.5301
-30.1698
-37.2454
-43.8461
-53.505
-63.3931
-75.346
-91.7552
-103.752
-129.896
-139.819
-5.40513
-5.56936
-5.53978
-7.45621
-7.67387
-10.2156
-11.9528
-15.5071
-18.5478
-23.5616
-27.9837
-34.7842
-41.0039
-50.3484
-59.4523
-70.9203
-85.6942
-96.3432
-119.424
-123.404
-4.74589
-5.02713
-4.75422
-6.49311
-6.3865
-8.85087
-10.4632
-13.8465
-16.7388
-21.5495
-25.7489
-32.2499
-38.0826
-47.0546
-55.3586
-66.2922
-79.3645
-88.7612
-108.377
-106.118
-4.01147
-4.37868
-3.77573
-5.59119
-5.03916
-7.39365
-8.89891
-12.1057
-14.8674
-19.4717
-23.4441
-29.6368
-35.1054
-43.7242
-51.2912
-61.7471
-73.2354
-81.5269
-97.8851
-89.1226
-3.52797
-3.95961
-3.09369
-4.81081
-3.89426
-6.0849
-7.50117
-10.5424
-13.2247
-17.6918
-21.5095
-27.4628
-32.7186
-41.0981
-48.1296
-58.187
-68.2575
-75.2687
-86.271
-66.3082
-2.66167
-4.29339
-2.99824
-3.61884
-2.61217
-4.52046
-5.90554
-8.82691
-11.3071
-15.5121
-19.1132
-24.6722
-29.4866
-37.2027
-43.1446
-51.9885
-59.3349
-64.5539
-68.7882
-41.1733
13.3082
7.81186
10.1877
8.74283
9.19517
7.76704
7.49913
6.02639
5.52518
4.17003
3.91264
2.26585
2.9313
1.58484
4.84354
3.01862
10.9178
11.0742
22.5155
6.54582
18.3444
17.0286
17.9231
17.5712
18.0027
17.8292
18.0006
18.0381
18.4426
18.8029
20.1068
21.6867
25.065
28.0093
34.148
38.8941
51.0914
55.8992
82.965
89.8298
37.3664
37.3028
36.6795
37.7866
37.7289
38.7325
39.4608
40.6979
42.192
44.0051
46.7406
49.3956
53.2418
56.965
62.9472
68.9629
77.8855
86.845
100.849
112.777
43.6086
43.8266
44.0736
45.1053
46.1494
47.785
49.5018
51.7167
54.3616
57.3576
60.7884
64.4798
69.2693
74.246
80.9668
87.2472
96.8655
105.053
117.89
127.083
55.624
55.7796
56.8015
58.3913
59.8777
61.8103
63.586
65.8211
68.1627
70.7654
73.874
77.2688
81.3727
85.7252
90.8712
96.3511
102.785
109.15
116.933
124.42
63.3257
63.7444
64.3385
66.2069
67.847
69.9848
72.2264
74.7367
77.5619
80.5623
84.0491
87.5465
91.7937
95.887
101.03
105.778
111.712
117.059
123.846
129.278
72.1258
72.8656
73.7101
75.83
77.5554
79.654
81.8247
84.0375
86.6011
89.1075
92.0419
94.9793
98.3161
101.747
105.493
109.379
113.507
117.73
121.762
125.952
77.9261
78.5034
80.0113
81.942
84.1531
86.1714
88.6274
90.8229
93.526
95.9451
98.9242
101.585
104.861
107.78
111.304
114.5
118.099
121.588
125.466
128.854
84.7873
85.3958
87.488
89.3169
91.8313
93.5853
96.0454
97.8644
100.321
102.286
104.807
106.962
109.613
111.952
114.78
117.245
120.271
122.787
125.454
127.574
90.247
90.803
93.4996
95.0851
97.8137
99.4497
101.864
103.525
105.856
107.601
109.908
111.756
114.124
116.055
118.496
120.473
122.952
124.963
127.544
129.646
98.1949
98.6343
101.776
102.831
105.484
106.682
108.808
110.045
111.958
113.282
115.116
116.549
118.391
119.924
121.821
123.422
125.383
126.951
128.78
130.132
105.511
104.828
109.376
109.873
112.051
112.904
114.477
115.44
116.874
117.903
119.353
120.458
121.969
123.126
124.685
125.871
127.464
128.637
130.265
131.515
120.413
118.847
119.11
119.283
120.339
120.68
121.541
121.969
122.831
123.39
124.311
124.998
125.995
126.797
127.899
128.792
129.982
130.924
132.173
133.02
132.348
130.999
128.466
128.563
127.547
127.483
127.172
127.14
127.327
127.452
127.945
128.242
128.936
129.423
130.26
130.855
131.786
132.456
133.44
134.159
140.204
140.155
136.921
135.632
134.316
133.222
132.722
132.031
131.956
131.605
131.828
131.755
132.189
132.31
132.89
133.208
133.887
134.344
135.096
135.621
147.864
144.534
142.129
139.826
138.518
136.947
136.242
135.278
134.982
134.407
134.384
134.129
134.292
134.313
134.649
134.864
135.34
135.682
136.254
136.69
150.677
146.689
145.267
142.559
141.64
139.774
139.163
137.796
137.552
136.666
136.64
136.145
136.265
136.077
136.304
136.36
136.684
136.918
137.346
137.693
153.691
145.182
144.775
142.536
141.937
140.455
140.062
138.971
138.713
137.972
137.845
137.378
137.39
137.157
137.318
137.332
137.606
137.798
138.141
138.451
148.462
146.378
146.602
143.63
143.222
141.466
141.139
140.019
139.77
138.948
138.854
138.374
138.374
138.124
138.187
138.158
138.337
138.445