/*--------------------------------*- C++ -*----------------------------------*\
  =========                 |
  \\      /  F ield         | OpenFOAM: The Open Source CFD Toolbox
   \\    /   O peration     | Website:  https://openfoam.org
    \\  /    A nd           | Version:  9
     \\/     M anipulation  |
\*---------------------------------------------------------------------------*/
FoamFile
{
    format      ascii;
    class       surfaceScalarField;
    location    "7.6";
    object      phi;
}
// * * * * * * * * * * * * * * * * * * * * * * * * * * * * * * * * * * * * * //

dimensions      [0 3 -1 0 0 0 0];

internalField   nonuniform List<scalar> 
92080
(
-0.00550546
-0.401811
0.407317
-0.0337077
-0.766273
0.794475
-0.0742575
-0.807287
0.847837
-0.114696
-0.793216
0.833654
-0.154428
-0.782157
0.821889
-0.193096
-0.770116
0.808784
-0.23089
-0.758447
0.796241
-0.268398
-0.747571
0.78508
-0.306114
-0.737826
0.775541
-0.343525
-0.729029
0.76644
-0.380727
-0.720432
0.757633
-0.417912
-0.712311
0.749495
-0.454954
-0.705807
0.74285
-0.491014
-0.699618
0.735677
-0.526497
-0.694318
0.729802
-0.563305
-0.68697
0.723778
-0.599542
-0.682375
0.718611
-0.632588
-0.678719
0.711765
-0.664991
-0.671664
0.704067
-0.666501
0.697796
-0.696285
-0.00563174
-0.396179
-0.0404637
-0.731441
-0.0818176
-0.765933
-0.1238
-0.751234
-0.165613
-0.740344
-0.206702
-0.729028
-0.247397
-0.717752
-0.287403
-0.707565
-0.326893
-0.698337
-0.366118
-0.689803
-0.405016
-0.681533
-0.443807
-0.67352
-0.482543
-0.667072
-0.521954
-0.660206
-0.559327
-0.656945
-0.594928
-0.65137
-0.633327
-0.643976
-0.671495
-0.640551
-0.706112
-0.637047
-0.632889
-0.739724
-0.0016938
-0.394486
-0.0397127
-0.693422
-0.0851719
-0.720474
-0.129892
-0.706514
-0.173847
-0.696389
-0.216737
-0.686138
-0.258388
-0.6761
-0.299639
-0.666314
-0.340504
-0.657472
-0.380513
-0.649794
-0.419821
-0.642225
-0.458831
-0.63451
-0.497203
-0.6287
-0.536284
-0.621125
-0.576959
-0.61627
-0.614221
-0.614108
-0.649034
-0.609163
-0.686051
-0.603534
-0.722943
-0.600154
-0.5966
-0.759233
0.000537365
-0.395023
-0.040098
-0.652787
-0.0881403
-0.672432
-0.1358
-0.658854
-0.182595
-0.649594
-0.228298
-0.640435
-0.27307
-0.631328
-0.316494
-0.62289
-0.359585
-0.614381
-0.402204
-0.607176
-0.443518
-0.600911
-0.48409
-0.593938
-0.523192
-0.589598
-0.561271
-0.583045
-0.601432
-0.576109
-0.644278
-0.571261
-0.68483
-0.568611
-0.723466
-0.564899
-0.762445
-0.561176
-0.558721
-0.800324
0.00223808
-0.397261
-0.0391812
-0.611368
-0.0895278
-0.622085
-0.138379
-0.610003
-0.186893
-0.60108
-0.233962
-0.593366
-0.279646
-0.585644
-0.32438
-0.578156
-0.368129
-0.570631
-0.411635
-0.56367
-0.454683
-0.557863
-0.497874
-0.550747
-0.540017
-0.547455
-0.578956
-0.544106
-0.615753
-0.539312
-0.653143
-0.533872
-0.692967
-0.528787
-0.732358
-0.525507
-0.772099
-0.521435
-0.518631
-0.812189
-0.00105416
-0.396207
-0.046937
-0.565485
-0.0992135
-0.569809
-0.149472
-0.559744
-0.199039
-0.551514
-0.248445
-0.54396
-0.297016
-0.537073
-0.343853
-0.53132
-0.390027
-0.524457
-0.435428
-0.51827
-0.479032
-0.514258
-0.523042
-0.506737
-0.569161
-0.501336
-0.614743
-0.498524
-0.658129
-0.495927
-0.698572
-0.493428
-0.737619
-0.489739
-0.776604
-0.486523
-0.814639
-0.4834
-0.480335
-0.852935
-0.00729636
-0.38891
-0.0529096
-0.519872
-0.103151
-0.519568
-0.152164
-0.510731
-0.201082
-0.502595
-0.24891
-0.496132
-0.297087
-0.488896
-0.344444
-0.483963
-0.390305
-0.478595
-0.437165
-0.47141
-0.48224
-0.469183
-0.523883
-0.465094
-0.565758
-0.45946
-0.609277
-0.455006
-0.653836
-0.451368
-0.698334
-0.44893
-0.741949
-0.446123
-0.784728
-0.443745
-0.826665
-0.441463
-0.439199
-0.867801
-0.0182922
-0.370618
-0.0682915
-0.469872
-0.121415
-0.466444
-0.171832
-0.460314
-0.221288
-0.453139
-0.270325
-0.447096
-0.318686
-0.440534
-0.366504
-0.436145
-0.41254
-0.432559
-0.459092
-0.424858
-0.508599
-0.419676
-0.556963
-0.41673
-0.602594
-0.413829
-0.64644
-0.41116
-0.690196
-0.407613
-0.73363
-0.405496
-0.776837
-0.402916
-0.82004
-0.400542
-0.862913
-0.39859
-0.396965
-0.905147
-0.0247832
-0.345835
-0.0756261
-0.419029
-0.128146
-0.413924
-0.179345
-0.409115
-0.229114
-0.40337
-0.276982
-0.399228
-0.325839
-0.391677
-0.374635
-0.387349
-0.420393
-0.386801
-0.4631
-0.382151
-0.505827
-0.376949
-0.55052
-0.372037
-0.596331
-0.368018
-0.642027
-0.365463
-0.687188
-0.362452
-0.732726
-0.359958
-0.777537
-0.358105
-0.822265
-0.355814
-0.86672
-0.354136
-0.352493
-0.911192
-0.0347289
-0.311106
-0.0904793
-0.363279
-0.146643
-0.357761
-0.199782
-0.355976
-0.253208
-0.349944
-0.30309
-0.349345
-0.351618
-0.343149
-0.403889
-0.335079
-0.456859
-0.333831
-0.506621
-0.332389
-0.553404
-0.330166
-0.597839
-0.327602
-0.641798
-0.32406
-0.685999
-0.321262
-0.728982
-0.319469
-0.771646
-0.317294
-0.813824
-0.315927
-0.855517
-0.314121
-0.896886
-0.312767
-0.311144
-0.938235
-0.0369884
-0.274118
-0.091525
-0.308742
-0.147553
-0.301732
-0.200704
-0.302825
-0.253296
-0.297352
-0.30477
-0.297871
-0.349876
-0.298043
-0.393982
-0.290973
-0.441832
-0.285981
-0.491369
-0.282852
-0.540865
-0.28067
-0.590145
-0.278322
-0.63782
-0.276385
-0.685355
-0.273727
-0.732791
-0.272033
-0.779727
-0.270357
-0.826047
-0.269607
-0.871772
-0.268396
-0.916773
-0.267766
-0.266767
-0.961149
-0.0420199
-0.232098
-0.0955899
-0.255172
-0.149646
-0.247676
-0.204219
-0.248253
-0.260589
-0.240982
-0.320259
-0.238201
-0.377303
-0.240999
-0.428109
-0.240168
-0.475962
-0.238128
-0.52384
-0.234974
-0.571626
-0.232884
-0.618634
-0.231313
-0.665146
-0.229873
-0.710961
-0.227911
-0.756412
-0.226583
-0.802053
-0.224716
-0.847663
-0.223997
-0.892994
-0.223065
-0.938223
-0.222537
-0.222258
-0.982732
-0.0463428
-0.185755
-0.0954744
-0.206041
-0.146679
-0.196472
-0.196001
-0.19893
-0.243184
-0.193799
-0.295441
-0.185943
-0.351157
-0.185283
-0.407061
-0.184264
-0.461588
-0.183601
-0.513763
-0.182798
-0.56529
-0.181357
-0.616401
-0.180203
-0.666006
-0.180268
-0.714934
-0.178983
-0.762689
-0.178828
-0.809752
-0.177654
-0.856752
-0.176997
-0.903254
-0.176563
-0.949788
-0.176003
-0.175999
-0.996046
-0.0605216
-0.125234
-0.117142
-0.14942
-0.176479
-0.137135
-0.237735
-0.137675
-0.291337
-0.140198
-0.340481
-0.136799
-0.39097
-0.134794
-0.441421
-0.133813
-0.492196
-0.132826
-0.542938
-0.132056
-0.592086
-0.132209
-0.641534
-0.130755
-0.690705
-0.131097
-0.738811
-0.130878
-0.786841
-0.130797
-0.833427
-0.131068
-0.879763
-0.130661
-0.925445
-0.13088
-0.970788
-0.13066
-0.130905
-1.01588
-0.0663507
-0.0588829
-0.125851
-0.0899195
-0.17901
-0.0839756
-0.231729
-0.0849558
-0.287198
-0.0847292
-0.337903
-0.0860936
-0.389021
-0.083676
-0.439217
-0.0836161
-0.489188
-0.0828562
-0.539373
-0.0818709
-0.589776
-0.0818059
-0.639026
-0.0815055
-0.688912
-0.0812098
-0.738273
-0.0815176
-0.787321
-0.0817492
-0.836124
-0.0822657
-0.883926
-0.0828586
-0.931521
-0.0832851
-0.978318
-0.0838639
-0.0841652
-1.02506
-0.0534434
-0.00543947
-0.11668
-0.026683
-0.173234
-0.0274216
-0.227438
-0.0307513
-0.284402
-0.0277659
-0.341224
-0.029271
-0.396042
-0.0288585
-0.450369
-0.029289
-0.504207
-0.029018
-0.555993
-0.0300846
-0.607877
-0.0299227
-0.65816
-0.0312224
-0.708048
-0.0313212
-0.757157
-0.0324086
-0.80611
-0.0327968
-0.854507
-0.0338682
-0.902822
-0.0345441
-0.95043
-0.0356764
-0.997753
-0.0365416
-0.0375909
-1.04433
-0.0334102
0.0279708
-0.0899822
0.0298889
-0.15056
0.0331565
-0.212627
0.0313156
-0.270463
0.0300699
-0.329011
0.0292772
-0.386018
0.0281483
-0.442207
0.0268998
-0.496541
0.0253158
-0.550356
0.0237311
-0.603018
0.0227388
-0.655017
0.0207768
-0.706538
0.0201996
-0.75681
0.0178633
-0.806772
0.0171652
-0.855715
0.0150752
-0.904381
0.0141224
-0.952359
0.0123007
-0.999937
0.0110365
0.00945531
-1.04698
-0.0540008
0.0819716
-0.120782
0.0966701
-0.18515
0.097525
-0.244975
0.0911402
-0.301322
0.086417
-0.356739
0.0846936
-0.410318
0.0817276
-0.462623
0.0792045
-0.515377
0.0780702
-0.567552
0.0759061
-0.619617
0.0748039
-0.671252
0.0724111
-0.721517
0.0704647
-0.771555
0.0679013
-0.820364
0.0659747
-0.868967
0.063678
-0.916401
0.0615561
-0.963743
0.0596426
-1.01024
0.0575337
0.0556317
-1.05642
-0.0590475
0.141019
-0.117245
0.154867
-0.167736
0.148017
-0.223621
0.147025
-0.282255
0.145051
-0.338477
0.140915
-0.394867
0.138118
-0.450804
0.135141
-0.506556
0.133822
-0.561149
0.1305
-0.614339
0.127994
-0.666295
0.124367
-0.717002
0.121171
-0.768214
0.119113
-0.818342
0.116103
-0.868494
0.113829
-0.918477
0.11154
-0.967741
0.108906
-1.01693
0.106719
0.103948
-1.06524
-0.0553397
0.196359
-0.112275
0.211803
-0.171299
0.207041
-0.229349
0.205074
-0.2859
0.201602
-0.342962
0.197977
-0.400859
0.196014
-0.458009
0.192291
-0.51165
0.187463
-0.564844
0.183694
-0.616276
0.179426
-0.668152
0.176243
-0.720872
0.173892
-0.772498
0.170739
-0.824007
0.167612
-0.874973
0.164795
-0.92519
0.161757
-0.974537
0.158253
-1.02326
0.155439
-1.07102
0.151712
-0.00266136
-0.000419084
0.00308045
0.0459337
-0.0833589
0.0347638
0.178459
-0.30569
0.173165
0.372004
-0.656511
0.462965
0.503132
-0.903205
0.772077
0.565791
-1.01181
0.949148
0.592403
-1.04631
1.0197
0.605186
-1.0545
1.04172
0.613
-1.05432
1.04651
0.617899
-1.05041
1.04551
0.621468
-1.04553
1.04196
0.626181
-1.04232
1.03761
0.630791
-1.04121
1.0366
0.635212
-1.03997
1.03555
0.639176
-1.03909
1.03513
0.643438
-1.03682
1.03256
0.648156
-1.03624
1.03152
0.652191
-1.03542
1.03139
0.655281
-1.03557
1.03248
-1.0329
0.657108
1.03108
0.0134253
-0.0138444
0.0770672
-0.147001
0.238657
-0.467279
0.38888
-0.806734
0.470356
-0.98468
0.504712
-1.04616
0.519598
-1.06119
0.527495
-1.0624
0.53227
-1.0591
0.535198
-1.05334
0.538742
-1.04907
0.542431
-1.04601
0.54638
-1.04516
0.550003
-1.0436
0.552821
-1.04191
0.555062
-1.03906
0.557114
-1.03829
0.559644
-1.03795
0.561754
-1.03768
-1.03291
0.561762
0.0303921
-0.0442365
0.111848
-0.228456
0.266117
-0.621548
0.372471
-0.913088
0.422978
-1.03519
0.442594
-1.06578
0.451045
-1.06965
0.455943
-1.0673
0.458586
-1.06174
0.461167
-1.05592
0.463564
-1.05147
0.466152
-1.0486
0.468232
-1.04724
0.469259
-1.04463
0.46968
-1.04233
0.470631
-1.04001
0.472587
-1.04024
0.474064
-1.03943
0.474017
-1.03763
-1.02925
0.470357
0.0290663
-0.0733028
0.131436
-0.330826
0.260169
-0.750281
0.334538
-0.987457
0.36308
-1.06373
0.373672
-1.07637
0.379066
-1.07504
0.381903
-1.07014
0.383792
-1.06363
0.385219
-1.05735
0.386323
-1.05257
0.387009
-1.04928
0.387044
-1.04727
0.386873
-1.04445
0.386829
-1.04228
0.386739
-1.03992
0.385959
-1.03946
0.383539
-1.03701
0.379475
-1.03357
-1.02359
0.373811
0.0279059
-0.101209
0.139678
-0.442598
0.237536
-0.848139
0.286617
-1.03654
0.304154
-1.08127
0.311002
-1.08322
0.314698
-1.07874
0.315951
-1.07139
0.316843
-1.06452
0.317054
-1.05756
0.316714
-1.05223
0.316064
-1.04863
0.314905
-1.04611
0.312929
-1.04248
0.31017
-1.03953
0.307084
-1.03683
0.303757
-1.03614
0.299916
-1.03317
0.294109
-1.02776
-1.01685
0.287367
0.0357786
-0.136987
0.135075
-0.541895
0.210764
-0.923828
0.242398
-1.06817
0.250593
-1.08946
0.253633
-1.08626
0.253053
-1.07816
0.252602
-1.07094
0.25138
-1.0633
0.249427
-1.05561
0.247087
-1.04989
0.244129
-1.04568
0.240206
-1.04219
0.235902
-1.03817
0.231614
-1.03524
0.227347
-1.03257
0.222332
-1.03112
0.215723
-1.02656
0.207516
-1.01955
-1.00888
0.19955
0.0414752
-0.178462
0.125507
-0.625927
0.181705
-0.980026
0.198567
-1.08503
0.201742
-1.09264
0.200746
-1.08526
0.198903
-1.07631
0.196479
-1.06851
0.193179
-1.06
0.18929
-1.05172
0.18473
-1.04533
0.179548
-1.04049
0.173985
-1.03663
0.167943
-1.03213
0.161289
-1.02858
0.153913
-1.02519
0.145718
-1.02293
0.136956
-1.0178
0.127826
-1.01042
-0.999655
0.118599
0.0431406
-0.221603
0.109039
-0.691825
0.147247
-1.01823
0.154447
-1.09223
0.153803
-1.09199
0.14984
-1.0813
0.145664
-1.07214
0.140792
-1.06364
0.135328
-1.05453
0.129211
-1.0456
0.122615
-1.03874
0.115475
-1.03335
0.107458
-1.02861
0.0989354
-1.02361
0.0901128
-1.01976
0.0811863
-1.01626
0.071713
-1.01345
0.0617032
-1.00779
0.0513377
-1.00006
-0.989164
0.0408465
0.0370301
-0.258633
0.0901877
-0.744983
0.116613
-1.04466
0.118194
-1.09381
0.113943
-1.08774
0.107843
-1.0752
0.100992
-1.06529
0.0935715
-1.05622
0.0854776
-1.04644
0.076898
-1.03702
0.0676048
-1.02944
0.0575474
-1.0233
0.0472486
-1.01831
0.0366644
-1.01302
0.0258366
-1.00893
0.0145966
-1.00502
0.00290622
-1.00176
-0.0089214
-0.995959
-0.0206922
-0.988288
-0.977267
-0.0325886
0.0339113
-0.292545
0.0756445
-0.786716
0.0881524
-1.05717
0.0836056
-1.08927
0.0750252
-1.07916
0.0658711
-1.06605
0.0562587
-1.05567
0.0461961
-1.04616
0.0356811
-1.03593
0.0245853
-1.02593
0.0131435
-1.018
0.00130977
-1.01146
-0.0112198
-1.00578
-0.0242129
-1.00003
-0.0376966
-0.99545
-0.0513534
-0.991368
-0.0652689
-0.987847
-0.0791182
-0.98211
-0.0926774
-0.974728
-0.963504
-0.10644
0.0297441
-0.322289
0.0628791
-0.819851
0.0677174
-1.06201
0.0581129
-1.07966
0.0458994
-1.06695
0.0334378
-1.05358
0.0201753
-1.04241
0.00673352
-1.03272
-0.00687247
-1.02232
-0.0207329
-1.01207
-0.0351632
-1.00357
-0.0500123
-0.996614
-0.0649581
-0.990836
-0.0801634
-0.984826
-0.0955139
-0.980099
-0.111164
-0.975718
-0.127095
-0.971916
-0.143111
-0.966095
-0.158899
-0.95894
-0.947827
-0.174577
0.0236789
-0.345968
0.0454727
-0.841645
0.0411483
-1.05768
0.0274697
-1.06598
0.0123087
-1.05179
-0.00298832
-1.03829
-0.0185601
-1.02684
-0.0344261
-1.01685
-0.050544
-1.0062
-0.0669879
-0.995621
-0.083672
-0.986887
-0.100713
-0.979573
-0.117987
-0.973562
-0.135444
-0.967369
-0.153418
-0.962126
-0.171721
-0.957415
-0.190302
-0.953335
-0.20872
-0.947677
-0.226436
-0.941224
-0.930272
-0.24399
0.0202253
-0.366193
0.0348843
-0.856304
0.0251167
-1.04791
0.00811562
-1.04898
-0.010346
-1.03333
-0.0290614
-1.01957
-0.0484492
-1.00745
-0.0678096
-0.99749
-0.0869565
-0.987055
-0.106236
-0.976342
-0.12586
-0.967263
-0.145688
-0.959745
-0.165694
-0.953556
-0.18593
-0.947132
-0.206406
-0.94165
-0.227262
-0.936559
-0.248252
-0.932344
-0.269317
-0.926613
-0.289681
-0.92086
-0.910711
-0.309243
0.0154054
-0.381598
0.0228262
-0.863724
0.00591523
-1.031
-0.0158247
-1.02724
-0.0376091
-1.01154
-0.0595435
-0.997637
-0.0814647
-0.985531
-0.103711
-0.975244
-0.1258
-0.964966
-0.147792
-0.95435
-0.169886
-0.945169
-0.19225
-0.937381
-0.214515
-0.931291
-0.23671
-0.924937
-0.25933
-0.91903
-0.28253
-0.91336
-0.305986
-0.908888
-0.329096
-0.903503
-0.351245
-0.898711
-0.889256
-0.3727
0.0126326
-0.394231
0.013789
-0.864881
-0.00694209
-1.01027
-0.0315421
-1.00264
-0.0562891
-0.986795
-0.0813942
-0.972532
-0.106918
-0.960008
-0.132287
-0.949875
-0.157352
-0.939901
-0.182338
-0.929364
-0.207508
-0.919999
-0.232779
-0.91211
-0.258277
-0.905793
-0.28374
-0.899474
-0.309098
-0.893672
-0.334619
-0.887838
-0.360212
-0.883295
-0.385896
-0.877818
-0.410946
-0.873661
-0.865477
-0.434725
0.00827021
-0.402501
0.00474956
-0.86136
-0.0215446
-0.983978
-0.0501125
-0.974074
-0.0783106
-0.958597
-0.106303
-0.94454
-0.134329
-0.931982
-0.162793
-0.921411
-0.190901
-0.911793
-0.218533
-0.901731
-0.246128
-0.892405
-0.274089
-0.884149
-0.301917
-0.877965
-0.329518
-0.871873
-0.357084
-0.866105
-0.385109
-0.859814
-0.413156
-0.855248
-0.440666
-0.850308
-0.467751
-0.846576
-0.839565
-0.493663
0.00514708
-0.407648
-0.00488211
-0.851331
-0.0341515
-0.954709
-0.0649626
-0.943263
-0.0951618
-0.928398
-0.125786
-0.913916
-0.156537
-0.901231
-0.187272
-0.890676
-0.217969
-0.881096
-0.24851
-0.87119
-0.278903
-0.862012
-0.309253
-0.853799
-0.340097
-0.847121
-0.370919
-0.841051
-0.401185
-0.835839
-0.431132
-0.829867
-0.46147
-0.82491
-0.492129
-0.81965
-0.522386
-0.816318
-0.81068
-0.551271
0.0021835
-0.409832
-0.012072
-0.837076
-0.0448499
-0.921931
-0.079109
-0.909004
-0.112372
-0.895135
-0.14527
-0.881018
-0.178361
-0.868139
-0.211941
-0.857096
-0.245227
-0.84781
-0.277983
-0.838434
-0.310709
-0.829285
-0.343607
-0.820902
-0.37643
-0.814298
-0.409559
-0.807922
-0.442822
-0.802576
-0.476257
-0.796432
-0.509151
-0.792015
-0.541776
-0.787025
-0.575367
-0.782728
-0.778044
-0.608003
-0.000210222
-0.409621
-0.0195289
-0.817757
-0.0551429
-0.886317
-0.0914528
-0.872694
-0.126901
-0.859686
-0.162088
-0.845831
-0.196969
-0.833259
-0.231912
-0.822153
-0.267241
-0.812481
-0.302375
-0.803301
-0.337113
-0.794547
-0.371706
-0.786309
-0.406696
-0.779308
-0.441903
-0.772714
-0.476847
-0.767633
-0.511958
-0.761322
-0.548411
-0.755562
-0.585125
-0.750312
-0.622395
-0.745458
-0.741101
-0.659337
-0.00230497
-0.0255864
-0.0640662
-0.103106
-0.140903
-0.17795
-0.214967
-0.25204
-0.28898
-0.325841
-0.362754
-0.399568
-0.436026
-0.473063
-0.510894
-0.548438
-0.585389
-0.623936
-0.665326
-0.708632
0.564359
-9.00637
9.09912
0.488784
-8.63509
8.71067
0.434745
-8.7826
8.83664
0.388824
-8.6681
8.71402
0.346172
-8.75966
8.80232
0.302959
-8.63717
8.68038
0.267574
-8.70076
8.73615
0.23688
-8.63385
8.66454
0.206458
-8.68123
8.71165
0.178121
-8.63877
8.66711
0.15323
-8.69879
8.72368
0.130396
-8.65228
8.67511
0.11012
-8.7122
8.73247
0.0907581
-8.65991
8.67927
0.077118
-8.70913
8.72277
0.0604946
-8.60816
8.62478
0.0543347
-8.53277
8.53893
0.0368949
-7.68623
7.70367
0.0191936
-5.5047
5.5224
-2.3069
2.32609
0.470886
-8.91549
0.403625
-8.56783
0.355662
-8.73463
0.308456
-8.6209
0.269357
-8.72056
0.231197
-8.59901
0.198999
-8.66856
0.172025
-8.60687
0.146266
-8.65547
0.123393
-8.6159
0.104051
-8.67945
0.086842
-8.63507
0.0723499
-8.6977
0.0587976
-8.64635
0.0514653
-8.7018
0.0412669
-8.59796
0.0410168
-8.53252
0.029215
-7.67443
0.0169391
-5.49242
-2.28996
0.384409
-8.82954
0.320245
-8.50367
0.271423
-8.68581
0.23289
-8.58236
0.198887
-8.68656
0.164771
-8.5649
0.138319
-8.64211
0.116271
-8.58482
0.0952208
-8.63442
0.0774328
-8.59811
0.0626018
-8.66462
0.0499347
-8.6224
0.0399745
-8.68774
0.0309564
-8.63733
0.0283664
-8.69921
0.0228645
-8.59246
0.0276088
-8.53726
0.0219849
-7.66881
0.0154132
-5.48585
-2.27454
0.294569
-8.7503
0.234959
-8.44406
0.192423
-8.64328
0.154213
-8.54415
0.12334
-8.65569
0.0932873
-8.53484
0.0699806
-8.6188
0.0517255
-8.56657
0.0356227
-8.61832
0.0234384
-8.58593
0.0140056
-8.65519
0.00692516
-8.61532
0.00274213
-8.68356
-0.000682259
-8.63391
0.00297702
-8.70287
0.00390269
-8.59338
0.014359
-8.54772
0.0143794
-7.66883
0.0131447
-5.48462
-2.2614
0.210739
-8.67367
0.154852
-8.38817
0.112553
-8.60098
0.0802127
-8.51181
0.0531176
-8.62859
0.0276987
-8.50942
0.0106002
-8.60171
-0.00285795
-8.55311
-0.0145877
-8.60659
-0.021809
-8.57871
-0.0268531
-8.65014
-0.029382
-8.61279
-0.0291159
-8.68383
-0.0281513
-8.63488
-0.0198496
-8.71117
-0.0142078
-8.59903
0.00115139
-8.56307
0.00724358
-7.67492
0.0115168
-5.48889
-2.24988
0.12529
-8.59941
0.0713803
-8.33426
0.0331474
-8.56274
0.00264747
-8.48131
-0.0202354
-8.60571
-0.0420691
-8.48759
-0.0564057
-8.58737
-0.0660676
-8.54345
-0.0731487
-8.59951
-0.0748445
-8.57701
-0.0745339
-8.65045
-0.0715933
-8.61573
-0.0656403
-8.68978
-0.0591806
-8.64133
-0.0448602
-8.72549
-0.0329507
-8.61093
-0.0119967
-8.58403
-0.000316968
-7.6866
0.00923473
-5.49844
-2.24065
0.044666
-8.52548
-0.00666708
-8.28293
-0.0451165
-8.52429
-0.0704466
-8.45598
-0.0896091
-8.58655
-0.106852
-8.47035
-0.114585
-8.57964
-0.119105
-8.53893
-0.122159
-8.59645
-0.119134
-8.58004
-0.114491
-8.6551
-0.107128
-8.6231
-0.0967635
-8.70014
-0.0861207
-8.65198
-0.0676955
-8.74391
-0.0512035
-8.62743
-0.0250428
-8.61019
-0.00742272
-7.70422
0.00747648
-5.51334
-2.23317
-0.0366948
-8.44794
-0.084803
-8.23482
-0.119949
-8.48915
-0.145764
-8.43017
-0.160191
-8.57212
-0.174685
-8.45585
-0.179992
-8.57433
-0.180521
-8.5384
-0.179101
-8.59787
-0.170819
-8.58832
-0.160945
-8.66497
-0.148332
-8.63571
-0.132313
-8.71616
-0.116006
-8.66828
-0.0920846
-8.76784
-0.0701616
-8.64935
-0.0382038
-8.64215
-0.0147856
-7.72764
0.00525333
-5.53338
-2.22792
-0.112159
-8.36837
-0.164419
-8.18256
-0.197608
-8.45596
-0.217449
-8.41033
-0.227819
-8.56175
-0.237262
-8.44641
-0.236575
-8.57501
-0.231906
-8.54307
-0.226441
-8.60334
-0.213809
-8.60095
-0.199733
-8.67905
-0.18294
-8.6525
-0.162662
-8.73644
-0.142016
-8.68893
-0.11417
-8.79568
-0.0886234
-8.6749
-0.0512437
-8.67953
-0.0218697
-7.75701
0.00331986
-5.55857
-2.2246
-0.187559
-8.28725
-0.235494
-8.13462
-0.268356
-8.4231
-0.289627
-8.38906
-0.295796
-8.55558
-0.302993
-8.43921
-0.300211
-8.5778
-0.291387
-8.5519
-0.281201
-8.61352
-0.263657
-8.6185
-0.244631
-8.69807
-0.22284
-8.67429
-0.197055
-8.76223
-0.171243
-8.71474
-0.137769
-8.82916
-0.10703
-8.70563
-0.0644813
-8.72208
-0.0291726
-7.79232
0.00122569
-5.58897
-2.22337
-0.261816
-8.20001
-0.314486
-8.08195
-0.343796
-8.39379
-0.359244
-8.37361
-0.360579
-8.55425
-0.362284
-8.43751
-0.354622
-8.58546
-0.340999
-8.56552
-0.326524
-8.628
-0.304919
-8.6401
-0.282035
-8.72096
-0.256367
-8.69996
-0.226683
-8.79191
-0.197216
-8.74421
-0.159933
-8.86644
-0.125256
-8.74031
-0.0775039
-8.76983
-0.0363622
-7.83346
-0.000927017
-5.6244
-2.2243
-0.332023
-8.11198
-0.381108
-8.03287
-0.411503
-8.36339
-0.429321
-8.35579
-0.426927
-8.55664
-0.426149
-8.43829
-0.415754
-8.59585
-0.397982
-8.58329
-0.378819
-8.64716
-0.352449
-8.66647
-0.325043
-8.74836
-0.294604
-8.7304
-0.259752
-8.82676
-0.225479
-8.77848
-0.183219
-8.9087
-0.14355
-8.77998
-0.0905395
-8.82284
-0.0434043
-7.8806
-0.0028905
-5.66492
-2.22719
-0.404164
-8.01706
-0.456508
-7.98052
-0.482399
-8.3375
-0.495355
-8.34284
-0.48786
-8.56413
-0.481792
-8.44436
-0.467678
-8.60997
-0.445556
-8.60541
-0.422131
-8.67058
-0.391988
-8.69661
-0.36094
-8.77941
-0.326796
-8.76455
-0.288376
-8.86518
-0.250695
-8.81616
-0.205169
-8.95423
-0.16167
-8.82348
-0.10352
-8.88099
-0.0505195
-7.9336
-0.00511088
-5.71033
-2.2323
-0.469625
-7.92013
-0.520129
-7.93002
-0.547002
-8.31063
-0.563411
-8.32643
-0.552896
-8.57465
-0.543146
-8.45411
-0.525713
-8.6274
-0.499595
-8.63153
-0.47171
-8.69847
-0.437251
-8.73107
-0.401802
-8.81486
-0.363044
-8.8033
-0.319918
-8.90831
-0.277887
-8.85819
-0.227596
-9.00452
-0.179458
-8.87162
-0.116563
-8.94388
-0.0578857
-7.99228
-0.00756145
-5.76065
-2.23986
-0.537712
-7.81715
-0.591252
-7.87648
-0.613059
-8.28882
-0.625145
-8.31434
-0.610116
-8.58968
-0.595378
-8.46884
-0.575072
-8.64771
-0.545004
-8.6616
-0.513001
-8.73047
-0.475192
-8.76888
-0.436049
-8.854
-0.393858
-8.84549
-0.347476
-8.95469
-0.3023
-8.90337
-0.248678
-9.05814
-0.19697
-8.92333
-0.129611
-9.01124
-0.0652358
-8.05665
-0.0098395
-5.81605
-2.2497
-0.599132
-7.71168
-0.65244
-7.82317
-0.674158
-8.2671
-0.690067
-8.29843
-0.673083
-8.60666
-0.653723
-8.4882
-0.62957
-8.67186
-0.595847
-8.69532
-0.559638
-8.76668
-0.51795
-8.81057
-0.474618
-8.89734
-0.428082
-8.89203
-0.377226
-9.00555
-0.327945
-8.95265
-0.270295
-9.11579
-0.21448
-8.97914
-0.14259
-9.08313
-0.0723866
-8.12686
-0.0115304
-5.8769
-2.26123
-0.661602
-7.60135
-0.71893
-7.76584
-0.734488
-8.25155
-0.746833
-8.28609
-0.727083
-8.62641
-0.703012
-8.51228
-0.675797
-8.69907
-0.638751
-8.73237
-0.598579
-8.80685
-0.553787
-8.85536
-0.506892
-8.94423
-0.457155
-8.94177
-0.403442
-9.05926
-0.351363
-9.00473
-0.290968
-9.17618
-0.231648
-9.03846
-0.155425
-9.15936
-0.0794959
-8.20278
-0.0132242
-5.94318
-2.27446
-0.722012
-7.48734
-0.7799
-7.70796
-0.794818
-8.23663
-0.808503
-8.2724
-0.786631
-8.64828
-0.757725
-8.54118
-0.726787
-8.73001
-0.686495
-8.77266
-0.642246
-8.8511
-0.59385
-8.90376
-0.542905
-8.99518
-0.48911
-8.99556
-0.43125
-9.11712
-0.375466
-9.06051
-0.311783
-9.23987
-0.248705
-9.10154
-0.168155
-9.23991
-0.0857746
-8.28516
-0.0137225
-6.01523
-2.28818
-0.775259
-7.37141
-0.839157
-7.64406
-0.848589
-8.2272
-0.861658
-8.25933
-0.83901
-8.67093
-0.806634
-8.57356
-0.771831
-8.76482
-0.72838
-8.81611
-0.680155
-8.89933
-0.628892
-8.95502
-0.573767
-9.0503
-0.516705
-9.05262
-0.456049
-9.17778
-0.397311
-9.11925
-0.331143
-9.30604
-0.265285
-9.1674
-0.180322
-9.32487
-0.0931822
-8.3723
-0.0160207
-6.09239
-2.3042
-0.818603
-7.26144
-0.890154
-7.57251
-0.900707
-8.21664
-0.9116
-8.24844
-0.890805
-8.69173
-0.854312
-8.61005
-0.816414
-8.80271
-0.770403
-8.86212
-0.718962
-8.95077
-0.664328
-9.00965
-0.605879
-9.10875
-0.545119
-9.11338
-0.481298
-9.2416
-0.418815
-9.18173
-0.350266
-9.37458
-0.280592
-9.23707
-0.191711
-9.41375
-0.099694
-8.46432
-0.0155817
-6.1765
-2.31978
5.47988
-7.01334
-5.72798
5.10534
-7.19797
4.61681
-7.72811
4.21419
-7.84582
3.708
-8.18554
3.32998
-8.23203
2.97434
-8.44708
2.63248
-8.52026
2.33758
-8.65587
2.06884
-8.74092
1.79927
-8.83918
1.57597
-8.89009
1.31629
-8.98191
1.12116
-8.9866
0.855236
-9.10867
0.702732
-9.08457
0.46929
-9.18031
0.300682
-8.29571
0.183867
-6.05969
-2.13591
2.82416
-7.05325
-2.78425
2.85546
-7.22927
2.69953
-7.57218
2.60011
-7.7464
2.3916
-7.97703
2.24014
-8.08057
2.04711
-8.25404
1.87709
-8.35024
1.70767
-8.48644
1.53525
-8.5685
1.36027
-8.6642
1.19558
-8.72539
1.01709
-8.80343
0.876407
-8.84592
0.694807
-8.92707
0.565238
-8.955
0.339229
-8.9543
0.218623
-8.17511
-0.0216307
-5.81943
-2.15754
1.69048
-7.22361
-1.52012
1.84854
-7.38734
1.87098
-7.59461
1.88751
-7.76293
1.83407
-7.92359
1.77923
-8.02572
1.67015
-8.14496
1.56585
-8.24595
1.42817
-8.34876
1.28842
-8.42874
1.13658
-8.51237
0.992465
-8.58128
0.843327
-8.65429
0.708799
-8.71139
0.558107
-8.77637
0.414608
-8.8115
0.277511
-8.8172
0.182811
-8.08041
0.0422601
-5.67888
-2.11528
0.77749
-7.45167
-0.549425
0.963507
-7.57335
1.04983
-7.68093
1.0874
-7.80051
1.08645
-7.92264
1.08017
-8.01945
1.03913
-8.10392
0.98704
-8.19386
0.918857
-8.28058
0.848545
-8.35843
0.77103
-8.43485
0.693532
-8.50378
0.604661
-8.56542
0.514554
-8.62128
0.41214
-8.67396
0.323134
-8.72249
0.208776
-8.70284
0.145536
-8.01717
0.0940169
-5.62736
-2.02127
0.351444
-7.63048
-0.172635
0.49113
-7.71304
0.586465
-7.77627
0.665623
-7.87966
0.701525
-7.95854
0.715377
-8.0333
0.712579
-8.10112
0.687004
-8.16829
0.641609
-8.23518
0.586889
-8.30371
0.518654
-8.36661
0.442645
-8.42778
0.361985
-8.48476
0.284345
-8.54364
0.213184
-8.6028
0.143657
-8.65297
0.0688058
-8.62799
0.0496922
-7.99806
0.0582835
-5.63595
-1.96298
-0.0140092
-7.78099
0.164524
0.107649
-7.8347
0.199402
-7.86802
0.267396
-7.94766
0.300322
-7.99147
0.31179
-8.04477
0.311562
-8.1009
0.296562
-8.15329
0.271675
-8.2103
0.23853
-8.27056
0.199226
-8.32731
0.156618
-8.38517
0.11236
-8.4405
0.0625898
-8.49387
0.0125085
-8.55272
-0.0357193
-8.60474
-0.0860228
-8.57769
-0.0672369
-8.01684
0.0282244
-5.73141
-1.93476
-0.203941
-7.8786
0.301549
-0.126735
-7.9119
-0.0624526
-7.9323
-0.0166912
-7.99342
0.0225288
-8.03069
0.0408133
-8.06305
0.0509527
-8.11103
0.05003
-8.15236
0.0398769
-8.20014
0.0164288
-8.24711
-0.015218
-8.29566
-0.0575701
-8.34282
-0.104937
-8.39313
-0.158329
-8.44048
-0.211372
-8.49967
-0.257477
-8.55863
-0.285306
-8.54986
-0.220831
-8.08132
-0.0319938
-5.92025
-1.96675
-0.368319
-7.95111
0.44083
-0.307432
-7.97279
-0.250132
-7.9896
-0.21872
-8.02483
-0.190214
-8.05919
-0.179178
-8.07409
-0.181493
-8.10872
-0.187099
-8.14676
-0.203802
-8.18344
-0.228699
-8.22222
-0.262848
-8.26151
-0.304259
-8.3014
-0.352271
-8.34512
-0.401073
-8.39168
-0.452807
-8.44794
-0.506739
-8.5047
-0.543322
-8.51327
-0.46437
-8.16027
-0.174651
-6.20997
-2.1414
-0.446758
-7.9956
0.491248
-0.411067
-8.00848
-0.3801
-8.02057
-0.36341
-8.04152
-0.357203
-8.0654
-0.348697
-8.08259
-0.351657
-8.10576
-0.363618
-8.1348
-0.381031
-8.16603
-0.407494
-8.19575
-0.440435
-8.22857
-0.484614
-8.25723
-0.534203
-8.29553
-0.600261
-8.32562
-0.669435
-8.37877
-0.745676
-8.42846
-0.802336
-8.45661
-0.755702
-8.2069
-0.355118
-6.61055
-2.49652
-0.497823
-8.02591
0.528127
-0.472647
-8.03366
-0.451666
-8.04155
-0.439116
-8.05407
-0.436526
-8.06799
-0.43671
-8.08241
-0.438227
-8.10424
-0.45592
-8.1171
-0.483351
-8.1386
-0.52142
-8.15768
-0.566928
-8.18306
-0.619959
-8.2042
-0.680511
-8.23498
-0.748675
-8.25746
-0.835321
-8.29212
-0.93239
-8.33139
-1.02236
-8.36664
-1.02602
-8.20324
-0.617362
-7.01921
-3.11388
-0.519535
-8.04038
0.534008
-0.50987
-8.04332
-0.503215
-8.04821
-0.502958
-8.05433
-0.506257
-8.06469
-0.516881
-8.07178
-0.535352
-8.08577
-0.555891
-8.09656
-0.584281
-8.11021
-0.621404
-8.12056
-0.66491
-8.13956
-0.718052
-8.15105
-0.783983
-8.16905
-0.863023
-8.17842
-0.961862
-8.19328
-1.0903
-8.20295
-1.23262
-8.22433
-1.2839
-8.15196
-0.959828
-7.34328
-4.07371
-0.527341
-8.04733
0.534297
-0.524231
-8.04643
-0.523432
-8.04901
-0.52598
-8.05178
-0.532102
-8.05857
-0.540943
-8.06294
-0.557543
-8.06917
-0.579483
-8.07463
-0.605338
-8.08435
-0.637937
-8.08796
-0.679238
-8.09826
-0.72946
-8.10083
-0.789834
-8.10867
-0.861823
-8.10643
-0.947139
-8.10796
-1.04969
-8.1004
-1.19777
-8.07625
-1.31023
-8.0395
-1.06666
-7.58685
-5.14038
-0.516727
-8.04674
0.516136
-0.51895
-8.04421
-0.522433
-8.04552
-0.528716
-8.0455
-0.539246
-8.04804
-0.55316
-8.04903
-0.568345
-8.05399
-0.588516
-8.05445
-0.610264
-8.0626
-0.636145
-8.06208
-0.667292
-8.06711
-0.704137
-8.06399
-0.747005
-8.06581
-0.796629
-8.0568
-0.857303
-8.04729
-0.928584
-8.02912
-1.00593
-7.9989
-1.09252
-7.95291
-0.925185
-7.75419
-6.06556
-0.474859
-8.04158
0.469694
-0.479469
-8.0396
-0.484158
-8.04083
-0.489266
-8.04039
-0.49498
-8.04232
-0.502793
-8.04122
-0.513251
-8.04353
-0.52508
-8.04263
-0.542859
-8.04482
-0.562676
-8.04226
-0.58676
-8.04303
-0.613624
-8.03712
-0.643884
-8.03555
-0.677258
-8.02343
-0.708005
-8.01654
-0.752627
-7.9845
-0.77951
-7.97201
-0.80396
-7.92846
-0.705072
-7.85307
-6.77063
-0.414344
-8.03761
0.410372
-0.417848
-8.0361
-0.423031
-8.03565
-0.42913
-8.03429
-0.436761
-8.03469
-0.44371
-8.03427
-0.451637
-8.0356
-0.460368
-8.03389
-0.470571
-8.03462
-0.481603
-8.03123
-0.493732
-8.0309
-0.506421
-8.02444
-0.519505
-8.02246
-0.532147
-8.01079
-0.544779
-8.00391
-0.55013
-7.97915
-0.549861
-7.97228
-0.538164
-7.94016
-0.476615
-7.91462
-7.24725
-0.34763
-8.03235
0.34237
-0.352346
-8.03138
-0.356755
-8.03124
-0.360969
-8.03008
-0.365628
-8.03004
-0.371124
-8.02877
-0.377797
-8.02893
-0.38482
-8.02687
-0.39311
-8.02633
-0.401427
-8.02292
-0.410089
-8.02224
-0.418197
-8.01633
-0.427251
-8.01341
-0.434103
-8.00393
-0.439436
-7.99858
-0.433237
-7.98535
-0.425611
-7.97991
-0.408925
-7.95685
-0.378902
-7.94465
-7.62615
-0.264558
-8.02734
0.259549
-0.269306
-8.02663
-0.274106
-8.02644
-0.278
-8.02618
-0.281196
-8.02684
-0.284174
-8.02579
-0.287091
-8.02601
-0.289491
-8.02447
-0.291511
-8.02431
-0.292386
-8.02204
-0.293624
-8.021