/*--------------------------------*- C++ -*----------------------------------*\
  =========                 |
  \\      /  F ield         | OpenFOAM: The Open Source CFD Toolbox
   \\    /   O peration     | Website:  https://openfoam.org
    \\  /    A nd           | Version:  9
     \\/     M anipulation  |
\*---------------------------------------------------------------------------*/
FoamFile
{
    format      ascii;
    class       volVectorField;
    location    "7.6";
    object      U;
}
// * * * * * * * * * * * * * * * * * * * * * * * * * * * * * * * * * * * * * //

dimensions      [0 1 -1 0 0 0 0];

internalField   nonuniform List<vector> 
46400
(
(7.34392 -6.9602 4.12854e-19)
(13.9671 -13.6868 -5.12101e-19)
(14.4658 -14.7461 -2.65904e-20)
(13.8356 -14.9178 -1.55189e-19)
(13.3723 -15.0203 -2.00827e-20)
(12.8582 -15.1471 8.84775e-19)
(12.3735 -15.2157 -5.10438e-19)
(11.9045 -15.2795 1.38994e-19)
(11.4836 -15.3872 -1.39548e-19)
(11.0846 -15.477 1.39778e-19)
(10.702 -15.5862 -1.39715e-19)
(10.3297 -15.6625 0)
(9.99759 -15.7894 9.28073e-19)
(9.67381 -15.8827 -1.05026e-18)
(9.35001 -15.9621 -1.19645e-18)
(9.0603 -16.0468 -1.47663e-19)
(8.79752 -16.2032 -1.03667e-20)
(8.52152 -16.2676 8.98325e-19)
(8.23628 -16.2152 1.15041e-18)
(7.84823 -16.4009 -1.05327e-18)
(7.51492 -6.55441 0)
(13.8797 -12.6398 -1.8554e-20)
(14.2696 -13.63 0)
(13.639 -13.7854 7.0703e-19)
(13.1232 -13.9205 -5.64648e-19)
(12.5827 -14.0454 1.36565e-19)
(12.0876 -14.1731 0)
(11.6363 -14.3025 -1.38985e-19)
(11.1835 -14.4205 1.39539e-19)
(10.7867 -14.543 -1.39771e-19)
(10.3756 -14.6584 1.32047e-18)
(10.0164 -14.7753 1.32935e-20)
(9.66547 -14.9093 -1.01735e-18)
(9.35797 -15.0448 0)
(9.07776 -15.2322 1.37461e-19)
(8.75563 -15.273 1.36601e-19)
(8.46243 -15.3858 0)
(8.25838 -15.5803 -1.12995e-18)
(8.03961 -15.6743 -2.76614e-19)
(7.70382 -15.8767 1.13908e-18)
(7.72246 -6.13603 4.32132e-19)
(13.6559 -11.4506 -6.20433e-19)
(13.9079 -12.3587 6.15238e-19)
(13.255 -12.5713 6.48871e-19)
(12.7711 -12.7703 -6.37061e-19)
(12.2766 -12.9859 0)
(11.7863 -13.1466 -1.48017e-18)
(11.3323 -13.293 1.287e-18)
(10.918 -13.4811 -1.46981e-18)
(10.5255 -13.6258 1.4469e-18)
(10.1524 -13.7921 1.28382e-18)
(9.78453 -13.9091 -1.54704e-19)
(9.45632 -14.0725 -1.08974e-18)
(9.11292 -14.1687 0)
(8.8431 -14.3715 1.2363e-18)
(8.59734 -14.5635 -1.21754e-18)
(8.2666 -14.6082 0)
(7.99685 -14.7014 -9.42302e-21)
(7.79173 -14.8292 1.41866e-19)
(7.47001 -15.0732 -1.21583e-18)
(7.98845 -5.7763 -5.18558e-19)
(13.3146 -10.3134 1.62193e-19)
(13.4296 -11.1222 7.19173e-19)
(12.8145 -11.3932 -7.08162e-19)
(12.295 -11.649 -5.36389e-19)
(11.7863 -11.8783 7.11538e-19)
(11.3147 -12.1264 8.89682e-19)
(10.8751 -12.3244 -2.13533e-18)
(10.4264 -12.5173 1.75654e-18)
(10.0545 -12.7235 -1.67822e-19)
(9.66709 -12.912 0)
(9.3225 -13.0777 1.64887e-19)
(9.00488 -13.2667 -1.63222e-19)
(8.69179 -13.394 0)
(8.38177 -13.5373 1.32162e-18)
(8.16211 -13.7639 -1.1338e-18)
(7.94364 -14.0195 0)
(7.68628 -14.1436 1.53779e-19)
(7.47045 -14.2782 1.59985e-19)
(7.16095 -14.547 1.29448e-18)
(8.29261 -5.42847 0)
(12.8569 -9.19952 0)
(12.8633 -9.90495 -7.9599e-19)
(12.2333 -10.1917 5.76033e-19)
(11.7563 -10.5228 -9.79391e-19)
(11.3124 -10.8268 7.77157e-19)
(10.8415 -11.1024 0)
(10.4382 -11.3462 7.70485e-19)
(10.0337 -11.6035 -9.40584e-19)
(9.65971 -11.8095 -1.94125e-19)
(9.32961 -12.0741 -1.91418e-19)
(8.98507 -12.2622 0)
(8.70149 -12.5293 1.44327e-18)
(8.3965 -12.6934 -1.42074e-18)
(8.0742 -12.8279 0)
(7.76429 -12.9146 -1.54754e-18)
(7.50443 -13.0881 1.35916e-18)
(7.29483 -13.287 1.33851e-18)
(7.08741 -13.4151 -1.47749e-18)
(6.81794 -13.7286 0)
(8.52765 -5.11132 0)
(12.2536 -8.18373 0)
(12.0356 -8.76728 0)
(11.5119 -9.12596 -1.69702e-20)
(10.9973 -9.47728 0)
(10.5619 -9.79842 0)
(10.1415 -10.164 0)
(9.74358 -10.4486 -2.12692e-19)
(9.33758 -10.7301 0)
(8.98052 -10.995 1.94111e-19)
(8.6198 -11.2446 -1.15502e-20)
(8.27722 -11.4471 -1.75455e-18)
(7.9989 -11.7279 1.33395e-18)
(7.78768 -12.0386 -1.69636e-18)
(7.55549 -12.3074 1.29093e-18)
(7.33329 -12.5324 0)
(7.06871 -12.6912 -1.42757e-18)
(6.83702 -12.862 1.22686e-18)
(6.62942 -12.9918 0)
(6.3572 -13.242 -1.83559e-19)
(8.62143 -4.83566 8.61686e-19)
(11.5457 -7.14382 2.43779e-19)
(11.2802 -7.75053 9.39487e-19)
(10.8003 -8.06766 -9.38063e-19)
(10.3553 -8.49128 -9.16893e-19)
(9.95201 -8.81291 1.80455e-18)
(9.52735 -9.16386 -2.00772e-18)
(9.19919 -9.50941 2.11292e-19)
(8.83433 -9.82519 6.40335e-19)
(8.49574 -10.0995 0)
(8.24209 -10.4649 -1.06656e-20)
(7.8954 -10.6644 -1.01229e-20)
(7.55878 -10.8655 1.96232e-19)
(7.2766 -11.0858 1.56973e-18)
(7.0265 -11.3489 -1.36495e-18)
(6.80407 -11.6049 -1.71634e-18)
(6.59233 -11.8653 1.49916e-18)
(6.38877 -12.0936 -7.50883e-21)
(6.20899 -12.2953 -1.83692e-19)
(5.96756 -12.5826 -1.31614e-18)
(8.45539 -4.4272 -2.40336e-19)
(10.6969 -6.27895 1.59521e-20)
(10.2906 -6.84548 -2.57484e-19)
(9.86391 -7.24252 -1.00456e-18)
(9.38528 -7.64264 7.2257e-19)
(9.03063 -8.01684 0)
(8.63515 -8.3959 1.41207e-18)
(8.30059 -8.73462 -6.89013e-19)
(7.98307 -9.0936 4.53712e-19)
(7.61819 -9.3445 2.27848e-19)
(7.34302 -9.70076 -4.36903e-19)
(7.13491 -10.0788 1.06952e-18)
(6.87159 -10.3796 2.14755e-19)
(6.62861 -10.6482 -1.23497e-18)
(6.38908 -10.8946 3.44324e-18)
(6.1845 -11.1576 -1.39589e-18)
(5.96432 -11.3865 1.74962e-18)
(5.76932 -11.6302 -1.1473e-18)
(5.59466 -11.8319 3.74087e-19)
(5.37916 -12.1389 1.75458e-18)
(8.10521 -3.9446 1.23871e-18)
(9.76885 -5.37127 -2.59842e-19)
(9.38133 -5.97959 -1.38457e-20)
(9.04916 -6.39213 5.20389e-19)
(8.66044 -6.89507 2.49655e-19)
(8.30752 -7.23882 2.5708e-19)
(7.9346 -7.63705 -1.22706e-18)
(7.65243 -8.01863 7.32199e-19)
(7.38078 -8.41394 -2.32326e-19)
(7.05029 -8.67428 -2.27894e-19)
(6.72001 -8.92753 -2.235e-19)
(6.4322 -9.19053 -2.27505e-19)
(6.21235 -9.50841 -4.37523e-19)
(6.00718 -9.81745 1.50221e-18)
(5.77625 -10.0956 -2.10605e-18)
(5.58145 -10.3771 -2.0904e-19)
(5.39346 -10.6593 6.55871e-21)
(5.20137 -10.9094 -1.5714e-18)
(5.03886 -11.1482 1.1678e-18)
(4.84083 -11.4617 -1.8095e-18)
(7.51301 -3.40499 1.06396e-18)
(8.668 -4.5861 -2.53864e-18)
(8.20621 -5.2185 1.66661e-18)
(7.87699 -5.67355 -2.66697e-19)
(7.48611 -6.18795 -2.72962e-19)
(7.2389 -6.65943 1.06067e-18)
(6.84905 -7.02512 -1.29382e-18)
(6.54315 -7.41106 0)
(6.37389 -7.9182 9.8568e-19)
(6.14592 -8.32423 -9.69291e-19)
(5.91195 -8.68682 -7.03275e-19)
(5.67245 -8.99137 9.20815e-19)
(5.40731 -9.25715 2.22774e-19)
(5.20107 -9.54342 -8.83545e-19)
(5.01309 -9.82188 2.1907e-19)
(4.82854 -10.071 1.06034e-18)
(4.66619 -10.3321 -1.85967e-18)
(4.51008 -10.5666 1.22411e-18)
(4.37031 -10.789 -5.24828e-21)
(4.21287 -11.0557 -1.65693e-18)
(6.7786 -2.82925 1.40171e-18)
(7.57933 -3.76063 -8.82257e-19)
(7.19956 -4.42726 5.76991e-19)
(7.01972 -4.95711 -1.02045e-21)
(6.65172 -5.47099 -1.12128e-18)
(6.46109 -5.96715 -1.07747e-18)
(6.17165 -6.41703 1.3297e-18)
(5.77594 -6.65892 -7.76206e-19)
(5.50192 -7.0418 1.02313e-18)
(5.31418 -7.4357 0)
(5.10356 -7.83992 6.98111e-21)
(4.92006 -8.2115 2.35146e-19)
(4.72664 -8.58025 2.36347e-19)
(4.53216 -8.89038 -2.31003e-19)
(4.3631 -9.23529 0)
(4.20183 -9.53435 2.20721e-19)
(4.05035 -9.85172 0)
(3.89947 -10.1231 4.16921e-19)
(3.76253 -10.391 2.03492e-18)
(3.59973 -10.6849 -1.49893e-20)
(5.89959 -2.28363 7.37509e-19)
(6.31176 -3.05536 -1.53446e-19)
(5.86128 -3.63895 -2.10078e-18)
(5.70552 -4.18953 1.17468e-18)
(5.39012 -4.75257 2.825e-19)
(5.22177 -5.31992 -2.76491e-19)
(5.12101 -5.97597 -1.09612e-18)
(4.89275 -6.42334 8.1273e-19)
(4.61991 -6.82401 0)
(4.37417 -7.17042 0)
(4.18007 -7.56339 -1.24605e-18)
(3.98107 -7.89816 9.82499e-19)
(3.80771 -8.25147 -2.3637e-19)
(3.63354 -8.55953 -6.99924e-19)
(3.46911 -8.87575 7.00568e-21)
(3.32406 -9.16448 1.56376e-18)
(3.20236 -9.47741 -8.75455e-19)
(3.0842 -9.75756 6.38144e-19)
(2.9861 -10.033 -1.04306e-18)
(2.87286 -10.3412 0)
(5.00801 -1.84534 -6.18443e-19)
(5.34874 -2.50361 9.37063e-19)
(5.02248 -3.08015 1.55113e-19)
(4.85173 -3.605 1.51796e-19)
(4.45119 -4.04694 0)
(4.14888 -4.45038 1.14706e-18)
(3.98236 -5.03405 -1.12669e-18)
(3.84681 -5.54418 1.38548e-19)
(3.69907 -6.08437 0)
(3.51979 -6.5201 1.04558e-18)
(3.33196 -6.95358 -8.9937e-19)
(3.20441 -7.36359 9.97032e-19)
(3.05526 -7.76542 -9.81189e-19)
(2.91268 -8.11502 9.50637e-19)
(2.78641 -8.47893 -8.18713e-19)
(2.64166 -8.78319 -9.06616e-19)
(2.51905 -9.10875 1.77854e-18)
(2.4025 -9.40444 -7.63187e-19)
(2.29417 -9.68285 1.06771e-19)
(2.18666 -10.0074 8.84874e-19)
(3.67893 -1.39838 -4.85499e-19)
(3.98916 -2.16067 4.82396e-19)
(3.49326 -2.76114 -1.55053e-19)
(3.46114 -3.44343 -1.51733e-19)
(3.29084 -4.116 0)
(2.97462 -4.49525 0)
(2.80604 -5.01424 0)
(2.63334 -5.43609 -2.79292e-19)
(2.46607 -5.91025 -1.08762e-18)
(2.3652 -6.33258 2.13091e-18)
(2.23302 -6.77551 -1.1731e-18)
(2.08675 -7.12785 -1.27708e-19)
(2.00537 -7.55705 0)
(1.88852 -7.88885 0)
(1.79756 -8.26525 -2.36031e-19)
(1.70542 -8.58008 0)
(1.60988 -8.90364 8.96388e-19)
(1.53506 -9.20081 -1.10294e-18)
(1.45631 -9.47837 -9.61893e-19)
(1.38507 -9.78555 9.05528e-19)
(2.22792 -0.989961 4.90902e-19)
(2.77479 -1.79447 8.09914e-19)
(2.32606 -2.49254 -1.94077e-21)
(2.11659 -2.88627 -2.42197e-21)
(2.07012 -3.62934 1.49816e-19)
(2.00456 -4.07633 -4.46541e-19)
(1.80761 -4.62744 0)
(1.72191 -5.04818 -4.23939e-19)
(1.59949 -5.5532 1.42692e-19)
(1.46533 -5.93234 5.41854e-19)
(1.38204 -6.41192 5.24715e-19)
(1.27949 -6.78016 -3.88522e-19)
(1.17526 -7.19503 9.99118e-19)
(1.11255 -7.56609 -8.60798e-19)
(1.01939 -7.93984 1.07015e-18)
(0.967204 -8.28965 -1.98232e-18)
(0.882729 -8.63155 9.14665e-19)
(0.823255 -8.94753 1.10507e-19)
(0.753639 -9.24453 8.63949e-19)
(0.686706 -9.56355 -9.1527e-19)
(0.39217 -0.504146 8.04888e-21)
(1.19598 -1.18205 -1.62873e-19)
(1.00715 -2.10787 4.78073e-19)
(1.12734 -2.53531 -6.29541e-19)
(0.871496 -3.25634 -3.06396e-19)
(0.828063 -3.7501 -7.46194e-19)
(0.666633 -4.39366 3.98717e-21)
(0.585436 -4.8251 5.72559e-19)
(0.456586 -5.40369 -1.38704e-19)
(0.38801 -5.80551 0)
(0.276159 -6.29903 0)
(0.21506 -6.68173 0)
(0.136501 -7.11173 0)
(0.0706104 -7.46496 4.7618e-22)
(0.0233837 -7.85458 0)
(-0.0346197 -8.18605 1.16816e-19)
(-0.0598414 -8.54443 4.54807e-19)
(-0.105356 -8.85972 -1.33621e-18)
(-0.126607 -9.16753 9.84226e-19)
(-0.17022 -9.48642 -9.10002e-19)
(-0.208977 -0.0710418 0)
(-0.135823 -0.742036 -8.2218e-20)
(-0.181691 -1.43432 0)
(-0.317677 -2.15682 2.35636e-19)
(-0.430209 -2.80271 -1.54868e-19)
(-0.49014 -3.39665 -5.99289e-19)
(-0.551009 -4.01413 3.93495e-21)
(-0.603056 -4.5362 5.74749e-19)
(-0.668854 -5.09035 -5.56557e-19)
(-0.683219 -5.54536 1.09009e-18)
(-0.738206 -6.05044 -4.52151e-21)
(-0.736271 -6.45645 -5.20826e-19)
(-0.79263 -6.91456 5.03511e-19)
(-0.78577 -7.2856 -6.18757e-19)
(-0.8437 -7.69202 0)
(-0.8368 -8.03154 -4.67415e-19)
(-0.890932 -8.39826 4.60425e-19)
(-0.88686 -8.71224 0)
(-0.920412 -9.02908 -1.09063e-19)
(-0.926933 -9.34916 0)
(-1.22506 -0.143021 4.01283e-20)
(-1.57318 -0.960733 5.1402e-20)
(-1.8629 -1.69668 0)
(-1.79946 -2.41225 3.13543e-19)
(-1.76939 -3.04777 -3.83588e-19)
(-1.80055 -3.6127 2.23762e-19)
(-1.82039 -4.18471 -6.56753e-19)
(-1.82173 -4.66933 2.85976e-19)
(-1.80134 -5.18123 -6.92485e-20)
(-1.81518 -5.64128 0)
(-1.82514 -6.10459 -6.58912e-20)
(-1.82784 -6.53436 -6.42705e-20)
(-1.84795 -6.95725 -6.26911e-20)
(-1.82704 -7.3362 0)
(-1.83038 -7.72943 -4.76685e-19)
(-1.81283 -8.06149 9.92787e-19)
(-1.79969 -8.42953 -8.55299e-19)
(-1.78537 -8.72348 4.47244e-19)
(-1.7661 -9.04659 5.41559e-20)
(-1.75238 -9.34543 4.53935e-19)
(-2.83756 -0.130521 -1.23483e-19)
(-3.3831 -0.967644 -1.61607e-19)
(-3.26719 -1.52454 3.81542e-22)
(-3.12284 -2.13773 4.27036e-19)
(-3.0264 -2.78657 -1.13507e-19)
(-3.00888 -3.40469 -7.34099e-20)
(-2.93361 -3.96027 7.36299e-20)
(-2.89291 -4.53348 1.41889e-19)
(-2.93807 -5.04178 6.92381e-20)
(-2.89444 -5.56688 -2.68177e-19)
(-2.90118 -6.02492 2.97087e-19)
(-2.84806 -6.48356 6.4268e-20)
(-2.79458 -6.89441 3.11508e-19)
(-2.74736 -7.29716 -2.22731e-21)
(-2.70777 -7.69425 2.73066e-20)
(-2.6627 -8.04886 -5.22307e-19)
(-2.62583 -8.42637 1.42596e-19)
(-2.5915 -8.75595 0)
(-2.55299 -9.08376 -2.73638e-20)
(-2.52159 -9.41997 -2.25534e-19)
(-4.25733 -0.236052 4.01347e-20)
(-4.45851 -0.968441 -7.96368e-20)
(-4.2707 -1.6178 1.56171e-19)
(-4.41473 -2.32791 -3.87894e-20)
(-4.45388 -2.91372 -3.72265e-20)
(-4.30844 -3.53546 0)
(-4.2839 -4.09988 -7.10522e-20)
(-4.21767 -4.69213 1.39165e-19)
(-4.14493 -5.20349 -6.81665e-20)
(-4.05972 -5.68209 6.60019e-20)
(-3.9642 -6.15173 -3.23368e-20)
(-3.87004 -6.56248 -6.28082e-20)
(-3.79851 -7.01349 1.23078e-19)
(-3.7752 -7.41172 -1.20088e-19)
(-3.69702 -7.81556 2.93429e-20)
(-3.65797 -8.18598 2.01466e-34)
(-3.61127 -8.55676 -2.74424e-20)
(-3.54131 -8.89318 1.63185e-19)
(-3.49751 -9.2112 -8.07358e-20)
(-3.41639 -9.54245 -5.62667e-20)
(-0.27542 0.0880842 0)
(0.276101 -1.43136 0)
(0.957397 -5.70692 0)
(3.74342 -14.1317 6.30717e-21)
(5.74446 -21.2179 5.88181e-21)
(6.78512 -24.5899 5.47336e-21)
(7.10029 -25.7692 0)
(7.15695 -26.1074 4.59943e-21)
(7.14844 -26.1294 0)
(7.11537 -26.0821 0)
(7.02184 -25.9527 -3.33903e-21)
(6.97287 -25.8692 6.0444e-22)
(6.90528 -25.848 5.97196e-21)
(6.86361 -25.8076 0)
(6.78957 -25.7861 2.02694e-21)
(6.74813 -25.7289 1.71903e-21)
(6.6794 -25.7401 1.43908e-21)
(6.65284 -25.74 0)
(6.57208 -25.7448 -1.97363e-21)
(6.53798 -25.6845 1.90078e-21)
(-0.0627435 -0.111066 0)
(0.507427 -2.73909 -3.39494e-20)
(2.16479 -9.47217 0)
(5.19404 -18.3895 -1.84021e-20)
(6.58063 -23.4894 2.91655e-20)
(7.19508 -25.4733 -4.77061e-20)
(7.34039 -26.0168 2.02272e-20)
(7.3602 -26.0934 1.20855e-20)
(7.32407 -26.0571 -5.24508e-20)
(7.24695 -25.9161 2.99851e-20)
(7.18133 -25.8079 -3.39403e-21)
(7.12725 -25.7341 2.16331e-20)
(7.06406 -25.7062 -2.44872e-21)
(7.03254 -25.6885 -1.84671e-20)
(6.95719 -25.6711 -2.01879e-21)
(6.91833 -25.6175 -1.72732e-21)
(6.82906 -25.5819 -1.44588e-21)
(6.79328 -25.5429 0)
(6.7159 -25.5508 -4.83757e-21)
(6.68261 -25.4795 1.75087e-21)
(0.334987 -0.598779 -1.43007e-20)
(0.916795 -4.5211 0)
(3.69842 -13.4784 0)
(6.08772 -21.1625 -1.24001e-20)
(7.28884 -24.8272 1.15383e-20)
(7.56736 -25.8461 0)
(7.64427 -26.0342 -8.93901e-21)
(7.61695 -26.0097 2.27869e-20)
(7.55104 -25.8932 -2.35891e-20)
(7.48451 -25.7548 2.52255e-20)
(7.41339 -25.6592 -3.03166e-20)
(7.36016 -25.5883 0)
(7.29884 -25.5825 -1.59184e-20)
(7.24858 -25.5286 -1.06844e-20)
(7.15498 -25.4747 2.33975e-20)
(7.10301 -25.3932 -1.63798e-20)
(7.02526 -25.4035 1.48032e-20)
(7.00629 -25.4318 0)
(6.92231 -25.4235 -3.79052e-21)
(6.8616 -25.2633 3.34554e-21)
(0.331406 -1.53179 5.21105e-20)
(1.54922 -6.67434 0)
(4.90707 -16.8228 2.74774e-20)
(7.00856 -23.2541 3.50521e-20)
(7.7004 -25.5026 -6.94482e-20)
(7.90555 -25.9831 1.9659e-20)
(7.87522 -25.9785 8.81057e-21)
(7.84401 -25.8987 8.27121e-20)
(7.76966 -25.7504 -1.12318e-19)
(7.69712 -25.6142 -4.96157e-21)
(7.62732 -25.5025 5.00623e-20)
(7.56348 -25.4425 7.90735e-21)
(7.49045 -25.3963 -3.20343e-20)
(7.42852 -25.3318 3.01107e-20)
(7.3416 -25.291 5.96805e-21)
(7.30569 -25.2661 -2.0797e-21)
(7.21602 -25.288 2.20037e-21)
(7.17964 -25.2231 0)
(7.04207 -25.1657 1.50808e-21)
(6.95362 -24.9237 0)
(0.189694 -2.13449 0)
(2.59781 -9.44177 1.15529e-19)
(5.98872 -19.4436 -1.41351e-19)
(7.70174 -24.43 1.22355e-19)
(8.16571 -25.85 -9.60247e-20)
(8.23631 -25.9578 -1.9779e-20)
(8.21767 -25.9049 0)
(8.14852 -25.7483 4.05505e-20)
(8.06862 -25.5911 -5.56033e-20)
(7.99061 -25.4309 5.13103e-20)
(7.90926 -25.3236 -3.91745e-20)
(7.83769 -25.2382 -7.90717e-21)
(7.76367 -25.205 2.53382e-20)
(7.69845 -25.1468 -3.66057e-20)
(7.59588 -25.108 1.54239e-20)
(7.53638 -25.0276 -5.12006e-21)
(7.41471 -25.0149 1.4268e-21)
(7.38012 -24.9683 -1.56242e-20)
(7.226 -24.899 1.18699e-20)
(7.14324 -24.66 3.27849e-20)
(0.432675 -2.90048 1.28164e-19)
(3.70293 -11.8779 1.2095e-19)
(6.95599 -21.2236 -1.19488e-19)
(8.44565 -25.2055 -2.59149e-20)
(8.65265 -25.9341 2.27921e-20)
(8.66259 -25.9046 7.135e-20)
(8.57445 -25.7508 -7.01047e-20)
(8.47599 -25.5653 0)
(8.38657 -25.406 4.21166e-20)
(8.28219 -25.2479 -4.14115e-20)
(8.18877 -25.1185 -2.56037e-20)
(8.10117 -25.0518 2.5189e-20)
(8.01078 -24.9895 0)
(7.90871 -24.8957 0)
(7.80157 -24.8251 9.44509e-22)
(7.73826 -24.7926 4.20459e-22)
(7.62871 -24.817 2.07282e-20)
(7.57753 -24.728 -2.03366e-20)
(7.37263 -24.5927 3.7833e-20)
(7.28274 -24.3115 -4.74386e-20)
(0.844809 -3.88584 -5.70234e-20)
(4.8687 -13.953 3.30206e-20)
(7.9764 -22.698 1.22613e-20)
(9.1078 -25.5106 1.35993e-19)
(9.15562 -25.8128 0)
(9.1072 -25.6889 0)
(8.96577 -25.4795 1.12507e-19)
(8.88487 -25.3382 -2.01681e-20)
(8.75373 -25.1565 -8.88391e-20)
(8.63526 -24.9721 5.19861e-20)
(8.52065 -24.8568 -5.11315e-20)
(8.41103 -24.7538 0)
(8.30094 -24.6843 6.1163e-21)
(8.20213 -24.6195 -6.02019e-21)
(8.08933 -24.5917 0)
(7.9993 -24.5241 0)
(7.8511 -24.486 0)
(7.77186 -24.3717 0)
(7.55523 -24.2477 0)
(7.48617 -24.0172 6.31116e-21)
(1.36549 -4.76493 0)
(5.91969 -15.5231 -1.11681e-19)
(8.87158 -23.4544 0)
(9.68237 -25.5476 0)
(9.66861 -25.6384 1.69244e-19)
(9.54158 -25.4312 -9.87644e-21)
(9.40088 -25.2554 -1.33546e-19)
(9.25855 -25.0544 0)
(9.11903 -24.8715 6.53777e-21)
(8.97095 -24.7009 -4.02783e-21)
(8.83678 -24.5554 0)
(8.71163 -24.473 -2.92335e-22)
(8.59398 -24.4062 1.52268e-20)
(8.45433 -24.3049 -4.2727e-20)
(8.31893 -24.2182 -1.23034e-20)
(8.20994 -24.165 3.73381e-20)
(8.07839 -24.1649 8.00338e-21)
(7.98837 -24.0605 -9.22194e-21)
(7.76179 -23.9262 0)
(7.67244 -23.6416 -1.11758e-20)
(1.89785 -5.77266 6.45784e-20)
(6.79837 -16.6964 3.76204e-20)
(9.80213 -24.0269 -1.85309e-19)
(10.3279 -25.3826 4.35325e-20)
(10.2113 -25.3177 1.49474e-20)
(10.0476 -25.0546 1.16036e-19)
(9.85813 -24.8562 -1.49789e-19)
(9.71433 -24.7018 9.00996e-20)
(9.52818 -24.5105 -3.86095e-20)
(9.35492 -24.3155 3.78487e-20)
(9.19568 -24.1946 -2.32248e-21)
(9.03998 -24.0854 -2.71431e-20)
(8.88335 -23.9914 8.29665e-21)
(8.74327 -23.9206 6.56826e-20)
(8.60736 -23.8932 -6.41029e-20)
(8.48557 -23.8383 0)
(8.3188 -23.7878 -2.97178e-20)
(8.20511 -23.6601 -1.48597e-20)
(7.96943 -23.539 2.58741e-20)
(7.88991 -23.3061 -1.66907e-20)
(2.43421 -6.4481 -1.23172e-19)
(7.82051 -17.6177 1.26885e-19)
(10.6123 -24.123 -5.74042e-21)
(10.9505 -25.0668 -8.13077e-20)
(10.7415 -24.9254 -6.28639e-20)
(10.5273 -24.6587 -2.68325e-20)
(10.3153 -24.476 -6.74593e-21)
(10.1124 -24.2758 -1.31941e-20)
(9.90976 -24.0893 0)
(9.70701 -23.9208 -2.28528e-21)
(9.51783 -23.7669 2.32233e-21)
(9.34401 -23.6694 -6.7897e-21)
(9.19051 -23.6125 -6.71793e-20)
(9.01368 -23.5184 2.57524e-20)
(8.84666 -23.4394 1.01258e-19)
(8.69259 -23.3871 -8.34062e-20)
(8.54002 -23.3813 -8.25934e-20)
(8.41079 -23.2895 1.26833e-19)
(8.16455 -23.1794 -2.58524e-20)
(8.05822 -22.8933 -2.25814e-19)
(2.9734 -7.11985 -2.80414e-19)
(8.7796 -18.0711 2.78947e-19)
(11.4076 -23.9532 -2.46535e-19)
(11.5972 -24.5373 1.93028e-19)
(11.291 -24.3476 1.1095e-19)
(11.0516 -24.0929 -8.16044e-20)
(10.7811 -23.9151 -4.10598e-20)
(10.5664 -23.7732 2.4347e-20)
(10.3163 -23.594 -1.18332e-21)
(10.0782 -23.4042 3.016e-20)
(9.86824 -23.2943 -1.02023e-19)
(9.66512 -23.1948 7.23042e-20)
(9.46065 -23.0923 1.6914e-20)
(9.27847 -23.024 -8.13234e-20)
(9.10899 -22.9944 2.12443e-19)
(8.95054 -22.9558 -1.10775e-19)
(8.76453 -22.9113 0)
(8.61266 -22.8093 2.76991e-19)
(8.35708 -22.7274 -2.72956e-19)
(8.2566 -22.4917 2.64219e-19)
(3.56362 -7.61632 4.95671e-20)
(9.71841 -18.5423 6.63859e-20)
(12.1182 -23.6771 2.01272e-19)
(12.1139 -23.972 1.01456e-19)
(11.7668 -23.767 -7.01612e-20)
(11.4821 -23.5275 1.78372e-20)
(11.1864 -23.3512 -1.06505e-20)
(10.9179 -23.1826 -3.62087e-20)
(10.6574 -23.0244 9.32877e-20)
(10.395 -22.8804 -4.41921e-20)
(10.1483 -22.7335 0)
(9.92279 -22.6468 0)
(9.73096 -22.6143 0)
(9.51755 -22.5343 2.65387e-19)
(9.3179 -22.4738 -2.61285e-19)
(9.12517 -22.4328 0)
(8.9493 -22.4349 0)
(8.7762 -22.3658 4.45813e-20)
(8.51387 -22.2929 0)
(8.38197 -22.0236 4.00565e-19)
(4.0581 -7.91943 -8.29077e-20)
(10.5205 -18.3772 -1.8757e-19)
(12.7015 -23.0281 -7.71213e-20)
(12.6965 -23.2083 1.86097e-20)
(12.2474 -23.0152 3.21466e-20)
(11.9489 -22.7962 -3.23256e-20)
(11.6064 -22.6541 -2.72188e-20)
(11.3196 -22.5449 7.45297e-20)
(11.0139 -22.3946 0)
(10.7119 -22.2322 8.33775e-20)
(10.4515 -22.1472 -1.49114e-19)
(10.2019 -22.0663 0)
(9.95175 -21.9864 -3.13701e-19)
(9.73021 -21.9404 3.08783e-19)
(9.51775 -21.9166 -3.53512e-19)
(9.31518 -21.8951 6.68331e-19)
(9.099 -21.8638 -3.63997e-19)
(8.90513 -21.8026 -4.45803e-20)
(8.64222 -21.7812 5.36527e-20)
(8.52144 -21.565 -4.20386e-19)
(4.62516 -8.18391 -6.19422e-20)
(11.3715 -18.4196 2.91089e-20)
(13.3381 -22.4344 4.0028e-20)
(13.1203 -22.4403 1.1553e-20)
(12.6621 -22.25 -3.50045e-20)
(12.2815 -22.0593 6.73243e-20)
(11.9214 -21.9033 1.00005e-19)
(11.5782 -21.7942 1.65865e-21)
(11.269 -21.6909 -1.58679e-19)
(10.9504 -21.5875 2.32527e-19)
(10.6472 -21.4684 -1.19249e-19)
(10.375 -21.4101 4.19157e-19)
(10.1423 -21.4064 -3.10863e-19)
(9.89153 -21.3492 4.09903e-19)
(9.65392 -21.3109 -3.4666e-19)
(9.42165 -21.2841 -3.9061e-19)
(9.22166 -21.3068 4.33345e-19)
(9.00398 -21.2698 -3.9998e-19)
(8.74325 -21.2546 4.00895e-19)
(8.60103 -21.0362 5.49222e-19)
(5.09954 -8.24505 -3.66251e-20)
(11.9915 -17.9256 3.23117e-20)
(13.726 -21.4454 5.98812e-21)
(13.5234 -21.4708 7.04807e-20)
(13.0176 -21.3281 -6.9206e-20)
(12.6254 -21.1772 -2.19382e-20)
(12.2341 -21.0818 0)
(11.8767 -21.0178 4.71332e-20)
(11.5222 -20.9252 -1.50596e-19)
(11.1683 -20.818 5.52077e-19)
(10.8591 -20.7739 -4.0216e-19)
(10.5626 -20.7248 -1.11067e-19)
(10.2723 -20.6917 -5.25555e-20)
(10.017 -20.6865 0)
(9.7616 -20.6808 1.02492e-20)
(9.51547 -20.6689 -5.162e-19)
(9.2741 -20.6544 -1.70784e-20)
(9.04547 -20.6504 -1.45188e-19)
(8.80316 -20.6934 5.21875e-19)
(8.66656 -20.5274 -1.38407e-19)
(5.5892 -8.30523 -3.04318e-20)
(12.6792 -17.5774 8.98278e-20)
(14.1814 -20.635 -6.26217e-20)
(13.8258 -20.537 -1.3437e-19)
(13.3077 -20.4137 -3.10819e-20)
(12.834 -20.2882 1.08674e-19)
(12.4187 -20.1721 -5.6668e-20)
(12.0166 -20.1343 -4.713e-20)
(11.6646 -20.1001 0)
(11.3008 -20.0541 0)
(10.9451 -19.9799 5.30903e-19)
(10.6312 -19.9623 -9.37365e-19)
(10.3541 -19.995 5.40825e-19)
(10.0693 -19.9815 0)
(9.79843 -19.9897 1.08474e-20)
(9.53616 -19.9903 6.75718e-19)
(9.31205 -20.0429 -6.67519e-19)
(9.05801 -20.0386 7.01445e-20)
(8.80255 -20.078 6.89361e-19)
(8.6653 -19.9359 -4.61175e-19)
(6.02173 -8.14117 1.01353e-19)
(13.1056 -16.9355 -1.32695e-19)
(14.3715 -19.4459 0)
(13.9907 -19.4562 0)
(13.4914 -19.362 -6.21728e-20)
(13.0125 -19.3071 3.00711e-19)
(12.5867 -19.2572 7.31592e-21)
(12.1692 -19.237 -2.63086e-19)
(11.7777 -19.2164 5.93066e-19)
(11.3925 -19.1844 -1.19829e-18)
(11.0424 -19.1949 6.05032e-19)
(10.7027 -19.1781 -1.59367e-19)
(10.3805 -19.1987 -7.47707e-19)
(10.1003 -19.2468 -1.08399e-19)
(9.81399 -19.2879 4.91876e-19)
(9.53161 -19.2952 -7.89278e-20)
(9.26974 -19.3135 7.64645e-19)
(9.02084 -19.3806 -6.6836e-19)
(8.78505 -19.4687 9.8154e-21)
(8.64745 -19.3738 -6.95339e-19)
(6.4262 -7.98655 0)
(13.5361 -16.2496 -1.60799e-19)
(14.6573 -18.4379 1.43331e-19)
(14.1391 -18.4127 0)
(13.6312 -18.3552 6.21651e-20)
(13.0847 -18.3001 -3.14896e-19)
(12.6234 -18.2421 3.81525e-19)
(12.1859 -18.2651 0)
(11.7929 -18.2947 -7.08586e-19)
(11.4013 -18.309 6.96727e-19)
(11.0082 -18.3002 -9.78908e-20)
(10.6645 -18.3322 8.60507e-20)
(10.344 -18.3929 8.74859e-20)
(10.0299 -18.4265 8.86047e-20)
(9.73944 -18.5075 8.59212e-19)
(9.45864 -18.5633 -1.52996e-18)
(9.1954 -18.6441 1.5322e-18)
(8.90516 -18.6654 -1.51724e-18)
(8.64163 -18.7576 6.62712e-19)
(8.5072 -18.7154 -9.33014e-20)
(6.77879 -7.68272 0)
(13.7868 -15.459 2.62512e-19)
(14.6555 -17.1535 -1.35476e-19)
(14.1046 -17.2369 -2.54526e-19)
(13.6255 -17.2257 -2.51051e-20)
(13.1017 -17.2643 -2.20802e-20)
(12.6389 -17.2656 3.75502e-19)
(12.1794 -17.2826 0)
(11.7639 -17.3334 0)
(11.366 -17.3774 0)
(10.9892 -17.4435 9.78865e-20)
(10.6207 -17.4703 0)
(10.279 -17.5426 9.7421e-19)
(9.97224 -17.6223 -8.47408e-19)
(9.66004 -17.7075 8.63904e-19)
(9.35259 -17.7534 -1.71371e-18)
(9.07643 -17.8454 8.49979e-19)
(8.81077 -17.9768 9.58335e-19)
(8.52405 -18.0835 -1.67925e-18)
(8.37919 -18.0541 8.69067e-19)
(7.11707 -7.35912 0)
(13.9329 -14.5821 0)
(14.7065 -16.0335 -8.75667e-20)
(14.0709 -16.1241 -9.34315e-20)
(13.5723 -16.1546 0)
(13.0048 -16.1837 -4.51516e-19)
(12.5134 -16.2072 4.43588e-19)
(12.0602 -16.2776 0)
(11.6287 -16.3499 -9.48821e-19)
(11.2258 -16.4199 9.32943e-19)
(10.8146 -16.4838 0)
(10.4551 -16.5659 9.66705e-19)
(10.1013 -16.6567 -9.61464e-20)
(9.76266 -16.7202 -9.53246e-19)
(9.45853 -16.854 0)
(9.15011 -16.9416 0)
(8.81903 -17.0131 0)
(8.49619 -17.0604 8.45416e-19)
(8.1813 -17.1621 -9.44287e-19)
(7.96166 -17.1948 0)
(5.96824 -25.1409 0)
(5.24465 -24.0943 0)
(4.63297 -24.4716 6.2925e-22)
(4.19885 -24.1418 7.88716e-22)
(3.81261 -24.381 0)
(3.36378 -24.0315 4.8373e-23)
(3.01205 -24.203 -1.15351e-21)
(2.66204 -24.0219 0)
(2.4217 -24.1576 -1.41093e-21)
(2.05422 -24.0385 0)
(1.85422 -24.2019 1.53461e-21)
(1.54793 -24.0688 7.98615e-22)
(1.37633 -24.2249 -8.02771e-22)
(1.12324 -24.078 -1.67735e-21)
(0.955616 -24.2089 0)
(0.816065 -23.934 4.3812e-22)
(0.585961 -23.7064 -1.6077e-21)
(0.637053 -21.3807 0)
(0.180966 -15.3213 0)
(0.227165 -6.43764 -1.81022e-21)
(6.05582 -24.895 3.3412e-22)
(5.27784 -23.8818 0)
(4.76426 -24.3222 -3.57957e-21)
(4.25001 -24.0086 2.18636e-21)
(3.82295 -24.2819 0)
(3.38177 -23.9493 5.75763e-21)
(3.01467 -24.1267 -2.38824e-21)
(2.64095 -23.9359 0)
(2.39325 -24.0641 -1.49622e-21)
(2.02327 -23.9465 2.92273e-21)
(1.83078 -24.1165 -4.67261e-21)
(1.52488 -23.9903 6.3833e-21)
(1.3609 -24.1668 -4.90282e-21)
(1.11279 -24.0223 1.64813e-21)
(0.950609 -24.1645 1.70349e-21)
(0.827001 -23.8782 -1.76158e-21)
(0.599628 -23.6854 3.07293e-21)
(0.648235 -21.3102 4.49132e-21)
(0.173227 -15.2529 2.26264e-21)
(0.236562 -6.37612 2.26248e-21)
(6.11477 -24.6136 -2.58596e-21)
(5.44568 -23.6923 7.74012e-22)
(4.78202 -24.1712 3.09933e-21)
(4.30427 -23.8579 0)
(3.90806 -24.1304 0)
(3.42808 -23.7858 -7.19574e-21)
(3.07349 -23.9954 -3.82134e-22)
(2.70353 -23.8406 -2.86503e-22)
(2.44737 -23.9792 -2.63417e-22)
(2.07876 -23.8747 5.953e-21)
(1.88495 -24.0556 0)
(1.56954 -23.9337 0)
(1.40278 -24.1034 0)
(1.1461 -23.9618 6.83534e-21)
(0.979621 -24.1258 0)
(0.85229 -23.8353 7.0673e-21)
(0.613997 -23.6639 -5.99104e-21)
(0.656633 -21.2779 -2.68963e-21)
(0.176667 -15.224 -4.51206e-21)
(0.249025 -6.33136 -7.27316e-21)
(6.24245 -24.3678 -3.30021e-21)
(5.46272 -23.4737 7.3326e-21)
(4.89153 -24.0053 4.35548e-22)
(4.35489 -23.7289 -7.01295e-21)
(3.93037 -24.0341 0)
(3.44114 -23.7001 -1.0166e-20)
(3.06934 -23.9121 2.65764e-20)
(2.67774 -23.747 -1.67564e-20)
(2.41329 -23.8823 1.17767e-20)
(2.04955 -23.7828 -6.24993e-21)
(1.86011 -23.9692 -1.25372e-22)
(1.5471 -23.8542 6.6087e-21)
(1.38722 -24.0456 -6.64081e-21)
(1.1377 -23.905 -3.39136e-21)
(0.973075 -24.0831 -3.462e-21)
(0.864629 -23.7806 -7.06475e-21)
(0.627494 -23.6437 7.7607e-21)
(0.667267 -21.2186 -3.60701e-21)
(0.168132 -15.1739 1.81057e-21)
(0.258166 -6.27399 7.26132e-21)
(6.30935 -24.0834 -3.09036e-21)
(5.62364 -23.2788 -2.17732e-21)
(4.94568 -23.8274 6.30487e-21)
(4.42167 -23.5667 -1.17301e-20)
(4.00078 -23.8698 0)
(3.47626 -23.5301 5.13399e-21)
(3.12709 -23.7811 -5.42796e-21)
(2.74504 -23.6515 0)
(2.46663 -23.7979 1.12745e-22)
(2.10596 -23.7135 0)
(1.91312 -23.9074 1.29035e-20)
(1.59201 -23.7983 0)
(1.42889 -23.9821 0)
(1.17162 -23.8455 1.39052e-20)
(0.999249 -24.0464 -6.97724e-21)
(0.892164 -23.7427 7.15699e-21)
(0.640471 -23.6243 0)
(0.678043 -21.19 -1.81045e-21)
(0.16832 -15.1517 1.81367e-21)
(0.271147 -6.23188 0)
(6.44143 -23.8232 -4.4981e-21)
(5.65838 -23.0577 5.77386e-21)
(5.02973 -23.6563 -1.85692e-20)
(4.45097 -23.4303 2.06355e-20)
(4.02921 -23.7686 -1.00644e-20)
(3.4989 -23.4426 -5.15074e-21)
(3.12025 -23.6933 1.14859e-20)
(2.72189 -23.5506 1.19528e-20)
(2.43109 -23.6964 -6.11981e-21)
(2.07576 -23.6227 -1.29064e-20)
(1.88823 -23.8202 6.45537e-21)
(1.56959 -23.7189 0)
(1.41406 -23.9245 0)
(1.16391 -23.7875 8.89848e-23)
(0.992703 -24.0051 7.02451e-21)
(0.903847 -23.6902 -6.96626e-21)
(0.652764 -23.6052 0)
(0.688288 -21.1426 1.45959e-20)
(0.159333 -15.1199 1.35977e-20)
(0.279764 -6.17926 9.10109e-22)
(6.5268 -23.5243 1.49225e-20)
(5.79369 -22.8418 -1.72552e-20)
(5.07129 -23.4804 7.70002e-21)
(4.5137 -23.2649 0)
(4.0863 -23.5994 1.01034e-20)
(3.52268 -23.2683 -2.25154e-20)
(3.16906 -23.562 1.10804e-20)
(2.79224 -23.4553 -1.19868e-20)
(2.48656 -23.6115 0)
(2.13129 -23.5549 0)
(1.94138 -23.7579 -1.34405e-20)
(1.61427 -23.6629 1.34836e-20)
(1.45561 -23.8618 0)
(1.19729 -23.7282 -2.1081e-20)
(1.01946 -23.97 7.07558e-21)
(0.922031 -23.6502 6.63538e-21)
(0.664174 -23.5874 -6.2698e-21)
(0.699756 -21.1173 -1.81584e-20)
(0.155472 -15.1037 -8.84638e-21)
(0.293095 -6.1406 -1.82009e-21)
(6.65429 -23.2753 0)
(5.84753 -22.6214 1.63152e-20)
(5.19538 -23.2868 -1.61059e-20)
(4.53579 -23.116 0)
(4.12721 -23.4936 0)
(3.54966 -23.1756 2.33258e-20)
(3.16034 -23.4724 -2.34082e-20)
(2.76896 -23.3505 0)
(2.45281 -23.5047 -1.3046e-20)
(2.10132 -23.4656 2.64207e-20)
(1.9172 -23.6702 -1.33833e-20)
(1.59183 -23.5842 -1.38298e-20)
(1.44135 -23.8041 1.38674e-20)
(1.19077 -23.6694 0)
(1.02093 -23.928 0)
(0.926515 -23.6091 6.45153e-21)
(0.672562 -23.5712 -9.43468e-21)
(0.707889 -21.0818 1.85077e-24)
(0.148759 -15.0879 4.19981e-21)
(0.298854 -6.0933 -1.81791e-21)
(6.78984 -22.92 -1.55581e-20)
(5.93084 -22.3886 1.55901e-20)
(5.21293 -23.1007 3.07128e-20)
(4.58037 -22.9392 -4.17291e-20)
(4.1697 -23.3233 4.43947e-20)
(3.57373 -22.9975 1.09047e-21)
(3.20727 -23.3399 -2.41831e-20)
(2.83641 -23.2565 0)
(2.51222 -23.419 0)
(2.15736 -23.3985 -1.3609e-20)
(1.9707 -23.6079 0)
(1.63641 -23.5274 0)
(1.48132 -23.7433 0)
(1.22267 -23.6119 0)
(1.05425 -23.8921 0)
(0.938137 -23.5641 0)
(0.678811 -23.5574 6.30575e-21)
(0.717937 -21.0615 -7.29066e-21)
(0.144123 -15.0807 1.03529e-21)
(0.308157 -6.05844 -1.81497e-21)
(6.90939 -22.626 1.93154e-21)
(6.00646 -22.134 2.67946e-20)
(5.35479 -22.8864 1.11696e-20)
(4.60358 -22.7819 1.19473e-20)
(4.21781 -23.2153 -1.05966e-20)
(3.59934 -22.8997 -3.63639e-20)
(3.19737 -23.2466 -1.29563e-20)
(2.80748 -23.15 0)
(2.48196 -23.3086 1.36148e-20)
(2.13057 -23.3091 -2.74367e-20)
(1.94789 -23.5194 -1.40018e-20)
(1.6147 -23.4493 -1.42258e-20)
(1.46818 -23.6851 0)
(1.21658 -23.5536 -1.44885e-20)