/*--------------------------------*- C++ -*----------------------------------*\
  =========                 |
  \\      /  F ield         | OpenFOAM: The Open Source CFD Toolbox
   \\    /   O peration     | Website:  https://openfoam.org
    \\  /    A nd           | Version:  9
     \\/     M anipulation  |
\*---------------------------------------------------------------------------*/
FoamFile
{
    format      ascii;
    class       volScalarField;
    location    "10.7";
    object      p;
}
// * * * * * * * * * * * * * * * * * * * * * * * * * * * * * * * * * * * * * //

dimensions      [0 2 -2 0 0 0 0];

internalField   nonuniform List<scalar> 
46400
(
20.8765
27.2689
37.0192
45.8995
53.498
60.7345
67.0458
72.9007
78.1469
82.9545
87.3446
91.347
95.075
98.5175
101.751
104.854
107.757
110.709
114.069
114.752
49.809
54.5628
63.3027
71.6728
78.6601
85.2291
90.9323
96.1514
100.789
104.979
108.759
112.174
115.285
118.108
120.696
123.088
125.25
127.359
129.524
129.463
76.7582
81.2169
89.6382
97.2961
103.582
109.414
114.381
118.876
122.825
126.34
129.491
132.276
134.801
137.048
139.054
140.865
142.439
143.949
145.331
144.506
103.515
108.473
116.023
122.804
128.278
133.274
137.525
141.279
144.572
147.419
149.94
152.113
154.031
155.696
157.157
158.403
159.454
160.401
161.332
160.155
130.537
136.037
142.472
148.149
152.613
156.681
160.057
163.007
165.546
167.7
169.569
171.137
172.477
173.596
174.524
175.297
175.891
176.401
176.942
175.56
157.665
163.53
168.078
172.643
176.119
179.233
181.844
184.008
185.881
187.385
188.655
189.65
190.456
191.048
191.502
191.79
191.951
191.999
192.266
190.696
183.816
189.276
192.577
195.846
198.427
200.574
202.379
203.786
204.943
205.808
206.478
206.933
207.225
207.36
207.362
207.265
207.028
206.749
206.664
205.037
208.463
212.357
215.176
217.427
219.326
220.731
221.87
222.627
223.172
223.447
223.552
223.468
223.248
222.876
222.402
221.82
221.141
220.418
219.888
218.019
230.054
233.17
235.354
237.015
238.253
239.059
239.594
239.797
239.795
239.55
239.155
238.609
237.966
237.208
236.374
235.453
234.44
233.379
232.487
230.47
250.176
252.67
254.398
255.439
256.185
256.416
256.418
256.094
255.59
254.853
253.951
252.896
251.749
250.519
249.234
247.9
246.501
245.082
243.792
241.592
267.653
269.569
270.817
271.405
271.728
271.558
271.14
270.384
269.484
268.383
267.172
265.798
264.336
262.762
261.136
259.454
257.731
255.986
254.37
251.986
284.417
285.807
286.598
286.634
286.458
285.846
285.013
283.834
282.461
280.91
279.238
277.467
275.61
273.687
271.71
269.706
267.661
265.628
263.696
261.18
298.592
299.303
299.655
299.193
298.589
297.557
296.45
295.044
293.519
291.751
289.891
287.87
285.791
283.605
281.38
279.093
276.769
274.426
272.18
269.406
312.469
312.56
312.307
311.402
310.257
308.756
307.087
305.245
303.268
301.164
298.964
296.678
294.334
291.937
289.506
287.044
284.551
282.044
279.646
276.748
321.776
321.594
321.088
320.058
318.86
317.311
315.566
313.577
311.462
309.18
306.808
304.324
301.776
299.165
296.519
293.844
291.14
288.426
285.833
282.782
330.632
330.269
329.568
328.217
326.65
324.757
322.679
320.407
318.03
315.52
312.961
310.307
307.641
304.914
302.197
299.456
296.718
293.971
291.434
288.318
334.875
334.81
333.984
332.873
331.376
329.597
327.588
325.332
322.939
320.367
317.715
314.949
312.144
309.281
306.409
303.528
300.643
297.773
295.14
291.923
342.008
338.798
338.567
336.938
335.183
333.09
330.88
328.439
325.924
323.245
320.542
317.736
314.919
312.039
309.169
306.278
303.401
300.519
297.93
294.623
341.441
340.699
339.853
338.351
336.763
334.729
332.563
330.164
327.615
324.936
322.142
319.293
316.385
313.464
310.518
307.588
304.647
301.731
299.037
295.862
339.672
339.483
338.84
337.6
336.075
334.097
331.979
329.533
327.021
324.33
321.613
318.791
315.956
313.06
310.16
307.249
304.332
301.421
298.714
295.529
-255.909
-255.504
-253.971
-247.766
-240.8
-233.134
-224.937
-217.337
-209.855
-202.602
-195.55
-188.713
-182.126
-175.652
-169.498
-163.383
-157.622
-151.922
-146.468
-141.269
-258.181
-257.157
-254.928
-247.768
-239.244
-230.585
-221.866
-213.687
-205.661
-197.959
-190.578
-183.408
-176.572
-169.877
-163.546
-157.29
-151.422
-145.614
-140.134
-134.886
-261.732
-260.804
-256.426
-247.904
-237.619
-227.85
-218.566
-209.61
-201.164
-193.074
-185.337
-177.905
-170.81
-163.92
-157.418
-150.993
-145.032
-139.097
-133.602
-128.264
-265.681
-263.611
-255.776
-246.274
-235.008
-224.301
-214.392
-204.928
-195.928
-187.464
-179.366
-171.655
-164.322
-157.243
-150.573
-144.05
-138.008
-131.996
-126.5
-121.096
-265.396
-263.692
-253.424
-242.49
-230.808
-219.659
-209.125
-199.313
-189.956
-181.138
-172.797
-164.842
-157.303
-150.067
-143.264
-136.622
-130.496
-124.409
-118.922
-113.455
-261.508
-261.348
-250.935
-238.101
-225.723
-213.971
-202.874
-192.585
-182.858
-173.755
-165.119
-156.982
-149.271
-141.917
-135.004
-128.303
-122.147
-116.022
-110.553
-105.022
-259.906
-257.863
-246.725
-232.517
-219.192
-206.927
-195.403
-184.739
-174.719
-165.356
-156.567
-148.269
-140.451
-133.03
-126.077
-119.372
-113.227
-107.113
-101.747
-96.2082
-253.546
-251.014
-238.474
-224.068
-210.326
-197.67
-185.922
-175.063
-164.876
-155.422
-146.521
-138.185
-130.338
-122.929
-115.99
-109.339
-103.285
-97.2587
-92.1152
-86.7394
-244.75
-241.508
-228.443
-213.479
-199.737
-186.936
-175.053
-164.102
-153.823
-144.285
-135.365
-126.999
-119.149
-111.758
-104.842
-98.2546
-92.2233
-86.2461
-81.1658
-75.7379
-234.585
-230.385
-216.296
-201.171
-187.029
-174.217
-162.179
-151.249
-140.992
-131.512
-122.66
-114.38
-106.63
-99.3563
-92.5388
-86.0674
-80.1304
-74.2504
-69.3115
-63.8239
-220.283
-215.596
-201.173
-186.101
-172.232
-159.58
-147.726
-136.916
-126.816
-117.468
-108.774
-100.659
-93.0747
-85.9771
-79.3445
-73.0918
-67.3421
-61.6787
-56.9587
-51.5769
-204.56
-199.199
-184.378
-169.527
-155.556
-143.214
-131.458
-120.854
-110.962
-101.808
-93.3418
-85.4212
-78.0557
-71.1817
-64.7526
-58.7172
-53.1484
-47.7078
-43.1842
-37.9387
-185.48
-179.778
-164.912
-150.563
-136.972
-124.965
-113.67
-103.366
-93.8473
-85.0371
-76.8956
-69.3337
-62.2949
-55.7502
-49.6517
-43.9675
-38.7253
-33.6087
-29.445
-24.3665
-165.004
-158.948
-143.981
-130.139
-116.806
-105.223
-94.2643
-84.3355
-75.1711
-66.6784
-58.9006
-51.6359
-44.9268
-38.7043
-32.9106
-27.5501
-22.5811
-17.8197
-13.9172
-9.07729
-142.352
-135.973
-120.589
-107.82
-95.0709
-84.0043
-73.6729
-64.1951
-55.5535
-47.5403
-40.1919
-33.4054
-27.1214
-21.3174
-15.9351
-10.9857
-6.40338
-2.02071
1.49602
6.14801
-118.306
-111.688
-96.2772
-84.0998
-72.0414
-61.442
-51.6887
-42.7114
-34.549
-26.9808
-20.0966
-13.701
-7.8329
-2.43075
2.56387
7.10726
11.3272
15.2397
18.3771
22.7174
-92.5844
-85.6375
-70.7311
-59.3032
-48.0939
-38.0938
-28.9906
-20.5788
-12.9805
-5.9466
0.464966
6.34611
11.758
16.7206
21.2825
25.4191
29.2641
32.7449
35.5063
39.7175
-65.3473
-58.4689
-44.6054
-33.5842
-23.2222
-13.7983
-5.36866
2.47945
9.52655
16.0538
21.9652
27.4222
32.4019
36.9508
41.1093
44.8543
48.317
51.2585
53.6207
57.4135
-37.4033
-30.5885
-17.6481
-7.35874
2.13548
10.8824
18.6341
25.8305
32.2913
38.2472
43.6684
48.6109
53.1572
57.2998
61.0782
64.5194
67.6868
70.2838
72.4488
76.3689
-8.71933
-1.59228
9.68127
19.3933
27.9019
35.9419
42.9935
49.5882
55.4928
60.9511
65.9193
70.5139
74.7542
78.6728
82.3237
85.7806
88.9952
91.8735
95.0172
99.1422
-115.435
-86.572
-56.558
-39.6115
-18.7193
-7.53728
6.51373
14.7718
24.1324
29.8382
36.1738
40.5151
44.4264
47.7642
50.2266
52.3707
54.4716
55.0464
55.9355
56.2224
-109.19
-82.0195
-52.4278
-36.552
-16.1714
-5.5049
8.26784
16.1929
25.2772
30.8666
36.9476
41.1857
44.9465
48.1417
50.4568
52.5181
54.4419
55.0315
55.9259
56.0384
-102.647
-77.2092
-48.2348
-33.337
-13.5269
-3.25201
9.91688
17.6689
26.4021
31.9214
37.7221
41.8686
45.4623
48.5382
50.7196
52.7465
54.4923
55.0971
55.9405
56.1214
-95.768
-72.1796
-43.9346
-29.8645
-10.844
-0.947792
11.7572
19.2856
27.6379
33.0566
38.6032
42.6239
46.0633
48.9825
50.9999
52.9474
54.4602
55.196
55.9558
56.0682
-88.5734
-66.9388
-39.5131
-26.2902
-8.04203
1.45212
13.5534
20.8946
28.9054
34.2138
39.4843
43.3886
46.6644
49.448
51.3209
53.2251
54.4759
55.3385
55.9909
56.1062
-80.8395
-61.4078
-34.8959
-22.5878
-5.1724
3.93972
15.5348
22.6226
30.281
35.4097
40.4686
44.2268
47.3434
49.953
51.6719
53.4558
54.4514
55.4736
55.9685
56.1206
-72.7038
-55.624
-30.1919
-18.8172
-2.19863
6.47552
17.4831
24.3518
31.6945
36.6592
41.4567
45.0755
48.0333
50.4862
52.0715
53.7402
54.5155
55.722
56.0481
56.177
-64.5049
-49.5425
-25.2825
-14.9186
0.873449
9.11015
19.5947
26.1865
33.1831
37.9557
42.5372
45.9952
48.7936
51.0489
52.4998
53.9872
54.5705
55.9272
56.0139
56.226
-54.4996
-43.0235
-20.1925
-10.936
4.02814
11.7729
21.6877
28.0274
34.7303
39.3055
43.6279
46.9286
49.5759
51.6519
52.9976
54.4668
54.7637
56.1924
55.9668
56.3129
-44.4345
-36.3679
-15.0455
-6.83835
7.26671
14.5611
23.9129
29.964
36.3296
40.7115
44.7969
47.9286
50.425
52.2693
53.543
54.737
54.9722
56.4353
55.9349
56.3902
-34.3873
-29.273
-9.71908
-2.63014
10.5738
17.3573
26.1353
31.9172
37.988
42.175
45.9829
48.9481
51.2994
52.9338
54.1369
55.0806
55.2718
56.6289
55.9052
56.5358
-24.0705
-22.009
-4.03728
1.68092
13.9592
20.2859
28.4621
33.9485
39.6832
43.7019
47.2358
50.0249
52.2377
53.6074
54.7744
55.3628
55.4893
56.7264
55.8621
56.6544
-12.7734
-14.3355
1.61275
6.10323
17.3778
23.2141
30.8003
36.0028
41.4299
45.288
48.5134
51.1272
53.2007
54.3264
55.4717
55.7064
55.801
56.8717
55.822
56.8357
-1.28387
-6.59488
7.26223
10.6114
20.877
26.2576
33.2217
38.1231
43.2094
46.9401
49.8508
52.2788
54.2344
55.0585
56.2321
55.9936
56.0304
57.0599
55.8097
57.0733
11.1529
1.53814
13.1381
15.218
24.3628
29.3055
35.6621
40.2721
45.027
48.6507
51.2243
53.4589
55.2955
55.8308
57.06
56.3106
56.3998
57.295
55.7495
57.3313
23.9935
9.74005
19.1183
19.8691
27.8779
32.388
38.1386
42.447
46.8475
50.4076
52.6434
54.6539
56.3741
56.5954
57.93
56.5801
56.6831
57.4998
55.6965
57.7708
37.5921
18.6227
25.4926
24.8046
31.5063
35.6118
40.7164
44.7275
48.7447
52.2478
54.1306
55.9547
57.593
57.4432
58.9451
56.9218
57.112
57.7238
55.5383
58.0168
50.2964
26.2179
31.5614
29.6551
35.0958
38.8445
43.3573
47.0763
50.6854
54.1609
55.6998
57.2541
58.8132
58.3236
60.0915
57.2424
57.4639
58.0484
55.4926
58.762
67.1693
34.7961
37.7195
33.432
37.6389
41.0872
45.3537
48.8209
52.2079
55.7811
57.0895
58.2261
59.751
58.8271
60.9532
57.4451
57.7249
57.6912
55.2746
58.9215
89.0098
51.4159
46.7228
40.8875
42.9427
45.7885
48.8139
51.8864
54.6243
58.0456
58.8423
59.9478
61.2141
60.7185
62.2432
59.8775
59.0837
58.2331
53.7922
59.8148
125.063
125.471
97.1672
99.4145
86.2994
85.8566
78.1893
79.5575
75.3065
76.7234
74.6531
77.7178
75.9644
79.894
76.5749
83.1967
76.8263
82.7904
58.62
86.5264
160.125
149.013
127.652
121.06
107.765
103.555
95.8128
93.617
89.1724
88.3619
85.5244
85.331
83.0658
83.7668
81.0259
83.1249
79.5544
82.5194
79.1495
82.1965
164.219
154.201
142.09
134.486
125.688
120.132
113.676
110.025
105.68
103.525
100.792
99.7263
98.0875
97.7146
96.5373
96.3847
94.9677
94.2201
93.0278
93.8544
164.087
156.135
147.625
140.514
133.388
127.775
122.516
118.324
114.335
111.213
108.284
105.944
103.686
102.031
100.525
99.2951
98.3058
97.5356
96.8631
96.9718
157.341
151.147
146.111
140.881
136.431
131.978
128.069
124.451
121.175
118.358
115.752
113.592
111.492
109.777
107.993
106.566
104.96
103.797
102.747
102.788
153.674
149.808
146.699
142.598
138.918
135.129
131.759
128.463
125.524
122.678
120.09
117.674
115.472
113.338
111.531
109.533
108.091
106.531
105.57
105.451
149.34
146.388
143.955
140.861
138.426
135.746
133.303
130.856
128.5
126.326
124.041
122.051
119.955
118.122
116.113
114.29
112.393
110.501
109.411
108.866
147.166
145.39
143.835
141.964
139.898
137.474
135.5
133.309
131.25
129.216
127.204
125.349
123.27
121.457
119.394
117.493
115.428
113.33
111.781
111.213
145.231
143.838
142.513
140.846
139.336
137.997
136.351
134.952
133.261
131.851
129.996
128.562
126.652
125.196
123.105
121.495
119.085
117.276
115.187
114.57
144.489
143.713
142.913
141.996
140.985
139.819
138.401
137.187
135.763
134.654
133.215
132.091
130.427
129.259
127.314
126.073
123.602
122.28
119.698
119.302
144.269
143.668
143.015
142.294
141.516
140.751
139.979
139.244
138.27
137.419
136.316
135.474
134.242
133.381
131.893
130.887
128.771
127.679
123.891
124.096
144.459
144.141
143.718
143.375
142.902
142.593
141.919
141.518
140.826
140.475
139.779
139.46
138.661
138.397
137.378
137.331
135.528
136.373
133.552
135.964
145.175
145.057
144.79
144.613
144.313
144.114
143.846
143.65
143.429
143.271
143.156
143.102
143.163
143.221
143.518
143.734
144.311
144.792
146.474
148.601
145.838
145.828
145.724
145.723
145.628
145.669
145.595
145.743
145.721
146.002
146.11
146.547
146.908
147.509
148.361
149.08
150.889
151.528
155.139
155.939
146.664
146.763
146.786
146.918
146.976
147.178
147.3
147.62
147.836
148.345
148.693
149.482
150.014
151.226
152.02
153.8
154.987
157.613
159.934
162.484
147.366
147.519
147.637
147.848
148.02
148.319
148.561
148.987
149.329
149.926
150.411
151.247
151.914
153.067
153.935
155.583
156.66
158.998
159.974
171.65
148.029
148.23
148.426
148.693
148.959
149.31
149.664
150.154
150.591
151.299
151.856
152.787
153.45
154.66
155.456
157.117
158.007
160.518
161.349
164.385
148.514
148.744
148.979
149.287
149.586
150.004
150.388
150.908
151.408
152.033
152.616
153.439
154.125
155.227
155.993
157.38
158.138
159.813
160.473
163.699
148.881
149.101
149.366
149.697
150.056
150.472
150.879
151.403
151.888
152.533
153.105
153.868
154.507
155.43
156.106
157.177
157.862
158.9
159.428
160.182
149.058
149.324
149.605
149.917
150.247
150.648
151.08
151.577
152.09
152.683
153.268
153.976
154.621
155.401
156.039
156.866
157.382
158.295
158.512
162.053
257.309
257.282
256.67
255.602
253.566
251.308
247.924
244.317
239.639
234.809
228.914
222.914
215.764
208.249
200.011
191.717
181.429
171.523
162.227
151.737
231.008
230.878
230.612
229.877
228.963
227.679
226.107
224.299
222.07
219.789
216.921
214.276
210.389
205.502
201.253
197.936
193.517
189.594
184.613
180.073
192.284
192.405
192.277
192.161
191.787
191.444
190.812
190.287
189.414
188.696
187.622
186.699
185.329
184.208
182.523
181.068
179.114
177.501
175.144
173.619
180.663
180.65
180.609
180.488
180.32
180.086
179.774
179.406
178.921
178.415
177.716
177.085
176.227
175.491
174.431
173.625
172.395
171.53
170.1
169.24
164.286
164.325
164.358
164.343
164.281
164.21
164.06
163.939
163.709
163.55
163.253
163.061
162.702
162.467
162.01
161.733
161.167
160.862
160.171
159.867
158.892
158.93
158.925
158.915
158.873
158.813
158.733
158.626
158.505
158.35
158.162
157.956
157.676
157.434
157.086
156.825
156.402
156.132
155.631
155.364
152.111
152.148
152.183
152.19
152.182
152.159
152.109
152.055
151.966
151.882
151.759
151.653
151.508
151.39
151.214
151.083
150.862
150.729
150.452
150.327
149.593
149.619
149.617
149.618
149.597
149.572
149.531
149.481
149.418
149.344
149.262
149.165
149.051
148.927
148.78
148.643
148.451
148.308
148.085
147.944
146.828
146.866
146.895
146.912
146.921
146.917
146.901
146.877
146.835
146.787
146.722
146.654
146.568
146.485
146.382
146.287
146.162
146.054
145.896
145.783
145.791
145.804
145.802
145.798
145.785
145.757
145.726
145.692
145.662
145.627
145.584
145.534
145.47
145.402
145.319
145.237
145.14
145.053
144.944
144.853
145.267
145.324
145.374
145.408
145.433
145.435
145.411
145.373
145.31
145.255
145.185
145.127
145.05
144.99
144.912
144.845
144.767
144.69
144.609
144.518
145.369
145.375
145.39
145.4
145.401
145.402
145.385
145.365
145.335
145.295
145.25
145.199
145.15
145.097
145.041
144.983
144.916
144.849
144.76
144.673
145.566
145.588
145.605
145.619
145.628
145.633
145.636
145.632
145.627
145.615
145.603
145.583
145.563
145.535
145.509
145.472
145.441
145.395
145.359
145.303
146.097
146.103
146.108
146.11
146.113
146.112
146.11
146.106
146.101
146.092
146.084
146.071
146.059
146.041
146.026
146.004
145.985
145.957
145.935
145.901
146.499
146.518
146.536
146.554
146.57
146.585
146.599
146.611
146.623
146.633
146.643
146.649
146.657
146.66
146.667
146.666
146.67
146.666
146.669
146.66
147.059
147.073
147.087
147.101
147.116
147.13
147.144
147.158
147.172
147.186
147.2
147.213
147.228
147.241
147.256
147.267
147.283
147.293
147.31
147.318
147.467
147.487
147.508
147.53
147.552
147.574
147.597
147.621
147.645
147.67
147.695
147.721
147.748
147.774
147.802
147.828
147.858
147.884
147.916
147.941
147.901
147.913
147.927
147.943
147.961
147.98
148.001
148.023
148.047
148.072
148.098
148.126
148.156
148.186
148.219
148.253
148.289
148.325
148.365
148.402
148.121
148.15
148.179
148.207
148.234
148.26
148.286
148.314
148.343
148.375
148.408
148.444
148.482
148.522
148.564
148.606
148.649
148.691
148.732
148.771
148.263
148.278
148.295
148.315
148.335
148.357
148.382
148.41
148.439
148.47
148.503
148.538
148.575
148.615
148.658
148.704
148.753
148.803
148.856
148.911
62.7788
59.9279
53.7661
48.2247
42.5711
36.5579
30.2698
23.5832
16.4458
8.76487
0.486903
-8.51473
-18.2379
-28.9225
-40.5571
-53.3176
-67.4302
-82.672
-100.498
-108.821
77.134
75.385
70.9381
66.5386
61.9142
56.8874
51.4756
45.6228
39.3085
32.4245
24.9675
16.7964
7.98499
-1.75621
-12.3193
-23.9854
-36.8838
-50.6295
-67.5373
-76.5079
94.2193
93.4985
89.9618
86.253
82.2905
77.9128
73.1597
67.9904
62.3608
56.2193
49.5315
42.2011
34.2342
25.3735
15.7526
5.00017
-6.62914
-19.5508
-34.9227
-43.6138
111.557
111.099
108.029
104.969
101.663
98.0074
93.9986
89.6038
84.7888
79.4803
73.6584
67.2159
60.1822
52.321
43.7628
34.1803
23.7036
12.0149
-1.68137
-10.5697
129.147
129.187
126.763
124.317
121.645
118.639
115.277
111.568
107.429
102.843
97.7609
92.1222
85.9206
78.9435
71.358
62.7511
53.5242
42.9339
30.9012
23.3279
146.701
146.952
144.929
142.981
140.833
138.395
135.646
132.584
129.139
125.292
120.993
116.191
110.848
104.802
98.1335
90.5428
82.1913
72.5719
61.764
55.5814
163.867
164.37
162.796
161.375
159.787
157.923
155.782
153.365
150.593
147.465
143.925
139.91
135.386
130.173
124.422
117.689
110.349
101.689
91.5542
86.1801
180.064
180.798
179.759
178.824
177.754
176.451
174.898
173.117
171.01
168.61
165.806
162.603
158.89
154.609
149.754
144.022
137.629
129.913
120.631
115.149
195.309
196.39
195.906
195.495
194.983
194.247
193.314
192.168
190.754
189.062
187.028
184.614
181.753
178.357
174.457
169.7
164.488
157.823
150.189
144.033
209.991
211.293
211.258
211.304
211.264
211.055
210.674
210.13
209.33
208.317
206.957
205.308
203.21
200.728
197.69
194.059
189.853
184.476
178.789
171.969
223.244
224.854
225.347
225.899
226.401
226.742
226.957
226.994
226.829
226.444
225.784
224.852
223.554
221.905
219.795
217.196
214.063
210.094
205.757
199.604
235.905
237.841
238.78
239.772
240.704
241.494
242.161
242.672
243.009
243.161
243.082
242.773
242.135
241.221
239.857
238.156
235.852
233.103
229.598
225.1
247.247
249.448
250.703
252.07
253.384
254.609
255.712
256.713
257.551
258.255
258.734
259.017
259.015
258.775
258.165
257.217
255.766
253.828
251.235
247.717
257.998
260.374
261.955
263.645
265.309
266.871
268.352
269.729
270.99
272.119
273.076
273.865
274.411
274.743
274.692
274.331
273.424
272.171
270.177
267.364
266.996
269.531
271.388
273.369
275.318
277.213
279.033
280.806
282.458
284.03
285.41
286.663
287.625
288.419
288.803
288.969
288.604
287.973
286.614
284.493
274.996
277.768
279.923
282.196
284.448
286.636
288.777
290.844
292.825
294.687
296.419
298.002
299.403
300.608
301.511
302.161
302.378
302.337
301.527
300.009
281.725
284.567
286.857
289.288
291.719
294.101
296.459
298.765
301.003
303.163
305.21
307.147
308.877
310.422
311.64
312.689
313.323
313.77
313.408
312.556
287.22
290.224
292.686
295.333
297.964
300.574
303.148
305.691
308.166
310.583
312.887
315.087
317.098
318.96
320.595
322.053
323.204
324.046
324.209
324.062
291.296
294.358
296.924
299.675
302.424
305.156
307.873
310.57
313.226
315.821
318.334
320.721
322.972
325.057
326.929
328.525
329.696
330.539
330.888
330.874
294.211
297.375
300.02
302.881
305.736
308.591
311.434
314.268
317.053
319.785
322.431
324.974
327.405
329.656
331.714
333.459
334.937
335.988
336.671
336.694
-181.507
-187.343
-193.469
-199.841
-206.237
-213.04
-219.78
-226.905
-234.09
-241.498
-249.044
-256.928
-264.731
-272.875
-280.63
-288.193
-293.952
-295.453
-296.453
-296.425
-176.289
-182.318
-188.615
-195.268
-201.914
-209.009
-216.098
-223.566
-231.099
-238.962
-246.978
-255.106
-263.587
-271.97
-280.784
-288.967
-295.881
-300.295
-300.511
-301.191
-170.996
-177.236
-183.686
-190.612
-197.527
-204.978
-212.445
-220.34
-228.415
-236.778
-245.402
-254.345
-263.527
-272.887
-282.539
-291.833
-300.722
-307.701
-308.428
-309.445
-165.424
-171.904
-178.536
-185.768
-192.965
-200.747
-208.627
-216.967
-225.54
-234.536
-243.862
-253.531
-263.622
-274.19
-285.02
-296.234
-307.633
-316.853
-319.887
-320.89
-159.45
-166.15
-172.928
-180.429
-187.92
-196.062
-204.36
-213.153
-222.311
-231.903
-241.993
-252.564
-263.719
-275.509
-287.723
-300.84
-314.778
-326.438
-333.428
-334.742
-152.875
-159.804
-166.726
-174.487
-182.227
-190.663
-199.347
-208.575
-218.217
-228.419
-239.149
-250.481
-262.554
-275.287
-288.993
-303.679
-319.536
-333.455
-345.35
-346.804
-145.64
-152.746
-159.777
-167.755
-175.738
-184.447
-193.462
-203.031
-213.13
-223.794
-235.135
-247.141
-259.922
-273.549
-288.183
-303.776
-320.322
-336.093
-352.806
-355.007
-137.549
-144.853
-151.87
-160.012
-168.143
-177.021
-186.307
-196.192
-206.622
-217.735
-229.547
-242.123
-255.641
-270.112
-285.704
-302.506
-320.49
-339.745
-354.888
-358.435
-128.621
-136.065
-143.101
-151.272
-159.529
-168.524
-177.964
-188.01
-198.696
-210.062
-222.214
-235.165
-249.087
-263.993
-280.064
-297.565
-316.543
-336.287
-353.427
-358.659
-118.466
-125.952
-132.969
-141.155
-149.454
-158.477
-168.006
-178.19
-189.008
-200.583
-212.945
-226.194
-240.494
-255.815
-272.431
-290.457
-309.538
-330.47
-348.582
-352.446
-107.514
-115.01
-121.891
-129.974
-138.221
-147.174
-156.682
-166.82
-177.672
-189.28
-201.719
-215.059
-229.475
-244.922
-261.813
-280.009
-299.934
-321.558
-340.507
-345.377
-95.2557
-102.638
-109.336
-117.25
-125.4
-134.229
-143.643
-153.731
-164.495
-176.049
-188.445
-201.784
-216.202
-231.699
-248.61
-266.858
-286.558
-308.476
-328.466
-334.041
-81.4924
-88.9623
-95.4524
-103.182
-111.17
-119.804
-129.052
-138.942
-149.554
-160.962
-173.206
-186.389
-200.652
-215.971
-232.808
-250.673
-270.705
-292.284
-312.627
-319.239
-65.9959
-73.4441
-79.9468
-87.5023
-95.3797
-103.845
-112.896
-122.596
-132.97
-144.124
-156.113
-169.063
-183.06
-198.197
-214.662
-232.486
-252.105
-273.04
-293.219
-300.457
-50.9363
-58.1872
-64.1887
-71.3301
-78.8091
-86.8546
-95.5242
-104.837
-114.841
-125.641
-137.252
-149.801
-163.403
-178.026
-194.154
-211.348
-230.561
-251.434
-272.053
-279.746
-33.5746
-40.6069
-46.4401
-53.2454
-60.4918
-68.2559
-76.6177
-85.6013
-95.2433
-105.64
-116.828
-128.968
-142.058
-156.278
-171.741
-188.407
-206.991
-226.568
-247.123
-254.969
-16.1643
-23.0734
-28.4313
-34.7743
-41.5908
-48.8833
-56.7721
-65.2926
-74.4568
-84.369
-95.0529
-106.629
-119.175
-132.722
-147.601
-163.596
-181.481
-200.378
-221.265
-229.347
2.51055
-4.05566
-9.08594
-14.9285
-21.4223
-28.3486
-35.8406
-43.9349
-52.6319
-62.041
-72.1733
-83.2104
-95.0855
-108.027
-122.103
-137.328
-154.201
-172.011
-192.209
-200.5
22.8273
15.7713
11.0326
5.67032
-0.474451
-7.0201
-14.0519
-21.676
-29.8804
-38.7518
-48.3321
-58.7367
-69.9874
-82.2203
-95.6086
-110.091
-126.218
-143.442
-163.06
-171.413
46.5817
39.3558
33.493
27.9753
21.869
15.3661
8.52393
1.20945
-6.58417
-14.9767
-23.9809
-33.7722
-44.2702
-55.7583
-68.229
-81.7912
-96.848
-112.745
-131.549
-140.26
41.7616
41.8357
40.4466
38.7848
36.1997
33.0721
30.1096
25.8479
21.875
16.2874
10.5031
3.24373
-5.58539
-15.1722
-28.9757
-42.2376
-63.7334
-84.4539
-117.682
-152.553
42.1766
42.3401
40.9526
39.2756
36.8391
33.8063
30.9914
26.8382
23.0328
17.57
11.999
4.90559
-3.65123
-12.9448
-26.4722
-39.2773
-60.6956
-80.5127
-113.376
-146.663
42.6033
42.9341
41.5188
39.8109
37.4495
34.5308
31.8621
27.8229
24.1817
18.8531
13.4926
6.58208
-1.70153
-10.7013
-23.8824
-36.0566
-57.0058
-75.7161
-108.688
-140.857
42.9934
43.3496
41.9623
40.3107
38.138
35.3024
32.7867
28.8618
25.3872
20.1957
15.0559
8.30103
0.331623
-8.41527
-21.2438
-32.9195
-53.6488
-71.4277
-103.88
-134.683
43.4171
43.7716
42.4607
40.8533
38.7767
36.0642
33.7003
29.8945
26.589
21.5325
16.6146
10.0295
2.37755
-6.13279
-18.54
-29.6728
-49.9205
-66.5312
-98.9547
-128.342
43.7666
44.1719
42.8934
41.4064
39.4964
36.8753
34.6694
30.9825
27.8474
22.9295
18.2422
11.8076
4.50166
-3.78886
-15.7348
-26.4362
-46.2661
-61.9414
-93.7062
-121.548
44.1286
44.5159
43.364
41.9168
40.1961
37.6752
35.6278
32.0658
29.1019
24.3217
19.8622
13.5902
6.62943
-1.45383
-12.9043
-23.1523
-42.3402
-56.904
-88.3319
-114.402
44.4705
44.8802
43.8472
42.4822
40.9505
38.529
36.6419
33.2046
30.4114
25.7741
21.5488
15.4289
8.83709
0.950506
-9.95446
-19.8171
-38.4081
-52.0933
-82.5333
-106.798
44.8082
45.2131
44.314
42.9826
41.6776
39.3717
37.6458
34.3407
31.7172
27.2235
23.225
17.2687
11.0405
3.34219
-6.99494
-16.4701
-34.2648
-46.8159
-76.4457
-98.6993
45.1273
45.5344
44.7687
43.5561
42.4599
40.2735
38.705
35.5318
33.0756
28.7313
24.9642
19.169
13.3211
5.80822
-3.91168
-13.0467
-30.0689
-41.7267
-70.0526
-90.1523
45.4397
45.8463
45.2116
44.0832
43.2176
41.1649
39.7561
36.7223
34.4311
30.2381
26.6907
21.0687
15.591
8.2628
-0.827
-9.62828
-25.6865
-36.1679
-63.2958
-81.1186
45.7404
46.1337
45.6614
44.671
44.0267
42.1216
40.8614
37.966
35.836
31.7997
28.4749
23.0303
17.931
10.7931
2.37412
-6.12361
-21.2172
-30.764
-56.4136
-71.5879
46.0298
46.4149
46.1087
45.23
44.8229
43.0683
41.9612
39.2106
37.2384
33.3611
30.2448
24.9901
20.2548
13.3164
5.56903
-2.63517
-16.5954
-24.9923
-48.7983
-59.3079
46.3065
46.6691
46.5626
45.8398
45.676
44.0861
43.1138
40.5067
38.6876
34.9738
32.0679
27.0125
22.6426
15.9193
8.87168
0.956255
-11.8526
-19.3128
-41.3674
-48.2619
46.5751
46.9131
47.0302
46.4335
46.5178
45.0971
44.2638
41.8056
40.1359
36.5873
33.8766
29.0325
25.0091
18.5172
12.1519
4.51714
-6.93287
-12.6369
-33.2433
-36.1692
46.832
47.135
47.4789
47.075
47.408
46.177
45.4581
43.1427
41.6158
38.2325
35.7162
31.0926
27.4078
21.1666
15.49
8.14789
-1.94747
-6.6359
-25.0056
-23.2969
47.0671
47.2922
47.933
47.7333
48.3406
47.263
46.6648
44.4975
43.112
39.9011
37.5723
33.188
29.8386
23.894
18.9055
11.8867
3.35049
-0.539138
-16.0573
-9.47148
47.3482
47.6363
48.6488
48.3864
49.3183
48.4518
47.9387
45.9241
44.6807
41.6419
39.5051
35.3713
32.3445
26.6997
22.3437
15.6376
8.50644
5.45665
-7.69232
3.779
47.4394
47.5872
48.854
48.914
50.1136
49.5007
49.0372
47.1833
46.0506
43.1453
41.1328
37.2147
34.4065
28.9953
25.0978
18.629
12.9614
10.7939
1.493
22.0507
48.2041
46.4541
48.9849
50.0592
51.3382
50.7488
50.3867
48.5746
47.55
44.835
43.0293
39.4017
36.9713
32.0804
29.0853
23.4951
20.0475
19.056
15.1325
43.6885
66.476
56.0511
62.7544
60.6583
62.9759
61.275
62.4195
61.3051
61.8819
61.0765
61.8684
60.9877
62.4589
61.9637
65.5915
65.4365
73.2935
73.726
85.6893
79.1788
67.546
64.6632
67.6016
66.233
68.2229
67.8931
69.0457
69.3601
70.5212
71.445
73.3574
75.41
79.3071
82.4637
89.0938
93.2948
104.785
109.228
133.005
141.498
82.89
82.4164
82.4676
83.0172
83.7415
84.4907
85.6817
86.7569
88.4924
90.0329
92.7253
95.1288
98.6994
101.941
107.166
111.972
119.833
126.871
139.451
146.986
86.9601
87.114
87.4501
88.1819
89.1812
90.4439
92.1285
94.0082
96.4497
99.089
102.218
105.32
109.446
113.524
119.106
124.243
131.86
137.984
147.722
153.61
94.5616
94.6571
95.5739
97.0413
98.4846
99.9894
101.762
103.457
105.625
107.632
110.219
112.823
116.022
119.312
123.19
127.23
131.815
136.453
141.589
147.861
98.5849
98.9724
99.9833
101.523
103.18
104.976
107.02
109.082
111.519
113.845
116.692
119.346
122.636
125.728
129.443
132.929
136.993
140.696
145.415
147.393
103.282
103.994
105.268
107.203
109.162
110.917
113.014
114.757
116.893
118.757
121.008
123.087
125.484
127.801
130.323
132.859
135.437
138.102
140.244
143.398
106.175
106.945
108.974
110.986
113.347
115.178
117.441
119.154
121.418
123.178
125.462
127.304
129.624
131.558
133.883
135.849
138.132
140.24
142.721
143.791
110.83
111.589
114.183
116.147
118.7
120.335
122.416
123.882
125.737
127.137
128.881
130.283
131.994
133.422
135.129
136.585
138.259
139.435
140.551
141.714
115.623
115.942
119.692
121.235
123.775
125.124
127.017
128.158
129.8
130.906
132.421
133.515
134.952
136.032
137.396
138.45
139.69
140.698
142.098
142.921
126.528
124.671
129.082
128.915
131.064
131.614
132.887
133.547
134.553
135.227
136.14
136.82
137.758
138.44
139.404
140.075
141.055
141.682
142.351
142.764
139.995
138.146
137.344
137.25
137.373
137.537
137.712
137.95
138.285
138.572
139.059
139.414
139.997
140.386
141.043
141.432
142.088
142.419
143.109
143.531
149.759
149.521
145.959
146.004
144.323
144.072
143.381
143.084
142.896
142.713
142.809
142.738
143.01
143.062
143.38
143.487
143.888
144.059
144.45
144.494
157.433
155.634
152.899
150.396
149.263
147.57
147.015
145.976
145.688
145.035
144.93
144.538
144.564
144.349
144.418
144.41
144.681
144.712
144.973
145.01
162.75
158.531
156.439
154.154
152.657
151.061
150.034
148.981
148.349
147.643
147.293
146.853
146.696
146.41
146.469
146.236
146.213
146.077
146.144
146.081
167.017
156.546
155.887
153.89
153.108
151.62
151.039
149.891
149.486
148.665
148.364
147.778
147.575
147.151
147.024
146.736
146.734
146.651
146.752
146.703
159.47
157.236
156.786
154.72
154.305
152.687
152.338
151.237
150.804
150.051
149.667
149.161
148.891
148.527
148.337
148.053
147.875
147.635
147.512
147.36
162.456
155.47
156.113
154.104
153.693
152.738
152.26
151.487
151.07
150.463
150.1
149.597
149.295
148.896
148.651
148.334
148.152
147.917
147.839
147.763
155.82
154.831
154.682
153.931
153.64
152.861
152.479
151.801
151.389
150.838
150.463
150.038
149.726
149.413
149.167
148.947
148.744
148.562
148.399
148.241
160.504
154.751
154.553
153.822
153.5
152.862
152.444
151.881
151.457
150.967
150.581
150.167
149.836
149.5
149.229
148.967
148.777
148.61
148.474
148.381
111.882
124.665
137.097