/*--------------------------------*- C++ -*----------------------------------*\
  =========                 |
  \\      /  F ield         | OpenFOAM: The Open Source CFD Toolbox
   \\    /   O peration     | Website:  https://openfoam.org
    \\  /    A nd           | Version:  9
     \\/     M anipulation  |
\*---------------------------------------------------------------------------*/
FoamFile
{
    format      ascii;
    class       volScalarField;
    location    "4.8";
    object      p;
}
// * * * * * * * * * * * * * * * * * * * * * * * * * * * * * * * * * * * * * //

dimensions      [0 2 -2 0 0 0 0];

internalField   nonuniform List<scalar> 
46400
(
-44.0006
-37.4885
-26.7265
-16.6009
-8.01248
0.171183
7.37722
14.053
20.0642
25.5724
30.6138
35.2424
39.5675
43.5661
47.3543
50.9649
54.3135
57.8998
61.6181
62.3182
-12.023
-6.7824
3.1693
12.6743
20.4953
27.9019
34.3367
40.2564
45.523
50.3015
54.6333
58.5417
62.166
65.407
68.4323
71.1971
73.7113
76.231
78.5899
78.457
18.3069
24.0033
33.1317
41.7104
48.7182
55.1971
60.7878
65.8464
70.3287
74.3342
77.9275
81.1378
84.0555
86.6971
89.0758
91.2438
93.1159
95.0239
96.5893
95.6671
49.0937
55.0629
63.1782
70.6573
76.6259
82.1543
86.8609
91.0647
94.7548
97.9812
100.866
103.346
105.588
107.495
109.209
110.676
111.933
113.172
114.166
112.916
79.6797
86.3296
92.7735
98.8925
103.735
108.148
111.921
115.211
118.097
120.554
122.721
124.557
126.167
127.538
128.703
129.665
130.415
131.146
131.711
130.11
110.262
117.057
121.644
126.34
130.124
133.445
136.328
138.755
140.865
142.589
144.061
145.248
146.227
146.99
147.588
148.023
148.279
148.548
148.687
146.939
139.035
144.21
148.139
151.483
154.432
156.879
158.979
160.693
162.13
163.249
164.13
164.759
165.211
165.486
165.636
165.636
165.502
165.314
165.252
163.324
165.511
169.569
172.8
175.405
177.535
179.208
180.553
181.542
182.291
182.779
183.074
183.162
183.088
182.857
182.519
182.089
181.542
181.007
180.603
178.655
189.182
192.633
195.234
197.175
198.737
199.814
200.59
201.013
201.211
201.158
200.932
200.544
200.027
199.377
198.622
197.775
196.825
195.884
195.064
192.93
211.445
214.233
216.247
217.586
218.554
219.047
219.211
219.081
218.724
218.154
217.4
216.513
215.514
214.423
213.251
212.015
210.689
209.393
208.191
205.913
231.331
233.517
235.047
235.84
236.363
236.359
236.11
235.497
234.72
233.74
232.621
231.361
229.995
228.559
227.048
225.493
223.848
222.22
220.656
218.171
250.24
251.923
252.921
253.154
253.142
252.69
252.005
250.96
249.671
248.184
246.556
244.82
242.993
241.118
239.199
237.265
235.282
233.334
231.455
228.842
266.161
267.166
267.743
267.512
267.034
266.157
265.137
263.911
262.507
260.914
259.145
257.233
255.188
253.06
250.857
248.618
246.329
244.067
241.883
239.052
282.484
282.716
282.7
281.979
280.976
279.489
277.837
275.979
274.023
271.935
269.766
267.507
265.178
262.792
260.355
257.899
255.395
252.921
250.516
247.605
293.522
293.412
293.067
292.178
291.15
289.781
288.164
286.282
284.232
282.02
279.691
277.261
274.749
272.176
269.544
266.888
264.181
261.497
258.888
255.821
304.529
304.447
303.604
302.384
300.768
298.932
296.832
294.552
292.14
289.601
287.009
284.336
281.647
278.902
276.158
273.38
270.595
267.804
265.129
262.004
311.055
310.993
310.288
309.263
307.857
306.086
304.091
301.828
299.384
296.787
294.072
291.285
288.429
285.547
282.631
279.717
276.78
273.867
271.102
267.87
317.585
317.163
316.138
314.736
312.898
310.836
308.545
306.087
303.505
300.778
298.005
295.12
292.237
289.288
286.368
283.434
280.523
277.641
274.961
271.842
320.728
320.278
319.308
317.808
316.113
314.078
311.934
309.555
307.053
304.386
301.63
298.756
295.837
292.849
289.857
286.84
283.828
280.825
277.998
274.749
322.101
321.379
320.537
318.846
317.164
315.008
312.761
310.245
307.637
304.899
302.089
299.225
296.322
293.392
290.447
287.493
284.526
281.563
278.739
275.586
-457.835
-456.267
-443.922
-430.478
-414.431
-398.616
-383.78
-369.586
-355.981
-343.019
-330.675
-318.825
-307.532
-296.658
-286.361
-276.387
-266.996
-257.871
-249.317
-241.152
-455.16
-453.905
-441.371
-425.112
-408.602
-392.299
-376.89
-362.413
-348.575
-335.458
-322.944
-311.022
-299.679
-288.79
-278.513
-268.53
-259.215
-250.132
-241.715
-233.591
-451.586
-450.309
-437.386
-419.169
-401.468
-384.833
-369.034
-354.236
-340.201
-326.939
-314.349
-302.383
-291.017
-280.125
-269.854
-259.935
-250.69
-241.682
-233.406
-225.357
-446.126
-444.019
-429.663
-410.857
-392.764
-375.811
-359.869
-344.896
-330.746
-317.389
-304.745
-292.735
-281.35
-270.507
-260.29
-250.444
-241.289
-232.377
-224.271
-216.304
-438.067
-435.188
-420.039
-400.651
-382.42
-365.217
-349.177
-334.14
-319.916
-306.596
-293.961
-282.029
-270.751
-260
-249.903
-240.075
-231.099
-222.292
-214.404
-206.493
-428.617
-424.863
-408.655
-388.894
-370.4
-353.124
-336.999
-321.97
-307.796
-294.473
-281.934
-270.046
-258.832
-248.204
-238.182
-228.606
-219.752
-211.095
-203.413
-195.623
-415.722
-411.313
-394.376
-374.59
-356.262
-339.123
-323.11
-308.25
-294.175
-281.073
-268.684
-257.007
-246.011
-235.589
-225.791
-216.425
-207.77
-199.332
-191.895
-184.2
-401.714
-396.492
-378.929
-359.038
-340.65
-323.69
-307.7
-293.001
-279.128
-266.163
-254.003
-242.527
-231.734
-221.536
-211.948
-202.855
-194.439
-186.239
-179.091
-171.552
-383.987
-378.188
-360.248
-340.743
-322.7
-306.105
-290.464
-276.094
-262.568
-249.95
-238.124
-226.967
-216.499
-206.619
-197.336
-188.529
-180.363
-172.45
-165.585
-158.227
-364.871
-358.463
-340.36
-321.193
-303.369
-287.178
-271.886
-257.838
-244.655
-232.369
-220.863
-210.058
-199.933
-190.4
-181.452
-173.014
-165.184
-157.603
-151.081
-143.905
-342.852
-336.04
-317.827
-299.219
-281.838
-266.177
-251.377
-237.824
-225.158
-213.324
-202.335
-191.956
-182.264
-173.141
-164.596
-156.546
-149.048
-141.843
-135.668
-128.757
-318.972
-311.834
-293.776
-275.995
-259.09
-244.03
-229.775
-216.709
-204.528
-193.195
-182.624
-172.73
-163.497
-154.836
-146.718
-139.117
-132.026
-125.244
-119.445
-112.801
-293.305
-285.969
-267.753
-250.865
-234.478
-220.036
-206.446
-193.964
-182.427
-171.638
-161.692
-152.325
-143.613
-135.447
-127.824
-120.7
-114.029
-107.69
-102.286
-95.9315
-265.996
-258.351
-239.895
-224.234
-208.687
-194.933
-182.075
-170.232
-159.307
-149.138
-139.723
-130.924
-122.763
-115.132
-108.009
-101.394
-95.1979
-89.3685
-84.4006
-78.3988
-237.393
-229.466
-211.227
-196.306
-181.684
-168.624
-156.556
-145.38
-135.153
-125.614
-116.844
-108.651
-101.052
-93.9803
-87.3955
-81.3124
-75.5973
-70.2703
-65.7076
-60.0511
-207.267
-199.023
-181.444
-167.419
-153.738
-141.412
-130.113
-119.656
-110.113
-101.229
-93.0896
-85.4894
-78.5013
-72.0002
-65.9727
-60.4239
-55.2281
-50.4492
-46.3485
-41.0536
-175.839
-167.712
-151.16
-137.812
-125.138
-113.58
-103.099
-93.3433
-84.4919
-76.2766
-68.729
-61.7533
-55.2955
-49.3522
-43.841
-38.8251
-34.1335
-29.9089
-26.2576
-21.4194
-143.69
-135.665
-120.115
-107.609
-95.9365
-85.1556
-75.5033
-66.5052
-58.3868
-50.8372
-43.9781
-37.5865
-31.7395
-26.3494
-21.3884
-16.8584
-12.653
-8.97925
-5.80439
-1.40893
-110.87
-102.671
-88.6851
-76.9722
-66.43
-56.5148
-47.6882
-39.4509
-32.001
-25.1322
-18.8251
-13.0403
-7.6783
-2.78489
1.73362
5.8563
9.6481
12.8121
15.6964
20.2462
-77.4347
-69.6998
-57.3404
-46.4607
-36.9876
-27.9346
-19.9435
-12.4596
-5.72191
0.537019
6.24516
11.5658
16.507
21.0701
25.3827
29.4725
33.2595
36.7539
40.6945
45.2882
-201.373
-157.876
-117.124
-91.5988
-66.6672
-50.1859
-34.6042
-23.4008
-13.3967
-5.76662
0.764543
6.09374
10.1006
14.077
16.7079
19.343
21.395
22.5851
23.4248
23.8628
-194.625
-153.236
-113.503
-89.0112
-64.7088
-48.751
-33.4297
-22.427
-12.6305
-5.1056
1.28062
6.54194
10.4766
14.3865
16.8174
19.5327
21.3758
22.6812
23.4752
23.7068
-187.353
-148.475
-109.722
-86.2975
-62.4844
-47.101
-32.1216
-21.4067
-11.8281
-4.39126
1.85684
7.0254
10.8751
14.6956
16.8421
19.7682
21.3535
22.8014
23.477
23.9318
-179.304
-143.136
-105.539
-83.287
-60.1278
-45.3771
-30.6748
-20.2686
-10.9003
-3.58773
2.50199
7.57872
11.3159
15.0675
16.9795
20.0036
21.2986
22.9271
23.5592
23.9418
-170.813
-137.664
-101.087
-80.2305
-57.5913
-43.4932
-29.1415
-19.0704
-9.92814
-2.73587
3.20543
8.17953
11.7995
15.5154
17.2135
20.3155
21.2675
23.2379
23.6244
24.0013
-161.404
-131.656
-96.3454
-76.9596
-54.8726
-41.4768
-27.4577
-17.7518
-8.84681
-1.79612
3.97789
8.85317
12.3403
15.9898
17.4694
20.8342
21.3281
23.5345
23.7243
24.0683
-151.655
-125.302
-91.3033
-73.5464
-52.0267
-39.3565
-25.7452
-16.3415
-7.72333
-0.80783
4.80412
9.56801
12.9084
16.4728
17.765
21.3918
21.4554
23.9477
23.8918
24.1514
-141.377
-118.239
-86.1809
-69.7212
-49.0109
-37.0556
-23.8907
-14.8058
-6.49985
0.261127
5.70011
10.3622
13.5305
16.9776
18.1713
21.9941
21.6871
24.2053
24.0032
24.253
-130.639
-110.777
-80.6628
-65.9116
-45.8755
-34.6938
-22.0265
-13.1871
-5.2151
1.36132
6.64396
11.1969
14.1916
17.6047
18.6964
22.6391
21.9001
24.482
24.1223
24.3702
-119.345
-102.881
-74.9694
-61.6715
-42.624
-32.0741
-20.0399
-11.4555
-3.82498
2.53055
7.6523
12.1111
14.9171
18.374
19.3379
23.2381
22.1319
24.7958
24.2647
24.509
-107.454
-94.6187
-69.1794
-57.2336
-39.2789
-29.424
-18.0168
-9.67709
-2.37535
3.74421
8.69408
13.0621
15.6999
19.2491
20.0796
23.8032
22.3618
25.0963
24.3822
24.6696
-95.019
-86.0029
-63.0493
-52.6261
-35.7944
-26.4749
-15.8854
-7.79491
-0.872871
5.0656
9.79358
14.08
16.5427
20.1162
20.8425
24.3506
22.5861
25.3925
24.5086
24.8003
-82.1525
-77.0822
-56.8151
-47.7947
-32.3391
-23.4775
-13.7014
-5.86037
0.663031
6.43643
10.9284
15.1317
17.4296
21.0314
21.5949
24.8919
22.7941
25.697
24.6385
24.9579
-68.5461
-67.8089
-50.3364
-42.7736
-28.6837
-20.3009
-11.4169
-3.81019
2.27019
7.88429
12.1268
16.2283
18.3711
21.9457
22.3275
25.3675
23.0363
26.0108
24.7711
25.1081
-54.5877
-58.3295
-43.8032
-37.589
-25.0301
-17.0957
-9.09807
-1.72371
3.91898
9.36514
13.3573
17.3515
19.3895
22.8255
23.0603
25.9269
23.2691
26.2784
24.8993
25.27
-39.6418
-48.3624
-37.1003
-32.2659
-21.2495
-13.7737
-6.69051
0.420332
5.62976
10.8956
14.6357
18.4917
20.4389
23.6993
23.7851
26.5691
23.4896
26.6318
24.9797
25.4424
-24.5627
-37.9729
-30.1107
-26.5971
-17.2954
-10.3135
-4.16057
2.64916
7.41484
12.4934
15.9709
19.6847
21.5597
24.6344
24.6292
27.32
23.7353
26.8353
25.0412
25.562
-9.93349
-28.4364
-23.5226
-21.0346
-13.3074
-6.7849
-1.54544
4.95808
9.27847
14.1628
17.3683
20.9242
22.7159
25.6372
25.5503
28.103
23.9516
27.315
25.1721
26.0205
9.35696
-17.5944
-17.3018
-16.4363
-10.0341
-3.86602
0.588837
6.84306
10.8098
15.5768
18.5813
21.9806
23.743
26.5152
26.3692
28.7183
24.1411
27.0953
24.9878
25.9209
32.1383
-0.489032
-7.54952
-8.58627
-4.69314
0.510764
3.85607
9.55862
13.0425
17.4686
20.1786
23.2905
24.9855
27.6108
27.5023
29.7712
24.9867
26.7585
23.9149
26.5956
73.7874
73.3807
51.0201
49.23
36.7222
38.0635
33.0135
34.2172
32.7014
34.2713
34.1094
36.1569
36.2976
37.9932
37.7862
39.7931
38.4107
42.534
28.7794
48.1831
117.723
107.58
84.2647
77.5005
65.0629
60.7921
54.7104
52.4273
49.2498
47.9518
46.3471
45.5333
44.616
44.4954
43.9338
44.4334
43.8249
45.1128
42.9174
45.6983
129.711
118.407
105.259
96.5986
87.3792
81.0908
75.1435
71.1712
67.5875
65.1581
63.0004
61.6958
60.3083
59.5143
58.4519
58.3951
57.2828
57.6013
56.8412
57.5408
131.536
123.011
113.363
105.578
98.1076
92.418
86.8063
82.4201
78.3017
75.0077
72.059
69.4517
67.4806
65.6261
64.3467
62.9994
62.2961
61.511
61.2641
61.2709
128.629
121.682
115.615
109.719
104.42
99.4151
95.0858
91.0614
87.6365
84.4615
81.7837
79.2605
77.0747
75.113
73.2108
71.6713
69.9606
69.1465
68.3022
68.3154
126.514
121.891
117.604
112.658
108.449
104.145
100.33
96.632
93.3181
90.2083
87.365
84.7777
82.3642
80.0797
78.1157
75.9555
74.4062
72.5097
71.8972
71.8099
123.735
120.145
116.844
113.416
110.299
107.054
104.102
101.181
98.4567
95.8612
93.3688
90.9529
88.7264
86.5212
84.4216
82.2831
80.2896
78.2871
77.0735
76.7553
122.563
120.039
117.831
115.171
112.272
109.697
107.049
104.564
102.024
99.6958
97.3189
95.2235
92.9245
90.8382
88.7
86.3842
84.4469
81.8102
80.4528
79.8731
121.529
119.602
117.626
115.481
113.736
111.703
109.763
107.846
105.863
103.955
101.902
100.019
97.9045
96.1256
93.9215
92.034
89.6332
87.558
85.734
85.0436
121.394
120.065
118.649
117.255
115.593
113.907
112.159
110.605
108.889
107.443
105.716
104.342
102.459
101.022
98.9004
97.4418
94.9447
93.5181
90.9218
90.6063
121.771
120.785
119.623
118.473
117.275
116.196
114.955
113.735
112.392
111.221
109.773
108.707
107.145
106.196
104.387
103.49
101.059
100.465
97.6385
97.4812
122.488
121.774
120.89
120.147
119.263
118.402
117.432
116.633
115.668
114.948
113.962
113.282
112.215
111.579
110.307
109.832
107.859
108.034
104.311
105.539
123.539
123.036
122.367
121.817
121.136
120.598
119.954
119.423
118.837
118.361
117.896
117.509
117.18
116.904
116.666
116.535
116.307
116.423
116.795
118.753
124.662
124.331
123.869
123.547
123.129
122.847
122.487
122.311
122.031
121.994
121.864
121.98
122.109
122.373
122.946
123.333
124.649
125.067
127.7
128.764
125.709
125.497
125.203
125.03
124.791
124.7
124.543
124.57
124.533
124.76
124.879
125.366
125.704
126.51
127.184
128.318
129.652
131.103
134.057
134.995
126.859
126.756
126.606
126.572
126.506
126.583
126.627
126.871
127.057
127.487
127.847
128.536
129.12
130.154
131.054
132.685
133.904
136.315
137.977
140.743
127.627
127.563
127.494
127.554
127.582
127.752
127.89
128.227
128.467
129.009
129.392
130.22
130.745
131.968
132.745
134.303
135.23
137.43
138.363
148.882
128.443
128.509
128.578
128.655
128.765
128.992
129.236
129.623
130.018
130.619
131.161
132.013
132.7
133.868
134.589
136.192
137.014
139.158
140.245
143.477
128.91
128.893
128.888
129.049
129.235
129.519
129.794
130.229
130.62
131.225
131.765
132.567
133.254
134.259
135.033
136.337
137.097
138.533
138.868
146.444
129.044
129.093
129.225
129.389
129.59
129.878
130.221
130.649
131.146
131.753
132.384
133.198
133.964
135.023
135.895
137.268
138.185
139.984
140.787
143.23
237.483
236.391
234.506
232.254
229.041
225.392
220.78
215.855
209.86
203.627
196.477
188.703
180.335
171.215
162.03
151.574
140.551
129.433
117.902
105.737
210.571
209.747
208.646
207.225
205.482
203.494
201.124
198.542
195.587
192.4
188.842
183.823
178.192
174.247
169.707
165.089
160.102
154.982
149.296
143.007
171.543
171.028
170.377
169.611
168.697
167.689
166.483
165.253
163.741
162.294
160.46
158.755
156.849
155.036
152.762
150.757
148.166
145.938
142.972
140.729
159.778
159.303
158.785
158.204
157.556
156.862
156.072
155.238
154.278
153.286
152.123
151.017
149.709
148.504
147.034
145.743
144.103
142.748
140.89
139.208
143.732
143.435
143.105
142.733
142.316
141.872
141.369
140.865
140.285
139.743
139.099
138.509
137.778
137.139
136.289
135.597
134.667
133.929
132.884
132.135
138.434
138.162
137.862
137.547
137.203
136.844
136.456
136.051
135.615
135.15
134.634
134.117
133.536
132.982
132.335
131.758
131.019
130.429
129.632
129.033
131.999
131.79
131.567
131.32
131.059
130.777
130.477
130.162
129.822
129.48
129.112
128.757
128.365
127.991
127.563
127.17
126.718
126.323
125.805
125.404
129.621
129.426
129.213
128.996
128.759
128.518
128.26
127.995
127.716
127.43
127.128
126.815
126.475
126.14
125.773
125.422
125.026
124.659
124.23
123.858
127.071
126.927
126.772
126.606
126.429
126.24
126.04
125.83
125.607
125.377
125.132
124.885
124.625
124.364
124.085
123.807
123.503
123.198
122.855
122.54
126.189
126.036
125.875
125.709
125.523
125.31
125.079
124.865
124.645
124.435
124.226
124.019
123.803
123.577
123.341
123.102
122.861
122.626
122.381
122.142
125.776
125.669
125.554
125.431
125.299
125.163
125.015
124.855
124.686
124.508
124.321
124.129
123.93
123.727
123.522
123.309
123.093
122.871
122.649
122.421
125.943
125.832
125.716
125.595
125.47
125.34
125.206
125.067
124.925
124.777
124.626
124.468
124.306
124.139
123.967
123.789
123.61
123.417
123.227
123.022
126.157
126.07
125.986
125.895
125.803
125.704
125.604
125.498
125.389
125.275
125.159
125.037
124.914
124.784
124.654
124.515
124.38
124.23
124.093
123.931
126.901
126.817
126.731
126.643
126.553
126.461
126.367
126.27
126.173
126.072
125.972
125.867
125.763
125.653
125.546
125.432
125.322
125.202
125.091
124.965
127.374
127.308
127.241
127.173
127.104
127.033
126.962
126.888
126.815
126.739
126.664
126.585
126.508
126.426
126.348
126.262
126.183
126.093
126.014
125.919
128.239
128.164
128.091
128.019
127.949
127.88
127.812
127.744
127.678
127.612
127.548
127.484
127.422
127.358
127.299
127.236
127.179
127.115
127.06
126.996
128.563
128.533
128.502
128.47
128.434
128.394
128.348
128.3
128.252
128.205
128.16
128.114
128.069
128.022
127.971
127.916
127.869
127.817
127.775
127.725
129.242
129.172
129.103
129.037
128.974
128.917
128.867
128.819
128.771
128.723
128.677
128.631
128.59
128.554
128.526
128.508
128.496
128.481
128.473
128.46
129.497
129.439
129.385
129.333
129.285
129.241
129.2
129.163
129.132
129.104
129.08
129.058
129.039
129.021
129.007
128.988
128.97
128.954
128.94
128.93
129.727
129.676
129.626
129.576
129.528
129.483
129.438
129.396
129.356
129.318
129.282
129.249
129.219
129.19
129.164
129.14
129.117
129.096
129.077
129.063
76.3869
73.5704
67.7776
62.6426
57.4357
51.8877
46.0659
39.8757
33.2492
26.11
18.4118
10.0096
0.901209
-9.09019
-19.9375
-31.8668
-45.1255
-59.2583
-76.206
-84.2539
88.808
87.2443
83.2555
79.2549
75.0649
70.4586
65.4756
60.0762
54.215
47.8274
40.875
33.2309
24.9069
15.7244
5.73044
-5.38542
-17.5737
-30.862
-46.8087
-54.7536
103.95
103.285
100.059
96.6771
93.0846
89.0874
84.7386
79.9966
74.8202
69.1675
62.9923
56.1785
48.7457
40.5082
31.5309
21.4835
10.4396
-1.69684
-16.3578
-24.8329
119.281
118.964
116.288
113.582
110.679
107.41
103.795
99.8167
95.4237
90.5642
85.1786
79.1864
72.606
65.2739
57.2611
48.196
38.4295
27.3639
14.4349
6.11285
135.011
135.148
133.099
130.934
128.599
125.904
122.895
119.546
115.797
111.625
106.978
101.798
96.0819
89.6663
82.6009
74.594
65.87
55.9222
44.474
37.2359
150.488
150.899
149.252
147.614
145.823
143.727
141.36
138.684
135.66
132.239
128.371
123.996
119.101
113.538
107.363
100.252
92.5636
83.5121
73.4021
67.4405
165.976
166.666
165.446
164.312
163.03
161.475
159.663
157.587
155.165
152.396
149.211
145.582
141.458
136.714
131.369
125.183
118.321
110.229
100.796
95.6042
180.369
181.254
180.554
179.887
179.125
178.134
176.93
175.486
173.75
171.706
169.28
166.443
163.126
159.247
154.807
149.527
143.653
136.449
127.878
122.692
194.083
195.334
195.161
195.009
194.76
194.301
193.634
192.762
191.621
190.206
188.442
186.324
183.77
180.724
177.135
172.829
167.951
161.86
154.615
148.958
207.01
208.458
208.708
208.976
209.171
209.213
209.098
208.829
208.33
207.608
206.549
205.192
203.401
201.229
198.531
195.252
191.403
186.42
180.923
174.945
218.821
220.581
221.323
222.073
222.782
223.356
223.791
224.049
224.083
223.869
223.403
222.679
221.637
220.249
218.391
216.065
213.145
209.491
205.228
199.748
229.54
231.617
232.778
233.974
235.103
236.116
236.964
237.68
238.193
238.575
238.731
238.715
238.356
237.723
236.622
235.177
233.149
230.632
227.416
223.244
239.962
242.296
243.69
245.175
246.637
247.99
249.23
250.372
251.388
252.28
252.977
253.458
253.663
253.6
253.184
252.431
251.211
249.536
247.138
243.902
249.047
251.448
253.114
254.876
256.62
258.28
259.869
261.397
262.812
264.126
265.239
266.22
266.914
267.445
267.555
267.451
266.773
265.798
264.086
261.571
256.599
259.142
261.091
263.154
265.22
267.247
269.229
271.16
272.984
274.691
276.239
277.628
278.773
279.716
280.351
280.764
280.672
280.26
279.06
277.169
262.82
265.601
267.883
270.253
272.623
274.918
277.162
279.32
281.381
283.349
285.192
286.908
288.43
289.8
290.883
291.735
292.038
292.102
291.365
290.06
268.319
271.185
273.553
276.064
278.569
281.05
283.5
285.935
288.304
290.639
292.843
294.963
296.846
298.588
299.945
301.085
301.753
302.281
302.014
301.418
272.093
275.107
277.688
280.408
283.137
285.839
288.522
291.158
293.729
296.197
298.531
300.742
302.761
304.641
306.233
307.701
308.782
309.739
309.919
310.045
274.541
277.605
280.265
283.082
285.903
288.707
291.492
294.247
296.948
299.587
302.15
304.623
307.002
309.232
311.286
313.123
314.649
315.788
316.431
316.604
276.29
279.45
282.168
285.076
287.988
290.908
293.788
296.674
299.479
302.274
304.948
307.573
310.012
312.325
314.352
316.156
317.512
318.668
319.318
319.324
-135.643
-140.299
-145.212
-150.286
-155.352
-160.714
-165.983
-171.567
-177.069
-182.827
-188.541
-194.483
-200.427
-206.253
-211.963
-217.096
-220.998
-220.611
-221.161
-221.23
-131.128
-135.981
-141.069
-146.402
-151.708
-157.378
-162.985
-168.878
-174.822
-180.915
-187.174
-193.614
-200.027
-206.69
-212.828
-218.84
-223.676
-225.123
-225.95
-225.756
-126.79
-131.864
-137.122
-142.747
-148.315
-154.306
-160.262
-166.577
-172.928
-179.555
-186.28
-193.16
-200.308
-207.369
-214.805
-221.696
-227.617
-231.923
-231.77
-232.231
-122.187
-127.496
-132.949
-138.876
-144.746
-151.097
-157.466
-164.182
-171.083
-178.226
-185.635
-193.281
-201.166
-209.213
-217.532
-225.617
-233.474
-239.636
-239.88
-240.891
-117.481
-123.04
-128.672
-134.895
-141.071
-147.776
-154.574
-161.79
-169.22
-177.014
-185.12
-193.568
-202.378
-211.662
-221.124
-231.111
-241.149
-249.388
-252.316
-253.105
-112.257
-118.058
-123.866
-130.372
-136.845
-143.9
-151.113
-158.766
-166.773
-175.19
-184.062
-193.383
-203.272
-213.702
-224.646
-236.433
-248.95
-259.739
-266.376
-267.644
-106.535
-112.569
-118.526
-125.274
-132.029
-139.392
-146.994
-155.083
-163.568
-172.547
-182.059
-192.144
-202.879
-214.295
-226.608
-239.882
-254.096
-267.095
-278.524
-279.828
-100.09
-106.338
-112.394
-119.332
-126.292
-133.91
-141.827
-150.265
-159.202
-168.695
-178.805
-189.556
-201.06
-213.342
-226.643
-240.805
-255.869
-270.863
-286.388
-288.438
-92.9238
-99.3289
-105.343
-112.519
-119.612
-127.402
-135.562
-144.269
-153.52
-163.386
-173.955
-185.254
-197.42
-210.533
-224.679
-240.08
-256.562
-274.699
-288.901
-291.773
-84.6416
-91.1325
-97.2035
-104.366
-111.589
-119.458
-127.782
-136.68
-146.172
-156.34
-167.227
-178.896
-191.502
-205.021
-219.743
-235.823
-253.31
-271.878
-287.682
-292.769
-75.6887
-82.2045
-88.1819
-95.26
-102.508
-110.386
-118.758
-127.721
-137.311
-147.607
-158.698
-170.611
-183.507
-197.388
-212.554
-229.037
-246.534
-265.978
-282.992
-286.669
-65.0954
-71.5948
-77.4447
-84.4376
-91.6379
-99.4543
-107.82
-116.798
-126.417
-136.781
-147.918
-159.915
-172.906
-186.902
-202.297
-218.844
-237.072
-257.287
-275.438
-280.164
-53.1095
-59.7914
-65.5549
-72.4428
-79.6015
-87.3373
-95.6323
-104.526
-114.083
-124.383
-135.491
-147.467
-160.439
-174.422
-189.76
-206.169
-224.152
-244.123
-262.841
-268.276
-39.3437
-46.0317
-51.8608
-58.6536
-65.7476
-73.3592
-81.5305
-90.3086
-99.7216
-109.891
-120.839
-132.68
-145.504
-159.415
-174.684
-190.946
-209.483
-228.885
-247.634
-254.347
-26.4816
-33.0046
-38.3575
-44.7573
-51.5071
-58.7786
-66.6416
-75.1052
-84.238
-94.1253
-104.813
-116.373
-128.939
-142.556
-157.461
-173.619
-191.588
-210.464
-228.756
-235.841
-10.5694
-16.9138
-22.1922
-28.3298
-34.9322
-41.9968
-49.6298
-57.8666
-66.7255
-76.3216
-86.6636
-97.8928
-110.061
-123.291
-137.816
-153.393
-170.858
-189.693
-208.821
-216.095
4.65305
-1.67876
-6.51113
-12.2199
-18.4379
-25.0911
-32.3154
-40.1315
-48.5752
-57.7369
-67.6483
-78.3944
-90.0698
-102.77
-116.627
-131.611
-148.398
-165.931
-185.005
-192.381
21.8718
15.9581
11.3583
6.052
0.0999446
-6.26039
-13.1549
-20.6353
-28.7004
-37.4507
-46.8906
-57.1709
-68.3239
-80.4837
-93.7701
-108.144
-124.134
-141.098
-160.424
-168.011
40.3667
33.8558
29.3876
24.4363
18.7506
12.6861
6.16403
-0.907569
-8.53807
-16.8047
-25.7362
-35.4456
-45.9741
-57.4579
-69.9611
-83.5453
-98.68
-114.728
-133.129
-140.938
62.4681
55.791
50.1546
45.0056
39.3178
33.2545
26.8833
20.0767
12.8008
4.96728
-3.44605
-12.6031
-22.5204
-33.3701
-45.1799
-58.0668
-72.3729
-87.6723
-105.587
-113.472
47.0694
47.3379
45.9499
44.6333
42.5079
39.8075
37.4947
33.9938
30.864
26.3148
21.6982
15.7819
8.54963
0.788239
-10.8169
-21.3792
-39.6755
-56.17
-84.0259
-112.349
47.3765
47.7091
46.3436
45.0472
43.0656
40.4366
38.271
34.8874
31.906
27.4887
23.0531
17.311
10.3319
2.84262
-8.51865
-18.7067
-37.0064
-52.7487
-80.4031
-107.1
47.6841
48.1856
46.8199
45.4363
43.5986
41.0605
39.0338
35.7754
32.9388
28.6701
24.4305
18.8593
12.1239
4.89539
-6.12138
-15.7244
-33.5479
-48.3224
-76.0062
-102.146
47.9848
48.4615
47.1897
45.8546
44.1832
41.7092
39.8373
36.7075
34.0191
29.8869
25.8393
20.4343
13.9832
7.017
-3.72605
-12.9031
-30.5651
-44.5859
-72.0221
-96.8045
48.2301
48.7985
47.5646
46.2228
44.7682
42.3508
40.6261
37.6353
35.0901
31.1125
27.2657
22.0247
15.8507
9.12153
-1.27862
-9.93089
-27.2039
-40.2671
-67.555
-91.5133
48.4062
48.9502
47.8925
46.615
45.3736
43.0292
41.4566
38.61
36.2086
32.3754
28.7253
23.6465
17.7884
11.2795
1.25906
-6.99548
-23.9542
-36.1495
-63.143
-85.8605
48.5924
49.1175
48.209
46.9456
45.961
43.6825
42.2731
39.5818
37.3184
33.6467
30.1983
25.2816
19.7268
13.4136
3.81129
-4.04808
-20.5023
-31.7967
-58.5765
-79.8531
48.7532
49.3133
48.5057
47.3254
46.6033
44.3839
43.1348
40.6033
38.4752
34.9579
31.705
26.9531
21.7355
15.6148
6.47178
-1.0351
-16.9874
-27.5319
-53.7853
-73.4447
48.8997
49.4464
48.8073
47.6492
47.2213
45.1195
43.9881
41.6218
39.6237
36.2763
33.2203
28.6362
23.7408
17.795
9.12814
1.95055
-13.3742
-23.0757
-48.621
-66.7348
49.027
49.5446
49.1515
48.0103
47.8757
45.8275
44.9013
42.6901
40.8182
37.6361
34.7687
30.3594
25.8136
20.0425
11.8945
5.02242
-9.66256
-18.6533
-43.2545
-59.5386
49.1456
49.6316
49.5405
48.3178
48.5187
46.5212
45.7847
43.7531
42.0044
39.0021
36.3212
32.0937
27.8818
22.2768
14.6564
8.06871
-5.85841
-14.04
-37.5257
-52.0887
49.2587
49.7607
49.887
48.6629
49.2158
47.3127
46.7299
44.8634
43.2352
40.4086
37.9045
33.8701
30.0111
24.5739
17.5138
11.1901
-1.96217
-9.43484
-31.6809
-43.4028
49.3706
49.8313
50.1938
48.9858
49.8808
48.0995
47.657
45.9684
44.4578
41.8198
39.4881
35.658
32.1358
26.8672
20.372
14.3031
2.06393
-4.12994
-25.13
-32.2652
49.4594
49.8627
50.5374
49.3353
50.6194
48.953
48.6418
47.1211
45.725
43.2713
41.1022
37.4917
34.3183
29.2231
23.3113
17.4697
6.12372
1.17274
-18.7626
-22.9206
49.5537
49.9057
50.8937
49.6684
51.3263
49.8176
49.6108
48.2626
46.9808
44.7231
42.7096
39.3356
36.4914
31.5738
26.2343
20.5965
10.3756
6.95127
-11.6594
-12.3419
49.64
49.9193
51.2339
50.0474
52.0985
50.7509
50.6277
49.4396
48.2696
46.1992
44.3314
41.2104
38.6979
33.9645
29.1931
23.7343
14.589
11.8037
-4.46663
-1.12323
49.7555
49.9107
51.6297
50.4403
52.8925
51.7189
51.674
50.6391
49.59
47.7118
45.9969
43.141
40.9593
36.4421
32.2499
27.0112
19.1523
17.0179
3.46094
11.1151
49.9348
50.0399
52.4854
50.8095
53.752
52.7651
52.744
51.8799
50.9374
49.263
47.6802
45.1368
43.2649
38.9397
35.2194
30.1225
23.3741
21.8369
10.7393
22.8081
49.8846
49.7612
52.5536
51.0485
54.3717
53.6259
53.5105
52.8817
51.9897
50.5418
49.0153
46.846
45.1835
40.9674
37.5217
32.4747
26.8664
26.2112
19.1781
39.717
50.8099
48.4413
52.6076
52.0781
55.5846
54.8794
54.986
54.2632
53.6127
52.1722
50.9296
48.8791
47.6501
43.826
41.3453
37.0576
33.3993
33.8493
31.7723
59.7669
73.3707
53.6718
67.947
64.5238
68.3313
66.1977
68.7214
67.2081
68.9663
67.8332
69.7716
68.7164
71.0373
70.7097
75.6027
76.4602
84.8007
85.9102
96.1721
88.4936
71.3868
68.4626
71.5365
69.8075
72.3855
71.8619
73.712
73.8834
75.6879
76.4995
78.9529
80.8795
85.1081
88.35
95.0793
98.366
109.653
114.429
134.232
142.184
83.6308
83.1673
83.5632
84.029
85.0514
85.8247
87.1171
88.2423
89.957
91.5067
94.1078
96.4439
99.8324
102.756
107.62
111.756
119.408
125.004
136.372
143.208
86.8815
87.0244
87.2713
88.0677
89.0254
90.3137
91.8635
93.6937
96.0021
98.5252
101.452
104.32
108.111
111.858
116.972
121.478
128.237
133.103
141.567
145.749
92.6289
92.9527
93.5208
94.9693
96.0837
97.5086
99.0339
100.592
102.53
104.342
106.665
108.975
111.865
114.693
118.107
121.482
125.542
129.321
133.87
138.851
95.1851
95.4316
96.094
97.6654
98.9242
100.742
102.426
104.414
106.518
108.648
111.134
113.455
116.289
118.882
122.13
124.921
128.363
131.356
134.338
137.353
97.6284
98.059
99.2171
101.012
102.802
104.445
106.291
107.884
109.721
111.374
113.278
115.055
117.047
118.961
120.998
122.986
125.028
126.969
128.889
130.961
99.3821
100.012
101.485
103.438
105.401
107.146
109.078
110.664
112.612
114.161
116.108
117.648
119.58
121.121
122.977
124.493
126.116
127.889
129.037
130.633
101.871
102.593
104.688
106.549
108.781
110.337
112.203
113.527
115.18
116.375
117.882
119.003
120.407
121.466
122.786
123.76
124.985
125.581
126.304
126.877
104.974
105.526
108.265
109.646
112.053
113.321
115.164
116.233
117.785
118.736
120.095
120.947
122.154
122.905
123.953
124.568
125.43
125.984
126.812
126.997
110.744
110.743
114.12
115.066
117.044
117.93
119.311
120.014
121.104
121.697
122.608
123.127
123.906
124.356
125.03
125.411
125.97
126.12
126.384
126.393
118.115
116.782
120.248
119.699
121.647
121.682
122.795
122.968
123.764
123.978
124.665
124.831
125.423
125.573
126.042
126.11
126.486
126.54
126.838
126.857
130.525
129.09
128.023
128.088
127.846
127.932
127.797
127.804
127.802
127.768
127.815
127.768
127.842
127.781
127.885
127.803
127.94
127.75
127.82
127.502
137.933
137.534
134.106
133.973
132.427
131.864
131.252
130.634
130.381
129.831
129.689
129.251
129.168
128.829
128.747
128.49
128.556
128.262
128.213
127.947
143.81
143.074
140.445
139
137.57
136.184
135.204
134.193
133.527
132.763
132.317
131.725
131.378
130.931
130.621
130.199
129.851
129.405
129.209
128.767
149.731
146.131
144.137
141.511
140.3
138.484
137.529
136.063
135.368
134.238
133.685
132.837
132.324
131.727
131.172
130.863
130.527
130.179
130.007
129.635
151.3
147.383
146.033
143.135
142.051
140.008
139.161
137.72
136.913
135.881
135.191
134.413
133.878
133.297
132.924
132.079
131.746
131.147
130.775
130.335
153.909
145.411
144.859
142.593
141.883
140.194
139.459
138.096
137.482
136.348
135.793
134.86
134.343
133.521
133.111
132.399
132.065
131.464
131.163
130.708
147.734
145.512
145.133
142.537
141.963
140.376
139.815
138.56
137.914
136.895
136.257
135.415
134.853
134.132
133.631
132.983
132.556
132.015
131.664
131.189
150.85
147.025
148.143
141.555
141.367
140.285
139.645