/*--------------------------------*- C++ -*----------------------------------*\
  =========                 |
  \\      /  F ield         | OpenFOAM: The Open Source CFD Toolbox
   \\    /   O peration     | Website:  https://openfoam.org
    \\  /    A nd           | Version:  9
     \\/     M anipulation  |
\*---------------------------------------------------------------------------*/
FoamFile
{
    format      ascii;
    class       volVectorField;
    location    "4.8";
    object      U;
}
// * * * * * * * * * * * * * * * * * * * * * * * * * * * * * * * * * * * * * //

dimensions      [0 1 -1 0 0 0 0];

internalField   nonuniform List<vector> 
46400
(
(8.72397 -8.31014 -1.65331e-19)
(16.5613 -16.2011 1.26514e-19)
(17.2077 -17.4969 -4.10022e-20)
(16.4062 -17.5844 -3.43343e-20)
(15.8404 -17.6589 -3.18756e-20)
(15.2388 -17.7771 -1.37313e-20)
(14.7018 -17.8967 -1.3801e-20)
(14.1559 -17.9545 2.44643e-20)
(13.6228 -18.0156 -2.90431e-20)
(13.1442 -18.0801 3.30376e-20)
(12.6583 -18.136 -3.65099e-20)
(12.2741 -18.2628 0)
(11.8223 -18.3046 2.3355e-19)
(11.4308 -18.3709 -2.71421e-19)
(11.0867 -18.4916 -3.62593e-19)
(10.728 -18.5272 -7.03818e-20)
(10.356 -18.5702 -2.16265e-20)
(10.0266 -18.5641 2.93222e-19)
(9.70061 -18.5525 4.17714e-19)
(9.26226 -18.7523 -3.80986e-19)
(8.95131 -7.80508 0)
(16.5286 -15.0029 -2.71069e-20)
(16.9458 -16.0356 0)
(16.1996 -16.229 6.22553e-20)
(15.6381 -16.3542 -6.29852e-20)
(15.0216 -16.4848 1.3098e-20)
(14.4777 -16.6403 0)
(13.9626 -16.7528 -2.44643e-20)
(13.4287 -16.87 2.9043e-20)
(12.9551 -16.943 -3.30378e-20)
(12.4746 -17.0538 4.24249e-19)
(12.0783 -17.1509 2.5396e-20)
(11.6914 -17.308 -3.58219e-19)
(11.3033 -17.3518 0)
(10.9442 -17.5027 4.65324e-20)
(10.6059 -17.5744 4.83497e-20)
(10.2566 -17.6657 0)
(9.97614 -17.7259 -4.9001e-19)
(9.69122 -17.7719 -1.24273e-19)
(9.32065 -17.9852 4.88755e-19)
(9.25748 -7.32241 3.87682e-20)
(16.3475 -13.6764 -1.35938e-19)
(16.6952 -14.6771 1.1199e-19)
(15.8919 -14.8178 1.74973e-19)
(15.3 -15.013 -1.71788e-19)
(14.7247 -15.1949 0)
(14.188 -15.4237 -5.31989e-19)
(13.6827 -15.5641 4.56294e-19)
(13.1575 -15.7359 -5.85529e-19)
(12.7074 -15.8688 5.7891e-19)
(12.2237 -16.0074 5.44965e-19)
(11.8396 -16.1632 -5.70744e-20)
(11.431 -16.3191 -4.69334e-19)
(11.0305 -16.3978 0)
(10.6873 -16.5417 5.79739e-19)
(10.3785 -16.6847 -5.70937e-19)
(10.0344 -16.7875 0)
(9.74 -16.8578 -1.41892e-20)
(9.46569 -16.9752 6.52995e-20)
(9.08342 -17.2172 -6.08349e-19)
(9.60622 -6.94271 -1.59771e-19)
(16.0324 -12.3644 3.8597e-20)
(16.2016 -13.2553 2.62564e-19)
(15.4499 -13.4787 -2.58976e-19)
(14.8752 -13.706 -2.15998e-19)
(14.2826 -13.912 2.96281e-19)
(13.7517 -14.181 3.93871e-19)
(13.2816 -14.396 -9.9016e-19)
(12.7583 -14.5814 8.2558e-19)
(12.3134 -14.7556 -7.50306e-20)
(11.8393 -14.9065 0)
(11.4469 -15.0712 7.77361e-20)
(11.1124 -15.316 -7.86403e-20)
(10.7678 -15.4732 0)
(10.4001 -15.6191 7.06942e-19)
(10.1014 -15.7815 -6.01086e-19)
(9.79812 -15.961 0)
(9.51093 -16.0576 7.99706e-20)
(9.24574 -16.1893 9.18097e-20)
(8.89723 -16.4742 7.16402e-19)
(9.96584 -6.53611 0)
(15.5638 -11.1087 0)
(15.6554 -11.918 -3.766e-19)
(14.9311 -12.1949 2.61925e-19)
(14.3283 -12.4849 -4.88275e-19)
(13.7756 -12.6981 3.95411e-19)
(13.2558 -13.0107 0)
(12.8323 -13.273 4.20385e-19)
(12.3413 -13.5253 -5.07511e-19)
(11.9394 -13.7369 -1.14586e-19)
(11.4951 -13.9605 -1.14264e-19)
(11.0874 -14.09 0)
(10.7104 -14.3379 8.41612e-19)
(10.3601 -14.4988 -8.28444e-19)
(10.0225 -14.7126 0)
(9.71429 -14.8614 -9.18607e-19)
(9.41261 -15.0745 8.11189e-19)
(9.14889 -15.2139 8.07701e-19)
(8.88204 -15.3795 -8.80034e-19)
(8.52947 -15.6722 0)
(10.2788 -6.16142 0)
(14.9429 -9.94052 0)
(14.8273 -10.6308 0)
(14.1701 -10.9296 -2.54471e-20)
(13.6647 -11.3304 0)
(13.1338 -11.5877 0)
(12.5967 -11.8924 0)
(12.1921 -12.2004 -1.34891e-19)
(11.7215 -12.4862 0)
(11.3113 -12.7265 1.1458e-19)
(10.9092 -13.0126 -1.77353e-20)
(10.5162 -13.181 -1.11323e-18)
(10.1771 -13.4296 8.37809e-19)
(9.89062 -13.6698 -1.08949e-18)
(9.55561 -13.8773 8.21218e-19)
(9.27747 -14.0831 0)
(8.99171 -14.2983 -9.25803e-19)
(8.72379 -14.461 7.91543e-19)
(8.48782 -14.6366 0)
(8.17733 -14.9735 -1.22582e-19)
(10.3677 -5.83829 5.06513e-19)
(14.1978 -8.74723 1.56571e-19)
(14.0286 -9.48704 5.90583e-19)
(13.5108 -9.83593 -6.03692e-19)
(12.9553 -10.2213 -5.91623e-19)
(12.4784 -10.5124 1.17061e-18)
(11.9817 -10.833 -1.32104e-18)
(11.5958 -11.1402 1.29228e-19)
(11.1814 -11.4649 4.19331e-19)
(10.7949 -11.7053 0)
(10.4449 -12.0487 -1.67091e-20)
(10.1006 -12.2908 -1.59766e-20)
(9.70693 -12.5079 1.2915e-19)
(9.38744 -12.7205 1.06665e-18)
(9.08828 -12.9786 -9.38729e-19)
(8.79411 -13.1682 -1.1861e-18)
(8.53121 -13.4233 1.0328e-18)
(8.29931 -13.6416 -1.24676e-20)
(8.03213 -13.7966 -1.30546e-19)
(7.70855 -14.1321 -9.18998e-19)
(10.22 -5.32765 -1.61627e-19)
(13.364 -7.71597 2.41773e-20)
(13.0621 -8.35213 -1.81392e-19)
(12.5437 -8.76083 -7.05248e-19)
(12.1345 -9.26558 4.91963e-19)
(11.7005 -9.60201 0)
(11.1985 -9.9455 9.94383e-19)
(10.8267 -10.2695 -4.8018e-19)
(10.4386 -10.6331 3.22386e-19)
(10.0314 -10.8561 1.67199e-19)
(9.64783 -11.1593 -3.14265e-19)
(9.36474 -11.4718 7.63914e-19)
(9.0694 -11.7893 1.58877e-19)
(8.78334 -12.0228 -8.94983e-19)
(8.48995 -12.283 2.50036e-18)
(8.23705 -12.5013 -1.01691e-18)
(7.9441 -12.7181 1.27839e-18)
(7.73293 -12.9315 -8.3632e-19)
(7.54633 -13.1704 2.73073e-19)
(7.24164 -13.45 1.29155e-18)
(9.93328 -4.76709 8.58013e-19)
(12.4332 -6.65231 -1.80997e-19)
(12.1425 -7.32097 -2.14183e-20)
(11.7007 -7.70366 3.81018e-19)
(11.2759 -8.22764 1.78766e-19)
(10.9018 -8.65253 1.95451e-19)
(10.4478 -9.01902 -9.1117e-19)
(10.0689 -9.36592 5.51366e-19)
(9.75757 -9.78982 -1.69846e-19)
(9.42944 -10.098 -1.67211e-19)
(9.04021 -10.3556 -1.64496e-19)
(8.7217 -10.6109 -1.75756e-19)
(8.42833 -10.9326 -3.312e-19)
(8.176 -11.215 1.14369e-18)
(7.90976 -11.508 -1.59841e-18)
(7.67816 -11.7535 -1.622e-19)
(7.43924 -12.0292 1.13643e-20)
(7.18965 -12.2037 -1.19053e-18)
(6.99593 -12.4471 8.88921e-19)
(6.78094 -12.7886 -1.38256e-18)
(9.48766 -4.17235 7.88072e-19)
(11.4581 -5.70872 -1.9357e-18)
(11.1254 -6.34881 1.27428e-18)
(10.6813 -6.7867 -2.00718e-19)
(10.2519 -7.26397 -2.16132e-19)
(9.96575 -7.78317 8.3506e-19)
(9.57771 -8.19381 -1.01245e-18)
(9.17342 -8.5147 0)
(8.87776 -8.93376 7.73911e-19)
(8.62713 -9.35161 -7.60983e-19)
(8.32389 -9.71556 -5.50688e-19)
(7.98626 -9.98153 7.18471e-19)
(7.68498 -10.2805 1.72333e-19)
(7.44078 -10.5685 -6.9833e-19)
(7.206 -10.8881 1.69407e-19)
(6.98676 -11.1511 8.35492e-19)
(6.77943 -11.4536 -1.46921e-18)
(6.58304 -11.6852 9.69524e-19)
(6.36209 -11.8919 -9.68698e-21)
(6.13283 -12.1925 -1.31764e-18)
(8.92703 -3.57618 1.09288e-18)
(10.4258 -4.80756 -7.06021e-19)
(10.0691 -5.45915 4.65564e-19)
(9.73486 -5.97444 2.54815e-21)
(9.28234 -6.44821 -9.13766e-19)
(8.97791 -6.9755 -8.66036e-19)
(8.71748 -7.5431 1.07505e-18)
(8.35449 -7.9071 -6.28265e-19)
(7.96907 -8.25085 8.33104e-19)
(7.69892 -8.59416 0)
(7.47118 -8.99256 1.24898e-20)
(7.24161 -9.31755 1.88762e-19)
(6.96436 -9.62805 1.96177e-19)
(6.70602 -9.89058 -1.91746e-19)
(6.48538 -10.2064 0)
(6.28738 -10.4935 1.83162e-19)
(6.09929 -10.8085 0)
(5.93944 -11.1022 3.40769e-19)
(5.78508 -11.3814 1.66216e-18)
(5.59166 -11.7158 -1.23925e-20)
(8.2159 -3.0035 5.97477e-19)
(9.26551 -4.0195 -1.24448e-19)
(8.82746 -4.63288 -1.75319e-18)
(8.52459 -5.17455 9.79701e-19)
(8.10818 -5.64137 2.32598e-19)
(7.72604 -6.05843 -2.28193e-19)
(7.56011 -6.66266 -9.22098e-19)
(7.3846 -7.22855 6.87068e-19)
(7.17308 -7.73562 0)
(6.90377 -8.14738 0)
(6.6441 -8.5498 -1.04711e-18)
(6.40392 -8.90737 8.28312e-19)
(6.17824 -9.2598 -1.9617e-19)
(5.95108 -9.55127 -5.92653e-19)
(5.6992 -9.82537 6.19675e-21)
(5.49813 -10.0864 1.31957e-18)
(5.28645 -10.3522 -7.37073e-19)
(5.12315 -10.609 5.39232e-19)
(4.95781 -10.8621 -8.74903e-19)
(4.81287 -11.1896 0)
(7.37806 -2.44543 -5.14641e-19)
(8.20105 -3.34446 8.01245e-19)
(7.74052 -4.0239 1.35687e-19)
(7.57859 -4.63684 1.32958e-19)
(7.29375 -5.22056 0)
(6.86283 -5.55419 9.92021e-19)
(6.47119 -5.92627 -9.74489e-19)
(6.18885 -6.36253 1.21624e-19)
(5.98155 -6.82952 0)
(5.81196 -7.30964 9.05811e-19)
(5.66737 -7.76935 -7.77658e-19)
(5.50359 -8.21219 8.63653e-19)
(5.32772 -8.60908 -8.49937e-19)
(5.16577 -9.0016 8.2278e-19)
(5.00055 -9.34779 -7.07405e-19)
(4.83113 -9.66916 -7.83664e-19)
(4.66022 -9.96927 1.53684e-18)
(4.51354 -10.2485 -6.58124e-19)
(4.36225 -10.5127 9.31989e-20)
(4.21023 -10.8218 7.66221e-19)
(6.31374 -1.90891 -4.1163e-19)
(6.6366 -2.72495 4.29041e-19)
(6.13988 -3.30749 -1.35688e-19)
(5.98863 -3.96889 -1.3292e-19)
(5.91498 -4.72594 0)
(5.79325 -5.36544 0)
(5.5339 -5.85363 0)
(5.28444 -6.28328 -2.48324e-19)
(5.05957 -6.6876 -9.67369e-19)
(4.82612 -7.08635 1.89494e-18)
(4.6307 -7.46814 -1.04149e-18)
(4.47322 -7.87535 -1.1479e-19)
(4.32645 -8.25231 0)
(4.17712 -8.62677 0)
(4.03832 -8.97726 -2.09222e-19)
(3.90261 -9.31822 0)
(3.76699 -9.6354 7.92795e-19)
(3.63173 -9.93356 -9.75374e-19)
(3.51576 -10.2146 -8.47464e-19)
(3.38937 -10.5336 8.03274e-19)
(5.21964 -1.48553 4.29435e-19)
(5.64731 -2.33616 7.37856e-19)
(5.24329 -2.943 -1.21582e-21)
(4.86654 -3.34641 -1.85554e-21)
(4.62312 -3.90553 1.38352e-19)
(4.48564 -4.48473 -4.04791e-19)
(4.38342 -5.06855 0)
(4.21676 -5.58559 -3.87397e-19)
(4.04475 -6.07606 1.31404e-19)
(3.89673 -6.54372 4.93193e-19)
(3.74961 -6.97829 4.77126e-19)
(3.59451 -7.39846 -3.54624e-19)
(3.4674 -7.80305 9.07228e-19)
(3.34463 -8.20089 -7.80537e-19)
(3.23161 -8.57413 9.68847e-19)
(3.11887 -8.94091 -1.79696e-18)
(3.0149 -9.28252 8.28214e-19)
(2.90767 -9.61393 9.88021e-20)
(2.80226 -9.9035 7.79341e-19)
(2.693 -10.2464 -8.3055e-19)
(3.59648 -0.902562 1.50732e-19)
(3.78963 -1.83736 -1.50019e-19)
(3.80645 -2.61036 5.97451e-19)
(3.73323 -3.32345 -5.86499e-19)
(3.46931 -3.8531 -2.85222e-19)
(3.33361 -4.4305 -6.93402e-19)
(3.17369 -4.9489 4.01596e-21)
(3.03859 -5.47552 5.32902e-19)
(2.89894 -5.92842 -1.27641e-19)
(2.75788 -6.39524 0)
(2.63103 -6.80832 0)
(2.51886 -7.23725 0)
(2.40727 -7.61362 0)
(2.30739 -8.01131 2.72918e-21)
(2.2123 -8.36344 0)
(2.1316 -8.73481 1.06922e-19)
(2.0489 -9.06598 4.19833e-19)
(1.97856 -9.41306 -1.23252e-18)
(1.90699 -9.70745 9.08423e-19)
(1.82942 -10.0614 -8.41544e-19)
(2.62002 -0.618514 0)
(2.58005 -1.30762 -7.88995e-20)
(2.39965 -1.83592 0)
(2.31819 -2.55031 2.2313e-19)
(2.22923 -3.19656 -1.48604e-19)
(2.10447 -3.79666 -5.69365e-19)
(2.03812 -4.42456 3.90221e-21)
(1.96577 -4.98028 5.45879e-19)
(1.8764 -5.52703 -5.28007e-19)
(1.77233 -6.0118 1.03382e-18)
(1.69355 -6.47591 -4.71358e-21)
(1.58759 -6.8999 -4.93369e-19)
(1.52033 -7.30985 4.76087e-19)
(1.42753 -7.69628 -5.83843e-19)
(1.37039 -8.0684 0)
(1.28723 -8.43021 -4.40544e-19)
(1.23321 -8.77655 4.33948e-19)
(1.15901 -9.11792 0)
(1.10861 -9.42522 -1.01489e-19)
(1.03146 -9.77996 0)
(1.16002 -0.51487 8.15595e-20)
(1.33405 -1.19074 7.89054e-20)
(1.21677 -1.91968 0)
(0.924283 -2.54506 3.02655e-19)
(0.839334 -3.25667 -3.72887e-19)
(0.703705 -3.79709 2.16123e-19)
(0.627663 -4.39083 -6.36835e-19)
(0.62285 -4.89083 2.76898e-19)
(0.583992 -5.45973 -6.75959e-20)
(0.601938 -5.91893 0)
(0.563374 -6.44067 -6.42054e-20)
(0.555705 -6.85845 -6.2562e-20)
(0.487788 -7.3282 -6.09666e-20)
(0.460359 -7.69669 0)
(0.382565 -8.11456 -4.58041e-19)
(0.349472 -8.43661 9.53999e-19)
(0.285474 -8.80808 -8.20077e-19)
(0.251717 -9.09521 4.28881e-19)
(0.211694 -9.40884 5.23361e-20)
(0.174738 -9.7029 4.36084e-19)
(-0.191169 -0.250481 -1.22896e-19)
(-0.16925 -1.00547 -1.60685e-19)
(-0.469211 -1.9107 6.08342e-22)
(-0.540551 -2.48493 4.22609e-19)
(-0.506804 -3.12995 -1.13514e-19)
(-0.413372 -3.62644 -7.31738e-20)
(-0.415321 -4.19044 7.21598e-20)
(-0.470221 -4.67148 1.40009e-19)
(-0.496807 -5.20132 6.76011e-20)
(-0.548038 -5.66689 -2.63901e-19)
(-0.559813 -6.16546 2.91439e-19)
(-0.606601 -6.61756 6.25604e-20)
(-0.576908 -7.06457 3.05077e-19)
(-0.593446 -7.4838 -2.44078e-21)
(-0.552986 -7.88339 2.67376e-20)
(-0.546714 -8.26061 -5.10556e-19)
(-0.523126 -8.62609 1.39789e-19)
(-0.510359 -8.96792 0)
(-0.507718 -9.28434 -2.59861e-20)
(-0.490437 -9.62695 -2.20428e-19)
(-1.37882 -0.24294 0)
(-2.06208 -0.995811 -8.06056e-20)
(-1.87679 -1.88011 1.57906e-19)
(-1.66388 -2.46584 -3.89201e-20)
(-1.55624 -3.11342 -3.79346e-20)
(-1.58864 -3.70707 0)
(-1.65226 -4.33428 -7.13952e-20)
(-1.63538 -4.85575 1.39754e-19)
(-1.65589 -5.41424 -6.84102e-20)
(-1.60875 -5.86044 6.60843e-20)
(-1.63815 -6.35927 -3.26762e-20)
(-1.56238 -6.75091 -6.27476e-20)
(-1.57018 -7.18069 1.22894e-19)
(-1.52441 -7.55518 -1.19773e-19)
(-1.51829 -7.93659 2.9511e-20)
(-1.50791 -8.30492 2.02312e-34)
(-1.49962 -8.65454 -2.7479e-20)
(-1.49216 -9.00688 1.61983e-19)
(-1.4758 -9.31117 -7.99344e-20)
(-1.46286 -9.66039 -5.5983e-20)
(-0.185172 -5.24587 1.13302e-19)
(1.55214 -17.1484 2.63554e-20)
(2.41512 -28.8477 0)
(3.03825 -33.8706 5.16172e-20)
(3.07377 -34.5686 4.79574e-20)
(3.05399 -34.3924 4.50624e-20)
(2.97968 -33.9493 0)
(2.94822 -33.5653 4.12399e-20)
(2.89227 -33.2224 0)
(2.83732 -32.9127 0)
(2.79414 -32.5917 -3.45662e-20)
(2.72393 -32.2465 2.43881e-21)
(2.65787 -31.9433 6.49502e-20)
(2.62066 -31.6488 0)
(2.54722 -31.373 2.83791e-20)
(2.5215 -31.0633 2.69567e-20)
(2.41156 -30.7209 2.56381e-20)
(2.3926 -30.322 0)
(2.25705 -29.9902 -4.64015e-20)
(2.25315 -29.5938 4.52566e-20)
(0.260825 -6.13684 1.68102e-19)
(1.97078 -18.8552 -1.8978e-19)
(3.54552 -30.103 0)
(3.99871 -34.1946 -2.53161e-19)
(4.08261 -34.5054 2.39461e-19)
(4.01483 -34.2109 -4.0587e-19)
(3.93357 -33.7902 1.76402e-19)
(3.86543 -33.4365 1.18989e-19)
(3.78587 -33.054 -5.36834e-19)
(3.71887 -32.703 2.9798e-19)
(3.62414 -32.3645 -3.50045e-20)
(3.56458 -32.0712 2.5743e-19)
(3.49226 -31.8144 -9.22193e-21)
(3.42339 -31.5129 -2.4024e-19)
(3.31737 -31.1816 -2.83773e-20)
(3.2633 -30.8565 -2.69563e-20)
(3.13055 -30.5405 -2.56381e-20)
(3.09856 -30.1388 0)
(2.92529 -29.7669 -1.79863e-19)
(2.90526 -29.3671 5.90064e-21)
(0.625187 -6.88899 -1.10325e-19)
(2.72103 -20.3192 0)
(4.64443 -31.2533 0)
(5.05495 -34.452 -9.89459e-20)
(5.01808 -34.4719 9.37486e-20)
(4.94158 -34.0708 0)
(4.80772 -33.6286 -8.35676e-20)
(4.71764 -33.2106 2.34213e-19)
(4.61519 -32.8946 -2.31379e-19)
(4.50682 -32.5272 2.79362e-19)
(4.42184 -32.221 -3.41072e-19)
(4.3206 -31.9209 0)
(4.21 -31.5759 -2.36881e-19)
(4.11318 -31.2443 -2.1588e-19)
(4.00255 -30.9478 3.88828e-19)
(3.93549 -30.6406 -4.04167e-19)
(3.78422 -30.2797 3.50117e-19)
(3.72307 -29.8642 0)
(3.52648 -29.5018 -3.90519e-19)
(3.51885 -29.1493 6.70579e-19)
(0.980188 -7.68101 5.4746e-19)
(3.74981 -21.4464 0)
(5.81915 -31.759 2.07575e-19)
(6.1526 -34.2665 2.89576e-19)
(6.09594 -34.1729 -5.5665e-19)
(5.94469 -33.7218 1.71916e-19)
(5.8042 -33.3116 8.35691e-20)
(5.67719 -32.9744 8.40788e-19)
(5.53753 -32.557 -1.17291e-18)
(5.41481 -32.2362 -1.13243e-19)
(5.27915 -31.8987 5.99389e-19)
(5.14906 -31.5593 1.21125e-19)
(5.03459 -31.2998 -5.723e-19)
(4.92586 -31.019 5.58873e-19)
(4.79424 -30.7051 1.55781e-19)
(4.68508 -30.3592 -9.7053e-20)
(4.51575 -29.9997 1.39992e-19)
(4.43149 -29.575 0)
(4.22492 -29.2418 -3.97028e-20)
(4.19005 -28.8506 0)
(1.41075 -8.43726 0)
(4.71635 -22.5351 8.40504e-19)
(6.95053 -32.306 -1.04515e-18)
(7.2127 -34.2115 9.4619e-19)
(7.05699 -33.9291 -7.32973e-19)
(6.87645 -33.4245 -1.72946e-19)
(6.68704 -33.0099 0)
(6.52539 -32.5887 4.36534e-19)
(6.35936 -32.2867 -5.79509e-19)
(6.19875 -31.9036 6.59102e-19)
(6.0439 -31.5859 -5.14612e-19)
(5.91324 -31.3171 -1.21124e-19)
(5.75849 -30.9954 5.54742e-19)
(5.61196 -30.6657 -9.57902e-19)
(5.44331 -30.349 6.03104e-19)
(5.32862 -30.0249 -1.98023e-19)
(5.13397 -29.6698 -4.45494e-19)
(5.03264 -29.2571 1.01895e-18)
(4.78167 -28.9027 -5.78054e-19)
(4.75569 -28.5353 -6.82518e-19)
(1.83356 -9.00226 8.37321e-19)
(5.78585 -23.1572 8.19602e-19)
(8.10953 -32.2577 -8.17293e-19)
(8.31003 -33.7069 -1.83617e-19)
(8.09775 -33.3877 1.77745e-19)
(7.89241 -32.941 6.44305e-19)
(7.66259 -32.5346 -6.32966e-19)
(7.47458 -32.1925 0)
(7.27135 -31.7931 5.33601e-19)
(7.07618 -31.4814 -5.24688e-19)
(6.90803 -31.1791 -4.72956e-19)
(6.70981 -30.8449 4.65288e-19)
(6.54209 -30.5571 0)
(6.37395 -30.2775 0)
(6.21308 -29.9891 8.48471e-19)
(6.04719 -29.6633 -8.31593e-19)
(5.83562 -29.2766 -6.71675e-19)
(5.69441 -28.8519 6.61752e-19)
(5.43836 -28.5358 -6.04065e-19)
(5.40047 -28.1871 7.46054e-19)
(2.33319 -9.56513 -6.07177e-19)
(6.85321 -23.8618 2.19583e-19)
(9.24887 -32.3066 3.60357e-20)
(9.35107 -33.3571 9.25713e-19)
(9.07346 -32.9457 0)
(8.81167 -32.4531 0)
(8.54519 -32.0475 1.15807e-18)
(8.31046 -31.6711 -5.21601e-20)
(8.07452 -31.3562 -1.06748e-18)
(7.86176 -31.0117 9.57863e-19)
(7.63356 -30.6985 -9.42128e-19)
(7.44989 -30.4349 0)
(7.2514 -30.154 7.98989e-19)
(7.0639 -29.8565 -7.86399e-19)
(6.85116 -29.5454 0)
(6.67986 -29.211 0)
(6.45244 -28.87 0)
(6.30875 -28.4621 0)
(6.02389 -28.1376 0)
(5.97806 -27.7512 -7.15146e-20)
(2.8322 -9.93742 5.7841e-19)
(7.92514 -24.0822 -9.84166e-19)
(10.328 -31.8898 0)
(10.3775 -32.6424 0)
(10.0193 -32.2429 1.41687e-18)
(9.75278 -31.822 8.5447e-20)
(9.4311 -31.4368 -1.29523e-18)
(9.17408 -31.0775 0)
(8.91131 -30.7424 1.1997e-19)
(8.64346 -30.4257 -1.12397e-19)
(8.43036 -30.1576 0)
(8.18941 -29.8761 9.89322e-20)
(7.96237 -29.5928 -8.44904e-19)
(7.73913 -29.3213 1.53539e-18)
(7.52871 -29.0638 -3.00323e-20)
(7.32361 -28.7877 -6.56605e-19)
(7.06819 -28.4196 -7.30356e-20)
(6.8719 -28.0125 6.88625e-20)
(6.56974 -27.703 0)
(6.51518 -27.3484 6.22577e-20)
(3.36377 -10.2871 3.7156e-19)
(9.00379 -24.3374 3.15873e-19)
(11.4049 -31.4725 -1.10717e-18)
(11.3654 -31.9858 3.20268e-19)
(10.9682 -31.568 1.39755e-19)
(10.6355 -31.1236 1.24367e-18)
(10.2918 -30.7438 -1.73839e-18)
(9.98579 -30.4372 1.26183e-18)
(9.6846 -30.1106 -1.0281e-18)
(9.40897 -29.8378 1.21542e-18)
(9.13099 -29.5609 1.96622e-19)
(8.87497 -29.2969 8.3289e-19)
(8.6331 -29.0463 -4.70065e-19)
(8.39952 -28.7864 -9.09072e-19)
(8.15239 -28.5035 8.01606e-19)
(7.91976 -28.1962 0)
(7.65782 -27.8781 2.0772e-19)
(7.45529 -27.499 5.78704e-20)
(7.13831 -27.2158 -1.19799e-19)
(7.06171 -26.8402 5.19019e-20)
(3.90686 -10.5073 -6.98299e-19)
(10.0388 -24.281 7.19822e-19)
(12.3709 -30.8129 -2.08423e-20)
(12.275 -31.1329 -6.21053e-19)
(11.7954 -30.7449 -5.75659e-19)
(11.4571 -30.3599 -2.76876e-19)
(11.0607 -30.0039 -1.79204e-20)
(10.7184 -29.6516 -2.40578e-19)
(10.4021 -29.3909 0)
(10.0722 -29.0836 -2.10068e-19)
(9.79486 -28.852 -1.96627e-19)
(9.52664 -28.6441 -1.47554e-20)
(9.24821 -28.4044 6.33365e-19)
(8.983 -28.1624 -3.26926e-19)
(8.72363 -27.932 -7.22103e-19)
(8.48844 -27.695 5.61141e-19)
(8.20484 -27.3774 3.68579e-19)
(7.95816 -26.9922 -6.22532e-19)
(7.61482 -26.6911 1.19806e-19)
(7.53062 -26.3293 7.42703e-19)
(4.44769 -10.6595 -1.6628e-18)
(11.0316 -24.0969 1.67907e-18)
(13.2997 -29.9969 -1.83621e-18)
(13.1415 -30.1824 1.49556e-18)
(12.6429 -29.8352 1.31988e-18)
(12.2397 -29.4615 -1.02306e-18)
(11.825 -29.1403 -1.35772e-18)
(11.4511 -28.8893 4.72604e-20)
(11.092 -28.5872 8.20332e-19)
(10.7551 -28.3796 -5.47135e-19)
(10.4443 -28.1573 1.38794e-18)
(10.1217 -27.9169 -8.34142e-19)
(9.83235 -27.7037 -1.58507e-19)
(9.55393 -27.4938 4.03108e-19)
(9.27197 -27.2702 -1.05924e-18)
(8.9946 -27.0264 5.08385e-19)
(8.69938 -26.7407 0)
(8.44166 -26.4017 -8.52571e-19)
(8.09818 -26.1376 8.39025e-19)
(8.00152 -25.7801 -6.76038e-19)
(4.99214 -10.7407 3.11079e-19)
(11.9865 -23.7921 3.43968e-19)
(14.1466 -29.159 1.49027e-18)
(13.9266 -29.2188 1.29132e-18)
(13.3552 -28.8872 -7.82602e-19)
(12.9297 -28.5559 1.10106e-18)
(12.4816 -28.24 -6.48371e-19)
(12.0589 -27.9551 7.59227e-19)
(11.6894 -27.7466 -1.45103e-18)
(11.306 -27.4909 5.15876e-19)
(10.963 -27.3032 0)
(10.6636 -27.1608 0)
(10.3448 -26.9802 0)
(10.043 -26.7808 -9.84872e-19)
(9.74086 -26.5814 9.69662e-19)
(9.47424 -26.4059 0)
(9.17573 -26.1693 0)
(8.88511 -25.8367 -8.9448e-20)
(8.50868 -25.5672 0)
(8.38 -25.1966 -7.65411e-19)
(5.50764 -10.727 -5.82947e-19)
(12.8477 -23.2765 -1.43544e-18)
(14.8563 -28.0378 -1.01817e-18)
(14.6091 -28.0516 -1.90542e-19)
(14.0258 -27.7977 1.34141e-18)
(13.5557 -27.5219 -2.68885e-19)
(13.0818 -27.2659 -4.78189e-20)
(12.6383 -27.0417 -8.85755e-19)
(12.2328 -26.8171 0)
(11.8387 -26.6524 -4.41031e-19)
(11.4943 -26.4975 7.00309e-19)
(11.127 -26.3169 0)
(10.7923 -26.1636 9.25935e-19)
(10.4794 -26.0199 -9.11413e-19)
(10.162 -25.8575 7.9912e-19)
(9.85356 -25.6815 -1.44226e-18)
(9.53229 -25.4681 7.32021e-19)
(9.21883 -25.1736 8.94516e-20)
(8.84308 -24.9254 -7.04551e-20)
(8.71412 -24.5853 5.74109e-19)
(6.01323 -10.6718 -7.46661e-19)
(13.6939 -22.7232 5.09401e-20)
(15.5553 -27.0204 6.70037e-20)
(15.2271 -26.9496 1.73659e-18)
(14.6166 -26.6911 1.54863e-19)
(14.0905 -26.4433 -9.23084e-19)
(13.6123 -26.1999 -6.4611e-19)
(13.1262 -26.0206 2.05118e-19)
(12.7007 -25.8377 7.14263e-19)
(12.2776 -25.6708 -7.62592e-19)
(11.8812 -25.5312 3.6588e-19)
(11.5403 -25.4398 -9.56355e-19)
(11.1858 -25.3267 7.48932e-19)
(10.8506 -25.1894 -7.28772e-19)
(10.5084 -25.0448 6.38991e-19)
(10.2079 -24.9346 5.34637e-19)
(9.90132 -24.792 -6.13154e-19)
(9.58249 -24.5548 4.72607e-19)
(9.18604 -24.3218 -4.53427e-19)
(9.02421 -23.9613 -5.22451e-19)
(6.49127 -10.5275 -9.06912e-19)
(14.4039 -21.9944 -1.55163e-19)
(16.0541 -25.7029 8.65124e-19)
(15.6743 -25.6695 -7.31801e-19)
(15.0797 -25.5025 7.18469e-19)
(14.5384 -25.3319 1.69641e-19)
(14.0202 -25.1354 0)
(13.5159 -24.9499 -1.19403e-19)
(13.0752 -24.8369 3.31593e-19)
(12.6326 -24.6985 -1.17945e-18)
(12.2482 -24.6195 8.30938e-19)
(11.8594 -24.5076 1.82777e-19)
(11.4848 -24.4227 9.28205e-20)
(11.1513 -24.3498 0)
(10.8026 -24.2402 1.68949e-20)
(10.4744 -24.1379 4.96876e-19)
(10.1432 -24.0276 -3.444e-20)
(9.79398 -23.8163 7.72808e-20)
(9.39583 -23.6186 -4.09651e-19)
(9.23061 -23.2936 9.10201e-20)
(6.9448 -10.3004 7.89847e-19)
(15.0489 -21.2039 -1.26675e-18)
(16.5811 -24.5054 7.46897e-19)
(16.0954 -24.4251 6.21773e-19)
(15.4919 -24.2528 -4.94325e-20)
(14.8937 -24.1101 -4.31961e-19)
(14.3888 -23.9675 1.06908e-19)
(13.8598 -23.8667 1.19398e-19)
(13.3805 -23.7234 0)
(12.9323 -23.6593 0)
(12.4985 -23.5765 -6.11994e-19)
(12.1119 -23.537 1.01116e-18)
(11.7274 -23.4883 -5.44117e-19)
(11.3673 -23.4452 0)
(10.9949 -23.3716 1.75043e-20)
(10.6498 -23.2963 -4.05523e-19)
(10.3364 -23.253 3.95581e-19)
(10.0059 -23.1363 -4.6367e-20)
(9.61091 -22.9702 -2.89957e-19)
(9.42363 -22.6332 2.0332e-19)
(7.38159 -10.0136 -6.68557e-19)
(15.5637 -20.3127 7.59038e-19)
(16.8891 -23.1093 0)
(16.3362 -23.0976 0)
(15.7555 -23.0019 1.05035e-19)
(15.1558 -22.9299 -5.23439e-19)
(14.6108 -22.7988 1.20769e-20)
(14.0655 -22.6973 3.54031e-19)
(13.5922 -22.6635 -5.69654e-19)
(13.1124 -22.5631 1.06538e-18)
(12.6856 -22.5546 -4.96941e-19)
(12.2866 -22.5109 1.03907e-19)
(11.866 -22.4804 3.83309e-19)
(11.5143 -22.4711 -6.50887e-21)
(11.1441 -22.4546 -2.29325e-19)
(10.7977 -22.4183 3.92807e-20)
(10.4581 -22.4032 -2.34596e-19)
(10.1063 -22.3314 1.96815e-19)
(9.72287 -22.2466 1.52309e-20)
(9.52649 -21.9435 1.47471e-19)
(7.78276 -9.6573 0)
(15.9803 -19.3493 3.16274e-19)
(17.1665 -21.7379 -3.99746e-19)
(16.54 -21.7346 0)
(15.9568 -21.6679 -1.0503e-19)
(15.325 -21.6387 2.99894e-19)
(14.7943 -21.5989 -3.76502e-19)
(14.2389 -21.5348 0)
(13.7243 -21.4892 3.87019e-19)
(13.2622 -21.4908 -3.80564e-19)
(12.8047 -21.4777 2.68987e-20)
(12.3906 -21.4809 -4.18598e-20)
(11.9836 -21.4838 -3.6091e-20)
(11.6071 -21.5097 -3.08989e-20)
(11.219 -21.5117 -1.4921e-19)
(10.8356 -21.4791 2.14599e-19)
(10.5004 -21.5057 -1.59562e-19)
(10.1641 -21.5124 1.11953e-19)
(9.80261 -21.4995 -3.24781e-20)
(9.59762 -21.2304 8.69224e-21)
(8.16314 -9.26549 0)
(16.2851 -18.3413 -3.25234e-19)
(17.2897 -20.3203 2.01563e-19)
(16.5745 -20.3669 2.17898e-19)
(16.0122 -20.3504 -3.88811e-20)
(15.3847 -20.3772 -3.49852e-20)
(14.8363 -20.3567 -1.91109e-19)
(14.2751 -20.3469 0)
(13.7602 -20.3401 0)
(13.2672 -20.331 0)
(12.8081 -20.3818 -2.68975e-20)
(12.4067 -20.4265 0)
(11.9472 -20.4255 -3.109e-20)
(11.5671 -20.4583 3.42068e-20)
(11.1921 -20.5288 2.43662e-20)
(10.8233 -20.5399 -7.30495e-20)
(10.4612 -20.5936 4.83174e-20)
(10.0953 -20.6281 1.06249e-19)
(9.7482 -20.6981 -1.94494e-19)
(9.53756 -20.4996 1.10588e-19)
(8.47311 -8.79532 0)
(16.4741 -17.3095 0)
(17.2698 -18.8459 7.16738e-20)
(16.5483 -18.9633 5.97339e-20)
(15.9948 -19.0106 0)
(15.368 -19.0812 8.93993e-20)
(14.819 -19.1344 -8.78302e-20)
(14.2702 -19.1342 0)
(13.7381 -19.1839 1.84302e-20)
(13.2545 -19.1847 -1.81226e-20)
(12.7814 -19.256 0)
(12.3682 -19.3108 9.45834e-20)
(11.9486 -19.3848 2.78701e-20)
(11.5515 -19.4248 -1.22651e-19)
(11.1509 -19.489 0)
(10.7435 -19.4737 0)
(10.3532 -19.5298 0)
(9.99091 -19.5782 2.18868e-19)
(9.60783 -19.5944 -2.3447e-19)
(9.36623 -19.5442 0)
(1.6373 -28.4407 0)
(1.56195 -26.6699 0)
(1.08855 -26.3185 -2.40389e-21)
(1.07969 -25.2293 -1.89255e-21)
(0.857901 -25.0926 0)
(0.917895 -24.5372 1.49874e-22)
(0.819521 -24.3705 9.02395e-22)
(0.856707 -24.0068 0)
(0.816149 -23.9307 2.79849e-22)
(0.817896 -23.6541 0)
(0.77327 -23.5357 2.22337e-23)
(0.806009 -23.4323 8.83054e-23)
(0.647353 -23.3179 -8.88872e-23)
(0.732495 -23.4613 -3.09786e-22)
(0.586584 -23.4586 0)
(0.533765 -23.2392 1.13649e-22)
(0.500165 -23.0483 -5.5326e-22)
(0.399794 -20.3129 0)
(0.147864 -14.6078 0)
(0.186554 -6.07583 0)
(2.2049 -28.2787 1.89549e-20)
(1.95173 -26.5493 0)
(1.38146 -26.2673 1.08576e-20)
(1.29057 -25.2659 -6.60114e-21)
(1.0406 -25.1406 0)
(1.06713 -24.5618 -4.82071e-21)
(0.926984 -24.3893 1.7502e-21)
(0.942082 -24.0217 0)
(0.873256 -23.9361 1.01495e-22)
(0.852713 -23.6525 -3.83521e-22)
(0.804061 -23.5356 -1.92438e-22)
(0.821038 -23.4148 5.43087e-22)
(0.679659 -23.3117 -6.47001e-22)
(0.764532 -23.4545 2.40913e-22)
(0.603235 -23.4305 3.32668e-22)
(0.5544 -23.2295 -4.56499e-22)
(0.517995 -23.0321 8.65275e-22)
(0.418032 -20.2532 1.28403e-21)
(0.157593 -14.5707 6.00019e-22)
(0.158091 -6.02914 6.73092e-22)
(2.64616 -28.0701 -8.87547e-21)
(2.36157 -26.4395 -1.58065e-20)
(1.70791 -26.1591 -8.99425e-21)
(1.54616 -25.1384 0)
(1.2227 -25.0417 0)
(1.19712 -24.5065 5.39311e-21)
(1.03995 -24.3435 -1.09502e-21)
(1.02107 -23.9962 -8.69272e-22)
(0.926312 -23.9112 -7.32795e-22)
(0.882944 -23.6382 -7.01816e-22)
(0.834911 -23.5287 0)
(0.837605 -23.4 0)
(0.711541 -23.3007 0)
(0.782449 -23.4418 1.3124e-21)
(0.618976 -23.3998 0)
(0.573677 -23.2171 1.77483e-21)
(0.533277 -23.0181 -1.73743e-21)
(0.433412 -20.2302 -7.62354e-22)
(0.170928 -14.5557 -1.32082e-21)
(0.175813 -5.98473 -1.90277e-22)
(3.21651 -27.8353 2.67421e-20)
(2.72197 -26.2991 -5.07446e-20)
(1.97002 -26.0748 1.85248e-21)
(1.75415 -25.1323 1.58433e-20)
(1.40848 -25.0645 0)
(1.3405 -24.5183 6.46155e-21)
(1.1435 -24.3525 -1.33892e-20)
(1.10068 -23.9937 5.70393e-21)
(0.984033 -23.9022 -2.24151e-21)
(0.916946 -23.6312 4.68278e-23)
(0.866116 -23.5258 -2.95578e-22)
(0.857727 -23.3831 8.26256e-22)
(0.739609 -23.2939 -8.29915e-22)
(0.80299 -23.4289 -6.02185e-22)
(0.634749 -23.3683 -7.11109e-22)
(0.595594 -23.2109 -1.77378e-21)
(0.54528 -23.0063 2.14573e-21)
(0.450877 -20.1844 -1.01861e-21)
(0.181877 -14.5267 5.23872e-22)
(0.14708 -5.95361 1.34128e-21)
(3.68095 -27.5678 6.7574e-20)
(3.11888 -26.1166 1.17428e-20)
(2.30329 -25.9382 -1.56097e-20)
(1.99234 -24.997 2.18674e-20)
(1.59632 -24.9524 0)
(1.47428 -24.4432 -3.61785e-21)
(1.25732 -24.2951 2.55772e-21)
(1.1787 -23.9608 0)
(1.04024 -23.8694 8.8686e-23)
(0.949591 -23.6132 0)
(0.900219 -23.5168 5.61805e-22)
(0.879457 -23.3697 0)
(0.769889 -23.283 0)
(0.822835 -23.4134 2.77887e-21)
(0.644951 -23.3399 -1.45129e-21)
(0.615961 -23.1984 1.67622e-21)
(0.554322 -22.9956 0)
(0.463192 -20.1671 -3.43131e-22)
(0.193576 -14.5139 5.27766e-22)
(0.154248 -5.91151 0)
(4.18636 -27.287 2.6192e-20)
(3.46406 -25.9385 -2.15785e-20)
(2.57386 -25.8205 3.66983e-20)
(2.2051 -24.9517 -3.5965e-20)
(1.77714 -24.9489 9.08989e-21)
(1.60568 -24.4381 3.62896e-21)
(1.3606 -24.2888 -4.56122e-21)
(1.25429 -23.9428 -2.9347e-21)
(1.10068 -23.8475 8.12002e-22)
(0.986241 -23.6008 -1.8984e-22)
(0.929788 -23.5116 -1.22728e-22)
(0.900076 -23.3525 0)
(0.792396 -23.275 0)
(0.840319 -23.3965 -1.71298e-24)
(0.650751 -23.3104 1.48243e-21)
(0.637082 -23.1879 -1.03045e-21)
(0.561756 -22.9849 0)
(0.462645 -20.1405 2.84014e-21)
(0.194323 -14.494 4.01172e-21)
(0.134245 -5.88217 2.59841e-22)
(4.67185 -26.9487 -7.30212e-20)
(3.80362 -25.7047 6.85073e-20)
(2.86249 -25.6533 -1.58865e-20)
(2.42612 -24.7997 0)
(1.96518 -24.821 -9.12469e-21)
(1.74563 -24.3484 1.11581e-20)
(1.47689 -24.2245 -6.62541e-21)
(1.32745 -23.9032 2.94409e-21)
(1.16379 -23.8084 0)
(1.02709 -23.5773 0)
(0.96189 -23.5001 -1.25591e-21)
(0.922449 -23.3397 1.25841e-21)
(0.820647 -23.2639 0)
(0.854866 -23.3772 -4.33578e-21)
(0.659436 -23.2813 1.51555e-21)
(0.653889 -23.1824 1.20502e-21)
(0.562786 -22.9732 -3.29628e-22)
(0.474648 -20.1298 -2.09269e-21)
(0.195675 -14.486 -2.56384e-21)
(0.145022 -5.85028 -5.39589e-22)
(5.12615 -26.5979 0)
(4.14418 -25.4664 -3.47968e-20)
(3.15402 -25.5182 3.48431e-20)
(2.63674 -24.724 0)
(2.1516 -24.7958 0)
(1.87283 -24.3227 -1.04935e-20)
(1.58735 -24.1975 1.05282e-20)
(1.4001 -23.8719 0)
(1.22505 -23.7776 5.41822e-22)
(1.06768 -23.5565 -2.36708e-23)
(0.988266 -23.4902 -5.21895e-22)
(0.937637 -23.3219 -2.09319e-21)
(0.838343 -23.2529 2.09614e-21)
(0.864012 -23.3562 0)
(0.67723 -23.2511 0)
(0.673017 -23.1734 1.31456e-21)
(0.556872 -22.9645 -1.07594e-21)
(0.473843 -20.1225 -2.33212e-23)
(0.192748 -14.4801 1.52375e-21)
(0.139458 -5.82279 -5.39647e-22)
(5.56479 -26.2171 4.13681e-20)
(4.45312 -25.1969 -4.14195e-20)
(3.40636 -25.3087 -3.84609e-20)
(2.82077 -24.558 4.43958e-20)
(2.32919 -24.6499 -3.31916e-20)
(2.00492 -24.223 4.12598e-21)
(1.7012 -24.1272 9.84505e-21)
(1.46949 -23.8243 0)
(1.29228 -23.7333 0)
(1.11304 -23.5264 -3.40144e-22)
(1.02463 -23.4735 0)
(0.955641 -23.3096 0)
(0.861395 -23.2408 0)
(0.865018 -23.3359 0)
(0.696611 -23.2252 0)
(0.690143 -23.1618 0)
(0.554043 -22.955 8.24238e-22)
(0.480663 -20.1209 -1.15056e-21)
(0.188619 -14.4804 5.27216e-22)
(0.15717 -5.79858 -5.38997e-22)
(5.96989 -25.7874 -3.97677e-20)
(4.75929 -24.9067 -5.55393e-20)
(3.68792 -25.149 -1.01771e-20)
(3.0258 -24.4532 -4.69659e-21)
(2.52059 -24.6105 1.2259e-20)
(2.14098 -24.1749 1.83542e-20)
(1.82022 -24.0805 3.31834e-21)
(1.54466 -23.7816 0)
(1.3548 -23.6964 3.15306e-22)
(1.1566 -23.497 1.77009e-23)
(1.0538 -23.4561 -1.43645e-21)
(0.968017 -23.2884 -2.20962e-21)
(0.873018 -23.2247 0)
(0.862981 -23.3131 -2.88427e-21)