/*--------------------------------*- C++ -*----------------------------------*\
  =========                 |
  \\      /  F ield         | OpenFOAM: The Open Source CFD Toolbox
   \\    /   O peration     | Website:  https://openfoam.org
    \\  /    A nd           | Version:  9
     \\/     M anipulation  |
\*---------------------------------------------------------------------------*/
FoamFile
{
    format      ascii;
    class       volScalarField;
    location    "7.3";
    object      nut;
}
// * * * * * * * * * * * * * * * * * * * * * * * * * * * * * * * * * * * * * //

dimensions      [0 2 -1 0 0 0 0];

internalField   nonuniform List<scalar> 
46400
(
0.0220657
0.00809103
0.00236148
0.00167442
0.00169187
0.00165429
0.00157627
0.00154178
0.00146454
0.00142093
0.00136563
0.00132555
0.00128333
0.00125195
0.00122931
0.00122503
0.00117137
0.00109194
0.00142376
0.00115701
0.0215864
0.00730942
0.00198352
0.00172359
0.00167232
0.00163531
0.00154776
0.00151522
0.00145332
0.00141508
0.00136015
0.00131893
0.00127681
0.00122931
0.00118027
0.00114305
0.0010838
0.000985687
0.0012271
0.00110217
0.0210736
0.00609034
0.00151899
0.00171171
0.00165747
0.00165952
0.00156282
0.0015266
0.00145642
0.00141459
0.00136425
0.00131618
0.00126922
0.00122579
0.00119561
0.00117163
0.00109924
0.00103923
0.00133728
0.00112883
0.0204705
0.0055125
0.0015168
0.00175709
0.00162536
0.00161448
0.00153315
0.00150608
0.00144175
0.00139981
0.00134881
0.00130914
0.00127571
0.0012269
0.00118638
0.0011528
0.0010934
0.00101197
0.00132573
0.00117807
0.0198572
0.0045108
0.00149847
0.00173336
0.0016321
0.00164588
0.00154501
0.00151096
0.00144588
0.00140956
0.00136897
0.0013153
0.00127315
0.00122929
0.0011972
0.00117959
0.00112509
0.00104351
0.00135126
0.00118582
0.0190794
0.00547749
0.00157204
0.00176013
0.00163767
0.00161916
0.00154581
0.00151886
0.00145867
0.00139851
0.00135814
0.00131331
0.0012878
0.00124425
0.00120728
0.00117071
0.00112652
0.00104903
0.00133762
0.00120719
0.0183142
0.00535133
0.00165552
0.00177314
0.00164076
0.00165809
0.00154773
0.00149699
0.00144795
0.00140609
0.00136872
0.00131734
0.00127417
0.00124206
0.00122205
0.00119915
0.00114682
0.00106589
0.00134631
0.00120949
0.0175173
0.0053156
0.00163856
0.00181477
0.00165085
0.00162328
0.00157454
0.00152586
0.00147049
0.0014063
0.00136077
0.00131536
0.00127668
0.00122013
0.00119774
0.00117836
0.00114532
0.00106622
0.00132148
0.00122599
0.0162463
0.00440804
0.00168471
0.00180986
0.00166601
0.00162946
0.00154305
0.00148101
0.00143101
0.00138309
0.00134802
0.00130822
0.0012926
0.00123682
0.00118866
0.00116518
0.00111791
0.00104667
0.00125199
0.00117171
0.0145654
0.00346923
0.00165214
0.00175072
0.00165622
0.00158426
0.0015505
0.00149638
0.001464
0.00140433
0.0013436
0.00127859
0.00125294
0.001232
0.00119241
0.00116247
0.00112935
0.00105221
0.00122714
0.00116772
0.0119906
0.00291015
0.00172412
0.00169386
0.00164061
0.0015698
0.00150915
0.00143216
0.00137897
0.00135372
0.00135469
0.00129351
0.00123704
0.00120595
0.00117918
0.00114317
0.00111329
0.00104948
0.00117223
0.00110675
0.00943628
0.00237589
0.00168793
0.00165519
0.00162646
0.00154971
0.00151122
0.00146143
0.00140048
0.00130483
0.00128031
0.00126878
0.00122514
0.00117871
0.00116035
0.00112221
0.0010856
0.00104142
0.0011476
0.00109074
0.00781833
0.00206706
0.00164582
0.00161955
0.00158974
0.00151346
0.00147131
0.00141851
0.00144784
0.0013729
0.00129953
0.0012575
0.00123432
0.00117908
0.00114844
0.00112442
0.00108327
0.00103353
0.00113306
0.00106156
0.00637167
0.00193815
0.00172497
0.00157937
0.00158598
0.00152247
0.00147526
0.00135504
0.00131028
0.00130983
0.00126434
0.00120611
0.00118781
0.0011545
0.00112093
0.0011004
0.00107189
0.00101972
0.00110793
0.00105073
0.00535623
0.00176934
0.0016791
0.00153291
0.00150804
0.00147901
0.00154047
0.00149543
0.00140576
0.001342
0.00131674
0.00126169
0.00121066
0.00117169
0.00113054
0.00108918
0.00105675
0.00100335
0.00106458
0.00100562
0.00460372
0.00166745
0.00168039
0.00163491
0.0015443
0.00137944
0.00134852
0.001353
0.00135483
0.00131281
0.00128789
0.00125925
0.00122749
0.00118019
0.00115549
0.00112195
0.00108838
0.00103473
0.00109635
0.0010232
0.00442732
0.00163117
0.00168326
0.00162265
0.00167256
0.00156987
0.00145936
0.00136313
0.00132079
0.00127413
0.00122018
0.001184
0.00115411
0.00112962
0.00109406
0.00107405
0.00104483
0.000987197
0.00103963
0.000985215
0.00407049
0.00171406
0.001549
0.00144536
0.00145848
0.00147499
0.00145764
0.00140701
0.00135696
0.00130696
0.00126419
0.00122585
0.00118093
0.0011533
0.00110723
0.0010766
0.0010439
0.000983656
0.00102182
0.000963103
0.00395454
0.0017561
0.0016508
0.00160017
0.00149002
0.00142773
0.00137104
0.00133434
0.00130749
0.00127374
0.00124012
0.00120176
0.00115975
0.00112383
0.00109558
0.00106567
0.00103154
0.000983434
0.00100901
0.000956099
0.00308358
0.00171198
0.00158446
0.0016055
0.00156476
0.00150203
0.00143882
0.00139597
0.00132039
0.0012827
0.0012349
0.00119137
0.00115419
0.00111895
0.00108295
0.00106157
0.0010259
0.000971951
0.00100282
0.000952399
0.00928905
0.0156895
0.0117361
0.00194775
0.000235643
0.000885664
0.00107344
0.00103614
0.000977389
0.000953186
0.000945849
0.000952606
0.000935486
0.000933763
0.00093753
0.00102092
0.00108239
0.00112639
0.00106396
0.000920646
0.0120209
0.0159542
0.0107733
0.000673585
0.000628645
0.00107077
0.00114484
0.00107512
0.00104701
0.0010118
0.00098967
0.000958744
0.00095442
0.000959726
0.000965281
0.00104233
0.00108979
0.00112717
0.00102449
0.000900349
0.0146074
0.0159208
0.00982818
0.000287424
0.000776828
0.00118872
0.00121611
0.00113367
0.00108442
0.0010577
0.00103843
0.00102911
0.00100186
0.000993189
0.001
0.00108531
0.00112997
0.00116483
0.0010561
0.000928298
0.0173995
0.0158689
0.00802022
0.000558221
0.0010074
0.00127194
0.00123955
0.00118084
0.00112954
0.00108598
0.00106683
0.00103587
0.00102786
0.0010219
0.00102114
0.00109725
0.00113707
0.00117835
0.00103639
0.000922934
0.0187059
0.0157868
0.00589671
0.000188521
0.0011731
0.00133616
0.00126236
0.00120726
0.00116512
0.00113556
0.00110639
0.00108791
0.00105747
0.0010464
0.00105444
0.00112386
0.00114958
0.00119507
0.00106102
0.000952816
0.0203996
0.0154524
0.00450103
9.323e-05
0.00130687
0.00138391
0.00130136
0.00125992
0.00120005
0.00114944
0.00113158
0.00109798
0.00108138
0.00106336
0.00106135
0.00113704
0.00117542
0.00121889
0.00103676
0.000945326
0.0207238
0.0153061
0.00322142
0.000436241
0.00133801
0.00140847
0.0013378
0.0012612
0.00122506
0.00119329
0.00116135
0.0011406
0.00110776
0.00109181
0.00108747
0.00113159
0.00115685
0.00123202
0.00106245
0.000968526
0.0214939
0.01498
0.00225134
0.000600928
0.00147862
0.00143282
0.00136978
0.00132483
0.00126187
0.00120275
0.00117903
0.00114458
0.00112153
0.00109492
0.00109372
0.00115946
0.00118201
0.00123431
0.00103569
0.000960447
0.0221438
0.0145656
0.00175658
0.00080589
0.0014907
0.001465
0.00140816
0.00131587
0.00127956
0.00124639
0.00121023
0.00118653
0.00115015
0.00112747
0.00110487
0.0011313
0.0011729
0.00126874
0.00106883
0.000990962
0.02272
0.0142515
0.0012668
0.00102225
0.00157752
0.00147744
0.00142705
0.00137074
0.00130522
0.00124338
0.00121449
0.00118375
0.00115603
0.00112468
0.00111794
0.00114976
0.00115469
0.00123791
0.00103017
0.000975841
0.023116
0.0137811
0.00152493
0.00111784
0.00157027
0.00150076
0.00145769
0.00136803
0.00132771
0.00129096
0.00124755
0.00121973
0.00118314
0.00115623
0.00112203
0.00113485
0.00117819
0.00127758
0.001057
0.00100612
0.0234432
0.0134115
0.00147364
0.00128109
0.00162982
0.00151744
0.00147459
0.00140461
0.0013373
0.00127825
0.00124745
0.00122039
0.00118716
0.00115351
0.00113293
0.00112296
0.00111843
0.00123391
0.00101723
0.000991373
0.0236331
0.0129128
0.00214363
0.00134086
0.00164123
0.00152075
0.00149404
0.00142086
0.00137194
0.00132719
0.00127355
0.00124449
0.00121212
0.00118505
0.00114684
0.00114212
0.0011629
0.00125237
0.00102907
0.00101819
0.0237581
0.0125003
0.00218829
0.00141641
0.00169178
0.00155641
0.00150463
0.00143284
0.00136708
0.00131616
0.00128205
0.00125249
0.0012132
0.00118248
0.00114973
0.00110878
0.00109745
0.00121136
0.000989238
0.0010153
0.0237668
0.0121722
0.00280925
0.00145264
0.001677
0.00155901
0.00152066
0.00146846
0.00140954
0.00135772
0.0012986
0.00127075
0.00124061
0.00121477
0.00118061
0.0011607
0.00115109
0.00121017
0.000981035
0.00103211
0.0237046
0.0118283
0.00254509
0.00151146
0.00169893
0.00159416
0.00153229
0.00145903
0.00140086
0.00135729
0.0013168
0.00128169
0.00123911
0.00121476
0.00117415
0.00112157
0.00110867
0.00117835
0.000941228
0.00104852
0.0234948
0.0114414
0.0024737
0.00156215
0.00169104
0.0015911
0.00154864
0.00150939
0.0014404
0.00139034
0.00133036
0.00130408
0.00127052
0.00124795
0.00122495
0.00119696
0.00116974
0.00117486
0.000907444
0.00105585
0.0232673
0.0108108
0.00234231
0.00159793
0.00170805
0.00162082
0.00155231
0.00148927
0.00143458
0.00139603
0.00134963
0.00131117
0.00127073
0.0012466
0.0012045
0.00116258
0.00116484
0.00117818
0.00087246
0.00108099
0.0228967
0.0100224
0.00245201
0.00163083
0.00171321
0.0016304
0.0015769
0.00154311
0.00146879
0.00142357
0.00136552
0.00133865
0.00130101
0.00128338
0.00126558
0.00123999
0.00123367
0.00120657
0.000857121
0.00105164
0.0225472
0.00918456
0.00252069
0.00165586
0.00170501
0.00163708
0.00155808
0.00151432
0.00146002
0.00142858
0.00138017
0.00134606
0.00131641
0.00129012
0.00126408
0.0012639
0.00129096
0.00126536
0.00103402
0.00120402
0.00652327
0.00481798
0.0037238
0.00289852
0.00255984
0.00209876
0.00174284
0.00145473
0.00120272
0.000986206
0.000798115
0.000659552
0.000573462
0.000525825
0.000420939
0.00058916
0.00176717
0.00615162
0.0105421
0.0145168
0.00638778
0.0048
0.00380896
0.0029031
0.00261766
0.00213067
0.00176866
0.00147163
0.00120717
0.00100203
0.000803944
0.000647859
0.000563311
0.000511203
0.000379816
0.000596093
0.00169487
0.0061722
0.0105626
0.0144606
0.00616096
0.00483269
0.00365753
0.00284467
0.00255857
0.00205432
0.00172321
0.00144316
0.00118047
0.000974959
0.000777162
0.0006372
0.000533278
0.000477487
0.000351155
0.000578754
0.00166724
0.00617662
0.0105782
0.0143978
0.00655765
0.00480642
0.00384826
0.00286468
0.00261376
0.00208696
0.00175215
0.00146365
0.00119146
0.000996806
0.00078596
0.000631207
0.000525939
0.000468329
0.000336164
0.000599806
0.00160478
0.00619837
0.0105699
0.0143633
0.0067125
0.00482667
0.0038692
0.00280476
0.00254921
0.00201648
0.00170915
0.0014361
0.00116441
0.000971967
0.000764204
0.000626389
0.000501297
0.000424163
0.000302038
0.000584331
0.00154279
0.0062052
0.0105996
0.0143383
0.00673624
0.00479199
0.00387724
0.00284126
0.0025987
0.00205016
0.00173869
0.00145901
0.00117782
0.000996948
0.000775469
0.000628479
0.000509076
0.000428875
0.000291811
0.000601302
0.00147419
0.00623083
0.0106055
0.0143211
0.00701597
0.00481898
0.00388788
0.00277759
0.00253288
0.00198775
0.00169645
0.00143291
0.00115046
0.000974259
0.000759231
0.000628537
0.000493291
0.000406668
0.000271759
0.000589111
0.00142989
0.00623603
0.0106484
0.0143074
0.00685693
0.00477926
0.003893
0.00281972
0.00257246
0.00202546
0.00172407
0.00145776
0.00116667
0.00100103
0.00077293
0.000636938
0.000511319
0.00040858
0.000271408
0.00055844
0.00138597
0.00620628
0.0106563
0.0142968
0.00706015
0.00481032
0.00389368
0.00275558
0.00250208
0.00197124
0.00168286
0.00143233
0.00114039
0.000981631
0.00076134
0.000636219
0.000424905
0.000418115
0.000267687
0.000526113
0.00134287
0.0062114
0.0106785
0.0143003
0.00692799
0.00475776
0.00390102
0.00279634
0.00253209
0.00201148
0.0017068
0.00145837
0.00115754
0.00100783
0.000775474
0.000645904
0.000517666
0.00037185
0.000251177
0.000492416
0.00128537
0.00618696
0.0106925
0.0143157
0.00705415
0.00477194
0.00389261
0.00273887
0.0024612
0.00196503
0.00166689
0.00143406
0.00113472
0.000991117
0.000768109
0.000648931
0.000364491
0.000378904
0.000250542
0.000454815
0.00121514
0.00616131
0.0107137
0.0143401
0.00696347
0.00470124
0.00389319
0.0027724
0.00248309
0.002007
0.00168797
0.00146032
0.00115383
0.00101541
0.000779471
0.000662057
0.000446797
0.000445736
0.000248128
0.000413179
0.00113186
0.00615539
0.010738
0.0143715
0.00703821
0.00467942
0.00387359
0.00272392
0.00241079
0.001967
0.00165123
0.0014379
0.00113694
0.00100163
0.000777064
0.00065939
0.000423403
0.000419569
0.000227857
0.00036595
0.00104488
0.00607767
0.0107381
0.0144127
0.00698966
0.00458208
0.00385308
0.00275227
0.00242658
0.00200801
0.00166999
0.00146211
0.00115807
0.00102343
0.000788824
0.000682356
0.000470329
0.000435876
0.000203141
0.000328518
0.00095085
0.00604815
0.0107627
0.0144543
0.00705222
0.00451743
0.00381008
0.00271275
0.00235373
0.00197732
0.00163958
0.00144212
0.00114782
0.00101244
0.000787269
0.000675355
0.000480316
0.000441374
0.000130797
0.00028844
0.000855397
0.00596891
0.0107726
0.0145011
0.00706463
0.00439256
0.00374609
0.0027329
0.00236078
0.00201071
0.00165721
0.00146047
0.00116802
0.00103202
0.000800536
0.000698694
0.000523304
0.000469565
0.000118367
0.000240513
0.000758022
0.00593421
0.0107873
0.0145585
0.00719127
0.00430612
0.00365677
0.00268939
0.00228519
0.00198482
0.00163195
0.00143943
0.00115934
0.00102089
0.000797845
0.00069157
0.000514462
0.000464881
0.000153301
0.000216
0.000657619
0.00581253
0.010811
0.014561
0.00723302
0.00419153
0.00357187
0.00272146
0.00230161
0.00202067
0.00166492
0.00146458
0.00118556
0.00104548
0.000816017
0.000721392
0.000549637
0.000483928
0.00013937
0.000184243
0.00053202
0.00585131
0.010826
0.0146612
0.00727298
0.0041644
0.00339268
0.00264594
0.00221988
0.00198667
0.0016415
0.0014479
0.00118194
0.00104084
0.000815703
0.000715277
0.000544018
0.000486297
0.00015679
0.000156922
0.000398237
0.00580614
0.0109556
0.0148232
0.00777337
0.0041383
0.00323498
0.00264411
0.00219788
0.00196434
0.00163487
0.00142262
0.00117423
0.00103427
0.000816297
0.000722812
0.000558158
0.00048829
0.000196463
0.000166725
0.000279879
0.00547875
0.0107085
0.0144313
0.014125
0.0428868
0.0314527
0.0287173
0.0236977
0.0213359
0.0176219
0.0152927
0.0123892
0.0108545
0.00863207
0.00753414
0.00582652
0.00580269
0.00267418
0.00170012
2.40743e-05
0.0532746
0.103204
0.133315
0.0362219
0.0251878
0.0216221
0.0193761
0.0156003
0.0143159
0.011995
0.0102987
0.00854282
0.00723644
0.00623794
0.00554104
0.00518301
0.00451923
0.00447872
0.00443819
0.0155793
0.0513691
0.0995511
0.136186
0.0166366
0.0159659
0.0157399
0.0128626
0.0117334
0.01026
0.00922189
0.00841785
0.00755986
0.00696607
0.00633606
0.00602157
0.00570355
0.00530616
0.0047949
0.00441893
0.00713698
0.0525194
0.0965866
0.134991
0.0117682
0.0111061
0.00954372
0.00979125
0.00892941
0.00838787
0.00765301
0.00715979
0.0065685
0.00608445
0.00560067
0.00504088
0.00437482
0.00426635
0.00378174
0.00293414
0.0103623
0.0465055
0.096515
0.132709
0.00636705
0.00806433
0.00832128
0.00690657
0.00631246
0.00598349
0.00556328
0.00533431
0.00506989
0.00490208
0.00456851
0.0044319
0.00420768
0.00384488
0.00387785
0.00337228
0.00623513
0.0421292
0.0961539
0.132843
0.00532306
0.00488737
0.00428065
0.00510184
0.00503521
0.00502456
0.00482542
0.00466115
0.00443269
0.00440477
0.00416908
0.00401336
0.00379771
0.00377381
0.00332402
0.00268061
0.00687592
0.0364857
0.0962269
0.133422
0.00326517
0.00393744
0.00457135
0.00403811
0.00377021
0.00359788
0.00365278
0.00378911
0.0036747
0.00371312
0.00361288
0.00368351
0.00348226
0.00355498
0.00328153
0.00251568
0.00422328
0.0294378
0.0965783
0.136101
0.00258356
0.00261837
0.00221664
0.00255052
0.00285643
0.00315302
0.00298359
0.00322599
0.00332506
0.00339721
0.00335192
0.00346488
0.00338439
0.00355474
0.00354866
0.00317017
0.0029525
0.0254363
0.0952729
0.140929
0.00171986
0.00191504
0.00228841
0.00247609
0.00236153
0.00241279
0.00255881
0.00260821
0.00267442
0.00298025
0.00298518
0.00323033
0.00327553
0.00355528
0.00350332
0.00346505
0.00387869
0.0168696
0.0932292
0.14942
0.00121316
0.00135253
0.0013177
0.00144991
0.00173487
0.00201482
0.00217089
0.00245545
0.00245566
0.00261103
0.0028148
0.003125
0.00324841
0.00358382
0.00366693
0.00403974
0.00321219
0.0118091
0.085832
0.160398
0.000928393
0.00113978
0.00134144
0.00153804
0.00156017
0.00167457
0.00173522
0.00195886
0.0023044
0.00248311
0.00260064
0.00281048
0.00296404
0.00332238
0.00360381
0.0043798
0.00403308
0.00642829
0.0640512
0.173233
0.000840471
0.000880817
0.00094796
0.00110288
0.00126906
0.00158994
0.00172371
0.00183146
0.00191347
0.00220344
0.00241559
0.00259537
0.00293367
0.00315668
0.00366006
0.00382332
0.00448964
0.0061868
0.0505395
0.192395
0.00075672
0.000938713
0.0010244
0.00119451
0.00123867
0.00136943
0.00149615
0.00176133
0.00179113
0.00195425
0.00203999
0.00241381
0.00259301
0.00284841
0.00300711
0.00342574
0.00416083
0.00872895
0.026509
0.152166
0.000722075
0.000822534
0.000857203
0.00101123
0.00109794
0.00125299
0.00123874
0.00140188
0.00143646
0.00171347
0.00168057
0.00200294
0.00185887
0.00253698
0.00245709
0.00327239
0.00284772
0.0055446
0.0160127
0.104078
0.000638841
0.000734809
0.000770461
0.000859987
0.000868101
0.00100439
0.00100935
0.00112276
0.0010865
0.00129437
0.00125033
0.00152181
0.0015771
0.00197067
0.00177811
0.00218595
0.00245067
0.00385189
0.00595396
0.0565085
0.000568483
0.000616421
0.000628244
0.000670796
0.000660959
0.000755133
0.000761476
0.000920755
0.000890708
0.00102924
0.000993644
0.00116774
0.00110236
0.00114396
0.00124678
0.00159784
0.00113644
0.00198628
0.0044034
0.0300414
0.000542139
0.000555183
0.00055434
0.000576331
0.00054315
0.000552677
0.000580643
0.000579537
0.000602088
0.000650807
0.000662587
0.000731243
0.000775354
0.000918267
0.000885437
0.000927347
0.000772817
0.00116175
0.000775991
0.0142766
0.000353802
0.000334406
0.000305086
0.000322305
0.000323537
0.000350776
0.000351091
0.000440449
0.000439699
0.000488035
0.000473019
0.000520855
0.000516836
0.000466971
0.000587176
0.000417151
0.000691616
0.00127414
0.00139166
0.0022087
0.000139902
0.000179395
0.000134048
0.000194018
0.000203362
0.000217832
0.000240167
0.00023741
0.000247766
0.000262619
0.000289906
0.000306769
0.000330104
0.000366755
0.000390548
0.000362534
0.000325636
0.000619033
0.000983656
0.00165005
6.33599e-05
7.33236e-05
7.48994e-05
8.54064e-05
0.000123505
0.000139079
0.000173783
0.000192406
0.000222739
0.000251348
0.000274991
0.000297277
0.000314694
0.00034958
0.000323905
0.000337038
0.000316065
0.000235884
0.000167094
0.000323026
0.0141594
0.0141906
0.0143261
0.0143481
0.0144491
0.0143612
0.014624
0.0145363
0.0142346
0.0144414
0.0145945
0.0128769
0.0127614
0.0124241
0.0124861
0.0119841
0.0118694
0.0110359
0.010725
0.0109026
0.00693045
0.00692846
0.00695842
0.00688763
0.0068885
0.00684055
0.00681649
0.00656803
0.00693609
0.00842714
0.00750395
0.00620021
0.00698481
0.00753177
0.00702436
0.00743463
0.00731561
0.00642996
0.00621569
0.00799854
0.0041136
0.00415911
0.00418778
0.0042734
0.0043164
0.00444079
0.00447022
0.00471151
0.00471814
0.00429675
0.00417523
0.00471742
0.00514367
0.00553605
0.00410636
0.00362797
0.00290482
0.00295052
0.00347749
0.00404654
0.00260209
0.00262214
0.002594
0.00263146
0.00258766
0.0026512
0.00255579
0.00246425
0.00245753
0.00248829
0.00256004
0.00241177
0.00243623
0.00372622
0.00355158
0.00305901
0.00288415
0.00265814
0.00204253
0.00241853
0.00154508
0.00155503
0.00155312
0.00159741
0.00160688
0.00165517
0.00161327
0.00169218
0.00167995
0.00192766
0.00190006
0.00193624
0.00200783
0.00208867
0.00201578
0.00177589
0.0011681
0.00117272
0.000929119
0.000995879
0.00109492
0.00110277
0.00111582
0.00114625
0.00116371
0.00118587
0.00115321
0.00117171
0.00112276
0.00110071
0.00101876
0.00104649
0.000947262
0.00115484
0.0014863
0.00170577
0.0013177
0.00112141
0.000881206
0.00137703
0.000631178
0.000637296
0.000652684
0.000663174
0.000696056
0.000695703
0.000696911
0.000672893
0.00064847
0.000687404
0.00076753
0.000899283
0.000982696
0.00106
0.000801891
0.000651759
0.000570068
0.000595029
0.000447953
0.000230778
0.000456937
0.000467576
0.000478307
0.000475785
0.000478305
0.000480745
0.000485589
0.000461927
0.000455139
0.000454207
0.000469391
0.000491655
0.000424268
0.000456118
0.000634672
0.00052403
0.000365162
0.000455895
0.000501899
0.000674202
0.000231855
0.000237427
0.000239692
0.000232725
0.000230906
0.000225415
0.000231116
0.000254284
0.000274712
0.000281692
0.00029145
0.00029117
0.000309933
0.000330251
0.000314792
0.000302776
0.000282402
0.000282012
0.000205289
0.000171271
0.000119973
0.000124865
0.000130742
0.000131755
0.000128817
0.000105216
0.000107916
0.000117291
0.000141117
0.000169504
0.000203053
0.000200877
0.000217502
0.000227948
0.000239526
0.00024797
0.000255423
0.000268515
0.000255251
0.000282792
3.3534e-05
4.69054e-05
6.05844e-05
6.71313e-05
7.28445e-05
7.71157e-05
8.18704e-05
8.84816e-05
0.000108769
0.000122571
0.000132886
0.000131237
0.000135742
0.00014223
0.000150834
0.000157002
0.000157558
0.000172033
0.000180723
0.000195164
4.08775e-05
4.67988e-05
5.03322e-05
5.99331e-05
5.39632e-05
6.5652e-05
4.78249e-05
6.21516e-05
5.99835e-05
8.03681e-05
0.000104905
0.00010466
0.00011853
0.000124917
0.000132621
0.0001453
0.000134535
0.000153684
0.000165605
0.000178179
4.87511e-05
5.31008e-05
6.22794e-05
6.98463e-05
7.28794e-05
7.73291e-05
8.41812e-05
9.3117e-05
0.000104626
0.000108453
0.000108017
0.000110317
0.000115755
0.000115629
0.00012571
0.000130148
0.000142438
0.0001426
0.000154414
0.000167271
9.5848e-05
9.82724e-05
0.00010389
0.000112671
0.00011878
0.000120211
0.000120529
0.000120229
0.000123346
0.000127344
0.000131769
0.000131697
0.000132642
0.000131119
0.000133541
0.000136268
0.000140955
0.000143662
0.000144289
0.000154844
0.000118831
0.000120136
0.000118186
0.000116361
0.000117807
0.000119041
0.000121601
0.00012489
0.000127862
0.000129975
0.000135096
0.000138604
0.000141888
0.000143017
0.000144714
0.000143036
0.000146804
0.000146733
0.000151309
0.000157956
0.000107683
0.000108474
0.000111026
0.00011531
0.000117914
0.000119954
0.000119921
0.000119196
0.00011831
0.000117647
0.000116144
0.000116941
0.00012126
0.000124178
0.000126759
0.000126474
0.000125711
0.00012661
0.000128605
0.000134664
0.000105246
0.000106361
0.000106413
0.000103608
0.000102238
0.0001032
0.000106121
0.000108843
0.000111502
0.000114289
0.000116989
0.000119144
0.00011807
0.000118048
0.00011938
0.00012406
0.00012642
0.000127324
0.00012605
0.000134642
8.55552e-05
8.61512e-05
8.69338e-05
8.93243e-05
8.8969e-05
8.69205e-05
8.47467e-05
8.24023e-05
8.08692e-05
7.95947e-05
8.00521e-05
7.95556e-05
7.71053e-05
7.66993e-05
7.47924e-05
7.36576e-05
7.32843e-05
7.69613e-05
7.64915e-05
8.10443e-05
6.56237e-05
6.2223e-05
6.04288e-05
5.97663e-05
5.88341e-05
5.62496e-05
5.66425e-05
5.71636e-05
5.7221e-05
5.58807e-05
5.4078e-05
5.55529e-05
5.50771e-05
5.2399e-05
4.94907e-05
4.71312e-05
4.29735e-05
4.01752e-05
3.76909e-05
3.76507e-05
2.94158e-05
2.80269e-05
2.57247e-05
2.23483e-05
2.21182e-05
2.52953e-05
2.33914e-05
2.16785e-05
1.99159e-05
2.42559e-05
2.4788e-05
2.52063e-05
2.44065e-05
2.44013e-05
2.38953e-05
2.30907e-05
2.23602e-05
2.1148e-05
1.95963e-05
2.07576e-05
0.000996613
0.00121508
0.000914419
0.000998767
0.00103627
0.00104749
0.00106294
0.00109184
0.00113444
0.00116562
0.00120887
0.00123648
0.00130506
0.00133473
0.001415
0.00140136
0.00151622
0.00129979
0.00505573
0.0187789
0.000974291
0.00109733
0.000851508
0.000937072
0.000976621
0.00101261
0.00105302
0.00109865
0.00113968
0.00117145
0.00120878
0.00124902
0.00131541
0.00134102
0.00141784
0.00141845
0.0015232
0.00126563
0.00438509
0.0183355
0.000935765
0.00108941
0.000850888
0.000913914
0.00100499
0.00103091
0.00106387
0.00110068
0.00113203
0.00116661
0.00120738
0.0012505
0.00131303
0.00134349
0.00141946
0.00141168
0.00155666
0.00131754
0.00390979
0.0178034
0.00104549
0.0011709
0.000895281
0.00101393
0.00103091
0.00104918
0.00108244
0.00112067
0.00115187
0.00119237
0.00124068
0.00128938
0.0013472
0.00137706
0.00144697
0.00145366
0.00156614
0.00138493
0.00496226
0.0170987
0.00103752
0.00115635
0.000914111
0.000956681
0.000977306
0.000998559
0.00103424
0.00107335
0.00111456
0.00118596
0.00122444
0.0012697
0.00132081
0.00135557
0.00143555
0.00146204
0.00162765
0.00147308
0.00490305
0.0164642
0.00104297
0.00116513
0.000900856
0.00097518
0.00103541
0.00109178
0.00113405
0.00116636
0.0012221
0.00125988
0.00127554
0.00131518
0.00135549
0.00140437
0.00148429
0.00150904
0.0016237
0.00150297
0.00476321
0.0156275
0.00110757
0.00114868
0.000909457
0.00100178
0.00103354
0.0010508
0.00105929
0.00111129
0.00115069
0.00117147
0.00118686
0.00124124
0.00130056
0.00137752
0.00143713
0.0014882
0.00162478
0.00149823
0.00397585
0.0145831
0.000999313
0.00106216
0.000904008
0.000991773
0.00104497
0.00107388
0.00112466
0.00117458
0.00119096
0.00120212
0.00123983
0.00132603
0.00138107
0.00142841
0.00146797
0.00151418
0.00155613
0.00155218
0.00292908
0.0120734
0.00109237
0.0011392
0.000985052
0.0010474
0.00106202
0.0010814
0.00108856
0.00110349
0.00109955
0.00113361
0.00121221
0.0012761
0.00127937
0.0013383
0.0013753
0.00143533
0.0014917
0.00153323
0.00245791
0.00992837
0.000999527
0.0010187
0.000893203
0.000936571
0.000974165
0.000984972
0.00101479
0.00105573
0.00109242
0.0012038
0.00126143
0.00125351
0.00128495
0.0013699
0.00139983
0.00147579
0.00152564
0.00163009
0.00213004
0.00798501
0.00102382
0.00103852
0.000928834
0.000992576
0.00101967
0.00104264
0.0010907
0.00110846
0.00116358
0.00119749
0.00116773
0.00121957
0.00131365
0.00140241
0.00141046
0.00148082
0.00148926
0.00157415
0.00185543
0.00658929
0.000978299
0.000977925
0.000911574
0.000964234
0.000986111
0.00102753
0.00104425
0.00109283
0.00114714
0.00117624
0.00125684
0.00136427
0.00141828
0.00139449
0.00133954
0.00143201
0.0015069
0.00161765
0.00171572
0.00536525
0.000967447
0.000992459
0.000954741
0.000996375
0.00105026
0.00107383
0.00112707
0.00118396
0.00121144
0.00126675
0.00130251
0.0012909
0.00126001
0.00124955
0.00134131
0.00156218
0.00154956
0.00158612
0.00155262
0.00452175
0.000977958
0.00102248
0.000961757
0.00101279
0.00104039
0.00106092
0.00111031
0.0011109
0.00115383
0.00116815
0.00117527
0.00121376
0.00126913
0.00141154
0.00160735
0.00164909
0.00154366
0.00159572
0.00154244
0.00410649
0.000988121
0.00101279
0.000961465
0.00102001
0.00104276
0.00108841
0.00110998
0.00114681
0.00119651
0.00121017
0.00129516
0.00134665
0.00142323
0.00148824
0.00143709
0.00134752
0.00129677
0.00147131
0.00154339
0.00404551
0.000964104
0.00098208
0.000963832
0.00100761
0.00104665
0.00107224
0.00109812
0.00114511
0.00116061
0.0012231
0.00125107
0.00127677
0.00131068
0.0013022
0.00132949
0.00135039
0.00151759
0.00159074
0.00175764
0.00439843
0.000974208
0.00100659
0.000978003
0.00103157
0.00105771
0.00108511
0.00111006
0.00114962
0.00116814
0.00121647
0.00121764
0.00126721
0.00129213
0.0013163
0.00137986
0.0014429
0.0015452
0.00155951
0.00181679
0.00348453
0.000956028
0.000975883
0.000955974
0.00101186
0.00102674
0.00106531
0.00108266
0.00112913
0.00115221
0.00119611
0.00123853
0.00129039
0.00134072
0.00142933
0.00149078
0.00160272
0.00168499
0.00158717
0.00174994
0.0018927
0.000932638
0.000985639
0.000955165
0.00102151
0.00105094
0.00108919
0.00112122
0.00116325
0.00119244
0.00125113
0.00126802
0.00135053
0.00134804
0.00143776
0.00144774
0.00151297
0.00154422
0.00169869
0.00144446
0.0015107
0.00092191
0.000989308
0.000952887
0.00101597
0.00105097
0.00107614
0.00112408
0.00115928
0.00120336
0.00123821
0.00128122
0.00132731
0.0013643
0.0014041
0.00143922
0.00144155
0.00151974
0.00170493
0.00170865
0.00227159
0.000642238
0.000654403
0.000514778
0.000459397
0.00049731
0.000511883
0.000538714
0.000483864
0.000475761
0.000526416
0.000557137
0.000580495
0.000515906
0.000278809
0.000148601
0.00276509
0.00804612
0.0116989
0.0096194
0.00266599
0.000605837
0.000620998
0.000556955
0.000541227
0.000565453
0.000505083
0.000517265
0.000529382
0.00052791
0.000502228
0.00054259
0.000656978
0.000622625
0.000410431
0.000175894
0.00102513
0.00633075
0.011509
0.0106567
0.00464289
0.000665016
0.000700724
0.000586738
0.000494946
0.000567251
0.000581414
0.00058248
0.000532571
0.000556196
0.000585041
0.000594116
0.00061517
0.000707206
0.000652818
0.000354193
0.000231295
0.00432454
0.0105719
0.0117872
0.0066366
0.000624126
0.000702376
0.000697835
0.000576211
0.000583112
0.000551515
0.000603122
0.00060511
0.00057778
0.000589319
0.000627793
0.00069674
0.000759792
0.000720409
0.00055282
0.000352359
0.00200424
0.00968604
0.0124955
0.00859757
0.000671783
0.00070693
0.000673706
0.000587053
0.00063596
0.000624635
0.000620062
0.000607413
0.00063457
0.000638813
0.000667569
0.00070626
0.00075882
0.000841884
0.000732139
0.000377433
0.000907641
0.00861928
0.0128173
0.010874
0.000673719
0.000758162
0.000769502
0.00060771
0.000621177
0.000619217
0.000680699
0.0006655
0.000643833
0.000683057
0.000705499
0.000770275
0.000825081
0.000853728
0.000812833
0.000486978
0.000352542
0.00751468
0.0129498
0.0132039
0.000698589
0.00073132
0.000753753
0.000660175
0.000682767
0.000651128
0.000665756
0.000689447
0.000701649
0.000697054
0.000754085
0.000793461
0.000832188
0.000923788
0.000921073
0.000703535
0.000401124
0.00489928
0.0129384
0.0153592
0.000725033
0.000802205
0.000818034
0.000643919
0.000667637
0.000690897
0.000742348
0.000719346
0.00071961
0.000773575
0.000786733
0.000854689
0.000926807
0.000943789
0.000980161
0.000892559
0.000183453
0.0035126
0.0126817
0.0162886
0.00072072
0.000766829
0.000834988
0.000711245
0.00072477
0.000696484
0.000726553
0.000771194
0.000771451
0.000772331
0.000844415
0.00088706
0.000917579
0.000998245
0.00103669
0.000995743
0.000304172
0.00228274
0.0123966
0.0173098
0.000763099
0.000845867
0.00087796
0.000695405
0.00073011
0.000764987
0.000802673
0.00077917
0.000799356
0.000852932
0.000864265
0.00092946
0.000995755
0.00103424
0.00106646
0.00107161
0.000525033
0.00151212
0.0120311
0.0181078
0.000787466
0.000828268
0.000917021
0.000780634
0.00078976
0.000774693
0.000810231
0.000854274
0.000852173
0.00086281
0.000939022
0.000982057
0.00100286
0.00108296
0.00110046
0.00115267
0.000694897
0.00112904
0.0116259
0.0186518
0.000790315
0.000825195
0.000888496
0.000729364
0.000775709
0.000824914
0.000854902
0.000838878
0.00087569
0.000925066
0.000941858
0.000994749
0.00105822
0.00112433
0.00114157
0.00121357
0.000953345
0.000962272
0.0112663
0.0193863
0.000820859