/*--------------------------------*- C++ -*----------------------------------*\
  =========                 |
  \\      /  F ield         | OpenFOAM: The Open Source CFD Toolbox
   \\    /   O peration     | Website:  https://openfoam.org
    \\  /    A nd           | Version:  9
     \\/     M anipulation  |
\*---------------------------------------------------------------------------*/
FoamFile
{
    format      ascii;
    class       volScalarField;
    location    "7.3";
    object      p;
}
// * * * * * * * * * * * * * * * * * * * * * * * * * * * * * * * * * * * * * //

dimensions      [0 2 -2 0 0 0 0];

internalField   nonuniform List<scalar> 
46400
(
77.3799
86.9082
104.804
119.859
133.737
146.45
157.944
168.583
178.278
187.249
195.488
203.146
210.268
216.943
223.263
229.283
234.918
240.736
246.857
249.475
112.932
122.849
139.149
152.909
165.414
176.949
187.278
196.857
205.531
213.571
220.941
227.751
234.042
239.841
245.242
250.224
254.801
259.326
263.581
265.119
149.185
158.264
172.951
185.539
196.757
207.205
216.506
225.094
232.843
239.942
246.409
252.338
257.789
262.786
267.396
271.623
275.406
279.142
282.344
282.713
185.107
193.376
206.187
217.54
227.484
236.769
244.975
252.53
259.317
265.518
271.142
276.226
280.864
285.043
288.875
292.325
295.415
298.408
301.102
301.135
220.293
226.661
238.059
248.46
257.382
265.684
272.961
279.601
285.497
290.816
295.602
299.912
303.804
307.292
310.432
313.242
315.671
318.04
320.158
319.735
252.46
258.094
268.969
278.362
286.421
293.763
300.115
305.834
310.885
315.375
319.377
322.888
326.036
328.791
331.268
333.433
335.307
337.111
338.747
338.075
283.628
289.453
299.349
307.84
314.753
321.119
326.51
331.309
335.473
339.12
342.337
345.141
347.608
349.738
351.591
353.173
354.47
355.708
356.894
355.909
314.253
320.879
329.209
336.541
342.402
347.657
352.099
355.931
359.253
362.065
364.506
366.538
368.301
369.765
371.034
372.07
372.895
373.671
374.463
373.366
344.733
351.932
358.14
364.11
368.733
372.841
376.286
379.193
381.652
383.677
385.378
386.752
387.854
388.69
389.32
389.748
389.983
390.199
390.398
389.022
374.037
380.867
385.69
390.178
393.835
396.831
399.348
401.329
402.965
404.192
405.152
405.82
406.301
406.558
406.673
406.605
406.378
406.136
405.888
404.27
402.122
407.277
410.952
414.102
416.673
418.699
420.351
421.557
422.481
423.058
423.412
423.483
423.369
423.048
422.605
422.008
421.282
420.546
419.799
417.936
426.895
430.797
433.714
435.928
437.732
438.942
439.835
440.276
440.482
440.381
440.113
439.63
439.008
438.215
437.314
436.29
435.152
434.003
432.842
430.725
448.585
451.686
453.881
455.329
456.465
457.024
457.348
457.256
456.955
456.337
455.536
454.518
453.384
452.095
450.723
449.238
447.67
446.094
444.514
442.131
467.961
470.314
471.854
472.645
473.115
473.088
472.777
472.128
471.286
470.22
469.003
467.616
466.114
464.497
462.799
461.018
459.157
457.296
455.472
452.875
485.075
486.756
487.818
488.017
488.042
487.524
486.852
485.759
484.486
482.944
481.276
479.44
477.522
475.495
473.422
471.286
469.098
466.929
464.825
462.07
499.395
500.511
501.156
500.925
500.471
499.492
498.352
496.926
495.352
493.567
491.645
489.586
487.426
485.177
482.863
480.499
478.08
475.673
473.353
470.4
512.168
512.533
512.75
512.115
511.288
509.946
508.371
506.522
504.517
502.353
500.078
497.713
495.272
492.779
490.244
487.686
485.089
482.521
480.074
477.059
522.611
522.446
522.035
521.071
519.867
518.338
516.559
514.54
512.341
509.978
507.496
504.917
502.27
499.568
496.838
494.088
491.312
488.569
485.978
482.83
529.105
529.116
528.449
527.341
525.857
524.072
522.04
519.81
517.41
514.886
512.25
509.539
506.761
503.949
501.104
498.257
495.378
492.536
489.846
486.648
534.131
534.219
533.546
532.357
530.802
528.907
526.751
524.367
521.822
519.133
516.345
513.481
510.556
507.608
504.632
501.669
498.677
495.738
492.96
489.702
-243.708
-243.174
-234.724
-219.846
-202.164
-185.241
-169.597
-154.556
-140.303
-126.776
-113.931
-101.68
-90.0219
-78.857
-68.2871
-58.0692
-48.5289
-39.2887
-30.7215
-22.5345
-259.038
-258.564
-246.161
-228.406
-208.726
-190.289
-173.117
-157.056
-141.878
-127.573
-114.015
-101.179
-89.0033
-77.3996
-66.4431
-55.8721
-46.0665
-36.5368
-27.8145
-19.3906
-270.992
-270.682
-254.543
-234.305
-213.138
-193.323
-174.921
-157.817
-141.79
-126.708
-112.5
-99.0829
-86.4015
-74.3736
-63.0327
-52.1666
-42.0861
-32.3283
-23.4323
-14.8067
-280.274
-276.855
-257.734
-235.794
-213.921
-193.539
-174.451
-156.689
-140.056
-124.467
-109.783
-95.9636
-82.9276
-70.5951
-58.9802
-47.8743
-37.6208
-27.6557
-18.6683
-9.85373
-282.794
-277.686
-259.141
-235.429
-212.547
-191.296
-171.659
-153.306
-136.185
-120.164
-105.123
-90.9819
-77.6686
-65.1056
-53.2761
-42.0259
-31.614
-21.4997
-12.4877
-3.46268
-281.581
-276.488
-254.475
-230.753
-207.852
-186.234
-166.31
-147.755
-130.345
-114.083
-98.8156
-84.4876
-71.0252
-58.344
-46.4338
-35.1449
-24.6948
-14.5628
-5.63905
3.41235
-276.234
-271.239
-250.086
-224.45
-201.201
-179.27
-158.919
-140.022
-122.415
-105.974
-90.6055
-76.1703
-62.6312
-49.9013
-37.9319
-26.6168
-16.1242
-6.01862
2.89864
11.986
-268.603
-263.148
-241.203
-215.157
-191.284
-169.201
-148.747
-129.853
-112.175
-95.7442
-80.3749
-65.9897
-52.5265
-39.8931
-28.0419
-16.8806
-6.51489
3.46687
12.1757
21.2415
-257.316
-251.144
-228.379
-202.35
-178.609
-156.63
-136.234
-117.408
-99.8743
-83.517
-68.2646
-53.9754
-40.6146
-28.0794
-16.3194
-5.27022
5.00797
14.8384
23.4422
32.4564
-242.108
-235.105
-212.035
-186.393
-162.847
-141.176
-121.032
-102.482
-85.1744
-69.1033
-54.1137
-40.1205
-27.0609
-14.8317
-3.38478
7.3568
17.3716
26.94
35.2332
44.1438
-223.983
-216.292
-192.962
-167.762
-144.655
-123.43
-103.659
-85.4459
-68.5259
-52.752
-38.0783
-24.3463
-11.5523
0.422917
11.6206
22.0877
31.86
41.1268
49.2025
57.9303
-202.491
-194.221
-171.002
-146.276
-123.713
-103.098
-83.859
-66.1809
-49.7421
-34.4891
-20.3026
-7.07563
5.24629
16.7656
27.5202
37.5814
46.9897
55.8856
63.6037
72.169
-178.418
-169.79
-146.618
-122.784
-100.735
-80.819
-62.207
-45.052
-29.1661
-14.3658
-0.634291
12.1901
24.0941
35.2093
45.5597
55.194
64.2155
72.6709
80.0621
88.3132
-151.574
-142.778
-119.466
-96.9616
-75.6355
-56.4223
-38.5653
-22.1195
-6.90077
7.20967
20.2982
32.4915
43.8296
54.4064
64.2482
73.4243
82.0123
90.0238
97.0343
105.086
-122.809
-113.888
-90.6697
-69.1363
-48.8323
-30.4072
-13.3324
2.42362
16.9836
30.5274
43.0549
54.7246
65.5241
75.586
84.9139
93.5667
101.682
109.164
115.801
123.473
-91.9773
-82.8875
-60.2358
-39.7332
-20.4327
-2.94428
13.2675
28.2
41.964
54.7315
66.5429
77.5389
87.7441
97.2421
106.053
114.24
121.895
128.912
135.176
142.623
-59.9603
-50.7203
-28.9206
-9.34631
8.99016
25.6409
41.0086
55.2024
68.2681
80.4043
91.5941
101.992
111.597
120.529
128.772
136.408
143.566
150.023
155.874
162.907
-26.578
-17.3078
3.64435
22.141
39.4388
55.1021
69.5277
82.8348
95.0352
106.359
116.806
126.526
135.535
143.904
151.647
158.825
165.515
171.464
176.864
183.596
7.34023
16.676
36.7814
54.1991
70.5399
85.3224
98.8676
111.393
122.868
133.513
143.307
152.4
160.804
168.613
175.828
182.578
188.853
194.28
199.455
206.609
42.2885
51.9356
71.066
87.1277
102.146
115.84
128.301
139.867
150.433
160.278
169.382
177.902
185.861
193.326
200.368
207.066
213.29
219.097
225.518
232.823
17.0846
59.992
99.2585
122.927
146.707
162.1
176.314
187.207
195.788
203.789
208.916
214.951
217.71
222.315
223.749
228.325
229.344
231.459
231.873
232.118
20.7168
63.17
102.523
125.471
149.048
163.979
177.944
188.61
196.975
204.844
209.814
215.739
218.332
222.841
224.094
229.06
229.569
231.91
231.916
232.244
25.8913
66.9971
105.952
128.053
151.3
165.87
179.538
190.018
198.164
205.897
210.706
216.529
218.97
223.395
224.55
229.768
229.883
232.385
232.034
232.39
30.8111
70.7791
109.549
130.952
153.781
167.948
181.281
191.558
199.456
207.057
211.703
217.411
219.721
224.068
225.118
230.47
230.216
232.814
232.076
232.551
37.1464
75.3364
113.321
133.879
156.195
170.046
182.998
193.102
200.749
208.215
212.697
218.301
220.491
224.818
225.773
231.194
230.496
233.214
232.196
232.746
43.3901
80.0101
117.3
137.112
158.84
172.321
184.856
194.772
202.146
209.477
213.792
219.279
221.38
225.714
226.546
231.907
230.846
233.599
232.307
232.92
50.9834
85.3823
121.464
140.391
161.427
174.623
186.701
196.448
203.547
210.735
214.888
220.262
222.279
226.601
227.35
232.598
231.183
233.967
232.483
233.126
58.6158
90.9563
125.858
143.962
164.236
177.089
188.679
198.24
205.049
212.093
216.076
221.323
223.274
227.547
228.153
233.245
231.486
234.357
232.674
233.31
67.4996
97.1577
130.433
147.587
167.001
179.584
190.654
200.037
206.558
213.446
217.27
222.384
224.263
228.487
228.932
233.881
231.802
234.748
232.884
233.519
76.6496
103.612
135.25
151.495
169.97
182.23
192.755
201.942
208.165
214.891
218.546
223.508
225.349
229.467
229.742
234.481
232.111
235.153
233.124
233.729
86.9246
110.606
140.231
155.456
172.914
184.902
194.866
203.849
209.782
216.333
219.834
224.656
226.382
230.421
230.529
235.099
232.425
235.565
233.376
233.941
97.7006
117.876
145.446
159.68
176.034
187.707
197.092
205.852
211.49
217.857
221.184
225.864
227.519
231.375
231.346
235.794
232.763
235.981
233.641
234.155
109.522
125.619
150.799
163.964
179.15
190.534
199.339
207.857
213.212
219.381
222.552
227.069
228.609
232.331
232.161
236.516
233.101
236.411
233.907
234.385
121.981
133.616
156.35
168.485
182.427
193.48
201.7
209.951
215.018
220.979
223.974
228.351
229.822
233.313
233.015
237.283
233.469
236.854
234.183
234.651
135.557
142.023
161.921
173.004
185.671
196.41
204.072
212.036
216.836
222.578
225.411
229.616
231.025
234.328
233.902
238.002
233.865
237.306
234.433
234.928
150.15
150.944
167.727
177.735
189.05
199.416
206.531
214.181
218.711
224.227
226.882
230.935
232.26
235.419
234.79
238.768
234.319
237.722
234.677
235.24
165.331
160.311
173.782
182.751
192.663
202.585
209.136
216.412
220.66
225.924
228.403
232.273
233.496
236.553
235.734
239.63
234.758
238.151
234.892
235.498
180.571
169.096
179.244
187.425
196.113
205.677
211.768
218.693
222.68
227.699
229.981
233.712
234.808
237.734
236.703
240.561
235.225
238.975
235.152
236.084
201.636
179.196
183.72
190.875
198.526
207.903
213.789
220.471
224.343
229.194
231.343
234.919
235.966
238.781
237.51
241.514
235.644
239.107
234.964
236.231
225.528
195.138
193.4
198.412
203.905
212.024
217.053
223.051
226.489
230.978
232.945
236.425
237.318
239.951
238.576
242.543
236.32
239.235
233.481
236.777
267.937
276.97
265.367
261.242
253.922
252.676
249.308
249.52
247.82
248.817
248.037
249.37
248.187
250.251
248.184
251.053
246.828
252.276
237.69
259.018
330.562
320.889
297.4
291.631
280.186
275.677
269.324
266.452
263.058
261.143
259.426
258.541
257.803
257.473
256.622
257.254
255.449
257.373
255.707
258.323
338.685
329.64
316.945
309.057
300.749
295.204
289.713
286.161
282.48
280.262
277.473
275.982
273.954
273.289
271.924
271.5
270.884
270.524
270.471
271.052
344.626
337.643
327.526
320.559
312.973
307.42
301.828
297.556
293.426
290.142
287.171
284.662
282.318
280.29
278.628
277.388
276.13
275.478
274.983
274.991
339.347
332.376
326.928
321.816
316.841
312.421
308.251
304.671
301.301
298.507
295.795
293.675
291.591
289.84
288.139
286.631
285.41
284.023
283.386
283.151
338.729
336.141
330.486
326.753
322.224
318.652
314.682
311.482
308.074
305.295
302.42
300.005
297.556
295.509
293.475
291.62
290.011
288.623
287.61
287.218
334.612
331.524
329.268
326.307
323.4
320.547
317.779
315.203
312.622
310.372
307.964
306.02
303.744
302.001
299.833
298.191
296.067
294.405
293.041
292.43
335.384
333.508
330.822
328.328
325.851
323.621
321.207
319.115
316.726
314.747
312.445
310.577
308.326
306.549
304.279
302.502
300.092
298.294
296.211
295.65
333.515
332.08
330.894
329.498
327.625
325.947
323.973
322.392
320.496
318.989
317.106
315.697
313.699
312.358
310.139
308.749
306.056
304.576
301.842
301.301
334.384
333.431
331.899
330.624
329.211
328.045
326.529
325.265
323.733
322.502
320.947
319.758
318.108
316.945
315.022
313.848
311.224
310.159
306.834
306.601
334.792
334.09
333.21
332.397
331.264
330.396
329.315
328.499
327.43
326.677
325.606
324.926
323.792
323.198
321.86
321.384
319.323
319.481
315.197
316.861
335.165
334.621
333.92
333.414
332.665
332.163
331.396
330.918
330.187
329.788
329.156
328.867
328.382
328.192
327.835
327.807
327.467
327.63
328.166
329.879
336.491
336.213
335.689
335.401
334.898
334.657
334.21
334.083
333.729
333.731
333.528
333.677
333.719
334.011
334.544
334.87
336.279
336.37
339.459
340.123
337.14
336.97
336.596
336.477
336.135
336.101
335.817
335.914
335.735
336.022
335.998
336.544
336.753
337.727
338.311
339.889
340.948
343.317
346.165
347.375
338.292
338.23
338.016
338.006
337.862
337.973
337.9
338.201
338.225
338.775
338.936
339.814
340.206
341.504
342.367
344.067
345.343
348.055
349.527
353.61
338.959
338.95
338.847
338.897
338.831
338.996
339.016
339.353
339.461
339.992
340.174
341.005
341.241
342.495
342.935
344.616
345.312
347.76
348.595
359.355
339.728
339.746
339.708
339.84
339.902
340.111
340.244
340.535
340.768
341.256
341.602
342.388
342.723
344.091
344.382
346.191
346.584
349.28
350.032
352.38
340.148
340.177
340.178
340.254
340.369
340.598
340.788
341.174
341.4
341.923
342.188
342.841
343.127
343.907
344.342
345.3
345.58
349.629
349.483
352.009
340.659
340.717
340.749
340.929
341.054
341.24
341.408
341.673
341.925
342.33
342.65
343.213
343.577
344.305
344.673
345.442
345.773
346.447
347.243
347.643
340.779
340.848
340.889
341.031
341.127
341.329
341.538
341.831
342.117
342.505
342.86
343.346
343.756
344.34
344.776
345.475
345.846
346.725
346.857
350.358
451.36
449.836
447.799
444.96
441.561
437.336
432.408
426.916
420.322
413.486
405.242
395.879
386.692
376.023
364.981
353.31
341.28
328.431
315.388
302.074
423.176
422.461
421.412
420.057
418.372
416.408
414.071
411.585
408.462
405.533
400.518
395.447
391.788
387.614
383.405
378.716
374.117
368.781
362.142
354.988
385.175
384.796
384.13
383.495
382.592
381.654
380.534
379.263
377.882
376.295
374.476
372.713
370.504
368.292
364.526
361.086
357.797
354.782
351.808
349.763
373.228
372.945
372.616
372.211
371.745
371.194
370.57
369.842
369.054
368.164
367.147
366.248
364.856
364.099
362.072
359.747
357.679
355.679
353.779
352.219
357.271
357.079
356.752
356.505
356.075
355.754
355.232
354.817
354.227
353.704
353.031
352.379
351.587
350.736
349.62
348.408
346.576
345.129
343.341
341.978
351.886
351.716
351.545
351.333
351.113
350.867
350.588
350.302
349.946
349.601
349.173
348.743
348.249
347.759
347.199
346.626
345.548
344.393
343.353
342.493
344.951
344.787
344.616
344.408
344.196
343.939
343.67
343.368
343.016
342.667
342.212
341.815
341.254
340.796
340.136
339.399
338.38
337.526
336.587
335.794
342.664
342.531
342.392
342.236
342.067
341.879
341.674
341.421
341.151
340.861
340.564
340.233
339.882
339.478
339.115
338.648
338.055
337.6
337.115
336.788
339.417
339.271
339.106
338.924
338.735
338.522
338.285
338.051
337.848
337.642
337.401
337.079
336.716
336.361
336.007
335.654
335.29
334.964
334.566
334.268
338.509
338.386
338.252
338.106
337.951
337.786
337.622
337.439
337.253
337.061
336.869
336.675
336.487
336.287
336.089
335.883
335.675
335.469
335.248
335.043
337.929
337.837
337.75
337.663
337.572
337.467
337.363
337.246
337.131
337.006
336.877
336.726
336.569
336.403
336.234
336.058
335.875
335.696
335.501
335.319
338.002
337.925
337.848
337.767
337.68
337.585
337.489
337.386
337.283
337.169
337.052
336.922
336.794
336.653
336.496
336.329
336.128
335.943
335.716
335.506
338.393
338.338
338.28
338.219
338.156
338.09
338.021
337.951
337.876
337.799
337.719
337.636
337.551
337.46
337.369
337.268
337.17
337.056
336.948
336.828
338.729
338.675
338.619
338.561
338.501
338.438
338.374
338.307
338.24
338.169
338.098
338.024
337.949
337.871
337.793
337.712
337.631
337.547
337.462
337.377
339.413
339.369
339.324
339.279
339.233
339.186
339.139
339.09
339.042
338.992
338.942
338.89
338.838
338.785
338.732
338.677
338.622
338.565
338.508
338.45
339.839
339.794
339.75
339.705
339.662
339.618
339.575
339.533
339.49
339.449
339.407
339.366
339.326
339.286
339.246
339.207
339.169
339.13
339.093
339.056
340.404
340.365
340.327
340.289
340.252
340.216
340.18
340.146
340.111
340.078
340.046
340.014
339.983
339.954
339.924
339.897
339.868
339.843
339.817
339.794
340.717
340.674
340.632
340.592
340.556
340.522
340.492
340.463
340.438
340.413
340.389
340.365
340.342
340.321
340.3
340.281
340.261
340.241
340.221
340.201
341.128
341.084
341.044
341.006
340.969
340.932
340.899
340.867
340.838
340.812
340.788
340.765
340.743
340.723
340.705
340.689
340.676
340.667
340.661
340.659
341.206
341.167
341.13
341.094
341.06
341.027
340.996
340.967
340.939
340.913
340.89
340.869
340.85
340.832
340.817
340.803
340.792
340.783
340.778
340.778
308.03
306.989
303.248
299.839
296.546
293.026
289.345
285.422
281.217
276.653
271.701
266.28
260.383
253.823
246.74
238.681
230.126
220.249
209.024
201.512
322.28
322.074
319.651
317.129
314.629
311.871
308.846
305.57
301.98
298.039
293.725
288.95
283.74
277.913
271.576
264.375
256.733
247.861
238.158
231.725
336.546
337.16
335.696
333.843
331.987
329.861
327.486
324.864
321.941
318.695
315.08
311.055
306.582
301.515
295.941
289.509
282.61
274.367
265.58
260.98
352.424
353.536
352.42
351.203
349.912
348.367
346.567
344.539
342.213
339.583
336.604
333.224
329.411
325.04
320.161
314.45
308.228
300.699
292.154
287.723
367.854
369.02
368.219
367.36
366.496
365.419
364.156
362.711
361.006
359.058
356.772
354.151
351.106
347.583
343.547
338.773
333.504
326.865
319.377
314.311
382.618
384.176
383.946
383.684
383.399
382.933
382.281
381.445
380.348
379.012
377.362
375.392
373.045
370.271
367.036
363.161
358.797
353.233
347.023
341.283
397.557
399.155
399.061
399.107
399.132
398.987
398.709
398.294
397.672
396.878
395.823
394.559
392.955
391.042
388.663
385.824
382.491
378.217
373.793
367.893
410.699
412.502
412.955
413.496
414.049
414.48
414.792
414.981
414.993
414.831
414.442
413.84
412.941
411.728
410.111
408.121
405.599
402.517
399.039
394.036
423.647
425.663
426.47
427.341
428.211
428.949
429.582
430.104
430.492
430.776
430.87
430.789
430.43
429.847
428.899
427.668
425.952
423.9
421.179
417.586
434.847
436.995
438.181
439.448
440.735
441.945
443.09
444.161
445.139
445.998
446.687
447.208
447.472
447.535
447.253
446.703
445.682
444.295
442.256
439.343
445.83
448.189
449.739
451.346
452.973
454.521
455.998
457.401
458.698
459.874
460.908
461.801
462.488
462.98
463.144
463.081
462.535
461.759
460.216
458.021
454.936
457.479
459.387
461.343
463.331
465.258
467.151
468.99
470.751
472.437
473.98
475.408
476.6
477.589
478.251
478.727
478.714
478.428
477.416
475.703
463.764
466.557
468.777
471.045
473.318
475.535
477.7
479.785
481.79
483.664
485.403
486.973
488.358
489.589
490.598
491.391
491.688
491.752
491.004
489.887
471.046
473.954
476.342
478.805
481.29
483.74
486.154
488.536
490.852
493.102
495.267
497.335
499.271
501.092
502.628
503.936
504.702
505.265
505.091
504.664
477.925
480.999
483.544
486.198
488.875
491.512
494.115
496.682
499.167
501.594
503.891
506.074
508.068
509.839
511.344
512.579
513.53
514.312
514.491
514.505
482.791
485.869
488.508
491.275
494.071
496.846
499.613
502.351
505.062
507.706
510.289
512.765
515.122
517.32
519.335
521.133
522.714
523.973
524.819
524.905
487.138
490.351
493.117
496.027
498.942
501.857
504.724
507.6
510.382
513.144
515.769
518.332
520.707
522.98
525.004
526.879
528.423
529.671
530.484
530.647
489.424
492.588
495.396
498.344
501.313
504.274
507.227
510.178
513.088
515.977
518.79
521.544
524.191
526.692
529.054
531.124
532.936
534.283
535.225
535.498
491.155
494.449
497.257
500.253
503.28
506.307
509.323
512.34
515.305
518.239
521.073
523.844
526.429
528.926
531.121
533.183
534.824
536.237
536.997
537.79
490.903
494.189
496.931
499.881
502.862
505.847
508.818
511.799
514.725
517.632
520.445
523.189
525.799
528.256
530.542
532.55
534.397
535.778
536.806
537.51
59.6834
54.2066
48.3728
42.3613
36.2822
29.8166
23.3515
16.5202
9.6167
2.43967
-4.89547
-12.5149
-20.2108
-28.2927
-36.3643
-44.3549
-51.1272
-55.7069
-58.5759
-58.748
65.4967
59.8702
54.0178
47.8489
41.6759
35.0921
28.4618
21.4694
14.3464
6.94538
-0.691144
-8.52402
-16.7172
-24.9776
-33.9593
-42.3916
-50.3947
-57.5684
-59.3712
-59.9398
71.5061
65.835
59.9979
53.7638
47.5062
40.7865
33.9975
26.8074
19.4211
11.6956
3.71574
-4.63179
-13.3034
-22.3047
-31.7507
-41.4696
-51.3759
-59.5607
-62.3221
-63.4243
78.0346
72.304
66.4467
60.0617
53.7297
46.8646
39.9031
32.5156
24.8838
16.9038
8.54433
-0.152085
-9.30959
-19.0273
-29.1258
-39.9326
-51.1092
-60.5113
-66.0995
-67.1156
85.0526
79.2578
73.4205
66.9876
60.5508
53.6164
46.5016
38.9662
31.105
22.8423
14.1934
5.08759
-4.55224
-14.6904
-25.4212
-37.0163
-49.0632
-59.6699
-68.7345
-71.0579
92.7667
86.9097
81.0953
74.5954
68.1221
61.0741
53.8473
46.1529
38.107
29.6278
20.6906
11.2697
1.2735
-9.27053
-20.6312
-32.6479
-45.0472
-57.2445
-68.8308
-70.7089
101.074
95.1999
89.4591
82.9739
76.4651
69.4263
62.1156
54.351
46.1578
37.5041
28.3363
18.6168
8.25691
-2.79105
-14.7062
-27.3485
-40.7937
-55.1949
-66.3999
-67.3542
110.097
104.246
98.6623
92.1989
85.8192
78.759
71.4265
63.6145
55.3545
46.5751
37.265
27.3489
16.7226
5.37177
-6.90357
-20.1128
-34.5058
-49.7703
-62.1186
-64.8878
120.024
114.289
108.869
102.517
96.1344
89.2316
81.9314
74.1634
65.9044
57.1259
47.7549
37.7691
27.0455
15.5553
3.13963
-10.3047
-24.7387
-40.0874
-53.4805
-56.1483
131.164
125.438
120.189
114.007
107.701
100.876
93.6639
85.9577
77.7503
68.9688
59.6227
49.5936
38.7862
27.2482
14.6518
1.09909
-13.5456
-29.4861
-43.5595
-47.3637
143.863
138.073
132.86
126.758
120.531
113.865
106.766
99.1934
91.1167
82.4878
73.2401
63.3208
52.6177
41.1278
28.5407
15.0658
0.232764
-15.7214
-30.7343
-35.3606
156.156
150.578
145.719
139.977
134.022
127.62
120.778
113.442
105.593
97.1421
88.1221
78.3697
67.8556
56.5547
44.1543
30.9358
16.4034
0.559631
-14.7015
-19.8584
170.49
165.102
160.397
154.894
149.14
142.993
136.382
129.287
121.692
113.525
104.738
95.2524
85.01
73.9402
61.7582
48.8301
34.2144
18.7316
3.16159
-2.70754
184.656
179.462
175.14
170.047
164.642
158.854
152.609
145.878
138.646
130.812
122.416
113.277
103.421
92.7129
81.0089
68.4772
54.3909
39.4864
23.9799
17.8499
200.517
195.622
191.576
186.848
181.755
176.311
170.402
164.007
157.135
149.69
141.653
132.915
123.477
113.198
101.91
89.8367
76.0486
61.7303
46.0121
39.5719
216.598
211.864
208.178
203.879
199.158
194.103
188.611
182.653
176.224
169.222
161.679
153.423
144.525
134.742
124.133
112.637
99.6084
86.3843
70.3457
63.6246
233.913
229.536
226.18
222.318
217.967
213.305
208.211
202.639
196.623
190.06
182.95
175.18
166.774
157.549
147.507
136.516
124.205
111.442
95.7123
88.8089
251.371
247.278
244.268
240.843
236.859
232.567
227.882
222.76
217.202
211.134
204.565
197.349
189.568
180.944
171.631
161.352
149.935
138.054
122.922
115.669
270.536
266.187
263.442
260.498
256.837
252.889
248.604
243.882
238.761
233.157
227.067
220.393
213.156
205.154
196.512
186.833
176.283
164.891
150.777
143.703
293.414
288.897
285.011
281.583
277.872
273.862
269.643
265.147
260.323
255.112
249.5
243.36
236.747
229.409
221.498
212.605
203.007
192.427
179.413
172.294
258.401
258.054
257.36
256.123
254.088
251.762
249.572
246.395
243.127
238.887
233.803
228.108
219.797
212.235
199.093
187.881
167.054
150.021
118.374
87.3941
258.497
258.171
257.543
256.183
254.37
252.009
249.965
246.88
243.741
239.606
234.709
229.163
221.093
213.584
200.806
190.056
169.382
153.466
122.44
93.0975
258.625
258.399
257.852
256.213
254.688
252.282
250.424
247.389
244.362
240.292
235.548
230.046
222.282
214.987
202.561
192.17
172.222
157.115
126.448
98.8902
258.739
258.503
258.176
256.248
255
252.549
250.858
247.934
245.038
241.088
236.553
231.213
223.755
216.523
204.45
194.462
175.087
160.648
131.054
105.243
258.885
258.629
258.651
256.333
255.307
252.87
251.344
248.506
245.72
241.853
237.492
232.216
225.067
218.126
206.467
196.793
178.218
164.702
135.6
111.809
259.017
258.791
259.012
256.439
255.583
253.179
251.815
249.112
246.454
242.728
238.586
233.493
226.61
219.818
208.617
199.298
181.328
168.637
140.639
119.006
259.182
258.931
259.405
256.633
255.953
253.538
252.338
249.746
247.197
243.575
239.626
234.619
228.113
221.551
210.817
201.819
184.75
173.011
145.871
126.517
259.327
259.072
259.809
256.891
256.38
253.918
252.849
250.413
247.989
244.53
240.811
235.991
229.777
223.421
213.155
204.527
188.162
177.319
151.571
134.332
259.525
259.22
260.2
257.251
256.9
254.353
253.41
251.108
248.793
245.463
241.949
237.236
231.437
225.27
215.517
207.235
191.874
182.055
157.437
142.439
259.688
259.391
260.6
257.591
257.341
254.821
253.956
251.833
249.644
246.497
243.219
238.709
233.225
227.29
218.018
210.115
195.639
186.736
163.901
152.464
259.904
259.561
260.969
257.977
257.854
255.355
254.549
252.585
250.511
247.517
244.448
240.074
235.009
229.27
220.531
213.004
199.613
191.65
170.386
162.018
260.107
259.732
261.338
258.306
258.307
255.914
255.139
253.36
251.421
248.628
245.797
241.646
236.927
231.426
223.169
216.047
203.664
196.674
177.461
171.985
260.337
259.902
261.737
258.678
258.722
256.494
255.773
254.164
252.352
249.731
247.113
243.132
238.826
233.525
225.824
219.094
207.888
201.977
184.64
182.362
260.563
260.075
262.195
259.028
259.192
257.09
256.412
254.996
253.331
250.921
248.543
244.806
240.878
235.813
228.59
222.277
212.203
207.314
192.308
193.675
260.828
260.222
262.643
259.444
259.645
257.695
257.063
255.842
254.319
252.096
249.94
246.413
242.885
238.007
231.343
225.444
216.578
212.672
200.04
205.317
261.068
260.241
262.981
259.857
259.99
258.253
257.696
256.69
255.325
253.321
251.419
248.165
245.027
240.37
234.169
228.676
221.069
218.237
208.41
218.201
261.277
260.145
263.352
260.366
260.48
258.887
258.706
257.713
256.494
254.666
252.962
249.955
247.222
242.761
237.146
232.122
225.837
224.047
217.033
231.084
261.921
260.149
264.184
260.818
260.795
259.526
259.613
258.651
257.583
255.999
254.57
251.88
249.525
245.258
240.078
235.386
230.278
229.25
224.81
243.9
261.872
259.934
264.246
261.155
260.312
259.896
259.618
259.065
258.12
256.885
255.684
253.347
251.24
246.994
242.033
237.811
233.772
234.657
234.038
261.822
262.696
258.773
264.227
262.391
262.009
261.591
261.398
260.759
260.014
258.684
257.769
255.64
254.142
250.329
246.315
242.797
241.286
243.515
250.15
283.475
286.784
263.372
281.623
276.67
284.073
281.017
282.717
280.3
281.415
278.84
280.037
277.927
280.595
279.498
286.455
285.476
298.276
298.433
320.014
318.801
283.441
280.139
283.653
281.259
284.73
283.728
285.987
285.546
287.242
287.297
289.817
290.713
294.841
296.84
303.56
308.023
319.727
326.565
346.542
356.126
295.144
294.739
295.278
295.67
297.04
297.908
299.123
299.675
301.097
302.226
304.411
306.5
309.955
313.16
318.745
323.985
331.91
339.248
350.127
360.415
298.363
298.445
298.562
299.652
300.443
301.546
302.891
304.288
306.3
308.423
311.103
313.915
317.445
321.519
326.313
331.485
337.864
344.704
352.651
359.693
304.15
304.377
304.822
306.123
306.948
308.395
309.684
311.34
313.047
315.046
317.276
319.793
322.678
325.891
329.409
333.432
337.545
342.246
346.899
352.739
306.063
306.258
307.002
308.151
309.336
310.974
312.617
314.425
316.481
318.588
320.955
323.497
326.185
329.223
332.19
335.732
338.804
342.817
345.407
348.844
308.336
308.515
309.572
310.946
312.616
314.334
316.119
317.835
319.738
321.522
323.562
325.504
327.67
329.824
332.066
334.427
336.645
339.166
341.518
344.007
309.244
309.872
310.992
313.076
314.897
316.82
318.703
320.462
322.4
324.13
326.091
327.883
329.842
331.714
333.631
335.532
337.476
339.316
340.389
342.111
309.067
310.427
311.998
314.633
316.99
318.972
321.098
322.632
324.544
325.89
327.617
328.879
330.487
331.726
333.071
334.349
335.56
336.879
338.165
339.057
312.527
312.969
315.55
318.194
320.806
322.438
324.536
325.787
327.539
328.652
330.179
331.216
332.57
333.541
334.875
335.89
336.904
337.659
338.116
338.942
318.242
318.269
321.769
322.428
325.321
326.198
328.237
328.862
330.492
331.056
332.347
332.916
333.984
334.575
335.341
335.705
336.188
336.643
337.133
337.655
328.069
326.141
330.028
329.158
331.459
331.413
332.834
332.884
334.017
334.133
335.074
335.287
336.061
336.352
336.971
337.379
337.954
338.111
338.41
338.438
340.74
338.447
338.181
337.495
337.782
337.285
337.624
337.297
337.643
337.464
337.827
337.774
338.13
338.144
338.486
338.466
338.667
338.6
338.788
338.78
350.523
348.842
345.997
344.693
343.51
342.371
341.894
341.03
340.992
340.312
340.412
339.911
340.016
339.677
339.742
339.543
339.577
339.51
339.508
339.315
357.479
356.563
353.423
349.381
349.096
345.523
346.085
343.211
344.107
342.176
342.733
341.566
341.81
341.131
341.18
340.774
340.719
340.437
340.348
340.128
368.092
358.322
361.003
351.92
352.77
348.184
348.89
345.51
346.244
344.516
344.478
343.54
343.248
342.668
342.342
341.935
341.654
341.339
341.108
340.837
367.339
361.904
361.948
351.141
351.102
349.361
348.893
347.55
346.866
345.938
345.359
344.632
344.17
343.591
343.216
342.752
342.435
342.061
341.79
341.485
359.059
357.204
354.83
353.397
352.398
350.925
350.243
348.815
348.281
347.11
346.579
345.694
345.177
344.508
344.034
343.519
343.109
342.706
342.365
342.045
361.27
354.483
354.452
353.433
352.487
351.277
350.349
349.347
348.479
347.651
346.891
346.189
345.553
344.954
344.435
343.925
343.481
343.065
342.692
342.351
357.688
355.995
355.435
353.782
352.996
351.679
350.841
349.739
348.946
348.019
347.299
346.528
345.888
345.254
344.694
344.179
343.718
343.288
342.907
342.557
345.233
355.899
365.541
375.138
385.319
394.262
402.455
410.313
417.534
423.818
429.667
434.716
439.371
443.038
446.338
448.695
450.65
451.703
452.289
452.048
375.998
380.638
385.2
389.139
393.368
396.491
400.483
405.217
408.916
411.308
413.961
416.047
418.047
419.679
421.101
422.151
422.992
423.477
423.695
423.595
369.238
370.648
372.841
374.353
376.149
377.521
379.093
380.093
381.376
382.21
383.182
383.809
384.522
384.946
385.39
385.628
385.798
385.842
385.73
385.571
364.403
365.222
366.462
367.29
368.356
369.104
369.989
370.652
371.37
371.905
372.453
372.845
373.189
373.43