/*--------------------------------*- C++ -*----------------------------------*\
  =========                 |
  \\      /  F ield         | OpenFOAM: The Open Source CFD Toolbox
   \\    /   O peration     | Website:  https://openfoam.org
    \\  /    A nd           | Version:  9
     \\/     M anipulation  |
\*---------------------------------------------------------------------------*/
FoamFile
{
    format      ascii;
    class       surfaceScalarField;
    location    "7.3";
    object      phi;
}
// * * * * * * * * * * * * * * * * * * * * * * * * * * * * * * * * * * * * * //

dimensions      [0 3 -1 0 0 0 0];

internalField   nonuniform List<scalar> 
92080
(
-0.00511104
-0.530391
0.535502
-0.0326227
-1.06446
1.09197
-0.0768971
-1.17589
1.22016
-0.122917
-1.15659
1.20261
-0.168272
-1.13646
1.18182
-0.212836
-1.11703
1.16159
-0.2566
-1.09876
1.14252
-0.300208
-1.08149
1.1251
-0.343347
-1.0656
1.10873
-0.386406
-1.05032
1.09338
-0.429114
-1.03667
1.07938
-0.470594
-1.0244
1.06588
-0.511275
-1.01219
1.05287
-0.550935
-1.001
1.04066
-0.589613
-0.9894
1.02808
-0.628112
-0.97767
1.01617
-0.665159
-0.96676
1.00381
-0.701843
-0.954337
0.991022
-0.737698
-0.943122
0.978976
-0.935509
0.967516
-0.769705
-0.00582564
-0.524565
-0.035789
-1.0345
-0.0841233
-1.12755
-0.13228
-1.10843
-0.179061
-1.08968
-0.225296
-1.07079
-0.27092
-1.05314
-0.315676
-1.03673
-0.359623
-1.02165
-0.402641
-1.0073
-0.446017
-0.993295
-0.489444
-0.980978
-0.532316
-0.969322
-0.574664
-0.958654
-0.615299
-0.948766
-0.654581
-0.938387
-0.692569
-0.928773
-0.728472
-0.918434
-0.762822
-0.908773
-0.901988
-0.796343
-0.00800672
-0.516558
-0.0402747
-1.00223
-0.0888887
-1.07894
-0.138304
-1.05901
-0.186726
-1.04126
-0.234011
-1.02351
-0.280561
-1.00659
-0.326853
-0.990442
-0.372997
-0.975504
-0.418277
-0.962021
-0.462418
-0.949153
-0.506021
-0.937375
-0.549059
-0.926284
-0.591894
-0.91582
-0.634378
-0.906281
-0.676041
-0.896725
-0.717053
-0.88776
-0.757217
-0.87827
-0.797248
-0.868741
-0.862305
-0.836931
-0.00965205
-0.506906
-0.045043
-0.966838
-0.0962631
-1.02772
-0.146617
-1.00866
-0.19602
-0.991857
-0.244834
-0.974691
-0.292702
-0.958719
-0.339552
-0.943592
-0.385767
-0.929289
-0.431901
-0.915888
-0.478
-0.903053
-0.523963
-0.891412
-0.569391
-0.880856
-0.614223
-0.870987
-0.658322
-0.862182
-0.701703
-0.853344
-0.743975
-0.845488
-0.784748
-0.837497
-0.825104
-0.828386
-0.820874
-0.866535
-0.0108421
-0.496064
-0.0520513
-0.925628
-0.103419
-0.976351
-0.154968
-0.957112
-0.205452
-0.941373
-0.255051
-0.925092
-0.304149
-0.909621
-0.352914
-0.894826
-0.401032
-0.881171
-0.448211
-0.868709
-0.494606
-0.856658
-0.540676
-0.845341
-0.586675
-0.834857
-0.632576
-0.825086
-0.678224
-0.816535
-0.72374
-0.807827
-0.76951
-0.799719
-0.814088
-0.792918
-0.857077
-0.785397
-0.777886
-0.900065
-0.0088932
-0.487171
-0.0531963
-0.881325
-0.105889
-0.923658
-0.158437
-0.904565
-0.210705
-0.889105
-0.262232
-0.873565
-0.312573
-0.85928
-0.362316
-0.845084
-0.411714
-0.831774
-0.460642
-0.81978
-0.509263
-0.808037
-0.557213
-0.797392
-0.604675
-0.787395
-0.651904
-0.777857
-0.698545
-0.769894
-0.744033
-0.762339
-0.789599
-0.754153
-0.835564
-0.746953
-0.8804
-0.74056
-0.733272
-0.925014
-0.00745898
-0.479712
-0.0533898
-0.835394
-0.109308
-0.86774
-0.164099
-0.849774
-0.217385
-0.835819
-0.27026
-0.820689
-0.32219
-0.80735
-0.372742
-0.794532
-0.422987
-0.781529
-0.472293
-0.770474
-0.520966
-0.759364
-0.569516
-0.748842
-0.617566
-0.739345
-0.665926
-0.729497
-0.715013
-0.720808
-0.763485
-0.713866
-0.810781
-0.706857
-0.858126
-0.699608
-0.904847
-0.693839
-0.687288
-0.950831
-0.00350873
-0.476203
-0.0506798
-0.788223
-0.107819
-0.810601
-0.164846
-0.792746
-0.220575
-0.78009
-0.274893
-0.766371
-0.329148
-0.753095
-0.382164
-0.741515
-0.434245
-0.729448
-0.486076
-0.718643
-0.536711
-0.708729
-0.586623
-0.698931
-0.635249
-0.690718
-0.682233
-0.682514
-0.729687
-0.673354
-0.777922
-0.665631
-0.825769
-0.659011
-0.87366
-0.651718
-0.921511
-0.645987
-0.640206
-0.968593
-0.00142069
-0.474783
-0.0526725
-0.736971
-0.113817
-0.749457
-0.172012
-0.734551
-0.229306
-0.722796
-0.284316
-0.711361
-0.338082
-0.699328
-0.39108
-0.688517
-0.442689
-0.677839
-0.493513
-0.667819
-0.543978
-0.658264
-0.594677
-0.648232
-0.646337
-0.639058
-0.696471
-0.63238
-0.744791
-0.625034
-0.79311
-0.617313
-0.840754
-0.611367
-0.887966
-0.604505
-0.935581
-0.598372
-0.593061
-0.982726
-0.00219551
-0.472587
-0.0557931
-0.683374
-0.116364
-0.688886
-0.175222
-0.675693
-0.233213
-0.664806
-0.289909
-0.654664
-0.345441
-0.643796
-0.400143
-0.633815
-0.454491
-0.623491
-0.508138
-0.614172
-0.559591
-0.606811
-0.608718
-0.599105
-0.658082
-0.589694
-0.708694
-0.581768
-0.758196
-0.575531
-0.807346
-0.568163
-0.856422
-0.562291
-0.904273
-0.556654
-0.951985
-0.550661
-0.545101
-0.999945
-0.0089258
-0.463661
-0.0649155
-0.627384
-0.126699
-0.627102
-0.185309
-0.617083
-0.243388
-0.606728
-0.299641
-0.598411
-0.354534
-0.588903
-0.408008
-0.580342
-0.459694
-0.571805
-0.512366
-0.5615
-0.566437
-0.55274
-0.618925
-0.546617
-0.668963
-0.539656
-0.719142
-0.531589
-0.76906
-0.525613
-0.818045
-0.519178
-0.867287
-0.513049
-0.916003
-0.507938
-0.963613
-0.503051
-0.497814
-1.0109
-0.0188599
-0.444802
-0.0754836
-0.57076
-0.135824
-0.566762
-0.194924
-0.557983
-0.253537
-0.548115
-0.311509
-0.540439
-0.367954
-0.532458
-0.424049
-0.524247
-0.477815
-0.518039
-0.528107
-0.511208
-0.578771
-0.502077
-0.630954
-0.494434
-0.681883
-0.488727
-0.731867
-0.481605
-0.782103
-0.475377
-0.83139
-0.46989
-0.880191
-0.464247
-0.929241
-0.458889
-0.977718
-0.454573
-0.449762
-1.02577
-0.0277419
-0.41706
-0.0842763
-0.514226
-0.14248
-0.508558
-0.20095
-0.499512
-0.258292
-0.490774
-0.314733
-0.483998
-0.36993
-0.47726
-0.425106
-0.469071
-0.482428
-0.460717
-0.538012
-0.455625
-0.590467
-0.449622
-0.642658
-0.442242
-0.694728
-0.436657
-0.74537
-0.430963
-0.795613
-0.425135
-0.845752
-0.419751
-0.895083
-0.414917
-0.944127
-0.409844
-0.993238
-0.405463
-0.401306
-1.04169
-0.0354373
-0.381622
-0.0957493
-0.453914
-0.157663
-0.446645
-0.215657
-0.441519
-0.274481
-0.431949
-0.33296
-0.425519
-0.389704
-0.420516
-0.442371
-0.416404
-0.493967
-0.409121
-0.547496
-0.402096
-0.600031
-0.397087
-0.651085
-0.391188
-0.702329
-0.385412
-0.753139
-0.380153
-0.803169
-0.375105
-0.853056
-0.369864
-0.902725
-0.365248
-0.951926
-0.360643
-1.00101
-0.356377
-0.352176
-1.05014
-0.0419759
-0.339646
-0.101785
-0.394105
-0.16157
-0.38686
-0.218618
-0.384471
-0.273167
-0.3774
-0.329553
-0.369132
-0.389091
-0.360979
-0.448781
-0.356714
-0.504855
-0.353047
-0.559558
-0.347393
-0.614137
-0.342508
-0.667616
-0.337709
-0.719736
-0.333293
-0.771393
-0.328497
-0.822249
-0.324248
-0.872144
-0.319969
-0.921636
-0.315756
-0.97069
-0.31159
-1.01922
-0.307849
-0.303989
-1.06741
-0.0450391
-0.294607
-0.103074
-0.33607
-0.163617
-0.326316
-0.225507
-0.322581
-0.283433
-0.319475
-0.336593
-0.315972
-0.388614
-0.308957
-0.443002
-0.302326
-0.498285
-0.297763
-0.55286
-0.292818
-0.60711
-0.288258
-0.661191
-0.283628
-0.714821
-0.279662
-0.767285
-0.276032
-0.819534
-0.272
-0.871034
-0.268468
-0.921945
-0.264845
-0.972386
-0.261149
-1.02258
-0.257657
-0.254337
-1.07223
-0.0481891
-0.246418
-0.107463
-0.276796
-0.167043
-0.266737
-0.228573
-0.26105
-0.291824
-0.256225
-0.35325
-0.254545
-0.410874
-0.251333
-0.465998
-0.247203
-0.52024
-0.243521
-0.573786
-0.239273
-0.626168
-0.235876
-0.677883
-0.231913
-0.729369
-0.228176
-0.780596
-0.224805
-0.83119
-0.221406
-0.881528
-0.218131
-0.931452
-0.21492
-0.980661
-0.21194
-1.02967
-0.208646
-0.205698
-1.07831
-0.0566391
-0.189779
-0.119003
-0.214432
-0.175567
-0.210173
-0.230312
-0.206305
-0.286096
-0.200441
-0.343794
-0.196847
-0.401656
-0.193471
-0.458726
-0.190132
-0.514765
-0.187482
-0.569779
-0.184259
-0.623992
-0.181664
-0.677522
-0.178382
-0.730073
-0.175625
-0.782329
-0.172549
-0.833598
-0.170138
-0.884211
-0.167517
-0.934311
-0.16482
-0.983751
-0.162501
-1.03251
-0.159888
-0.15731
-1.0809
-0.0586906
-0.131089
-0.121758
-0.151364
-0.183032
-0.148899
-0.243383
-0.145954
-0.300784
-0.14304
-0.357052
-0.14058
-0.412204
-0.138319
-0.46686
-0.135476
-0.521443
-0.1329
-0.575549
-0.130152
-0.629247
-0.127966
-0.682199
-0.12543
-0.734439
-0.123385
-0.785966
-0.121022
-0.83724
-0.118864
-0.887808
-0.116948
-0.93777
-0.114859
-0.987487
-0.112784
-1.03642
-0.110951
-0.10881
-1.08492
-0.0509898
-0.0800987
-0.112466
-0.0898876
-0.171366
-0.0899992
-0.232139
-0.0851811
-0.292422
-0.0827568
-0.351481
-0.0815213
-0.409128
-0.0806721
-0.466142
-0.0784612
-0.521243
-0.0777991
-0.575815
-0.0755794
-0.629482
-0.0743002
-0.682247
-0.0726651
-0.734444
-0.0711882
-0.785855
-0.0696107
-0.836796
-0.0679229
-0.8873
-0.0664449
-0.937227
-0.0649311
-0.986605
-0.0634062
-1.03558
-0.0619732
-1.08401
-0.0603814
0.0452829
-0.177615
0.132332
0.146137
-0.750227
0.649373
0.230265
-1.31006
1.22594
0.267671
-1.55448
1.51708
0.280038
-1.58781
1.57544
0.285456
-1.57943
1.57401
0.287374
-1.56015
1.55823
0.28908
-1.54296
1.54125
0.289889
-1.5272
1.52639
0.289887
-1.51265
1.51265
0.289292
-1.49856
1.49916
0.288016
-1.48487
1.48614
0.286053
-1.47151
1.47348
0.283386
-1.45822
1.46089
0.280031
-1.44525
1.4486
0.275997
-1.43084
1.43488
0.271371
-1.41482
1.41945
0.266584
-1.39575
1.40054
0.261753
-1.37934
1.38417
-1.36322
0.257335
1.36764
0.0449813
-0.222596
0.130078
-0.835324
0.197161
-1.37715
0.221722
-1.57904
0.22868
-1.59477
0.230514
-1.58126
0.231026
-1.56066
0.231225
-1.54316
0.230767
-1.52674
0.229599
-1.51148
0.227658
-1.49662
0.22523
-1.48244
0.222362
-1.46865
0.219222
-1.45508
0.215607
-1.44164
0.211463
-1.4267
0.206606
-1.40997
0.201418
-1.39056
0.196124
-1.37405
-1.35828
0.191187
0.0478754
-0.270472
0.118801
-0.906249
0.172424
-1.43077
0.188602
-1.59522
0.192285
-1.59845
0.191082
-1.58006
0.189665
-1.55925
0.187171
-1.54066
0.183995
-1.52356
0.180347
-1.50783
0.17628
-1.49255
0.171599
-1.47776
0.1664
-1.46345
0.160719
-1.4494
0.154768
-1.43568
0.148628
-1.42056
0.142155
-1.40349
0.135388
-1.3838
0.128386
-1.36705
-1.3514
0.121504
0.0482031
-0.318675
0.108201
-0.966247
0.147107
-1.46968
0.154001
-1.60212
0.152562
-1.59701
0.148276
-1.57577
0.144195
-1.55517
0.140005
-1.53647
0.135406
-1.51896
0.130221
-1.50265
0.124501
-1.48683
0.118443
-1.4717
0.111992
-1.457
0.105182
-1.44259
0.0978352
-1.42834
0.0900646
-1.41279
0.0821233
-1.39555
0.0742376
-1.37591
0.0662792
-1.35909
-1.34359
0.0584694
0.039345
-0.35802
0.0912474
-1.01815
0.122519
-1.50095
0.124974
-1.60457
0.12024
-1.59228
0.113746
-1.56928
0.107243
-1.54866
0.0999651
-1.52919
0.0922499
-1.51125
0.0843098
-1.49471
0.0760686
-1.47859
0.0675006
-1.46313
0.0587224
-1.44822
0.049823
-1.43369
0.0409485
-1.41946
0.0320031
-1.40384
0.0225953
-1.38614
0.0129311
-1.36625
0.00308596
-1.34924
-1.33366
-0.006841
0.0342674
-0.392287
0.0826145
-1.0665
0.100236
-1.51857
0.09625
-1.60059
0.0876582
-1.58369
0.0790407
-1.56066
0.0698452
-1.53947
0.0606907
-1.52004
0.0512412
-1.5018
0.0414319
-1.4849
0.0313315
-1.46849
0.0208571
-1.45266
0.0100778
-1.43744
-0.00103871
-1.42257
-0.0123893
-1.40811
-0.0235528
-1.39268
-0.0342971
-1.3754
-0.0449253
-1.35562
-0.0558161
-1.33835
-1.32289
-0.066591
0.0265309
-0.418818
0.0642897
-1.10426
0.078081
-1.53236
0.0707065
-1.59321
0.0596644
-1.57265
0.0482755
-1.54927
0.0366926
-1.52788
0.0246062
-1.50795
0.0123373
-1.48953
-0.000100441
-1.47246
-0.0126302
-1.45596
-0.0251851
-1.4401
-0.0378752
-1.42475
-0.0505717
-1.40988
-0.0633499
-1.39533
-0.0763738
-1.37965
-0.0895806
-1.36219
-0.102509
-1.34269
-0.115596
-1.32527
-1.30961
-0.128875
0.0240724
-0.442891
0.0542847
-1.13447
0.0581295
-1.5362
0.0471212
-1.5822
0.0332011
-1.55873
0.0192809
-1.53535
0.00495279
-1.51356
-0.00941214
-1.49359
-0.0240883
-1.47485
-0.0388942
-1.45765
-0.0538924
-1.44096
-0.0691559
-1.42484
-0.084391
-1.40951
-0.0997263
-1.39454
-0.114784
-1.38028
-0.129213
-1.36522
-0.143191
-1.34822
-0.157258
-1.32862
-0.171462
-1.31106
-1.29535
-0.185727
0.0221254
-0.465016
0.0465403
-1.15888
0.0440511
-1.53372
0.0282573
-1.56641
0.0110865
-1.54155
-0.00599805
-1.51827
-0.0231397
-1.49641
-0.0404069
-1.47632
-0.057548
-1.45771
-0.0747199
-1.44048
-0.0917498
-1.42393
-0.108777
-1.40781
-0.126074
-1.39222
-0.143446
-1.37717
-0.161099
-1.36262
-0.178741
-1.34758
-0.195817
-1.33114
-0.212177
-1.31226
-0.22888
-1.29436
-1.27858
-0.245645
0.0184436
-0.48346
0.0363647
-1.1768
0.0276213
-1.52497
0.00848931
-1.54728
-0.0115069
-1.52156
-0.031503
-1.49827
-0.0514205
-1.4765
-0.0713409
-1.4564
-0.0914641
-1.43759
-0.111558
-1.42039
-0.131634
-1.40386
-0.151495
-1.38795
-0.17098
-1.37273
-0.190305
-1.35784
-0.209121
-1.34381
-0.227451
-1.32925
-0.245431
-1.31316
-0.263142
-1.29455
-0.280721
-1.27678
-1.26091
-0.298394
0.0159597
-0.499419
0.0284893
-1.18933
0.0146402
-1.51112
-0.00784392
-1.52479
-0.0305114
-1.49889
-0.0529259
-1.47586
-0.0754936
-1.45393
-0.097913
-1.43398
-0.120047
-1.41545
-0.142091
-1.39834
-0.163998
-1.38195
-0.186079
-1.36587
-0.208404
-1.3504
-0.230785
-1.33546
-0.253323
-1.32127
-0.275359
-1.30722
-0.296305
-1.29221
-0.316321
-1.27454
-0.336669
-1.25643
-1.24075
-0.35683
0.0129198
-0.512339
0.0198054
-1.19622
0.00135117
-1.49267
-0.024387
-1.49906
-0.0502664
-1.47301
-0.076072
-1.45005
-0.101385
-1.42862
-0.126677
-1.40869
-0.152084
-1.39005
-0.177286
-1.37314
-0.202095
-1.35714
-0.226266
-1.3417
-0.249964
-1.32671
-0.273469
-1.31196
-0.296628
-1.29811
-0.319631
-1.28421
-0.342185
-1.26966
-0.363748
-1.25297
-0.384981
-1.2352
-1.21938
-0.406347
0.0106378
-0.522977
0.0127696
-1.19835
-0.0102918
-1.46961
-0.0385588
-1.47079
-0.0666377
-1.44493
-0.0943314
-1.42236
-0.122156
-1.40079
-0.149591
-1.38125
-0.176683
-1.36295
-0.203783
-1.34604
-0.230932
-1.32999
-0.258216
-1.31442
-0.28542
-1.2995
-0.312464
-1.28491
-0.339452
-1.27112
-0.36575
-1.25792
-0.391026
-1.24438
-0.415171
-1.22883
-0.438999
-1.21137
-1.19569
-0.462692
0.00799344
-0.53097
0.00513371
-1.19549
-0.0218991
-1.44257
-0.053279
-1.43941
-0.0844517
-1.41376
-0.115528
-1.39128
-0.14591
-1.37041
-0.176288
-1.35088
-0.206584
-1.33266
-0.236408
-1.31622
-0.265631
-1.30077
-0.294228
-1.28582
-0.322448
-1.27128
-0.350499
-1.25686
-0.378354
-1.24327
-0.406253
-1.23002
-0.433716
-1.21692
-0.459753
-1.20279
-0.48512
-1.186
-1.17039
-0.510422
0.00608073
-0.537051
-0.000627965
-1.18878
-0.0313821
-1.41182
-0.0652936
-1.4055
-0.0983512
-1.3807
-0.131122
-1.35851
-0.163893
-1.33764
-0.196098
-1.31867
-0.228094
-1.30066
-0.260283
-1.28403
-0.29249
-1.26856
-0.324617
-1.25369
-0.356322
-1.23958
-0.387681
-1.2255
-0.418972
-1.21198
-0.449605
-1.19939
-0.479628
-1.1869
-0.508454
-1.17397
-0.535923
-1.15854
-1.14288
-0.563425
0.00309433
-0.540145
-0.00901131
-1.17668
-0.0420519
-1.37878
-0.0786757
-1.36887
-0.114697
-1.34468
-0.150337
-1.32287
-0.185471
-1.3025
-0.220503
-1.28364
-0.255102
-1.26606
-0.289122
-1.25001
-0.322676
-1.23501
-0.355824
-1.22054
-0.388738
-1.20666
-0.421269
-1.19297
-0.453594
-1.17965
-0.486282
-1.1667
-0.518752
-1.15443
-0.550133
-1.14259
-0.579869
-1.1288
-1.11354
-0.609212
0.00126705
-0.541412
-0.0145614
-1.16085
-0.0503029
-1.34304
-0.0884783
-1.3307
-0.126008
-1.30715
-0.163375
-1.28551
-0.200469
-1.26541
-0.23719
-1.24692
-0.273882
-1.22937
-0.310708
-1.21318
-0.347357
-1.19836
-0.38381
-1.18409
-0.419797
-1.17068
-0.455544
-1.15722
-0.490947
-1.14425
-0.525538
-1.13211
-0.560145
-1.11982
-0.594207
-1.10852
-0.626351
-1.09666
-1.08194
-0.65795
-0.00106916
-0.540343
-0.0214568
-1.14046
-0.0600821
-1.30441
-0.100925
-1.28985
-0.140847
-1.26723
-0.180289
-1.24606
-0.219573
-1.22613
-0.258525
-1.20797
-0.296905
-1.19099
-0.334888
-1.1752
-0.372522
-1.16073
-0.409841
-1.14677
-0.446976
-1.13354
-0.483595
-1.12061
-0.520559
-1.10728
-0.557971
-1.0947
-0.594978
-1.08281
-0.632051
-1.07145
-0.66753
-1.06118
-1.04772
-0.701756
-0.00147449
-0.538869
-0.0242898
-1.11765
-0.0644767
-1.26423
-0.106821
-1.24751
-0.14869
-1.22536
-0.190176
-1.20458
-0.231047
-1.18526
-0.271867
-1.16715
-0.312562
-1.1503
-0.353259
-1.1345
-0.39381
-1.12018
-0.434075
-1.10651
-0.473965
-1.09365
-0.513316
-1.08125
-0.551771
-1.06883
-0.590247
-1.05622
-0.629491
-1.04357
-0.669126
-1.03182
-0.709008
-1.02129
-1.01027
-0.746457
-0.0033669
-0.0290408
-0.073105
-0.118009
-0.161551
-0.204539
-0.247271
-0.289318
-0.33088
-0.372004
-0.412801
-0.453424
-0.494202
-0.534794
-0.575543
-0.615593
-0.655355
-0.696148
-0.738466
-0.781217
0.182983
-11.8372
11.9116
0.127352
-11.1631
11.2187
0.0804496
-10.8061
10.853
0.0518391
-10.4563
10.4849
0.0255325
-10.216
10.2423
0.00906964
-9.92076
9.93722
-0.00176624
-9.72776
9.73859
-0.00995059
-9.5293
9.53748
-0.0149925
-9.37652
9.38156
-0.0174277
-9.24287
9.24531
-0.0173141
-9.13833
9.13822
-0.0153965
-9.04251
9.04059
-0.0105848
-8.98269
8.97788
-0.00525318
-8.87909
8.87376
0.00238143
-8.83286
8.82522
0.00873924
-8.77523
8.76888
0.0191348
-8.56216
8.55177
0.0169902
-7.62207
7.62421
0.00795482
-5.38775
5.39678
-2.12593
2.13388
0.123384
-11.7694
0.0695258
-11.1092
0.0212099
-10.7578
-0.0077389
-10.4273
-0.0326687
-10.191
-0.0464966
-9.90693
-0.0547366
-9.71952
-0.0599418
-9.52409
-0.061533
-9.37492
-0.0604196
-9.24399
-0.0565525
-9.1422
-0.0509508
-9.04811
-0.0423952
-8.99125
-0.032321
-8.88916
-0.0211707
-8.84401
-0.00996278
-8.78644
0.00573916
-8.57787
0.00975508
-7.62608
0.00636867
-5.38436
-2.11956
0.0392116
-11.6871
-0.0164576
-11.0535
-0.0613096
-10.7129
-0.0863402
-10.4023
-0.106286
-10.1711
-0.115337
-9.89788
-0.118689
-9.71616
-0.118846
-9.52394
-0.115331
-9.37844
-0.10928
-9.25004
-0.10059
-9.15089
-0.0900518
-9.05865
-0.0766665
-9.00463
-0.0613895
-8.90444
-0.0456324
-8.85976
-0.0294109
-8.80266
-0.00813999
-8.59914
0.00192584
-7.63615
0.00447476
-5.38691
-2.11508
-0.0199777
-11.6087
-0.0745865
-10.9989
-0.120218
-10.6673
-0.146163
-10.3763
-0.164407
-10.1529
-0.170799
-9.89149
-0.171606
-9.71536
-0.168733
-9.52681
-0.161735
-9.38544
-0.152155
-9.25962
-0.139792
-9.16325
-0.125779
-9.07266
-0.108737
-9.02168
-0.0889543
-8.92422
-0.0686824
-8.88004
-0.0485154
-8.82283
-0.0225076
-8.62515
-0.00568075
-7.65298
0.00233991
-5.39493
-2.11274
-0.0996571
-11.5158
-0.15786
-10.9407
-0.200874
-10.6243
-0.223036
-10.3542
-0.236877
-10.139
-0.238785
-9.88958
-0.23484
-9.7193
-0.226923
-9.53473
-0.214905
-9.39746
-0.200561
-9.27396
-0.183524
-9.18029
-0.164688
-9.0915
-0.143092
-9.04327
-0.118265
-8.94905
-0.0929373
-8.90536
-0.0679106
-8.84786
-0.0366715
-8.65638
-0.012988
-7.67666
0.000581532
-5.4085
-2.11216
-0.15734
-11.4251
-0.215518
-10.8826
-0.259526
-10.5803
-0.282548
-10.3312
-0.294535
-10.127
-0.29388
-9.89023
-0.287353
-9.72583
-0.276375
-9.54571
-0.260872
-9.41296
-0.243001
-9.29183
-0.222377
-9.20091
-0.20014
-9.11373
-0.17535
-9.06806
-0.146469
-8.97793
-0.116203
-8.93563
-0.0868816
-8.87718
-0.0513208
-8.69195
-0.0208415
-7.70714
-0.00143283
-5.42791
-2.11359
-0.233909
-11.3201
-0.295522
-10.8209
-0.337742
-10.5381
-0.357267
-10.3116
-0.365343
-10.119
-0.360516
-9.89506
-0.349352
-9.73699
-0.333428
-9.56163
-0.313087
-9.4333
-0.290646
-9.31427
-0.265445
-9.22611
-0.238359
-9.14082
-0.209241
-9.09718
-0.175728
-9.01144
-0.140138
-8.97122
-0.105868
-8.91145
-0.0657524
-8.73206
-0.0285397
-7.74435
-0.00314255
-5.4533
-2.11674
-0.290407
-11.2154
-0.352762
-10.7586
-0.395975
-10.4949
-0.416035
-10.2916
-0.422117
-10.1129
-0.414946
-9.90223
-0.401123
-9.75082
-0.382132
-9.58062
-0.358363
-9.45707
-0.332377
-9.34026
-0.303626
-9.25487
-0.273121
-9.17132
-0.240791
-9.12951
-0.2038
-9.04844
-0.163561
-9.01146
-0.124436
-8.95057
-0.0794489
-8.77705
-0.0357986
-7.788
-0.00497645
-5.48413
-2.12171
-0.363406
-11.0976
-0.4292
-10.6928
-0.471194
-10.4529
-0.488182
-10.2746
-0.490804
-10.1102
-0.479701
-9.91334
-0.461399
-9.76912
-0.437647
-9.60437
-0.409303
-9.48541
-0.378921
-9.37064
-0.345643
-9.28814
-0.310288
-9.20668
-0.273393
-9.1664
-0.231899
-9.08993
-0.186793
-9.05657
-0.143016
-8.99435
-0.0934845
-8.82658
-0.0435035
-7.83798
-0.00681108
-5.52082
-2.12852
-0.418745
-10.9773
-0.485727
-10.6258
-0.528803
-10.4098
-0.545865
-10.2575
-0.546405
-10.1097
-0.533114
-9.92663
-0.5121
-9.79013
-0.485323
-9.63115
-0.453603
-9.51713
-0.419643
-9.4046
-0.382924
-9.32486
-0.344215
-9.24539
-0.303937
-9.20668
-0.259006
-9.13486
-0.20963
-9.10594
-0.161469
-9.04251
-0.106839
-8.88121
-0.0509261
-7.8939
-0.00893288
-5.56281
-2.13746
-0.488214
-10.8459
-0.55828
-10.5557
-0.600376
-10.3677
-0.615022
-10.2429
-0.612482
-10.1122
-0.595489
-9.94362
-0.570234
-9.81539
-0.538972
-9.66241
-0.502994
-9.55311
-0.464775
-9.44282
-0.423611
-9.36603
-0.380089
-9.28891
-0.335164
-9.25161
-0.286223
-9.1838
-0.232481
-9.15968
-0.179788
-9.0952
-0.119956
-8.94104
-0.0581139
-7.95574
-0.0109835
-5.60994
-2.14844
-0.542567
-10.7097
-0.613833
-10.4845
-0.656842
-10.3247
-0.671125
-10.2286
-0.666552
-10.1168
-0.647525
-9.96265
-0.619559
-9.84335
-0.585321
-9.69665
-0.546014
-9.59242
-0.504217
-9.48462
-0.45964
-9.4106
-0.412922
-9.33563
-0.364636
-9.29989
-0.312134
-9.2363
-0.254589
-9.21723
-0.197861
-9.15193
-0.132908
-9.00599
-0.0653817
-8.02326
-0.0130531
-5.66227
-2.16149
-0.608579
-10.5638
-0.682265
-10.4108
-0.724334
-10.2826
-0.736903
-10.216
-0.729473
-10.1242
-0.707011
-9.98511
-0.67516
-9.8752
-0.636757
-9.73505
-0.593526
-9.63565
-0.547627
-9.53052
-0.498768
-9.45946
-0.447408
-9.38699
-0.394438
-9.35286
-0.338101
-9.29264
-0.276745
-9.27858
-0.215734
-9.21294
-0.145395
-9.07633
-0.072703
-8.09596
-0.015477
-5.7195
-2.17697
-0.662193
-10.412
-0.736714
-10.3363
-0.778992
-10.2403
-0.790911
-10.2041
-0.781621
-10.1335
-0.757274
-10.0095
-0.722759
-9.90972
-0.681406
-9.77641
-0.634893
-9.68216
-0.585492
-9.57992
-0.533324
-9.51163
-0.478996
-9.44132
-0.422766
-9.40909
-0.363034
-9.35237
-0.298236
-9.34338
-0.233446
-9.27773
-0.158125
-9.15165
-0.0799614
-8.17412
-0.0174121
-5.78205
-2.19438
-0.724891
-10.2505
-0.801196
-10.26
-0.842193
-10.1993
-0.852861
-10.1934
-0.840908
-10.1455
-0.813481
-10.0369
-0.775506
-9.94769
-0.730279
-9.82163
-0.680162
-9.73228
-0.626841
-9.63324
-0.570472
-9.568
-0.511763
-9.50003
-0.451322
-9.46953
-0.388185
-9.41551
-0.319714
-9.41185
-0.250856
-9.34659
-0.170518
-9.23199
-0.087096
-8.25754
-0.0194224
-5.84972
-2.2138
-0.777022
-10.0827
-0.854195
-10.1828
-0.894454
-10.1591
-0.904355
-10.1835
-0.890777
-10.1591
-0.861533
-10.0661
-0.821046
-9.98818
-0.772881
-9.8698
-0.719555
-9.7856
-0.662921
-9.68987
-0.603467
-9.62745
-0.5419
-9.56159
-0.478294
-9.53314
-0.412201
-9.4816
-0.340771
-9.48328
-0.268032
-9.41933
-0.183151
-9.31687
-0.0946171
-8.34608
-0.0213389
-5.923
-2.23514
-0.837069
-9.90361
-0.915006
-10.1049
-0.952728
-10.1214
-0.961403
-10.1749
-0.945554
-10.1749
-0.913818
-10.0979
-0.870439
-10.0316
-0.818804
-9.92143
-0.76219
-9.84222
-0.701854
-9.75021
-0.63838
-9.69093
-0.572686
-9.62729
-0.505059
-9.60077
-0.435298
-9.55136
-0.361321
-9.55726
-0.285377
-9.49527
-0.195466
-9.40678
-0.10127
-8.44027
-0.0225938
-6.00168
-2.25774
-0.890416
-9.71495
-0.968645
-10.0266
-1.00345
-10.0865
-1.01063
-10.1677
-0.992956
-10.1926
-0.959102
-10.1317
-0.913437
-10.0772
-0.858937
-9.97593
-0.799238
-9.90192
-0.735859
-9.81359
-0.669522
-9.75726
-0.601096
-9.69571
-0.530481
-9.67138
-0.45754
-9.6243
-0.381216
-9.63358
-0.302254
-9.57424
-0.207909
-9.50113
-0.108355
-8.53983
-0.0243504
-6.08568
-2.28209
-0.941174
-9.52024
-1.02893
-9.93888
-1.06134
-10.0541
-1.0662
-10.1628
-1.0458
-10.213
-1.00909
-10.1684
-0.960363
-10.1259
-0.902526
-10.0338
-0.839507
-9.96494
-0.772499
-9.88059
-0.702291
-9.82747
-0.62996
-9.76804
-0.555642
-9.7457
-0.479026
-9.70092
-0.400362
-9.71225
-0.318683
-9.65591
-0.220202
-9.59961
-0.115479
-8.64455
-0.0257766
-6.17538
-2.30786
-0.979912
-9.32154
-1.07258
-9.84621
-1.10247
-10.0242
-1.10687
-10.1584
-1.08707
-10.2328
-1.04925
-10.2063
-0.999689
-10.1755
-0.939358
-10.0941
-0.874051
-10.0302
-0.804098
-9.95055
-0.731448
-9.90012
-0.656159
-9.84333
-0.579452
-9.82241
-0.499202
-9.78117
-0.419134
-9.79232
-0.334642
-9.74041
-0.232673
-9.70158
-0.122732
-8.75449
-0.0275633
-6.27055
-2.33543
8.29499
-8.43447
-9.18206
7.11404
-8.66527
6.10945
-9.01965
5.17598
-9.22495
4.3453
-9.40212
3.60815
-9.46911
2.97312
-9.54047
2.44041
-9.5614
1.99234
-9.58217
1.61727
-9.57548
1.30457
-9.58742
1.0488
-9.58756
0.831322
-9.60493
0.642162
-9.59201
0.4673
-9.61745
0.323667
-9.59677
0.189745
-9.56766
0.111526
-8.67627
0.0738464
-6.23287
-2.26158
4.82733
-8.04508
-5.21671
4.38776
-8.2257
3.93475
-8.56665
3.46511
-8.7553
3.00185
-8.93886
2.58175
-9.04901
2.19819
-9.1569
1.86477
-9.22799
1.57277
-9.29017
1.32598
-9.32869
1.10931
-9.37076
0.917753
-9.396
0.7335
-9.42068
0.577807
-9.43632
0.413675
-9.45332
0.275265
-9.45836
0.111637
-9.40403
-0.00044981
-8.56419
-0.125998
-6.10732
-2.38758
3.46915
-7.94307
-3.57116
3.37568
-8.13223
3.16458
-8.35554
2.92238
-8.51311
2.65054
-8.66702
2.38853
-8.787
2.12371
-8.89208
1.871
-8.97528
1.62817
-9.04734
1.40406
-9.10457
1.18798
-9.15467
0.984595
-9.19262
0.785423
-9.22151
0.604107
-9.255
0.433489
-9.2827
0.279281
-9.30416
0.150625
-9.27537
0.0737848
-8.48735
-0.00567769
-6.02786
-2.39326
2.16524
-7.97432
-2.13399
2.15459
-8.12159
2.07154
-8.27249
1.96446
-8.40603
1.82343
-8.52599
1.66616
-8.62973
1.49752
-8.72344
1.32438
-8.80214
1.15126
-8.87422
0.983439
-8.93675
0.823099
-8.99433
0.675022
-9.04454
0.543204
-9.08969
0.416869
-9.12867
0.302397
-9.16823
0.199181
-9.20094
0.0795699
-9.15576
0.0402347
-8.44801
0.0462242
-6.03385
-2.34703
1.503
-8.049
-1.42832
1.52588
-8.14446
1.51283
-8.25944
1.46389
-8.3571
1.39189
-8.45399
1.29881
-8.53665
1.19484
-8.61947
1.0795
-8.6868
0.95794
-8.75266
0.832696
-8.81151
0.707902
-8.86954
0.582163
-8.9188
0.458994
-8.96652
0.340417
-9.01009
0.217796
-9.04561
0.100814
-9.08396
-0.000819221
-9.05413
-0.0244129
-8.42442
0.0319441
-6.09021
-2.31509
1.02578
-8.11148
-0.9633
1.05907
-8.17775
1.04985
-8.25022
1.01818
-8.32542
0.968379
-8.40419
0.902459
-8.47073
0.821351
-8.53836
0.734177
-8.59962
0.642164
-8.66065
0.54571
-8.71505
0.447672
-8.7715
0.349683
-8.82081
0.25214
-8.86898
0.155552
-8.9135
0.0721966
-8.96226
-0.0158816
-8.99588
-0.104856
-8.96515
-0.0979015
-8.43137
0.0197408
-6.20785
-2.29535
0.684936
-8.13872
-0.657692
0.696628
-8.18944
0.704807
-8.2584
0.694768
-8.31538
0.662662
-8.37208
0.621692
-8.42975
0.564143
-8.48081
0.496672
-8.53215
0.423078
-8.58705
0.344958
-8.63693
0.262373
-8.68892
0.175562
-8.734
0.0901586
-8.78357
0.00328579
-8.82663
-0.0819564
-8.87701
-0.161803
-8.91603
-0.225779
-8.90118
-0.207914
-8.44924
-0.0328566
-6.38291
-2.32821
0.513512
-8.16516
-0.487077
0.530509
-8.20644
0.520842
-8.24873
0.495447
-8.28999
0.462092
-8.33873
0.413877
-8.38154
0.361227
-8.42816
0.298508
-8.46943
0.226878
-8.51542
0.151518
-8.56157
0.070771
-8.60817
-0.0130644
-8.65017
-0.0969789
-8.69966
-0.182852
-8.74076
-0.269287
-8.79058
-0.355232
-8.83009
-0.41635
-8.84006
-0.381306
-8.48428
-0.129064
-6.63515
-2.45727
0.355061
-8.16922
-0.351
0.347852
-8.19923
0.33482
-8.2357
0.315179
-8.27035
0.282809
-8.30636
0.23944
-8.33817
0.189661
-8.37838
0.135875
-8.41565
0.0772882
-8.45684
0.00729154
-8.49158
-0.0687671
-8.53211
-0.148953
-8.56998
-0.236989
-8.61162
-0.330366
-8.64738
-0.430937
-8.69001
-0.531498
-8.72953
-0.617449
-8.75411
-0.59331
-8.50842
-0.273801
-6.95466
-2.73107
0.299098
-8.16657
-0.301747
0.288408
-8.18854
0.268329
-8.21562
0.236086
-8.2381
0.193454
-8.26373
0.149292
-8.29401
0.0961606
-8.32525
0.035157
-8.35464
-0.0324518
-8.38923
-0.105305
-8.41872
-0.186677
-8.45074
-0.277467
-8.47919
-0.378721
-8.51037
-0.485445
-8.54066
-0.597319
-8.57813
-0.713146
-8.6137
-0.817222
-8.65003
-0.828118
-8.49752
-0.492129
-7.29065
-3.2232
0.236458
-8.14969
-0.253338
0.213928
-8.16601
0.184991
-8.18669
0.152934
-8.20605
0.119538
-8.23033
0.0787339
-8.2532
0.0309434
-8.27746
-0.0255499
-8.29815
-0.0954625
-8.31931
-0.170699
-8.34349
-0.256418
-8.36502
-0.346701
-8.38891
-0.445757
-8.41131
-0.551102
-8.43531
-0.675343
-8.45389
-0.816548
-8.47249
-0.96779
-8.49879
-1.00752
-8.45779
-0.739685
-7.55848
-3.96288
0.218396
-8.13238
-0.235706
0.197488
-8.1451
0.171367
-8.16057
0.139661
-8.17434
0.100332
-8.191
0.0518799
-8.20475
-0.00357728
-8.222
-0.0624488
-8.23928
-0.127167
-8.2546
-0.200981
-8.26967
-0.282919
-8.28308
-0.370385
-8.30144
-0.47269
-8.30901
-0.583193
-8.32481
-0.713922
-8.32316
-0.847613
-8.3388
-1.00724
-8.33917
-1.13155
-8.33347
-0.946609
-7.74343
-4.90949
0.196552
-8.11062
-0.21831
0.170334
-8.11889
0.140161
-8.13039
0.105675
-8.13985
0.0667376
-8.15206
0.0230229
-8.16104
-0.0265739
-8.17241
-0.0845863
-8.18127
-0.146446
-8.19274
-0.213345
-8.20277
-0.285991
-8.21044
-0.370905
-8.21653
-0.463335
-8.21658
-0.564505
-8.22364
-0.669545
-8.21813
-0.792645
-8.2157
-0.927271
-8.20454
-1.05628
-8.20446
-0.923702
-7.87601
-5.83319
0.167834
-8.09079
-0.187671
0.144922
-8.09597
0.117815
-8.10329
0.0857428
-8.10778
0.0482369
-8.11456
0.0071367
-8.11994
-0.0369519
-8.12832
-0.0849066
-8.13331
-0.136916
-8.14073
-0.196132
-8.14356
-0.257535
-8.14903
-0.326403
-8.14766
-0.393826
-8.14916
-0.479035
-8.13843
-0.560718
-8.13644
-0.663228
-8.11319
-0.764616
-8.10315
-0.8676
-8.10148
-0.798528
-7.94508
-6.63172
0.121776
-8.07065
-0.141908
0.09945
-8.07365
0.0741943
-8.07803
0.0466036
-8.08019
0.0167402
-8.08469
-0.0168397
-8.08636
-0.0523836
-8.09277
-0.0900886
-8.09561
-0.130275
-8.10054
-0.174243
-8.09959
-0.220151
-8.10313
-0.270062
-8.09775
-0.321372
-8.09785
-0.381473
-8.07832
-0.433654
-8.08426
-0.488911
-8.05794
-0.546554
-8.04551
-0.622055
-8.02598
-0.605866
-7.96127
-7.23759
0.10148
-8.05392
-0.118217
0.0825504
-8.05472
0.0614039
-8.05688
0.0393691
-8.05816
0.015859
-8.06118
-0.00951076
-8.06099
-0.0373864
-8.0649
-0.0689668
-8.06403
-0.101863
-8.06765
-0.136521
-8.06493
-0.172316
-8.06733
-0.209081
-8.06098
-0.244309
-8.06262
-0.276703
-8.04593
-0.309502
-8.05146
-0.337792
-8.02965
-0.355648
-8.02765
-0.373654
-8.00797
-0.354244
-7.98068
-7.59183
0.0570313
-8.03656
-0.0743928
0.0392588
-8.03695
0.0207474
-8.03837
0.00228413
-8.03969
-0.0166093
-8.04229
-0.0354429
-8.04215
-0.0563243
-8.04402
-0.076295
-8.04406
-0.098111
-8.04583
-0.119747
-8.04329
-0.142402
-8.04467
-0.163587
-8.0398
-0.184362
-8.04184
-0.20045
-8.02984
-0.221962