/*--------------------------------*- C++ -*----------------------------------*\
  =========                 |
  \\      /  F ield         | OpenFOAM: The Open Source CFD Toolbox
   \\    /   O peration     | Website:  https://openfoam.org
    \\  /    A nd           | Version:  9
     \\/     M anipulation  |
\*---------------------------------------------------------------------------*/
FoamFile
{
    format      ascii;
    class       volVectorField;
    location    "7.3";
    object      U;
}
// * * * * * * * * * * * * * * * * * * * * * * * * * * * * * * * * * * * * * //

dimensions      [0 1 -1 0 0 0 0];

internalField   nonuniform List<vector> 
46400
(
(9.51866 -9.33119 3.10609e-19)
(19.4521 -18.6777 -4.79048e-19)
(21.1253 -21.2438 -6.73341e-20)
(20.4178 -21.3105 -1.96079e-19)
(19.7232 -21.3087 -5.27227e-20)
(19.0037 -21.3327 9.80591e-19)
(18.355 -21.3142 -5.82184e-19)
(17.7211 -21.3252 1.71741e-19)
(17.1372 -21.3429 -1.7732e-19)
(16.5966 -21.3739 1.82093e-19)
(16.0854 -21.4324 -1.86083e-19)
(15.6105 -21.4729 0)
(15.1346 -21.5009 1.28638e-18)
(14.7012 -21.5263 -1.45545e-18)
(14.2514 -21.5213 -1.71442e-18)
(13.8324 -21.5042 -2.36507e-19)
(13.4113 -21.5205 -3.72712e-20)
(13.0275 -21.4438 1.32443e-18)
(12.6692 -21.3942 1.73133e-18)
(12.1815 -21.5887 -1.60137e-18)
(9.81664 -8.82481 0)
(19.6041 -17.4622 -3.39131e-20)
(21.0763 -19.7018 0)
(20.3087 -19.8153 7.80293e-19)
(19.6126 -19.8439 -6.30981e-19)
(18.9099 -19.931 1.57416e-19)
(18.2831 -19.9884 0)
(17.6707 -20.0562 -1.7175e-19)
(17.0982 -20.1219 1.77326e-19)
(16.5401 -20.1546 -1.82097e-19)
(16.0149 -20.2114 1.79005e-18)
(15.5433 -20.2906 4.6087e-20)
(15.0832 -20.3753 -1.40612e-18)
(14.6604 -20.4535 0)
(14.2522 -20.5357 1.96467e-19)
(13.8605 -20.5731 1.98032e-19)
(13.4798 -20.6285 0)
(13.121 -20.6135 -1.69214e-18)
(12.7951 -20.5993 -4.31214e-19)
(12.3715 -20.7972 1.73102e-18)
(10.0436 -8.2964 4.07174e-19)
(19.6212 -16.2583 -6.44278e-19)
(20.8094 -18.0652 6.77259e-19)
(20.0561 -18.2575 7.7196e-19)
(19.4032 -18.3638 -7.57829e-19)
(18.6869 -18.4816 0)
(18.0379 -18.5558 -1.91005e-18)
(17.4266 -18.6566 1.66024e-18)
(16.8545 -18.768 -1.97479e-18)
(16.3382 -18.8894 1.94791e-18)
(15.8134 -18.9852 1.78292e-18)
(15.3361 -19.0698 -1.92352e-19)
(14.8729 -19.1694 -1.53264e-18)
(14.4518 -19.2569 0)
(14.0449 -19.3664 1.80823e-18)
(13.654 -19.4426 -1.7808e-18)
(13.2705 -19.5398 0)
(12.9256 -19.5772 -1.56637e-20)
(12.5759 -19.6362 2.1239e-19)
(12.1598 -19.9069 -1.86403e-18)
(10.2031 -7.73592 -5.2996e-19)
(19.5203 -15.0172 1.59776e-19)
(20.5496 -16.5972 8.66285e-19)
(19.7284 -16.7988 -8.55603e-19)
(19.0678 -16.9284 -6.80036e-19)
(18.4088 -17.1255 9.03913e-19)
(17.8016 -17.2817 1.17239e-18)
(17.2016 -17.416 -2.85974e-18)
(16.6297 -17.5509 2.37097e-18)
(16.0986 -17.6687 -2.29646e-19)
(15.6024 -17.8278 0)
(15.1506 -17.9707 2.32391e-19)
(14.7055 -18.128 -2.33063e-19)
(14.2895 -18.2592 0)
(13.8914 -18.401 1.94979e-18)
(13.5182 -18.5243 -1.67013e-18)
(13.1522 -18.6526 0)
(12.8056 -18.7267 2.31488e-19)
(12.4611 -18.7707 2.4246e-19)
(12.0221 -19.0516 1.99351e-18)
(10.2984 -7.14093 0)
(19.2965 -13.8004 0)
(19.9919 -15.0328 -9.94387e-19)
(19.2588 -15.3438 7.16466e-19)
(18.6377 -15.547 -1.27728e-18)
(17.9484 -15.7427 1.01841e-18)
(17.3231 -15.9217 0)
(16.7526 -16.1097 1.06235e-18)
(16.1989 -16.3071 -1.29607e-18)
(15.6948 -16.4749 -2.75409e-19)
(15.1677 -16.6333 -2.74817e-19)
(14.6964 -16.7693 0)
(14.2487 -16.9421 2.11524e-18)
(13.8461 -17.096 -2.08216e-18)
(13.4624 -17.2804 0)
(13.0942 -17.4241 -2.32789e-18)
(12.7439 -17.6144 2.04682e-18)
(12.4372 -17.7592 2.04626e-18)
(12.1063 -17.8724 -2.2444e-18)
(11.6718 -18.1575 0)
(10.3651 -6.60474 0)
(18.8866 -12.3847 0)
(19.5591 -13.6531 0)
(18.7612 -13.9047 -2.99768e-20)
(18.1237 -14.1607 0)
(17.5148 -14.4415 0)
(16.9211 -14.6939 0)
(16.3433 -14.8928 -2.99454e-19)
(15.7876 -15.1255 0)
(15.2952 -15.3264 2.75413e-19)
(14.83 -15.5678 -2.08849e-20)
(14.3967 -15.7689 -2.57616e-18)
(13.9621 -15.9739 1.95469e-18)
(13.554 -16.1561 -2.53795e-18)
(13.1696 -16.3518 1.92796e-18)
(12.8033 -16.5247 0)
(12.433 -16.6812 -2.18842e-18)
(12.1189 -16.8526 1.87832e-18)
(11.8227 -17 0)
(11.4022 -17.3138 -2.88226e-19)
(10.4678 -6.02675 1.11834e-18)
(18.4113 -11.0925 3.0941e-19)
(18.8046 -12.1324 1.24152e-18)
(18.0809 -12.5298 -1.25536e-18)
(17.4787 -12.8245 -1.26058e-18)
(16.8284 -13.1093 2.49899e-18)
(16.2456 -13.4106 -2.82177e-18)
(15.7128 -13.6647 2.82608e-19)
(15.1816 -13.9335 9.11308e-19)
(14.7038 -14.1684 0)
(14.1963 -14.3909 -2.01674e-20)
(13.7528 -14.5995 -1.91914e-20)
(13.3308 -14.8343 2.91474e-19)
(12.9426 -15.0364 2.37215e-18)
(12.5871 -15.2862 -2.06638e-18)
(12.2634 -15.516 -2.63736e-18)
(11.9217 -15.7401 2.303e-18)
(11.6046 -15.9114 -1.46528e-20)
(11.3198 -16.1007 -2.88088e-19)
(10.9216 -16.4299 -2.09621e-18)
(10.6064 -5.44043 -3.34255e-19)
(17.7701 -9.77902 3.2207e-20)
(18.1032 -10.7504 -3.51542e-19)
(17.3603 -11.1349 -1.39924e-18)
(16.7688 -11.5384 9.93501e-19)
(16.2052 -11.8752 0)
(15.6469 -12.2454 2.02727e-18)
(15.1336 -12.5495 -9.85544e-19)
(14.5961 -12.8574 6.63301e-19)
(14.1507 -13.1405 3.38815e-19)
(13.7209 -13.4555 -6.55772e-19)
(13.3089 -13.7013 1.59858e-18)
(12.904 -13.9722 3.27181e-19)
(12.5039 -14.1716 -1.89469e-18)
(12.1067 -14.3751 5.29712e-18)
(11.7764 -14.6014 -2.1556e-18)
(11.4554 -14.8401 2.74007e-18)
(11.1475 -15.04 -1.79526e-18)
(10.8809 -15.2413 5.90804e-19)
(10.5152 -15.5937 2.83075e-18)
(10.8369 -4.90348 1.73667e-18)
(17.0689 -8.61949 -3.49231e-19)
(17.1068 -9.41029 -2.90192e-20)
(16.4195 -9.86908 7.34415e-19)
(15.8693 -10.3224 3.52448e-19)
(15.3017 -10.6965 3.74663e-19)
(14.7396 -11.0655 -1.7936e-18)
(14.2742 -11.406 1.07484e-18)
(13.7998 -11.7563 -3.42344e-19)
(13.3512 -12.0365 -3.38833e-19)
(12.9077 -12.3428 -3.35123e-19)
(12.5077 -12.6084 -3.48477e-19)
(12.1506 -12.9283 -6.70794e-19)
(11.8358 -13.2286 2.32792e-18)
(11.4857 -13.4861 -3.26283e-18)
(11.1535 -13.7127 -3.28893e-19)
(10.8511 -13.9726 1.36222e-20)
(10.5498 -14.1683 -2.49002e-18)
(10.2858 -14.3833 1.84961e-18)
(9.97658 -14.7296 -2.93763e-18)
(10.9939 -4.446 1.48402e-18)
(16.111 -7.41474 -3.57463e-18)
(16.0381 -8.17783 2.36794e-18)
(15.4779 -8.65155 -3.8078e-19)
(14.9305 -9.16675 -4.01722e-19)
(14.4953 -9.60497 1.57266e-18)
(14.0142 -10.0623 -1.91517e-18)
(13.5601 -10.4288 0)
(13.1039 -10.8239 1.49176e-18)
(12.7096 -11.1788 -1.46691e-18)
(12.32 -11.5415 -1.07942e-18)
(11.9204 -11.8156 1.4102e-18)
(11.5043 -12.077 3.4364e-19)
(11.1792 -12.3665 -1.38553e-18)
(10.866 -12.6672 3.33735e-19)
(10.5529 -12.9157 1.67244e-18)
(10.2752 -13.2009 -2.96846e-18)
(9.9995 -13.4349 1.95486e-18)
(9.7277 -13.6466 -1.16112e-20)
(9.42465 -13.9871 -2.72203e-18)
(11.0442 -4.05532 1.93521e-18)
(15.1595 -6.36892 -1.27528e-18)
(14.9018 -7.12842 8.52883e-19)
(14.3609 -7.59587 1.15569e-20)
(13.8792 -8.15394 -1.66891e-18)
(13.4063 -8.58332 -1.6134e-18)
(12.9214 -9.0391 1.99735e-18)
(12.5202 -9.43003 -1.18191e-18)
(12.0902 -9.82262 1.56015e-18)
(11.6971 -10.1467 0)
(11.3663 -10.5582 1.56247e-20)
(11.0808 -10.9293 3.64645e-19)
(10.7415 -11.2636 3.73171e-19)
(10.4056 -11.5365 -3.66857e-19)
(10.1224 -11.864 0)
(9.82685 -12.1248 3.54492e-19)
(9.55063 -12.4122 0)
(9.31663 -12.6743 6.73904e-19)
(9.07554 -12.9204 3.30987e-18)
(8.80565 -13.2408 -7.70696e-21)
(10.8348 -3.62565 1.02666e-18)
(13.9379 -5.39884 -2.15694e-19)
(13.6283 -6.12654 -3.13297e-18)
(13.2628 -6.66197 1.75628e-18)
(12.7745 -7.23128 4.23526e-19)
(12.4581 -7.74039 -4.17546e-19)
(12.0757 -8.2642 -1.68387e-18)
(11.7198 -8.69473 1.24972e-18)
(11.3772 -9.16907 0)
(10.9799 -9.50351 0)
(10.5714 -9.83323 -1.95883e-18)
(10.2644 -10.1829 1.54741e-18)
(9.97269 -10.5513 -3.73187e-19)
(9.66675 -10.8494 -1.12494e-18)
(9.39055 -11.1724 3.22906e-21)
(9.13583 -11.4702 2.52858e-18)
(8.8731 -11.7558 -1.41825e-18)
(8.63838 -12.0237 1.04737e-18)
(8.42843 -12.2923 -1.70632e-18)
(8.17931 -12.6183 0)
(10.3592 -3.13599 -8.70743e-19)
(12.835 -4.56655 1.4085e-18)
(12.4687 -5.27318 2.38096e-19)
(12.0424 -5.75202 2.34282e-19)
(11.6232 -6.37639 0)
(11.2272 -6.81434 1.7808e-18)
(10.8408 -7.35744 -1.74956e-18)
(10.4928 -7.75682 2.18445e-19)
(10.1862 -8.2692 0)
(9.9654 -8.7293 1.65737e-18)
(9.64912 -9.15386 -1.42364e-18)
(9.33324 -9.4887 1.59696e-18)
(9.07634 -9.88953 -1.57156e-18)
(8.80786 -10.2122 1.53833e-18)
(8.54355 -10.5493 -1.32305e-18)
(8.31563 -10.854 -1.48186e-18)
(8.08569 -11.1754 2.91432e-18)
(7.86647 -11.4412 -1.25205e-18)
(7.66985 -11.7298 1.77745e-19)
(7.45595 -12.0582 1.49119e-18)
(9.68393 -2.62158 -6.84577e-19)
(11.5262 -3.78052 7.37913e-19)
(11.1766 -4.57235 -2.38097e-19)
(10.848 -5.10191 -2.34288e-19)
(10.4664 -5.71512 0)
(10.2331 -6.26124 0)
(9.95807 -6.8336 0)
(9.64224 -7.28362 -4.43649e-19)
(9.25786 -7.68678 -1.74058e-18)
(8.96939 -8.09093 3.4188e-18)
(8.72685 -8.53661 -1.88593e-18)
(8.46121 -8.89626 -2.08247e-19)
(8.20645 -9.27443 0)
(7.98727 -9.62428 0)
(7.7542 -9.97116 -3.87924e-19)
(7.52781 -10.2789 0)
(7.32171 -10.6083 1.49158e-18)
(7.12074 -10.8934 -1.83588e-18)
(6.92648 -11.1782 -1.613e-18)
(6.73388 -11.5162 1.53467e-18)
(8.79993 -2.11139 7.05943e-19)
(10.1615 -3.08689 1.27355e-18)
(9.76608 -3.83556 1.30072e-21)
(9.56979 -4.39818 2.2703e-22)
(9.16851 -4.98599 2.44573e-19)
(8.82854 -5.44821 -7.09755e-19)
(8.56404 -6.03674 0)
(8.42587 -6.59745 -6.87008e-19)
(8.20904 -7.14002 2.28996e-19)
(7.94011 -7.56335 8.79226e-19)
(7.70853 -8.0289 8.58796e-19)
(7.48997 -8.43412 -6.3671e-19)
(7.26124 -8.84108 1.64973e-18)
(7.04372 -9.19349 -1.41931e-18)
(6.84562 -9.56765 1.78132e-18)
(6.65356 -9.88651 -3.31131e-18)
(6.46395 -10.2208 1.53058e-18)
(6.29049 -10.5121 1.8526e-19)
(6.12696 -10.8071 1.46467e-18)
(5.94662 -11.1275 -1.56774e-18)
(7.78214 -1.62769 2.42798e-19)
(8.83728 -2.45771 -2.57715e-19)
(8.56446 -3.20839 1.03108e-18)
(8.4017 -3.83063 -1.01198e-18)
(8.18767 -4.53004 -4.95865e-19)
(7.91688 -5.02155 -1.21226e-18)
(7.55171 -5.51507 2.4545e-21)
(7.27128 -5.9557 9.359e-19)
(7.08474 -6.48853 -2.26421e-19)
(6.88908 -6.93455 0)
(6.68186 -7.40957 0)
(6.49098 -7.81889 0)
(6.32291 -8.26569 0)
(6.14963 -8.64007 3.68138e-21)
(5.97729 -9.03473 0)
(5.81808 -9.38147 1.96566e-19)
(5.65467 -9.74082 7.76124e-19)
(5.49604 -10.052 -2.28645e-18)
(5.34781 -10.3668 1.68788e-18)
(5.19841 -10.7109 -1.58683e-18)
(6.67671 -1.20417 0)
(7.47208 -1.96137 -1.35024e-19)
(7.01543 -2.68827 0)
(6.7959 -3.29032 3.86318e-19)
(6.62793 -4.00418 -2.56536e-19)
(6.54256 -4.6468 -9.91576e-19)
(6.38064 -5.25132 3.27499e-21)
(6.17879 -5.75659 9.54324e-19)
(5.97445 -6.25447 -9.30737e-19)
(5.77995 -6.7089 1.8264e-18)
(5.61141 -7.16186 -4.14895e-21)
(5.44081 -7.5639 -8.77681e-19)
(5.27314 -7.97458 8.55286e-19)
(5.14423 -8.34984 -1.05021e-18)
(4.98932 -8.73189 0)
(4.86098 -9.06904 -8.03691e-19)
(4.72647 -9.42876 7.91675e-19)
(4.5994 -9.73463 0)
(4.47102 -10.0445 -1.88332e-19)
(4.34596 -10.3751 0)
(5.47158 -0.862278 1.34311e-19)
(6.02068 -1.69285 1.35493e-19)
(5.80744 -2.39758 0)
(5.60247 -2.97424 5.23847e-19)
(5.37417 -3.56518 -6.458e-19)
(5.2288 -4.1391 3.77049e-19)
(5.08437 -4.73466 -1.11255e-18)
(4.95205 -5.27371 4.84752e-19)
(4.84606 -5.81379 -1.18977e-19)
(4.71492 -6.2945 0)
(4.60119 -6.77617 -1.13956e-19)
(4.47359 -7.20868 -1.11534e-19)
(4.35305 -7.64488 -1.09175e-19)
(4.22307 -8.02947 0)
(4.11437 -8.43394 -8.31302e-19)
(3.99843 -8.77543 1.73528e-18)
(3.88571 -9.14537 -1.49904e-18)
(3.79053 -9.45686 7.85714e-19)
(3.67928 -9.77563 9.63815e-20)
(3.5769 -10.0999 8.14081e-19)
(3.95928 -0.550657 -2.07885e-19)
(4.50826 -1.4063 -2.77001e-19)
(4.39521 -2.11332 4.56251e-22)
(4.30453 -2.80904 7.31761e-19)
(4.14315 -3.44241 -1.96972e-19)
(4.01953 -4.01816 -1.27815e-19)
(3.90449 -4.5851 1.2525e-19)
(3.78739 -5.09523 2.44936e-19)
(3.67725 -5.61498 1.18989e-19)
(3.571 -6.08757 -4.66821e-19)
(3.47827 -6.56606 5.1564e-19)
(3.37215 -6.99739 1.11539e-19)
(3.28479 -7.43226 5.46628e-19)
(3.19833 -7.8212 -2.41011e-21)
(3.12203 -8.21792 5.03464e-20)
(3.05029 -8.57623 -9.25791e-19)
(2.9692 -8.93932 2.53396e-19)
(2.8973 -9.26316 0)
(2.82672 -9.58476 -4.78468e-20)
(2.75082 -9.91415 -4.10323e-19)
(2.56765 -0.264127 7.07006e-20)
(2.95883 -1.10377 -1.399e-19)
(2.88827 -1.77373 2.74456e-19)
(2.77588 -2.46183 -6.72364e-20)
(2.73661 -3.12504 -6.62899e-20)
(2.68852 -3.75742 0)
(2.64418 -4.34436 -1.25713e-19)
(2.57755 -4.90355 2.46512e-19)
(2.51805 -5.43502 -1.20884e-19)
(2.45063 -5.91736 1.17652e-19)
(2.3975 -6.40292 -5.82457e-20)
(2.34416 -6.83496 -1.12595e-19)
(2.29649 -7.27319 2.20976e-19)
(2.23533 -7.66454 -2.16261e-19)
(2.17388 -8.06266 5.3418e-20)
(2.1228 -8.41798 3.68572e-34)
(2.07169 -8.78931 -5.06012e-20)
(2.01523 -9.1098 2.97877e-19)
(1.96973 -9.43441 -1.46791e-19)
(1.91036 -9.76468 -1.03909e-19)
(-0.0434988 -3.88752 6.41274e-20)
(1.48424 -17.5532 3.19181e-20)
(3.07946 -31.7398 0)
(3.88294 -38.3795 2.81628e-20)
(4.00986 -39.4775 2.47796e-20)
(4.01657 -39.3425 2.18777e-20)
(3.98625 -38.8899 0)
(3.94549 -38.4511 1.83191e-20)
(3.89317 -38.0879 0)
(3.84261 -37.7373 0)
(3.77567 -37.4149 -1.13639e-20)
(3.71871 -37.0713 2.62914e-21)
(3.63752 -36.7458 2.07456e-20)
(3.57724 -36.4237 0)
(3.47508 -36.1178 7.06287e-21)
(3.42438 -35.7712 5.88121e-21)
(3.28534 -35.3823 4.80867e-21)
(3.25628 -34.9121 0)
(3.08871 -34.4989 -5.25884e-21)
(3.08268 -34.0853 5.10161e-21)
(0.130158 -5.01552 1.01006e-19)
(2.30458 -19.8596 -1.63776e-19)
(4.14372 -33.5492 0)
(4.93759 -39.0697 -1.38293e-19)
(4.99016 -39.6286 1.26732e-19)
(4.9593 -39.3475 -2.03904e-19)
(4.88816 -38.8361 8.69661e-20)
(4.82273 -38.4208 5.1982e-20)
(4.7597 -38.0006 -2.26468e-19)
(4.67824 -37.6301 1.22496e-19)
(4.61049 -37.2529 -1.27383e-20)
(4.51538 -36.9181 8.36603e-20)
(4.44423 -36.5818 -1.02926e-20)
(4.34787 -36.2451 -7.08981e-20)
(4.26521 -35.9098 -7.06268e-21)
(4.182 -35.5402 -5.88112e-21)
(4.05796 -35.1384 -4.8087e-21)
(3.99821 -34.657 0)
(3.82979 -34.2628 -1.86478e-20)
(3.81205 -33.8695 6.33244e-21)
(0.452809 -6.10597 -7.06793e-20)
(3.27564 -21.6337 0)
(5.39611 -34.8024 0)
(6.11572 -39.2847 -5.92332e-20)
(6.15098 -39.5003 5.13374e-20)
(6.05815 -39.1062 0)
(5.95068 -38.5953 -4.17922e-20)
(5.85189 -38.141 1.03932e-19)
(5.74111 -37.7492 -1.05732e-19)
(5.63842 -37.366 1.08741e-19)
(5.52415 -37.011 -1.31792e-19)
(5.4204 -36.6485 0)
(5.29829 -36.3067 -6.95918e-20)
(5.19533 -35.9775 -4.85876e-20)
(5.06283 -35.6545 1.02476e-19)
(4.97218 -35.2885 -7.78552e-20)
(4.80475 -34.8731 6.85742e-20)
(4.73852 -34.3917 0)
(4.52677 -33.9869 -3.43701e-20)
(4.50968 -33.5927 4.61577e-20)
(0.935693 -7.40875 3.03486e-19)
(4.45213 -23.1048 0)
(6.69404 -35.7779 1.31088e-19)
(7.31857 -39.4243 1.64589e-19)
(7.26499 -39.3837 -3.18892e-19)
(7.11541 -38.8909 9.22899e-20)
(6.96928 -38.3871 4.17895e-20)
(6.82669 -37.9367 3.88948e-19)
(6.70001 -37.4962 -5.18938e-19)
(6.56011 -37.1174 -2.8071e-20)
(6.4368 -36.7313 2.34304e-19)
(6.29126 -36.379 4.11068e-20)
(6.1723 -36.0289 -1.67653e-19)
(6.02636 -35.6801 1.59716e-19)
(5.90092 -35.3433 3.63281e-20)
(5.76288 -34.974 -1.85599e-20)
(5.5949 -34.5702 2.21807e-20)
(5.4867 -34.0801 0)
(5.27024 -33.6922 -1.99522e-21)
(5.23705 -33.3046 0)
(1.58525 -8.33156 0)
(5.23154 -24.2785 4.70152e-19)
(8.04806 -36.3357 -6.77663e-19)
(8.53406 -39.1993 5.63956e-19)
(8.43004 -38.9939 -4.3653e-19)
(8.22157 -38.4603 -9.3504e-20)
(8.04092 -37.9704 0)
(7.86641 -37.521 1.99393e-19)
(7.68377 -37.1227 -2.67645e-19)
(7.51739 -36.7226 2.60395e-19)
(7.34278 -36.355 -2.01437e-19)
(7.18232 -35.989 -4.11044e-20)
(7.0103 -35.64 1.58344e-19)
(6.8593 -35.3059 -2.51428e-19)
(6.68888 -34.9675 1.34815e-19)
(6.549 -34.5933 -4.42314e-20)
(6.34527 -34.1826 -5.72956e-20)
(6.22792 -33.7135 9.70798e-20)
(5.96715 -33.325 -4.75652e-20)
(5.9303 -32.9375 1.95624e-21)
(1.74272 -9.2697 4.20108e-19)
(6.65035 -25.2722 4.04772e-19)
(9.33361 -36.6703 -5.4138e-19)
(9.76277 -38.9416 -1.1384e-19)
(9.5746 -38.5911 1.03268e-19)
(9.32027 -38.048 3.43409e-19)
(9.09683 -37.5706 -3.37368e-19)
(8.8747 -37.1111 0)
(8.67146 -36.6717 2.25976e-19)
(8.46287 -36.304 -2.22203e-19)
(8.27749 -35.9215 -1.63899e-19)
(8.07175 -35.5724 1.61246e-19)
(7.89517 -35.2304 0)
(7.69483 -34.8937 0)
(7.52021 -34.5763 1.57787e-19)
(7.32665 -34.2209 -1.50711e-19)
(7.12102 -33.8117 -6.38968e-20)
(6.95646 -33.3229 6.29519e-20)
(6.69372 -32.9501 -3.55164e-21)
(6.6449 -32.5615 5.16505e-22)
(2.44622 -9.87547 -4.15506e-19)
(7.53841 -26.1149 1.30106e-19)
(10.7169 -36.6569 4.77619e-20)
(10.9291 -38.4142 5.90293e-19)
(10.7025 -37.9939 0)
(10.4188 -37.4807 0)
(10.1383 -36.9841 5.72133e-19)
(9.88903 -36.5526 -6.86576e-20)
(9.63635 -36.1625 -4.85237e-19)
(9.40166 -35.766 3.57403e-19)
(9.16304 -35.4068 -3.51524e-19)
(8.94285 -35.043 0)
(8.7152 -34.6983 1.94836e-19)
(8.51071 -34.3669 -1.91777e-19)
(8.29196 -34.0338 0)
(8.09681 -33.6873 0)
(7.85152 -33.3148 0)
(7.6731 -32.8682 0)
(7.36612 -32.4878 0)
(7.3095 -32.1057 3.02405e-21)
(2.95585 -10.3785 3.98923e-19)
(8.7605 -26.6501 -6.79601e-19)
(11.9874 -36.5495 0)
(12.1516 -37.857 0)
(11.8131 -37.357 8.03103e-19)
(11.4853 -36.8268 -3.5341e-21)
(11.1734 -36.3803 -6.76636e-19)
(10.869 -35.9348 0)
(10.5859 -35.5175 4.89969e-20)
(10.306 -35.1732 -4.07299e-20)
(10.0555 -34.8129 0)
(9.78674 -34.4914 2.63754e-20)
(9.55147 -34.1698 -1.80175e-19)
(9.29767 -33.8588 2.87781e-19)
(9.07547 -33.5623 -3.86023e-20)
(8.83179 -33.2196 -7.42395e-20)
(8.58562 -32.8251 -3.06399e-22)
(8.36422 -32.3716 -3.66694e-21)
(8.05518 -32.0228 0)
(7.98231 -31.6285 -1.05863e-20)
(3.54569 -10.8019 2.54393e-19)
(9.9791 -26.9123 1.89407e-19)
(13.2467 -36.0173 -7.56152e-19)
(13.3075 -37.0547 1.95888e-19)
(12.9111 -36.5655 7.73888e-20)
(12.5479 -36.0915 6.36142e-19)
(12.1689 -35.6156 -8.54644e-19)
(11.8363 -35.2166 5.80413e-19)
(11.5138 -34.8464 -3.88075e-19)
(11.2049 -34.4761 4.43491e-19)
(10.9029 -34.1379 5.4694e-20)
(10.6204 -33.7892 1.81426e-19)
(10.3335 -33.473 -1.14343e-19)
(10.0719 -33.1623 -1.08443e-19)
(9.7996 -32.8672 8.27836e-20)
(9.55205 -32.5762 0)
(9.26667 -32.2472 -8.79459e-21)
(9.0255 -31.8204 -1.30709e-20)
(8.67412 -31.458 2.31696e-20)
(8.5863 -31.0774 -1.96585e-20)
(4.1382 -11.1422 -4.74417e-19)
(11.1787 -27.0373 4.96467e-19)
(14.4452 -35.5021 -1.81311e-20)
(14.4088 -36.2009 -3.75098e-19)
(13.9333 -35.685 -3.21487e-19)
(13.5158 -35.2064 -1.44986e-19)
(13.1144 -34.8058 -1.55809e-20)
(12.7273 -34.4008 -1.03363e-19)
(12.3698 -34.029 0)
(12.0218 -33.725 -6.93503e-20)
(11.7066 -33.4097 -5.46947e-20)
(11.3795 -33.1261 -1.30279e-20)
(11.0872 -32.8266 5.99887e-20)
(10.7838 -32.5459 -4.70127e-20)
(10.5133 -32.2682 -1.64637e-21)
(10.2227 -31.958 -6.51492e-21)
(9.94061 -31.6214 -6.29433e-20)
(9.6672 -31.2324 8.77169e-20)
(9.3165 -30.9017 -2.31534e-20)
(9.2167 -30.511 -2.70926e-19)
(4.73639 -11.3563 -1.11913e-18)
(12.334 -26.9227 1.13128e-18)
(15.5325 -34.6188 -1.13241e-18)
(15.4425 -35.1794 9.08086e-19)
(14.9209 -34.7174 6.84245e-19)
(14.4798 -34.2907 -5.2218e-19)
(14.0188 -33.8691 -5.5905e-19)
(13.6057 -33.5163 6.60667e-20)
(13.2148 -33.1804 2.84683e-19)
(12.836 -32.8523 -1.25517e-19)
(12.4741 -32.5522 2.74103e-19)
(12.131 -32.2498 -1.38198e-19)
(11.7892 -31.9858 -1.67073e-20)
(11.4727 -31.7152 -2.66047e-20)
(11.1519 -31.4758 7.6646e-20)
(10.8597 -31.2383 -5.56315e-20)
(10.5378 -30.9529 0)
(10.2402 -30.5713 2.89458e-19)
(9.85213 -30.2443 -2.85303e-19)
(9.73276 -29.8667 3.3584e-19)
(5.34028 -11.4925 2.07822e-19)
(13.4382 -26.6737 2.50515e-19)
(16.5872 -33.7722 9.34343e-19)
(16.3914 -34.0915 6.81575e-19)
(15.8111 -33.6366 -4.24237e-19)
(15.3116 -33.2294 4.537e-19)
(14.8311 -32.878 -2.68095e-19)
(14.3698 -32.5377 2.18043e-19)
(13.9484 -32.2279 -3.70119e-19)
(13.5406 -31.9794 1.1353e-19)
(13.1677 -31.7175 0)
(12.7881 -31.4708 0)
(12.4411 -31.203 0)
(12.0915 -30.96 1.50798e-19)
(11.7718 -30.7151 -1.4847e-19)
(11.4417 -30.4665 0)
(11.1329 -30.2172 0)
(10.8159 -29.9086 5.15113e-20)
(10.4283 -29.5975 0)
(10.2982 -29.2257 5.27802e-19)
(5.92998 -11.5222 -3.74139e-19)
(14.473 -26.2396 -8.98895e-19)
(17.5013 -32.6304 -5.51395e-19)
(17.276 -32.8831 -4.31618e-20)
(16.6414 -32.4927 6.04755e-19)
(16.1276 -32.1286 -1.64565e-19)
(15.6044 -31.7877 -6.8435e-20)
(15.1169 -31.4911 -2.33324e-19)
(14.6612 -31.2008 0)
(14.2209 -30.9297 -2.40792e-20)
(13.8064 -30.6928 1.80943e-20)
(13.4137 -30.4632 0)
(13.0257 -30.2622 -2.0517e-19)
(12.6617 -30.0392 2.01956e-19)
(12.2988 -29.8536 -3.37905e-19)
(11.9668 -29.6599 6.74038e-19)
(11.6128 -29.43 -3.88445e-19)
(11.275 -29.1365 -5.15104e-20)
(10.8615 -28.8578 6.98015e-20)
(10.7105 -28.4864 -5.76793e-19)
(6.50515 -11.4797 -4.25404e-19)
(15.432 -25.6834 6.56431e-20)
(18.3497 -31.5023 9.37737e-20)
(18.0436 -31.623 7.85914e-19)
(17.3751 -31.2605 7.02976e-21)
(16.7953 -30.9424 -2.99515e-19)
(16.2544 -30.6441 -1.16184e-19)
(15.732 -30.3888 9.11127e-20)
(15.2595 -30.1512 4.9059e-20)
(14.7999 -29.9606 6.38226e-20)
(14.376 -29.7499 -4.032e-20)
(13.9491 -29.549 3.06689e-19)
(13.5546 -29.3351 -2.16759e-19)
(13.1644 -29.1454 4.04194e-19)
(12.7988 -28.9493 -3.35414e-19)
(12.4382 -28.7737 -4.60335e-19)
(12.1085 -28.6107 5.05726e-19)
(11.7587 -28.3968 -5.19797e-19)
(11.3474 -28.1373 5.19575e-19)
(11.1826 -27.7845 7.72138e-19)
(7.04278 -11.3602 -4.75337e-19)
(16.3241 -24.9686 -3.50133e-20)
(19.0656 -30.1678 4.1854e-19)
(18.709 -30.2622 -2.3829e-19)
(18.0225 -29.9545 2.34013e-19)
(17.428 -29.6733 4.22671e-20)
(16.86 -29.4263 0)
(16.3103 -29.1914 1.4393e-20)
(15.7975 -28.9629 -8.30775e-20)
(15.3095 -28.7665 3.3645e-19)
(14.8531 -28.6084 -2.62938e-19)
(14.4236 -28.4549 -9.64965e-20)
(13.9975 -28.3185 -4.73132e-20)
(13.5951 -28.1476 0)
(13.1951 -28.0157 1.75294e-20)
(12.8247 -27.8637 -6.4494e-19)
(12.4422 -27.6956 -5.07573e-20)
(12.0823 -27.5174 -2.20495e-19)
(11.6588 -27.3042 7.07142e-19)
(11.4799 -26.9539 -1.96712e-19)
(7.55167 -11.178 3.51291e-19)
(17.1232 -24.1628 -5.50427e-19)
(19.697 -28.8251 2.92726e-19)
(19.2636 -28.88 1.21593e-19)
(18.5642 -28.6229 -7.29484e-20)
(17.9238 -28.3978 -5.66672e-20)
(17.3299 -28.1668 -2.5957e-20)
(16.7656 -28.0078 -1.43933e-20)
(16.2516 -27.8417 0)
(15.7474 -27.7045 0)
(15.2796 -27.5526 5.14989e-19)
(14.815 -27.4114 -9.50832e-19)
(14.3849 -27.2714 5.72003e-19)
(13.9629 -27.147 0)
(13.5575 -27.0028 1.83909e-20)
(13.1749 -26.8993 8.83578e-19)
(12.8218 -26.8071 -8.76338e-19)
(12.4509 -26.6943 9.54121e-20)
(12.0416 -26.5356 9.8673e-19)
(11.8415 -26.1948 -6.56461e-19)
(8.01062 -10.9036 -2.22523e-19)
(17.8046 -23.1877 2.6145e-19)
(20.2216 -27.3929 0)
(19.716 -27.4047 0)
(19.0032 -27.191 -2.40028e-20)
(18.3498 -27.0055 1.40729e-19)
(17.7484 -26.8446 2.96513e-20)
(17.1483 -26.6809 -1.80788e-19)
(16.5947 -26.5334 5.49381e-19)
(16.0737 -26.4197 -1.16525e-18)
(15.5852 -26.3373 6.14769e-19)
(15.1277 -26.2529 -1.79396e-19)
(14.6707 -26.1799 -9.10268e-19)
(14.2422 -26.0761 -1.71133e-19)
(13.811 -26.0061 6.20131e-19)
(13.4024 -25.886 -1.03499e-19)
(12.9915 -25.7755 1.06323e-18)
(12.6178 -25.699 -9.41236e-19)
(12.2107 -25.5993 1.63568e-20)
(12.0128 -25.2881 -1.02256e-18)
(8.44117 -10.5918 0)
(18.394 -22.1801 -6.70796e-21)
(20.6105 -25.921 -4.86959e-20)
(20.0617 -25.9563 0)
(19.3438 -25.8004 2.40019e-20)
(18.6606 -25.6648 -2.4257e-19)
(18.0334 -25.5165 2.91183e-19)
(17.4413 -25.4455 0)
(16.8928 -25.3481 -7.44267e-19)
(16.3553 -25.2688 7.3185e-19)
(15.8545 -25.1897 -1.16234e-19)
(15.3655 -25.113 1.00466e-19)
(14.9101 -25.0509 1.06921e-19)
(14.4651 -24.9864 1.12615e-19)
(14.0329 -24.9095 1.159e-18)
(13.6392 -24.8884 -2.09702e-18)
(13.2543 -24.8438 2.15182e-18)
(12.8585 -24.8069 -2.19716e-18)
(12.4727 -24.7784 9.62573e-19)
(12.2574 -24.4857 -1.37846e-19)
(8.82167 -10.2024 0)
(18.8472 -21.0146 1.09235e-19)
(20.9194 -24.3895 -3.33466e-20)
(20.3059 -24.3859 -1.8039e-19)
(19.5805 -24.281 -6.171e-20)
(18.8832 -24.2 -5.51611e-20)
(18.2513 -24.1095 3.52242e-19)
(17.6183 -24.0293 0)
(17.0401 -23.9692 0)
(16.4972 -23.93 0)
(15.9867 -23.9201 1.1623e-19)
(15.5102 -23.9041 0)
(15.0332 -23.8948 1.29003e-18)
(14.5919 -23.8682 -1.12218e-18)
(14.1308 -23.8364 1.20209e-18)
(13.6903 -23.7462 -2.41065e-18)
(13.2565 -23.7119 1.20845e-18)
(12.8494 -23.697 1.42232e-18)
(12.4635 -23.7222 -2.51767e-18)
(12.2667 -23.4733 1.31013e-18)
(9.19803 -9.82429 0)
(19.2316 -19.869 0)
(21.0755 -22.851 -5.50623e-20)
(20.4182 -22.8991 -7.13218e-20)
(19.7006 -22.8373 0)
(18.9914 -22.8076 -4.75263e-19)
(18.3551 -22.7588 4.6694e-19)
(17.7448 -22.7577 0)
(17.1737 -22.7357 -1.14829e-18)
(16.6178 -22.7155 1.12913e-18)
(16.0934 -22.7049 0)
(15.5938 -22.6885 1.27926e-18)
(15.119 -22.6961 -9.65887e-20)
(14.6651 -22.6987 -1.29173e-18)
(14.2255 -22.7072 0)
(13.8104 -22.7193 0)
(13.3698 -22.6914 0)
(12.9346 -22.673 1.25958e-18)
(12.5287 -22.6326 -1.40468e-18)
(12.257 -22.4961 0)
(2.34183 -32.9637 0)
(2.14776 -31.0882 0)
(1.31027 -30.0629 2.19524e-21)
(1.14181 -29.0533 2.71665e-21)
(0.759449 -28.3801 0)
(0.546067 -27.5623 1.36434e-22)
(0.401808 -27.025 -3.75946e-21)
(0.270106 -26.4738 0)
(0.181771 -26.0454 -4.40906e-21)
(0.122433 -25.6719 0)
(0.0630211 -25.3827 4.74976e-21)
(0.0848359 -25.1131 2.46645e-21)
(0.024382 -24.9371 -2.47798e-21)
(0.144956 -24.6535 -4.86389e-21)
(0.0528925 -24.5223 0)
(0.265197 -24.362 9.68701e-22)
(0.107058 -23.7662 -6.0272e-21)
(0.423925 -21.1696 0)
(-0.00778983 -14.9798 0)
(0.19027 -5.91695 -5.50476e-21)
(3.0301 -32.8038 1.32392e-21)
(2.7572 -30.924 0)
(1.81409 -29.9571 -1.21267e-20)
(1.54563 -29.0218 7.26311e-21)
(1.08905 -28.3584 0)
(0.817917 -27.5368 1.84611e-20)
(0.633832 -27.0017 -7.60048e-21)
(0.452568 -26.4507 0)
(0.339037 -26.0305 -4.61405e-21)
(0.247375 -25.6615 9.07153e-21)
(0.168331 -25.3698 -1.44068e-20)
(0.168 -25.1075 1.96039e-20)
(0.0883319 -24.951 -1.49961e-20)
(0.193303 -24.6582 4.39734e-21)
(0.0975946 -24.5326 4.18165e-21)
(0.288531 -24.3646 -2.7557e-21)
(0.125355 -23.7865 6.97101e-21)
(0.430579 -21.1606 1.02883e-20)
(-0.00554235 -14.9431 3.45117e-21)
(0.2029 -5.89078 6.8767e-21)
(3.52769 -32.5108 -9.86859e-21)
(3.07896 -30.7325 2.08565e-21)
(2.05833 -29.7488 9.40047e-21)
(1.7419 -28.8503 0)
(1.25352 -28.2003 0)
(0.948699 -27.4423 -2.25981e-20)
(0.745453 -26.9363 -1.07455e-21)
(0.540492 -26.4014 -8.32964e-22)
(0.415383 -25.9929 -7.13728e-22)
(0.309746 -25.6349 1.82547e-20)
(0.220663 -25.3613 0)
(0.209254 -25.1013 0)
(0.123698 -24.9418 0)
(0.219393 -24.6658 1.70414e-20)
(0.125661 -24.5388 0)
(0.302211 -24.3812 1.12707e-20)
(0.136309 -23.8085 -9.53159e-21)
(0.43492 -21.1558 -5.74148e-21)
(-0.0118839 -14.932 -1.34563e-20)
(0.216517 -5.87146 -2.2011e-20)
(4.20719 -32.2917 -8.79668e-21)
(3.66184 -30.5479 2.11989e-20)
(2.551 -29.6285 1.86493e-21)
(2.13223 -28.7997 -2.11375e-20)
(1.57675 -28.1641 0)
(1.21439 -27.4062 -3.09853e-20)
(0.971906 -26.9034 8.0608e-20)
(0.718656 -26.3716 -5.0909e-20)
(0.568911 -25.9728 3.56062e-20)
(0.432638 -25.6183 -1.89355e-20)
(0.323007 -25.3417 -2.56147e-22)
(0.289269 -25.0906 1.99576e-20)
(0.183562 -24.9499 -2.00442e-20)
(0.261941 -24.6676 -7.97953e-21)
(0.164922 -24.5448 -6.83757e-21)
(0.328654 -24.3833 -1.21372e-20)
(0.138519 -23.8329 1.41896e-20)
(0.437829 -21.1552 -8.66597e-21)
(-0.0151573 -14.915 3.25569e-21)
(0.22209 -5.84931 2.1975e-20)
(4.69733 -31.9361 -2.19331e-22)
(3.98158 -30.3064 -6.38231e-21)
(2.79121 -29.3841 2.13532e-20)
(2.31962 -28.6003 -3.37383e-20)
(1.73635 -27.9938 0)
(1.3404 -27.3008 1.52257e-20)
(1.07957 -26.8269 -1.62723e-20)
(0.804372 -26.3127 0)
(0.644008 -25.9278 1.2127e-22)
(0.494251 -25.585 0)
(0.37349 -25.3274 3.86953e-20)
(0.32867 -25.077 0)
(0.216362 -24.9347 0)
(0.282762 -24.6723 2.99718e-20)
(0.1888 -24.5475 -1.25159e-20)
(0.343975 -24.3926 1.29619e-20)
(0.145221 -23.855 0)
(0.439893 -21.1626 -4.92468e-21)
(-0.0116639 -14.9124 4.99992e-21)
(0.22751 -5.83425 0)
(5.36224 -31.6512 -8.25272e-21)
(4.5336 -30.0905 1.45166e-20)
(3.27203 -29.2455 -5.57237e-20)
(2.69419 -28.5297 5.70245e-20)
(2.05318 -27.9409 -2.84581e-20)
(1.59835 -27.2534 -1.52734e-20)
(1.29958 -26.7843 3.32857e-20)
(0.978232 -26.2767 3.51897e-20)
(0.793426 -25.9023 -1.81938e-20)
(0.61481 -25.5618 -3.83835e-20)
(0.472649 -25.3009 1.91238e-20)
(0.406198 -25.0612 0)
(0.273994 -24.9354 0)
(0.315717 -24.6703 5.81147e-23)
(0.218014 -24.551 1.12558e-20)
(0.369173 -24.3937 -1.38045e-20)
(0.147794 -23.8779 0)
(0.432411 -21.1748 4.37371e-20)
(-0.010333 -14.9114 2.51162e-20)
(0.230646 -5.81657 2.73512e-21)
(5.83583 -31.232 3.23069e-20)
(4.84602 -29.8001 -3.8672e-20)
(3.50148 -28.9664 2.1152e-20)
(2.87246 -28.3038 0)
(2.20818 -27.7601 2.85794e-20)
(1.71952 -27.1368 -6.47208e-20)
(1.40394 -26.6971 3.15567e-20)
(1.06253 -26.2089 -3.52893e-20)
(0.867117 -25.8503 0)
(0.675135 -25.5222 0)
(0.521128 -25.2806 -3.96767e-20)
(0.444571 -25.04 3.98193e-20)
(0.30715 -24.9124 0)
(0.332591 -24.6742 -4.65761e-20)
(0.23673 -24.5548 1.1258e-20)
(0.386532 -24.3981 1.43872e-20)
(0.155589 -23.8985 -2.02061e-20)
(0.42338 -21.1948 -5.45254e-20)
(-0.00439759 -14.9209 -2.26383e-20)
(0.235443 -5.80409 -5.45697e-21)
(6.47559 -30.8787 0)
(5.3636 -29.55 3.85277e-20)
(3.96344 -28.8054 -3.86503e-20)
(3.22931 -28.2132 0)
(2.51868 -27.689 0)
(1.96863 -27.0776 6.58087e-20)
(1.61641 -26.6455 -6.60076e-20)
(1.23237 -26.167 0)
(1.01154 -25.8192 -3.78672e-20)
(0.792473 -25.4918 7.6966e-20)
(0.616954 -25.2476 -3.9103e-20)
(0.520356 -25.0198 -4.07254e-20)
(0.364608 -24.9053 4.08385e-20)
(0.365108 -24.6674 0)
(0.256628 -24.5604 0)
(0.406347 -24.3994 1.59303e-20)
(0.166447 -23.9179 -3.10535e-20)
(0.424493 -21.2179 -2.76095e-23)
(-0.000210387 -14.9373 1.18653e-20)
(0.238241 -5.79103 -5.44084e-21)
(6.91837 -30.3962 -2.94481e-20)
(5.66085 -29.2131 2.94841e-20)
(4.17976 -28.4945 7.37571e-20)
(3.39767 -27.9636 -1.06658e-19)
(2.66794 -27.499 1.19279e-19)
(2.08602 -26.9492 4.27737e-21)
(1.71793 -26.5485 -6.71143e-20)
(1.31609 -26.091 0)
(1.08354 -25.7605 0)
(0.851181 -25.4467 -3.90989e-20)
(0.664013 -25.2213 0)
(0.558614 -24.9917 0)
(0.398752 -24.8752 0)
(0.389441 -24.6646 0)
(0.277468 -24.5625 0)
(0.423474 -24.4018 0)
(0.177193 -23.9358 2.06575e-20)
(0.416157 -21.2492 -2.16556e-20)
(0.00371308 -14.9587 3.69904e-21)
(0.240795 -5.78065 -5.36373e-21)
(7.51018 -29.9753 -1.29952e-20)
(6.14272 -28.9269 5.19099e-20)
(4.61548 -28.3085 2.78468e-20)
(3.73564 -27.8521 3.41201e-20)
(2.96898 -27.4092 -2.55522e-20)
(2.3257 -26.8782 -9.74557e-20)
(1.92231 -26.4883 -3.53122e-20)
(1.48154 -26.0432 0)
(1.22204 -25.7231 3.91319e-20)
(0.96498 -25.4091 -7.77187e-20)
(0.756555 -25.1827 -4.01951e-20)
(0.631596 -24.9683 -4.11574e-20)
(0.455001 -24.8616 0)
(0.424583 -24.6532 -3.65948e-20)