/*--------------------------------*- C++ -*----------------------------------*\
  =========                 |
  \\      /  F ield         | OpenFOAM: The Open Source CFD Toolbox
   \\    /   O peration     | Website:  https://openfoam.org
    \\  /    A nd           | Version:  9
     \\/     M anipulation  |
\*---------------------------------------------------------------------------*/
FoamFile
{
    format      ascii;
    class       volScalarField;
    location    "9.3";
    object      nut;
}
// * * * * * * * * * * * * * * * * * * * * * * * * * * * * * * * * * * * * * //

dimensions      [0 2 -1 0 0 0 0];

internalField   nonuniform List<scalar> 
46400
(
0.0173854
0.00632501
0.00184164
0.00132634
0.00131366
0.00130365
0.00122298
0.00117964
0.00110644
0.00106761
0.00102657
0.0010032
0.000970443
0.000937505
0.000899882
0.00084368
0.000788457
0.000790748
0.00104636
0.000915483
0.0170277
0.00539472
0.00129161
0.00137985
0.00132294
0.00131281
0.00123137
0.0012167
0.00118028
0.00115576
0.00111941
0.00107776
0.0010346
0.00100664
0.00097172
0.000950627
0.00088878
0.000763557
0.000993213
0.000911965
0.0166132
0.00448442
0.00124088
0.00141902
0.00131343
0.00132097
0.00124427
0.00120201
0.00113747
0.00109183
0.00104955
0.00102135
0.000983173
0.000958572
0.000923633
0.000903318
0.000867062
0.000802233
0.00109094
0.00101274
0.0161467
0.00397618
0.00125667
0.0014496
0.00133659
0.00133222
0.00126087
0.00123605
0.00120011
0.0011765
0.00113919
0.00109453
0.00104072
0.000987647
0.000951324
0.000917519
0.000902431
0.000818155
0.00105222
0.000981121
0.0155573
0.00419648
0.00130508
0.00143973
0.00133526
0.00132349
0.00126154
0.00122644
0.00117489
0.00113299
0.0011061
0.00108098
0.00105493
0.00101703
0.000971071
0.000932215
0.000884172
0.000819099
0.00108069
0.00103451
0.0148806
0.00452356
0.00140178
0.00150834
0.00140114
0.00137399
0.00128714
0.00124338
0.00120465
0.00117297
0.00114012
0.00110451
0.00106726
0.0010418
0.0010272
0.00099299
0.000926277
0.000830284
0.00102061
0.000956074
0.0141778
0.00434445
0.00143822
0.001496
0.00138106
0.00136839
0.00130903
0.00125056
0.00119466
0.00113631
0.00109887
0.00106718
0.00104571
0.00101235
0.00100695
0.00100667
0.000991317
0.000917358
0.00108478
0.0010208
0.0131516
0.00369675
0.0014952
0.00158133
0.00146319
0.00140389
0.00134497
0.0012768
0.00122949
0.00118459
0.00115209
0.00111534
0.00108727
0.00103332
0.000987308
0.000952815
0.000926308
0.000891953
0.00106109
0.00100718
0.0118735
0.00291838
0.00151042
0.00149132
0.00143383
0.00138311
0.0013429
0.00128904
0.00123303
0.00115246
0.00109459
0.00104804
0.00104699
0.00103356
0.00101626
0.00099586
0.000932504
0.0008633
0.00101649
0.00100937
0.00950389
0.00241642
0.00156
0.00151611
0.00146954
0.00140622
0.00138271
0.00131432
0.00129804
0.0012627
0.00121848
0.00112734
0.00106694
0.00102856
0.00097727
0.000951168
0.000925613
0.000844349
0.000930542
0.000932221
0.00761225
0.00203905
0.0015512
0.00143186
0.00136654
0.00127149
0.00125379
0.00121802
0.00117306
0.00115006
0.00117887
0.00116809
0.00110764
0.00108626
0.00107696
0.00104056
0.00103029
0.000979652
0.00104264
0.000988167
0.00595432
0.00180711
0.00158304
0.00150662
0.00150266
0.00140721
0.00134891
0.00130908
0.00126564
0.00115513
0.00109822
0.00108764
0.0010562
0.000978096
0.00096838
0.000938815
0.000905338
0.000888928
0.000954853
0.000929158
0.00485592
0.00162083
0.00154532
0.00145096
0.00144511
0.00137202
0.00132788
0.00126733
0.00129067
0.00126153
0.00120543
0.00114073
0.00114679
0.00109314
0.00102732
0.00100346
0.000961049
0.00091403
0.000988006
0.000963092
0.00414288
0.00162095
0.00160148
0.00145916
0.001469
0.00141049
0.00136287
0.00123471
0.00118911
0.0011488
0.00115436
0.00111481
0.00108933
0.00110822
0.00107644
0.00102944
0.00100428
0.000938946
0.000993448
0.00098418
0.00375741
0.00145839
0.00148585
0.00141823
0.00140835
0.00136323
0.00140457
0.00136683
0.00133233
0.00126906
0.00119736
0.00116315
0.00109941
0.00105669
0.00105737
0.00102685
0.000987341
0.000941172
0.000946408
0.000929677
0.00424389
0.00157904
0.00150087
0.00146634
0.00142379
0.00136022
0.00131913
0.00127112
0.00122488
0.00121755
0.0011871
0.00114194
0.00110723
0.00106094
0.00102828
0.00103143
0.00100064
0.000963828
0.000991266
0.000929931
0.00349093
0.00158135
0.0015057
0.00149361
0.00148461
0.00139742
0.00137967
0.00132664
0.00127407
0.00121309
0.00118864
0.00116894
0.00113114
0.00109274
0.00104465
0.00100543
0.000991871
0.000936677
0.000981503
0.000948724
0.00205918
0.00168848
0.00164781
0.00147865
0.00148156
0.00139072
0.00137241
0.00134456
0.0013188
0.00127543
0.00122379
0.00117605
0.00116301
0.00111455
0.00109379
0.00103987
0.0010059
0.000948641
0.000960036
0.000937145
0.000924534
0.0017262
0.00174799
0.00159276
0.00150325
0.00147691
0.00135848
0.00130968
0.00124687
0.00121336
0.00118299
0.00113474
0.00111149
0.0010851
0.00106554
0.00104552
0.00101526
0.000960034
0.000978055
0.000929321
0.00158725
0.00176454
0.00152229
0.00148257
0.00139271
0.00140648
0.00136038
0.00134465
0.00129823
0.00126176
0.00122537
0.0012007
0.00115471
0.00112305
0.00109076
0.00105694
0.00103289
0.000979701
0.000990905
0.000955419
0.00157577
0.000318587
0.00271772
0.00732717
0.0112316
0.00981076
0.00536883
0.00209438
0.000730413
0.000153176
0.000282432
0.00044495
0.000368358
0.000274642
0.000316885
0.000349029
0.000371432
0.000321456
0.000283595
0.000293833
2.39374e-23
0.00117266
0.0055915
0.0103111
0.0107166
0.00652408
0.00266016
0.000870552
8.84045e-05
0.00024329
0.000375802
0.000324395
0.000276965
0.000382636
0.000335635
0.00032948
0.000328776
0.000285101
0.000273966
0.000276029
5.90871e-05
0.00323226
0.00841048
0.0114374
0.00822597
0.00378311
0.00120514
9.88249e-05
0.000174804
0.00032583
0.000313619
0.00034002
0.000379633
0.000317083
0.000279233
0.000342204
0.000319473
0.000266448
0.000248734
0.000309847
0.000278578
0.00610807
0.0106725
0.0104653
0.00557799
0.00179685
0.000253132
0.000107141
0.000289848
0.000322323
0.000366132
0.000353717
0.000266134
0.000308755
0.000325911
0.000359068
0.000256805
0.000263347
0.000255452
0.000337893
0.00196471
0.00867928
0.0115969
0.00826201
0.00351809
0.000659102
2.1928e-05
0.000246771
0.000342675
0.000374027
0.000307797
0.000291561
0.00033691
0.00034456
0.000299227
0.000325946
0.000242996
0.000273321
0.000262824
0.000395895
0.00307195
0.00979247
0.0113971
0.00633223
0.00156364
9.47362e-05
0.000227804
0.000323317
0.000358417
0.000307599
0.000350869
0.000374761
0.000314439
0.000307313
0.000328933
0.000335687
0.000235025
0.000309931
0.000318308
0.000433968
0.00397783
0.0112541
0.010254
0.00409929
0.000386301
6.17697e-05
0.000299382
0.00036149
0.000382615
0.000426734
0.000386487
0.000335035
0.000340554
0.000372798
0.000338804
0.000331983
0.000278965
0.000343738
0.000367632
0.000480688
0.00664418
0.0118215
0.00898353
0.00198152
0.000176963
0.000304433
0.00043418
0.000463915
0.000470721
0.000410985
0.000399672
0.000407432
0.000383265
0.000369113
0.000380369
0.000374713
0.000294791
0.000398378
0.000457934
0.000547045
0.00913108
0.0120645
0.00769197
0.000809021
0.000136309
0.000514333
0.000534465
0.000471292
0.000501626
0.000512478
0.000477933
0.000431853
0.000411615
0.000432019
0.000407404
0.000399716
0.00036483
0.000467046
0.00048036
0.000529236
0.0116349
0.0119444
0.00560263
0.000380936
0.00042655
0.000602654
0.000596106
0.000592449
0.00060998
0.000545874
0.000505019
0.000482639
0.000467237
0.000459985
0.00048016
0.000458011
0.00037816
0.000493704
0.000477132
0.000546576
0.0139342
0.0117192
0.00374806
0.000240151
0.000614534
0.000739565
0.000678392
0.000628571
0.000633433
0.000620923
0.00058117
0.000548519
0.000520431
0.000515152
0.000498573
0.000488127
0.000461064
0.000529617
0.000442283
0.000516129
0.0152618
0.0113576
0.00243644
0.000328366
0.000768411
0.000784022
0.000731885
0.000724364
0.000736601
0.000677507
0.000631355
0.000588594
0.000564008
0.000564571
0.000590977
0.000539393
0.000490578
0.000542146
0.000428653
0.000549399
0.0160759
0.0108937
0.00147222
0.00045904
0.00087907
0.000854954
0.000830111
0.000766504
0.000761661
0.000740122
0.000694406
0.000674854
0.00064219
0.000614637
0.000603024
0.000577127
0.000558227
0.000568972
0.000403655
0.000556959
0.0166443
0.0104501
0.00102665
0.000604931
0.00103412
0.000899686
0.0008794
0.000855766
0.000853985
0.000809618
0.000764714
0.000711353
0.000680293
0.000681536
0.000685041
0.000621358
0.000599675
0.000591939
0.000393197
0.000581456
0.0172972
0.0100278
0.00124672
0.000811844
0.00109602
0.000983707
0.000964419
0.000901259
0.000880055
0.000854346
0.000811775
0.000800852
0.00076149
0.000727036
0.000706428
0.000649919
0.000642054
0.000619661
0.000370246
0.000403749
0.0175299
0.00954426
0.00217351
0.000964431
0.00116917
0.00104668
0.00100483
0.000980274
0.000965879
0.000936866
0.000890993
0.000838533
0.000806811
0.00079811
0.000776637
0.00071427
0.000709129
0.000663742
0.000366266
0.000381613
0.017872
0.00926081
0.00248083
0.00108448
0.00121178
0.00111517
0.00108574
0.00102491
0.000988967
0.000963849
0.000931032
0.000918832
0.000879002
0.000853702
0.000817738
0.00076137
0.000781597
0.000727426
0.00037832
0.000186627
0.0178435
0.00888488
0.002281
0.00111789
0.00127821
0.00115243
0.00110289
0.00108334
0.0010582
0.00104391
0.00100108
0.000965612
0.000935127
0.000932605
0.000919411
0.000884121
0.0009162
0.000924133
0.000583335
0.000551344
0.0178615
0.00820085
0.00214198
0.00119993
0.00129374
0.00123357
0.00117976
0.0011359
0.0010825
0.00106125
0.00103901
0.00103013
0.00101485
0.00100686
0.000988805
0.000999182
0.00102849
0.00100999
0.000867655
0.000718505
0.0176394
0.00735605
0.00216901
0.00124794
0.00131688
0.0012472
0.00117437
0.00116342
0.00113511
0.00112628
0.00109991
0.00108287
0.00106349
0.00107331
0.00106558
0.0011073
0.00117058
0.000974314
0.001251
0.0013557
0.0035871
0.00318376
0.00233571
0.00212567
0.00205273
0.00183724
0.00169607
0.00149596
0.00137584
0.0011506
0.0010321
0.000942568
0.000805764
0.000785625
0.000648981
0.00082549
0.000983023
0.005844
0.0108956
0.0166755
0.00377734
0.00306564
0.00229454
0.00214332
0.00199533
0.00187719
0.00178088
0.00157015
0.0013968
0.00112583
0.00099417
0.000909306
0.000777367
0.000763838
0.000623178
0.000793118
0.000867369
0.00589664
0.0108441
0.0165768
0.00404147
0.00284794
0.00218992
0.00221007
0.00206019
0.00188778
0.00172062
0.00150217
0.00136141
0.00112853
0.0010212
0.000932
0.000792862
0.000777678
0.000627962
0.000791978
0.000786172
0.00582488
0.0109243
0.016499
0.00422896
0.00279441
0.00224192
0.00220512
0.00204245
0.00191966
0.00175187
0.00153924
0.00136362
0.0010977
0.000982205
0.000902846
0.000769478
0.000758745
0.000606122
0.000765309
0.000662628
0.00584316
0.0108775
0.0164253
0.00442015
0.00259488
0.00220077
0.00228701
0.00207318
0.00191424
0.00171348
0.00150324
0.00133989
0.00110813
0.00101436
0.000922991
0.000788836
0.000773045
0.000611317
0.000767469
0.00058094
0.00579727
0.0109366
0.0163471
0.00445172
0.00257141
0.00240556
0.00231422
0.00207224
0.00192126
0.00170923
0.00151423
0.0013251
0.00107287
0.000977102
0.000898032
0.000771301
0.00075915
0.000593248
0.000747965
0.000463413
0.00578335
0.0109138
0.0162934
0.00440186
0.00256196
0.00242059
0.00231983
0.00205416
0.00189725
0.00167919
0.00149262
0.00130372
0.00108683
0.00101183
0.00091583
0.000793994
0.000773883
0.000598547
0.000753057
0.000384591
0.00575035
0.0109352
0.0162385
0.00427548
0.00251619
0.00264942
0.00240458
0.00211402
0.00190414
0.00167882
0.00149311
0.00128123
0.00105243
0.000977215
0.000896088
0.000782411
0.000764991
0.000584938
0.000735832
0.000270847
0.00571818
0.0109399
0.0161983
0.00421688
0.00271824
0.00272135
0.00235284
0.00201958
0.00182408
0.00162878
0.00147105
0.00125346
0.00106664
0.00101125
0.000910415
0.000806298
0.000780094
0.000596113
0.000739857
0.000193524
0.0056857
0.010937
0.0161645
0.00420983
0.00272703
0.00283791
0.00239775
0.00209357
0.00185378
0.00164302
0.00147182
0.00123417
0.00103731
0.000979897
0.000897287
0.000801122
0.000777708
0.000590265
0.000733934
8.8011e-05
0.00564208
0.0109366
0.0161217
0.00430374
0.00292341
0.00293955
0.002408
0.00200495
0.00176726
0.00158916
0.00144488
0.00120032
0.00105357
0.00101045
0.000908666
0.000824384
0.0007932
0.000601787
0.000734077
7.54213e-05
0.00560715
0.0109555
0.0160753
0.0043723
0.00301508
0.00296629
0.00233957
0.00198334
0.00177347
0.00158509
0.00144629
0.00119068
0.00103185
0.000984015
0.000902003
0.000823848
0.000796899
0.000602953
0.000724861
7.13853e-05
0.00556113
0.0109619
0.016031
0.00458969
0.00308913
0.00294202
0.00240824
0.00195879
0.00173631
0.00154569
0.00141557
0.00116011
0.00105336
0.00100941
0.000911638
0.000844929
0.000811114
0.000619194
0.00072543
6.73887e-05
0.00551332
0.0109517
0.0160204
0.00481043
0.00324674
0.00292296
0.00228713
0.00185906
0.00170978
0.00152267
0.00141614
0.00116255
0.00104021
0.000989898
0.000911143
0.000848761
0.000817186
0.000620287
0.000718197
6.48674e-05
0.00546444
0.0109538
0.0160039
0.00509985
0.0032139
0.00273105
0.00230989
0.00185504
0.00170195
0.00149495
0.0013825
0.00114111
0.00106573
0.00100943
0.000919297
0.000867528
0.000827229
0.000635596
0.000725418
6.17794e-05
0.00541857
0.0109509
0.0160163
0.00513482
0.0033654
0.00273484
0.00222743
0.00176963
0.00167183
0.00147247
0.00138374
0.00114866
0.00105625
0.000996004
0.00092226
0.000872509
0.000831214
0.000639013
0.000725756
5.68746e-05
0.00537181
0.0109892
0.0160163
0.00525038
0.00341352
0.00246656
0.00218584
0.00176678
0.00166987
0.00145118
0.00135076
0.00113492
0.00108031
0.00100899
0.000929229
0.000887483
0.000841122
0.000666736
0.000730739
5.36379e-05
0.0052858
0.0109414
0.0160213
0.00476871
0.00349409
0.00249544
0.00221177
0.001756
0.00168062
0.00145651
0.00137049
0.00114789
0.00107902
0.00100547
0.000938883
0.000894034
0.000848899
0.000687716
0.000756522
5.45611e-05
0.00529672
0.0109985
0.0160841
0.0044489
0.00349615
0.00229951
0.00211197
0.00170095
0.00162811
0.0014053
0.00131907
0.00112181
0.00107779
0.000997808
0.00093283
0.000893323
0.000842608
0.000677905
0.000765997
5.67692e-05
0.00524637
0.011025
0.0161645
0.00302339
0.00342832
0.00240482
0.00215465
0.00172517
0.00162064
0.00141831
0.00134925
0.00114419
0.00108531
0.00100502
0.000947689
0.00089701
0.000862496
0.00075512
0.000796799
0.000121336
0.00493713
0.0108638
0.0157484
0.0282526
0.0294769
0.0156965
0.0210225
0.0182338
0.0174363
0.015173
0.0140769
0.0121491
0.0116404
0.0104791
0.00981
0.00908677
0.00869782
0.00805501
0.0085837
0.0122359
0.0482388
0.103067
0.145785
0.026819
0.0200109
0.0190399
0.0165262
0.0152971
0.013343
0.0121629
0.0106723
0.00954067
0.00932476
0.0084648
0.00822536
0.00765632
0.00729393
0.00722667
0.00619745
0.0127625
0.043405
0.101355
0.143263
0.0134567
0.0143886
0.0131244
0.0117244
0.010963
0.009884
0.00967326
0.00928395
0.00866703
0.00815952
0.00787042
0.0074791
0.00711272
0.00690475
0.0062921
0.00634686
0.0105799
0.0419893
0.0982479
0.140627
0.0134339
0.0106772
0.00937946
0.00849593
0.00870716
0.00810372
0.00768441
0.00716067
0.00704368
0.00666389
0.00631625
0.00595163
0.00571277
0.00536528
0.00525288
0.00444328
0.0102308
0.0361579
0.0978976
0.135868
0.00573893
0.00739478
0.00712713
0.0059048
0.00628647
0.00611237
0.0062684
0.00602968
0.00578136
0.00554245
0.0054042
0.00525195
0.00510808
0.00507283
0.00489028
0.00456931
0.00689148
0.0358234
0.097149
0.133447
0.00595259
0.00625581
0.00524341
0.00443571
0.00460358
0.00467013
0.00466424
0.00466231
0.00483704
0.0047886
0.00472011
0.00464439
0.00452115
0.0043945
0.00427226
0.00310938
0.00779769
0.0298772
0.0971149
0.132092
0.00289036
0.00366857
0.00392217
0.00334298
0.00336141
0.00365419
0.00387548
0.00404524
0.00393149
0.00402257
0.00400045
0.00396198
0.00388519
0.00397756
0.0039138
0.00376023
0.00351545
0.0288037
0.0966545
0.133409
0.00272694
0.00329344
0.00306555
0.00251772
0.0025197
0.00265043
0.00293557
0.0031468
0.00335497
0.00351157
0.00355913
0.00369445
0.0036772
0.00396025
0.00385103
0.00313299
0.0046362
0.0205815
0.0960586
0.135737
0.00151326
0.0019819
0.00194849
0.00198084
0.00233619
0.00264695
0.00266634
0.0028407
0.00288405
0.003044
0.00310431
0.00331605
0.00321602
0.00356838
0.0036291
0.00397295
0.00238591
0.0180468
0.0934084
0.145668
0.00125205
0.00148838
0.00164077
0.00159989
0.00168283
0.00189808
0.00199119
0.00225084
0.00241713
0.0026347
0.00271092
0.00300733
0.00302272
0.00348905
0.00354451
0.00379389
0.00298536
0.00993363
0.0886669
0.153643
0.000829936
0.00111927
0.00121009
0.001284
0.00150209
0.0019137
0.00209078
0.00205769
0.00211972
0.00232038
0.00242513
0.00266218
0.00277614
0.00302593
0.00337192
0.00401186
0.00352143
0.00789969
0.0661556
0.166034
0.000863467
0.000924786
0.000931036
0.000855814
0.000888373
0.00104712
0.00135351
0.00166481
0.00166378
0.00191613
0.00202923
0.00236914
0.00254991
0.00292225
0.00313817
0.00352729
0.00410532
0.00458952
0.0536061
0.1839
0.000496083
0.000651705
0.000732981
0.00082718
0.000801018
0.00103147
0.00111847
0.00128489
0.00139757
0.00150222
0.00166758
0.0017763
0.00207398
0.00219732
0.00280688
0.00284709
0.00385497
0.0078779
0.0286199
0.162049
0.000467119
0.000425313
0.00046887
0.000449236
0.000392448
0.000544157
0.000635441
0.000847822
0.00095332
0.00122103
0.00128018
0.00159077
0.00157993
0.00201155
0.00199907
0.00270088
0.00259627
0.00523776
0.0156845
0.115089
0.000364495
0.000382195
0.000424919
0.000507145
0.000496033
0.000533146
0.000549297
0.000665316
0.000691946
0.000837648
0.00076519
0.00103081
0.00110997
0.00142431
0.00153676
0.00212541
0.00219511
0.00311876
0.00372505
0.0686301
0.000237307
0.00027188
0.000212766
0.000225878
0.000382317
0.000395903
0.00045372
0.000512989
0.000518954
0.000628496
0.000649171
0.000813715
0.000861804
0.00109286
0.00110042
0.00124937
0.000888487
0.00149197
0.00287129
0.0390371
0.000179378
0.000245547
0.000160859
0.000233555
0.000202729
0.000243921
0.000338402
0.000388983
0.000417049
0.000460101
0.000519679
0.000578698
0.000604411
0.000665294
0.000620986
0.000904762
0.000584968
0.00139872
0.00125781
0.0176591
0.000325774
0.000347332
0.000388619
0.000427601
0.000454778
0.000463417
0.000464993
0.000493815
0.000481045
0.000527879
0.000542808
0.000611098
0.000620486
0.000703274
0.000690187
0.000534961
0.00124214
0.000360962
0.00193016
0.00425604
0.000437788
0.00044278
0.000492731
0.000489357
0.00050668
0.000516783
0.000531188
0.000530189
0.000546351
0.000536554
0.000549098
0.000527605
0.000537598
0.000566612
0.000501007
0.00067907
0.000530414
0.000960289
0.00124979
0.00290665
0.000507018
0.000499417
0.000504468
0.000498687
0.000511719
0.000525284
0.000528093
0.000539026
0.000546474
0.00056311
0.000565981
0.000592973
0.00059047
0.000602354
0.000515181
0.000473837
0.000400684
0.000319759
0.000242378
0.000200269
0.0139498
0.0140325
0.0138906
0.0137456
0.01364
0.0135479
0.0134694
0.0131474
0.0132925
0.0127646
0.0129331
0.0127995
0.0114095
0.0103279
0.0111143
0.0116541
0.0111779
0.0113493
0.00848712
0.00898218
0.00691911
0.00695092
0.0068675
0.00686196
0.00679355
0.00676773
0.00665443
0.0065816
0.00629242
0.00647216
0.00650834
0.00644182
0.0060831
0.00634942
0.0086472
0.00830293
0.00673617
0.00643342
0.00577801
0.00750576
0.00418211
0.00418601
0.00418972
0.00427413
0.00427225
0.00433785
0.00440887
0.00448557
0.00451378
0.00460171
0.00461404
0.00491203
0.00443963
0.0040241
0.00346835
0.00365827
0.00395174
0.00449418
0.00413247
0.00362034
0.00269748
0.00268118
0.00267503
0.00263639
0.00259066
0.00257736
0.00256577
0.00256746
0.00245343
0.00241907
0.00238285
0.0023245
0.00237272
0.0025913
0.00266962
0.0026487
0.00225551
0.00248892
0.00221499
0.00276573
0.00160978
0.00161536
0.0016126
0.0016144
0.00161234
0.0016085
0.00162187
0.00163959
0.00173683
0.00176917
0.00163073
0.00161202
0.00155337
0.00162794
0.00156331
0.0016723
0.00183064
0.00193878
0.00164097
0.00155598
0.00113608
0.00114023
0.00113308
0.00114164
0.00112434
0.00112043
0.00110327
0.00109494
0.00104587
0.00102578
0.00106813
0.00106076
0.00108048
0.00102796
0.000995106
0.00101665
0.000931521
0.00106903
0.00112489
0.00120981
0.000644889
0.000642244
0.000645652
0.000646598
0.000651273
0.000663454
0.000653625
0.000656011
0.000650628
0.000683416
0.000677819
0.000708014
0.000662792
0.0007178
0.000696931
0.000719102
0.000768703
0.000821568
0.000692796
0.000679079
0.000437197
0.000433356
0.000434729
0.000432558
0.000443228
0.000443893
0.000459509
0.000462975
0.00047236
0.000464265
0.000467199
0.000455107
0.000465383
0.000494146
0.000534837
0.000538305
0.000463164
0.000573664
0.000665489
0.000667637
0.000236128
0.00023745
0.000233828
0.000234613
0.000237119
0.000245296
0.000251362
0.000263947
0.00027103
0.000273416
0.000273443
0.000354104
0.000416599
0.000385801
0.000390385
0.000486149
0.000428837
0.000322315
0.000258832
0.000272923
0.000137404
0.000141918
0.000142253
0.000149203
0.000151985
0.000169318
0.000175749
0.000194672
0.000199093
0.000215734
0.000209347
0.00020438
0.000205554
0.000268503
0.000271676
0.000288675
0.000378237
0.000427119
0.000213098
0.000282049
5.82204e-05
6.60241e-05
7.60141e-05
8.60999e-05
0.000102487
0.000125011
0.000146438
0.000162089
0.000181335
0.000205835
0.000252094
0.000255054
0.000206483
0.000170689
0.000143376
7.24902e-05
2.2393e-05
0.000154464
0.000137061
0.000201199
8.22705e-05
0.000104508
0.000106862
0.000108913
0.000103602
6.44438e-05
6.53036e-05
6.79016e-05
6.47744e-05
5.33881e-05
9.38398e-05
0.000147631
0.000164026
0.0001641
0.000175249
0.000238789
0.000224952
0.000195081
0.000158712
0.000193171
6.91565e-05
6.37337e-05
7.85599e-05
9.81976e-05
0.000114367
0.000111204
8.75748e-05
7.50401e-05
8.13704e-05
9.79228e-05
7.58425e-05
5.78495e-05
4.3889e-05
5.80884e-05
5.08765e-05
6.91932e-05
8.28644e-05
9.49573e-05
9.20159e-05
0.000107486
5.05825e-05
5.04612e-05
4.44307e-05
4.49214e-05
5.71588e-05
6.94514e-05
8.07462e-05
7.72417e-05
6.7251e-05
6.93982e-05
6.46283e-05
6.31875e-05
6.3623e-05
6.77591e-05
6.92979e-05
7.44547e-05
7.68748e-05
8.02205e-05
8.47763e-05
8.9086e-05
4.09522e-05
4.06219e-05
4.03492e-05
3.91647e-05
4.11644e-05
4.43111e-05
5.19272e-05
6.04066e-05
6.57335e-05
7.00869e-05
7.06924e-05
7.4859e-05
7.4825e-05
7.89504e-05
7.94938e-05
8.22591e-05
7.90659e-05
7.77061e-05
7.612e-05
8.05305e-05
5.82794e-05
5.80469e-05
5.78566e-05
5.62654e-05
5.63657e-05
5.75114e-05
5.7086e-05
5.42613e-05
5.37247e-05
5.26475e-05
5.22705e-05
5.23668e-05
5.23954e-05
5.21036e-05
5.30079e-05
5.5259e-05
5.68689e-05
5.77885e-05
5.62307e-05
6.16679e-05
7.53254e-05
7.50437e-05
7.322e-05
7.0868e-05
6.57574e-05
6.05283e-05
5.69683e-05
5.30915e-05
5.06573e-05
4.82395e-05
4.65322e-05
4.51858e-05
4.42853e-05
4.42418e-05
4.42208e-05
4.43713e-05
4.34412e-05
4.40872e-05
4.09595e-05
3.85393e-05
7.78323e-05
7.8081e-05
7.75698e-05
7.65818e-05
7.52949e-05
7.44206e-05
7.40499e-05
7.3679e-05
7.34935e-05
7.30968e-05
7.33632e-05
7.35528e-05
7.37443e-05
7.39625e-05
7.52306e-05
7.67882e-05
7.84639e-05
7.77752e-05
7.16637e-05
7.04149e-05
0.000104776
0.000102807
0.000101443
0.000101287
0.000101284
0.000101382
0.000101072
0.000101366
0.000102781
0.000105126
0.000106288
0.000106408
0.000106144
0.000104982
0.000105006
0.000104256
0.000106094
0.000103498
0.000107586
0.000109146
0.000104813
0.000105871
0.000106745
0.000107593
0.000108471
0.000109134
0.000110072
0.000110783
0.000111836
0.000112464
0.000113196
0.000113783
0.000114778
0.000115399
0.000116388
0.000117101
0.000118307
0.000118942
0.000121223
0.000122502
0.00116721
0.00157749
0.00117324
0.00116622
0.00124589
0.00124526
0.00125931
0.00127995
0.0013318
0.00139505
0.00143517
0.00146923
0.00154348
0.00156182
0.00166817
0.00166245
0.0017303
0.00169196
0.00675461
0.0223138
0.00115374
0.00132961
0.000986051
0.00105772
0.00115497
0.00119154
0.00124612
0.001304
0.00132511
0.00136514
0.00141985
0.0014674
0.00154576
0.00157829
0.00166108
0.00163387
0.00174411
0.0016523
0.00605438
0.0217968
0.00114862
0.00144601
0.00107587
0.00108166
0.0011882
0.00121934
0.00124128
0.00126629
0.0013268
0.00138244
0.00141999
0.00145726
0.00151
0.00153544
0.00164978
0.00162812
0.0017827
0.00147342
0.00484508
0.0212622
0.00117138
0.00139769
0.00103007
0.00105615
0.00113946
0.00117287
0.00120946
0.00126714
0.0012904
0.00133891
0.00139171
0.00144848
0.00152662
0.00155902
0.00163235
0.00159875
0.00178026
0.00145628
0.00461872
0.0206229
0.00117796
0.00141381
0.00106043
0.00108169
0.00118005
0.00121215
0.00123249
0.00127356
0.0013242
0.0013798
0.00140986
0.00145965
0.00150091
0.00154883
0.00166028
0.00165071
0.00181899
0.00157883
0.00558641
0.0198632
0.00119956
0.00141886
0.00106317
0.00109146
0.00116287
0.00117542
0.00121911
0.00126151
0.00129303
0.00133745
0.00138471
0.00145351
0.00151161
0.00156849
0.00162442
0.00162076
0.00183429
0.00159142
0.00563732
0.019183
0.00117051
0.00137805
0.00105682
0.00108906
0.00117214
0.00121952
0.00124815
0.00128438
0.00133405
0.00137206
0.0014164
0.00146917
0.00151611
0.00157683
0.00164605
0.001671
0.00182971
0.00166781
0.00547509
0.0183123
0.00121995
0.00139494
0.00109168
0.00113934
0.00119631
0.00121363
0.00123197
0.00127249
0.00129638
0.00134602
0.00139872
0.00145384
0.00148767
0.00153002
0.00157273
0.00163439
0.00179022
0.00160616
0.00458367
0.0169782
0.00120479
0.00135447
0.0010723
0.00111053
0.00117272
0.00120215
0.00123187
0.00127823
0.00131542
0.00136287
0.00139122
0.001422
0.00145652
0.00152454
0.00157772
0.00162993
0.00172326
0.00168378
0.00358112
0.0147974
0.00120667
0.00132345
0.00106822
0.00112392
0.00117985
0.00119229
0.00122171
0.00123991
0.00126441
0.00129784
0.00131807
0.00136197
0.00141661
0.00147362
0.00151242
0.00161268
0.00165142
0.00165738
0.00285311
0.0119168
0.00114008
0.00121913
0.00103265
0.00108881
0.00113696
0.00115746
0.00117404
0.00121282
0.00125436
0.00128332
0.00131555
0.00138709
0.0014227
0.0014711
0.00151638
0.00158869
0.00163328
0.00169529
0.00248388
0.00989461
0.00110897
0.00119045
0.00103561
0.00106449
0.00109157
0.00110278
0.00114542
0.00118763
0.00121605
0.00124808
0.00130516
0.00135124
0.0013838
0.00144786
0.00151707
0.00158884
0.00155502
0.00163923
0.00207478
0.00798151
0.00106806
0.0011269
0.000991011
0.00101802
0.00107216
0.00111348
0.00116262
0.00118986
0.00121671
0.00126849
0.00131436
0.00137196
0.00140906
0.00150941
0.00154235
0.00159054
0.00161942
0.00163629
0.00186784
0.00681787
0.00104626
0.00108855
0.000987716
0.00103741
0.00108843
0.00112559
0.00115505
0.00118823
0.00124567
0.00131559
0.00136229
0.00139808
0.00143643
0.00148344
0.00147043
0.00148034
0.00148091
0.00159087
0.00173582
0.00583615
0.0010093
0.00107442
0.00101687
0.00105808
0.00110324
0.001117
0.00114583
0.00118735
0.00124507
0.00125631
0.00127142
0.00129965
0.00133996
0.00138673
0.00135011
0.00150394
0.0015365
0.00164178
0.00179596
0.00547067
0.00100425
0.00104521
0.00099072
0.00101761
0.00106024
0.00108382
0.00113451
0.00117526
0.00119328
0.00122342
0.00126469
0.0013305
0.0013646
0.00140715
0.00146077
0.00159854
0.00160202
0.00168139
0.00177048
0.00497394
0.00101276
0.00105135
0.00101165
0.00105267
0.00108568
0.00111354
0.00114505
0.00116799
0.00120625
0.00125987
0.00131693
0.00135189
0.00138838
0.00143634
0.00151081
0.00156891
0.00148556
0.00164982
0.00166263
0.00410347
0.000986877
0.00102688
0.000999088
0.00103663
0.00106831
0.00109448
0.00112665
0.0011609
0.00120794
0.00123808
0.00127311
0.00129857
0.00135144
0.00141871
0.00146995
0.00154289
0.00161681
0.00178329
0.0016567
0.0034531
0.000972915
0.00102045
0.000993372
0.00103145
0.00106729
0.00108857
0.00111613
0.00115392
0.00117986
0.00122186
0.00126656
0.00132208
0.00136887
0.00142421
0.00146498
0.00147849
0.00162746
0.00154026
0.00145145
0.00328965
0.000958846
0.000978425
0.000971837
0.00101681
0.00105519
0.0010852
0.00112133
0.00115641
0.00118486
0.00121754
0.00123807
0.00126764
0.00128254
0.00131264
0.0013539
0.00140255
0.00146101
0.00139369
0.00175949
0.00351914
0.00105682
0.00117531
0.00126396
0.00126708
0.0012846
0.00123548
0.00121523
0.00118652
0.00118786
0.00124279
0.00121686
0.00124362
0.00134145
0.0013932
0.00137647
0.00097547
0.000475063
0.00967812
0.0158008
0.0178269
0.00103625
0.00117295
0.00132088
0.00131604
0.00128604
0.00118547
0.00114744
0.00118856
0.00120675
0.00121239
0.00128375
0.00131133
0.00129673
0.0013893
0.00145132
0.00103937
0.000683779
0.0074918
0.0158268
0.0193047
0.00105594
0.00114551
0.00127963
0.0013046
0.00135095
0.00128432
0.00122335
0.00118544
0.00120142
0.00124922
0.001249
0.00131481
0.00140007
0.00142847
0.00149925
0.00132855
0.000824293
0.0060253
0.0157888
0.0200892
0.0010577
0.00116223
0.00133201
0.00130475
0.00128591
0.00121747
0.00119913
0.00123666
0.0012464
0.00126759
0.00130846
0.00132265
0.00133812
0.00142411
0.00150616
0.00137914
0.000366972
0.00439373
0.0156143
0.0208888
0.00104782
0.00113584
0.00133592
0.00133804
0.0013637
0.00127622
0.00120751
0.00119108
0.00121683
0.00124782
0.0012868
0.00136741
0.00141766
0.00147884
0.00155677
0.00150121
0.000521115
0.00341976
0.0154325
0.0216126
0.0010718
0.00114947
0.00135144
0.00130831
0.00130989
0.00125826
0.00123557
0.00125171
0.00126447
0.00130519
0.00131593
0.0013359
0.00138681
0.00145937
0.00151779
0.00151099
0.000634168
0.00235191
0.01514
0.0221044
0.0010305
0.00110954
0.00136645
0.0013377
0.00132814
0.00123835
0.00118944
0.00120679
0.00123547
0.00125202
0.00132148
0.00139812
0.00142147
0.00151764
0.00158094
0.00159129
0.000822402
0.00181654
0.0149223
0.0228146
0.00107379
0.00114733
0.00137928
0.00132871
0.00133217
0.00127977
0.00124695
0.00124468
0.00126956
0.00132196
0.00132106
0.00135811
0.00142855
0.00148617
0.00152336
0.00159211
0.00101028
0.00124393
0.0145337
0.0232195
0.00103386
0.00108796
0.0013802
0.00132039
0.00128159
0.00120638
0.00118457
0.00122809
0.00125751
0.00126929
0.00134824
0.0014092
0.00142677
0.00154137
0.00158617
0.00163739
0.00112417
0.00104881
0.0142514
0.0237333
0.00106622
0.00113169
0.00140305
0.00134028
0.0013239
0.00126685
0.00123937
0.00123805
0.00127537
0.00132337
0.00133317
0.00138834
0.00145845
0.00151285
0.0015389
0.00164864
0.0012642
0.00143209
0.0138072
0.023971
0.0010395
0.00105519
0.00137127
0.00128968
0.00123594
0.00118851
0.00119553
0.00124608
0.0012745
0.00129649
0.00136871
0.00141157
0.00144406
0.00154983
0.00157285
0.00166984
0.00133045
0.00141284
0.013461
0.0242742
0.00104855
0.00109109
0.00139822
0.00131432
0.00126957
0.00122649
0.00122244
0.00123864