/*--------------------------------*- C++ -*----------------------------------*\
  =========                 |
  \\      /  F ield         | OpenFOAM: The Open Source CFD Toolbox
   \\    /   O peration     | Website:  https://openfoam.org
    \\  /    A nd           | Version:  9
     \\/     M anipulation  |
\*---------------------------------------------------------------------------*/
FoamFile
{
    format      ascii;
    class       surfaceScalarField;
    location    "9.3";
    object      phi;
}
// * * * * * * * * * * * * * * * * * * * * * * * * * * * * * * * * * * * * * //

dimensions      [0 3 -1 0 0 0 0];

internalField   nonuniform List<scalar> 
92080
(
-0.000197385
-0.415335
0.415532
-0.0205072
-0.84216
0.862469
-0.0580008
-0.924609
0.962103
-0.0970348
-0.909884
0.948918
-0.135119
-0.896023
0.934107
-0.172683
-0.881481
0.919045
-0.209803
-0.868929
0.906049
-0.246581
-0.857372
0.894149
-0.282687
-0.847436
0.883543
-0.318103
-0.837581
0.872997
-0.352217
-0.828686
0.862799
-0.386019
-0.818471
0.852274
-0.419365
-0.809662
0.843007
-0.451752
-0.80107
0.833457
-0.484162
-0.792594
0.825004
-0.515285
-0.785764
0.816887
-0.546119
-0.779261
0.810095
-0.576159
-0.773008
0.803047
-0.604157
-0.767066
0.795065
-0.763089
0.799028
-0.640096
-0.00269905
-0.412635
-0.0272022
-0.817656
-0.0672123
-0.884599
-0.107357
-0.869739
-0.146707
-0.856674
-0.185992
-0.842195
-0.225225
-0.829696
-0.26441
-0.818188
-0.303513
-0.808333
-0.342271
-0.798822
-0.380486
-0.790471
-0.417323
-0.781634
-0.454099
-0.772885
-0.490483
-0.764686
-0.526401
-0.756677
-0.56268
-0.749486
-0.597767
-0.744173
-0.632347
-0.738427
-0.665412
-0.734001
-0.730662
-0.697839
-0.00490063
-0.407735
-0.0326761
-0.789881
-0.0746
-0.842675
-0.117259
-0.827079
-0.158589
-0.815343
-0.198679
-0.802106
-0.238369
-0.790005
-0.277829
-0.778728
-0.316877
-0.769284
-0.355429
-0.760271
-0.393341
-0.75256
-0.430552
-0.744423
-0.466295
-0.737142
-0.501759
-0.729222
-0.536783
-0.721652
-0.572185
-0.714084
-0.607833
-0.708526
-0.642336
-0.703924
-0.678544
-0.697793
-0.693522
-0.715684
-0.0070505
-0.400684
-0.0401613
-0.75677
-0.0838817
-0.798955
-0.127259
-0.783702
-0.170374
-0.772229
-0.212946
-0.759533
-0.254881
-0.74807
-0.296637
-0.736972
-0.33842
-0.727501
-0.38023
-0.71846
-0.421677
-0.711112
-0.462495
-0.703605
-0.502609
-0.697029
-0.541039
-0.690791
-0.578564
-0.684127
-0.615503
-0.677145
-0.65406
-0.669969
-0.69224
-0.665744
-0.728427
-0.661607
-0.656911
-0.765038
-0.00720535
-0.393479
-0.0446565
-0.719319
-0.0893297
-0.754281
-0.134364
-0.738667
-0.178298
-0.728296
-0.221041
-0.71679
-0.263447
-0.705664
-0.305529
-0.694889
-0.347343
-0.685687
-0.389046
-0.676758
-0.430913
-0.669246
-0.472483
-0.662035
-0.513712
-0.6558
-0.554363
-0.650141
-0.593482
-0.645008
-0.63059
-0.640037
-0.667122
-0.633437
-0.705677
-0.627189
-0.74441
-0.622874
-0.618247
-0.783073
-0.00649203
-0.386987
-0.0472026
-0.678608
-0.0947675
-0.706716
-0.142375
-0.69106
-0.190196
-0.680475
-0.236699
-0.670287
-0.281308
-0.661055
-0.325294
-0.650904
-0.368859
-0.642122
-0.412071
-0.633545
-0.454961
-0.626356
-0.497908
-0.619087
-0.540674
-0.613035
-0.583578
-0.607236
-0.627028
-0.601558
-0.669585
-0.59748
-0.709589
-0.593433
-0.748031
-0.588747
-0.786183
-0.584722
-0.580587
-0.823843
-0.00446596
-0.382521
-0.0462439
-0.636831
-0.0965111
-0.656449
-0.145104
-0.642467
-0.192855
-0.632724
-0.240698
-0.622444
-0.287708
-0.614045
-0.333
-0.605612
-0.377492
-0.597631
-0.421227
-0.58981
-0.464466
-0.583118
-0.507105
-0.576448
-0.549531
-0.570608
-0.591051
-0.565717
-0.633054
-0.559554
-0.676241
-0.554294
-0.720326
-0.549347
-0.763875
-0.545198
-0.806204
-0.542393
-0.539193
-0.847598
-0.00364743
-0.378874
-0.0489164
-0.591562
-0.102915
-0.60245
-0.155836
-0.589547
-0.207399
-0.58116
-0.257172
-0.572671
-0.306313
-0.564903
-0.354374
-0.557551
-0.401018
-0.550987
-0.446978
-0.54385
-0.492389
-0.537707
-0.53773
-0.531107
-0.583142
-0.525196
-0.6275
-0.521359
-0.670204
-0.51685
-0.711816
-0.512682
-0.752907
-0.508257
-0.79531
-0.502794
-0.838143
-0.499559
-0.497184
-0.880153
-0.00414272
-0.374731
-0.0524478
-0.543257
-0.107
-0.547898
-0.158739
-0.537808
-0.210424
-0.529475
-0.26154
-0.521555
-0.311565
-0.514878
-0.360796
-0.50832
-0.408785
-0.502998
-0.454901
-0.497733
-0.499532
-0.493076
-0.542789
-0.48785
-0.586918
-0.481067
-0.631635
-0.476642
-0.676418
-0.472067
-0.72108
-0.46802
-0.763868
-0.465468
-0.805399
-0.461264
-0.848042
-0.456916
-0.453858
-0.891368
-0.0111242
-0.363607
-0.0625422
-0.491839
-0.118532
-0.491908
-0.172778
-0.483562
-0.225489
-0.476764
-0.277409
-0.469635
-0.329426
-0.462861
-0.380395
-0.457351
-0.431416
-0.451978
-0.482166
-0.446983
-0.5319
-0.443342
-0.57882
-0.44093
-0.623978
-0.435909
-0.668942
-0.431678
-0.712416
-0.428593
-0.75597
-0.424466
-0.799625
-0.421814
-0.841292
-0.419597
-0.882047
-0.416162
-0.412563
-0.923342
-0.0186861
-0.344921
-0.0715047
-0.43902
-0.127245
-0.436168
-0.179764
-0.431044
-0.230683
-0.425845
-0.279382
-0.420935
-0.327635
-0.414608
-0.375799
-0.409187
-0.422614
-0.405163
-0.47003
-0.399567
-0.519395
-0.393978
-0.569183
-0.391141
-0.616783
-0.388309
-0.664707
-0.383755
-0.712717
-0.380582
-0.75973
-0.377453
-0.807384
-0.374159
-0.854873
-0.372108
-0.900368
-0.370667
-0.367801
-0.94513
-0.0288208
-0.3161
-0.084137
-0.383704
-0.141335
-0.37897
-0.197688
-0.374691
-0.253494
-0.370039
-0.3077
-0.366729
-0.359989
-0.362319
-0.412666
-0.35651
-0.46424
-0.353589
-0.512301
-0.351506
-0.558832
-0.347447
-0.606431
-0.343542
-0.653404
-0.341336
-0.697916
-0.339243
-0.742871
-0.335628
-0.787286
-0.333038
-0.831167
-0.330279
-0.875845
-0.327429
-0.920421
-0.326091
-0.32465
-0.963572
-0.0342549
-0.281845
-0.0879439
-0.330015
-0.143321
-0.323593
-0.197846
-0.320165
-0.252186
-0.3157
-0.305827
-0.313087
-0.357556
-0.31059
-0.408223
-0.305843
-0.460802
-0.30101
-0.513671
-0.298638
-0.564683
-0.296434
-0.61405
-0.294175
-0.664512
-0.290874
-0.713889
-0.289865
-0.761093
-0.288424
-0.808157
-0.285974
-0.854293
-0.284142
-0.899909
-0.281814
-0.94649
-0.27951
-0.278677
-0.992462
-0.0415085
-0.240336
-0.0989891
-0.272534
-0.156734
-0.265848
-0.212321
-0.264578
-0.267672
-0.260349
-0.322907
-0.257852
-0.376806
-0.256692
-0.427141
-0.255508
-0.476095
-0.252055
-0.524633
-0.2501
-0.57439
-0.246678
-0.623423
-0.245142
-0.671978
-0.242319
-0.722151
-0.239693
-0.77178
-0.238794
-0.820118
-0.237636
-0.868282
-0.235978
-0.915203
-0.234893
-0.962074
-0.232639
-0.231111
-1.00964
-0.0471228
-0.193214
-0.100432
-0.219225
-0.154015
-0.212265
-0.208476
-0.210117
-0.26201
-0.206815
-0.316038
-0.203824
-0.371713
-0.201018
-0.427407
-0.199814
-0.482284
-0.197178
-0.536007
-0.196377
-0.587382
-0.195303
-0.638615
-0.193909
-0.687975
-0.192959
-0.736582
-0.191086
-0.785819
-0.189557
-0.834523
-0.188933
-0.882367
-0.188134
-0.929959
-0.187301
-0.975791
-0.186806
-0.185195
-1.02171
-0.0615617
-0.131652
-0.118643
-0.162143
-0.174003
-0.156905
-0.229934
-0.154187
-0.284795
-0.151953
-0.338617
-0.150002
-0.391508
-0.148127
-0.443907
-0.147415
-0.49512
-0.145965
-0.547211
-0.144286
-0.598789
-0.143725
-0.649556
-0.143142
-0.699591
-0.142923
-0.748731
-0.141946
-0.797082
-0.141206
-0.846289
-0.139726
-0.89481
-0.139613
-0.943426
-0.138685
-0.991587
-0.138645
-0.138418
-1.03836
-0.0573122
-0.0743397
-0.113431
-0.106025
-0.168977
-0.101359
-0.225684
-0.0974787
-0.282594
-0.0950439
-0.337983
-0.0946123
-0.393329
-0.0927808
-0.447781
-0.0929633
-0.501112
-0.0926343
-0.552905
-0.0924925
-0.604618
-0.0920121
-0.656356
-0.0914036
-0.707418
-0.0918616
-0.757752
-0.0916122
-0.807029
-0.091929
-0.855267
-0.0914878
-0.903782
-0.091098
-0.951489
-0.0909778
-0.999614
-0.0905198
-0.0906121
-1.04742
-0.0438306
-0.0305091
-0.105487
-0.0443688
-0.165413
-0.0414328
-0.222281
-0.0406112
-0.279187
-0.0381373
-0.334409
-0.0393902
-0.389543
-0.0376467
-0.444709
-0.0377974
-0.499709
-0.0376343
-0.553969
-0.0382326
-0.607091
-0.0388901
-0.659239
-0.0392559
-0.711546
-0.0395548
-0.762798
-0.0403601
-0.813901
-0.0408254
-0.863617
-0.0417724
-0.912631
-0.0420834
-0.961041
-0.042568
-1.0086
-0.0429657
-0.0430896
-1.05612
-0.0436127
0.0131037
-0.105984
0.0180025
-0.171537
0.02412
-0.231421
0.0192726
-0.290007
0.0204496
-0.347935
0.0185378
-0.402916
0.0173335
-0.456856
0.0161427
-0.509387
0.0148973
-0.561524
0.0139038
-0.613225
0.0128107
-0.664011
0.0115309
-0.714475
0.0109086
-0.764801
0.0099662
-0.81484
0.00921336
-0.864841
0.00822829
-0.914183
0.00725884
-0.96302
0.00626948
-1.01127
0.00528591
0.00426515
-1.05863
-0.0586285
0.0717321
-0.122784
0.0821578
-0.179936
0.081272
-0.235985
0.0753214
-0.290402
0.074867
-0.345911
0.0740471
-0.400943
0.0723647
-0.455988
0.0711884
-0.510387
0.0692959
-0.564092
0.0676091
-0.617311
0.0660293
-0.670291
0.0645107
-0.722368
0.062986
-0.773905
0.0615034
-0.824992
0.0603005
-0.875279
0.0585146
-0.925423
0.057403
-0.974659
0.0555054
-1.02366
0.054286
-1.07184
0.052449
-0.0194233
0.0491111
-0.0296879
-0.00765431
0.0660407
-0.0778096
0.0516828
-0.00537453
-0.0539626
0.203414
-0.198168
0.046437
0.46092
-0.543397
0.285891
0.690787
-0.85225
0.622383
0.819808
-1.02516
0.896139
0.874848
-1.09205
1.03701
0.899699
-1.11687
1.09201
0.910471
-1.12449
1.11372
0.914177
-1.12493
1.12123
0.914679
-1.1223
1.12179
0.916554
-1.12107
1.1192
0.920753
-1.12108
1.11689
0.924033
-1.121
1.11772
0.925792
-1.1212
1.11944
0.926804
-1.12096
1.11994
0.928964
-1.12165
1.11949
0.933308
-1.12463
1.12028
-1.13027
0.937301
1.12627
-0.0129549
0.062066
0.0208194
0.0322663
0.116606
-0.101161
0.332431
-0.413993
0.562795
-0.773761
0.705653
-0.995107
0.768532
-1.08804
0.794732
-1.11825
0.80545
-1.12758
0.809242
-1.12828
0.810467
-1.12616
0.812723
-1.12455
0.815033
-1.12338
0.815589
-1.12164
0.816073
-1.12149
0.817014
-1.12214
0.817769
-1.12171
0.819298
-1.12318
0.822739
-1.12807
-1.13243
0.824903
0.0029796
0.0590864
0.059665
-0.024419
0.200632
-0.242128
0.42578
-0.639142
0.586864
-0.934845
0.664436
-1.07268
0.694002
-1.11761
0.705692
-1.12994
0.710155
-1.13205
0.711862
-1.12999
0.713112
-1.12741
0.713332
-1.12477
0.712417
-1.12246
0.712745
-1.12197
0.713545
-1.12229
0.712984
-1.12158
0.712385
-1.12111
0.713616
-1.12441
0.716032
-1.13049
-1.1326
0.716205
0.0185226
0.0405638
0.0910993
-0.0969957
0.275751
-0.42678
0.455696
-0.819086
0.55469
-1.03384
0.593634
-1.11162
0.608577
-1.13255
0.614442
-1.13581
0.616621
-1.13423
0.616694
-1.13006
0.61591
-1.12663
0.615109
-1.12397
0.61533
-1.12269
0.615117
-1.12175
0.613438
-1.12061
0.611588
-1.11973
0.610917
-1.12044
0.611528
-1.12502
0.61144
-1.1304
-1.13063
0.609465
0.0408264
-0.00026259
0.128774
-0.184944
0.311236
-0.609241
0.438522
-0.946372
0.495921
-1.09124
0.517184
-1.13289
0.524094
-1.13946
0.526353
-1.13807
0.525904
-1.13378
0.524959
-1.12912
0.524443
-1.12611
0.523803
-1.12333
0.522132
-1.12101
0.51981
-1.11943
0.517536
-1.11834
0.515073
-1.11727
0.513134
-1.1185
0.512184
-1.12407
0.509445
-1.12766
-1.12596
0.504776
0.0430486
-0.0433112
0.157091
-0.298986
0.307423
-0.759573
0.393776
-1.03272
0.427164
-1.12463
0.437036
-1.14276
0.439772
-1.1422
0.439866
-1.13816
0.43939
-1.1333
0.438761
-1.12849
0.437029
-1.12438
0.434306
-1.12061
0.43166
-1.11837
0.429032
-1.1168
0.425618
-1.11492
0.421922
-1.11357
0.418931
-1.11551
0.415302
-1.12044
0.410245
-1.1226
-1.11869
0.402979
0.0385763
-0.0818875
0.166335
-0.426745
0.281875
-0.875112
0.338059
-1.08891
0.355819
-1.14239
0.360489
-1.14743
0.361849
-1.14356
0.36134
-1.13765
0.359924
-1.13188
0.357056
-1.12562
0.353692
-1.12101
0.350393
-1.11731
0.346746
-1.11472
0.342146
-1.1122
0.337014
-1.10979
0.331531
-1.10809
0.325745
-1.10972
0.319402
-1.1141
0.311702
-1.1149
-1.10827
0.301282
0.0395641
-0.121452
0.155202
-0.542383
0.241554
-0.961463
0.277401
-1.12476
0.286983
-1.15197
0.289676
-1.15012
0.288183
-1.14206
0.286097
-1.13556
0.282925
-1.12871
0.279277
-1.12197
0.27508
-1.11682
0.270017
-1.11225
0.264312
-1.10902
0.258317
-1.10621
0.251861
-1.10333
0.244776
-1.101
0.236915
-1.10186
0.227684
-1.10487
0.217004
-1.10422
-1.09598
0.20471
0.0429091
-0.164361
0.141136
-0.64061
0.205046
-1.02537
0.225372
-1.14508
0.228781
-1.15538
0.22678
-1.14812
0.223539
-1.13882
0.219714
-1.13174
0.21485
-1.12385
0.208871
-1.11599
0.202028
-1.10997
0.19486
-1.10508
0.187484
-1.10164
0.179503
-1.09823
0.1707
-1.09453
0.161097
-1.0914
0.150532
-1.0913
0.138568
-1.0929
0.125733
-1.09139
-1.08313
0.11288
0.049871
-0.214232
0.125548
-0.716287
0.167861
-1.06769
0.175516
-1.15274
0.173786
-1.15365
0.168573
-1.14291
0.163001
-1.13325
0.156244
-1.12498
0.148621
-1.11622
0.140386
-1.10776
0.131725
-1.10131
0.122519
-1.09587
0.112634
-1.09176
0.102205
-1.0878
0.0915633
-1.08389
0.0802823
-1.08012
0.067545
-1.07856
0.0539286
-1.07929
0.0403137
-1.07777
-1.07014
0.0273259
0.0448726
-0.259104
0.102344
-0.773759
0.130961
-1.0963
0.13171
-1.15349
0.125954
-1.14789
0.117979
-1.13493
0.109359
-1.12463
0.100134
-1.11576
0.090138
-1.10623
0.0794504
-1.09707
0.067899
-1.08976
0.0556578
-1.08363
0.043259
-1.07936
0.0307159
-1.07526
0.0174156
-1.07059
0.00343286
-1.06614
-0.011133
-1.064
-0.0266452
-1.06378
-0.0418551
-1.06256
-1.05583
-0.0561679
0.038467
-0.297571
0.0866447
-0.821937
0.10016
-1.10982
0.0937046
-1.14703
0.0828601
-1.13705
0.0715553
-1.12362
0.0597466
-1.11282
0.0471365
-1.10315
0.0340995
-1.09319
0.0204458
-1.08342
0.00639658
-1.07571
-0.00804672
-1.06919
-0.0233983
-1.06401
-0.0392133
-1.05944
-0.0546753
-1.05513
-0.0707942
-1.05002
-0.0882714
-1.04652
-0.105418
-1.04663
-0.121971
-1.04601
-1.04007
-0.137731
0.0300299
-0.327601
0.0620729
-0.85398
0.0672016
-1.11495
0.0568397
-1.13667
0.0432969
-1.12351
0.0293497
-1.10968
0.0145291
-1.098
-0.000769506
-1.08785
-0.0166387
-1.07732
-0.0328565
-1.0672
-0.0499514
-1.05862
-0.0677692
-1.05137
-0.0856371
-1.04614
-0.104002
-1.04108
-0.122885
-1.03624
-0.14126
-1.03164
-0.159954
-1.02782
-0.179508
-1.02707
-0.198602
-1.02692
-1.02232
-0.216349
0.0259346
-0.353536
0.0491161
-0.877161
0.0444085
-1.11024
0.0289731
-1.12123
0.0113833
-1.10592
-0.00649166
-1.0918
-0.0248104
-1.07968
-0.0436376
-1.06902
-0.0626696
-1.05829
-0.0821915
-1.04768
-0.101911
-1.0389
-0.122242
-1.03104
-0.14352
-1.02486
-0.164821
-1.01977
-0.185897
-1.01517
-0.207738
-1.0098
-0.229529
-1.00603
-0.250527
-1.00608
-0.271082
-1.00636
-1.00303
-0.290375
0.0194622
-0.372998
0.0325205
-0.890219
0.0202054
-1.09792
0.00056995
-1.1016
-0.0199805
-1.08537
-0.0410067
-1.07078
-0.0624856
-1.0582
-0.0842724
-1.04724
-0.106234
-1.03633
-0.128351
-1.02556
-0.151221
-1.01603
-0.174512
-1.00775
-0.198168
-1.0012
-0.222868
-0.995074
-0.247283
-0.990753
-0.270267
-0.986816
-0.29396
-0.982341
-0.318005
-0.982032
-0.341009
-0.983357
-0.981678
-0.362358
0.0161871
-0.389185
0.0233878
-0.89742
0.00515717
-1.07969
-0.0192202
-1.07722
-0.0436224
-1.06096
-0.0683021
-1.0461
-0.0933058
-1.0332
-0.118567
-1.02197
-0.143892
-1.011
-0.169397
-1.00006
-0.194898
-0.990526
-0.221154
-0.981493
-0.247912
-0.974446
-0.274722
-0.968264
-0.302568
-0.962907
-0.330543
-0.958841
-0.356913
-0.955972
-0.383189
-0.955755
-0.40857
-0.957976
-0.958304
-0.431943
0.0112761
-0.400461
0.0106986
-0.896843
-0.0126858
-1.05631
-0.0403484
-1.04956
-0.068067
-1.03325
-0.0958522
-1.01831
-0.123819
-1.00523
-0.151998
-0.993795
-0.179993
-0.983009
-0.208085
-0.971966
-0.236685
-0.961926
-0.265309
-0.952869
-0.294747
-0.945008
-0.325095
-0.937915
-0.354924
-0.933078
-0.385287
-0.928479
-0.416582
-0.924676
-0.446773
-0.925564
-0.474707
-0.930042
-0.932757
-0.500254
0.00796947
-0.408431
0.00181384
-0.890687
-0.0262006
-1.0283
-0.0568684
-1.01889
-0.0873069
-1.00281
-0.117787
-0.987831
-0.148382
-0.974638
-0.179272
-0.962906
-0.210241
-0.95204
-0.241063
-0.941144
-0.272078
-0.930911
-0.304074
-0.920873
-0.336022
-0.91306
-0.36921
-0.904727
-0.404431
-0.897857
-0.439487
-0.893423
-0.475552
-0.888611
-0.514172
-0.886944
-0.550626
-0.893588
-0.900766
-0.582618
0.00501928
-0.41345
-0.00615284
-0.879515
-0.0379771
-0.996471
-0.0720067
-0.984859
-0.105585
-0.969229
-0.139204
-0.954212
-0.172657
-0.941185
-0.206186
-0.929377
-0.239446
-0.918779
-0.272709
-0.907881
-0.305836
-0.897784
-0.339361
-0.887348
-0.3742
-0.878221
-0.409116
-0.869811
-0.445572
-0.861401
-0.484561
-0.854433
-0.523983
-0.849188
-0.567392
-0.843536
-0.615118
-0.845862
-0.857982
-0.657902
0.00208197
-0.0149636
-0.0493317
-0.0852733
-0.120396
-0.155562
-0.190698
-0.225926
-0.261163
-0.296047
-0.331032
-0.366106
-0.40132
-0.437674
-0.474071
-0.511617
-0.550711
-0.591199
-0.641996
-0.70095
0.815675
-9.99291
10.1145
0.703493
-9.61992
9.7321
0.624085
-9.65426
9.73367
0.546036
-9.62327
9.70132
0.476495
-9.64624
9.71578
0.410234
-9.62126
9.68753
0.352805
-9.61546
9.67289
0.301823
-9.54425
9.59523
0.256112
-9.49996
9.54567
0.217553
-9.46026
9.49882
0.183665
-9.46776
9.50165
0.153264
-9.42113
9.45153
0.127959
-9.43754
9.46284
0.104039
-9.3754
9.39932
0.0851105
-9.39692
9.41585
0.0664102
-9.31213
9.33083
0.0591084
-9.20148
9.20878
0.044209
-8.37811
8.39301
0.0260391
-6.10647
6.12464
-2.65581
2.68185
0.70438
-9.87239
0.603019
-9.51856
0.531094
-9.58234
0.457608
-9.54979
0.395805
-9.58444
0.334432
-9.55989
0.280675
-9.5617
0.233361
-9.49693
0.192373
-9.45897
0.160076
-9.42797
0.132893
-9.44058
0.109072
-9.39731
0.0900047
-9.41847
0.0721958
-9.3576
0.0593865
-9.38411
0.0467384
-9.29948
0.0449729
-9.19971
0.0355989
-8.36874
0.0231794
-6.09405
-2.63263
0.595988
-9.75217
0.509026
-9.43159
0.445627
-9.51894
0.375243
-9.4794
0.316233
-9.52543
0.259177
-9.50283
0.212108
-9.51463
0.172159
-9.45698
0.137915
-9.42472
0.111083
-9.40114
0.0884563
-9.41795
0.069371
-9.37822
0.05534
-9.40444
0.0426005
-9.34486
0.034964
-9.37647
0.0273682
-9.29188
0.0313898
-9.20373
0.0283142
-8.36566
0.021195
-6.08693
-2.61143
0.492981
-9.63568
0.411792
-9.3504
0.352103
-9.45925
0.286631
-9.41393
0.233784
-9.47258
0.181546
-9.4506
0.139512
-9.4726
0.104273
-9.42175
0.0751853
-9.39563
0.0546557
-9.38061
0.0386526
-9.40195
0.0258902
-9.36546
0.0178278
-9.39638
0.0110029
-9.33803
0.00928112
-9.37475
0.00746539
-9.29007
0.0169582
-9.21323
0.0194007
-8.3681
0.0181088
-6.08564
-2.59332
0.390629
-9.52154
0.321925
-9.2817
0.269011
-9.40634
0.206203
-9.35112
0.157149
-9.42353
0.109843
-9.40329
0.0736445
-9.4364
0.0446645
-9.39276
0.0217784
-9.37275
0.00629437
-9.36512
-0.00544715
-9.39021
-0.0134993
-9.35741
-0.0167499
-9.39312
-0.0185933
-9.33619
-0.0152952
-9.37805
-0.0121351
-9.29323
0.00294355
-9.22831
0.011375
-8.37653
0.0157886
-6.09006
-2.57754
0.297293
-9.41585
0.231748
-9.21615
0.176585
-9.35118
0.1176
-9.29214
0.0738881
-9.37982
0.0322027
-9.3616
0.00161779
-9.40581
-0.0220722
-9.36907
-0.039459
-9.35536
-0.0486791
-9.3559
-0.05399
-9.3849
-0.0560197
-9.35538
-0.0536274
-9.39552
-0.0497801
-9.34003
-0.0408578
-9.38697
-0.0320893
-9.30199
-0.0116371
-9.24876
0.00233983
-8.39051
0.012702
-6.10042
-2.56483
0.204318
-9.31889
0.142133
-9.15397
0.0915683
-9.30061
0.037856
-9.23842
-0.00141867
-9.34054
-0.0373555
-9.32567
-0.0622925
-9.38088
-0.0803568
-9.35101
-0.0918157
-9.3439
-0.0962763
-9.35144
-0.0975537
-9.38362
-0.0949128
-9.35802
-0.0879379
-9.40249
-0.0792489
-9.34872
-0.0653794
-9.40084
-0.051765
-9.31561
-0.025991
-9.27453
-0.00605395
-8.41045
0.0101017
-6.11657
-2.55473
0.115879
-9.23006
0.0579753
-9.09607
0.00398461
-9.24662
-0.046888
-9.18755
-0.0816279
-9.3058
-0.11253
-9.29477
-0.132188
-9.36122
-0.145069
-9.33813
-0.150996
-9.33798
-0.149412
-9.35302
-0.144497
-9.38854
-0.136214
-9.3663
-0.123902
-9.4148
-0.10984
-9.36279
-0.0905629
-9.42012
-0.0716783
-9.33449
-0.0405285
-9.30568
-0.014611
-8.43637
0.00741518
-6.1386
-2.54732
0.028536
-9.14571
-0.0328963
-9.03463
-0.0835522
-9.19596
-0.129038
-9.14207
-0.157055
-9.27778
-0.181312
-9.27051
-0.19507
-9.34746
-0.20231
-9.33089
-0.202337
-9.33795
-0.19618
-9.35918
-0.18735
-9.39737
-0.17443
-9.37922
-0.157711
-9.43152
-0.138994
-9.3815
-0.1151
-9.44401
-0.0914554
-9.35814
-0.0549714
-9.34217
-0.0230807
-8.46826
0.00486256
-6.16654
-2.54245
-0.055285
-9.0631
-0.114435
-8.97548
-0.164664
-9.14574
-0.207819
-9.09891
-0.233011
-9.25259
-0.252537
-9.25098
-0.261865
-9.33813
-0.264159
-9.3286
-0.259008
-9.3431
-0.247159
-9.37103
-0.232423
-9.4121
-0.2143
-9.39734
-0.192585
-9.45324
-0.168893
-9.40519
-0.139942
-9.47296
-0.111231
-9.38685
-0.0694257
-9.38397
-0.0315082
-8.50617
0.0025142
-6.20057
-2.53994
-0.138591
-8.98068
-0.201345
-8.91273
-0.249446
-9.09763
-0.287347
-9.06101
-0.306549
-9.23339
-0.319499
-9.23803
-0.323205
-9.33443
-0.320055
-9.33175
-0.309086
-9.35407
-0.292923
-9.38719
-0.274317
-9.43071
-0.251626
-9.42003
-0.225638
-9.47923
-0.197521
-9.43331
-0.16405
-9.50643
-0.130621
-9.42028
-0.0837299
-9.43086
-0.0397454
-8.55016
0.000323685
-6.24063
-2.53962
-0.220831
-8.89758
-0.28262
-8.85094
-0.330319
-9.04994
-0.364119
-9.02721
-0.379015
-9.21849
-0.38693
-9.23012
-0.385952
-9.3354
-0.37823
-9.33947
-0.362753
-9.36954
-0.341381
-9.40857
-0.317259
-9.45483
-0.289821
-9.44747
-0.259139
-9.50991
-0.226478
-9.46597
-0.188299
-9.54461
-0.149936
-9.45864
-0.0978214
-9.48298
-0.0482071
-8.59977
-0.00228732
-6.28655
-2.5419
-0.303907
-8.81002
-0.362969
-8.79188
-0.404773
-9.00813
-0.435028
-8.99696
-0.446739
-9.20678
-0.450426
-9.22643
-0.444777
-9.34105
-0.431901
-9.35235
-0.411024
-9.39042
-0.385779
-9.43381
-0.357817
-9.48279
-0.325955
-9.47933
-0.291121
-9.54474
-0.254247
-9.50285
-0.211857
-9.587
-0.168882
-9.50161
-0.111667
-9.54019
-0.0563948
-8.65504
-0.00493241
-6.33802
-2.54684
-0.386083
-8.71431
-0.44569
-8.73227
-0.485724
-8.9681
-0.510336
-8.97234
-0.515391
-9.20173
-0.513297
-9.22853
-0.502744
-9.35161
-0.485727
-9.36936
-0.461122
-9.41503
-0.431234
-9.4637
-0.398281
-9.51574
-0.362155
-9.51546
-0.322975
-9.58392
-0.281895
-9.54393
-0.234944
-9.63395
-0.18734
-9.54922
-0.125325
-9.60221
-0.0642459
-8.71612
-0.00732221
-6.39494
-2.55416
-0.465545
-8.61113
-0.521511
-8.67631
-0.552686
-8.93692
-0.574275
-8.95076
-0.577893
-9.19811
-0.57317
-9.23325
-0.558583
-9.36619
-0.536588
-9.39136
-0.507133
-9.44448
-0.473804
-9.49703
-0.437056
-9.55249
-0.396686
-9.55583
-0.353518
-9.62709
-0.308397
-9.58905
-0.257328
-9.68502
-0.205383
-9.60116
-0.138817
-9.66877
-0.0718666
-8.78307
-0.00966177
-6.45715
-2.56382
-0.540939
-8.50213
-0.599219
-8.61803
-0.628294
-8.90785
-0.644474
-8.93458
-0.641326
-9.20126
-0.630898
-9.24368
-0.611828
-9.38526
-0.586137
-9.41705
-0.553415
-9.4772
-0.515886
-9.53456
-0.474726
-9.59365
-0.430528
-9.60003
-0.38333
-9.67429
-0.334311
-9.63807
-0.279061
-9.74027
-0.223141
-9.65708
-0.152122
-9.73979
-0.0786454
-8.85655
-0.0110687
-6.52472
-2.57489
-0.61168
-8.3907
-0.671541
-8.55816
-0.692074
-8.88731
-0.704568
-8.92208
-0.700729
-9.2051
-0.687638
-9.25677
-0.664786
-9.40811
-0.634118
-9.44772
-0.596908
-9.51441
-0.556148
-9.57532
-0.511189
-9.63861
-0.462978
-9.64824
-0.411964
-9.7253
-0.359252
-9.69078
-0.30059
-9.79893
-0.240752
-9.71692
-0.165332
-9.81521
-0.0859713
-8.93591
-0.0128133
-6.59788
-2.5877
-0.679754
-8.29357
-0.741316
-8.4966
-0.760302
-8.86833
-0.768851
-8.91353
-0.759246
-9.2147
-0.741489
-9.27453
-0.714679
-9.43492
-0.680807
-9.48159
-0.640133
-9.55509
-0.595213
-9.62024
-0.546235
-9.68759
-0.494365
-9.70011
-0.439433
-9.78024
-0.38309
-9.74712
-0.320546
-9.86148
-0.257268
-9.7802
-0.178474
-9.89401
-0.0928193
-9.02157
-0.0145678
-6.67613
-2.60227
-0.741948
-8.20952
-0.808376
-8.43017
-0.823212
-8.85349
-0.829314
-8.90743
-0.818041
-9.22597
-0.797413
-9.29516
-0.766428
-9.46591
-0.727547
-9.52047
-0.682519
-9.60011
-0.634064
-9.66869
-0.58102
-9.74063
-0.525196
-9.75593
-0.466276
-9.83916
-0.406313
-9.80708
-0.339656
-9.92813
-0.273097
-9.84676
-0.191087
-9.97602
-0.101216
-9.11144
-0.0174919
-6.75986
-2.61976
-0.800489
-8.10998
-0.863963
-8.3667
-0.879416
-8.83804
-0.882459
-8.90439
-0.868439
-9.23999
-0.843595
-9.32
-0.810323
-9.49918
-0.76875
-9.56204
-0.720857
-9.64801
-0.668588
-9.72096
-0.612264
-9.79695
-0.552931
-9.81527
-0.490648
-9.90144
-0.427445
-9.87029
-0.360293
-9.99529
-0.289504
-9.91755
-0.203656
-10.0619
-0.108177
-9.20692
-0.0185186
-6.84951
-2.63828
7.12856
-7.57211
-7.66643
6.57009
-7.80823
5.95926
-8.22721
5.45249
-8.39761
4.89785
-8.68535
4.40607
-8.82822
3.92432
-9.01743
3.48595
-9.12367
3.08582
-9.24788
2.70881
-9.34396
2.34875
-9.43689
2.02718
-9.4937
1.69751
-9.57177
1.42492
-9.59769
1.10919
-9.67956
0.864437
-9.67279
0.518933
-9.71636
0.301308
-8.98929
0.163178
-6.71138
-2.4751
4.23385
-7.49263
-4.31333
4.12907
-7.70345
3.89681
-7.99496
3.68469
-8.1855
3.41744
-8.41811
3.15941
-8.57018
2.8793
-8.73732
2.62108
-8.86545
2.37089
-8.9977
2.12166
-9.09472
1.87053
-9.18576
1.62607
-9.24923
1.37649
-9.32219
1.14791
-9.36911
0.895776
-9.42743
0.689783
-9.4668
0.437237
-9.46382
0.24362
-8.79567
-0.0268614
-6.4409
-2.50196
3.0423
-7.56142
-2.97351
3.10363
-7.76478
3.0755
-7.96683
3.00575
-8.11574
2.87251
-8.28487
2.72115
-8.41882
2.53754
-8.55371
2.34165
-8.66956
2.12847
-8.78451
1.90468
-8.87093
1.67247
-8.95355
1.44814
-9.0249
1.22299
-9.09704
1.00896
-9.15508
0.800039
-9.21851
0.594881
-9.26164
0.391453
-9.26039
0.241693
-8.64591
0.0654266
-6.26464
-2.43654
1.94344
-7.71869
-1.78617
2.03213
-7.85347
2.07317
-8.00787
2.05439
-8.09697
1.98847
-8.21895
1.8988
-8.32915
1.79095
-8.44586
1.66557
-8.54419
1.52382
-8.64276
1.3778
-8.72492
1.23185
-8.8076
1.08891
-8.88196
0.937741
-8.94587
0.789494
-9.00684
0.631679
-9.0607
0.477254
-9.10722
0.314221
-9.09736
0.193903
-8.5256
0.102121
-6.17285
-2.33442
1.39818
-7.8303
-1.28657
1.47728
-7.93257
1.54193
-8.07252
1.57437
-8.1294
1.5678
-8.21238
1.53041
-8.29177
1.46335
-8.3788
1.37756
-8.4584
1.27345
-8.53864
1.15931
-8.61077
1.03432
-8.68262
0.897598
-8.74524
0.756647
-8.80492
0.61165
-8.86184
0.467158
-8.9162
0.327808
-8.96786
0.196594
-8.96614
0.11041
-8.43941
0.0716823
-6.13413
-2.26273
0.921323
-7.93166
-0.819964
0.988869
-8.00012
1.02332
-8.10697
1.04829
-8.15437
1.04642
-8.2105
1.02345
-8.2688
0.97766
-8.333
0.916148
-8.39689
0.839306
-8.4618
0.754691
-8.52616
0.661622
-8.58955
0.56614
-8.64976
0.468775
-8.70755
0.367823
-8.76089
0.266845
-8.81523
0.167198
-8.86822
0.060909
-8.85985
0.00541956
-8.38392
0.0496867
-6.17839
-2.21305
0.670544
-8.00156
-0.600642
0.71193
-8.0415
0.731075
-8.12612
0.745564
-8.16886
0.746081
-8.21102
0.728416
-8.25114
0.696227
-8.30081
0.651495
-8.35215
0.596249
-8.40656
0.529436
-8.45934
0.453756
-8.51387
0.369676
-8.56568
0.277021
-8.6149
0.178228
-8.66209
0.0818273
-8.71883
-0.0224699
-8.76392
-0.106753
-8.77557
-0.123917
-8.36676
-0.00366752
-6.29864
-2.21671
0.445789
-8.04878
-0.398565
0.485949
-8.08166
0.495013
-8.13518
0.48689
-8.16074
0.469431
-8.19356
0.445033
-8.22674
0.411255
-8.26704
0.365019
-8.30592
0.310849
-8.35239
0.248154
-8.39665
0.177957
-8.44367
0.101812
-8.48954
0.0237105
-8.5368
-0.0587943
-8.57959
-0.142942
-8.63468
-0.228113
-8.67875
-0.300609
-8.70307
-0.290683
-8.37669
-0.0959654
-6.49336
-2.31268
0.288191
-8.0779
-0.259077
0.301609
-8.09508
0.291774
-8.12534
0.275834
-8.1448
0.251628
-8.16936
0.225748
-8.20086
0.192296
-8.23358
0.153339
-8.26696
0.106854
-8.3059
0.0515777
-8.34137
-0.0114538
-8.38064
-0.083392
-8.4176
-0.161439
-8.45875
-0.250568
-8.49046
-0.34396
-8.54129
-0.442142
-8.58057
-0.522487
-8.62273
-0.517484
-8.38169
-0.236472
-6.77437
-2.54915
0.148162
-8.08507
-0.140993
0.14915
-8.09607
0.137318
-8.11351
0.122771
-8.13025
0.0992505
-8.14584
0.0653498
-8.16696
0.027838
-8.19607
-0.0156966
-8.22343
-0.0687465
-8.25285
-0.128449
-8.28167
-0.195319
-8.31377
-0.270104
-8.34281
-0.35106
-8.37779
-0.437872
-8.40365
-0.532577
-8.44658
-0.636002
-8.47714
-0.741524
-8.51721
-0.759992
-8.36322
-0.436686
-7.09768
-2.98584
0.0206046
-8.0809
-0.024767
0.0134404
-8.0889
0.00233261
-8.1024
-0.0174437
-8.11048
-0.044231
-8.11905
-0.0790195
-8.13217
-0.120493
-8.1546
-0.163076
-8.18084
-0.213662
-8.20227
-0.270561
-8.22477
-0.335936
-8.24839
-0.408862
-8.26989
-0.491966
-8.29469
-0.582356
-8.31326
-0.689588
-8.33935
-0.810042
-8.35669
-0.940607
-8.38664
-0.979634
-8.32419
-0.692422
-7.38489
-3.67826
-0.0958046
-8.07695
0.0918477
-0.102445
-8.08226
-0.11305
-8.0918
-0.126593
-8.09693
-0.143284
-8.10236
-0.165947
-8.10951
-0.198835
-8.12171
-0.241753
-8.13793
-0.290841
-8.15318
-0.347661
-8.16795
-0.413522
-8.18253
-0.488906
-8.1945
-0.576394
-8.2072
-0.671857
-8.2178
-0.783284
-8.22792
-0.901699
-8.23827
-1.05105
-8.23729
-1.15344
-8.2218
-0.942344
-7.59599
-4.6206
-0.152903
-8.06744
0.1434
-0.166839
-8.06833
-0.185963
-8.07268
-0.207748
-8.07515
-0.230899
-8.07921
-0.257666
-8.08274
-0.287231
-8.09214
-0.326025
-8.09913
-0.368964
-8.11024
-0.418212
-8.1187
-0.474304
-8.12644
-0.537136
-8.13167
-0.6089
-8.13544
-0.688903
-8.13779
-0.785466
-8.13136
-0.889631
-8.13411
-1.01161
-8.11531
-1.12355
-8.10986
-0.951939
-7.7676
-5.57254
-0.204896
-8.05732
0.194768
-0.21586
-8.05736
-0.228761
-8.05978
-0.24209
-8.06182
-0.254118
-8.06718
-0.271199
-8.06566
-0.29312
-8.07022
-0.320815
-8.07144
-0.355249
-8.07581
-0.397164
-8.07679
-0.444174
-8.07943
-0.498655
-8.07719
-0.555493
-8.0786
-0.621476
-8.07181
-0.68862
-8.06422
-0.772646
-8.05008
-0.860019
-8.02794
-0.942154
-8.02773
-0.824344
-7.88541
-6.39689
-0.223711
-8.04472
0.211112
-0.236774
-8.0443
-0.251277
-8.04527
-0.267802
-8.0453
-0.284867
-8.05011
-0.303555
-8.04697
-0.32309
-8.05069
-0.345976
-8.04855
-0.371467
-8.05031
-0.399747
-8.04851
-0.429648
-8.04953
-0.462225
-8.04461
-0.498158
-8.04266
-0.536768
-8.0332
-0.576462
-8.02452
-0.618474
-8.00807
-0.654763
-7.99165
-0.703938
-7.97855
-0.651221
-7.93813
-7.04811
-0.225616
-8.03599
0.216889
-0.234767
-8.03515
-0.243404
-8.03664
-0.253098
-8.0356
-0.266683
-8.03653
-0.279458
-8.0342
-0.295085
-8.03506
-0.310912
-8.03272
-0.327546
-8.03368
-0.345035
-8.03102
-0.362832
-8.03173
-0.380435
-8.02701
-0.398239
-8.02486
-0.415217
-8.01622
-0.425966
-8.01377
-0.434779
-7.99926
-0.428169
-7.99826
-0.434429
-7.97229
-0.413022
-7.95953
-7.46113
-0.21949
-8.02744
0.210943
-0.228146
-8.02649
-0.237411
-8.02737
-0.246214
-8.0268
-0.255412
-8.02733
-0.263477
-8.02613
-0.272035
-8.0265
-0.279634
-8.02513
-0.287727
-8.02559
-0.294962
-8.02378
-0.303139
-8.02356
-0.309988
-8.02016
-0.315375
-8.01947
-0.317875
-8.01372
-0.317283
-8.01436
-0.312554
-8.00399
-0.305367
-8.00544
-0.322131
-7.95553
-0.310755