/*--------------------------------*- C++ -*----------------------------------*\
  =========                 |
  \\      /  F ield         | OpenFOAM: The Open Source CFD Toolbox
   \\    /   O peration     | Website:  https://openfoam.org
    \\  /    A nd           | Version:  9
     \\/     M anipulation  |
\*---------------------------------------------------------------------------*/
FoamFile
{
    format      ascii;
    class       volScalarField;
    location    "17";
    object      nut;
}
// * * * * * * * * * * * * * * * * * * * * * * * * * * * * * * * * * * * * * //

dimensions      [0 2 -1 0 0 0 0];

internalField   nonuniform List<scalar> 
46400
(
0.0174412
0.00574028
0.00162135
0.00135708
0.00132545
0.00131404
0.00124417
0.00122114
0.00116473
0.00113318
0.00107119
0.0010272
0.00100079
0.000993533
0.000956469
0.000942377
0.000915401
0.000837885
0.00108739
0.000952183
0.0170495
0.00502108
0.00128383
0.00146602
0.00134852
0.00133624
0.00126805
0.00123796
0.00117472
0.00115225
0.00113164
0.00110006
0.00105373
0.00101326
0.000989293
0.000956203
0.000920806
0.000853396
0.00105847
0.000938527
0.0166212
0.00402533
0.00124479
0.00142084
0.00133344
0.00132781
0.00126542
0.00125076
0.00119389
0.00114917
0.00109687
0.00105503
0.00103506
0.00101124
0.000974132
0.000955033
0.000909823
0.000840714
0.00111891
0.00103942
0.0160691
0.00399406
0.00130393
0.00150271
0.0013833
0.00136929
0.00130454
0.00127562
0.00122063
0.00118358
0.00115368
0.00111272
0.00106064
0.00102455
0.000989517
0.000972714
0.000957183
0.000845289
0.00107931
0.00100955
0.0154007
0.00467164
0.00138338
0.00146319
0.00136492
0.00134686
0.0012783
0.00126566
0.00122204
0.00117175
0.00111862
0.00106918
0.00104572
0.00101363
0.000975424
0.000938569
0.000919363
0.000863117
0.00108326
0.00102605
0.0147181
0.00442876
0.00144641
0.00156139
0.00144306
0.00142244
0.00135231
0.00130457
0.00126626
0.00123691
0.00121062
0.00115253
0.00109374
0.00106217
0.00103717
0.00098375
0.000911542
0.000832105
0.00102179
0.000972946
0.0138511
0.0041223
0.00148504
0.00154501
0.0014059
0.00136815
0.00130096
0.00125985
0.00121814
0.00116941
0.0011588
0.00113569
0.00109052
0.00103587
0.00101876
0.00101353
0.000981631
0.000900724
0.00105332
0.00100284
0.0127091
0.00330099
0.0015115
0.00158707
0.00149896
0.00142333
0.00137605
0.001291
0.00124562
0.00118208
0.00115595
0.00115061
0.0011584
0.00110579
0.00105729
0.00101862
0.000991801
0.000935407
0.0010765
0.00102165
0.0104899
0.0026181
0.00155019
0.00150133
0.0014551
0.00138935
0.00134969
0.00129571
0.00124896
0.00117538
0.00109443
0.001033
0.00102232
0.00102195
0.0010119
0.000985684
0.000956396
0.000911006
0.00103578
0.00101323
0.00843433
0.00216543
0.00156778
0.00151843
0.00148298
0.00141095
0.00138695
0.0013189
0.00129806
0.00126181
0.00123016
0.00114836
0.00107594
0.00102592
0.00100984
0.000981893
0.000941151
0.00088563
0.000965532
0.000942561
0.00661701
0.00188317
0.0015236
0.00143114
0.00141655
0.00132639
0.00131008
0.00125896
0.00121258
0.00118589
0.00117756
0.0011569
0.00113847
0.00108807
0.0010599
0.00104336
0.00102045
0.000967037
0.00104931
0.000996454
0.00534229
0.00172391
0.00163822
0.0015169
0.00150937
0.00142821
0.00138258
0.00133986
0.00126112
0.00118197
0.0011442
0.00107553
0.00104333
0.00100598
0.000979272
0.000945812
0.000931565
0.000895752
0.000955636
0.000953405
0.00429301
0.00152105
0.0015054
0.00144928
0.00141825
0.00134805
0.00132456
0.00130464
0.00131728
0.00124315
0.00124351
0.00119846
0.00116694
0.00110985
0.0010762
0.00103205
0.000991155
0.000942762
0.000976339
0.000951044
0.00408217
0.00162067
0.00159305
0.00143575
0.0014908
0.00141161
0.00133559
0.00125222
0.00124609
0.00118934
0.00115283
0.00112408
0.00109896
0.0010785
0.00104874
0.00102827
0.000994887
0.0009514
0.00098357
0.000961118
0.00408889
0.00157364
0.00150832
0.00142037
0.00139016
0.00139754
0.00138579
0.00130984
0.00128339
0.00123226
0.00118155
0.00114355
0.00109875
0.00106882
0.00103613
0.00101474
0.000985631
0.000941526
0.000961569
0.000940922
0.004196
0.00159442
0.0016102
0.00154503
0.00136415
0.00132533
0.00132563
0.00127724
0.0012606
0.00123622
0.00120821
0.00117637
0.00113793
0.00110075
0.00106324
0.00103502
0.00100217
0.00095714
0.000979517
0.000938195
0.00289105
0.00150398
0.00148655
0.00159196
0.00159482
0.00143417
0.00139386
0.00133232
0.00128798
0.00124118
0.00120477
0.00117058
0.00114171
0.00110068
0.00106861
0.00103576
0.00100465
0.000953413
0.000965151
0.00094078
0.001949
0.00186539
0.0015605
0.00138684
0.00148543
0.00141538
0.00140103
0.00134492
0.00129324
0.00124236
0.00118891
0.00114955
0.00112277
0.00108785
0.001055
0.00102499
0.00099218
0.000944506
0.00095494
0.000927815
0.00122807
0.00186094
0.00167226
0.00145802
0.00140844
0.00135119
0.00132583
0.00130072
0.00126509
0.00124668
0.0012239
0.00118203
0.00114848
0.00112007
0.00108124
0.00105878
0.00101916
0.000973838
0.000982839
0.000940282
0.0024513
0.00143594
0.001657
0.00164064
0.00154917
0.00150204
0.00141732
0.00136465
0.00132214
0.0012892
0.00124594
0.00119604
0.00114495
0.00111075
0.0010736
0.0010471
0.00101596
0.000958161
0.000975767
0.000922313
4.39516e-23
0.00256475
0.00734821
0.0117061
0.010338
0.00577271
0.00221831
0.000626643
0.000114725
0.000331222
0.000367535
0.000331217
0.000347136
0.000327352
0.000294235
0.000325742
0.00033087
0.00026618
0.000245611
0.000354614
0.000585924
0.00438718
0.0099081
0.0119868
0.00776702
0.00326242
0.000970909
6.01984e-05
0.000282044
0.000349576
0.000340425
0.000342051
0.000274186
0.000291616
0.00032761
0.000337129
0.000282227
0.000274549
0.000280667
0.000389138
0.00144629
0.00728058
0.0117206
0.0102008
0.00520858
0.00152881
9.08816e-05
0.000190493
0.000304588
0.000354274
0.000308335
0.000286357
0.000301256
0.00033959
0.000327214
0.00032776
0.000300703
0.000273051
0.000274892
0.000432943
0.00188593
0.0092183
0.0121807
0.0083307
0.00292267
0.000473755
8.63465e-05
0.000272671
0.000353723
0.00031841
0.000321098
0.000337206
0.000309779
0.000326375
0.000333753
0.000319431
0.000250058
0.000278235
0.000345545
0.000473182
0.00373797
0.0106705
0.0117565
0.00618755
0.0013997
5.71008e-05
0.000221749
0.000337246
0.000361006
0.000352081
0.000343791
0.00031244
0.0003128
0.000353379
0.000329299
0.000333248
0.000311548
0.000336944
0.000426207
0.000532891
0.00305463
0.0117398
0.0103956
0.00377861
0.000367081
6.40493e-05
0.000345487
0.000391109
0.00036796
0.000356803
0.000346156
0.000347875
0.000353282
0.000386983
0.000387648
0.000367038
0.000304213
0.000373795
0.000526412
0.000598913
0.00601319
0.0122514
0.0091639
0.00189224
0.000188085
0.000325671
0.000439317
0.000459209
0.000441744
0.000444476
0.00043134
0.000406184
0.000411572
0.000426507
0.000385766
0.000393601
0.00036647
0.000477933
0.000596954
0.00062909
0.0086194
0.0124097
0.00786512
0.000710088
0.000195769
0.000516089
0.00058273
0.000516547
0.00050966
0.000475878
0.000446894
0.000426194
0.000425174
0.000462037
0.000468038
0.000446798
0.000390848
0.00052885
0.000640629
0.000634818
0.0110734
0.0123503
0.00560518
0.000341887
0.000453216
0.000629811
0.000639106
0.0005939
0.000579462
0.000566043
0.000534684
0.000516586
0.000531885
0.000529481
0.000489626
0.000487714
0.000451927
0.000593609
0.000643353
0.000637051
0.0138998
0.0120001
0.00383337
0.000202782
0.000631466
0.000754833
0.000726908
0.000679904
0.000660259
0.000619057
0.000585359
0.000547163
0.000527994
0.000556882
0.000560278
0.000534144
0.000488909
0.000630205
0.000661013
0.000645067
0.0151434
0.0117652
0.00238931
0.000294362
0.000813767
0.000830228
0.000791261
0.000738406
0.00071813
0.000685961
0.000638891
0.000624095
0.00063594
0.000625421
0.000604888
0.000589418
0.000534738
0.000646795
0.000628657
0.000640802
0.0162899
0.0111416
0.00159211
0.0003751
0.000878565
0.000886963
0.000863558
0.000812144
0.000792356
0.000755683
0.000720109
0.00067464
0.000644241
0.000657572
0.000652571
0.00062265
0.000584162
0.000693869
0.000661415
0.000681203
0.0169002
0.0108419
0.000998551
0.000688292
0.000998558
0.000943918
0.00093819
0.000863485
0.000840085
0.000800375
0.000743098
0.000724437
0.000716574
0.000704913
0.00070457
0.000679021
0.000618765
0.000696974
0.000605564
0.000664322
0.0173534
0.0102826
0.0013335
0.000760773
0.00109947
0.000982151
0.000987833
0.000932396
0.000902478
0.000876548
0.000834513
0.00079154
0.000753006
0.000738951
0.000725932
0.000699725
0.000676007
0.000739971
0.000615523
0.00068461
0.01789
0.00990876
0.00148182
0.000971183
0.00115631
0.00107064
0.00105112
0.000986082
0.000948278
0.000908337
0.000849488
0.000820234
0.000798801
0.000789316
0.000796065
0.00077511
0.000753776
0.000780255
0.000602299
0.000702498
0.0179863
0.00951033
0.00246156
0.00105277
0.00121508
0.00109481
0.0010906
0.00103383
0.000996541
0.000974658
0.000928746
0.00089727
0.000852176
0.000820617
0.000797119
0.000769998
0.000780185
0.000783636
0.000558944
0.00071286
0.0182477
0.00931226
0.00228582
0.00112887
0.00126003
0.00116563
0.00114129
0.00109535
0.00104133
0.00101316
0.000952884
0.000916062
0.000898701
0.000886828
0.000878252
0.000850451
0.000849825
0.00083892
0.00058602
0.0007152
0.0181131
0.00887192
0.00197993
0.00117506
0.00129907
0.00119722
0.00116701
0.00112612
0.00107957
0.00105803
0.00102405
0.000999879
0.000959303
0.00092974
0.000890561
0.000863533
0.000882512
0.000867089
0.000591997
0.000750791
0.0180434
0.00775225
0.00212253
0.00123956
0.00131246
0.00125673
0.00121027
0.00118412
0.00112682
0.00110752
0.00104808
0.00101591
0.00100075
0.000997052
0.000981369
0.000949583
0.000970794
0.000972241
0.00069856
0.000755593
0.0177732
0.00688399
0.00194525
0.00132267
0.00132611
0.00127882
0.00122004
0.00119566
0.00114107
0.00112277
0.00110439
0.00108417
0.0010595
0.00103749
0.00102069
0.00103833
0.00107568
0.00103913
0.000948645
0.00100602
0.00421328
0.00316518
0.00237265
0.00207965
0.00194152
0.00172587
0.00153431
0.00134045
0.00120258
0.00104533
0.000915927
0.000830994
0.00069752
0.000656815
0.000434237
0.000641869
0.00177628
0.00630658
0.0105654
0.0152859
0.00427258
0.0029474
0.0023713
0.00212351
0.00192405
0.0017455
0.0015431
0.00134469
0.00119757
0.00104114
0.000906594
0.000823134
0.00068653
0.000647103
0.000427701
0.000632438
0.00170319
0.00632076
0.010494
0.0152055
0.00446996
0.00289937
0.00239222
0.00211727
0.00191895
0.00172324
0.00150176
0.00132842
0.00119068
0.00104228
0.000910779
0.000829774
0.000688513
0.000644402
0.000397039
0.000606092
0.00164841
0.00631668
0.0105561
0.0151326
0.0045202
0.00285343
0.00237898
0.00208722
0.00189154
0.00174419
0.00150247
0.00133636
0.00118946
0.00104429
0.000906542
0.000826085
0.000681244
0.000636203
0.000395914
0.000602107
0.00157738
0.00628619
0.0105154
0.0150709
0.00441844
0.00269578
0.00246638
0.00216399
0.00192114
0.00173628
0.0014654
0.00132298
0.00117918
0.0010429
0.000907843
0.000831105
0.000682427
0.000635028
0.000367351
0.000584503
0.00150561
0.0062843
0.0105488
0.0150215
0.00434376
0.0026989
0.00247896
0.00207466
0.00184588
0.00174199
0.001464
0.00133602
0.00118295
0.00105129
0.000908432
0.000832424
0.000680001
0.000634664
0.000370295
0.000593514
0.00142689
0.00625021
0.0105574
0.0149723
0.00438594
0.00247908
0.00251936
0.00220305
0.00191932
0.00174046
0.00143377
0.00132137
0.00116825
0.00104822
0.000907605
0.000836364
0.000682792
0.000638355
0.000350385
0.000565493
0.00134174
0.0062107
0.0105677
0.0149424
0.00440643
0.0026253
0.00251513
0.00209162
0.00185867
0.00172949
0.00143741
0.00133906
0.00117659
0.00106156
0.000912423
0.000841846
0.000686527
0.00064567
0.000362783
0.000558253
0.00125152
0.00616275
0.010576
0.0149131
0.00451651
0.0025456
0.00253446
0.00216667
0.00188215
0.00171054
0.00140893
0.00132054
0.00115796
0.00105724
0.000909995
0.000844337
0.00069194
0.000652722
0.00035536
0.000532249
0.00115673
0.00610954
0.0105732
0.0149031
0.00458409
0.00261275
0.00252331
0.00216947
0.00189338
0.00170976
0.00142235
0.00134237
0.00116904
0.00107335
0.000917728
0.000851631
0.000700656
0.00066675
0.000384887
0.000536873
0.00105369
0.006069
0.0105838
0.014887
0.00472135
0.00270565
0.00255548
0.00216877
0.00184917
0.00166659
0.00138844
0.00131966
0.00114716
0.00106709
0.000914719
0.000851709
0.000706994
0.000674884
0.000389599
0.000519884
0.000945865
0.00601782
0.010592
0.0148757
0.00479738
0.00266037
0.00249457
0.00220955
0.00189983
0.00168315
0.00140957
0.0013434
0.00115898
0.00108355
0.000924504
0.000859255
0.000718819
0.000691996
0.000434808
0.000536706
0.000832689
0.0059385
0.0106069
0.0148674
0.005004
0.0028043
0.00254911
0.0022282
0.00185336
0.00163432
0.00137536
0.00131786
0.00113528
0.00107379
0.000921108
0.000856811
0.000724324
0.000698973
0.000457088
0.000534594
0.000717497
0.00590683
0.010611
0.014865
0.00510314
0.00275484
0.00244491
0.00222951
0.00188726
0.00164586
0.00140048
0.00134039
0.00114655
0.00108803
0.000931521
0.000864346
0.000737102
0.000716574
0.000526767
0.000579301
0.000598294
0.00585574
0.0106356
0.0148566
0.00513567
0.00290118
0.00249843
0.00228848
0.00188236
0.0016113
0.00137204
0.00131503
0.00112348
0.00107472
0.000926301
0.000859887
0.00073982
0.000720384
0.000536855
0.000607343
0.000463806
0.00580359
0.0106551
0.0148683
0.00549878
0.00285779
0.00231021
0.00223144
0.00186935
0.00161411
0.00139651
0.0013357
0.001134
0.00108543
0.000934737
0.000866742
0.000751497
0.000735478
0.000554403
0.000619597
0.000371285
0.00574891
0.0106687
0.0149157
0.00537833
0.00297303
0.00244035
0.00227776
0.00189244
0.00159656
0.001373
0.00131535
0.00111378
0.00107011
0.000925756
0.000859696
0.00075226
0.000739483
0.000580209
0.000616454
0.000209203
0.00564185
0.0106838
0.0148305
0.00569533
0.00270125
0.00213534
0.00219561
0.00185056
0.00160836
0.00139694
0.00133843
0.00112654
0.00108102
0.000933837
0.00086779
0.00076148
0.000758741
0.000616761
0.000660122
9.19506e-05
0.00571215
0.0107319
0.014968
0.00518574
0.00288446
0.00235156
0.00219232
0.00179316
0.00158312
0.00136545
0.00131874
0.00110894
0.00106209
0.000919012
0.000855073
0.000756118
0.000748624
0.000608749
0.000630974
2.01928e-06
0.00562462
0.0108426
0.0151379
0.00577037
0.00288781
0.00224044
0.00204737
0.00175976
0.00160463
0.00139625
0.00134203
0.00112335
0.00106838
0.000923533
0.000861626
0.000763455
0.000763181
0.000675154
0.000641683
0.000107168
0.00528655
0.0106424
0.0146803
0.0181662
0.0289513
0.014819
0.0221131
0.0167834
0.018212
0.0154293
0.0146388
0.0121826
0.011121
0.0094993
0.00877853
0.0077867
0.00745604
0.00692392
0.00714964
0.00581468
0.0524349
0.101688
0.136066
0.0267915
0.0211219
0.0199982
0.0164716
0.0152238
0.0130418
0.0115054
0.00951196
0.00893683
0.00803323
0.00715648
0.00676821
0.00612875
0.00596023
0.0057406
0.00530483
0.0147003
0.0493292
0.0987203
0.135413
0.0134546
0.014464
0.0131163
0.0115336
0.0108178
0.00940197
0.00891688
0.00841954
0.00770026
0.00720254
0.00679633
0.00654232
0.00605536
0.00585086
0.00557545
0.00544013
0.0097661
0.0476796
0.0969848
0.133523
0.0127921
0.010346
0.00918788
0.00834836
0.00814273
0.00779884
0.00722358
0.00653595
0.00635872
0.00599438
0.00567096
0.0053038
0.00496504
0.0045459
0.00432199
0.003634
0.0115151
0.0424338
0.0969309
0.129807
0.00539879
0.00686233
0.00713511
0.00615325
0.00578397
0.00552692
0.00563897
0.00541655
0.00511655
0.00489766
0.00470123
0.00453586
0.00440302
0.00408797
0.00403367
0.0036714
0.00551834
0.0413175
0.0966326
0.12765
0.00525161
0.00552744
0.00473353
0.00419415
0.00429085
0.00439126
0.00432418
0.00431206
0.00427338
0.00423909
0.00414159
0.00406211
0.00394687
0.00365483
0.00340654
0.00251485
0.00710908
0.0371834
0.0968708
0.126732
0.00287027
0.0032391
0.00331354
0.00364996
0.00354886
0.00341022
0.00349061
0.00361223
0.00352817
0.00355768
0.00351283
0.00356985
0.00345479
0.00344278
0.00322921
0.00246973
0.00392066
0.0339103
0.0969333
0.127428
0.00255301
0.00276466
0.00264166
0.00247516
0.0024967
0.00263734
0.00269791
0.00297087
0.00306742
0.00327388
0.00322016
0.0033615
0.00334067
0.00349984
0.00353586
0.00259841
0.00435292
0.0286326
0.0968431
0.129902
0.0014602
0.00162935
0.00169789
0.00221448
0.00248251
0.00252174
0.00251534
0.00263197
0.00271051
0.00287003
0.00296221
0.0031541
0.00319159
0.00331696
0.00348283
0.00309683
0.00223706
0.0232952
0.0959666
0.13474
0.00119576
0.0014219
0.00145507
0.00144974
0.00149129
0.0018376
0.00203039
0.00226443
0.00233528
0.0026035
0.00268896
0.00301358
0.00307959
0.00340271
0.00344989
0.00361292
0.00337348
0.0166126
0.0929081
0.145367
0.000693127
0.00101964
0.00121525
0.00154025
0.00162707
0.00170295
0.00178013
0.00200182
0.00213892
0.0022889
0.00243717
0.0027172
0.00290377
0.00325001
0.00325404
0.00351898
0.00288741
0.0107411
0.0865733
0.156184
0.000846481
0.000873621
0.000843231
0.000868687
0.00103139
0.00129031
0.00142144
0.00150386
0.00176359
0.00195376
0.00212505
0.00235809
0.00260795
0.00306177
0.0033349
0.00396372
0.00341856
0.00669735
0.0650135
0.169437
0.000566864
0.000692701
0.000846607
0.000994596
0.00099199
0.00113166
0.00130372
0.00138734
0.00145886
0.00162212
0.00178462
0.0019
0.00214989
0.00231569
0.00283445
0.00303086
0.00395674
0.0027623
0.0486467
0.189665
0.000405881
0.000486914
0.000505778
0.000575831
0.000636481
0.000789541
0.00086831
0.00106366
0.00115591
0.00132111
0.00147982
0.00162473
0.00184845
0.00192514
0.0023595
0.00244126
0.00323398
0.00787625
0.0250602
0.154648
0.000407513
0.00047905
0.000552318
0.00062016
0.000601474
0.000642259
0.000722422
0.000814774
0.000872677
0.000998448
0.00103495
0.00122255
0.00124159
0.00152601
0.00160082
0.00218276
0.00200117
0.00409615
0.0149435
0.111125
0.000288871
0.000336732
0.000351461
0.000404309
0.000511261
0.000574484
0.000606253
0.00068984
0.000728824
0.000833714
0.000885539
0.00102584
0.00107923
0.00129437
0.00134008
0.00154924
0.00165731
0.00273993
0.00477992
0.0696068
0.000257017
0.000277553
0.000308725
0.00031277
0.000371064
0.000407644
0.000427513
0.000483109
0.000514592
0.000589186
0.000617723
0.000725304
0.000738449
0.000887633
0.000782391
0.00111511
0.000952446
0.00149383
0.00312434
0.0431597
0.000337516
0.000371317
0.000405253
0.000447467
0.000492694
0.000518988
0.00055399
0.000599614
0.000643484
0.000711403
0.000732503
0.000834611
0.000774532
0.000893911
0.000846962
0.000904568
0.000856174
0.000862475
0.00119266
0.0243796
0.000404922
0.000401606
0.000413789
0.000433713
0.000468474
0.00049844
0.000515687
0.000539764
0.00056799
0.000609124
0.00064461
0.000653757
0.000722278
0.000661153
0.0005874
0.000611117
0.000713098
0.000633558
0.000698136
0.00975537
0.000523603
0.000539773
0.000567548
0.000581514
0.00060113
0.000624433
0.000641942
0.000664962
0.000691445
0.000714809
0.000744334
0.000763092
0.000798305
0.000822523
0.000829365
0.000913098
0.000921934
0.000669656
0.00074239
0.00547995
0.014139
0.0140532
0.0139061
0.0138709
0.0137192
0.0135969
0.013487
0.0133486
0.0133917
0.0126136
0.0125548
0.0132445
0.0117232
0.010267
0.0102391
0.0109421
0.0116171
0.0113602
0.00841954
0.00820811
0.00698186
0.00695293
0.00690151
0.0068971
0.00680933
0.00681746
0.00667831
0.00669387
0.00636152
0.00637607
0.0065204
0.00629614
0.00580974
0.00596776
0.0068043
0.00781362
0.00806811
0.00563512
0.00515385
0.00726601
0.0041727
0.00416548
0.00416723
0.00421002
0.00424569
0.00432177
0.00432144
0.00436045
0.00443466
0.00448056
0.00425738
0.00455132
0.0042479
0.00411322
0.00383244
0.00388638
0.00357851
0.00410976
0.00403553
0.00369451
0.00267857
0.00266809
0.00263866
0.0026077
0.00256081
0.00249827
0.00242236
0.00239257
0.00227191
0.00216723
0.00227145
0.00242369
0.00248013
0.00249884
0.00242355
0.00259639
0.00237342
0.00241199
0.00203076
0.00259691
0.00161376
0.00161
0.00160394
0.00159929
0.00159078
0.00158585
0.00157664
0.00159191
0.00166858
0.00191871
0.00176166
0.00163513
0.00157843
0.0015728
0.00151244
0.00164911
0.00177705
0.00183416
0.00159059
0.00151965
0.00114239
0.00113514
0.00112936
0.0011226
0.00111854
0.00111322
0.00110867
0.00110663
0.00110244
0.00103479
0.00097537
0.00104536
0.00105334
0.00107861
0.00108777
0.00107038
0.000944623
0.00107473
0.00108056
0.0010717
0.000662997
0.00065931
0.000658916
0.000657388
0.000658106
0.00065854
0.000661658
0.000664427
0.000672328
0.000692842
0.000698136
0.000693521
0.000662468
0.000682739
0.000731869
0.000812529
0.000795299
0.000659904
0.000549606
0.000617764
0.000470219
0.000463566
0.00045999
0.000458764
0.000458422
0.000460964
0.000463801
0.000469113
0.000475378
0.00048134
0.000481453
0.000494035
0.000504063
0.000500506
0.000444823
0.000413322
0.00043266
0.000606119
0.000554002
0.000494001
0.000244671
0.000242997
0.000239684
0.000238997
0.000238649
0.000240528
0.000241286
0.000246819
0.000249589
0.000256705
0.000260004
0.000270092
0.000299002
0.000312461
0.000299141
0.000327185
0.000279028
0.00025211
0.00025242
0.000317946
0.000138457
0.000139366
0.00014069
0.000139625
0.000142296
0.000143714
0.00014732
0.000153537
0.000159284
0.000161164
0.000152321
0.000144334
0.000145352
0.000140231
0.000128167
0.000179862
0.00024161
0.000172032
0.000191664
0.000278641
3.4357e-05
3.56092e-05
3.59027e-05
4.58665e-05
5.4119e-05
5.86047e-05
6.50878e-05
8.06723e-05
9.16809e-05
0.000101279
8.53572e-05
9.02833e-05
8.6437e-05
0.000144836
0.000199757
0.000210712
0.000109433
0.000126038
9.65499e-05
0.000129226
3.57032e-05
5.04981e-05
6.05903e-05
6.41576e-05
7.00136e-05
7.44496e-05
7.75443e-05
7.66624e-05
8.32337e-05
9.84284e-05
0.000125202
0.000117035
0.000114481
0.000114506
7.3222e-05
0.000104292
0.000152063
0.000185029
0.000196799
0.000232517
6.36404e-05
6.21378e-05
6.20868e-05
6.39452e-05
6.67594e-05
7.43172e-05
7.82592e-05
8.24414e-05
7.63718e-05
6.1462e-05
5.06955e-05
5.89099e-05
7.15486e-05
8.946e-05
9.57526e-05
9.64499e-05
6.71952e-05
8.98832e-05
9.55339e-05
0.00011012
6.29975e-05
6.07066e-05
5.79149e-05
5.7802e-05
5.70684e-05
5.70607e-05
6.03446e-05
6.22961e-05
6.74211e-05
7.93082e-05
8.37297e-05
7.97047e-05
7.17838e-05
7.05608e-05
7.3193e-05
7.54951e-05
8.11158e-05
8.28269e-05
8.79134e-05
9.41173e-05
6.42399e-05
6.02185e-05
5.70904e-05
5.51219e-05
5.3253e-05
5.14314e-05
5.00643e-05
4.89614e-05
4.81311e-05
5.06557e-05
5.2604e-05
5.78224e-05
6.20082e-05
6.70998e-05
6.57844e-05
6.80038e-05
6.58345e-05
7.00674e-05
6.25386e-05
8.87532e-05
7.21307e-05
7.33905e-05
7.49374e-05
7.56274e-05
7.53195e-05
7.49253e-05
6.70948e-05
5.14207e-05
4.54587e-05
4.46512e-05
4.48309e-05
4.75454e-05
5.15086e-05
5.24072e-05
5.53733e-05
5.74446e-05
6.02643e-05
6.77129e-05
6.55374e-05
6.99511e-05
7.35193e-05
7.42065e-05
7.36474e-05
7.26303e-05
7.26614e-05
7.28492e-05
7.2734e-05
7.37311e-05
7.52767e-05
7.72228e-05
7.90407e-05
8.03003e-05
7.8943e-05
7.7801e-05
7.71543e-05
7.74696e-05
7.58333e-05
7.14433e-05
6.77037e-05
6.12835e-05
6.63305e-05
6.49649e-05
6.50945e-05
6.65361e-05
6.86384e-05
7.11104e-05
7.18106e-05
7.07144e-05
7.15025e-05
7.27302e-05
7.21186e-05
7.03247e-05
7.19571e-05
7.34529e-05
7.47461e-05
7.19857e-05
6.90233e-05
7.22803e-05
7.28507e-05
7.26187e-05
8.13447e-05
8.29812e-05
8.28515e-05
8.25152e-05
8.17303e-05
8.0999e-05
8.5191e-05
8.94152e-05
8.91269e-05
8.63656e-05
8.6505e-05
8.89917e-05
9.03065e-05
9.11336e-05
9.21216e-05
9.30367e-05
9.37016e-05
9.00386e-05
9.77609e-05
0.000101065
0.000106132
0.000107453
0.000107934
0.000109685
0.000110389
0.000112132
0.000112915
0.000112632
0.000113017
0.000114313
0.000115723
0.00011649
0.000117409
0.000118473
0.000120061
0.000122143
0.000125225
0.000124664
0.000126086
0.000125125
0.00115974
0.00153809
0.00116522
0.00116689
0.00124246
0.00122835
0.00123934
0.0012854
0.00134043
0.00138129
0.00142963
0.00148131
0.00154261
0.00158387
0.00166175
0.00163554
0.0016636
0.00192711
0.00729466
0.0225107
0.00114196
0.00130582
0.000968681
0.00104968
0.00113538
0.00118937
0.0012468
0.00127175
0.0013079
0.00135265
0.00140888
0.00145232
0.00151435
0.00155574
0.00167948
0.00171734
0.00178234
0.00200123
0.00680846
0.0220047
0.00114689
0.00142425
0.0010728
0.00108363
0.00118947
0.00119657
0.00121392
0.00126913
0.0013288
0.00137732
0.0014253
0.0014769
0.00154104
0.00157852
0.00164716
0.00158998
0.00170639
0.00145239
0.00529886
0.0215097
0.00117513
0.00138163
0.0010019
0.00104574
0.00112132
0.0011711
0.00122479
0.0012631
0.00130716
0.00135042
0.00141024
0.00145288
0.00150571
0.00155072
0.00165562
0.001671
0.00178279
0.00154556
0.00523304
0.0208692
0.0011848
0.00140465
0.00106281
0.0010955
0.0011947
0.00121499
0.00123369
0.00129653
0.00134012
0.00139251
0.00142983
0.00147468
0.00153263
0.00156241
0.00162402
0.00157819
0.00176582
0.00153454
0.0049559
0.0202156
0.00121133
0.00140965
0.00104871
0.00109415
0.00116284
0.0011894
0.00124464
0.00127447
0.00131024
0.0013513
0.00139391
0.00143935
0.00148246
0.00154598
0.00163603
0.00166035
0.00179425
0.00153691
0.00551192
0.0194699
0.00117761
0.00136962
0.0010545
0.00110326
0.00118355
0.00122098
0.0012385
0.00128565
0.00132959
0.00136756
0.00140188
0.00144513
0.00150134
0.00153934
0.00160579
0.00162357
0.00185187
0.00168362
0.00544057
0.0188074
0.00123242
0.00137957
0.00107447
0.00113622
0.00119054
0.00120195
0.00122678
0.00126402
0.00127353
0.00131325
0.00135011
0.00141027
0.00146035
0.00154288
0.00163666
0.00167583
0.00177618
0.00157063
0.00505474
0.0176799
0.00120454
0.00133428
0.00104628
0.00109993
0.00114145
0.00115335
0.00119264
0.00122713
0.00126816
0.00132149
0.00136334
0.00143039
0.00148436
0.00156316
0.00161087
0.00165465
0.00183072
0.00168862
0.00402609
0.0161917
0.00118172
0.00127793
0.0010387
0.00109112
0.0011408
0.00117993
0.00121301
0.00124008
0.00127174
0.00131514
0.00136869
0.0014375
0.00149513
0.00156229
0.0015877
0.00164655
0.00166082
0.00159949
0.00317115
0.013547
0.00116146
0.0012353
0.00102865
0.00108383
0.00114727
0.00117533
0.00118801
0.00123519
0.00128142
0.00134321
0.00138898
0.00144464
0.00147333
0.00150651
0.00153049
0.00160088
0.00168387
0.00170063
0.00272044
0.0110808
0.0011199
0.00118211
0.00103615
0.00110323
0.00114172
0.00114795
0.00117197
0.00122058
0.00125576
0.0012998
0.00133552
0.00137473
0.00138902
0.00144472
0.00148913
0.00154291
0.00156664
0.00166225
0.00225453
0.00905213
0.00108138
0.00114238
0.00102739
0.00105893
0.00108641
0.00111004
0.00116006
0.00122193
0.00124847
0.00128747
0.00130697
0.0013473
0.00137777
0.0014598
0.00146816
0.00157668
0.00161852
0.00166891
0.00206997
0.00756721
0.00108227
0.00113696
0.00102799
0.00106
0.00109769
0.00113162
0.00117899
0.00118623
0.00119907
0.00123721
0.00128
0.00133385
0.0013815
0.00145284
0.00147535
0.00157968
0.00160363
0.0017259
0.00185218
0.00613746
0.00102217
0.00106376
0.000999455
0.00104267
0.00108587
0.00112367
0.00114645
0.00117167
0.00122796
0.00128739
0.00132229
0.00136578
0.00140391
0.00143921
0.00148178
0.00160287
0.00160779
0.00165611
0.00168356
0.00515301
0.00101914
0.00108473
0.00102032
0.00105223
0.00108908
0.00111521
0.00114567
0.00119374
0.00124255
0.00126581
0.00129486
0.00133698
0.00139517
0.00145254
0.00153172
0.00158694
0.00152596
0.00162912
0.00159176
0.00440256
0.000987713
0.00105052
0.0010015
0.00104843
0.00109019
0.00112002
0.00115079
0.001181
0.00120637
0.00122439
0.00128814
0.00133655
0.00137938
0.00140269
0.00144146
0.00146509
0.00146284
0.00163762
0.00167208
0.00463659
0.000954924
0.0010304
0.000985357
0.00102988
0.00106592
0.00108176
0.00111954
0.00115074
0.00119408
0.00124055
0.00128485
0.00129888
0.00132378
0.00135671
0.00139665
0.00139349
0.00148298
0.00162678
0.00178586
0.00436518
0.000948414
0.00102533
0.000977838
0.00102262
0.00105434
0.00107955
0.001117
0.0011491
0.00117882
0.00120929
0.00122483
0.00126667
0.00132733
0.00139976
0.00145061
0.00152947
0.00159216
0.00155441
0.00173133
0.0041041
0.000917166
0.000973999
0.000939887
0.00100084
0.00103091
0.00107214
0.00110504
0.00114197
0.00118606
0.00121573
0.00127977
0.00134465
0.00139945
0.00143101
0.00149428
0.00152971
0.00164451
0.0015521
0.00165631
0.0027067
0.00101537
0.00120599
0.00131321
0.00126872
0.00117698
0.0010652
0.00107779
0.00105698
0.00107465
0.00115408
0.0011293
0.00112384
0.00120732
0.00127235
0.00118182
0.000638055
0.000573723
0.0107159
0.0155497
0.0141714
0.00102097
0.00115688
0.00125202
0.00125477
0.00124334
0.00112517
0.00108278
0.00109423
0.00109695
0.00104842
0.00114108
0.00126749
0.00127258
0.00132747
0.00129121
0.000778858
0.000197995
0.00993772
0.0158455
0.0166328
0.00101666
0.0011905
0.00133508
0.00128673
0.00123446
0.0011486
0.00114232
0.00109167
0.00111489
0.00120642
0.00117577
0.00117019
0.0012768
0.00132706
0.00135703
0.00105612
0.000597711
0.00825109
0.0157771
0.0190827
0.00100603
0.00112979
0.00129204
0.00129985
0.00128446
0.00114713
0.00111776
0.00116039
0.00115929
0.00111416
0.00120238
0.00131488
0.00131721
0.00134807
0.00139652
0.00116542
0.000433844
0.00599463
0.015828
0.0195653
0.00102187
0.00115006
0.00132417
0.00128571
0.00127201
0.00120884
0.00118064
0.00112338
0.00115084
0.00123845
0.00122389
0.0012374
0.00134944
0.00139562
0.0014753
0.00138902
0.000371077
0.00470688
0.0155709
0.0206509
0.0010112
0.00112503
0.00134261
0.00132305
0.00128983
0.00115945
0.00114719
0.00120238
0.00120541
0.00117803
0.00125026
0.00133966
0.00134701
0.00138425
0.00145819
0.00138883
0.000470332
0.00322869
0.0153698
0.0213843
0.00100898
0.00109211
0.00130897
0.00127441
0.0012798
0.00122684
0.00119346
0.00115097
0.00117373
0.0012476
0.00126298
0.00129896
0.00139561
0.00145929
0.00152169
0.0015331
0.000598604
0.00250771
0.015096
0.0220367
0.00102596
0.00114264
0.00137855
0.00131953
0.00126353
0.00116121
0.00116372
0.00121533
0.00123321
0.00123388
0.00128024
0.00134652
0.00137543
0.00142215
0.00148955
0.00151661
0.000837639
0.00164956
0.0147713
0.0227154
0.00102057
0.00106924
0.00131241
0.00127053
0.00127151
0.00122135
0.00119223
0.00117281
0.00118854
0.00124165
0.00129084
0.00134952
0.0014252
0.00150329
0.00155012
0.00161453
0.000986955
0.00136587
0.0144454
0.0232575
0.00104216
0.0011439
0.00140061
0.00130224
0.0012231
0.00115636
0.0011724
0.00121364
0.00124641
0.00128012
0.00130652
0.00135316
0.00140495
0.00145745
0.00151561
0.00159187
0.00115414
0.00129063
0.0140359
0.0236603
0.00103366
0.00105414
0.00132433
0.00126399
0.00124719
0.00120397
0.00118241
0.00118639
0.00120343
0.00123654
0.00130753
0.0013854
0.0014496
0.00153676
0.00157618
0.00165837
0.00124519
0.00134196
0.013676
0.0240132
0.00104368
0.00111511
0.00139942
0.00127211
0.00118045
0.0011518
0.00118277
0.0012155
0.00125738
0.00131796
0.00133958
0.00137212
0.00143805