/*--------------------------------*- C++ -*----------------------------------*\
  =========                 |
  \\      /  F ield         | OpenFOAM: The Open Source CFD Toolbox
   \\    /   O peration     | Website:  https://openfoam.org
    \\  /    A nd           | Version:  9
     \\/     M anipulation  |
\*---------------------------------------------------------------------------*/
FoamFile
{
    format      ascii;
    class       volScalarField;
    location    "17";
    object      p;
}
// * * * * * * * * * * * * * * * * * * * * * * * * * * * * * * * * * * * * * //

dimensions      [0 2 -2 0 0 0 0];

internalField   nonuniform List<scalar> 
46400
(
230.684
236.46
247.158
255.804
263.439
270.451
276.577
282.169
287.123
291.619
295.657
299.305
302.61
305.635
308.436
311.075
313.502
316.031
318.899
319.825
252.656
258.955
268.039
275.979
282.798
289.081
294.582
299.564
303.968
307.938
311.472
314.647
317.504
320.061
322.348
324.376
326.17
327.876
329.384
329.172
275.582
280.697
288.601
295.691
301.686
307.218
311.994
316.299
320.054
323.403
326.364
328.976
331.287
333.344
335.18
336.817
338.231
339.558
340.87
340.312
297.576
301.505
308.662
315.128
320.549
325.438
329.645
333.362
336.567
339.35
341.759
343.836
345.636
347.157
348.465
349.553
350.427
351.222
352.05
351.253
317.9
321.484
328.257
334.014
338.679
342.866
346.336
349.362
351.904
354.068
355.892
357.4
358.65
359.678
360.512
361.175
361.643
362.073
362.52
361.489
337.881
341.807
347.864
352.947
356.952
360.424
363.288
365.675
367.645
369.206
370.472
371.427
372.16
372.643
372.957
373.081
373.047
372.972
372.918
371.547
357.509
362.303
366.952
371.081
374.149
376.777
378.844
380.494
381.794
382.768
383.485
383.936
384.173
384.221
384.113
383.868
383.459
383.022
382.566
380.957
377.834
382.531
385.925
388.937
391.244
392.995
394.371
395.312
395.964
396.298
396.435
396.347
396.084
395.625
395.042
394.323
393.487
392.635
391.761
389.885
396.458
400.027
402.581
404.606
406.137
407.201
407.909
408.253
408.346
408.16
407.792
407.229
406.551
405.74
404.83
403.794
402.652
401.485
400.307
398.278
414.054
416.689
418.556
419.743
420.601
420.957
421.069
420.813
420.346
419.607
418.7
417.602
416.393
415.066
413.672
412.193
410.639
409.084
407.534
405.29
427.866
429.87
431.143
431.821
432.191
432.116
431.803
431.165
430.353
429.298
428.129
426.766
425.321
423.731
422.085
420.339
418.541
416.728
414.96
412.479
441.443
442.841
443.626
443.662
443.45
442.763
441.888
440.686
439.329
437.767
436.098
434.304
432.433
430.486
428.492
426.459
424.377
422.319
420.293
417.795
451.226
452.106
452.606
452.353
451.968
451.061
449.996
448.602
447.076
445.305
443.418
441.373
439.246
437.01
434.725
432.373
429.985
427.591
425.234
422.461
461.31
461.359
461.269
460.453
459.452
458.083
456.495
454.694
452.743
450.651
448.454
446.172
443.814
441.405
438.949
436.464
433.935
431.424
428.97
426.116
467.224
467.099
466.767
465.827
464.719
463.229
461.57
459.603
457.521
455.222
452.844
450.329
447.77
445.13
442.47
439.772
437.056
434.354
431.74
428.778
471.737
471.72
471.17
469.981
468.529
466.719
464.754
462.561
460.241
457.777
455.219
452.57
449.861
447.098
444.312
441.498
438.669
435.854
433.146
430.062
474.354
473.988
473.125
471.92
470.43
468.55
466.471
464.15
461.701
459.1
456.412
453.637
450.807
447.934
445.031
442.127
439.195
436.308
433.527
430.444
475.039
474.427
473.474
471.984
470.339
468.312
466.144
463.727
461.192
458.509
455.75
452.907
450.022
447.094
444.148
441.193
438.224
435.287
432.469
429.339
472.513
472.269
471.304
469.925
468.214
466.227
464.017
461.619
459.068
456.391
453.614
450.755
447.842
444.889
441.917
438.932
435.936
432.968
430.118
426.93
467.971
467.838
467.027
465.903
464.283
462.385
460.199
457.835
455.285
452.628
449.848
447.01
444.1
441.173
438.217
435.266
432.298
429.378
426.577
423.435
146.485
147.384
147.172
147.87
146.172
146.554
147.747
149.397
150.421
152.077
153.791
155.423
157.101
158.776
160.408
162.07
163.705
165.254
166.851
168.373
147.556
148.469
147.63
147.354
147.81
148.394
149.699
150.879
152.54
154.374
156.152
157.986
159.709
161.545
163.295
165.08
166.782
168.501
170.181
171.771
148.226
148.721
148.816
146.138
146.941
148.583
150.423
152.098
154.087
156.189
158.161
160.158
162.138
164.13
166.042
167.971
169.824
171.658
173.422
175.224
146.592
146.283
146.892
146.476
147.493
149.121
150.736
152.953
155.276
157.522
159.782
162.037
164.217
166.437
168.534
170.631
172.604
174.581
176.412
178.231
142.907
143.551
142.958
144.132
145.576
147.839
150.408
152.998
155.766
158.452
161.09
163.709
166.247
168.765
171.119
173.491
175.688
177.843
179.877
181.808
135.867
136.97
136.59
139.343
142.307
145.38
148.871
152.314
155.664
158.928
162.117
165.18
168.135
171.007
173.703
176.381
178.822
181.271
183.501
185.687
125.408
126
127.931
132.312
137.327
142.278
146.825
151.293
155.53
159.524
163.313
166.927
170.346
173.623
176.68
179.666
182.371
185.118
187.546
189.99
113.915
114.817
119.712
126.431
133.191
139.497
145.36
150.716
155.783
160.473
164.876
168.992
172.87
176.522
179.926
183.198
186.163
189.164
191.734
194.409
105.644
106.321
114.091
122.405
130.748
138.218
145.149
151.397
157.174
162.499
167.421
172.006
176.268
180.262
183.964
187.465
190.634
193.833
196.496
199.323
100.123
102.01
111.509
121.243
130.437
138.779
146.415
153.33
159.714
165.54
170.919
175.885
180.49
184.749
188.691
192.377
195.71
199.037
201.739
204.703
98.9709
102.023
111.532
122.457
132.508
141.583
149.815
157.223
164.029
170.223
175.895
181.12
185.924
190.37
194.47
198.255
201.692
205.072
207.793
210.876
101.163
104.109
115.903
127.008
137.223
146.534
155.084
162.756
169.831
176.276
182.163
187.585
192.556
197.127
201.332
205.183
208.7
212.079
214.822
217.992
106.421
109.593
120.772
132.946
143.704
153.288
162.19
170.12
177.373
183.964
189.956
195.437
200.445
205.042
209.259
213.09
216.607
219.93
222.591
225.849
113.457
117.883
130.016
141.594
152.869
162.454
171.382
179.365
186.627
193.236
199.212
204.692
209.664
214.214
218.363
222.105
225.544
228.708
231.248
234.49
124.979
129.499
141.209
152.814
163.793
173.47
182.316
190.265
197.465
204.004
209.911
215.289
220.172
224.62
228.67
232.312
235.693
238.681
241.14
244.415
137.389
142.382
154.862
166.421
177.264
186.623
195.264
202.988
209.959
216.297
221.985
227.174
231.848
236.106
239.941
243.38
246.57
249.234
251.45
254.82
153.506
158.537
171.149
181.861
192.215
201.257
209.484
216.95
223.649
229.751
235.233
240.205
244.684
248.726
252.351
255.591
258.565
260.944
262.915
266.044
170.065
175.472
188.411
198.753
208.677
217.361
225.213
232.297
238.634
244.392
249.536
254.199
258.388
262.162
265.512
268.494
271.182
273.216
274.847
277.818
189.209
195.019
207.519
217.154
226.29
234.462
241.764
248.44
254.399
259.835
264.716
269.135
273.109
276.68
279.863
282.731
285.277
287.196
288.911
292.041
209.531
215.311
226.947
236.181
244.657
252.317
259.112
265.308
270.837
275.888
280.439
284.611
288.448
291.99
295.27
298.372
301.25
303.856
307.064
310.435
174.298
182.477
191.346
194.477
200.757
202.791
206.591
208.316
210.469
211.974
213.199
214.513
215.255
216.466
216.898
218.254
218.81
219.064
220.001
219.381
178.449
185.773
194.933
197.593
203.733
205.435
208.982
210.468
212.373
213.713
214.745
215.923
216.505
217.593
217.837
219.139
219.46
219.756
220.46
219.857
182.719
189.194
198.526
200.684
206.645
208.019
211.301
212.586
214.26
215.456
216.293
217.337
217.758
218.719
218.754
220.014
220.09
220.56
220.974
220.363
186.841
192.526
202.134
203.749
209.544
210.614
213.643
214.716
216.144
217.187
217.827
218.739
219.004
219.834
219.668
220.894
220.698
221.248
221.374
220.795
191.163
195.833
205.742
206.792
212.43
213.187
215.941
216.808
218.005
218.913
219.357
220.139
220.253
220.945
220.569
221.764
221.306
221.935
221.801
221.253
196.015
199.316
209.339
209.786
215.26
215.726
218.222
218.939
219.868
220.635
220.882
221.533
221.501
222.052
221.474
222.637
221.887
222.544
222.138
221.661
200.796
202.627
213.023
212.795
218.131
218.306
220.473
221.036
221.71
222.342
222.397
222.922
222.748
223.154
222.366
223.502
222.42
223.16
222.458
222.088
205.62
206.199
216.496
215.782
220.856
220.83
222.721
223.147
223.558
224.054
223.914
224.31
224
224.257
223.273
224.374
222.908
223.772
222.791
222.488
210.538
209.687
220.061
218.936
223.699
223.409
224.954
225.223
225.381
225.743
225.416
225.688
225.249
225.354
224.17
225.231
223.374
224.381
223.128
222.892
215.564
213.529
223.426
221.917
226.376
225.922
227.184
227.317
227.218
227.44
226.925
227.07
226.506
226.458
225.096
226.097
223.831
225.018
223.47
223.276
221.068
217.395
226.959
225.105
229.194
228.489
229.401
229.373
229.027
229.109
228.414
228.438
227.757
227.555
226.019
226.95
224.257
225.723
223.817
223.665
227.053
221.515
230.294
228.083
231.844
230.997
231.621
231.449
230.856
230.788
229.912
229.812
229.019
228.662
226.983
227.81
224.664
226.34
224.177
224.046
233.475
225.809
233.77
231.265
234.639
233.549
233.83
233.485
232.659
232.436
231.388
231.169
230.272
229.764
227.954
228.636
225.087
226.918
224.524
224.409
240.634
230.078
237.174
234.23
237.28
236.054
236.053
235.541
234.487
234.094
232.872
232.534
231.535
230.881
228.984
229.527
225.491
227.515
224.864
224.77
248.18
234.772
240.613
237.303
240.019
238.572
238.255
237.552
236.288
235.716
234.327
233.874
232.781
231.985
230.021
230.53
225.91
228.063
225.176
225.128
256.962
239.455
244.264
240.265
242.666
241.071
240.484
239.582
238.115
237.344
235.786
235.219
234.029
233.109
231.089
231.377
226.35
228.535
225.459
225.428
265.708
244.734
247.815
243.324
245.474
243.658
242.745
241.604
239.955
238.98
237.255
236.581
235.29
234.266
232.217
232.538
226.795
229.078
225.705
225.711
274.375
249.013
251.315
245.684
247.901
246.03
244.951
243.575
241.782
240.576
238.683
237.901
236.524
235.385
233.347
233.882
227.272
229.959
225.987
226.405
287.095
255.061
257.443
247.568
249.922
248.017
246.934
245.315
243.418
241.937
239.868
238.98
237.559
236.26
234.273
234.552
227.707
230.023
225.781
226.316
303.52
268.786
265.222
253.726
253.831
251.61
249.696
247.789
245.5
243.867
241.578
240.625
238.987
237.832
235.67
235.876
228.942
230.256
224.636
227.19
316.59
321.146
296.047
296.807
281.923
278.198
269.43
266.981
261.515
259.639
255.789
254.08
250.691
250.263
246.533
247.873
242.924
245.645
229.322
250.526
335.408
327.612
312.126
305.43
294.342
288.224
280.345
275.687
269.997
266.142
261.994
259.429
256.103
254.613
251.689
251.312
248.397
249.062
246.286
248.703
325.129
315.96
307.773
301.525
294.978
289.859
284.58
280.575
276.602
273.287
269.997
267.52
264.968
263.007
260.886
259.544
257.887
257.127
256.48
256.772
315.854
311.071
307.288
301.553
296.841
291.802
287.535
283.273
279.533
276.227
273.122
270.285
267.749
265.599
263.685
262.119
260.761
259.668
259.18
259.01
302.314
298.143
295.7
292.116
289.569
286.582
283.931
281.259
278.715
276.355
274.094
272.062
270.043
268.264
266.647
265.037
263.923
262.387
261.669
261.272
294.015
292.538
292.342
290.159
288.458
285.835
283.847
281.421
279.266
277.058
274.94
272.934
271.037
269.138
267.537
265.743
264.589
263.094
262.352
262.169
286.021
284.894
284.327
283.188
282.079
280.691
279.398
278.141
276.695
275.324
273.786
272.361
270.774
269.33
267.712
266.22
264.613
263.092
262.203
261.715
281.208
281.094
281.693
280.993
280.477
279.746
278.81
277.825
276.596
275.444
274.034
272.757
271.223
269.809
268.196
266.588
264.933
263.106
261.85
261.296
277.149
277.305
277.391
277.481
277.404
276.93
276.323
275.728
274.972
274.232
273.211
272.287
271.002
269.855
268.283
266.781
264.914
262.855
261.471
260.07
275.003
275.548
276.055
276.168
276.182
276.154
275.906
275.649
275.102
274.63
273.791
273.126
271.964
271.087
269.507
268.361
266.115
264.725
262.244
261.804
273.338
273.828
274.476
274.99
275.24
275.394
275.344
275.304
275.075
274.877
274.413
274.032
273.273
272.686
271.495
270.651
268.673
267.685
264.55
264.424
272.743
273.468
273.966
274.476
274.831
275.177
275.409
275.643
275.683
275.782
275.629
275.602
275.223
275.102
274.367
274.161
272.61
272.746
269.323
270.818
272.337
273.234
274.051
274.715
275.308
275.847
276.242
276.702
277.03
277.396
277.703
277.968
278.265
278.444
278.704
278.906
278.987
279.325
280.271
282.037
272.478
273.246
273.934
274.713
275.329
276.09
276.667
277.386
277.963
278.637
279.261
279.897
280.647
281.243
282.302
282.863
284.581
284.944
287.788
288.618
272.838
273.713
274.513
275.314
276.096
276.892
277.646
278.443
279.184
280.066
280.826
281.87
282.736
284.016
285.158
286.665
288.163
289.975
292.994
293.825
273.099
273.999
274.831
275.767
276.619
277.548
278.407
279.377
280.271
281.318
282.291
283.468
284.566
285.952
287.204
288.959
290.638
293.092
295.332
298.68
273.519
274.389
275.217
276.105
276.924
277.856
278.716
279.713
280.627
281.726
282.703
283.953
285.003
286.484
287.617
289.441
290.634
292.851
293.718
303.483
273.833
274.714
275.597
276.523
277.444
278.42
279.381
280.423
281.43
282.561
283.618
284.871
285.969
287.392
288.494
290.16
291.175
293.316
294.3
297.251
274.061
274.926
275.794
276.708
277.609
278.579
279.523
280.558
281.549
282.664
283.7
284.911
285.977
287.3
288.357
289.802
290.757
292.184
292.59
299.184
274.191
275.056
275.949
276.865
277.805
278.775
279.766
280.798
281.844
282.949
284.048
285.243
286.384
287.695
288.846
290.323
291.411
293.157
294.016
296.222
386.244
389.388
391.854
393.705
394.976
395.556
395.52
395.028
393.508
392.082
389.196
386.953
382.563
377.378
372.67
367.756
362.273
356.284
348.722
341.135
353.933
356.077
357.886
359.476
360.667
361.718
362.336
362.843
362.956
362.917
362.533
362.056
361.031
360.179
358.789
357.704
356.323
353.135
349.284
347.418
317.369
319.098
320.688
322.201
323.533
324.828
325.891
326.974
327.766
328.635
329.14
329.797
330.097
330.539
330.501
330.635
330.197
330.225
329.556
329.706
303.718
305.013
306.253
307.419
308.533
309.57
310.539
311.437
312.232
313.006
313.634
314.304
314.771
315.314
315.635
316.175
316.468
316.946
316.893
317.391
287.717
288.753
289.753
290.727
291.643
292.561
293.402
294.267
295.045
295.865
296.596
297.378
298.03
298.754
299.29
299.955
300.412
301.1
301.445
302.206
281.419
282.265
283.078
283.876
284.648
285.399
286.128
286.837
287.517
288.189
288.789
289.402
289.939
290.531
291.035
291.633
292.058
292.609
292.93
293.525
274.533
275.223
275.906
276.566
277.208
277.837
278.442
279.038
279.61
280.173
280.715
281.257
281.771
282.291
282.767
283.305
283.744
284.277
284.662
285.218
271.557
272.13
272.688
273.239
273.776
274.305
274.82
275.327
275.819
276.311
276.775
277.249
277.685
278.15
278.557
278.979
279.333
279.754
280.058
280.488
268.839
269.346
269.836
270.317
270.785
271.242
271.685
272.118
272.537
272.947
273.34
273.728
274.1
274.469
274.811
275.172
275.508
275.859
276.129
276.479
267.626
268.05
268.473
268.884
269.29
269.685
270.076
270.455
270.83
271.195
271.554
271.903
272.235
272.573
272.886
273.204
273.472
273.787
274.059
274.371
267.11
267.475
267.824
268.17
268.506
268.834
269.156
269.464
269.774
270.09
270.412
270.72
270.997
271.282
271.543
271.806
272.052
272.306
272.534
272.777
267.127
267.442
267.754
268.06
268.363
268.661
268.955
269.244
269.528
269.806
270.08
270.348
270.616
270.866
271.107
271.358
271.598
271.836
272.044
272.267
267.283
267.563
267.838
268.107
268.37
268.629
268.883
269.133
269.378
269.618
269.854
270.085
270.302
270.523
270.739
270.948
271.152
271.361
271.564
271.777
267.714
267.962
268.209
268.457
268.704
268.948
269.19
269.428
269.663
269.896
270.122
270.348
270.572
270.8
271.021
271.229
271.427
271.624
271.817
272
268.218
268.444
268.67
268.895
269.119
269.341
269.563
269.783
270.003
270.221
270.438
270.656
270.871
271.086
271.299
271.509
271.717
271.921
272.122
272.321
268.712
268.922
269.132
269.341
269.55
269.759
269.967
270.174
270.38
270.586
270.79
270.993
271.196
271.398
271.598
271.799
271.997
272.197
272.393
272.59
269.224
269.421
269.619
269.818
270.018
270.218
270.418
270.619
270.819
271.02
271.221
271.422
271.622
271.822
272.022
272.221
272.419
272.616
272.814
273.009
269.568
269.757
269.947
270.138
270.33
270.523
270.718
270.913
271.109
271.306
271.503
271.701
271.901
272.1
272.301
272.501
272.702
272.903
273.106
273.307
269.867
270.049
270.233
270.418
270.605
270.793
270.982
271.173
271.365
271.558
271.752
271.947
272.143
272.34
272.538
272.737
272.937
273.137
273.339
273.54
269.988
270.167
270.348
270.531
270.715
270.901
271.089
271.279
271.469
271.662
271.856
272.051
272.248
272.446
272.646
272.846
273.049
273.252
273.457
273.662
114.726
112.301
106.068
99.4798
93.3685
86.9219
80.1525
73.0437
65.4881
57.4644
48.8285
39.5626
29.5443
18.6438
6.92669
-6.11039
-20.0889
-35.5685
-53.5971
-63.8322
133.609
132.138
127.676
122.651
117.677
112.339
106.595
100.46
93.8713
86.7404
79.0684
70.7143
61.7103
51.8267
41.1834
29.3711
16.703
2.70458
-13.5223
-24.0204
154.764
154.511
151.27
147.033
142.877
138.309
133.338
127.975
122.159
115.899
109.071
101.689
93.6149
84.7845
75.2373
64.4975
53.1012
40.1189
25.6123
16.8254
176.258
176.259
173.513
170.06
166.633
162.878
158.744
154.272
149.378
144.007
138.118
131.63
124.516
116.639
108.025
98.3678
88.0622
76.3133
63.2103
55.7729
198.144
198.719
196.71
193.982
191.301
188.262
184.87
181.107
176.937
172.333
167.234
161.618
155.376
148.452
140.835
132.135
122.808
111.726
99.618
93.2147
219.921
220.674
218.973
216.767
214.589
212.15
209.378
206.35
202.943
199.163
194.918
190.179
184.865
178.909
172.232
164.616
156.335
146.424
135.303
128.692
240.862
241.951
240.91
239.349
237.855
236.078
234.041
231.695
229.019
225.985
222.544
218.676
214.289
209.353
203.77
197.328
190.254
181.492
171.961
164.589
261.544
262.869
262.166
261.098
260.053
258.781
257.268
255.542
253.54
251.252
248.62
245.614
242.157
238.211
233.65
228.41
222.538
215.286
207.551
199.896
281.262
282.75
282.334
281.783
281.261
280.569
279.687
278.626
277.313
275.774
273.919
271.773
269.21
266.261
262.742
258.69
253.97
248.224
242.404
234.516
300.105
301.699
301.723
301.623
301.593
301.404
301.062
300.57
299.887
299.006
297.866
296.451
294.686
292.537
289.913
286.876
283.218
278.992
274.224
267.617
317.199
319.023
319.519
319.914
320.355
320.683
320.874
320.947
320.837
320.575
320.052
319.317
318.224
316.853
315.049
312.876
310.159
306.996
303.187
298.23
333.323
335.376
336.339
337.199
338.11
338.905
339.599
340.172
340.609
340.872
340.929
340.763
340.317
339.612
338.51
337.131
335.205
332.886
329.773
325.72
348.127
350.334
351.635
352.862
354.131
355.322
356.429
357.449
358.337
359.093
359.665
360.067
360.218
360.147
359.731
359.019
357.782
356.212
353.876
350.623
361.684
364.147
365.883
367.547
369.245
370.873
372.413
373.86
375.194
376.404
377.46
378.354
379.024
379.48
379.603
379.463
378.829
377.835
376.058
373.489
374.007
376.622
378.653
380.63
382.629
384.573
386.444
388.261
389.981
391.615
393.095
394.443
395.558
396.496
397.101
397.459
397.269
396.81
395.544
393.607
385.327
388.18
390.493
392.783
395.088
397.345
399.542
401.673
403.721
405.655
407.474
409.136
410.633
411.916
412.922
413.64
413.889
413.862
413.049
411.684
395.488
398.424
400.874
403.336
405.838
408.292
410.715
413.084
415.393
417.62
419.747
421.744
423.569
425.204
426.578
427.714
428.456
429.048
428.832
428.339
404.517
407.573
410.138
412.764
415.431
418.066
420.674
423.242
425.759
428.192
430.541
432.752
434.843
436.746
438.481
439.975
441.24
442.228
442.791
443.022
412.043
415.201
417.858
420.622
423.427
426.213
428.981
431.721
434.417
437.047
439.598
442.053
444.366
446.535
448.462
450.185
451.527
452.623
453.133
453.344
418.53
421.657
424.365
427.196
430.088
432.96
435.835
438.688
441.511
444.282
446.983
449.582
452.063
454.359
456.481
458.287
459.832
460.823
461.515
461.404
-243.935
-254.66
-265.861
-277.908
-290.393
-303.728
-317.586
-332.182
-347.449
-363.486
-380.276
-397.929
-416.615
-436.308
-457.264
-479.713
-502.993
-523.802
-540.08
-543.658
-236.031
-246.755
-257.87
-269.938
-282.444
-295.841
-309.771
-324.492
-339.908
-356.101
-373.195
-391.188
-410.157
-430.239
-451.656
-474.428
-498.13
-520.972
-539.611
-543.788
-226.844
-237.62
-248.692
-260.776
-273.292
-286.734
-300.774
-315.588
-331.158
-347.595
-364.852
-383.066
-402.376
-422.84
-444.583
-467.658
-491.542
-515.774
-536.294
-539.742
-217.088
-227.871
-238.74
-250.783
-263.231
-276.61
-290.634
-305.476
-321.105
-337.567
-355.036
-373.494
-393.07
-413.915
-436.137
-459.831
-484.901
-511.902
-531.314
-534.652
-205.999
-216.719
-227.444
-239.38
-251.762
-265.083
-279.074
-293.872
-309.492
-326.057
-343.51
-362.024
-381.745
-402.741
-425.117
-449.22
-474.979
-502.324
-523.729
-527.96
-193.814
-204.518
-215.109
-226.924
-239.19
-252.347
-266.229
-280.927
-296.464
-312.866
-330.359
-348.86
-368.566
-389.565
-412.074
-436.278
-461.946
-489.753
-511.824
-516.672
-180.841
-191.392
-201.653
-213.209
-225.266
-238.207
-251.873
-266.357
-281.693
-298.013
-315.282
-333.658
-353.259
-374.178
-396.602
-420.684
-446.5
-474.363
-497.538
-503.529
-166.278
-176.71
-186.773
-198.086
-209.928
-222.603
-236.046
-250.297
-265.41
-281.412
-298.446
-316.563
-335.911
-356.553
-378.782
-402.629
-428.142
-455.966
-479.789
-486.508
-150.818
-161.087
-170.795
-181.787
-193.34
-205.684
-218.769
-232.659
-247.396
-263.103
-279.781
-297.582
-316.581
-336.905
-358.776
-382.17
-407.412
-434.828
-459.081
-466.674
-133.85
-143.893
-153.331
-163.952
-175.174
-187.147
-199.888
-213.416
-227.788
-243.053
-259.3
-276.63
-295.178
-315.016
-336.441
-359.394
-384.175
-411.14
-435.654
-443.897
-116.078
-125.9
-134.932
-145.154
-155.998
-167.526
-179.781
-192.809
-206.659
-221.429
-237.175
-254.022
-272.011
-291.313
-312.135
-334.348
-358.479
-384.909
-409.3
-418.154
-96.8617
-106.366
-115.038
-124.764
-135.154
-146.208
-157.998
-170.548
-183.901
-198.141
-213.295
-229.508
-246.884
-265.542
-285.711
-307.266
-330.907
-356.548
-380.952
-390.141
-76.8639
-86.0814
-94.3247
-103.571
-113.497
-124.017
-135.233
-147.18
-159.918
-173.507
-188.054
-203.655
-220.341
-238.312
-257.676
-278.389
-301.217
-325.488
-349.883
-359.332
-55.5819
-64.4272
-72.2496
-80.9227
-90.3025
-100.272
-110.919
-122.291
-134.409
-147.397
-161.231
-176.083
-192.02
-209.209
-227.777
-247.761
-269.772
-292.967
-317.35
-326.897
-33.4544
-41.9683
-49.3553
-57.4873
-66.3336
-75.7116
-85.7369
-96.4553
-107.932
-120.186
-133.349
-147.503
-162.675
-179.066
-196.718
-215.706
-236.542
-258.583
-282.633
-292.331
-10.2618
-18.4057
-25.3727
-32.9185
-41.1804
-49.9875
-59.3996
-69.497
-80.2812
-91.8893
-104.282
-117.638
-131.975
-147.515
-164.283
-182.416
-202.323
-223.431
-246.78
-256.661
13.4557
5.76322
-0.7089
-7.65458
-15.3357
-23.5244
-32.3012
-41.7355
-51.881
-62.731
-74.4158
-87.0125
-100.549
-115.236
-131.035
-148.148
-166.943
-186.919
-209.428
-219.417
37.8093
30.5651
24.6168
18.2829
11.1991
3.5621
-4.60935
-13.4163
-22.8475
-33.0268
-43.9262
-55.7157
-68.3678
-82.1453
-96.9505
-113.107
-130.779
-149.498
-171.278
-181.618
64.4366
56.8996
51.1618
45.3167
38.7105
31.5452
23.8956
15.6732
6.81803
-2.65512
-12.8652
-23.8626
-35.7103
-48.589
-62.425
-77.5808
-94.0683
-111.831
-132.452
-142.734
94.4259
87.0306
80.0623
73.7672
67.2211
60.1435
52.7151
44.8726
36.5584
27.6549
18.1716
7.92999
-3.02476
-14.976
-27.77
-41.8458
-57.1264
-73.5012
-92.9405
-103.453
105.224
105.068
103.148
100.783
97.8729
93.447
89.8553
83.8501
78.37
70.3137
61.99
50.9989
38.3247
23.1338
3.32683
-18.3803
-49.9169
-83.9929
-135.093
-192.169
105.455
105.388
103.549
101.106
98.402
93.9667
90.5666
84.6292
79.3109
71.3679
63.2398
52.4451
40.0471
25.1906
5.76891
-15.2773
-46.3547
-79.2288
-129.898
-184.797
105.683
105.733
103.97
101.459
98.9663
94.5197
91.297
85.4411
80.2735
72.4723
64.5371
53.9192
41.7943
27.2566
8.23102
-12.2127
-42.6228
-74.0886
-123.718
-176.241
105.917
106.022
104.385
101.835
99.5548
95.1031
92.0899
86.3244
81.3253
73.6572
65.9342
55.5208
43.7194
29.5047
10.9619
-8.84596
-38.5916
-68.8534
-117.596
-167.354
106.176
106.307
104.831
102.245
100.181
95.7267
92.9017
87.2478
82.4028
74.8919
67.3758
57.1495
45.6626
31.7617
13.7133
-5.48904
-34.3841
-63.1941
-110.482
-157.568
106.453
106.602
105.294
102.653
100.798
96.3764
93.772
88.2396
83.5639
76.2064
68.9155
58.9045
47.779
34.1991
16.7223
-1.85083
-29.9065
-57.4102
-103.258
-147.295
106.785
106.859
105.768
103.044
101.447
97.0552
94.6676
89.277
84.7562
77.57
70.4963
60.6855
49.9089
36.6435
19.753
1.79462
-25.2406
-51.2171
-95.1855
-136.097
107.147
107.167
106.261
103.516
102.41
97.7641
95.632
90.3841
86.026
79.0126
72.1722
62.5902
52.2045
39.2637
23.0287
5.69942
-20.3191
-44.8636
-86.8833
-124.452
107.553
107.518
106.985
104.102
103.419
98.5465
96.6275
91.5405
87.3291
80.502
73.8862
64.5209
54.5094
41.8902
26.323
9.623
-15.2121
-38.1419
-77.9141
-111.958
107.974
107.852
107.681
104.766
104.446
99.3645
97.661
92.7641
88.701
82.0694
75.6909
66.5702
56.9686
44.6853
29.8487
13.7844
-9.86256
-31.2228
-68.6224
-98.8695
108.435
108.175
108.344
105.357
105.502
100.31
98.7357
94.0159
90.1219
83.6814
77.5312
68.6463
59.4338
47.4878
33.3866
17.9702
-4.33578
-23.9875
-58.8489
-84.9801
108.903
108.498
108.997
105.946
106.491
101.397
99.957
95.3287
91.6235
85.3648
79.4549
70.8326
62.0368
50.4465
37.1376
22.3699
1.41495
-16.5452
-48.685
-70.3594
109.391
108.812
109.647
106.525
107.496
102.563
101.248
96.6877
93.1684
87.0816
81.4121
73.0477
64.6457
53.4192
40.8995
26.8043
7.34513
-8.83066
-38.1795
-55.0067
109.917
109.11
110.351
107.194
108.53
103.819
102.606
98.1464
94.7652
88.8676
83.447
75.3658
67.3764
56.536
44.8538
31.4275
13.4664
-0.958629
-27.3072
-38.8115
110.472
109.398
111.08
107.921
109.622
105.09
103.901
99.635
96.3861
90.6777
85.5058
77.7015
70.096
59.6495
48.7858
36.0489
19.7052
7.07842
-16.1318
-21.8099
111.033
109.659
111.817
108.69
110.716
106.377
105.24
101.177
98.0423
92.5522
87.629
80.1236
72.9125
62.8941
52.8952
40.8722
26.1876
15.3604
-4.34797
-3.70602
111.639
109.905
112.631
109.52
111.86
107.635
106.668
102.757
99.7707
94.496
89.837
82.6458
75.8328
66.288
57.1601
45.9211
33.0106
23.8933
7.5963
14.5268
112.361
110.214
113.553
110.384
113.043
108.925
108.138
104.352
101.522
96.4727
92.0731
85.1847
78.7391
69.6304
61.3368
50.7539
39.3317
31.722
18.8942
33.2874
112.861
110.446
113.991
111.21
114.063
109.999
109.445
105.787
103.075
98.2188
94.0129
87.3273
81.0873
72.3357
64.7369
54.7455
44.8508
39.1473
31.8969
57.5028
113.798
110.462
114.484
112.276
115.362
111.426
110.996
107.494
105.022
100.451
96.535
90.2954
84.5418
76.632
70.1473
61.4955
54.5204
50.9865
51.3567
83.0172
129.4
120.723
126.832
123.334
126.057
123.476
124.221
121.63
121.464
119.063
118.504
116.789
117.332
116.713
119.217
119.664
128.235
130.583
148.39
138.425
134.171
132.064
134.178
132.711
134.624
133.98
134.854
134.926
135.53
136.238
137.77
139.384
142.431
145.286
151.488
156.5
168.339
177.086
201.374
212.227
153.978
153.907
153.538
154.579
154.918
155.475
156.733
157.399
159.475
161.052
163.782
166.396
170.414
174.948
181.381
188.784
199.216
210.132
225.156
239.441
161.228
161.508
161.961
162.951
164.028
165.791
167.548
170.013
172.62
175.584
179.238
183.323
188.425
193.874
200.873
207.889
217.386
226.46
240.055
251.277
173.711
173.866
175.003
176.718
178.618
180.377
182.663
184.846
187.654
190.503
194.04
197.8
202.236
207.206
212.845
219.26
226.318
234.122
242.517
251.259
181.917
182.541
183.575
185.344
187.258
189.602
192.051
194.794
197.722
200.954
204.601
208.462
212.946
217.559
222.906
228.285
234.511
240.647
248.13
254.563
191.342
192.058
193.698
195.697
198.153
200.216
202.922
205.202
208.192
210.958
214.236
217.528
221.233
225.098
229.297
233.71
238.405
243.23
247.775
252.695
198.324
199.054
201.232
203.281
205.898
208.056
210.724
213.106
215.916
218.527
221.621
224.587
228.004
231.295
235.046
238.592
242.661
246.74
251.28
254.863
207.355
208.096
210.786
212.513
215.271
217.116
219.615
221.584
224.052
226.257
228.844
231.315
234.054
236.788
239.724
242.702
245.794
248.496
251.381
254.422
215.111
215.407
218.944
220.351
223.019
224.624
226.803
228.525
230.615
232.498
234.66
236.716
239.048
241.262
243.745
246.068
248.723
251.324
254.002
256.137
228.391
226.607
230.446
230.65
232.678
233.618
235.156
236.31
237.849
239.197
240.848
242.39
244.184
245.902
247.855
249.733
251.749
253.482
255.5
257.28
243.206
241.729
240.773
240.981
241.256
241.719
242.239
242.966
243.774
244.724
245.792
246.927
248.225
249.525
251.017
252.421
254.066
255.546
257.319
258.788
254.197
253.741
250.707
250.807
249.549
249.554
249.256
249.446
249.711
250.13
250.786
251.455
252.385
253.273
254.387
255.429
256.684
257.793
259.13
260.265
263.265
261.988
259.451
257.152
256.345
255.04
254.737
254.146
254.241
254.184
254.566
254.888
255.509
256.103
256.922
257.7
258.678
259.572
260.66
261.625
269.412
265.712
264.233
262.144
260.873
259.696
258.961
258.378
258.085
257.903
257.982
258.111
258.463
258.846
259.414
259.975
260.705
261.395
262.254
263.016
275.542
266.275
265.357
263.557
262.825
261.667
261.187
260.509
260.331
260.023
260.081
260.096
260.372
260.628
261.087
261.536
262.13
262.706
263.42
264.088
271.007
268.137
266.949
265.576
264.862
263.91
263.392
262.765
262.527
262.226
262.149
262.095
262.2
262.368
262.669
263.02
263.48
263.952
264.536
265.107
274.802
266.588
266.489
265.556
265.113
264.375
264.076
263.556
263.366
263.102
263.101
263.061
263.22
263.348
263.623
263.895
264.297
264.719
265.236
265.765
267.928
266.772
266.581
266.001
265.632
265.136
264.803
264.458
264.235
264.016
263.937
263.878
263.97
264.101
264.327
264.596
264.942
265.332
265.796
266.289
272.467
266.8
266.548
265.949
265.677
265.223
264.984
264.653
264.508
264.324
264.3
264.232
264.336
264.426
264.633
264.879
265.211
265.584
266.025
266.507
178.946
195.352
210.921
227.084
241.738
256.533
269.967
283.139
295.308
306.712
317.661
327.851
337.016
345.847
353.639
360.911
367.313
373.029
378.118
382.464
243.429
254.26
263.838
272.602
280.088
286.418
292.639
298.344
304.389
309.475
315.229
321.04
325.968
330.558
334.729
338.734
342.366
345.723
348.77
351.5
253.779
257.862
262.235
265.917
269.924
273.443
277.123
280.987
285.413
289.401
293.015
296.256
299.231
301.915
304.626
306.91
309.336
311.457
313.583
315.519
260.972