/*--------------------------------*- C++ -*----------------------------------*\
  =========                 |
  \\      /  F ield         | OpenFOAM: The Open Source CFD Toolbox
   \\    /   O peration     | Website:  https://openfoam.org
    \\  /    A nd           | Version:  9
     \\/     M anipulation  |
\*---------------------------------------------------------------------------*/
FoamFile
{
    format      ascii;
    class       surfaceScalarField;
    location    "17";
    object      phi;
}
// * * * * * * * * * * * * * * * * * * * * * * * * * * * * * * * * * * * * * //

dimensions      [0 3 -1 0 0 0 0];

internalField   nonuniform List<scalar> 
92080
(
-0.00178745
-0.419232
0.421019
-0.0244987
-0.84209
0.864801
-0.0631037
-0.916563
0.955168
-0.103308
-0.901092
0.941297
-0.142715
-0.887088
0.926495
-0.181601
-0.873631
0.912517
-0.219912
-0.861399
0.89971
-0.2577
-0.84865
0.886438
-0.295257
-0.837551
0.875108
-0.332357
-0.826996
0.864096
-0.369222
-0.816938
0.853803
-0.406242
-0.807553
0.844573
-0.442223
-0.800182
0.836162
-0.477759
-0.791763
0.827299
-0.513075
-0.784143
0.819458
-0.54906
-0.777148
0.813133
-0.584995
-0.771543
0.807479
-0.618992
-0.76546
0.799457
-0.650794
-0.759428
0.79123
-0.753633
0.782341
-0.679502
-0.00350038
-0.415731
-0.0304103
-0.81518
-0.0732308
-0.873743
-0.115613
-0.85871
-0.157287
-0.845414
-0.198672
-0.832247
-0.239257
-0.820813
-0.279141
-0.808766
-0.318543
-0.79815
-0.357717
-0.787821
-0.396312
-0.778343
-0.434835
-0.76903
-0.473454
-0.761563
-0.511436
-0.753781
-0.549482
-0.746097
-0.58675
-0.73988
-0.624182
-0.734111
-0.662309
-0.727334
-0.699193
-0.722544
-0.718818
-0.734008
-0.00654984
-0.409182
-0.0373339
-0.784396
-0.0802254
-0.830851
-0.123639
-0.815297
-0.166017
-0.803036
-0.20778
-0.790483
-0.249497
-0.779096
-0.290887
-0.767376
-0.331609
-0.757428
-0.371541
-0.74789
-0.411311
-0.738572
-0.450854
-0.729487
-0.490023
-0.722394
-0.528208
-0.715597
-0.566102
-0.708203
-0.604582
-0.701399
-0.641133
-0.69756
-0.676712
-0.691755
-0.713644
-0.685612
-0.680508
-0.751954
-0.00756113
-0.401621
-0.044165
-0.747792
-0.0891798
-0.785836
-0.134165
-0.770311
-0.179342
-0.75786
-0.223877
-0.745948
-0.267314
-0.735659
-0.310704
-0.723986
-0.353985
-0.714147
-0.396449
-0.705426
-0.437549
-0.697472
-0.478427
-0.688609
-0.519492
-0.681329
-0.560186
-0.674902
-0.599493
-0.668896
-0.639702
-0.661191
-0.68131
-0.655953
-0.720987
-0.652077
-0.758878
-0.647721
-0.643233
-0.796153
-0.00660211
-0.395018
-0.0461364
-0.708258
-0.0932343
-0.738739
-0.139614
-0.723932
-0.18483
-0.712643
-0.229839
-0.700939
-0.274238
-0.69126
-0.317887
-0.680337
-0.361701
-0.670333
-0.405336
-0.661791
-0.448304
-0.654505
-0.48996
-0.646953
-0.531224
-0.640065
-0.572286
-0.63384
-0.612201
-0.62898
-0.650155
-0.623237
-0.689091
-0.617017
-0.729429
-0.611739
-0.76984
-0.60731
-0.603369
-0.809704
-0.00522045
-0.389798
-0.0476957
-0.665783
-0.0972253
-0.689209
-0.146913
-0.674244
-0.196284
-0.663272
-0.244657
-0.652566
-0.291864
-0.644053
-0.338172
-0.634029
-0.384257
-0.624248
-0.430577
-0.615471
-0.47627
-0.608811
-0.521112
-0.602111
-0.565054
-0.596123
-0.609288
-0.589606
-0.653501
-0.584768
-0.696197
-0.580541
-0.736571
-0.576643
-0.77605
-0.572261
-0.815264
-0.568096
-0.564509
-0.854123
-0.00181919
-0.387979
-0.0461511
-0.621451
-0.0998667
-0.635493
-0.150522
-0.623589
-0.199624
-0.61417
-0.248251
-0.60394
-0.295781
-0.596523
-0.341563
-0.588247
-0.386441
-0.57937
-0.431395
-0.570518
-0.477404
-0.562802
-0.52322
-0.556295
-0.567283
-0.55206
-0.609883
-0.547006
-0.653091
-0.54156
-0.696972
-0.53666
-0.740966
-0.532649
-0.783944
-0.529282
-0.826381
-0.525658
-0.522838
-0.868053
-0.00292466
-0.385054
-0.0513475
-0.573028
-0.106557
-0.580283
-0.161068
-0.569079
-0.21418
-0.561057
-0.265345
-0.552774
-0.315947
-0.545921
-0.364804
-0.539389
-0.412152
-0.532022
-0.457687
-0.524983
-0.502638
-0.517851
-0.549742
-0.509191
-0.598513
-0.503289
-0.645824
-0.499694
-0.691351
-0.496033
-0.736031
-0.49198
-0.780754
-0.487926
-0.825193
-0.484844
-0.869346
-0.481505
-0.479364
-0.912821
-0.00671938
-0.378335
-0.0566331
-0.523114
-0.112768
-0.524148
-0.165557
-0.51629
-0.218342
-0.508272
-0.270327
-0.50079
-0.321515
-0.494734
-0.371483
-0.48942
-0.420294
-0.483211
-0.467915
-0.477362
-0.512439
-0.473327
-0.554365
-0.467265
-0.597291
-0.460363
-0.64215
-0.454835
-0.687239
-0.450945
-0.731614
-0.447604
-0.775671
-0.44387
-0.819689
-0.440825
-0.863835
-0.437359
-0.434718
-0.90848
-0.0167665
-0.361568
-0.0698575
-0.470023
-0.125931
-0.468074
-0.181291
-0.46093
-0.234814
-0.45475
-0.287352
-0.448252
-0.33985
-0.442235
-0.391413
-0.437858
-0.442329
-0.432295
-0.493251
-0.426441
-0.544028
-0.42255
-0.59269
-0.418603
-0.638794
-0.414258
-0.68377
-0.409859
-0.729213
-0.405501
-0.774425
-0.402392
-0.818908
-0.399387
-0.862722
-0.397011
-0.905796
-0.394285
-0.391734
-0.948781
-0.02301
-0.338558
-0.0756274
-0.417406
-0.130613
-0.413089
-0.183183
-0.40836
-0.236087
-0.401846
-0.287295
-0.397043
-0.33821
-0.391321
-0.388478
-0.38759
-0.437153
-0.383619
-0.486144
-0.37745
-0.535108
-0.373585
-0.584292
-0.369419
-0.633383
-0.365167
-0.68164
-0.361602
-0.7291
-0.358042
-0.776754
-0.354738
-0.824292
-0.35185
-0.871612
-0.34969
-0.918248
-0.347649
-0.345758
-0.964224
-0.0334217
-0.305136
-0.0898614
-0.360966
-0.148777
-0.354172
-0.205679
-0.351459
-0.261514
-0.346011
-0.316431
-0.342126
-0.37012
-0.337631
-0.424049
-0.333662
-0.475324
-0.332345
-0.52463
-0.328144
-0.573507
-0.324709
-0.620642
-0.322284
-0.667016
-0.318793
-0.712814
-0.315804
-0.758329
-0.312527
-0.803086
-0.309981
-0.848086
-0.306849
-0.893006
-0.30477
-0.93814
-0.302515
-0.300952
-0.982946
-0.0374609
-0.267676
-0.089749
-0.308678
-0.143609
-0.300313
-0.19848
-0.296588
-0.251684
-0.292806
-0.304613
-0.289198
-0.356363
-0.285881
-0.409101
-0.280924
-0.462695
-0.27875
-0.514604
-0.276235
-0.566893
-0.27242
-0.618668
-0.270509
-0.669747
-0.267713
-0.719648
-0.265903
-0.768785
-0.26339
-0.817055
-0.261711
-0.864421
-0.259483
-0.911369
-0.257823
-0.957745
-0.256139
-0.25474
-1.00396
-0.0453251
-0.222351
-0.103849
-0.250154
-0.161206
-0.242956
-0.216225
-0.241569
-0.272924
-0.236108
-0.328262
-0.233859
-0.381525
-0.232618
-0.432805
-0.229645
-0.48461
-0.226944
-0.535191
-0.225655
-0.585155
-0.222456
-0.634811
-0.220853
-0.684201
-0.218323
-0.733484
-0.21662
-0.782339
-0.214535
-0.830909
-0.213141
-0.878928
-0.211464
-0.926557
-0.210194
-0.973847
-0.208849
-0.207786
-1.0208
-0.0566204
-0.16573
-0.114127
-0.192647
-0.169272
-0.187811
-0.223648
-0.187193
-0.276768
-0.182989
-0.332218
-0.178408
-0.387357
-0.177479
-0.441145
-0.175857
-0.494269
-0.17382
-0.546805
-0.173118
-0.597786
-0.171475
-0.648456
-0.170183
-0.697912
-0.168867
-0.747147
-0.167385
-0.795696
-0.165986
-0.844102
-0.164735
-0.892011
-0.163555
-0.939613
-0.162592
-0.98672
-0.161741
-0.160946
-1.03356
-0.0587604
-0.10697
-0.11599
-0.135418
-0.174951
-0.128849
-0.233873
-0.128271
-0.28617
-0.130692
-0.338442
-0.126137
-0.391629
-0.124293
-0.444245
-0.12324
-0.496884
-0.121181
-0.549577
-0.120425
-0.601924
-0.119128
-0.653902
-0.118205
-0.705114
-0.117655
-0.75569
-0.116809
-0.805483
-0.116192
-0.854828
-0.11539
-0.903515
-0.114869
-0.951954
-0.114153
-0.999865
-0.11383
-0.113378
-1.04743
-0.0471203
-0.0598494
-0.101459
-0.0810788
-0.157288
-0.0730208
-0.217709
-0.0678492
-0.278811
-0.0695899
-0.335597
-0.0693505
-0.391454
-0.0684355
-0.446275
-0.0684193
-0.500077
-0.0673788
-0.553156
-0.0673472
-0.605556
-0.0667279
-0.657488
-0.0662735
-0.709053
-0.0660899
-0.759757
-0.0661048
-0.810023
-0.0659264
-0.859491
-0.0659222
-0.908547
-0.0658132
-0.956901
-0.0657986
-1.00489
-0.0658362
-0.0658942
-1.05238
-0.055752
-0.00409738
-0.124514
-0.0123172
-0.181884
-0.0156508
-0.235508
-0.0142246
-0.292642
-0.0124563
-0.349036
-0.0129561
-0.405195
-0.0122765
-0.46063
-0.012984
-0.514753
-0.0132567
-0.568023
-0.0140762
-0.619974
-0.0147773
-0.671321
-0.0149267
-0.722286
-0.0151244
-0.772694
-0.0156969
-0.822531
-0.0160893
-0.87179
-0.0166636
-0.920445
-0.0171578
-0.968657
-0.0175866
-1.01635
-0.0181387
-0.0184852
-1.06376
-0.0528876
0.0487902
-0.119683
0.0544785
-0.181746
0.0464118
-0.237453
0.0414823
-0.292333
0.0424235
-0.346123
0.0408344
-0.399883
0.0414835
-0.4536
0.040733
-0.506838
0.0399812
-0.56018
0.039266
-0.613441
0.0384836
-0.665939
0.0375708
-0.717875
0.036812
-0.769454
0.0358817
-0.820238
0.034695
-0.870739
0.0338377
-0.920372
0.0324746
-0.969697
0.0317383
-1.01827
0.030432
0.0297911
-1.06654
-0.0495929
0.0983831
-0.101176
0.106062
-0.163225
0.10846
-0.224818
0.103076
-0.284841
0.102446
-0.343745
0.0997383
-0.400836
0.0985747
-0.456607
0.0965036
-0.511892
0.0952668
-0.566584
0.0939574
-0.620611
0.0925107
-0.673374
0.0903343
-0.725144
0.0885814
-0.776197
0.0869349
-0.826666
0.0851646
-0.876594
0.0837649
-0.926074
0.0819549
-0.974742
0.0804062
-1.02298
0.0786734
-1.07027
0.0770742
-0.00138987
0.124646
-0.123256
0.0479316
0.0751436
-0.124465
0.165304
-0.093474
-0.023898
0.402429
-0.472214
0.235089
0.609268
-0.832397
0.625557
0.730009
-1.03643
0.91569
0.779692
-1.11568
1.06599
0.800339
-1.14109
1.12045
0.80892
-1.14708
1.1385
0.811702
-1.14562
1.14284
0.813292
-1.14277
1.14119
0.81527
-1.14017
1.13819
0.816913
-1.13882
1.13717
0.818906
-1.13769
1.13569
0.821306
-1.1375
1.1351
0.823016
-1.13535
1.13364
0.82468
-1.13458
1.13292
0.82726
-1.13458
1.132
0.830477
-1.13678
1.13356
-1.13685
0.83188
1.13545
0.0152872
0.109359
0.0831212
0.00730956
0.251852
-0.262204
0.468488
-0.68885
0.609791
-0.973699
0.674739
-1.10138
0.699726
-1.14066
0.709081
-1.15045
0.712047
-1.15004
0.713194
-1.14677
0.71419
-1.14377
0.715454
-1.14143
0.71727
-1.14063
0.71917
-1.13959
0.719904
-1.13823
0.720365
-1.13581
0.721214
-1.13543
0.722298
-1.13566
0.723131
-1.13761
-1.13604
0.722315
0.0367285
0.0726301
0.119756
-0.0757176
0.312342
-0.454791
0.479793
-0.856301
0.570439
-1.06435
0.604349
-1.13529
0.616467
-1.15278
0.620197
-1.15418
0.621568
-1.15141
0.622248
-1.14745
0.623132
-1.14465
0.624129
-1.14243
0.624559
-1.14106
0.624109
-1.13914
0.623102
-1.13723
0.62214
-1.13484
0.621524
-1.13482
0.62149
-1.13563
0.620787
-1.13691
-1.13314
0.61789
0.0530138
0.0196163
0.155783
-0.178487
0.336367
-0.635376
0.454634
-0.974568
0.505652
-1.11536
0.523068
-1.1527
0.528589
-1.1583
0.530677
-1.15627
0.530651
-1.15139
0.530815
-1.14761
0.530417
-1.14426
0.529507
-1.14152
0.528309
-1.13986
0.526981
-1.13781
0.525364
-1.13561
0.523773
-1.13325
0.522566
-1.13361
0.521073
-1.13414
0.518176
-1.13401
-1.12757
0.512607
0.0468288
-0.0272125
0.174616
-0.306273
0.323271
-0.784031
0.405834
-1.05713
0.435424
-1.14495
0.444411
-1.16169
0.447283
-1.16118
0.446874
-1.15586
0.446266
-1.15078
0.44513
-1.14648
0.443528
-1.14265
0.441879
-1.13987
0.439948
-1.13793
0.437299
-1.13516
0.433862
-1.13217
0.430205
-1.1296
0.42636
-1.12977
0.421837
-1.12961
0.415836
-1.12801
-1.1185
0.406767
0.0441923
-0.0714048
0.174278
-0.436359
0.28536
-0.895113
0.338706
-1.11048
0.355687
-1.16193
0.360924
-1.16693
0.362271
-1.16252
0.361907
-1.15549
0.361264
-1.15014
0.359825
-1.14504
0.357696
-1.14053
0.35487
-1.13704
0.351063
-1.13413
0.346394
-1.13049
0.341266
-1.12705
0.335949
-1.12428
0.330196
-1.12401
0.323732
-1.12315
0.315126
-1.11941
-1.10755
0.304171
0.0443882
-0.115793
0.157974
-0.549946
0.24459
-0.981729
0.280306
-1.14619
0.29067
-1.1723
0.294043
-1.1703
0.293281
-1.16176
0.291739
-1.15395
0.288836
-1.14723
0.284907
-1.14111
0.280157
-1.13577
0.274758
-1.13165
0.269045
-1.12841
0.262921
-1.12436
0.25597
-1.12009
0.248625
-1.11693
0.240741
-1.11613
0.231459
-1.11387
0.22001
-1.10796
-1.09515
0.207615
0.0439248
-0.159718
0.140937
-0.646958
0.204146
-1.04494
0.224394
-1.16644
0.228013
-1.17592
0.226842
-1.16913
0.223868
-1.15879
0.220199
-1.15028
0.215774
-1.14281
0.210403
-1.13574
0.204474
-1.12985
0.198058
-1.12523
0.190698
-1.12105
0.182462
-1.11613
0.173719
-1.11135
0.164062
-1.10728
0.153616
-1.10568
0.142559
-1.10281
0.130086
-1.09549
-1.08262
0.117551
0.0480914
-0.207809
0.124308
-0.723175
0.167931
-1.08856
0.176379
-1.17489
0.175684
-1.17522
0.171195
-1.16464
0.16603
-1.15362
0.159903
-1.14415
0.152665
-1.13557
0.144683
-1.12776
0.135814
-1.12098
0.126059
-1.11547
0.115903
-1.1109
0.105265
-1.10549
0.0939359
-1.10002
0.0824106
-1.09575
0.070218
-1.09349
0.0571006
-1.08969
0.0433418
-1.08173
-1.06905
0.0297722
0.0467563
-0.254565
0.106107
-0.782526
0.133233
-1.11569
0.134088
-1.17574
0.12873
-1.16986
0.121276
-1.15719
0.113128
-1.14547
0.103932
-1.13496
0.0940679
-1.12571
0.0832907
-1.11698
0.0722181
-1.1099
0.0608135
-1.10407
0.0487981
-1.09888
0.0363827
-1.09307
0.0234843
-1.08712
0.00931258
-1.08158
-0.00545048
-1.07873
-0.0202872
-1.07486
-0.0349185
-1.0671
-1.05463
-0.0493383
0.0398661
-0.294432
0.0849857
-0.827645
0.1007
-1.1314
0.0952368
-1.17028
0.0852514
-1.15988
0.0745058
-1.14644
0.0631464
-1.13411
0.0512883
-1.1231
0.0386567
-1.11308
0.0255174
-1.10384
0.0115433
-1.09593
-0.00316867
-1.08936
-0.0181124
-1.08394
-0.0335633
-1.07762
-0.0493425
-1.07134
-0.0651814
-1.06574
-0.0818055
-1.0621
-0.0985391
-1.05812
-0.114838
-1.0508
-1.03867
-0.130795
0.0336384
-0.32807
0.0717986
-0.865805
0.0754158
-1.13502
0.0645343
-1.1594
0.0510579
-1.1464
0.0373448
-1.13273
0.0228493
-1.11962
0.00768825
-1.10794
-0.00788844
-1.0975
-0.0242776
-1.08745
-0.0408242
-1.07938
-0.0578647
-1.07232
-0.0753749
-1.06643
-0.0925617
-1.06044
-0.110147
-1.05376
-0.12879
-1.0471
-0.147878
-1.04301
-0.166887
-1.03911
-0.185383
-1.0323
-1.0205
-0.203548
0.0233487
-0.351419
0.0458605
-0.888317
0.0443484
-1.13351
0.0299675
-1.14502
0.0135447
-1.12998
-0.00325083
-1.11593
-0.0204964
-1.10237
-0.0382473
-1.09019
-0.0563888
-1.07936
-0.0748777
-1.06896
-0.0940812
-1.06018
-0.113508
-1.05289
-0.133264
-1.04667
-0.153596
-1.0401
-0.17339
-1.03397
-0.19332
-1.02717
-0.214257
-1.02208
-0.235154
-1.01822
-0.254812
-1.01264
-1.00158
-0.273735
0.0230361
-0.374455
0.0393955
-0.904677
0.0281035
-1.12221
0.00957421
-1.12649
-0.0103918
-1.11001
-0.030438
-1.09589
-0.0509285
-1.08188
-0.0718592
-1.06926
-0.0931833
-1.05803
-0.11504
-1.0471
-0.137132
-1.03809
-0.159952
-1.03007
-0.18273
-1.02389
-0.205006
-1.01783
-0.227716
-1.01126
-0.250542
-1.00434
-0.273991
-0.998628
-0.298073
-0.994134
-0.321316
-0.9894
-0.979511
-0.343387
0.0153505
-0.389805
0.0223323
-0.911658
0.0051166
-1.105
-0.0176759
-1.1037
-0.0406099
-1.08708
-0.0641428
-1.07236
-0.0876821
-1.05834
-0.111483
-1.04546
-0.135221
-1.0343
-0.159209
-1.02312
-0.183566
-1.01373
-0.207948
-1.00569
-0.233264
-0.998579
-0.258803
-0.99229
-0.283515
-0.986543
-0.308843
-0.979016
-0.335034
-0.972437
-0.361568
-0.9676
-0.387071
-0.963898
-0.955203
-0.411379
0.013681
-0.403486
0.0159962
-0.913974
-0.00566101
-1.08334
-0.032266
-1.07709
-0.0588942
-1.06045
-0.0852411
-1.04601
-0.11186
-1.03172
-0.138664
-1.01865
-0.165678
-1.00728
-0.192724
-0.99607
-0.220166
-0.986289
-0.248102
-0.977752
-0.275688
-0.970993
-0.303626
-0.964353
-0.331335
-0.958833
-0.358061
-0.95229
-0.385638
-0.944861
-0.414099
-0.939139
-0.441578
-0.936418
-0.929306
-0.467475
0.00819503
-0.411681
0.00328815
-0.909067
-0.023514
-1.05654
-0.0532108
-1.04739
-0.082825
-1.03084
-0.11253
-1.0163
-0.141864
-1.00239
-0.171488
-0.989029
-0.200939
-0.97783
-0.230556
-0.966453
-0.260055
-0.956791
-0.289892
-0.947914
-0.32087
-0.940016
-0.351914
-0.933308
-0.383036
-0.927711
-0.413756
-0.92157
-0.44363
-0.914987
-0.474622
-0.908147
-0.506217
-0.904823
-0.899576
-0.535946
0.00609841
-0.41778
-0.00380183
-0.899166
-0.0345067
-1.02583
-0.0670135
-1.01489
-0.0991181
-0.998731
-0.131175
-0.984246
-0.163212
-0.970354
-0.19521
-0.957031
-0.227385
-0.945655
-0.259466
-0.934372
-0.292157
-0.9241
-0.324584
-0.915487
-0.356961
-0.907638
-0.390547
-0.899722
-0.423903
-0.894356
-0.457084
-0.888389
-0.489918
-0.882153
-0.522237
-0.875828
-0.556086
-0.870975
-0.866097
-0.589566
0.00312041
-0.4209
-0.011251
-0.884795
-0.0449356
-0.992149
-0.0808133
-0.97901
-0.116003
-0.963542
-0.150831
-0.949418
-0.185202
-0.935984
-0.219766
-0.922467
-0.254187
-0.911233
-0.288536
-0.900023
-0.322842
-0.889794
-0.358103
-0.880226
-0.39341
-0.872331
-0.429178
-0.863955
-0.466075
-0.857459
-0.502312
-0.852152
-0.538956
-0.845509
-0.576316
-0.838469
-0.61486
-0.83243
-0.827219
-0.653737
0.000119171
-0.0198746
-0.0568555
-0.0945684
-0.131615
-0.168516
-0.20479
-0.240819
-0.276944
-0.312871
-0.348862
-0.384515
-0.420684
-0.457339
-0.495339
-0.534359
-0.572388
-0.6114
-0.6526
-0.697479
0.699834
-9.90349
10.0355
0.589912
-9.54457
9.65449
0.510001
-9.70449
9.7844
0.436965
-9.57107
9.6441
0.373047
-9.61347
9.67738
0.314932
-9.52032
9.57843
0.266552
-9.48122
9.5296
0.224664
-9.41591
9.4578
0.188379
-9.34918
9.38546
0.156639
-9.30098
9.33272
0.129527
-9.25817
9.28528
0.105241
-9.2158
9.24008
0.0854233
-9.18429
9.2041
0.067183
-9.14453
9.16277
0.0540101
-9.12681
9.13999
0.0404721
-9.07414
9.08768
0.0325755
-8.84334
8.85123
0.0227518
-7.84089
7.85071
0.0138657
-5.5627
5.57158
-2.36996
2.38382
0.596568
-9.77774
0.499465
-9.44746
0.424131
-9.62916
0.354669
-9.50161
0.297496
-9.55629
0.244427
-9.46725
0.200863
-9.43765
0.163858
-9.3789
0.132669
-9.31799
0.106019
-9.27433
0.0840955
-9.23624
0.0650669
-9.19677
0.0505913
-9.16981
0.0377659
-9.1317
0.0300031
-9.11905
0.0210253
-9.06516
0.0185756
-8.84089
0.0153678
-7.83768
0.0123335
-5.55966
-2.35762
0.497015
-9.65687
0.405495
-9.35594
0.334532
-9.55819
0.269587
-9.43666
0.216679
-9.50339
0.169295
-9.41986
0.132543
-9.4009
0.101676
-9.34804
0.0762145
-9.29253
0.0550683
-9.25318
0.0384764
-9.21965
0.0246484
-9.18294
0.0154348
-9.1606
0.00798993
-9.12426
0.00593055
-9.11699
0.00174632
-9.06098
0.00502422
-8.84417
0.00909389
-7.84175
0.0116015
-5.56217
-2.34602
0.398653
-9.54291
0.312583
-9.26987
0.246569
-9.49218
0.188599
-9.37869
0.143013
-9.4578
0.100391
-9.37724
0.0684488
-9.36896
0.0422353
-9.32182
0.0216441
-9.27193
0.00531322
-9.23685
-0.00632792
-9.20801
-0.015103
-9.17416
-0.0191788
-9.15652
-0.0213227
-9.12211
-0.0180611
-9.12025
-0.0174888
-9.06155
-0.00856681
-8.85309
0.0018616
-7.85218
0.00977893
-5.57009
-2.33624
0.30403
-9.44017
0.227437
-9.19328
0.163651
-9.42839
0.106597
-9.32164
0.0635122
-9.41472
0.0261116
-9.33984
0.000387022
-9.34324
-0.0197112
-9.30172
-0.0345784
-9.25707
-0.0454254
-9.22601
-0.0517648
-9.20167
-0.0553781
-9.17055
-0.0542859
-9.15761
-0.0511657
-9.12523
-0.0424156
-9.129
-0.0368106
-9.06715
-0.0220842
-8.86781
-0.00505416
-7.86921
0.0082981
-5.58344
-2.32795
0.209241
-9.34524
0.135056
-9.1191
0.0746695
-9.36801
0.0265069
-9.27347
-0.00826572
-9.37994
-0.0406022
-9.3075
-0.0615312
-9.32231
-0.0774323
-9.28582
-0.0877388
-9.24676
-0.0940665
-9.21968
-0.0957094
-9.20003
-0.0945177
-9.17174
-0.088523
-9.16361
-0.0804627
-9.1333
-0.0667049
-9.14276
-0.0561921
-9.07767
-0.0353361
-8.88867
-0.012056
-7.89249
0.00637332
-5.60187
-2.32157
0.116644
-9.25427
0.0540039
-9.05646
-0.00349417
-9.31051
-0.052462
-9.22451
-0.0860242
-9.34638
-0.11356
-9.27997
-0.128608
-9.30726
-0.138701
-9.27573
-0.143322
-9.24214
-0.144261
-9.21874
-0.14066
-9.20363
-0.134402
-9.178
-0.123385
-9.17463
-0.11034
-9.14634
-0.0913721
-9.16173
-0.0755646
-9.09347
-0.0485299
-8.9157
-0.0191296
-7.92189
0.00431027
-5.62531
-2.31726
0.0284477
-9.16517
-0.0363899
-8.99162
-0.088472
-9.25843
-0.128973
-9.18401
-0.155158
-9.3202
-0.177637
-9.25749
-0.188539
-9.29636
-0.194508
-9.26976
-0.194855
-9.24179
-0.191551
-9.22204
-0.18349
-9.21169
-0.172672
-9.18882
-0.157026
-9.19027
-0.139375
-9.16399
-0.115742
-9.18536
-0.0948446
-9.11437
-0.0616532
-8.9489
-0.0263359
-7.95721
0.00205737
-5.6537
-2.3152
-0.058899
-9.0765
-0.118533
-8.93199
-0.16755
-9.20941
-0.208419
-9.14314
-0.231947
-9.29667
-0.249007
-9.24043
-0.25439
-9.29097
-0.254659
-9.26949
-0.249381
-9.24707
-0.240828
-9.2306
-0.227629
-9.22489
-0.21185
-9.2046
-0.191378
-9.21075
-0.168978
-9.18639
-0.14043
-9.21391
-0.114067
-9.14073
-0.0747244
-8.98824
-0.0336002
-7.99833
-0.000219722
-5.68708
-2.31542
-0.138956
-8.98688
-0.199111
-8.87183
-0.243149
-9.16537
-0.278429
-9.10786
-0.297588
-9.27751
-0.310249
-9.22777
-0.311967
-9.28926
-0.308415
-9.27304
-0.299092
-9.25639
-0.286526
-9.24316
-0.269082
-9.24233
-0.248943
-9.22474
-0.224103
-9.23559
-0.197433
-9.21306
-0.164624
-9.24672
-0.133165
-9.17219
-0.0878072
-9.0336
-0.040687
-8.04545
-0.00225248
-5.72552
-2.31768
-0.22155
-8.89612
-0.282698
-8.81068
-0.324891
-9.12318
-0.358305
-9.07444
-0.37297
-9.26284
-0.379799
-9.22094
-0.37613
-9.29292
-0.367027
-9.28215
-0.352173
-9.27125
-0.334498
-9.26084
-0.312083
-9.26475
-0.287085
-9.24973
-0.257595
-9.26508
-0.226387
-9.24427
-0.18895
-9.28416
-0.152106
-9.20904
-0.100782
-9.08492
-0.0476166
-8.09861
-0.00424858
-5.76888
-2.32193
-0.297221
-8.80245
-0.355747
-8.75216
-0.39326
-9.08567
-0.422994
-9.04471
-0.43511
-9.25073
-0.438256
-9.21779
-0.431252
-9.29993
-0.418584
-9.29481
-0.399845
-9.28999
-0.378339
-9.28234
-0.3519
-9.29119
-0.322722
-9.27891
-0.289109
-9.29869
-0.253908
-9.27947
-0.212552
-9.32551
-0.170815
-9.25077
-0.113816
-9.14192
-0.0547878
-8.15764
-0.00626159
-5.81741
-2.32819
-0.374705
-8.70148
-0.43553
-8.69133
-0.471293
-9.0499
-0.499607
-9.01639
-0.50753
-9.2428
-0.505284
-9.22004
-0.49322
-9.31199
-0.475241
-9.31279
-0.451126
-9.3141
-0.424624
-9.30884
-0.393416
-9.3224
-0.359508
-9.31282
-0.321398
-9.3368
-0.281852
-9.31901
-0.236195
-9.37117
-0.189384
-9.29758
-0.127227
-9.20408
-0.062507
-8.22236
-0.00823372
-5.87168
-2.33642
-0.444882
-8.59999
-0.505819
-8.63039
-0.536669
-9.01905
-0.561325
-8.99174
-0.566824
-9.23731
-0.560911
-9.22595
-0.545756
-9.32715
-0.524419
-9.33413
-0.496554
-9.34197
-0.46634
-9.33906
-0.43132
-9.35742
-0.393439
-9.3507
-0.351421
-9.37882
-0.308131
-9.3623
-0.258982
-9.42032
-0.207633
-9.34893
-0.139997
-9.27171
-0.0692249
-8.29314
-0.00976305
-5.93115
-2.34618
-0.517841
-8.49352
-0.578077
-8.57016
-0.60735
-8.98978
-0.631537
-8.96755
-0.63482
-9.23402
-0.624673
-9.2361
-0.60498
-9.34684
-0.578709
-9.3604
-0.545723
-9.37495
-0.510637
-9.37414
-0.471029
-9.39702
-0.428589
-9.39314
-0.382191
-9.42522
-0.334694
-9.4098
-0.281484
-9.47353
-0.225433
-9.40498
-0.152787
-9.34436
-0.0762281
-8.36969
-0.0115266
-5.99585
-2.35771
-0.586075
-8.37492
-0.650159
-8.50607
-0.671323
-8.96862
-0.690837
-8.94804
-0.690865
-9.23399
-0.677171
-9.24979
-0.654663
-9.36935
-0.625312
-9.38975
-0.588764
-9.4115
-0.550064
-9.41284
-0.506805
-9.44028
-0.460616
-9.43933
-0.410506
-9.47533
-0.359444
-9.46086
-0.302823
-9.53015
-0.242891
-9.46492
-0.165542
-9.42171
-0.0833747
-8.45186
-0.013352
-6.06587
-2.37106
-0.649154
-8.26172
-0.714257
-8.44097
-0.736221
-8.94665
-0.754185
-8.93007
-0.753707
-9.23447
-0.736922
-9.26658
-0.710448
-9.39582
-0.676757
-9.42344
-0.635461
-9.4528
-0.592081
-9.45622
-0.544372
-9.48799
-0.493796
-9.48991
-0.439513
-9.52961
-0.384536
-9.51584
-0.324667
-9.59002
-0.260572
-9.52901
-0.17816
-9.50412
-0.0902696
-8.53975
-0.0146323
-6.14151
-2.38569
-0.718763
-8.13252
-0.786601
-8.37313
-0.799252
-8.934
-0.810768
-8.91856
-0.805849
-9.23939
-0.78608
-9.28635
-0.756938
-9.42496
-0.720546
-9.45984
-0.675936
-9.49741
-0.629085
-9.50307
-0.577861
-9.53922
-0.523712
-9.54406
-0.465797
-9.58752
-0.407494
-9.57414
-0.34481
-9.6527
-0.277069
-9.59675
-0.19039
-9.5908
-0.0966005
-8.63354
-0.0163452
-6.22176
-2.40204
-0.767497
-8.01876
-0.842692
-8.29794
-0.85946
-8.91724
-0.871527
-8.90649
-0.864613
-9.2463
-0.842328
-9.30863
-0.809295
-9.458
-0.769182
-9.49995
-0.72025
-9.54634
-0.669014
-9.55431
-0.61347
-9.59476
-0.55511
-9.60242
-0.493054
-9.64958
-0.430819
-9.63638
-0.364308
-9.71921
-0.29288
-9.66818
-0.201997
-9.68168
-0.103629
-8.73191
-0.0182354
-6.30716
-2.42028
-0.822615
-7.89362
-0.903171
-8.21738
-0.915115
-8.90529
-0.918258
-8.90335
-0.908822
-9.25574
-0.885124
-9.33233
-0.851212
-9.49191
-0.808896
-9.54226
-0.757624
-9.59761
-0.702832
-9.6091
-0.644221
-9.65337
-0.5824
-9.66424
-0.517177
-9.7148
-0.451471
-9.70208
-0.384416
-9.78627
-0.30977
-9.74282
-0.213917
-9.77754
-0.11103
-8.8348
-0.0196038
-6.39858
-2.43988
6.76073
-7.52396
-7.13039
6.27035
-7.727
5.58833
-8.22327
5.05462
-8.36964
4.46748
-8.6686
3.9378
-8.80265
3.43678
-8.99088
2.9721
-9.07759
2.55246
-9.17797
2.18605
-9.24269
1.85461
-9.32194
1.56332
-9.37294
1.28089
-9.43238
1.04019
-9.46138
0.775761
-9.52184
0.567603
-9.53467
0.359774
-9.56971
0.229023
-8.70404
0.134569
-6.30413
-2.30531
3.79274
-7.43959
-3.8771
3.71808
-7.65235
3.4692
-7.97439
3.26137
-8.16181
2.98976
-8.39699
2.73404
-8.54693
2.45045
-8.70729
2.19199
-8.81913
1.94439
-8.93037
1.72524
-9.02353
1.51105
-9.10775
1.30622
-9.16811
1.10362
-9.22977
0.916173
-9.27393
0.714037
-9.31971
0.538028
-9.35866
0.29553
-9.32721
0.15268
-8.56119
-0.0544603
-6.09699
-2.35977
2.63563
-7.52545
-2.54977
2.71309
-7.72981
2.67498
-7.93628
2.60804
-8.09487
2.47234
-8.26128
2.32459
-8.39919
2.14584
-8.52854
1.96365
-8.63694
1.77738
-8.7441
1.58366
-8.82982
1.38353
-8.90761
1.18626
-8.97084
0.996251
-9.03977
0.809142
-9.08682
0.624034
-9.1346
0.442722
-9.17735
0.278547
-9.16303
0.169078
-8.45173
0.0397642
-5.96767
-2.32001
1.59472
-7.69369
-1.42648
1.68772
-7.8228
1.72383
-7.97239
1.72069
-8.09173
1.66918
-8.20977
1.58784
-8.31785
1.49117
-8.43187
1.3811
-8.52688
1.25648
-8.61948
1.12588
-8.69921
0.993058
-8.7748
0.866625
-8.84441
0.736503
-8.90964
0.610075
-8.9604
0.482537
-9.00706
0.355774
-9.05058
0.227485
-9.03474
0.144331
-8.36857
0.0840683
-5.90741
-2.23594
1.10137
-7.81867
-0.976384
1.19033
-7.91176
1.25123
-8.0333
1.28209
-8.12259
1.27736
-8.20504
1.24685
-8.28734
1.18729
-8.37232
1.11439
-8.45398
1.02807
-8.53316
0.930952
-8.60209
0.827905
-8.67175
0.716636
-8.73314
0.597984
-8.79099
0.482065
-8.84448
0.364399
-8.8894
0.247486
-8.93367
0.152041
-8.9393
0.0946812
-8.31121
0.0657917
-5.87852
-2.17015
0.718616
-7.93119
-0.606095
0.804869
-7.99801
0.844104
-8.07253
0.855277
-8.13376
0.853162
-8.20293
0.834098
-8.26827
0.797998
-8.33622
0.746325
-8.40231
0.682639
-8.46947
0.610595
-8.53005
0.532518
-8.59367
0.44928
-8.6499
0.3677
-8.70941
0.286501
-8.76328
0.209922
-8.81282
0.135596
-8.85934
0.0483387
-8.85204
0.0164529
-8.27933
0.0522093
-5.91428
-2.11794
0.495374
-8.00521
-0.421362
0.54631
-8.04895
0.574887
-8.10111
0.593256
-8.15213
0.599921
-8.20959
0.590785
-8.25914
0.565686
-8.31112
0.527009
-8.36363
0.477152
-8.41961
0.419081
-8.47198
0.353931
-8.52852
0.281709
-8.57768
0.20723
-8.63493
0.127055
-8.6831
0.0547235
-8.74049
-0.0123283
-8.79229
-0.0818989
-8.78247
-0.0885083
-8.27272
0.015652
-6.01844
-2.10228
0.322629
-8.05634
-0.271492
0.365869
-8.09219
0.388535
-8.12377
0.396382
-8.15998
0.39013
-8.20334
0.374325
-8.24333
0.350281
-8.28707
0.31188
-8.32523
0.267402
-8.37514
0.212422
-8.417
0.154356
-8.47046
0.0901559
-8.51348
0.0258793
-8.57066
-0.0409336
-8.61629
-0.106124
-8.6753
-0.170346
-8.72807
-0.228875
-8.72394
-0.209737
-8.29185
-0.0358346
-6.19234
-2.13812
0.180628
-8.0846
-0.152367
0.195945
-8.10751
0.203203
-8.13103
0.19859
-8.15537
0.184794
-8.18954
0.161804
-8.22034
0.134333
-8.2596
0.102512
-8.29341
0.0629722
-8.3356
0.0169984
-8.37102
-0.0367493
-8.41671
-0.0938381
-8.45639
-0.157643
-8.50685
-0.225283
-8.54865
-0.30183
-8.59875
-0.382253
-8.64765
-0.441301
-8.6649
-0.407019
-8.32614
-0.147121
-6.45224
-2.28524
0.082895
-8.095
-0.0724931
0.0863111
-8.11092
0.085217
-8.12994
0.080273
-8.15042
0.0644347
-8.17371
0.0391535
-8.19506
0.00465974
-8.22511
-0.0365882
-8.25216
-0.0841287
-8.28806
-0.137764
-8.31739
-0.197749
-8.35672
-0.265081
-8.38906
-0.338312
-8.43362
-0.41726
-8.4697
-0.498255
-8.51775
-0.587583
-8.55832
-0.663876
-8.5886
-0.637913
-8.3521
-0.299849
-6.7903
-2.58509
-0.0261658
-8.09358
0.0247419
-0.0326345
-8.10445
-0.0441989
-8.11837
-0.0633353
-8.13128
-0.0861929
-8.15085
-0.112554
-8.1687
-0.143911
-8.19375
-0.18309
-8.21298
-0.230452
-8.24069
-0.282784
-8.26506
-0.344634
-8.29487
-0.413592
-8.3201
-0.493473
-8.35374
-0.580902
-8.38227
-0.674121
-8.42453
-0.774151
-8.45829
-0.867215
-8.49554
-0.871323
-8.34799
-0.516421
-7.14521
-3.10151
-0.108066
-8.08889
0.103379
-0.114959
-8.09756
-0.124138
-8.10919
-0.137988
-8.11743
-0.15734
-8.1315
-0.183543
-8.1425
-0.217343
-8.15995
-0.254609
-8.17572
-0.302643
-8.19266
-0.356432
-8.21127
-0.420174
-8.23113
-0.490596
-8.24968
-0.5742
-8.27014
-0.667817
-8.28866
-0.776284
-8.31607
-0.896185
-8.33839
-1.02495
-8.36678
-1.06332
-8.30962
-0.771563
-7.43696
-3.87307
-0.166588
-8.07733
0.155024
-0.182535
-8.08161
-0.202429
-8.0893
-0.224371
-8.09549
-0.250824
-8.10504
-0.281185
-8.11214
-0.316555
-8.12458
-0.35521
-8.13706
-0.398216
-8.14965
-0.448082
-8.1614
-0.504393
-8.17482
-0.567236
-8.18683
-0.639491
-8.19788
-0.719604
-8.20854
-0.818977
-8.21669
-0.925642
-8.23172
-1.06607
-8.22635
-1.16165
-8.21404
-0.946416
-7.6522
-4.81949
-0.204628
-8.06679
0.194092
-0.217124
-8.06912
-0.231774
-8.07465
-0.24965
-8.07762
-0.270763
-8.08393
-0.294595
-8.0883
-0.323042
-8.09613
-0.358224
-8.10188
-0.398164
-8.10971
-0.44395
-8.11562
-0.495901
-8.12287
-0.553924
-8.12881
-0.618583
-8.13322
-0.688403
-8.13872
-0.769286
-8.13581
-0.857648
-8.14336
-0.956567
-8.12743
-1.04795
-8.12265
-0.888557
-7.81159
-5.70805
-0.223766
-8.05288
0.209851
-0.239832
-8.05305
-0.258532
-8.05595
-0.278594
-8.05755
-0.298201
-8.06432
-0.320197
-8.06631
-0.345482
-8.07085
-0.373716
-8.07365
-0.405091
-8.07834
-0.439794
-8.08091
-0.477483
-8.08518
-0.519337
-8.08696
-0.563722
-8.08884
-0.613351
-8.08909
-0.665085
-8.08408
-0.732284
-8.07616
-0.794893
-8.06482
-0.855873
-8.06167
-0.751122
-7.91635
-6.45917
-0.219519
-8.0424
0.209044
-0.230985
-8.04158
-0.243676
-8.04326
-0.25747
-8.04376
-0.275744
-8.04605
-0.295524
-8.04653
-0.316994
-8.04938
-0.340305
-8.05033
-0.365416
-8.05323
-0.392543
-8.05379
-0.421561
-8.05616
-0.452828
-8.05569
-0.485237
-8.05643
-0.520395
-8.05394
-0.55329
-8.05118
-0.583329
-8.04612
-0.610202
-8.03794
-0.644924
-8.02695
-0.587738
-7.97353
-7.0469
-0.209858
-8.03235
0.199803
-0.219587
-8.03186
-0.230432
-8.03242
-0.241651
-8.03254
-0.25377
-8.03393
-0.266047
-8.03425
-0.279389
-8.03604
-0.293301
-8.03642
-0.3084
-8.03813
-0.324143
-8.03804
-0.340724
-8.03958
-0.357895
-8.03852
-0.374757
-8.03957
-0.39161
-8.03708
-0.405246
-8.03755
-0.418122
-8.03325
-0.424022
-8.03204