/*--------------------------------*- C++ -*----------------------------------*\
  =========                 |
  \\      /  F ield         | OpenFOAM: The Open Source CFD Toolbox
   \\    /   O peration     | Website:  https://openfoam.org
    \\  /    A nd           | Version:  9
     \\/     M anipulation  |
\*---------------------------------------------------------------------------*/
FoamFile
{
    format      ascii;
    class       volVectorField;
    location    "17";
    object      U;
}
// * * * * * * * * * * * * * * * * * * * * * * * * * * * * * * * * * * * * * //

dimensions      [0 1 -1 0 0 0 0];

internalField   nonuniform List<vector> 
46400
(
(7.54584 -7.31998 1.07589e-18)
(15.4114 -14.796 -1.30478e-18)
(16.5107 -16.5923 -4.5465e-20)
(15.9229 -16.7345 -3.45994e-19)
(15.3935 -16.7738 -3.33489e-20)
(14.8269 -16.8636 2.10384e-18)
(14.3249 -16.9105 -1.20153e-18)
(13.8175 -16.9645 3.13937e-19)
(13.3522 -17.0174 -3.1358e-19)
(12.91 -17.0771 3.12767e-19)
(12.4864 -17.1319 -3.11528e-19)
(12.1322 -17.2353 0)
(11.7852 -17.3402 2.10933e-18)
(11.4291 -17.3837 -2.37951e-18)
(11.0777 -17.4473 -2.6899e-18)
(10.7679 -17.5007 -3.20523e-19)
(10.4805 -17.6374 -1.85175e-20)
(10.1982 -17.6786 2.02113e-18)
(9.91131 -17.6652 2.58664e-18)
(9.49726 -17.7807 -2.39898e-18)
(7.836 -6.92434 0)
(15.443 -13.8298 -2.30184e-20)
(16.3584 -15.3481 0)
(15.6561 -15.4622 1.60376e-18)
(15.1128 -15.5512 -1.27191e-18)
(14.558 -15.6846 3.12731e-19)
(14.0667 -15.809 0)
(13.5691 -15.9023 -3.13928e-19)
(13.1187 -16.0209 3.13574e-19)
(12.6947 -16.1191 -3.12754e-19)
(12.2762 -16.2335 2.88139e-18)
(11.8516 -16.2796 2.43653e-20)
(11.4809 -16.4058 -2.20415e-18)
(11.1367 -16.499 0)
(10.8047 -16.6151 3.03696e-19)
(10.4977 -16.7187 3.013e-19)
(10.1915 -16.8173 0)
(9.93044 -16.9312 -2.4304e-18)
(9.71493 -17.0705 -5.96784e-19)
(9.39891 -17.3171 2.48507e-18)
(8.00642 -6.50966 8.81496e-19)
(15.3706 -12.8512 -1.20137e-18)
(16.013 -14.0168 1.33722e-18)
(15.4188 -14.2699 1.38511e-18)
(14.8983 -14.4068 -1.35984e-18)
(14.3441 -14.5602 0)
(13.8549 -14.7073 -3.11232e-18)
(13.3657 -14.8439 2.71232e-18)
(12.901 -14.9822 -3.07906e-18)
(12.4652 -15.0975 3.03096e-18)
(12.0521 -15.228 2.69001e-18)
(11.6997 -15.376 -3.19762e-19)
(11.3484 -15.5219 -2.28778e-18)
(11.0026 -15.637 0)
(10.6488 -15.73 2.58835e-18)
(10.3501 -15.851 -2.54906e-18)
(10.0629 -15.9971 0)
(9.74773 -16.0277 -1.07428e-20)
(9.468 -16.0802 3.0168e-19)
(9.09813 -16.3344 -2.58581e-18)
(8.11323 -6.08204 -9.7141e-19)
(15.1651 -11.7676 3.12677e-19)
(15.6932 -12.8694 1.46385e-18)
(14.9704 -13.0247 -1.44615e-18)
(14.438 -13.2252 -1.09521e-18)
(13.9031 -13.4367 1.44408e-18)
(13.3985 -13.6252 1.80845e-18)
(12.9079 -13.7818 -4.32295e-18)
(12.4653 -13.9877 3.55644e-18)
(12.0613 -14.166 -3.45701e-19)
(11.6438 -14.336 0)
(11.223 -14.4345 3.39618e-19)
(10.8659 -14.6136 -3.3627e-19)
(10.559 -14.779 0)
(10.2388 -14.9462 2.68855e-18)
(9.92873 -15.0525 -2.3107e-18)
(9.68196 -15.2784 0)
(9.46384 -15.4604 3.17875e-19)
(9.22677 -15.5736 3.23528e-19)
(8.87674 -15.8172 2.69432e-18)
(8.2089 -5.63829 0)
(14.8119 -10.6041 0)
(15.1365 -11.5558 -1.55496e-18)
(14.5577 -11.8732 1.13721e-18)
(14.0257 -12.0834 -1.92649e-18)
(13.5023 -12.3158 1.52364e-18)
(13.051 -12.573 0)
(12.5745 -12.7568 1.51364e-18)
(12.1124 -12.9622 -1.85318e-18)
(11.7063 -13.1578 -3.7728e-19)
(11.3384 -13.3925 -3.72686e-19)
(10.9989 -13.5868 0)
(10.6452 -13.7674 2.85484e-18)
(10.3143 -13.9311 -2.81016e-18)
(10.0074 -14.1141 0)
(9.67937 -14.2265 -3.07896e-18)
(9.35578 -14.3362 2.70097e-18)
(9.08961 -14.4861 2.66748e-18)
(8.86468 -14.6347 -2.95193e-18)
(8.55014 -14.9251 0)
(8.32229 -5.17415 0)
(14.3625 -9.47401 0)
(14.6149 -10.3938 0)
(13.9176 -10.6473 -2.14798e-20)
(13.4051 -10.977 0)
(12.8852 -11.2511 0)
(12.3859 -11.5396 0)
(11.9264 -11.7713 -4.02608e-19)
(11.4755 -12.0289 0)
(11.0806 -12.2639 3.77231e-19)
(10.6822 -12.5203 -1.41552e-20)
(10.3029 -12.7231 -3.38377e-18)
(9.96348 -12.96 2.57922e-18)
(9.67003 -13.1737 -3.28667e-18)
(9.39545 -13.4265 2.50718e-18)
(9.15534 -13.6525 0)
(8.89716 -13.8575 -2.78775e-18)
(8.65257 -14.0018 2.39869e-18)
(8.41897 -14.1446 0)
(8.12962 -14.4046 -3.62737e-19)
(8.49491 -4.70713 1.66001e-18)
(13.7565 -8.34507 4.43176e-19)
(13.8403 -9.13492 1.73891e-18)
(13.2673 -9.52525 -1.73158e-18)
(12.739 -9.85324 -1.7091e-18)
(12.2733 -10.1649 3.36784e-18)
(11.8715 -10.5377 -3.75189e-18)
(11.4459 -10.7932 3.9628e-19)
(11.0029 -11.0603 1.2049e-18)
(10.6055 -11.2767 0)
(10.2728 -11.5748 -1.33208e-20)
(9.96859 -11.844 -1.25781e-20)
(9.64711 -12.1116 3.75703e-19)
(9.31313 -12.2942 2.99439e-18)
(9.01243 -12.514 -2.59479e-18)
(8.7369 -12.7197 -3.27941e-18)
(8.48706 -12.9672 2.867e-18)
(8.25839 -13.1721 -9.04808e-21)
(8.04007 -13.3661 -3.51065e-19)
(7.77906 -13.6595 -2.57767e-18)
(8.66167 -4.31493 -4.34979e-19)
(13.0537 -7.32082 2.25072e-20)
(12.9386 -8.02776 -4.65164e-19)
(12.3981 -8.41527 -1.82769e-18)
(11.9275 -8.90338 1.32179e-18)
(11.4544 -9.22689 0)
(11.0013 -9.62044 2.59918e-18)
(10.6258 -9.95083 -1.2708e-18)
(10.2273 -10.28 8.39217e-19)
(9.85034 -10.5447 4.19625e-19)
(9.44184 -10.7833 -8.14212e-19)
(9.08945 -11.0233 1.99444e-18)
(8.83113 -11.3598 3.98663e-19)
(8.59804 -11.6774 -2.31954e-18)
(8.32038 -11.9371 6.47023e-18)
(8.06629 -12.1809 -2.62504e-18)
(7.81813 -12.4155 3.30899e-18)
(7.60633 -12.6554 -2.17146e-18)
(7.39561 -12.8591 7.10148e-19)
(7.15398 -13.1775 3.40346e-18)
(8.72182 -3.99239 2.15828e-18)
(12.197 -6.28386 -4.67713e-19)
(11.9877 -7.00561 -1.92562e-20)
(11.4992 -7.40313 9.37575e-19)
(11.0339 -7.87032 4.53694e-19)
(10.6656 -8.2797 4.62807e-19)
(10.3057 -8.72726 -2.23291e-18)
(9.95918 -9.09091 1.32796e-18)
(9.58854 -9.4571 -4.26649e-19)
(9.27036 -9.77717 -4.1964e-19)
(8.98313 -10.1157 -4.1267e-19)
(8.62292 -10.3173 -4.16425e-19)
(8.26735 -10.5311 -8.07622e-19)
(8.00533 -10.7824 2.7792e-18)
(7.79012 -11.0804 -3.90128e-18)
(7.56168 -11.3314 -3.869e-19)
(7.33164 -11.5843 8.01124e-21)
(7.12858 -11.8158 -2.94406e-18)
(6.9311 -12.0422 2.18284e-18)
(6.72604 -12.3558 -3.46635e-18)
(8.57494 -3.62102 1.81926e-18)
(11.1766 -5.42247 -4.49082e-18)
(10.8105 -6.07033 2.95824e-18)
(10.4636 -6.55177 -4.77707e-19)
(10.0304 -7.07917 -4.85207e-19)
(9.62505 -7.46292 1.89608e-18)
(9.2361 -7.91961 -2.31737e-18)
(8.93866 -8.32438 0)
(8.61262 -8.73366 1.78205e-18)
(8.30031 -9.08952 -1.75232e-18)
(8.03186 -9.48202 -1.28169e-18)
(7.8023 -9.84376 1.67867e-18)
(7.54002 -10.1553 4.08819e-19)
(7.26585 -10.4165 -1.62108e-18)
(7.01239 -10.6791 3.99623e-19)
(6.81357 -10.9624 1.95332e-18)
(6.60593 -11.2186 -3.44297e-18)
(6.42142 -11.4683 2.26486e-18)
(6.228 -11.6803 -6.64479e-21)
(6.01795 -11.9647 -3.14938e-18)
(8.20546 -3.19265 2.37618e-18)
(10.1653 -4.56801 -1.54668e-18)
(9.86732 -5.26897 1.01984e-18)
(9.45395 -5.67369 2.43252e-21)
(9.10084 -6.22742 -1.97968e-18)
(8.81003 -6.66088 -1.91923e-18)
(8.4877 -7.1255 2.36583e-18)
(8.2083 -7.52952 -1.38914e-18)
(7.89216 -7.93182 1.8281e-18)
(7.59617 -8.26767 0)
(7.32629 -8.6526 8.92581e-21)
(7.05371 -8.97595 4.2619e-19)
(6.79875 -9.33301 4.26061e-19)
(6.58832 -9.65843 -4.17673e-19)
(6.36272 -9.97518 0)
(6.15406 -10.265 4.01472e-19)
(5.96329 -10.5736 0)
(5.79789 -10.8559 7.66043e-19)
(5.64067 -11.1304 3.75287e-18)
(5.45796 -11.4504 -1.716e-20)
(7.61659 -2.7413 1.23874e-18)
(8.9349 -3.84691 -2.62471e-19)
(8.4939 -4.52792 -3.67213e-18)
(8.30241 -5.09678 2.05668e-18)
(7.90434 -5.65529 4.98199e-19)
(7.60647 -6.14252 -4.88896e-19)
(7.27707 -6.63414 -1.93822e-18)
(7.04624 -7.09152 1.43441e-18)
(6.83023 -7.57562 0)
(6.54931 -7.92663 0)
(6.32956 -8.32546 -2.22985e-18)
(6.13663 -8.67157 1.75764e-18)
(5.91533 -9.00068 -4.26148e-19)
(5.70639 -9.30072 -1.26258e-18)
(5.51519 -9.60283 7.75608e-21)
(5.33653 -9.88465 2.83402e-18)
(5.15887 -10.1571 -1.58974e-18)
(5.00379 -10.4281 1.16498e-18)
(4.85792 -10.679 -1.90717e-18)
(4.70892 -10.9845 0)
(6.83952 -2.26501 -1.02475e-18)
(7.81971 -3.13656 1.62355e-18)
(7.46367 -3.79061 2.69829e-19)
(7.16374 -4.27012 2.64526e-19)
(6.88647 -4.87624 0)
(6.6649 -5.33526 2.0144e-18)
(6.41641 -5.86963 -1.97902e-18)
(6.15316 -6.26981 2.43701e-19)
(5.96596 -6.79209 0)
(5.77196 -7.20956 1.8541e-18)
(5.53926 -7.63568 -1.59488e-18)
(5.35911 -8.04064 1.77783e-18)
(5.16204 -8.43035 -1.74961e-18)
(4.9967 -8.80084 1.70491e-18)
(4.8089 -9.13755 -1.46838e-18)
(4.65514 -9.47401 -1.63546e-18)
(4.48428 -9.77358 3.2132e-18)
(4.34692 -10.0755 -1.38088e-18)
(4.20861 -10.3436 1.93672e-19)
(4.07667 -10.6599 1.64772e-18)
(5.87567 -1.80556 -7.92908e-19)
(6.55543 -2.60875 8.31957e-19)
(6.1016 -3.31361 -2.69799e-19)
(5.93131 -3.84646 -2.64517e-19)
(5.68152 -4.45308 0)
(5.44234 -4.98702 0)
(5.2278 -5.51465 0)
(4.99825 -5.96644 -4.90422e-19)
(4.80467 -6.41408 -1.91694e-18)
(4.62697 -6.85918 3.76102e-18)
(4.43425 -7.24586 -2.07406e-18)
(4.28508 -7.65511 -2.26273e-19)
(4.12505 -8.01568 0)
(3.98321 -8.39364 0)
(3.84786 -8.73364 -4.22486e-19)
(3.71876 -9.08087 0)
(3.59762 -9.3986 1.61666e-18)
(3.4723 -9.7119 -1.98968e-18)
(3.36531 -9.99335 -1.74464e-18)
(3.24193 -10.3182 1.67417e-18)
(4.81242 -1.42593 8.27034e-19)
(5.18046 -2.21465 1.40485e-18)
(4.93592 -2.85939 -1.50044e-21)
(4.75929 -3.44459 -2.37279e-21)
(4.44701 -3.97191 2.62591e-19)
(4.30535 -4.51633 -7.77352e-19)
(4.1863 -5.07992 0)
(4.02901 -5.589 -7.43067e-19)
(3.85965 -6.05719 2.48054e-19)
(3.74791 -6.53878 9.52177e-19)
(3.58317 -6.95102 9.26759e-19)
(3.4517 -7.37205 -6.85543e-19)
(3.30569 -7.74613 1.77425e-18)
(3.1808 -8.12184 -1.52835e-18)
(3.04621 -8.46429 1.91124e-18)
(2.93928 -8.80925 -3.54518e-18)
(2.82216 -9.12966 1.63814e-18)
(2.73202 -9.448 1.99206e-19)
(2.63501 -9.73328 1.56089e-18)
(2.5475 -10.0554 -1.68659e-18)
(3.16024 -0.948441 2.84262e-19)
(3.83336 -1.78154 -2.81344e-19)
(3.57333 -2.42647 1.11135e-18)
(3.46953 -3.11292 -1.09083e-18)
(3.35055 -3.70743 -5.32717e-19)
(3.06234 -4.17512 -1.30118e-18)
(2.9199 -4.71103 4.56598e-21)
(2.7972 -5.20157 1.00081e-18)
(2.67562 -5.68465 -2.43417e-19)
(2.5634 -6.14751 0)
(2.47241 -6.60145 0)
(2.36814 -7.02906 0)
(2.28919 -7.44648 0)
(2.1861 -7.83197 6.85714e-22)
(2.10553 -8.2087 0)
(2.01007 -8.55664 2.08917e-19)
(1.93377 -8.90269 8.1689e-19)
(1.84812 -9.21895 -2.4044e-18)
(1.78332 -9.5267 1.77275e-18)
(1.70522 -9.84877 -1.68093e-18)
(2.01193 -0.555959 0)
(2.53587 -1.27172 -9.2156e-20)
(2.27248 -1.91815 0)
(2.13853 -2.51137 4.09312e-19)
(2.16152 -3.2667 -2.69006e-19)
(2.05062 -3.83977 -1.04496e-18)
(1.92192 -4.41499 4.83121e-21)
(1.83027 -4.93738 1.00426e-18)
(1.69054 -5.44219 -9.76839e-19)
(1.61671 -5.91441 1.9156e-18)
(1.49821 -6.3695 -5.60519e-21)
(1.42074 -6.79772 -9.18695e-19)
(1.33959 -7.21801 8.9286e-19)
(1.27664 -7.61329 -1.09772e-18)
(1.20691 -7.99237 0)
(1.14963 -8.35348 -8.35721e-19)
(1.0905 -8.69934 8.23241e-19)
(1.03748 -9.02891 0)
(0.989372 -9.33166 -1.96505e-19)
(0.938573 -9.65899 0)
(0.891889 -0.392991 0)
(1.23235 -1.23926 1.42618e-19)
(0.927032 -2.03748 0)
(0.680568 -2.5241 5.46473e-19)
(0.580733 -3.17816 -6.69711e-19)
(0.547031 -3.74923 3.91645e-19)
(0.493198 -4.32803 -1.15123e-18)
(0.459154 -4.86672 5.01721e-19)
(0.425754 -5.3835 -1.22031e-19)
(0.385541 -5.86311 0)
(0.364063 -6.32529 -1.16637e-19)
(0.317719 -6.74858 -1.14035e-19)
(0.289847 -7.16671 -1.11503e-19)
(0.260042 -7.55864 0)
(0.230268 -7.93889 -8.52491e-19)
(0.202088 -8.29588 1.77782e-18)
(0.173015 -8.64406 -1.53538e-18)
(0.147817 -8.96835 8.03955e-19)
(0.125273 -9.27544 9.77924e-20)
(0.103441 -9.59675 8.40181e-19)
(-0.702566 -0.201428 -2.17338e-19)
(-0.786405 -1.02614 -2.83874e-19)
(-0.44097 -1.84845 6.91724e-22)
(-0.357194 -2.48342 7.48858e-19)
(-0.444142 -3.082 -1.99738e-19)
(-0.476417 -3.64675 -1.29382e-19)
(-0.544164 -4.17965 1.28951e-19)
(-0.559646 -4.70651 2.49742e-19)
(-0.593049 -5.20349 1.22037e-19)
(-0.588338 -5.68667 -4.74647e-19)
(-0.605267 -6.15393 5.25543e-19)
(-0.620346 -6.6034 1.14027e-19)
(-0.64855 -7.02404 5.54932e-19)
(-0.653125 -7.4357 -2.89734e-21)
(-0.663899 -7.8235 5.00957e-20)
(-0.663942 -8.19554 -9.36725e-19)
(-0.665525 -8.55631 2.55841e-19)
(-0.670131 -8.89006 0)
(-0.668662 -9.21047 -4.92276e-20)
(-0.678398 -9.53924 -4.17783e-19)
(-1.75542 -0.301359 7.18597e-20)
(-2.00618 -0.853183 -1.40613e-19)
(-2.01083 -1.55754 2.75678e-19)
(-1.9048 -2.28677 -6.81708e-20)
(-1.91653 -2.94863 -6.59804e-20)
(-1.85217 -3.57548 0)
(-1.86166 -4.17419 -1.25994e-19)
(-1.85031 -4.71079 2.4699e-19)
(-1.81937 -5.24729 -1.21076e-19)
(-1.82615 -5.73221 1.1767e-19)
(-1.80718 -6.22624 -5.78077e-20)
(-1.78113 -6.66178 -1.12441e-19)
(-1.74838 -7.10379 2.20592e-19)
(-1.7286 -7.48801 -2.15711e-19)
(-1.68942 -7.89291 5.28761e-20)
(-1.6749 -8.23873 3.64402e-34)
(-1.6341 -8.61413 -4.99224e-20)
(-1.61845 -8.92788 2.96072e-19)
(-1.58038 -9.25503 -1.46273e-19)
(-1.56586 -9.57009 -1.04417e-19)
(-0.364025 3.22501 -4.37861e-20)
(0.231382 2.60975 -2.1984e-20)
(0.863862 -0.682514 0)
(3.34931 -8.73356 0)
(6.56832 -18.476 -2.04798e-20)
(8.41996 -24.622 -2.03556e-20)
(9.20942 -27.2778 0)
(9.32207 -28.1616 -1.98495e-20)
(9.33448 -28.4323 0)
(9.2522 -28.4393 0)
(9.09397 -28.3637 1.949e-20)
(8.99475 -28.3169 4.18088e-22)
(8.8633 -28.2844 -3.88511e-20)
(8.76062 -28.2198 0)
(8.64135 -28.234 -1.94986e-20)
(8.56053 -28.2202 -1.94052e-20)
(8.42965 -28.1794 -1.9309e-20)
(8.34967 -28.16 0)
(8.25447 -28.2339 3.75658e-20)
(8.189 -28.2695 -3.49289e-20)
(-0.199769 2.9919 -6.61304e-20)
(0.386067 1.18325 8.28551e-20)
(1.77006 -3.90173 0)
(5.38652 -14.5532 1.04297e-19)
(7.88382 -22.5761 -1.03732e-19)
(9.13899 -26.5251 1.84884e-19)
(9.45224 -27.8027 -7.83568e-20)
(9.49601 -28.2042 -5.7115e-20)
(9.42972 -28.2255 2.57029e-19)
(9.29205 -28.1571 -1.56093e-19)
(9.18309 -28.1023 1.99024e-20)
(9.0632 -28.0227 -1.60555e-19)
(8.95314 -28.0004 -1.77007e-21)
(8.87615 -28.0141 1.57255e-19)
(8.75651 -27.9999 1.94992e-20)
(8.67012 -27.9127 1.94063e-20)
(8.54186 -27.9266 1.9311e-20)
(8.48462 -27.9501 0)
(8.36417 -27.9949 1.54885e-19)
(8.30699 -27.9701 1.23594e-21)
(0.0913426 2.51056 4.41699e-20)
(0.683654 -0.723702 0)
(3.21493 -8.82178 0)
(6.85691 -19.0627 0)
(8.86977 -24.9789 -4.1383e-20)
(9.55881 -27.2602 0)
(9.68966 -27.9055 4.05302e-20)
(9.64189 -27.9866 -1.19942e-19)
(9.55316 -27.9596 1.17734e-19)
(9.42984 -27.882 -1.64204e-19)
(9.31837 -27.8036 2.02337e-19)
(9.22607 -27.7841 0)
(9.12414 -27.7806 1.62268e-19)
(9.02816 -27.7289 1.63529e-19)
(8.90401 -27.6945 -2.77917e-19)
(8.8158 -27.674 3.20614e-19)
(8.69255 -27.6603 -2.75795e-19)
(8.62547 -27.6593 0)
(8.52052 -27.73 3.53291e-19)
(8.45511 -27.6835 -5.96674e-19)
(0.34277 1.20258 -2.21917e-19)
(1.20352 -2.90561 0)
(4.91202 -13.13 -8.31225e-20)
(8.08689 -22.2424 -1.26432e-19)
(9.4809 -26.3906 2.4796e-19)
(9.81411 -27.5808 -8.01922e-20)
(9.83911 -27.8183 -3.9047e-20)
(9.78348 -27.8189 -4.22118e-19)
(9.66227 -27.7322 6.45218e-19)
(9.55345 -27.6416 8.72421e-20)
(9.4579 -27.6042 -3.66886e-19)
(9.34545 -27.5362 -8.23221e-20)
(9.23983 -27.4978 4.11086e-19)
(9.14526 -27.4751 -4.0577e-19)
(9.03031 -27.4424 -1.22158e-19)
(8.94157 -27.3647 8.14125e-20)
(8.83071 -27.4061 -1.21073e-19)
(8.78623 -27.4614 0)
(8.65901 -27.4838 4.01609e-20)
(8.58033 -27.3595 0)
(0.269439 -0.0924799 0)
(1.97344 -5.58241 -3.35514e-19)
(6.38685 -17.234 4.13921e-19)
(8.96628 -24.3897 -4.14802e-19)
(9.9135 -27.0086 3.21217e-19)
(10.0882 -27.6239 7.90178e-20)
(10.051 -27.6613 0)
(9.9584 -27.586 -2.40068e-19)
(9.84039 -27.4641 3.28099e-19)
(9.73549 -27.396 -4.16386e-19)
(9.62379 -27.2975 3.28349e-19)
(9.52251 -27.2607 8.23267e-20)
(9.42597 -27.2465 -4.15437e-19)
(9.33008 -27.1953 7.42811e-19)
(9.20712 -27.1547 -4.9484e-19)
(9.12512 -27.1396 1.62419e-19)
(8.99659 -27.1534 4.11955e-19)
(8.93119 -27.1431 -9.80027e-19)
(8.7875 -27.1564 5.5863e-19)
(8.67347 -26.9857 7.05629e-19)
(0.27072 -1.18215 -3.26837e-19)
(3.14778 -9.00317 -3.20756e-19)
(7.4842 -19.9758 3.16721e-19)
(9.64344 -25.8005 7.81119e-20)
(10.1945 -27.3545 -8.05731e-20)
(10.272 -27.5516 -3.1629e-19)
(10.2164 -27.5074 3.07512e-19)
(10.1021 -27.3504 0)
(10.0095 -27.2574 -3.34294e-19)
(9.90569 -27.1479 3.2869e-19)
(9.81052 -27.0915 3.36326e-19)
(9.70426 -27.0279 -3.30863e-19)
(9.60404 -26.9825 0)
(9.48968 -26.9341 0)
(9.36511 -26.8712 -7.57943e-19)
(9.25674 -26.7925 7.47621e-19)
(9.13755 -26.8366 6.73363e-19)
(9.07319 -26.8639 -6.57039e-19)
(8.90819 -26.8306 6.58387e-19)
(8.76129 -26.5669 -8.01944e-19)
(0.514898 -2.31993 2.29065e-19)
(4.2731 -11.6924 -6.75279e-20)
(8.55064 -22.2293 7.31789e-21)
(10.2892 -26.5516 -3.78746e-19)
(10.636 -27.4181 0)
(10.6362 -27.4409 0)
(10.5447 -27.2949 -6.34406e-19)
(10.4307 -27.1431 -1.8823e-20)
(10.3146 -27.007 6.51983e-19)
(10.1913 -26.9069 -6.74507e-19)
(10.0636 -26.7845 6.63388e-19)
(9.93998 -26.7228 0)
(9.82025 -26.6705 -6.84239e-19)
(9.69647 -26.5884 6.7347e-19)
(9.56588 -26.5353 0)
(9.46432 -26.522 0)
(9.32547 -26.5261 0)
(9.24393 -26.4892 0)
(9.03174 -26.4204 0)
(8.88514 -26.1445 8.27283e-20)
(0.847252 -3.35242 -2.00733e-19)
(5.54518 -14.1353 3.38531e-19)
(9.5776 -23.6806 0)
(10.9583 -27.0072 0)
(11.0699 -27.3684 -6.78801e-19)
(11.0117 -27.2622 -1.01883e-19)
(10.8443 -27.033 7.03714e-19)
(10.7158 -26.8488 0)
(10.5791 -26.7067 -8.31224e-20)
(10.4395 -26.5624 8.4347e-20)
(10.3122 -26.4784 0)
(10.1827 -26.3972 -8.61705e-20)
(10.0644 -26.348 7.81833e-19)
(9.92912 -26.2928 -1.46923e-18)
(9.7828 -26.2018 -1.28703e-20)
(9.64605 -26.1178 6.89276e-19)
(9.50581 -26.1503 8.80631e-20)
(9.41001 -26.1195 -8.78982e-20)
(9.17653 -26.0073 0)
(9.02735 -25.7007 -8.72854e-20)
(1.33488 -4.32871 -1.2982e-19)
(6.82569 -15.8747 -1.42147e-19)
(10.6054 -24.7018 3.82987e-19)
(11.5973 -26.9985 -1.41185e-19)
(11.5775 -27.0989 -7.21682e-20)
(11.4426 -26.9103 -6.9741e-19)
(11.2676 -26.7056 1.03518e-18)
(11.1088 -26.5333 -8.05545e-19)
(10.9496 -26.3789 7.62229e-19)
(10.7821 -26.2504 -9.23396e-19)
(10.6219 -26.1184 -1.73786e-19)
(10.4648 -26.0496 -7.93569e-19)
(10.3089 -25.9687 4.28478e-19)
(10.1415 -25.8629 9.78962e-19)
(9.98541 -25.8011 -8.81569e-19)
(9.84294 -25.7618 0)
(9.68763 -25.7419 -2.68628e-19)
(9.57128 -25.6905 -9.26662e-20)
(9.31814 -25.5759 1.8056e-19)
(9.18394 -25.2987 -9.24552e-20)
(2.07518 -5.52954 1.63597e-19)
(8.04776 -17.1984 -1.53799e-19)
(11.5416 -25.1382 1.49867e-21)
(12.2423 -26.8163 2.7816e-19)
(12.1331 -26.7898 2.92139e-19)
(11.9304 -26.5409 1.53989e-19)
(11.7093 -26.3068 -2.56476e-21)
(11.5086 -26.1076 1.64625e-19)
(11.3068 -25.9366 0)
(11.1085 -25.7833 1.71295e-19)
(10.9264 -25.6791 1.73771e-19)
(10.7486 -25.5778 -4.60532e-21)
(10.5913 -25.5291 -7.31209e-19)
(10.4243 -25.4701 3.52745e-19)
(10.2444 -25.3641 9.13948e-19)
(10.0747 -25.2906 -7.23234e-19)
(9.91118 -25.3073 -5.5738e-19)
(9.77582 -25.249 9.07747e-19)
(9.51119 -25.1306 -1.80631e-19)
(9.37288 -24.8325 -1.29661e-18)
(2.80378 -6.22613 0)
(8.92505 -18.1147 -5.73439e-19)
(12.4616 -25.3244 8.13603e-19)
(12.8661 -26.4281 -6.76755e-19)
(12.6319 -26.2698 -7.65938e-19)
(12.3833 -26.0151 6.1337e-19)
(12.1284 -25.8098 1.00544e-18)
(11.8958 -25.6186 3.0716e-20)
(11.6731 -25.465 -6.82283e-19)
(11.4456 -25.3224 5.41911e-19)
(11.2406 -25.205 -1.44429e-18)
(11.0422 -25.1469 9.01826e-19)
(10.8442 -25.0631 1.82162e-19)
(10.6348 -24.964 -5.69681e-19)
(10.444 -24.9017 1.49839e-18)
(10.2501 -24.8263 -7.45297e-19)
(10.0724 -24.7967 0)
(9.92163 -24.764 1.52051e-18)
(9.66275 -24.6796 -1.49827e-18)
(9.52973 -24.415 1.33701e-18)
(3.22988 -7.19047 -1.14282e-19)
(10.1759 -18.6452 -7.25146e-20)
(13.2269 -25.0812 -6.42123e-19)
(13.4819 -25.8364 -7.58475e-19)
(13.1889 -25.6776 4.38739e-19)
(12.9099 -25.442 -8.4263e-19)
(12.6081 -25.2288 4.95436e-19)
(12.3337 -25.0497 -7.1847e-19)
(12.0665 -24.8778 1.44123e-18)
(11.8034 -24.738 -5.41803e-19)
(11.5606 -24.6259 0)
(11.3258 -24.5209 0)
(11.1208 -24.4909 0)
(10.9122 -24.4347 1.55971e-18)
(10.6945 -24.3391 -1.53558e-18)
(10.4902 -24.2889 0)
(10.3011 -24.2866 0)
(10.1277 -24.2494 1.98867e-19)
(9.85596 -24.1743 0)
(9.70334 -23.9028 1.78112e-18)
(3.92932 -7.55892 2.41658e-19)
(10.9244 -19.1662 6.34804e-19)
(13.9834 -24.7941 5.7507e-19)
(14.0155 -25.2335 2.0341e-19)
(13.6263 -25.0045 -9.7451e-19)
(13.3167 -24.7687 1.26341e-19)
(12.9739 -24.57 -3.7006e-20)
(12.6637 -24.3889 9.06517e-19)
(12.3797 -24.2547 0)
(12.0874 -24.1131 5.83816e-19)
(11.8344 -24.025 -9.67723e-19)
(11.5916 -23.9776 0)
(11.3527 -23.9037 -1.61241e-18)
(11.1145 -23.8516 1.58707e-18)
(10.8871 -23.7993 -1.62751e-18)
(10.6466 -23.7025 3.02702e-18)
(10.4422 -23.676 -1.60626e-18)
(10.2598 -23.675 -1.98874e-19)
(10.0004 -23.6393 2.05884e-19)
(9.86608 -23.3936 -1.65116e-18)
(4.42191 -7.93664 4.10519e-19)
(11.9347 -18.9486 3.89719e-20)
(14.5903 -24.1354 5.34871e-20)
(14.6028 -24.3575 -1.31218e-18)
(14.1394 -24.1921 -2.16204e-19)
(13.7952 -23.9933 8.93241e-19)
(13.4263 -23.8162 7.70823e-19)
(13.0759 -23.6702 -1.55775e-19)
(12.7509 -23.5258 -9.80888e-19)
(12.4268 -23.4172 1.22347e-18)
(12.125 -23.3134 -6.06045e-19)
(11.8385 -23.2389 1.88629e-18)
(11.5852 -23.2322 -1.4339e-18)
(11.3341 -23.182 1.69302e-18)
(11.0895 -23.1471 -1.45154e-18)
(10.8533 -23.122 -1.4923e-18)
(10.6302 -23.0968 1.67324e-18)
(10.4173 -23.0988 -1.47865e-18)
(10.1564 -23.1072 1.46336e-18)
(9.99867 -22.8842 1.93925e-18)
(5.06697 -8.16712 5.9156e-19)
(12.7082 -18.9777 1.98459e-19)
(15.2101 -23.4204 -6.24565e-19)
(15.0122 -23.5531 7.34034e-19)
(14.5273 -23.3459 -7.21047e-19)
(14.1167 -23.1722 -1.8785e-19)
(13.7079 -23.0041 0)
(13.3182 -22.8618 2.12318e-19)
(12.972 -22.7579 -6.48416e-19)
(12.6189 -22.6399 2.35882e-18)
(12.3133 -22.5859 -1.69975e-18)
(12.022 -22.5444 -4.35571e-19)
(11.7449 -22.5131 -2.13627e-19)
(11.4818 -22.5223 0)
(11.2129 -22.4854 1.03923e-20)
(10.9321 -22.421 -1.77573e-18)
(10.6845 -22.3976 -2.38087e-20)
(10.4403 -22.4109 -4.59781e-19)
(10.1892 -22.4366 1.74136e-18)
(10.04 -22.2668 -4.48766e-19)
(5.53743 -8.22473 -6.50254e-19)
(13.4016 -18.4281 1.20003e-18)
(15.6689 -22.4011 -6.98348e-19)
(15.4292 -22.4713 -7.96785e-19)
(14.898 -22.3512 -4.60197e-20)
(14.4679 -22.2067 5.96927e-19)
(14.0419 -22.0889 -2.22341e-19)
(13.6273 -21.9958 -2.12298e-19)
(13.2545 -21.9103 0)
(12.8784 -21.8445 0)
(12.5283 -21.7742 1.84422e-18)
(12.1993 -21.7472 -3.20928e-18)
(11.8936 -21.7418 1.82482e-18)
(11.6051 -21.7237 0)
(11.3422 -21.7716 1.14055e-20)
(11.0732 -21.7518 2.09567e-18)
(10.8111 -21.7213 -2.06707e-18)
(10.5519 -21.7552 2.2239e-19)
(10.3251 -21.828 2.05084e-18)
(10.1778 -21.6693 -1.39762e-18)
(6.05919 -8.24817 7.24842e-19)
(14.0692 -18.0687 -9.28537e-19)
(16.0574 -21.4816 0)
(15.7037 -21.4737 0)
(15.1611 -21.3512 -2.28217e-19)
(14.6753 -21.2679 1.13536e-18)
(14.217 -21.1484 1.80329e-20)
(13.7592 -21.0663 -9.20692e-19)
(13.3596 -21.0091 1.92466e-18)
(12.9574 -20.9467 -3.83345e-18)
(12.5963 -20.9273 1.90909e-18)
(12.2602 -20.909 -4.85648e-19)
(11.9489 -20.9435 -2.21136e-18)
(11.6478 -20.9792 -2.79884e-19)
(11.3446 -21.0007 1.44387e-18)
(11.0502 -21.0247 -2.36625e-19)
(10.7565 -20.9994 2.17727e-18)
(10.4628 -21.0126 -1.89285e-18)
(10.2264 -21.1074 1.05053e-20)
(10.092 -21.0351 -1.96047e-18)
(6.4623 -8.12112 0)
(14.5405 -17.2843 -6.54572e-19)
(16.2864 -20.3043 6.22546e-19)
(15.9011 -20.3002 0)
(15.3389 -20.2331 2.28197e-19)
(14.8335 -20.171 -9.8962e-19)
(14.3721 -20.1266 1.21101e-18)
(13.9074 -20.0865 0)
(13.4953 -20.0715 -2.05027e-18)
(13.0827 -20.0537 2.01602e-18)
(12.6972 -20.049 -2.63895e-19)
(12.3269 -20.061 2.49609e-19)
(11.9666 -20.0551 2.49947e-19)
(11.6413 -20.0875 2.49858e-19)
(11.3493 -20.1809 2.30646e-18)
(11.0637 -20.2254 -4.07315e-18)
(10.7838 -20.286 4.0508e-18)
(10.4789 -20.3117 -3.97327e-18)
(10.2256 -20.397 1.72411e-18)
(10.0996 -20.3464 -2.52592e-19)
(6.86989 -7.94668 0)
(15.0091 -16.578 9.22779e-19)
(16.4962 -19.1286 -4.5789e-19)
(16.0129 -19.1643 -7.65236e-19)
(15.4673 -19.1224 -3.94137e-20)
(14.9229 -19.1311 -3.46044e-20)
(14.4304 -19.0799 1.04608e-18)
(13.9304 -19.067 0)
(13.4876 -19.0635 0)
(13.0508 -19.0639 0)
(12.6389 -19.0722 2.63879e-19)
(12.2776 -19.1179 0)
(11.9354 -19.2077 2.46402e-18)
(11.5839 -19.2343 -2.15074e-18)
(11.2509 -19.3237 2.16685e-18)
(10.9412 -19.3979 -4.28833e-18)
(10.6186 -19.4457 2.12205e-18)
(10.3051 -19.5389 2.37707e-18)
(10.003 -19.62 -4.17147e-18)
(9.85158 -19.5874 2.17033e-18)
(7.23051 -7.67665 0)
(15.2497 -15.7003 0)
(16.5358 -17.9017 -2.55069e-19)
(15.969 -17.9343 -2.62735e-19)
(15.4179 -17.9317 0)
(14.8692 -17.9697 -1.14345e-18)
(14.3882 -18.0031 1.12339e-18)
(13.8929 -18.015 0)
(13.4538 -18.0674 -2.32037e-18)
(13.0262 -18.1016 2.2816e-18)
(12.615 -18.1562 0)
(12.2036 -18.1699 2.31411e-18)
(11.8156 -18.2115 -2.49623e-19)
(11.4549 -18.2649 -2.27044e-18)
(11.1148 -18.345 0)
(10.8117 -18.4636 0)
(10.4773 -18.5562 0)
(10.115 -18.5917 1.97645e-18)
(9.80076 -18.6315 -2.21579e-18)
(9.51888 -18.653 0)
(7.46787 -27.693 0)
(6.3402 -26.6754 0)
(5.47694 -27.0385 4.82561e-21)
(4.82922 -26.651 4.92318e-21)
(4.15905 -26.7927 0)
(3.59137 -26.5486 1.46957e-23)
(3.07594 -26.4266 -5.21859e-21)
(2.63876 -26.2344 0)
(2.26277 -26.0391 -5.44721e-21)
(1.91175 -25.8962 0)
(1.62038 -25.7661 5.57298e-21)
(1.35517 -25.6397 2.81321e-21)
(1.10612 -25.5425 -2.82826e-21)
(0.933506 -25.427 -5.74353e-21)
(0.697628 -25.3683 0)
(0.637241 -25.2224 1.45999e-21)
(0.374178 -24.5727 -7.17307e-21)
(0.419949 -21.7958 0)
(0.120931 -15.4664 0)
(0.176106 -6.60549 -5.97164e-21)
(7.49071 -27.3355 -1.69547e-20)
(6.43963 -26.3579 0)
(5.62785 -26.8768 -2.44286e-20)
(4.90696 -26.5209 1.47963e-20)
(4.2635 -26.6119 0)
(3.67829 -26.3365 2.61987e-20)
(3.15767 -26.2397 -1.05705e-20)
(2.70272 -26.0684 0)
(2.3216 -25.8923 -5.5326e-21)
(1.96012 -25.7667 1.10419e-20)
(1.66498 -25.6581 -1.67928e-20)
(1.3934 -25.5483 2.2601e-20)
(1.14241 -25.4697 -1.70969e-20)
(0.966633 -25.3638 5.72558e-21)
(0.730317 -25.3231 5.79219e-21)
(0.668834 -25.1765 -5.86055e-21)
(0.381122 -24.5433 1.13394e-20)
(0.43387 -21.754 1.42517e-20)
(0.118122 -15.4304 7.45074e-21)
(0.196347 -6.55868 7.46435e-21)
(7.56661 -26.963 -1.96909e-21)
(6.52458 -26.1027 1.80456e-20)
(5.70129 -26.5887 2.00663e-20)
(4.95971 -26.2326 0)
(4.31728 -26.4416 0)
(3.70804 -26.2194 -3.1824e-20)
(3.20492 -26.149 -2.33197e-22)
(2.7485 -25.9913 -1.51958e-22)
(2.36976 -25.8267 -1.48049e-22)
(2.00244 -25.7076 2.22845e-20)
(1.70648 -25.6031 0)
(1.42798 -25.4921 0)
(1.17441 -25.4197 0)
(0.994613 -25.313 2.32089e-20)
(0.758578 -25.2823 0)
(0.700738 -25.1295 2.3573e-20)
(0.389653 -24.5162 -2.22902e-20)
(0.454692 -21.7375 -8.18423e-21)
(0.1298 -15.419 -1.47361e-20)
(0.21803 -6.52388 -2.39528e-20)
(7.64518 -26.6121 -3.75686e-20)
(6.59046 -25.7946 7.63215e-20)
(5.79427 -26.4207 1.61338e-22)
(5.02469 -26.0971 -4.09533e-20)
(4.42697 -26.2523 0)
(3.79063 -26.006 -4.3211e-20)
(3.28877 -25.9663 1.09213e-19)
(2.81363 -25.8274 -6.61872e-20)
(2.42984 -25.6811 4.46755e-20)
(2.05122 -25.5791 -2.2579e-20)
(1.75032 -25.4952 -1.13248e-22)
(1.46486 -25.4002 2.29401e-20)
(1.20875 -25.3465 -2.30517e-20)
(1.02466 -25.2502 -1.15757e-20)
(0.788808 -25.2383 -1.16833e-20)
(0.729984 -25.0801 -2.35596e-20)
(0.397948 -24.4897 2.7044e-20)
(0.472714 -21.7156 -1.04429e-20)
(0.124593 -15.4014 5.90206e-21)
(0.234321 -6.47754 2.39139e-20)
(7.69156 -26.235 -6.55536e-20)
(6.73031 -25.5391 -1.94695e-20)
(5.92206 -26.1308 4.118e-20)
(5.09375 -25.8177 -6.28339e-20)
(4.48024 -26.0924 0)
(3.81493 -25.886 2.18967e-20)
(3.3309 -25.8743 -2.2026e-20)
(2.85146 -25.7477 0)
(2.4711 -25.6131 1.92709e-22)
(2.08775 -25.5165 0)
(1.78608 -25.4373 4.58013e-20)
(1.49486 -25.3418 0)
(1.23586 -25.2949 0)
(1.04801 -25.1988 4.67731e-20)
(0.811266 -25.1979 -2.34549e-20)
(0.755639 -25.0307 2.37276e-20)
(0.405858 -24.4644 0)
(0.490772 -21.7048 -5.0754e-21)
(0.125344 -15.3966 5.62639e-21)
(0.251342 -6.44188 0)
(7.77255 -25.9069 -3.46851e-20)
(6.79267 -25.2492 4.04936e-20)
(5.9745 -25.946 -1.06508e-19)
(5.13377 -25.6585 1.06334e-19)
(4.58412 -25.8892 -4.4212e-20)
(3.89731 -25.673 -2.1965e-20)
(3.4177 -25.6957 4.51093e-20)
(2.91841 -25.5858 4.54282e-20)
(2.5324 -25.4691 -2.26971e-20)
(2.13645 -25.389 -4.59577e-20)
(1.82869 -25.3296 2.31394e-20)
(1.53022 -25.2494 0)
(1.26728 -25.2212 0)
(1.07469 -25.136 2.05643e-22)
(0.834621 -25.1542 2.35412e-20)
(0.776586 -24.9795 -2.37045e-20)
(0.413719 -24.4416 0)
(0.511969 -21.6963 4.06059e-20)
(0.120366 -15.3948 3.98142e-20)
(0.26475 -6.39952 2.99249e-21)
(7.79566 -25.5698 1.10002e-19)
(6.9192 -24.991 -1.2251e-19)
(6.126 -25.643 4.29546e-20)
(5.2221 -25.3987 0)
(4.63227 -25.7421 4.44e-20)
(3.91882 -25.5493 -9.02197e-20)
(3.45298 -25.6014 4.52797e-20)
(2.94867 -25.5025 -4.55564e-20)
(2.56713 -25.3979 0)
(2.16765 -25.3226 0)
(1.85852 -25.2688 -4.66059e-20)
(1.5558 -25.1885 4.67729e-20)
(1.28914 -25.1677 0)
(1.09293 -25.0831 -7.05786e-20)
(0.849099 -25.1131 2.36239e-20)
(0.793589 -24.9289 2.37581e-20)
(0.421291 -24.4219 -1.9951e-20)
(0.532643 -21.6933 -5.0636e-20)
(0.113182 -15.3981 -2.69727e-20)
(0.277304 -6.36495 -5.97567e-21)
(7.94426 -25.2368 0)
(6.97555 -24.7239 8.62675e-20)
(6.16 -25.4545 -8.65155e-20)
(5.27944 -25.2098 0)
(4.72852 -25.5244 0)
(4.00437 -25.3388 9.16074e-20)
(3.54158 -25.4264 -9.18843e-20)
(3.01696 -25.3426 0)
(2.62849 -25.2562 -4.66401e-20)
(2.21603 -25.196 9.3597e-20)
(1.89944 -25.1613 -4.69582e-20)
(1.58982 -25.0956 -4.7135e-20)
(1.31769 -25.093 4.72781e-20)
(1.11609 -25.0191 0)
(0.866517 -25.0685 0)
(0.806918 -24.878 2.37989e-20)
(0.429304 -24.405 -2.97955e-20)
(0.551925 -21.6939 2.65605e-24)
(0.103407 -15.4058 1.6998e-20)
(0.288006 -6.32893 -5.96307e-21)
(8.01008 -24.887 -8.6149e-20)
(7.06109 -24.4419 8.64165e-20)
(6.25602 -25.1441 1.362e-19)
(5.32188 -24.9631 -1.82166e-19)
(4.75633 -25.3802 1.84273e-19)
(4.02 -25.2108 2.60751e-22)
(3.56897 -25.3271 -9.32979e-20)
(3.04043 -25.2555 0)
(2.65715 -25.1815 0)
(2.24252 -25.1258 -4.74817e-20)
(1.9235 -25.0975 0)
(1.61149 -25.0322 0)
(1.33478 -25.0372 0)
(1.1293 -24.9638 0)
(0.874978 -25.0259 0)
(0.81588 -24.8282 0)
(0.437596 -24.3912 1.98447e-20)
(0.56916 -21.6985 -2.02283e-20)
(0.0927966 -15.4183 5.30465e-21)
(0.297971 -6.29868 -5.94756e-21)
(8.1704 -24.532 3.64235e-20)
(7.15457 -24.1643 1.33679e-19)
(6.36926 -24.9575 4.64507e-20)
(5.43065 -24.7582 4.71345e-20)
(4.85975 -25.1617 -4.66526e-20)
(4.11008 -25.0084 -1.41883e-19)
(3.65814 -25.1553 -4.77471e-20)
(3.1088 -25.0983 0)
(2.71724 -25.0424 4.75289e-20)
(2.29029 -24.9999 -9.58972e-20)
(1.96241 -24.9902 -4.79206e-20)
(1.64457 -24.9388 -4.80141e-20)
(1.36139 -24.9612 0)
(1.1499 -24.898 -4.79033e-20)
(0.887886 -24.9794 -4.76765e-20)
(0.821793 -24.779 0)
(0.445673 -24.3806 0)