/*--------------------------------*- C++ -*----------------------------------*\
  =========                 |
  \\      /  F ield         | OpenFOAM: The Open Source CFD Toolbox
   \\    /   O peration     | Website:  https://openfoam.org
    \\  /    A nd           | Version:  9
     \\/     M anipulation  |
\*---------------------------------------------------------------------------*/
FoamFile
{
    format      ascii;
    class       volScalarField;
    location    "8.8";
    object      nut;
}
// * * * * * * * * * * * * * * * * * * * * * * * * * * * * * * * * * * * * * //

dimensions      [0 2 -1 0 0 0 0];

internalField   nonuniform List<scalar> 
46400
(
0.0192061
0.00508938
0.00129714
0.00151672
0.00142252
0.00143569
0.00137239
0.00134853
0.00127283
0.0012342
0.00119024
0.00116156
0.00111025
0.00108263
0.00106479
0.00103025
0.000983566
0.000939393
0.00125775
0.00101665
0.0187369
0.00463591
0.00131136
0.00158539
0.00144843
0.00144482
0.00137247
0.00135667
0.00128163
0.00125639
0.00121657
0.00117396
0.00113429
0.00108397
0.00104027
0.00101198
0.00094535
0.000844732
0.00109541
0.000959193
0.018218
0.0039664
0.00131627
0.00155476
0.00142109
0.0014297
0.00136377
0.00134866
0.00128514
0.00124064
0.00120106
0.00116828
0.00113128
0.00109945
0.00107383
0.00103512
0.000966304
0.000904393
0.00116811
0.000997846
0.0175043
0.00490409
0.00140472
0.001615
0.00147846
0.00145442
0.0013822
0.00135549
0.00129222
0.00125859
0.00121603
0.00116834
0.00112515
0.00107116
0.00104577
0.00103699
0.00100814
0.000912194
0.00119283
0.00105228
0.0168559
0.00501874
0.00149372
0.0016305
0.0014761
0.00145973
0.00137245
0.00134641
0.00128498
0.001236
0.00121187
0.00117189
0.00114921
0.00110213
0.00104655
0.00100993
0.000965974
0.000931529
0.00120867
0.0010637
0.0160579
0.00487172
0.0015008
0.00165648
0.00152558
0.00149048
0.00142185
0.00136549
0.00131836
0.00126044
0.00122556
0.00118583
0.00115318
0.00114386
0.0011071
0.00104995
0.000988279
0.000907646
0.00118186
0.00106243
0.0149519
0.00400476
0.00154399
0.00163926
0.00149927
0.00145135
0.00139099
0.0013429
0.00128604
0.00123221
0.00119671
0.00114949
0.0011173
0.0010803
0.00109705
0.00107327
0.00102988
0.000933434
0.00116515
0.00110854
0.012478
0.00303784
0.00151383
0.00157616
0.00153717
0.00147353
0.00141897
0.00135817
0.00132315
0.00124608
0.00122602
0.00120076
0.00115725
0.00109156
0.00105132
0.00106113
0.0010132
0.00094168
0.00113234
0.00104182
0.0101997
0.00250327
0.00161878
0.00154698
0.00147159
0.00143513
0.00140119
0.0013252
0.00130279
0.00123357
0.00115749
0.00113474
0.00112618
0.00109597
0.00105595
0.00102815
0.00102917
0.000956826
0.00115083
0.0011082
0.00807922
0.00207372
0.00155679
0.00151429
0.00148218
0.00140739
0.00140826
0.00133819
0.00130202
0.00130109
0.00123864
0.00115652
0.00112911
0.00108327
0.00105738
0.00100638
0.000957088
0.000906317
0.00101825
0.00101138
0.00685436
0.00189206
0.00162873
0.0015211
0.00145997
0.00138786
0.001368
0.00132052
0.00123852
0.00118805
0.00120071
0.00114572
0.00112184
0.0010995
0.00107446
0.00107718
0.00102847
0.000975636
0.00107584
0.00101414
0.00535723
0.00167046
0.0016112
0.00155413
0.00150334
0.00138031
0.00139219
0.00138573
0.00135015
0.00123954
0.00117498
0.00113024
0.00105824
0.00102328
0.000978807
0.00096061
0.000959087
0.000915674
0.00103301
0.00102704
0.00489301
0.00157028
0.00155516
0.00154167
0.001583
0.00137456
0.00127574
0.00126355
0.00130111
0.00131528
0.00127314
0.00124505
0.00120448
0.00114499
0.00109777
0.00102938
0.000979575
0.000932479
0.000984107
0.000982301
0.00441939
0.00162164
0.00156343
0.00143696
0.00159323
0.00159742
0.00140261
0.00127036
0.00119088
0.00116828
0.00115355
0.00112665
0.00111923
0.0011049
0.00108098
0.00107309
0.00100831
0.000960269
0.00100236
0.000955196
0.00464796
0.0016642
0.00155258
0.00136183
0.00131958
0.00142898
0.00148237
0.00141237
0.00132695
0.0012521
0.00119825
0.00115811
0.00109722
0.00108612
0.00103827
0.00104271
0.00101653
0.00096603
0.00100651
0.000962241
0.00443856
0.00186569
0.00170323
0.00154726
0.00133309
0.00128258
0.00127477
0.00130587
0.0012754
0.001265
0.00120501
0.00119221
0.00113168
0.0010941
0.00105625
0.00101309
0.00100708
0.000954675
0.00100331
0.000975487
0.00353104
0.00172949
0.00150012
0.0015868
0.00151536
0.00142299
0.00135723
0.00131012
0.00127986
0.00125249
0.00122366
0.00118991
0.00117532
0.00112515
0.00109701
0.00105156
0.00100912
0.000962698
0.0009919
0.000969275
0.00267745
0.00171026
0.00164781
0.00156696
0.00149668
0.00145589
0.00139211
0.00133827
0.00129705
0.00124957
0.00121792
0.00116559
0.00113752
0.00110496
0.00106969
0.00104732
0.00100809
0.000958756
0.00096871
0.000942533
0.000673256
0.000614008
0.0016981
0.00143638
0.00157186
0.00144057
0.0014426
0.00135714
0.00133603
0.00125637
0.00123704
0.00117669
0.00115121
0.00110252
0.0010819
0.00104476
0.00102387
0.000949377
0.000988729
0.000916804
0.00178767
0.00143633
0.00161345
0.00164364
0.00164279
0.00155051
0.00150355
0.00142242
0.00136015
0.00129027
0.0012445
0.00119328
0.00115718
0.0011218
0.00108069
0.00105014
0.0010126
0.000955021
0.000979782
0.000926554
0.00434017
0.0107544
0.0118277
0.00695122
0.00136426
0.000177915
0.000381792
0.000674244
0.000712815
0.000607162
0.000593011
0.000593993
0.000604171
0.000592474
0.000574392
0.000619268
0.00060683
0.000651099
0.000698721
0.000649087
0.00643778
0.0117875
0.0110966
0.00514973
0.000313516
0.000342428
0.00067358
0.000720319
0.000670637
0.000661333
0.000637538
0.00063643
0.000602123
0.000626193
0.000622434
0.000648309
0.00059194
0.000622624
0.000717117
0.000689833
0.00831994
0.0125391
0.0101723
0.00266836
0.000274514
0.000458957
0.000738695
0.000811509
0.000732289
0.000684034
0.000676566
0.000640054
0.000648167
0.000655278
0.000628404
0.000643904
0.00062293
0.000733399
0.000783185
0.000705772
0.0104228
0.0129903
0.00925787
0.00124056
0.0004497
0.000751796
0.000865507
0.000776709
0.000762561
0.000731742
0.000680008
0.00069212
0.000676814
0.000672038
0.000647404
0.000693423
0.000674268
0.000732623
0.000739326
0.000687367
0.0127041
0.0132291
0.00831452
0.000422835
0.000451736
0.000843529
0.000893914
0.000863909
0.000797388
0.000741561
0.000751441
0.000706635
0.000695818
0.000703376
0.000690366
0.000694754
0.000654033
0.000780129
0.000828887
0.000762033
0.0154563
0.0132333
0.00617172
0.00033737
0.000667567
0.000943497
0.000934499
0.000835467
0.000839142
0.000811667
0.000738534
0.000745548
0.000746924
0.000727993
0.000681347
0.000730353
0.000749857
0.000870351
0.000821934
0.000724221
0.0163436
0.0130906
0.00421429
0.000284038
0.000857488
0.00100504
0.000968249
0.000953334
0.000873708
0.000807631
0.000818348
0.000779016
0.000753938
0.00075094
0.000748032
0.000763778
0.000724251
0.000858977
0.000852306
0.000785511
0.0172658
0.0128012
0.00300113
0.000322326
0.00102055
0.00108031
0.00100745
0.00092892
0.000928135
0.000891196
0.000814959
0.000808766
0.000814245
0.000791027
0.000733148
0.000762494
0.000802695
0.000967007
0.00087336
0.000754258
0.0182183
0.0125764
0.00183745
0.00044969
0.00107243
0.00109649
0.00105417
0.00101556
0.000947094
0.000883511
0.000881666
0.000851422
0.00081973
0.000805586
0.000803015
0.000828139
0.000795222
0.000928048
0.000846043
0.000778878
0.018738
0.0121266
0.00144831
0.000568077
0.0011821
0.00114719
0.00108677
0.00101133
0.00100986
0.000963424
0.000891259
0.000873715
0.00087669
0.000856751
0.000794367
0.000792271
0.000832538
0.00100619
0.000875009
0.000769286
0.0195457
0.0118423
0.000939601
0.000887486
0.00121501
0.00116623
0.00114837
0.00107258
0.00101508
0.000964496
0.000942994
0.000917637
0.000883715
0.000862718
0.000854122
0.000870972
0.000840414
0.000968831
0.000838522
0.000778504
0.0198734
0.0113311
0.0014855
0.000920375
0.00128476
0.00119304
0.00115656
0.00108857
0.00107589
0.00102828
0.000964055
0.00093616
0.000931787
0.000922264
0.000861751
0.000830625
0.000858768
0.0010309
0.000878777
0.000809056
0.0202957
0.0109998
0.00120578
0.0011423
0.00132522
0.00122916
0.00121707
0.0011244
0.00107379
0.0010376
0.000992654
0.000970841
0.000934268
0.000909146
0.000899204
0.000892359
0.000849069
0.000961075
0.000808142
0.000796627
0.0204546
0.0106477
0.00227263
0.0011372
0.00136816
0.00125212
0.00122236
0.00116227
0.00112597
0.00108772
0.00103026
0.000987775
0.00097263
0.000972765
0.000918096
0.000868694
0.000869669
0.000998513
0.000823429
0.000809972
0.0205796
0.0104245
0.00203609
0.00125792
0.00141207
0.00129003
0.0012685
0.0011849
0.00113611
0.00111196
0.0010534
0.00103281
0.000988145
0.000960233
0.000959863
0.000932267
0.000872469
0.000940458
0.000774359
0.00082509
0.0205885
0.0101749
0.00195238
0.00125126
0.00142452
0.00131705
0.00127616
0.00122559
0.0011631
0.0011421
0.00109243
0.00104137
0.0010156
0.00101167
0.000962856
0.000916333
0.000905792
0.00095871
0.00074866
0.000824487
0.0204544
0.00944849
0.00190562
0.00132042
0.00144643
0.00136142
0.00131643
0.00125728
0.00120279
0.00118366
0.00112781
0.00110715
0.00105558
0.00102234
0.00101889
0.000980071
0.000933832
0.000942113
0.00071774
0.000839414
0.0202813
0.00833955
0.00174243
0.00139117
0.00143835
0.00138072
0.00131928
0.00127935
0.00120106
0.00119476
0.00115602
0.00110881
0.00108162
0.0010692
0.00101985
0.000987769
0.00100338
0.000984442
0.000701018
0.00086172
0.0199672
0.00721825
0.00163457
0.00141802
0.00144411
0.00141705
0.00135648
0.00131859
0.00125026
0.00122677
0.0011822
0.00116378
0.00111747
0.0010941
0.00108438
0.00104942
0.00104625
0.00103814
0.000742645
0.000858085
0.0196315
0.00641536
0.00175565
0.00151649
0.00145033
0.00143448
0.00135878
0.00132977
0.00124635
0.00123492
0.0012016
0.00116235
0.00114381
0.00113423
0.00110481
0.00112301
0.00116004
0.00111311
0.000930881
0.00101409
0.00482254
0.00294251
0.00239049
0.00162202
0.00142272
0.00102233
0.00084576
0.000649554
0.000642991
0.000676888
0.000609419
0.000550741
0.000492947
0.00047222
0.000447032
0.000547528
0.000691955
0.00566773
0.0105204
0.0153132
0.00497844
0.0029998
0.00176273
0.00158408
0.00147228
0.00107439
0.000855981
0.000700406
0.000691021
0.000721455
0.000648588
0.000574477
0.000481784
0.000460278
0.000435233
0.000529673
0.000635715
0.00566784
0.0104745
0.0153192
0.00497541
0.00304407
0.0025004
0.00171391
0.00150519
0.0011116
0.00084756
0.000707202
0.000698246
0.000708364
0.00061353
0.000555289
0.000497284
0.000481666
0.000440663
0.000516937
0.000595053
0.00564198
0.0105024
0.0151918
0.00524523
0.00316395
0.00221218
0.00170911
0.00162038
0.00117133
0.000917275
0.000749818
0.00075508
0.000752536
0.000652462
0.000578016
0.000486454
0.000473793
0.000428916
0.000491493
0.000546008
0.00566874
0.010455
0.0152066
0.00522397
0.00313142
0.00260372
0.00181808
0.00157737
0.00118369
0.000881016
0.000762656
0.000750375
0.00072973
0.000613618
0.000556229
0.000502446
0.000499213
0.00043685
0.00046152
0.000505708
0.00562114
0.0104776
0.0150966
0.00539585
0.00318093
0.00251069
0.00181699
0.00168121
0.00122307
0.000937666
0.000817873
0.000818657
0.000778173
0.000652055
0.000576321
0.000491078
0.000493396
0.000437348
0.000436885
0.00041826
0.00561701
0.010455
0.0151137
0.00547369
0.00317206
0.00268675
0.00194344
0.00161517
0.00123393
0.000918491
0.000824713
0.000805688
0.000752967
0.000614887
0.000556168
0.000505554
0.000516891
0.000454005
0.000440164
0.000351362
0.0055979
0.0104628
0.0150273
0.00552553
0.00315936
0.00260998
0.0019451
0.00165429
0.00125365
0.00095968
0.000875014
0.00087114
0.000798238
0.000649366
0.000574923
0.000492509
0.000507713
0.000452641
0.000437433
0.000282641
0.00556881
0.0104638
0.0150469
0.00562153
0.00316221
0.00268127
0.00205916
0.00162978
0.00125422
0.000979571
0.000888018
0.000844657
0.00077464
0.000617539
0.000560308
0.000506709
0.000525763
0.000463076
0.000445015
0.000236955
0.00554689
0.0104582
0.014988
0.00563539
0.00320012
0.00262248
0.0020469
0.00166407
0.00126262
0.00102254
0.000938601
0.000912884
0.000811078
0.000644121
0.000576197
0.000493533
0.000510851
0.000454219
0.00043968
0.0001735
0.00551421
0.0104595
0.0149962
0.00566825
0.00323863
0.00268762
0.00208741
0.00165893
0.00128479
0.00104353
0.000955576
0.000871801
0.000789246
0.000617975
0.000565873
0.000511552
0.000530091
0.000455407
0.000440856
0.000115293
0.00548085
0.0104476
0.0149719
0.00575202
0.00324693
0.00264643
0.00204455
0.00168142
0.0013119
0.00110155
0.00101108
0.000955286
0.000822467
0.000638561
0.00057637
0.000498866
0.00052421
0.000443033
0.000426898
5.74247e-05
0.00544531
0.010454
0.0149649
0.00585076
0.00331897
0.00271056
0.00204947
0.00166913
0.00134278
0.00111376
0.00103973
0.000899846
0.000806442
0.000617177
0.000567675
0.000507098
0.000541069
0.000456705
0.000427706
5.30496e-05
0.00541607
0.0104525
0.0149671
0.00585888
0.0033021
0.00264187
0.00201192
0.00167442
0.00138899
0.0011825
0.0010905
0.000959853
0.000844096
0.000638851
0.000577422
0.000492174
0.00052739
0.000444236
0.000421579
5.41528e-05
0.00535424
0.0104579
0.0149766
0.00595234
0.00330932
0.00265306
0.00202613
0.00165733
0.0013955
0.00118851
0.00112824
0.00093181
0.000829768
0.000631147
0.000572807
0.000500826
0.000543083
0.000457048
0.000427412
4.71058e-05
0.00530389
0.010462
0.0149753
0.00598386
0.00328854
0.00255887
0.00199137
0.00166163
0.00144808
0.00125072
0.00116682
0.000974664
0.000865496
0.000646263
0.000577077
0.000488376
0.00052788
0.000447113
0.000421784
4.27493e-05
0.00526798
0.0104836
0.0150164
0.00602722
0.00325682
0.00254451
0.00202922
0.00164248
0.0014308
0.00124986
0.00119969
0.000969556
0.000861435
0.000643591
0.000578562
0.000498571
0.000543303
0.000458558
0.00042918
3.74994e-05
0.00514447
0.0104573
0.0150404
0.00604701
0.00323003
0.00243672
0.00198967
0.00166402
0.00149395
0.00130457
0.00122732
0.00100909
0.000896922
0.000671353
0.000592157
0.000491286
0.000538572
0.00045775
0.000482717
4.15604e-05
0.00520769
0.0105273
0.0149896
0.00590031
0.00316164
0.00238539
0.00201072
0.00162832
0.00146457
0.00129242
0.00123427
0.00100873
0.000898222
0.000679369
0.000589832
0.000494938
0.000533776
0.000453313
0.000461271
5.19607e-05
0.00513006
0.0105933
0.0152358
0.0061923
0.00332152
0.00242236
0.00193961
0.00168323
0.00152952
0.00133438
0.00124277
0.00103877
0.000928377
0.000715514
0.000605048
0.000493816
0.000533897
0.00048396
0.000487919
0.000118744
0.00478102
0.0104569
0.0147582
0.0178522
0.0308666
0.0191239
0.0226116
0.0191639
0.0174938
0.0145277
0.0135389
0.0115039
0.0101857
0.00839721
0.00714601
0.00561986
0.00547393
0.00467175
0.00576147
0.00633151
0.0484909
0.0983258
0.135825
0.02594
0.0218496
0.0196414
0.0162461
0.014855
0.0126954
0.0104581
0.00972493
0.00847212
0.00736978
0.0065491
0.00591432
0.00504205
0.00440324
0.0038397
0.0037682
0.0129276
0.0466327
0.0961656
0.134187
0.0144689
0.0152624
0.0137944
0.0107924
0.00987871
0.00883015
0.00819059
0.00713737
0.00691176
0.00638206
0.00593381
0.00572869
0.0054762
0.00487064
0.00448809
0.00425659
0.00836066
0.0459173
0.0954102
0.132154
0.0118111
0.0100232
0.00861114
0.00770913
0.00748373
0.00743478
0.00694179
0.00637573
0.00588368
0.00548915
0.00519113
0.00481745
0.00448013
0.00415719
0.0039149
0.00286067
0.00891857
0.0430865
0.0954847
0.128097
0.00428925
0.00699298
0.00727825
0.00636875
0.00573892
0.0052567
0.00491561
0.00500807
0.00493976
0.00470826
0.00444085
0.00421718
0.00406474
0.00410982
0.00388161
0.00325311
0.00532913
0.0402124
0.0955854
0.126639
0.00560297
0.00530112
0.00446284
0.00393717
0.00414079
0.0045571
0.00442469
0.00404381
0.00402311
0.00403222
0.00402593
0.00392632
0.00388323
0.00382019
0.00377942
0.0026158
0.00606539
0.0347435
0.0958571
0.126268
0.00241708
0.00306847
0.00339529
0.00367794
0.00360058
0.00352694
0.00354109
0.00375948
0.00352869
0.00356277
0.00344756
0.0034417
0.00331736
0.00356269
0.00361377
0.00309935
0.00307408
0.0286868
0.0963003
0.129247
0.0025986
0.00267163
0.00259785
0.00249973
0.00259163
0.00290022
0.00272039
0.00278574
0.00293895
0.00308194
0.0031376
0.00330574
0.00328232
0.00357619
0.00363099
0.00303047
0.00417685
0.0218187
0.095367
0.134667
0.00106475
0.00145017
0.00173017
0.00187363
0.00211004
0.00243214
0.00250837
0.00256577
0.00250628
0.00265735
0.00265475
0.00282889
0.00266619
0.00299764
0.00325189
0.00362513
0.00304585
0.0165325
0.0923026
0.145116
0.00119666
0.00126729
0.00139146
0.0014225
0.0014483
0.00165048
0.00160281
0.00174102
0.00196084
0.00220798
0.00234515
0.00261696
0.00269792
0.00287781
0.00291324
0.0032401
0.00268554
0.00929992
0.084491
0.155648
0.000500074
0.000615995
0.000798661
0.000969651
0.000997701
0.00129825
0.00157125
0.00166199
0.00165152
0.00185805
0.00189998
0.00217955
0.00225974
0.00264391
0.00273368
0.00349941
0.00320577
0.00761954
0.0634543
0.169333
0.000408277
0.000484319
0.000625206
0.000766912
0.000685607
0.000741778
0.000873415
0.00116816
0.00129116
0.00150486
0.0016506
0.00188108
0.00211998
0.00225789
0.00251769
0.00266856
0.00356196
0.00449126
0.0471314
0.188594
0.00022887
0.000321944
0.000430653
0.000593914
0.000704575
0.000848069
0.000843499
0.000970142
0.00101159
0.00111608
0.00121044
0.00139332
0.00157071
0.00182109
0.00214667
0.00236223
0.00303207
0.00827716
0.0242856
0.150181
0.000285548
0.000345033
0.000336919
0.000393352
0.000376036
0.000451024
0.000539533
0.00064954
0.000734843
0.000934905
0.000985716
0.0012681
0.0012505
0.00173389
0.00160078
0.00243689
0.00227133
0.00443983
0.0142308
0.103833
0.000391636
0.000431958
0.000393661
0.000438333
0.000511419
0.000459178
0.000472038
0.000628036
0.00058326
0.000789541
0.000820178
0.00104103
0.00112586
0.00138219
0.00172357
0.00205992
0.00274561
0.00304395
0.00309533
0.0598958
0.000420809
0.000431562
0.000462974
0.000527711
0.000553062
0.000577382
0.000599049
0.000639551
0.000688583
0.000766354
0.000874925
0.000925588
0.00107496
0.00111494
0.00142112
0.00140317
0.00154872
0.00204229
0.00261571
0.0304287
0.000465566
0.00047771
0.000485566
0.000451907
0.000462104
0.000522058
0.000539798
0.000571656
0.000609517
0.000639793
0.000669266
0.0007199
0.000777502
0.000881322
0.000910092
0.00113025
0.00128784
0.00154568
0.00257351
0.0147886
0.000393988
0.000410865
0.000413768
0.000443901
0.000503334
0.000508642
0.000527869
0.000544881
0.000573708
0.000600996
0.00061891
0.000657354
0.000658169
0.000689625
0.000671325
0.000671924
0.000746773
0.00093069
0.00183761
0.0062234
0.000276002
0.00025818
0.000289679
0.000311396
0.000312591
0.000348891
0.000371473
0.000400114
0.000416292
0.000435302
0.000476166
0.000477349
0.000479824
0.000464534
0.000471042
0.000640949
0.000605372
0.000570984
0.000695492
0.00237019
0.000157159
0.000183631
0.000201647
0.000213617
0.000228276
0.000260171
0.000264951
0.000307627
0.000308805
0.000352942
0.00036622
0.000391745
0.000395053
0.000446176
0.000395503
0.000299969
0.000242203
0.000335106
0.000473352
0.000627268
0.014031
0.0140617
0.0138446
0.0139696
0.0136137
0.0137012
0.0136356
0.0134598
0.0135147
0.0126959
0.0129561
0.0122492
0.0115104
0.0113709
0.0113824
0.0105529
0.0097866
0.00973264
0.00933034
0.00917864
0.00688779
0.00688629
0.00679965
0.00676215
0.00670936
0.00668178
0.00653966
0.00661523
0.00627973
0.0064724
0.00616234
0.00684969
0.00709123
0.00670117
0.00653093
0.00659715
0.00647595
0.00574056
0.00639914
0.00727526
0.00408108
0.0040645
0.00406015
0.00407419
0.00413993
0.00416578
0.00423458
0.00419925
0.00434969
0.00433472
0.00426166
0.00423817
0.0036396
0.00388986
0.0038767
0.00394366
0.00334164
0.00344254
0.00308197
0.00342653
0.00258015
0.0025699
0.00256851
0.00255698
0.00251603
0.00249554
0.00243901
0.00240963
0.00231191
0.00231077
0.00222498
0.00218538
0.00236221
0.00223503
0.00223842
0.00248186
0.00237022
0.00268548
0.00241683
0.00275503
0.00154095
0.00153491
0.00153261
0.00152894
0.00152582
0.00152496
0.00152485
0.00152762
0.00161127
0.00167544
0.00166149
0.00183981
0.00173332
0.00169451
0.00150946
0.00152185
0.00153975
0.00152447
0.00140863
0.00146897
0.00108551
0.00107987
0.00107746
0.00107669
0.00107759
0.00107892
0.00108211
0.00108531
0.00109325
0.00105644
0.00102204
0.000921269
0.00089755
0.000987606
0.00110934
0.00114538
0.00107578
0.00111194
0.000920598
0.00105388
0.000629489
0.000628484
0.000629241
0.00063144
0.000632861
0.000637979
0.000641816
0.000650956
0.000658619
0.00067238
0.000705084
0.000812138
0.000833555
0.000766668
0.000683724
0.000688508
0.000704159
0.00079603
0.000850797
0.000731215
0.000452632
0.000454057
0.000457823
0.000460972
0.000464021
0.000468909
0.000472912
0.000480846
0.000486613
0.000493524
0.000495057
0.000476328
0.00045441
0.000499839
0.000493751
0.000509981
0.000421925
0.000435161
0.000424431
0.000463851
0.000221134
0.000216622
0.000220002
0.000223595
0.000228046
0.000231475
0.000236138
0.000242301
0.000249475
0.00025413
0.000258405
0.000259303
0.000261325
0.000274172
0.000273891
0.000326671
0.000371017
0.000305505
0.000224232
0.00020484
0.000134877
0.000132273
0.000130155
0.000127149
0.000126815
0.000128522
0.000127867
0.000130951
0.000135147
0.00013758
0.00014055
0.000144195
0.000149979
0.000147443
0.000155562
0.000159308
0.000117247
0.000197696
0.000211206
0.000209945
5.49397e-05
4.47283e-05
3.5263e-05
2.90757e-05
2.51149e-05
2.31536e-05
2.46548e-05
2.90585e-05
3.37484e-05
3.66679e-05
4.44911e-05
5.75605e-05
6.93237e-05
7.14912e-05
9.02037e-05
6.80762e-05
4.32519e-05
6.29338e-05
6.1611e-05
0.000101614
5.87145e-05
5.20911e-05
4.68527e-05
4.0595e-05
3.56122e-05
3.05251e-05
2.03211e-05
1.30784e-05
1.07361e-05
6.79878e-06
9.5118e-06
2.72337e-05
3.71408e-05
3.17955e-05
2.22183e-05
1.59192e-05
5.5693e-05
8.27567e-05
9.20941e-05
0.000102108
7.71496e-05
7.70787e-05
6.85656e-05
5.82064e-05
5.03617e-05
4.28958e-05
3.2617e-05
2.6181e-05
1.94168e-05
1.19582e-05
1.12138e-05
2.27183e-05
3.05192e-05
4.1599e-05
3.65924e-05
2.5568e-05
1.76374e-05
9.16502e-06
1.5998e-05
3.47979e-05
0.00011112
0.000108928
0.000105665
0.000102187
9.86607e-05
9.53825e-05
9.26876e-05
9.08833e-05
8.87872e-05
8.54359e-05
8.67675e-05
7.97756e-05
6.74249e-05
4.50411e-05
4.87926e-05
4.57161e-05
2.68758e-05
1.80054e-05
2.80901e-05
5.42822e-05
0.000124025
0.000121568
0.000121037
0.000119455
0.000116563
0.000113422
0.000114272
0.000111622
0.000106841
0.000101324
9.62731e-05
8.48949e-05
8.5529e-05
0.000101513
0.000122504
0.000114957
0.000101813
9.27767e-05
9.78731e-05
9.59596e-05
0.00011074
0.000107743
0.000106209
0.00010613
0.000106002
0.000103586
0.000102514
0.000103541
0.000104781
0.000106445
0.000109131
0.000114141
0.000115361
0.000103447
9.54938e-05
9.35258e-05
0.000102396
9.77691e-05
0.000102768
0.000100117
0.000107915
0.000109455
0.00010936
0.000108243
0.000109829
0.000115005
0.00011355
0.000106871
0.000104927
0.000104507
0.00010432
0.000102904
0.000104107
0.000107856
0.000111348
0.000108915
0.000109815
0.000105898
0.000111124
0.000112342
7.46716e-05
7.37066e-05
7.29352e-05
7.27465e-05
7.17089e-05
6.98389e-05
7.3898e-05
8.17253e-05
8.38828e-05
8.37657e-05
8.41759e-05
8.3932e-05
8.35246e-05
8.29411e-05
8.3968e-05
8.2352e-05
8.52702e-05
8.67745e-05
8.94401e-05
8.9707e-05
4.7705e-05
4.96712e-05
5.1619e-05
5.30036e-05
5.4452e-05
5.63553e-05
5.87189e-05
6.04096e-05
6.17011e-05
6.26423e-05
6.37202e-05
6.45721e-05
6.59115e-05
6.60805e-05
6.72079e-05
6.9474e-05
7.00755e-05
7.01203e-05
7.30288e-05
7.12653e-05
1.18527e-05
1.3427e-05
1.47291e-05
1.55952e-05
1.62993e-05
1.67215e-05
1.72332e-05
1.94764e-05
2.2153e-05
2.42455e-05
2.58462e-05
2.69887e-05
2.8025e-05
2.87708e-05
2.85661e-05
2.97667e-05
3.18104e-05
3.09877e-05
3.18814e-05
3.55384e-05
0.00114987
0.00139895
0.00105328
0.00114379
0.00118796
0.00118889
0.00122
0.00125609
0.00129397
0.00133446
0.00139357
0.00142971
0.00149737
0.0015364
0.00162538
0.00167474
0.00166936
0.00237323
0.00812482
0.0216792
0.00109791
0.00121596
0.000975015
0.00107385
0.0011419
0.00117305
0.00121076
0.00125188
0.00129291
0.00133994
0.00138425
0.00142512
0.00149586
0.00151896
0.00160257
0.0016253
0.00166527
0.00178917
0.00696357
0.021184
0.00110863
0.00130939
0.00101518
0.00107822
0.00114305
0.00116271
0.00120499
0.00124655
0.00128918
0.00132945
0.00138462
0.00142678
0.00149346
0.00152973
0.00162515
0.00163973
0.00173115
0.00154411
0.00618521
0.0206649
0.00117476
0.00130942
0.00099952
0.00108363
0.00113759
0.00117394
0.00120916
0.00124958
0.00128577
0.0013338
0.00138486
0.00142952
0.00148988
0.00151632
0.00160342
0.00160232
0.00169724
0.00145748
0.0051278
0.0200998
0.0011708
0.00132485
0.00102144
0.00109997
0.0011559
0.0011765
0.00121459
0.00125692
0.00129601
0.00134353
0.00139031
0.00142641
0.00148937
0.00152671
0.00161147
0.00162099
0.00175637
0.00151795
0.00480662
0.0194504
0.00119842
0.00131913
0.00103233
0.0011175
0.00116236
0.00119716
0.00123069
0.00126668
0.00130202
0.00135036
0.00138795
0.00144289
0.0015023
0.00153037
0.00161486
0.00160922
0.00170772
0.00154472
0.00528553
0.0187185
0.00121014
0.00132299
0.00105331
0.00113711
0.00118157
0.00120499
0.00122746
0.00126352
0.00130274
0.00134761
0.00138785
0.00143895
0.00148234
0.00152488
0.0016039
0.0016265
0.00178523
0.00162594
0.00530604
0.0179494
0.00119383
0.00127712
0.00104741
0.00112223
0.00116096
0.00118392
0.00121008
0.00126129
0.00130536
0.00134955
0.00139056
0.00143845
0.00148192
0.00153968
0.00162471
0.00162508
0.00177067
0.0016606
0.00514769
0.0171313
0.00117518
0.00125152
0.00105858
0.00112332
0.00116578
0.00118672
0.00122728
0.00127978
0.00128846
0.00132099
0.0013543
0.00141284
0.00146612
0.00153858
0.00158015
0.001646
0.00181797
0.00164478
0.00435979
0.0158646
0.00115097
0.0012141
0.00104131
0.00110563
0.00114226
0.00116941
0.00120868
0.00122862
0.00125179
0.00132082
0.00138286
0.00143457
0.00146911
0.0015251
0.00158501
0.0016653
0.00173045
0.00169721
0.00341215
0.0142251
0.00111084
0.00116037
0.00102659
0.00109532
0.0011295
0.00116143
0.00119023
0.00121928
0.00127442
0.00133809
0.00133907
0.00137331
0.00143418
0.00150899
0.00155923
0.00162931
0.00166913
0.0016973
0.00287837
0.0117656
0.00107778
0.00112013
0.00102506
0.00108452
0.00111354
0.00114996
0.00117592
0.00121683
0.00126367
0.00128614
0.00130409
0.00140799
0.00146596
0.00151956
0.00155266
0.00161979
0.00166344
0.00171159
0.00238909
0.00932272
0.00106123
0.00112059
0.00103852
0.00108566
0.00111853
0.00115085
0.00117858
0.00122322
0.00126349
0.00129239
0.00137331
0.00145316
0.00142446
0.00145212
0.00149282
0.00157901
0.0015904
0.00165734
0.0020367
0.00764263
0.00103618
0.0010805
0.00101666
0.00105915
0.00109563
0.0011261
0.00114846
0.00120142
0.00121871
0.00127735
0.00133494
0.00133258
0.00135587
0.00149905
0.00156203
0.00158544
0.00158055
0.00167767
0.0018703
0.00621364
0.00102147
0.00107508
0.00100868
0.00106464
0.00110193
0.00113127
0.00117785
0.00121862
0.00124885
0.00131005
0.0013191
0.00136534
0.00145631
0.00150797
0.00142989
0.00146412
0.00155304
0.00170929
0.00175444
0.00531208
0.00101521
0.00105404
0.00101636
0.00107399
0.00110101
0.00113436
0.00116247
0.00118845
0.001222
0.00125653
0.00126623
0.00132238
0.00133974
0.00133379
0.00136334
0.00157489
0.00165161
0.00173565
0.00177
0.00476493
0.000996597
0.00103078
0.00100912
0.00105132
0.00107868
0.0011093
0.00112686
0.00116774
0.0012003
0.00123696
0.00128505
0.00133209
0.00136265
0.00144158
0.00158178
0.00168079
0.00159074
0.001635
0.00164823
0.00441292
0.000979604
0.00103411
0.00100044
0.00105178
0.00108185
0.00110952
0.00114595
0.00118757
0.00122409
0.00126637
0.00132106
0.0013626
0.0014223
0.00147179
0.00148023
0.00138705
0.00140312
0.00151775
0.00167513
0.00390078
0.00096093
0.00100196
0.000980539
0.00103866
0.00106677
0.00110007
0.00113506
0.00117083
0.00120566
0.00123618
0.00126308
0.00129785
0.00133736
0.00135522
0.00137622
0.00143626
0.00156989
0.00168922
0.00187068
0.00411683
0.000969544
0.00100885
0.000980602
0.00103676
0.00106239
0.00109675
0.00112954
0.00116243
0.00120034
0.00123385
0.00127434
0.00131117
0.00133394
0.00138994
0.00145049
0.00154242
0.00161124
0.00158275
0.00180378
0.00251136
0.000833927
0.000963879
0.00100082
0.000920511
0.000845676
0.000786059
0.000816464
0.000808118
0.000804878
0.000801123
0.00080097
0.000814766
0.000868184
0.00082554
0.000430365
0.000154007
0.00397256
0.0127038
0.0148798
0.00573796
0.000830384
0.000955187
0.00100983
0.000943142
0.000910112
0.000848178
0.00083694
0.000832071
0.000850724
0.00085794
0.000861298
0.000890882
0.000945529
0.000952912
0.000759208
0.000345386
0.00201384
0.0115375
0.0153695
0.00867098
0.000847846
0.000964584
0.00105347
0.000986031
0.000925197
0.00085548
0.000884707
0.000894266
0.000896251
0.000904923
0.000925439
0.000942748
0.00095528
0.00104023
0.000983509
0.000570882
0.000764095
0.0104702
0.0155874
0.0112915
0.000843315
0.000960089
0.00105832
0.000984404
0.000966896
0.000916412
0.00091675
0.000917961
0.000941553
0.000956083
0.000958627
0.00100081
0.00106021
0.00112458
0.00109675
0.000735348
0.000324114
0.00950336
0.0155941
0.0138753
0.000880966
0.000979603
0.00109631
0.00103261
0.000994761
0.000928069
0.000952634
0.000971575
0.000978362
0.000992916
0.00102518
0.00104912
0.00107231
0.00113122
0.00119249
0.00095493
0.000464901
0.00735258
0.0154756
0.0168457
0.000872081
0.000967461
0.00109548
0.00101486
0.00100625
0.00096485
0.000976992
0.00098853
0.00101536
0.00103909
0.00104399
0.00108893
0.00114635
0.00119461
0.00126433
0.00112798
0.000316344
0.00527714
0.0154026
0.0182696
0.000907549
0.00098142
0.00113477
0.00106126
0.00103852
0.000991969
0.00101737
0.00104115
0.00105133
0.00106449
0.00110068
0.00113839
0.0011718
0.00122332
0.00131699
0.00124763
0.00042473
0.00396775
0.0150756
0.01958
0.000886067
0.000965154
0.00113907
0.0010367
0.00102776
0.00100405
0.00102255
0.0010376
0.00106726
0.00110199
0.00111701
0.00115864
0.00120304
0.0012759
0.00134441
0.00130039
0.000471341
0.00274076
0.014805
0.0204231
0.000937169
0.00099543
0.00116101
0.00107309
0.00106793
0.00104005
0.0010673
0.00109979
0.0011194
0.00112797
0.00115931
0.00120819
0.0012563
0.00131516
0.0013793
0.00142425
0.00062404
0.00198722
0.0144188
0.0210294
0.000911998
0.00096059
0.0011654
0.00104948
0.00103786
0.00103279
0.0010648
0.00108296
0.00110689
0.00114305
0.0011747
0.00122393
0.00126134
0.00134737
0.00140259
0.00144224
0.0008795
0.00150117
0.014046
0.0217773
0.000959289
0.000999225
0.00116985
0.00106228
0.00107619
0.00108124
0.00110876
0.00113822
0.00116767
0.00118132
0.00121461
0.00126063
0.00131626
0.00138993
0.00143614
0.00153085
0.0010387
0.00128125
0.0136436
0.0222291
0.000946211
0.000946947
0.00116435