/*--------------------------------*- C++ -*----------------------------------*\
  =========                 |
  \\      /  F ield         | OpenFOAM: The Open Source CFD Toolbox
   \\    /   O peration     | Website:  https://openfoam.org
    \\  /    A nd           | Version:  9
     \\/     M anipulation  |
\*---------------------------------------------------------------------------*/
FoamFile
{
    format      ascii;
    class       volScalarField;
    location    "8.8";
    object      p;
}
// * * * * * * * * * * * * * * * * * * * * * * * * * * * * * * * * * * * * * //

dimensions      [0 2 -2 0 0 0 0];

internalField   nonuniform List<scalar> 
46400
(
11.8054
19.3967
31.2761
41.6236
50.6393
59.1425
66.6485
73.5843
79.8222
85.574
90.8369
95.6676
100.159
104.33
108.275
112.042
115.573
119.287
123.221
124.324
43.0878
49.8998
60.1329
69.4909
77.568
85.1606
91.8954
98.0915
103.62
108.697
113.283
117.485
121.288
124.777
127.979
130.89
133.553
136.235
138.664
138.825
73.7725
78.6651
87.9496
96.6191
103.894
110.714
116.641
122.065
126.861
131.201
135.111
138.623
141.812
144.673
147.287
149.636
151.688
153.728
155.363
154.698
101.748
106.339
115.269
123.206
129.808
135.837
141.058
145.729
149.816
153.449
156.66
159.508
162.021
164.234
166.205
167.919
169.388
170.796
172.053
171.017
129.526
134.964
142.835
149.915
155.513
160.636
164.949
168.785
172.095
174.989
177.524
179.716
181.633
183.263
184.69
185.907
186.888
187.886
188.671
187.468
157.752
163.663
170.202
176.069
180.75
184.879
188.394
191.391
193.958
196.121
197.969
199.51
200.814
201.844
202.679
203.312
203.757
204.184
204.462
202.946
185.731
191.907
196.667
201.308
204.893
208.026
210.625
212.801
214.61
216.075
217.283
218.225
218.977
219.537
219.946
220.216
220.292
220.348
220.462
218.821
212.716
218.192
221.883
225.22
227.996
230.195
232.033
233.436
234.538
235.328
235.887
236.216
236.364
236.333
236.185
235.911
235.519
235.129
234.798
233.032
237.878
241.785
244.708
247.028
248.935
250.382
251.484
252.235
252.721
252.929
252.961
252.784
252.494
252.045
251.491
250.83
250.048
249.282
248.55
246.552
260.449
263.642
265.973
267.607
268.872
269.657
270.154
270.292
270.201
269.834
269.29
268.561
267.703
266.739
265.681
264.557
263.344
262.161
261.034
258.874
280.336
282.758
284.469
285.434
286.129
286.323
286.306
285.94
285.39
284.602
283.677
282.59
281.387
280.07
278.677
277.195
275.637
274.081
272.555
270.157
299.284
301.19
302.423
302.881
303.012
302.674
302.089
301.218
300.118
298.815
297.362
295.782
294.114
292.368
290.57
288.735
286.839
284.981
283.146
280.599
314.564
315.849
316.694
316.72
316.573
315.862
314.938
313.743
312.413
310.879
309.193
307.35
305.387
303.333
301.194
299.016
296.774
294.558
292.38
289.609
330.454
331.049
331.282
330.78
330.053
328.875
327.417
325.689
323.836
321.851
319.773
317.612
315.376
313.088
310.75
308.378
305.962
303.573
301.273
298.338
341.944
341.95
341.784
340.884
339.906
338.613
337.093
335.31
333.281
331.113
328.786
326.384
323.882
321.337
318.74
316.121
313.459
310.817
308.23
305.235
353.317
353.168
352.307
351.032
349.41
347.619
345.63
343.463
341.156
338.705
336.168
333.535
330.849
328.116
325.35
322.58
319.77
316.996
314.301
311.178
359.804
359.589
358.917
357.661
356.199
354.336
352.318
350.049
347.662
345.103
342.456
339.699
336.891
334.017
331.127
328.208
325.288
322.384
319.637
316.392
365.321
365.143
364.155
362.886
361.142
359.118
356.826
354.367
351.739
349.018
346.19
343.313
340.377
337.418
334.436
331.454
328.455
325.493
322.661
319.482
369.559
368.125
367.476
365.948
364.477
362.408
360.238
357.734
355.142
352.345
349.506
346.543
343.57
340.536
337.508
334.472
331.431
328.438
325.623
322.305
369.798
368.925
368.263
366.73
365.097
362.981
360.671
358.118
355.431
352.613
349.719
346.759
343.764
340.736
337.707
334.668
331.635
328.627
325.809
322.528
-276.02
-275.467
-273.554
-265.996
-257.054
-247.639
-237.656
-228.394
-219.256
-210.515
-201.963
-193.713
-185.751
-177.952
-170.55
-163.207
-156.318
-149.477
-142.958
-136.719
-277.98
-276.797
-274.141
-265.749
-255.55
-245.078
-234.68
-224.807
-215.215
-205.98
-197.148
-188.579
-180.399
-172.431
-164.879
-157.445
-150.463
-143.571
-137.035
-130.791
-282.796
-281.587
-276.104
-266.186
-254.117
-242.432
-231.463
-220.836
-210.803
-201.215
-192.006
-183.194
-174.766
-166.601
-158.902
-151.31
-144.274
-137.252
-130.732
-124.395
-287.38
-285.219
-275.952
-264.643
-251.582
-238.983
-227.317
-216.225
-205.659
-195.683
-186.164
-177.074
-168.42
-160.101
-152.229
-144.559
-137.415
-130.321
-123.79
-117.403
-287.161
-285.128
-273.872
-261.065
-247.352
-234.275
-221.969
-210.494
-199.582
-189.269
-179.49
-170.179
-161.334
-152.868
-144.891
-137.12
-129.933
-122.792
-116.308
-109.881
-283.23
-282.347
-270.122
-255.809
-241.742
-228.247
-215.497
-203.619
-192.398
-181.832
-171.805
-162.321
-153.324
-144.753
-136.66
-128.84
-121.599
-114.393
-107.919
-101.419
-280.596
-278.687
-266.641
-250.319
-235.219
-221.124
-207.898
-195.6
-184.041
-173.212
-163.025
-153.39
-144.3
-135.682
-127.571
-119.769
-112.555
-105.392
-99.0896
-92.5228
-275.46
-272.47
-258.257
-241.789
-226.066
-211.566
-198.148
-185.669
-173.986
-163.08
-152.797
-143.137
-134.026
-125.416
-117.312
-109.57
-102.429
-95.3418
-89.2026
-82.7817
-265.7
-262.21
-247.796
-230.738
-215.122
-200.486
-186.905
-174.359
-162.573
-151.599
-141.342
-131.675
-122.613
-114.074
-106.059
-98.4393
-91.3674
-84.4263
-78.4318
-72.0705
-255.454
-250.87
-235.196
-217.973
-201.937
-187.289
-173.615
-161.07
-149.349
-138.455
-128.254
-118.711
-109.763
-101.362
-93.477
-86.0324
-79.1384
-72.4018
-66.6397
-60.3984
-240.487
-235.399
-219.372
-202.205
-186.493
-172.049
-158.555
-146.175
-134.601
-123.856
-113.862
-104.479
-95.7225
-87.5029
-79.8179
-72.5792
-65.8317
-59.2959
-53.7415
-47.5441
-224.137
-218.241
-201.912
-185.058
-169.202
-155.042
-141.691
-129.529
-118.208
-107.695
-97.9289
-88.8029
-80.2964
-72.3317
-64.8772
-57.8827
-51.3568
-45.0541
-39.6222
-33.4897
-204.246
-198.004
-181.57
-165.105
-149.737
-135.96
-123.08
-111.262
-100.31
-90.1458
-80.741
-71.9527
-63.7834
-56.1501
-49.0472
-42.4229
-36.2241
-30.3125
-25.2949
-19.4207
-182.761
-176.168
-159.656
-143.772
-128.741
-115.412
-102.913
-91.5215
-80.9868
-71.2102
-62.2052
-53.7997
-46.024
-38.7627
-32.0086
-25.7281
-19.8654
-14.3167
-9.54538
-3.89343
-158.801
-152.023
-135.369
-120.438
-105.949
-93.172
-81.2866
-70.36
-60.3412
-51.0371
-42.4838
-34.5432
-27.1927
-20.3664
-14.0518
-8.22304
-2.75971
2.31645
6.66148
12.036
-133.625
-126.538
-109.658
-95.559
-81.8357
-69.6321
-58.3868
-48.0588
-38.5942
-29.8143
-21.7833
-14.3099
-7.45013
-1.07013
4.81714
10.2378
15.2953
19.9265
23.9422
29.043
-106.826
-99.352
-82.7049
-69.4419
-56.5458
-44.9912
-34.413
-24.6566
-15.7843
-7.54748
-0.0187882
6.9223
13.318
19.2137
24.62
29.57
34.2017
38.2937
41.8663
46.6452
-78.3501
-70.7121
-55.0164
-42.3946
-30.4441
-19.5815
-9.76227
-0.670138
7.57613
15.2325
22.2007
28.659
34.5526
40.0031
44.981
49.5362
53.7632
57.3548
60.5691
65.0026
-48.9453
-41.4771
-26.6752
-14.7443
-3.67269
6.49959
15.6234
24.0546
31.6791
38.7415
45.191
51.1071
56.5583
61.554
66.1135
70.3238
74.1935
77.3485
80.3258
84.9371
-18.8582
-11.2482
2.20097
13.3445
23.4031
32.7556
41.0942
48.8386
55.8215
62.322
68.2595
73.7947
78.8985
83.6807
88.154
92.3972
96.3276
99.9594
104.134
108.744
-105.945
-71.427
-37.5678
-17.9369
3.83938
16.2517
30.1811
38.9319
47.6629
53.7815
59.3241
63.8828
67.2893
70.7074
72.8209
75.2844
77.0399
78.6357
79.1432
79.5646
-100.111
-67.3974
-34.1787
-15.3918
6.08131
18.1223
31.6126
40.1833
48.6837
54.667
60.0496
64.5241
67.7524
71.1004
73.0591
75.5432
77.036
78.7939
79.2317
79.5727
-94.0096
-63.0265
-30.1661
-12.6386
8.23308
19.8686
33.0236
41.3763
49.6509
55.5762
60.7183
65.1485
68.2699
71.5644
73.3387
75.8169
77.0385
79.0991
79.3131
79.7006
-87.347
-58.3462
-26.5295
-9.81511
10.6728
21.8805
34.6462
42.7927
50.7771
56.6089
61.537
65.8661
68.8009
72.0114
73.6086
76.0698
77.0229
79.4326
79.3946
79.7407
-80.4357
-53.4355
-22.1211
-6.54321
13.0879
23.9568
36.2438
44.1731
51.8656
57.6204
62.2964
66.5669
69.3911
72.5276
73.9349
76.4111
77.0489
79.8043
79.5189
79.8633
-72.8123
-48.1902
-17.9501
-3.2638
15.7425
26.1418
38.0257
45.746
53.0886
58.7627
63.2106
67.3551
69.9947
73.0316
74.2852
76.8711
77.1526
80.1827
79.6077
79.9353
-64.7964
-42.5989
-13.2518
0.352988
18.4236
28.4436
39.7863
47.3038
54.3059
59.8775
64.0666
68.1305
70.6581
73.6
74.7183
77.3358
77.3518
80.6475
79.6988
80.0579
-56.22
-36.5656
-8.64364
4.0053
21.3236
30.8217
41.7155
49.024
55.6757
61.1249
65.0714
68.9906
71.3339
74.1569
75.1592
77.7867
77.5589
80.9618
79.8079
80.1647
-47.4568
-30.2394
-3.62639
7.95583
24.2525
33.3489
43.6276
50.7483
57.004
62.3442
66.0266
69.8477
72.0691
74.7704
75.6574
78.2827
77.8081
81.302
79.935
80.3091
-38.0256
-23.4713
1.3883
11.9757
27.3693
35.9425
45.6926
52.6129
58.4921
63.6918
67.1174
70.7806
72.8164
75.4224
76.189
78.7311
78.0466
81.5984
80.0731
80.4383
-26.9097
-16.276
6.75652
16.2307
30.5422
38.684
47.74
54.4834
59.9367
65.0157
68.1712
71.7108
73.6313
76.1814
76.8272
79.2069
78.3314
81.8942
80.1941
80.6022
-16.2376
-8.88979
12.1492
20.5774
33.84
41.5139
49.9289
56.4854
61.5365
66.4584
69.3479
72.7098
74.4584
76.9022
77.4556
79.7164
78.5945
82.1746
80.3123
80.7598
-5.33037
-1.07593
17.7926
25.1267
37.2201
44.4636
52.1006
58.4788
63.0988
67.8839
70.4981
73.7146
75.3427
77.6167
78.0783
80.2419
78.8779
82.4957
80.4032
80.9499
6.55871
6.90338
23.507
29.7834
40.6986
47.5259
54.4127
60.603
64.8093
69.4196
71.7704
74.7741
76.2352
78.3629
78.6932
80.8134
79.1368
82.7515
80.4512
81.1323
18.7729
15.2225
29.3051
34.5817
44.2401
50.6599
56.6996
62.6913
66.4838
70.9396
73.0185
75.7899
77.1694
79.1394
79.3382
81.3585
79.3987
83.0963
80.4268
81.3379
32.0765
23.9187
35.2551
39.464
47.8587
53.8919
59.1131
64.8919
68.2829
72.5474
74.3629
76.8839
78.0931
79.8597
79.9915
81.8027
79.6609
83.2678
80.3543
81.6321
45.3805
33.0666
41.3844
44.6674
51.6848
57.2909
61.5927
67.1091
70.1172
74.1959
75.7787
78.1316
79.1671
80.7815
80.7432
82.8501
79.8837
83.5114
80.2284
81.8418
58.53
41.2444
47.0081
49.6088
55.4486
60.7185
64.1394
69.393
72.0167
75.9339
77.2505
79.2537
80.1806
81.6637
81.4744
83.7291
80.0926
84.1078
80.2122
82.3941
76.2162
50.9599
52.5486
53.7394
58.5594
63.6088
66.2381
71.2156
73.5475
77.3329
78.4426
79.9941
80.8025
82.013
81.9166
83.7407
80.295
83.8826
79.9961
82.3245
97.5173
67.1516
61.4159
60.8389
63.7919
67.9232
69.6924
74.0095
76.0264
79.2789
80.1385
81.6775
82.3163
83.5506
83.528
85.2411
81.6915
83.8881
78.8357
83.176
135.653
136.977
114.363
112.895
101.948
102.116
97.3549
98.287
96.3811
98.0201
97.3673
99.6229
99.1031
100.91
99.7533
101.166
97.7381
101.455
83.5888
107.155
176.15
166.682
145.336
138.633
127.154
122.688
116.869
114.461
110.625
109.21
106.832
106.556
105.117
105.303
103.862
104.171
101.955
103.561
100.57
103.567
184.424
173.697
161.962
153.848
145.627
139.897
134.165
130.845
127.376
125.257
123.013
121.727
120.277
119.598
118.362
118.123
116.391
116.096
115.107
115.676
185.354
177.46
168.661
161.607
154.653
149.453
144.37
140.144
136.254
133.223
130.318
128.023
125.791
124.171
122.656
121.418
120.373
119.651
118.966
118.881
179.59
173.38
168.175
163.055
158.432
154.057
150.194
146.716
143.58
140.849
138.332
136.14
134.073
132.274
130.418
128.89
127.101
125.514
124.684
124.651
176.736
172.963
169.571
165.237
161.721
157.902
154.606
151.329
148.361
145.592
142.983
140.674
138.348
136.319
134.359
132.416
130.831
129.098
127.914
127.598
172.32
169.625
166.855
164.15
161.533
158.996
156.461
154.135
151.74
149.652
147.392
145.492
143.333
141.525
139.399
137.533
135.395
133.378
131.94
131.259
171.354
169.395
167.975
165.745
163.497
161.282
159.175
157.111
154.991
153.059
150.952
149.143
147.018
145.286
143.07
141.277
138.879
136.843
134.756
134.079
168.577
167.3
165.719
164.319
163.034
161.702
160.23
158.896
157.317
156.002
154.329
153.032
151.194
149.887
147.842
146.413
143.926
142.41
139.897
139.313
168.679
168.098
167.363
166.478
165.314
164.126
162.73
161.59
160.305
159.182
157.815
156.719
155.278
154.177
152.505
151.372
149.089
148.032
144.76
144.548
168.24
167.612
166.856
166.279
165.654
165.118
164.487
163.792
162.94
162.31
161.391
160.813
159.752
159.228
157.96
157.479
155.603
155.575
152.043
153.545
169.092
168.887
168.556
168.247
167.703
167.154
166.614
166.162
165.678
165.351
164.919
164.724
164.367
164.259
164.007
164.055
163.877
164.259
164.924
166.778
169.641
169.523
169.268
169.153
168.961
168.855
168.59
168.546
168.281
168.31
168.206
168.383
168.525
168.887
169.46
169.906
171.281
171.644
174.376
175.29
170.22
170.231
170.134
170.084
170.001
170.058
170.051
170.218
170.284
170.648
170.777
171.396
171.711
172.679
173.299
174.767
175.952
177.954
180.863
182.021
171.09
171.173
171.193
171.322
171.386
171.588
171.705
172.038
172.221
172.78
173.024
173.975
174.369
175.692
176.441
178.179
179.459
181.756
183.609
187.728
171.736
171.851
171.948
172.109
172.266
172.512
172.751
173.11
173.456
173.958
174.449
175.126
175.73
176.711
177.484
178.838
179.709
181.697
182.39
195.082
172.379
172.543
172.701
172.928
173.153
173.463
173.767
174.187
174.583
175.154
175.649
176.426
177.03
178.061
178.776
180.069
180.883
182.479
183.282
185.275
172.873
173.016
173.186
173.406
173.652
173.959
174.289
174.695
175.113
175.62
176.14
176.752
177.382
178.113
178.85
179.721
180.525
181.592
182.355
183.85
173.124
173.316
173.546
173.81
174.104
174.444
174.804
175.21
175.62
176.118
176.613
177.216
177.77
178.472
179.052
179.82
180.378
181.149
181.603
182.139
173.313
173.501
173.706
173.946
174.214
174.523
174.868
175.267
175.716
176.196
176.705
177.254
177.822
178.424
179.027
179.659
180.248
180.872
181.364
181.917
283.977
283.433
282.295
280.5
277.948
274.911
270.907
266.643
261.312
255.668
249.199
242.272
234.771
225.8
217.772
207.58
196.238
186.411
175.716
164.617
254.452
254.212
253.595
252.725
251.506
250.03
248.199
246.14
243.668
241.136
237.961
235
230.188
225.452
221.782
217.897
213.376
208.847
203.931
198.633
216.688
216.539
216.332
215.97
215.482
214.916
214.14
213.388
212.359
211.409
210.141
208.964
207.409
206.047
204.113
202.441
200.292
198.414
195.904
194.089
204.625
204.531
204.37
204.157
203.874
203.528
203.109
202.608
202.024
201.374
200.575
199.784
198.812
197.902
196.769
195.77
194.448
193.366
191.866
190.776
188.543
188.514
188.471
188.381
188.244
188.092
187.87
187.663
187.359
187.106
186.739
186.44
186.011
185.66
185.134
184.73
184.106
183.659
182.903
182.475
183.18
183.17
183.13
183.072
182.993
182.886
182.765
182.608
182.441
182.236
181.992
181.736
181.402
181.102
180.702
180.371
179.904
179.553
179.015
178.682
176.368
176.38
176.37
176.351
176.301
176.249
176.158
176.07
175.939
175.814
175.642
175.489
175.288
175.119
174.868
174.681
174.383
174.149
173.803
173.543
174.13
174.154
174.159
174.154
174.132
174.098
174.048
173.988
173.911
173.826
173.718
173.605
173.454
173.315
173.137
172.973
172.767
172.602
172.333
172.174
171.17
171.184
171.178
171.156
171.126
171.088
171.041
170.99
170.924
170.849
170.757
170.654
170.535
170.415
170.271
170.13
169.914
169.751
169.379
169.081
170.175
170.195
170.215
170.229
170.228
170.215
170.189
170.154
170.114
170.068
170.015
169.96
169.889
169.817
169.715
169.629
169.475
169.343
169.222
169.098
169.755
169.778
169.791
169.796
169.785
169.761
169.721
169.669
169.613
169.549
169.483
169.412
169.335
169.242
169.142
169.043
168.975
168.903
168.776
168.659
169.776
169.794
169.808
169.817
169.818
169.812
169.8
169.784
169.767
169.747
169.724
169.699
169.669
169.639
169.608
169.557
169.486
169.417
169.343
169.272
170.201
170.206
170.207
170.204
170.197
170.186
170.171
170.153
170.131
170.107
170.08
170.051
170.019
169.984
169.944
169.909
169.879
169.843
169.81
169.768
170.514
170.523
170.529
170.534
170.537
170.537
170.535
170.531
170.525
170.516
170.505
170.491
170.475
170.456
170.436
170.41
170.385
170.355
170.326
170.291
171.168
171.171
171.174
171.176
171.177
171.178
171.178
171.177
171.177
171.174
171.172
171.168
171.165
171.159
171.155
171.147
171.141
171.13
171.124
171.11
171.565
171.572
171.58
171.588
171.595
171.604
171.612
171.62
171.628
171.636
171.644
171.652
171.66
171.666
171.675
171.681
171.69
171.694
171.704
171.706
172.101
172.103
172.107
172.111
172.116
172.123
172.13
172.138
172.148
172.158
172.17
172.183
172.197
172.211
172.227
172.242
172.261
172.277
172.299
172.315
172.396
172.408
172.423
172.44
172.458
172.477
172.498
172.52
172.543
172.566
172.59
172.613
172.638
172.662
172.685
172.708
172.735
172.758
172.784
172.806
172.767
172.77
172.773
172.777
172.783
172.791
172.799
172.806
172.815
172.824
172.835
172.847
172.861
172.877
172.897
172.919
172.942
172.968
172.999
173.03
172.826
172.829
172.834
172.841
172.849
172.859
172.871
172.884
172.899
172.916
172.936
172.958
172.983
173.01
173.039
173.071
173.105
173.141
173.18
173.218
99.8407
97.4173
91.6458
86.185
80.8676
75.2015
69.2424
62.9363
56.2129
48.9799
41.2133
32.744
23.6215
13.5482
2.68265
-9.37668
-22.5595
-36.8347
-54.0072
-63.4286
114.825
113.453
109.494
105.273
101
96.3362
91.286
85.8437
79.9255
73.5035
66.5127
58.8651
50.5568
41.3923
31.4704
20.3895
8.39218
-4.88685
-20.5851
-29.659
131.437
131.154
128.215
124.745
121.195
117.237
112.909
108.206
103.076
97.4831
91.3879
84.6926
77.4163
69.3123
60.5368
50.6477
39.9888
27.965
13.968
4.88701
148.936
149.028
146.596
143.855
141.016
137.826
134.286
130.396
126.068
121.305
116.021
110.169
103.707
96.4932
88.6233
79.725
70.175
59.2256
46.9179
39.3415
166.576
167.1
165.195
163.051
160.821
158.236
155.329
152.09
148.468
144.449
139.961
134.967
129.424
123.188
116.331
108.489
99.9743
90.0639
79.0647
72.6894
184.018
184.774
183.335
181.742
180.073
178.119
175.884
173.363
170.477
167.222
163.515
159.329
154.594
149.196
143.182
136.209
128.608
119.638
109.302
103.845
201.058
202.063
201.023
199.939
198.79
197.379
195.71
193.781
191.528
188.966
185.992
182.611
178.71
174.245
169.178
163.232
156.664
148.67
139.281
133.758
217.252
218.42
217.835
217.238
216.595
215.743
214.68
213.409
211.866
210.037
207.832
205.255
202.208
198.65
194.519
189.588
184.111
177.157
169.213
162.959
232.12
233.555
233.51
233.427
233.32
233.031
232.549
231.87
230.939
229.76
228.265
226.47
224.247
221.627
218.447
214.675
210.311
204.741
198.845
191.923
246.305
247.984
248.384
248.761
249.116
249.329
249.369
249.271
248.962
248.467
247.698
246.667
245.252
243.484
241.216
238.477
235.113
230.945
226.296
219.967
258.965
260.89
261.779
262.636
263.489
264.211
264.799
265.259
265.54
265.632
265.474
265.089
264.382
263.398
261.972
260.158
257.783
254.906
251.335
246.684
270.723
272.93
274.235
275.528
276.802
277.971
279.017
279.965
280.743
281.388
281.813
282.072
282.025
281.733
280.984
279.943
278.336
276.291
273.562
269.882
281.643
284.057
285.675
287.309
288.947
290.505
291.97
293.354
294.6
295.73
296.668
297.41
297.864
298.094
297.96
297.531
296.576
295.279
293.229
290.346
290.939
293.525
295.502
297.493
299.479
301.395
303.232
304.993
306.635
308.173
309.522
310.738
311.701
312.495
312.909
313.084
312.721
312.065
310.62
308.423
299.388
302.205
304.42
306.684
308.955
311.175
313.327
315.426
317.418
319.32
321.062
322.678
324.05
325.235
326.05
326.695
326.839
326.766
325.843
324.264
306.687
309.601
312.007
314.488
316.983
319.428
321.824
324.164
326.419
328.579
330.617
332.517
334.242
335.793
337.106
338.239
338.922
339.35
338.913
337.971
312.365
315.389
317.973
320.65
323.335
325.989
328.608
331.193
333.713
336.171
338.521
340.772
342.856
344.795
346.463
347.903
348.844
349.633
349.621
349.563
317.146
320.313
323.032
325.876
328.724
331.565
334.363
337.148
339.858
342.511
345.053
347.48
349.74
351.804
353.622
355.186
356.478
357.482
358.045
358.135
320.165
323.32
326.112
329.025
331.964
334.881
337.79
340.666
343.503
346.268
348.957
351.532
353.97
356.242
358.307
360.134
361.69
362.859
363.576
363.596
322.31
325.608
328.483
331.509
334.556
337.596
340.617
343.626
346.578
349.488
352.3
355.025
357.601
360.028
362.224
364.215
365.801
367.087
368.15
368.402
-149.92
-156.839
-164.078
-171.847
-179.78
-188.251
-196.914
-206.028
-215.435
-225.26
-235.447
-246.032
-257.036
-268.529
-280.271
-292.597
-304.852
-314.654
-317.919
-318.173
-146.844
-153.993
-161.396
-169.457
-177.687
-186.532
-195.625
-205.248
-215.294
-225.837
-236.909
-248.512
-260.751
-273.616
-286.948
-301.348
-316.247
-328.952
-335.662
-336.151
-142.881
-150.295
-157.939
-166.314
-174.891
-184.126
-193.7
-203.844
-214.473
-225.695
-237.521
-250.022
-263.268
-277.314
-292.304
-308.449
-325.646
-341.471
-352.245
-353.117
-138.598
-146.238
-154.015
-162.634
-171.457
-180.999
-190.918
-201.462
-212.59
-224.372
-236.879
-250.144
-264.295
-279.354
-295.629
-313.043
-331.848
-350.094
-364.806
-365.522
-133
-140.854
-148.802
-157.641
-166.71
-176.521
-186.795
-197.724
-209.288
-221.576
-234.635
-248.529
-263.345
-279.231
-296.254
-314.535
-334.163
-354.018
-371.588
-374.294
-127.115
-135.208
-142.99
-152.028
-161.213
-171.191
-181.651
-192.795
-204.634
-217.229
-230.662
-244.985
-260.378
-276.834
-294.55
-313.767
-334.545
-356.424
-373.086
-377.947
-119.609
-127.691
-135.58
-144.628
-153.944
-163.999
-174.641
-185.952
-198.021
-210.893
-224.631
-239.321
-255.039
-271.859
-289.951
-309.664
-330.689
-352.581
-372.584
-378.229
-111.545
-119.727
-127.591
-136.607
-145.915
-155.977
-166.619
-177.981
-190.091
-203.039
-216.893
-231.701
-247.659
-264.724
-283.237
-303.214
-324.437
-348.005
-367.669
-372.138
-101.638
-109.797
-117.553
-126.481
-135.748
-145.721
-156.343
-167.688
-179.811
-192.796
-206.693
-221.593
-237.632
-254.812
-273.488
-293.686
-315.701
-339.625
-360.289
-365.761
-91.2313
-99.3868
-106.956
-115.719
-124.836
-134.66
-145.125
-156.328
-168.303
-181.15
-194.909
-209.675
-225.584
-242.646
-261.242
-281.29
-302.983
-326.88
-348.164
-354.116
-78.9325
-86.9472
-94.32
-102.833
-111.767
-121.349
-131.599
-142.58
-154.339
-166.969
-180.512
-195.088
-210.794
-227.712
-246.135
-265.927
-287.647
-311.298
-332.925
-339.877
-65.9858
-73.9014
-80.9866
-89.2103
-97.8566
-107.136
-117.081
-127.763
-139.208
-151.528
-164.742
-178.966
-194.298
-210.802
-228.782
-248.113
-269.272
-292.422
-314.265
-321.669
-51.4017
-59.0926
-65.8894
-73.7198
-82.0508
-90.9671
-100.551
-110.852
-121.906
-133.809
-146.589
-160.383
-175.26
-191.344
-208.876
-227.684
-248.503
-271.081
-292.864
-300.891
-35.9789
-43.4634
-49.9064
-57.3401
-65.2825
-73.7795
-82.9327
-92.8023
-103.403
-114.851
-127.157
-140.45
-154.798
-170.3
-187.173
-205.324
-225.484
-247.052
-268.827
-277.077
-19.1909
-26.3921
-32.4909
-39.4393
-46.9655
-55.0133
-63.7127
-73.1013
-83.2018
-94.1131
-105.842
-118.544
-132.243
-147.119
-163.304
-180.785
-200.204
-220.692
-242.541
-250.93
-1.37062
-8.33529
-14.0542
-20.5511
-27.643
-35.2291
-43.4395
-52.3225
-61.8898
-72.2397
-83.3936
-95.4807
-108.546
-122.712
-138.117
-154.785
-173.195
-192.735
-214.457
-222.979
17.3707
10.7509
5.41628
-0.549066
-7.18313
-14.2867
-21.9944
-30.346
-39.3554
-49.1199
-59.6318
-71.0633
-83.381
-96.815
-111.415
-127.235
-144.729
-163.35
-184.303
-193.032
36.9148
30.611
25.7107
20.2534
14.0598
7.40997
0.20531
-7.62452
-16.0891
-25.2457
-35.135
-45.8782
-57.4964
-70.1636
-83.9184
-98.899
-115.454
-133.168
-153.368
-162.192
58.5491
51.7804
47.0819
42.1355
36.3195
30.0355
23.2775
15.9514
8.052
-0.508041
-9.72615
-19.7783
-30.6017
-42.469
-55.3205
-69.3625
-84.8536
-101.392
-120.779
-129.85
83.8702
77.0955
71.1135
65.6924
59.8863
53.6178
47.0306
40.0246
32.5199
24.4702
15.8205
6.44828
-3.65488
-14.7085
-26.665
-39.8125
-54.2759
-69.8879
-88.1731
-97.178
74.4456
74.2792
73.3816
71.9124
70.2289
67.0862
65.1359
60.9941
57.9778
52.5656
47.7143
40.5377
32.7136
23.0096
10.2024
-3.45823
-24.6255
-45.129
-79.2109
-116.238
74.5971
74.4388
73.7169
72.1683
70.6995
67.5847
65.7925
61.7481
58.8532
53.5627
48.8622
41.8368
34.2197
24.7657
12.1827
-0.995931
-21.9967
-41.8756
-76.0949
-112.568
74.8011
74.6081
74.113
72.4428
71.1644
68.0778
66.4273
62.486
59.727
54.5601
50.0112
43.1404
35.7289
26.4917
14.1534
1.42635
-19.3496
-38.2989
-72.2424
-107.733
74.9677
74.7095
74.5083
72.7539
71.6411
68.6177
67.1248
63.3085
60.6696
55.631
51.2401
44.5238
37.3454
28.3338
16.3088
3.9984
-16.4559
-34.7066
-68.6951
-103.134
75.1695
74.8403
74.9127
73.0744
72.1873
69.1473
67.8017
64.1156
61.6115
56.7024
52.471
45.908
38.963
30.1504
18.455
6.52766
-13.5249
-30.8942
-64.3458
-97.2523
75.3745
75.0589
75.3482
73.4744
72.9217
69.729
68.5306
65.0063
62.6254
57.8484
53.7813
47.376
40.6862
32.0871
20.7769
9.23066
-10.3441
-26.9745
-60.0769
-91.5653
75.6384
75.2756
75.712
73.9191
73.6243
70.3493
69.3075
65.881
63.6395
58.9958
55.0925
48.8443
42.4103
34.0024
23.0898
11.8898
-7.13797
-22.8566
-55.0502
-84.5464
75.8816
75.5059
76.0592
74.3345
74.3113
71.107
70.2325
66.87
64.726
60.2178
56.4805
50.3974
44.2353
36.0372
25.5702
14.7313
-3.66937
-18.5571
-49.9785
-77.6183
76.1578
75.7815
76.4315
74.7355
75.0037
71.9118
71.1364
67.8403
65.8082
61.4409
57.8687
51.952
46.0607
38.0561
28.0483
17.5228
-0.172009
-14.0911
-44.2654
-69.4308
76.433
76.0624
76.8046
75.1698
75.6241
72.7069
72.0666
68.9182
66.9591
62.7359
59.329
53.5896
47.9797
40.1914
30.6771
20.4985
3.59149
-9.40033
-38.4111
-61.0858
76.7476
76.3965
77.2001
75.5969
76.2966
73.4692
72.9377
69.9767
68.1006
64.0311
60.7897
55.2308
49.8991
42.3183
33.3118
23.422
7.39085
-4.58049
-32.0323
-51.6514
77.1012
76.7392
77.5976
76.0691
77.0379
74.3633
73.8535
71.1018
69.3097
65.3928
62.3166
56.9503
51.9018
44.5555
36.0718
26.5202
11.4489
0.469613
-25.459
-41.7746
77.4688
77.1233
78.0063
76.5705
77.7679
75.2184
74.8389
72.2034
70.5103
66.7541
63.8446
58.6757
53.9064
46.7939
38.8449
29.576
15.5556
5.61075
-18.4561
-30.9228
77.8589
77.5255
78.4214
77.0928
78.5373
76.0117
75.8653
73.3728
71.7794
68.1785
65.4353
60.4763
55.9881
49.1401
41.7211
32.7984
19.9076
10.9456
-11.25
-19.4409
78.2556
77.9285
78.8559
77.5969
79.3361
76.8165
76.8609
74.5235
73.0354
69.5991
67.0239
62.2781
58.0631
51.4791
44.584
35.9564
24.2572
16.2489
-3.71931
-6.95993
78.651
78.2716
79.2
78.1323
80.1416
77.7237
77.9404
75.7363
74.349
71.0675
68.6582
64.1352
60.1922
53.9027
47.5116
39.2663
28.841
21.7557
4.2873
6.54721
79.0002
78.5198
79.5849
78.68
81.0223
78.6418
78.9955
76.9617
75.6748
72.5659
70.3364
66.055
62.4033
56.4443
50.5955
42.7613
33.6861
27.4632
12.6889
20.543
79.4479
78.8822
80.6412
79.2243
81.941
79.6709
80.135
78.2459
77.0676
74.1165
72.0631
68.0198
64.6355
58.982
53.5482
46.1079
38.2096
32.5087
20.3946
34.7062
79.6068
78.9094
80.6547
79.7052
82.7565
80.5969
81.1463
79.3868
78.2699
75.4349
73.5092
69.6403
66.4076
60.9401
55.7162
48.5342
41.6223
36.439
29.0177
54.4097
80.212
78.1859
79.8711
80.3793
83.6849
81.7785
82.356
80.709
79.7118
77.0963
75.3837
71.8439
69.0362
64.1716
59.8792
53.7575
49.0483
45.5705
44.4807
76.934
96.1355
87.2856
92.7993
90.6115
92.5062
91.5362
92.2321
91.5743
92.1885
91.8747
92.7064
92.4437
94.3681
94.8163
98.7842
100.466
108.186
113.103
126.932
117.386
97.306
94.9212
97.1386
96.6635
98.1772
97.9551
99.1406
99.5255
100.773
101.713
103.854
106.022
109.85
113.085
119.693
124.645
136.056
142.784
163.961
172.968
111.147
110.551
110.678
111.293
111.821
112.729
113.865
115.063
116.884
118.728
121.528
124.044
127.718
131.394
136.853
142.274
150.373
157.824
169.804
178.633
114.992
115.112
115.247
116.14
117.343
118.542
120.225
122.179
124.643
127.208
130.246
133.484
137.63
141.829
147.335
152.657
159.984
166.409
175.976
181.933
121.539
121.612
122.295
123.904
125.197
126.876
128.589
130.599
132.63
134.86
137.471
140.275
143.538
147.004
150.957
155.186
159.777
164.641
169.58
176.226
126.227
126.584
127.343
128.834
129.949
132.042
133.877
135.894
138.18
140.554
143.287
145.98
149.227
152.28
156.075
159.422
163.695
167.122
172.228
174.505
130.261
130.792
131.872
133.317
135.003
136.843
138.746
140.635
142.785
144.788
147.11
149.327
151.809
154.271
156.886
159.551
162.254
164.96
167.142
169.9
133.009
133.492
135.099
136.843
139.036
140.823
142.979
144.75
146.913
148.738
150.953
152.85
155.127
157.106
159.389
161.428
163.571
165.691
168.027
169.461
135.7
136.302
138.693
140.747
143.309
145.028
147.23
148.752
150.742
152.208
154.084
155.564
157.391
158.88
160.68
162.167
163.988
165.318
166.393
167.632
139.49
140.084
142.93
144.901
147.6
149.24
151.253
152.632
154.327
155.585
157.124
158.356
159.809
160.971
162.351
163.462
164.668
165.707
166.992
167.765
147.277
146.34
151.31
152.105
154.348
155.321
156.805
157.625
158.851
159.621
160.724
161.485
162.532
163.283
164.301
165.019
166.018
166.725
167.404
167.956
160.429
158.182
159.574
158.866
160.502
160.508
161.453
161.725
162.433
162.831
163.487
163.957
164.614
165.101
165.746
166.2
166.805
167.204
167.755
168.128
173.625
171.417
169.391
169.322
168.085
168.07
167.451
167.434
167.239
167.253
167.316
167.38
167.6
167.725
168.038
168.209
168.571
168.753
169.114
169.249
179.971
179.761
176.465
174.734
173.2
171.946
171.171
170.341
170.046
169.54
169.476
169.204
169.266
169.17
169.314
169.304
169.495
169.526
169.743
169.782
188.638
184.734
182.089
179.617
177.964
176.465
175.319
174.142
173.51
172.734
172.33
171.833
171.605
171.274
171.174
170.981
170.966
170.853
170.919
170.858
195.329
182.739
181.825
179.563
178.804
176.998
176.398
175.141
174.689
173.87
173.516
172.951
172.688
172.281
172.1
171.86
171.767
171.639
171.619
171.486
187.299
184.435
183.704
181.176
180.409
178.932
178.179
177.019
176.339
175.468
174.947
174.341
173.971
173.578
173.335
173.027
172.823
172.562
172.386
172.229
191.681
181.97
181.919
180.437
179.982
178.71
178.178
177.254
176.76
176.047
175.574
174.989
174.571
174.101
173.739
173.407
173.129
172.901
172.707
172.599
182.61
181.201
181.039
180.321
179.852
178.998
178.426
177.646
177.103
176.438
175.969
175.438
175.054
174.647
174.345
174.027
173.817
173.57
173.408
173.208
190.537
181.466
181.182
180.304
179.807
179.027
178.486
177.781
177.242
176.642
176.146
175.643
175.212
174.802
174.449
174.123
173.854
173.622
173.454
173.256
149.158
161.543
173.588
185.398
196.573
207.711
218.335
227.814
236.577
245.117
252.094
258.322
264.018
268.874
273.147
276.63