/*--------------------------------*- C++ -*----------------------------------*\
  =========                 |
  \\      /  F ield         | OpenFOAM: The Open Source CFD Toolbox
   \\    /   O peration     | Website:  https://openfoam.org
    \\  /    A nd           | Version:  9
     \\/     M anipulation  |
\*---------------------------------------------------------------------------*/
FoamFile
{
    format      ascii;
    class       volScalarField;
    location    "5.7";
    object      p;
}
// * * * * * * * * * * * * * * * * * * * * * * * * * * * * * * * * * * * * * //

dimensions      [0 2 -2 0 0 0 0];

internalField   nonuniform List<scalar> 
46400
(
-3.16258
4.16189
17.8941
29.269
39.4821
48.852
57.1764
64.8086
71.6812
77.9593
83.663
88.9033
93.7329
98.2204
102.463
106.529
110.428
114.709
119.163
120.729
24.0833
31.9765
44.0438
54.3723
63.5143
71.948
79.4435
86.3239
92.504
98.1714
103.29
107.978
112.248
116.139
119.683
122.906
125.8
128.526
131.046
131.472
52.4921
59.2907
69.9268
79.3232
87.4468
94.9604
101.538
107.527
112.852
117.657
121.973
125.853
129.368
132.534
135.409
138.014
140.317
142.537
144.534
144.34
79.9748
85.655
95.085
103.522
110.77
117.442
123.278
128.536
133.184
137.334
141.007
144.262
147.132
149.655
151.854
153.766
155.358
156.846
158.152
157.424
106.355
110.971
119.602
127.225
133.601
139.402
144.378
148.806
152.654
156.036
159
161.575
163.836
165.783
167.47
168.908
170.092
171.195
172.166
171.217
130.814
135.297
143.382
150.219
155.851
160.867
165.115
168.807
171.969
174.671
176.977
178.923
180.556
181.906
183.006
183.885
184.534
185.12
185.687
184.506
155.047
160.217
167.123
172.961
177.551
181.624
184.972
187.825
190.206
192.175
193.813
195.121
196.187
196.996
197.614
198.031
198.255
198.426
198.603
197.234
179.043
184.825
190.083
194.928
198.617
201.74
204.299
206.341
208.016
209.283
210.271
210.95
211.408
211.643
211.712
211.616
211.359
211.067
210.772
209.154
202.809
208.243
212.152
215.614
218.32
220.47
222.158
223.405
224.318
224.918
225.264
225.377
225.287
225.019
224.599
224.051
223.366
222.669
221.966
220.14
225.328
229.392
232.422
234.81
236.746
238.089
239.107
239.67
239.979
239.957
239.744
239.286
238.68
237.894
237.001
235.975
234.851
233.707
232.569
230.449
244.93
247.983
250.196
251.734
252.861
253.534
253.869
253.849
253.564
253.027
252.318
251.436
250.419
249.263
248.003
246.642
245.194
243.75
242.344
240.044
262.331
264.711
266.313
267.153
267.742
267.767
267.607
267.016
266.239
265.157
263.94
262.545
261.062
259.458
257.784
256.02
254.187
252.35
250.519
248.09
277.159
278.865
279.923
280.191
280.196
279.739
279.063
278.105
276.983
275.623
274.08
272.36
270.528
268.585
266.576
264.489
262.337
260.17
258.015
255.283
290.515
291.626
292.239
291.98
291.533
290.531
289.35
287.861
286.264
284.474
282.577
280.539
278.41
276.199
273.927
271.615
269.251
266.898
264.597
261.771
300.959
301.384
301.666
301.084
300.385
299.164
297.79
296.059
294.181
292.092
289.908
287.59
285.195
282.713
280.185
277.613
275.005
272.409
269.885
266.919
310.122
309.993
309.769
308.812
307.679
306.117
304.362
302.349
300.167
297.829
295.378
292.843
290.237
287.574
284.87
282.139
279.379
276.635
273.992
270.927
315.589
315.51
314.949
313.842
312.559
310.886
309.02
306.874
304.572
302.08
299.49
296.783
294.028
291.207
288.361
285.484
282.589
279.707
276.941
273.799
320.057
319.977
319.121
317.762
316.109
314.156
311.985
309.629
307.121
304.484
301.741
298.917
296.033
293.107
290.158
287.193
284.209
281.246
278.39
275.205
321.695
321.262
320.513
319.216
317.51
315.502
313.233
310.768
308.16
305.409
302.584
299.652
296.696
293.671
290.656
287.608
284.57
281.531
278.638
275.357
321.202
320.577
319.766
318.358
316.707
314.688
312.454
309.977
307.361
304.57
301.717
298.75
295.766
292.717
289.68
286.619
283.568
280.536
277.651
274.407
-137.992
-137.805
-137.404
-138.055
-135.285
-131.368
-126.931
-122.304
-117.629
-112.919
-108.433
-103.901
-99.5563
-95.1658
-91.0553
-86.8712
-82.9416
-79.0232
-75.2261
-71.6404
-142.359
-142.372
-141.629
-140.416
-136.854
-132.364
-127.67
-122.521
-117.43
-112.378
-107.422
-102.579
-97.8758
-93.2009
-88.7663
-84.3061
-80.1384
-75.9621
-71.9705
-68.1901
-149.3
-148.798
-148.844
-145.014
-140.368
-134.885
-129.013
-123.423
-117.703
-112.168
-106.776
-101.477
-96.3798
-91.3288
-86.5918
-81.8299
-77.4185
-72.9689
-68.81
-64.8111
-158.592
-157.753
-157.14
-151.691
-145.125
-138.365
-131.588
-124.942
-118.503
-112.264
-106.21
-100.385
-94.7856
-89.346
-84.2094
-79.1144
-74.4126
-69.6795
-65.318
-61.0978
-171.619
-171.08
-167.522
-159.855
-151.198
-142.514
-134.495
-126.687
-119.281
-112.267
-105.56
-99.1517
-93.0508
-87.1589
-81.6408
-76.2168
-71.2317
-66.2209
-61.6889
-57.2336
-185.274
-184.292
-177.449
-167.12
-156.245
-146.043
-136.555
-127.752
-119.392
-111.583
-104.189
-97.2031
-90.5939
-84.3076
-78.4111
-72.6773
-67.4256
-62.1638
-57.4664
-52.7968
-194.68
-193.937
-183.64
-171.452
-159.147
-147.773
-137.195
-127.459
-118.382
-109.906
-101.946
-94.4807
-87.4428
-80.7769
-74.5434
-68.5377
-63.0341
-57.5478
-52.7104
-47.834
-201.81
-199.468
-186.878
-173.112
-159.734
-147.492
-136.067
-125.607
-115.842
-106.819
-98.3713
-90.4771
-83.0894
-76.147
-69.6684
-63.4778
-57.8308
-52.1943
-47.3053
-42.3093
-203.525
-199.778
-187.232
-172.089
-157.824
-144.736
-132.79
-121.765
-111.562
-102.132
-93.3453
-85.1803
-77.5427
-70.4009
-63.739
-57.4312
-51.6693
-45.964
-41.1224
-36.0679
-201.794
-198.181
-183.098
-167.757
-153.212
-139.687
-127.288
-115.959
-105.408
-95.7041
-86.6847
-78.299
-70.5068
-63.2351
-56.4814
-50.1412
-44.3481
-38.6547
-33.8804
-28.7918
-196.743
-193.176
-178.733
-161.605
-146.54
-132.611
-119.787
-108.146
-97.3705
-87.4662
-78.3001
-69.8209
-61.9354
-54.6147
-47.7902
-41.4218
-35.5603
-29.8599
-25.1038
-19.8737
-189.863
-184.959
-168.731
-151.866
-136.356
-122.47
-109.616
-97.9608
-87.1915
-77.289
-68.1395
-59.6528
-51.7974
-44.4753
-37.6765
-31.3384
-25.4603
-19.7533
-14.9375
-9.45577
-177.269
-172.095
-156.162
-139.367
-124.244
-110.418
-97.6197
-86.0131
-75.3022
-65.4763
-56.4251
-48.0718
-40.351
-33.2078
-26.5622
-20.4177
-14.7076
-9.24332
-4.65451
0.78176
-163.689
-157.497
-141.028
-124.625
-109.296
-95.7635
-83.1571
-71.7571
-61.3016
-51.6928
-42.8716
-34.7206
-27.2168
-20.2556
-13.8271
-7.89934
-2.37315
2.81999
7.22826
12.4897
-145.319
-139.007
-122.932
-107.262
-92.4745
-79.289
-67.1045
-56.0287
-45.8818
-36.5826
-28.0619
-20.2219
-13.0315
-6.40199
-0.284683
5.30465
10.5366
15.3436
19.3922
24.5827
-126.322
-119.66
-103.154
-87.8811
-73.4628
-60.7513
-48.9999
-38.3262
-28.6135
-19.7005
-11.5724
-4.09902
2.73108
9.02218
14.7792
20.027
24.9522
29.2905
33.0561
38.0776
-103.996
-97.3689
-80.7286
-66.4856
-52.8602
-40.7242
-29.6052
-19.4553
-10.2051
-1.7392
5.98517
13.0623
19.5018
25.3971
30.7536
35.6045
40.1413
43.8895
47.1597
52.0048
-81.0242
-73.903
-57.5929
-43.9113
-31.0142
-19.4776
-8.95557
0.656577
9.3413
17.307
24.5214
31.1399
37.1359
42.6095
47.5314
51.9805
56.0454
59.1192
61.7987
66.1352
-56.1035
-48.8218
-33.0628
-20.1376
-7.99004
2.90639
12.7862
21.8379
30.0526
37.5694
44.4068
50.6615
56.3382
61.4943
66.1424
70.3583
74.1065
76.8591
79.6327
84.2397
-29.8402
-22.442
-7.598
4.37901
15.5223
25.6521
34.7702
43.188
50.8073
57.8742
64.3459
70.4037
76.042
81.3583
86.407
91.3016
95.87
100.176
106.199
110.824
-53.7071
-33.9702
-13.3957
-2.11892
10.925
18.046
26.3766
31.4856
36.6426
40.5238
43.7185
46.7899
48.8344
51.2953
52.6614
54.7716
55.792
56.6247
57.394
57.12
-49.4559
-30.7902
-10.3029
0.491701
13.5013
20.2895
28.4044
33.2561
38.186
41.9013
44.9179
47.873
49.769
52.1238
53.335
55.3638
56.2272
57.0293
57.702
57.3798
-45.3738
-27.0247
-6.50848
3.51445
16.1524
22.4863
30.3597
34.9841
39.7144
43.2857
46.1257
48.9576
50.6984
52.9415
53.9908
55.9424
56.6819
57.5092
58.0782
57.7019
-40.9262
-23.5143
-3.14918
6.35678
18.8542
24.7992
32.4257
36.8022
41.287
44.7028
47.3535
50.0694
51.6596
53.7942
54.6683
56.5705
57.1006
57.8991
58.3922
57.9602
-36.4499
-19.642
0.618344
9.3362
21.5278
27.0508
34.4077
38.5858
42.8425
46.1258
48.5891
51.1852
52.6188
54.629
55.3235
57.1867
57.5083
58.2601
58.7994
58.2987
-31.6158
-15.8371
4.34902
12.3829
24.3027
29.4631
36.4942
40.4556
44.4414
47.5818
49.8472
52.3279
53.6113
55.5068
56.0062
57.8427
57.9074
58.6044
59.1005
58.5826
-26.3945
-11.7794
8.14896
15.4952
27.0019
31.7973
38.5097
42.2942
46.027
49.0421
51.1129
53.4755
54.6058
56.3628
56.7383
58.5133
58.293
58.9395
59.4101
58.8857
-20.8741
-7.43842
12.0407
18.7678
29.8406
34.2893
40.6202
44.2113
47.6533
50.5349
52.4027
54.6504
55.634
57.2927
57.5057
59.2039
58.6869
59.3124
59.7189
59.1612
-15.238
-2.76928
15.9795
22.0374
32.6044
36.7131
42.674
46.1028
49.2702
52.0299
53.7
55.829
56.6597
58.1805
58.1574
59.8988
59.1027
59.7541
60.0077
59.4436
-9.01776
2.04051
20.1212
25.4491
35.4996
39.2745
44.8084
48.0627
50.9252
53.5556
55.0225
57.0353
57.7248
59.1305
58.8544
60.621
59.4968
60.193
60.2901
59.7179
-0.240953
7.32633
24.7506
28.8731
38.3469
41.7906
46.9019
50.0015
52.5746
55.0813
56.3518
58.2438
58.7879
60.0384
59.569
61.35
59.8846
60.5956
60.5475
59.9903
8.43769
12.7385
29.8118
32.5034
41.2889
44.419
49.0605
51.9979
54.2587
56.6347
57.7061
59.4804
59.8941
61.0168
60.3566
62.1015
60.2641
60.9828
60.7839
60.2605
16.2238
18.5323
34.1359
36.1122
44.1719
47.0148
51.1927
53.9762
55.9404
58.1858
59.066
60.7171
60.9951
61.9587
61.1226
62.8856
60.6462
61.3668
60.9884
60.5229
24.564
24.526
38.5373
39.9225
47.1449
49.6985
53.3805
56.0032
57.6547
59.7621
60.4502
61.9824
62.1379
62.9707
61.9562
63.7219
61.066
61.7339
61.1589
60.7839
33.9155
30.7968
42.9327
43.6868
50.0699
52.34
55.5433
58.0081
59.3657
61.3316
61.8362
63.2439
63.2715
63.9442
62.7842
64.5733
61.5019
62.1059
61.2782
61.0404
43.8305
37.5097
47.6357
47.62
53.0755
55.0399
57.7432
60.0441
61.0982
62.9158
63.2388
64.5282
64.4432
64.9775
63.6701
65.4569
61.9381
62.4147
61.3874
61.2952
54.1456
44.4101
52.3433
51.6983
56.1863
57.8156
60.0016
62.1134
62.8665
64.5213
64.6649
65.827
65.6174
65.9936
64.5791
66.3766
62.3675
62.7598
61.4627
61.5024
63.4969
50.5252
56.8839
55.5837
59.2169
60.5096
62.2322
64.1866
64.6551
66.1444
66.1092
67.1516
66.8355
67.0598
65.5596
67.3437
62.8064
63.441
61.6121
62.0251
78.7989
58.6171
61.2451
58.8282
61.7446
62.7016
64.0954
65.953
66.2185
67.5637
67.389
68.3267
67.9204
67.9508
66.4302
68.1781
63.24
63.26
61.3323
62.036
97.5305
70.8548
67.6296
64.727
65.8641
66.3343
66.7793
68.2284
68.0886
69.2281
68.8877
69.7013
69.1652
69.1592
67.5556
69.1601
63.9804
63.3027
59.9872
62.7267
125.744
127.695
109.425
106.201
96.7436
95.0453
88.6244
87.2128
83.9419
83.2536
81.1066
80.728
78.8676
79.1342
76.9478
77.9158
74.4782
77.7624
63.6008
83.2724
161.862
149.59
133.933
125.837
115.818
110.153
103.913
99.8958
95.2648
92.16
89.1347
87.3123
85.1823
84.2484
82.2529
82.3207
79.9009
80.898
78.7389
80.9938
156.5
146.18
137.071
130.334
123.407
118.274
113.107
109.594
105.805
103.144
100.182
98.2149
96.1942
94.7148
93.3216
92.1826
91.4421
90.4408
90.1753
90.4513
153.391
146.931
141.079
134.681
129.128
124.267
119.535
115.634
111.894
108.822
105.865
103.28
100.822
98.9083
97.111
95.8206
94.6933
93.5663
93.3104
93.0571
142.392
137.189
133.703
130.007
126.508
123.106
119.921
116.96
114.183
111.68
109.357
107.285
105.368
103.526
102.009
100.307
99.2498
97.6892
97.1484
97.0067
137.392
135.473
133.245
130.144
127.594
124.764
122.066
119.509
116.92
114.624
112.241
110.167
108.02
106.142
104.291
102.526
101.076
99.7928
98.8693
98.6115
131.024
128.96
127.527
125.925
124.228
122.506
120.697
118.932
117.101
115.367
113.541
111.852
110.022
108.332
106.478
104.712
102.8
101.138
99.8896
99.4563
127.758
127.127
126.536
125.334
124.177
122.889
121.449
120.072
118.446
117.025
115.27
113.795
111.919
110.334
108.313
106.489
104.283
102.132
100.506
99.7056
124.853
124.259
123.98
123.468
122.676
121.928
120.929
120.05
118.903
117.902
116.59
115.462
113.92
112.609
110.733
109.109
106.651
104.672
102.255
101.642
123.409
123.502
123.265
123.025
122.656
122.222
121.602
121.032
120.189
119.51
118.441
117.656
116.304
115.359
113.599
112.386
109.792
108.468
105.213
104.913
122.558
122.693
122.837
122.91
122.672
122.599
122.264
122.074
121.619
121.333
120.749
120.376
119.609
119.136
118.054
117.449
115.575
115.311
110.851
112.298
122.292
122.634
122.76
123.017
123.005
123.225
123.151
123.226
123.1
123.137
122.954
123.018
122.749
122.847
122.46
122.688
122.058
122.653
122.479
124.613
122.495
122.935
123.346
123.747
124.018
124.374
124.572
124.927
125.113
125.513
125.76
126.186
126.613
127.099
127.883
128.372
129.767
130.075
132.715
134.126
122.809
123.275
123.605
124.086
124.39
124.932
125.284
125.868
126.233
126.938
127.363
128.257
128.859
130.065
130.946
132.492
133.932
136.047
139.199
139.922
123.333
123.998
124.492
125.101
125.596
126.183
126.679
127.34
127.931
128.697
129.429
130.435
131.31
132.648
133.711
135.671
137.271
139.908
142.227
146.339
123.611
124.199
124.681
125.318
125.856
126.549
127.098
127.881
128.458
129.382
130.005
131.102
131.809
133.206
134.11
135.889
136.874
139.17
140.033
150.764
124.198
124.821
125.321
125.962
126.496
127.195
127.782
128.572
129.212
130.111
130.766
131.882
132.562
133.94
134.533
136.584
137.064
139.782
140.296
142.786
124.456
125.021
125.58
126.198
126.786
127.453
128.062
128.8
129.428
130.286
130.957
131.953
132.595
133.799
134.397
135.87
136.19
139.269
138.357
143.463
124.755
125.315
125.853
126.458
127.04
127.693
128.329
129.038
129.717
130.492
131.185
132.03
132.699
133.637
134.197
135.255
135.595
136.947
137.093
137.81
124.846
125.386
125.948
126.539
127.138
127.781
128.414
129.109
129.769
130.519
131.192
131.995
132.647
133.501
134.065
134.978
135.313
138.971
138.2
140.269
235.89
237.301
237.925
238.006
237.329
236.104
234.113
231.533
228.302
224.24
220.115
214.459
208.431
202.058
194.312
187.036
177.318
168.465
159.247
150.487
204.302
205.34
206.084
206.549
206.644
206.553
206.023
205.363
204.293
202.964
201.482
199.435
197.499
195.437
191.429
187.693
184.574
182.051
178.477
175.218
167.519
168.429
169.118
169.812
170.245
170.714
170.894
171.146
171.058
171.101
170.768
170.583
169.976
169.401
168.414
167.766
166.545
165.71
164.206
163.409
154.903
155.593
156.217
156.785
157.272
157.711
158.057
158.343
158.535
158.673
158.668
158.687
158.49
158.573
158.324
158.152
157.646
157.438
156.684
156.469
138.789
139.347
139.867
140.364
140.798
141.237
141.589
141.975
142.249
142.596
142.831
143.109
143.245
143.431
143.494
143.699
143.684
143.854
143.717
143.919
132.995
133.462
133.897
134.32
134.711
135.091
135.438
135.772
136.076
136.354
136.564
136.805
136.985
137.228
137.334
137.486
137.5
137.649
137.58
137.788
126.241
126.631
127.014
127.37
127.714
128.038
128.343
128.635
128.903
129.166
129.403
129.65
129.85
130.085
130.266
130.487
130.626
130.844
130.921
131.114
123.383
123.716
124.035
124.346
124.641
124.931
125.203
125.473
125.722
125.97
126.195
126.418
126.618
126.81
126.952
127.118
127.233
127.381
127.46
127.659
121.005
121.294
121.573
121.84
122.095
122.34
122.571
122.794
122.999
123.2
123.379
123.559
123.707
123.87
124.007
124.166
124.3
124.448
124.554
124.697
119.745
119.989
120.23
120.468
120.7
120.925
121.144
121.354
121.558
121.754
121.942
122.126
122.305
122.474
122.626
122.77
122.882
123.009
123.101
123.22
119.328
119.559
119.781
119.988
120.187
120.376
120.56
120.748
120.926
121.091
121.247
121.399
121.537
121.678
121.802
121.932
122.042
122.159
122.254
122.364
119.3
119.493
119.681
119.864
120.043
120.216
120.386
120.548
120.709
120.862
121.014
121.156
121.298
121.43
121.56
121.683
121.801
121.914
122.02
122.124
119.589
119.759
119.925
120.088
120.246
120.402
120.553
120.701
120.845
120.985
121.12
121.252
121.379
121.502
121.621
121.739
121.85
121.967
122.071
122.193
120.019
120.172
120.324
120.474
120.623
120.77
120.915
121.058
121.198
121.338
121.473
121.607
121.737
121.867
121.991
122.113
122.227
122.341
122.451
122.561
120.601
120.734
120.864
120.991
121.117
121.243
121.371
121.501
121.634
121.763
121.894
122.021
122.149
122.273
122.397
122.521
122.645
122.77
122.886
123.007
121.075
121.204
121.335
121.467
121.598
121.727
121.851
121.971
122.088
122.205
122.322
122.437
122.553
122.668
122.783
122.896
123.009
123.124
123.232
123.348
121.635
121.748
121.862
121.977
122.093
122.211
122.329
122.448
122.568
122.688
122.808
122.929
123.05
123.171
123.293
123.412
123.537
123.656
123.776
123.905
121.93
122.037
122.145
122.254
122.365
122.476
122.589
122.703
122.818
122.933
123.049
123.167
123.285
123.404
123.523
123.645
123.765
123.888
124.01
124.134
122.279
122.385
122.493
122.598
122.706
122.812
122.92
123.029
123.14
123.252
123.366
123.481
123.596
123.714
123.832
123.952
124.072
124.194
124.315
124.441
122.381
122.479
122.579
122.681
122.784
122.889
122.996
123.105
123.214
123.326
123.439
123.554
123.67
123.787
123.906
124.027
124.149
124.271
124.396
124.521
13.2618
11.4689
6.19465
0.91312
-4.04796
-9.27878
-14.7608
-20.5423
-26.6538
-33.1963
-40.2435
-47.8886
-56.1101
-65.1628
-74.9182
-85.7941
-97.4918
-110.526
-125.868
-134.937
30.7338
29.7298
26.1173
22.1234
18.1703
13.932
9.34673
4.45769
-0.84382
-6.57537
-12.7997
-19.6093
-26.9438
-35.0855
-43.8639
-53.657
-64.104
-75.9028
-89.2942
-98.4392
49.9291
50.0428
47.4405
44.1835
40.9565
37.3851
33.4876
29.2501
24.666
19.666
14.197
8.20552
1.70447
-5.54971
-13.3688
-22.1928
-31.6001
-42.4394
-54.2098
-61.2114
69.5781
69.9495
67.8184
65.249
62.6709
59.8208
56.6435
53.2148
49.3899
45.2061
40.5463
35.4195
29.7424
23.3587
16.3479
8.37565
-0.241464
-10.2713
-21.1978
-26.7058
88.9888
89.8391
88.3315
86.4109
84.4952
82.2839
79.81
77.0315
73.9399
70.4743
66.5889
62.2428
57.3974
51.8858
45.8272
38.7962
31.1357
21.9265
11.5381
5.78639
108.474
109.56
108.403
107.012
105.603
103.982
102.089
99.9933
97.5525
94.8285
91.6909
88.2017
84.1938
79.6491
74.5031
68.5227
61.9338
53.9003
44.9529
38.3792
127.126
128.453
127.762
126.914
126.069
125.009
123.753
122.274
120.536
118.528
116.18
113.483
110.346
106.715
102.582
97.7147
92.2842
85.5758
78.1583
71.1291
145.152
146.65
146.422
146.031
145.677
145.137
144.431
143.542
142.428
141.089
139.441
137.538
135.214
132.547
129.362
125.613
121.332
115.921
110.429
103.303
161.949
163.694
163.786
163.909
164.021
164.004
163.832
163.525
163.029
162.342
161.412
160.237
158.727
156.899
154.613
151.904
148.614
144.683
140.5
134.105
177.958
179.837
180.397
180.933
181.516
181.981
182.334
182.574
182.643
182.558
182.235
181.723
180.874
179.775
178.224
176.346
173.912
171.093
167.583
162.964
192.485
194.592
195.563
196.524
197.508
198.406
199.197
199.888
200.433
200.847
201.073
201.125
200.899
200.431
199.588
198.429
196.784
194.772
192.073
188.442
205.761
208.115
209.54
210.945
212.383
213.739
215.006
216.185
217.245
218.191
218.962
219.565
219.884
220.01
219.754
219.284
218.301
217.051
215.018
212.123
218.309
220.814
222.531
224.254
225.983
227.657
229.246
230.783
232.208
233.531
234.687
235.702
236.512
237.137
237.464
237.537
237.165
236.532
235.125
232.968
229.095
231.8
233.892
235.985
238.101
240.167
242.178
244.134
245.998
247.777
249.413
250.94
252.253
253.409
254.215
254.832
254.941
254.816
253.847
252.292
239.606
242.527
244.816
247.155
249.507
251.828
254.089
256.312
258.445
260.507
262.434
264.237
265.832
267.247
268.363
269.287
269.725
269.922
269.285
268.238
248.4
251.417
253.922
256.483
259.076
261.629
264.159
266.635
269.067
271.401
273.661
275.768
277.75
279.527
281.113
282.437
283.389
284.033
283.93
283.522
256.276
259.44
262.088
264.826
267.589
270.324
273.029
275.699
278.307
280.852
283.289
285.625
287.793
289.819
291.592
293.173
294.377
295.363
295.765
295.958
262.948
266.194
268.86
271.683
274.551
277.408
280.254
283.082
285.874
288.601
291.259
293.793
296.214
298.429
300.483
302.209
303.687
304.732
305.369
305.444
268.156
271.475
274.219
277.148
280.111
283.077
286.018
288.961
291.836
294.682
297.413
300.077
302.568
304.936
307.052
308.92
310.469
311.598
312.514
312.543
271.856
275.11
277.962
280.961
283.994
287.016
290.03
293.028
295.983
298.888
301.717
304.455
307.068
309.526
311.794
313.815
315.582
316.99
318.051
318.504
-305.806
-314.67
-323.917
-333.821
-343.945
-354.757
-365.867
-377.561
-389.709
-402.456
-415.739
-429.62
-444.254
-459.687
-475.595
-492.984
-510.96
-525.704
-535.679
-536.779
-298.947
-307.82
-317.034
-326.957
-337.117
-347.956
-359.149
-370.969
-383.27
-396.198
-409.766
-424.007
-439.038
-454.795
-471.545
-489.447
-508.028
-524.109
-537.773
-540.635
-291.023
-299.953
-309.11
-319.108
-329.323
-340.289
-351.621
-363.598
-376.118
-389.311
-403.135
-417.707
-433.085
-449.316
-466.649
-485.139
-504.192
-522.444
-537.984
-540.806
-282.547
-291.48
-300.567
-310.538
-320.736
-331.681
-343.054
-355.071
-367.673
-380.954
-394.987
-409.75
-425.405
-441.952
-459.664
-478.366
-498.019
-518.037
-534.456
-536.588
-273.092
-281.963
-290.893
-300.845
-311.026
-321.981
-333.395
-345.497
-358.218
-371.677
-385.86
-400.889
-416.846
-433.827
-451.94
-471.324
-491.767
-513.541
-530.355
-533.688
-262.708
-271.587
-280.362
-290.22
-300.29
-311.149
-322.491
-334.498
-347.169
-360.574
-374.8
-389.847
-405.913
-422.979
-441.3
-460.983
-482.082
-504.621
-522.284
-525.696
-251.139
-259.941
-268.528
-278.244
-288.24
-298.986
-310.267
-322.25
-334.906
-348.341
-362.56
-377.681
-393.825
-411.024
-429.486
-449.409
-470.541
-493.449
-512.219
-516.492
-238.741
-247.457
-255.825
-265.328
-275.122
-285.653
-296.728
-308.466
-320.903
-334.126
-348.178
-363.129
-379.143
-396.194
-414.662
-434.462
-455.831
-478.962
-498.601
-503.877
-225.014
-233.593
-241.697
-250.949
-260.541
-270.829
-281.699
-293.274
-305.547
-318.609
-332.495
-347.298
-363.162
-380.097
-398.366
-417.995
-439.035
-461.98
-482.248
-488.147
-210.491
-218.884
-226.71
-235.638
-244.944
-254.919
-265.463
-276.673
-288.578
-301.291
-314.803
-329.267
-344.773
-361.326
-379.353
-398.592
-419.542
-442.288
-462.937
-469.724
-194.725
-202.905
-210.368
-218.932
-227.894
-237.483
-247.672
-258.548
-270.127
-282.487
-295.677
-309.787
-324.943
-341.184
-358.767
-377.596
-398.032
-420.183
-441.034
-448.337
-178.017
-185.949
-193.089
-201.228
-209.83
-219.019
-228.78
-239.208
-250.306
-262.215
-274.872
-288.499
-303.114
-318.769
-335.862
-354.065
-374.049
-395.902
-416.643
-424.504
-160.274
-167.925
-174.652
-182.335
-190.487
-199.186
-208.489
-218.444
-229.084
-240.474
-252.666
-265.769
-279.855
-295.035
-311.494
-329.052
-348.507
-369.314
-390.04
-398.116
-141.59
-148.931
-155.27
-162.438
-170.143
-178.366
-187.137
-196.568
-206.631
-217.484
-229.039
-241.555
-254.987
-269.466
-285.228
-302.115
-320.926
-340.653
-361.549
-369.771
-121.8
-128.826
-134.752
-141.415
-148.629
-156.314
-164.586
-173.476
-183.013
-193.259
-204.256
-216.139
-228.918
-242.762
-257.768
-273.906
-291.783
-310.479
-331.312
-339.654
-101.219
-107.916
-113.44
-119.556
-126.278
-133.459
-141.153
-149.477
-158.396
-168.045
-178.351
-189.579
-201.627
-214.712
-228.914
-244.259
-261.263
-279.148
-299.498
-308.081
-79.7318
-86.0737
-91.1481
-96.7239
-102.945
-109.576
-116.752
-124.518
-132.867
-141.871
-151.567
-162.105
-173.44
-185.795
-199.182
-213.699
-229.779
-246.587
-266.383
-275.308
-57.5246
-63.4775
-68.1341
-73.164
-78.9255
-85.0924
-91.7334
-98.9455
-106.707
-115.109
-124.123
-133.983
-144.54
-156.107
-168.58
-182.237
-197.191
-213.035
-232.051
-241.197
-33.4864
-39.8574
-44.2346
-48.7775
-54.1209
-59.8672
-66.0464
-72.7498
-79.9504
-87.7248
-96.1198
-105.261
-115.097
-125.867
-137.522
-150.314
-164.316
-179.292
-197.277
-206.304
-6.18748
-12.4737
-17.8869
-22.8273
-28.0943
-33.7693
-39.756
-46.1107
-52.8982
-60.1765
-67.9687
-76.4637
-85.5214
-95.5027
-106.218
-118.07
-130.885
-144.805
-161.546
-170.694
-8.37765
-8.65626
-9.9853
-11.3691
-14.095
-17.4309
-20.7847
-25.758
-30.4809
-37.4153
-44.5932
-54.2123
-65.1436
-78.5517
-95.5614
-114.608
-141.582
-170.609
-214.288
-262.667
-8.22662
-8.4345
-9.73949
-11.2286
-13.6822
-17.1343
-20.2235
-25.2024
-29.7472
-36.5978
-43.5862
-53.0578
-63.7404
-76.8646
-93.5798
-112.107
-138.683
-166.746
-209.744
-256.158
-7.99991
-8.10305
-9.32054
-11.0544
-13.2377
-16.7846
-19.6278
-24.5935
-28.9865
-35.7312
-42.5534
-51.8735
-62.3117
-75.1632
-91.4964
-109.421
-135.431
-162.23
-204.458
-248.758
-7.81381
-7.83378
-8.87974
-10.847
-12.7508
-16.4095
-19.0154
-23.9179
-28.1477
-34.7864
-41.4078
-50.5698
-60.7224
-73.2975
-89.2494
-106.668
-132.095
-157.825
-199.123
-241.019
-7.57987
-7.62537
-8.53085
-10.5878
-12.2358
-15.998
-18.3667
-23.1941
-27.2764
-33.7962
-40.2308
-49.2344
-59.103
-71.4012
-86.8869
-103.708
-128.429
-153.014
-193.147
-232.346
-7.38034
-7.39902
-8.17595
-10.2843
-11.661
-15.5505
-17.6901
-22.4082
-26.3299
-32.7261
-38.9495
-47.7858
-57.3349
-69.3579
-84.3854
-100.692
-124.674
-148.089
-186.775
-223.479
-7.15537
-7.20813
-7.76125
-9.94703
-11.0019
-15.0545
-16.9625
-21.5707
-25.3499
-31.6132
-37.6354
-46.3025
-55.535
-67.277
-81.7599
-97.4781
-120.644
-142.792
-180.113
-213.578
-6.96485
-6.97775
-7.25114
-9.56921
-10.2107
-14.5032
-16.1982
-20.6714
-24.298
-30.4199
-36.2242
-44.7126
-53.598
-65.0598
-79.0067
-94.2037
-116.466
-137.335
-172.834
-203.527
-6.75277
-6.71909
-6.71759
-9.13595
-9.34108
-13.891
-15.3877
-19.7165
-23.2111
-29.1861
-34.7815
-43.0859
-51.6291
-62.8051
-76.1369
-90.761
-112.065
-131.619
-165.238
-192.473
-6.5661
-6.51411
-6.23514
-8.69334
-8.42234
-13.1823
-14.5356
-18.7025
-22.0595
-27.8721
-33.2489
-41.3589
-49.5357
-60.4196
-73.1429
-87.2418
-107.484
-125.66
-157.199
-181.169
-6.3409
-6.33352
-5.7444
-8.32287
-7.53397
-12.3609
-13.6057
-17.6311
-20.8694
-26.5211
-31.6875
-39.5947
-47.4119
-57.9994
-70.0482
-83.5894
-102.735
-119.487
-148.787
-168.931
-6.12934
-6.14144
-5.28471
-7.97731
-6.68155
-11.4468
-12.6051
-16.5031
-19.6203
-25.0918
-30.0441
-37.7368
-45.1772
-55.4529
-66.8347
-79.8538
-97.7865
-113.052
-140.003
-156.224
-5.89938
-5.93557
-4.82168
-7.57076
-5.81903
-10.4639
-11.5256
-15.3136
-18.3265
-23.6315
-28.3754
-35.8423
-42.9147
-52.873
-63.5365
-76.0079
-92.701
-106.482
-130.991
-142.619
-5.6786
-5.69902
-4.31939
-7.11235
-4.90792
-9.4218
-10.42
-14.0807
-16.9921
-22.099
-26.6304
-33.8591
-40.5527
-50.168
-60.1253
-72.0829
-87.4256
-99.6915
-121.639
-128.412
-5.44834
-5.46683
-3.78166
-6.61942
-4.01112
-8.368
-9.31782
-12.8426
-15.6225
-20.54
-24.8681
-31.8478
-38.1751
-47.4424
-56.665
-68.0898
-82.0736
-92.8908
-112.106
-113.331
-5.20062
-5.23789
-3.25119
-6.10606
-3.13542
-7.30537
-8.15946
-11.5797
-14.2189
-18.9203
-23.0436
-29.7632
-35.7209
-44.6045
-53.1114
-64.0227
-76.5268
-85.8734
-102.067
-97.2093
-5.00094
-5.04628
-2.66396
-5.55664
-2.05809
-6.20632
-6.93618
-10.2789
-12.7414
-17.2439
-21.1549
-27.5871
-33.1645
-41.629
-49.3763
-59.6973
-70.6893
-78.7165
-91.8032
-80.7967
-4.4416
-4.85304
-1.7381
-5.01223
-0.877456
-5.01626
-5.67072
-8.94159
-11.2351
-15.5176
-19.2247
-25.3868
-30.6005
-38.6419
-45.7191
-55.6479
-65.312
-72.292
-82.2749
-64.1675
-4.50518
-5.02651
-1.53888
-4.54599
-0.0729391
-4.03407
-4.56674
-7.81071
-9.90875
-14.0002
-17.5872
-23.5358
-28.5126
-36.2321
-42.8162
-52.4531
-60.9441
-66.772
-71.2698
-41.9938
-3.70263
-5.91648
-1.17864
-3.80159
1.00718
-2.87918
-3.18487
-6.37133
-8.21831
-12.0672
-15.3335
-20.8172
-25.3116
-32.3419
-38.0039
-46.2409
-52.013
-55.6113
-53.0603
-17.2294
19.9725
-0.349157
13.4559
6.70831
10.7299
7.64783
8.9986
6.59469
6.69903
4.22286
4.39328
2.70658
3.89891
3.48874
7.08125
8.83713
17.1847
23.899
41.26
34.495
19.8222
16.4675
18.4654
16.3932
17.7966
16.8116
17.543
17.299
18.1249
18.6813
20.3625
21.8201
24.938
27.7857
33.7557
39.2155
51.0117
59.7955
81.829
91.6487
34.2813
33.9369
33.872
33.8732
34.4793
34.3075
35.6006
35.9113
37.7669
39.029
41.6244
43.8815
47.8289
51.775
57.8858
64.6519
73.8086
83.7409
97.3028
109.612
39.4456
39.3837
39.5458
40.4477
41.1745
42.4039
43.8636
45.8027
48.1076
50.6343
53.7968
57.3586
61.7934
66.6272
72.9242
79.125
87.7948
95.9791
107.216
116.904
49.0784
49.1988
49.831
50.8724
52.2603
53.633
55.4667
57.2828
59.6003
62.0399
65.0679
68.3576
72.1802
76.5688
81.2516
86.9137
92.5477
99.3213
105.843
114.083
53.4899
53.5799
54.4533
55.8481
57.5236
59.7229
61.8477
64.2964
66.9217
69.7605
72.9479
76.3059
80.1373
84.1018
88.5942
93.2416
98.212
103.586
109.747
114.405
59.4385
59.6966
60.9746
63.0555
65.2495
67.3955
69.7147
71.9544
74.4786
76.9685
79.7692
82.6276
85.7356
89.0427
92.4556
96.1908
99.8824
103.894
106.885
111.722
63.6917
64.2894
65.7275
68.3576
70.5005
72.908
75.2279
77.5511
80.0271
82.4536
85.1396
87.7652
90.6803
93.4988
96.6218
99.588
102.898
106.34
109.61
112.187
69.5411
70.3956
72.184
74.4752
77.0492
79.072
81.5065
83.4357
85.7966
87.8236
90.1945
92.3088
94.669
96.9233
99.3221
101.748
104.124
106.262
108.632
111.243
76.036
76.5663
79.1463
80.7533
83.3152
85.0363
87.2204
88.9328
90.995
92.6941
94.681
96.4581
98.5088
100.376
102.508
104.458
106.689
108.624
110.594
112.121
83.3598
83.6116
86.6287
87.6657
90.0982
91.3599
93.2426
94.4862
96.1866
97.4797
99.1495
100.521
102.17
103.602
105.197
106.617
108.107
109.441
111.039
112.548
92.5815
91.1343
95.0105
95.4482
97.1663
98.018
99.2638
100.151
101.321
102.255
103.423
104.408
105.634
106.694
108.013
109.145
110.497
111.683
112.915
113.798
107.395
105.408
104.867
104.631
104.958
105.133
105.502
105.837
106.365
106.839
107.53
108.15
108.978
109.721
110.62
111.403
112.336
113.114
114.088
114.88
117.437
116.266
113.574
113.208
111.922
111.595
111.111
110.956
110.934
110.978
111.256
111.482
111.96
112.332
112.928
113.427
114.119
114.714
115.479
116.092
124.869
123.877
121.14
119.221
117.926
116.652
115.942
115.223
114.926
114.56
114.546
114.458
114.652
114.792
115.147
115.429
115.888
116.267
116.807
117.251
132.425
128.452
125.687
123.337
121.747
120.369
119.4
118.48
117.94
117.418
117.176
116.933
116.911
116.869
117.019
117.165
117.458
117.737
118.126
118.458
137.522
126.899
126.166
124.528
123.507
122.133
121.374
120.363
119.86
119.19
118.923
118.532
118.442
118.303
118.344
118.369
118.519
118.677
118.978
119.259
130.213
127.682
127.079
125.34
124.65
123.357
122.768
121.866
121.358
120.74
120.357
119.982
119.751
119.55
119.492
119.466
119.557
119.629
119.796
119.987
133.102
127.094
126.769