/*--------------------------------*- C++ -*----------------------------------*\
  =========                 |
  \\      /  F ield         | OpenFOAM: The Open Source CFD Toolbox
   \\    /   O peration     | Website:  https://openfoam.org
    \\  /    A nd           | Version:  9
     \\/     M anipulation  |
\*---------------------------------------------------------------------------*/
FoamFile
{
    format      ascii;
    class       volVectorField;
    location    "5.7";
    object      U;
}
// * * * * * * * * * * * * * * * * * * * * * * * * * * * * * * * * * * * * * //

dimensions      [0 1 -1 0 0 0 0];

internalField   nonuniform List<vector> 
46400
(
(8.42513 -8.21014 -1.3749e-20)
(17.2315 -16.5583 -6.35892e-20)
(18.5551 -18.6574 -5.51197e-20)
(17.8922 -18.7576 -9.20976e-20)
(17.3066 -18.7959 -4.16706e-20)
(16.6953 -18.8897 3.42898e-19)
(16.1196 -18.9187 -2.17602e-19)
(15.5642 -18.9695 7.62222e-20)
(15.0461 -19.028 -8.14014e-20)
(14.5417 -19.0613 8.58687e-20)
(14.0727 -19.1031 -8.9652e-20)
(13.6378 -19.1509 0)
(13.2175 -19.1803 6.1733e-19)
(12.8219 -19.2118 -7.01828e-19)
(12.4599 -19.253 -8.5234e-19)
(12.1216 -19.2978 -1.29927e-19)
(11.7886 -19.3336 -2.85696e-20)
(11.4891 -19.3109 6.70016e-19)
(11.1929 -19.2805 9.05689e-19)
(10.7724 -19.3612 -8.22667e-19)
(8.72592 -7.764 0)
(17.319 -15.4698 -2.73362e-20)
(18.5139 -17.3276 0)
(17.7813 -17.4558 3.00672e-19)
(17.149 -17.4901 -2.50731e-19)
(16.4848 -17.5739 6.31e-20)
(15.9422 -17.6696 0)
(15.3816 -17.7644 -7.62242e-20)
(14.883 -17.852 8.14028e-20)
(14.3891 -17.9492 -8.58676e-20)
(13.9233 -18.0309 9.00058e-19)
(13.4847 -18.1292 3.38117e-20)
(13.0576 -18.2153 -7.22282e-19)
(12.6441 -18.2807 0)
(12.268 -18.3856 9.99598e-20)
(11.908 -18.4558 1.01675e-19)
(11.5666 -18.5549 0)
(11.2407 -18.581 -9.05145e-19)
(10.975 -18.6372 -2.30576e-19)
(10.6107 -18.84 9.2442e-19)
(8.92167 -7.29988 1.45247e-19)
(17.2806 -14.3988 -2.78524e-19)
(18.1227 -15.807 2.83562e-19)
(17.426 -16.0272 3.6135e-19)
(16.8646 -16.1787 -3.54752e-19)
(16.2612 -16.3433 0)
(15.6854 -16.4531 -9.73643e-19)
(15.1591 -16.5974 8.4347e-19)
(14.6446 -16.7193 -1.03623e-18)
(14.1586 -16.8179 1.02332e-18)
(13.6926 -16.9295 9.5072e-19)
(13.2683 -17.0254 -9.95288e-20)
(12.8665 -17.1498 -8.19623e-19)
(12.4758 -17.2159 0)
(12.1191 -17.3299 9.84377e-19)
(11.7998 -17.4311 -9.6945e-19)
(11.4947 -17.5694 0)
(11.2046 -17.6335 -1.21818e-20)
(10.9141 -17.6765 1.15749e-19)
(10.5459 -17.9233 -1.02831e-18)
(9.04832 -6.8156 -2.51414e-19)
(17.1157 -13.2235 7.16938e-20)
(17.8896 -14.5526 4.35656e-19)
(17.1287 -14.7256 -4.30321e-19)
(16.5251 -14.8699 -3.5549e-19)
(15.8969 -15.0524 4.76783e-19)
(15.3517 -15.2235 6.32254e-19)
(14.8034 -15.3953 -1.56387e-18)
(14.3255 -15.5884 1.30171e-18)
(13.8513 -15.7542 -1.24313e-19)
(13.4012 -15.9169 0)
(12.9693 -16.064 1.27434e-19)
(12.5774 -16.2422 -1.28373e-19)
(12.1831 -16.3788 0)
(11.8102 -16.5196 1.10016e-18)
(11.4529 -16.6432 -9.40475e-19)
(11.1431 -16.8214 0)
(10.8714 -16.9858 1.28764e-19)
(10.5994 -17.0959 1.38994e-19)
(10.2138 -17.3529 1.12655e-18)
(9.13836 -6.31287 0)
(16.8199 -12.0465 0)
(17.2718 -13.102 -5.4122e-19)
(16.6057 -13.4236 3.845e-19)
(16.035 -13.6453 -7.10742e-19)
(15.4556 -13.8779 5.70397e-19)
(14.891 -14.0607 0)
(14.3802 -14.252 6.08152e-19)
(13.8872 -14.463 -7.39563e-19)
(13.4349 -14.6372 -1.61233e-19)
(12.9883 -14.8277 -1.61116e-19)
(12.5659 -14.9671 0)
(12.1724 -15.1546 1.22432e-18)
(11.8079 -15.3085 -1.20517e-18)
(11.4607 -15.4881 0)
(11.1254 -15.6217 -1.34485e-18)
(10.791 -15.7735 1.1839e-18)
(10.5244 -15.943 1.18135e-18)
(10.2783 -16.122 -1.29749e-18)
(9.93831 -16.4461 0)
(9.22119 -5.81597 0)
(16.3792 -10.776 0)
(16.8246 -11.8573 0)
(16.0745 -12.0897 -2.47754e-20)
(15.5214 -12.379 0)
(14.9512 -12.6575 0)
(14.4272 -12.9328 0)
(13.8863 -13.134 -1.79861e-19)
(13.4255 -13.408 0)
(12.9857 -13.6408 1.61227e-19)
(12.5745 -13.8875 -1.66936e-20)
(12.1602 -14.0817 -1.53323e-18)
(11.7817 -14.298 1.16027e-18)
(11.4097 -14.4913 -1.50732e-18)
(11.0696 -14.6975 1.14233e-18)
(10.747 -14.8892 0)
(10.4222 -15.0617 -1.29097e-18)
(10.1214 -15.2105 1.1069e-18)
(9.86077 -15.3621 0)
(9.52038 -15.6944 -1.7134e-19)
(9.3413 -5.28812 6.67802e-19)
(15.8237 -9.56441 1.90473e-19)
(16.0341 -10.48 7.47638e-19)
(15.3984 -10.8959 -7.6098e-19)
(14.8032 -11.2055 -7.64046e-19)
(14.2648 -11.5106 1.51638e-18)
(13.753 -11.8286 -1.71758e-18)
(13.2712 -12.0749 1.69309e-19)
(12.7816 -12.334 5.5227e-19)
(12.3715 -12.589 0)
(11.9675 -12.8608 -1.59659e-20)
(11.5811 -13.0729 -1.51109e-20)
(11.1966 -13.2962 1.74926e-19)
(10.8511 -13.4946 1.42922e-18)
(10.5179 -13.7226 -1.24927e-18)
(10.2232 -13.9318 -1.58644e-18)
(9.92996 -14.1651 1.38395e-18)
(9.66587 -14.3541 -1.11597e-20)
(9.40116 -14.5196 -1.73465e-19)
(9.09776 -14.8507 -1.25086e-18)
(9.5196 -4.77968 -2.05893e-19)
(15.1538 -8.42697 2.67008e-20)
(15.2381 -9.2256 -2.2137e-19)
(14.5504 -9.59004 -8.75705e-19)
(14.0834 -10.063 6.15402e-19)
(13.5797 -10.4178 0)
(13.1058 -10.8035 1.26155e-18)
(12.6385 -11.0997 -6.11676e-19)
(12.1872 -11.4119 4.11796e-19)
(11.7668 -11.6787 2.1169e-19)
(11.4126 -12.01 -4.05338e-19)
(11.0548 -12.2724 9.86526e-19)
(10.7134 -12.5498 2.02765e-19)
(10.3563 -12.7536 -1.16163e-18)
(10.0286 -12.9835 3.24451e-18)
(9.72305 -13.1873 -1.31934e-18)
(9.42897 -13.4053 1.66511e-18)
(9.18003 -13.6201 -1.09084e-18)
(8.92363 -13.794 3.56864e-19)
(8.62727 -14.0999 1.70305e-18)
(9.66414 -4.36211 1.04475e-18)
(14.3364 -7.3066 -2.19282e-19)
(14.2173 -8.05692 -2.33484e-20)
(13.694 -8.51106 4.66327e-19)
(13.1097 -8.94942 2.21723e-19)
(12.6755 -9.36509 2.39516e-19)
(12.2332 -9.80328 -1.13347e-18)
(11.8272 -10.1493 6.82145e-19)
(11.396 -10.498 -2.14361e-19)
(10.9897 -10.7736 -2.11699e-19)
(10.622 -11.1038 -2.08865e-19)
(10.2913 -11.3861 -2.19237e-19)
(9.97662 -11.6968 -4.18201e-19)
(9.68789 -11.9642 1.44448e-18)
(9.3813 -12.2182 -2.02284e-18)
(9.11929 -12.4642 -2.03886e-19)
(8.83459 -12.6913 1.02562e-20)
(8.6034 -12.9201 -1.52028e-18)
(8.37628 -13.1314 1.13149e-18)
(8.10851 -13.4336 -1.78421e-18)
(9.69657 -4.0087 9.26486e-19)
(13.3756 -6.27591 -2.31472e-18)
(13.1295 -7.00539 1.53045e-18)
(12.6083 -7.44407 -2.4398e-19)
(12.1871 -7.99331 -2.60386e-19)
(11.7528 -8.40044 1.01429e-18)
(11.3681 -8.89026 -1.23251e-18)
(11.0045 -9.29365 0)
(10.6329 -9.69457 9.51813e-19)
(10.2544 -10.0205 -9.35944e-19)
(9.92133 -10.3832 -6.82885e-19)
(9.60671 -10.7069 8.91717e-19)
(9.29844 -11.0266 2.15419e-19)
(9.01342 -11.326 -8.68192e-19)
(8.72166 -11.5962 2.11177e-19)
(8.46264 -11.8671 1.04234e-18)
(8.19623 -12.1108 -1.83652e-18)
(7.95896 -12.3529 1.21064e-18)
(7.74159 -12.575 -8.6365e-21)
(7.4968 -12.8981 -1.66774e-18)
(9.49338 -3.59341 1.26708e-18)
(12.326 -5.36864 -8.35339e-19)
(12.002 -6.06201 5.56534e-19)
(11.6181 -6.53635 5.77894e-21)
(11.14 -7.05045 -1.09001e-18)
(10.7586 -7.49783 -1.04471e-18)
(10.3729 -7.97136 1.2946e-18)
(10.0567 -8.40834 -7.60984e-19)
(9.73681 -8.84308 1.0064e-18)
(9.37292 -9.15775 0)
(9.0455 -9.51348 1.16042e-20)
(8.76416 -9.84235 2.31537e-19)
(8.49989 -10.1926 2.37488e-19)
(8.27053 -10.529 -2.32507e-19)
(8.01606 -10.8387 0)
(7.79185 -11.1382 2.22766e-19)
(7.54787 -11.414 0)
(7.32465 -11.6687 4.18741e-19)
(7.11629 -11.9108 2.04568e-18)
(6.8847 -12.2297 -1.37478e-20)
(9.05958 -3.14036 6.86348e-19)
(11.1644 -4.53323 -1.43081e-19)
(10.8302 -5.2453 -2.0647e-18)
(10.4523 -5.75372 1.15599e-18)
(10.0524 -6.31889 2.7691e-19)
(9.70575 -6.76329 -2.7233e-19)
(9.35511 -7.27421 -1.09748e-18)
(9.06613 -7.72161 8.15807e-19)
(8.84453 -8.26123 0)
(8.57186 -8.65935 0)
(8.25378 -9.02668 -1.25762e-18)
(7.97441 -9.35495 9.93749e-19)
(7.67556 -9.66083 -2.37518e-19)
(7.4545 -9.98992 -7.13189e-19)
(7.21893 -10.2956 6.18961e-21)
(7.01953 -10.6028 1.59264e-18)
(6.81698 -10.8923 -8.91024e-19)
(6.61556 -11.1545 6.51862e-19)
(6.43332 -11.4023 -1.06152e-18)
(6.23304 -11.6963 0)
(8.41062 -2.65543 -5.86043e-19)
(9.99034 -3.78198 9.33394e-19)
(9.57186 -4.49413 1.57893e-19)
(9.30401 -5.01757 1.54997e-19)
(8.98725 -5.6135 0)
(8.6402 -6.05363 1.16789e-18)
(8.30578 -6.52593 -1.14741e-18)
(7.94893 -6.89526 1.42747e-19)
(7.72203 -7.38518 0)
(7.54399 -7.87023 1.07195e-18)
(7.3242 -8.31504 -9.20914e-19)
(7.12194 -8.73565 1.02454e-18)
(6.87841 -9.10073 -1.0083e-18)
(6.65718 -9.45067 9.78416e-19)
(6.44293 -9.78583 -8.4172e-19)
(6.25091 -10.1094 -9.33936e-19)
(6.07288 -10.4291 1.83242e-18)
(5.90132 -10.7244 -7.85636e-19)
(5.73496 -10.9994 1.10755e-19)
(5.55349 -11.3163 9.25722e-19)
(7.55272 -2.16439 -4.63344e-19)
(8.63753 -3.10552 4.92014e-19)
(8.28139 -3.85397 -1.57883e-19)
(8.0656 -4.4402 -1.5497e-19)
(7.77488 -5.09277 0)
(7.57236 -5.64959 0)
(7.34189 -6.21828 0)
(7.04244 -6.64036 -2.90054e-19)
(6.71099 -7.02026 -1.1322e-18)
(6.49296 -7.44549 2.2193e-18)
(6.26781 -7.84139 -1.22134e-18)
(6.09255 -8.25445 -1.34037e-19)
(5.90238 -8.62489 0)
(5.72726 -8.98945 0)
(5.54474 -9.31897 -2.46319e-19)
(5.37563 -9.64663 0)
(5.21952 -9.96161 9.36312e-19)
(5.06545 -10.2639 -1.15184e-18)
(4.93243 -10.549 -1.0032e-18)
(4.76886 -10.869 9.58859e-19)
(6.5589 -1.69789 4.77986e-19)
(7.37524 -2.48664 8.46384e-19)
(6.94127 -3.18192 -3.28645e-22)
(6.73079 -3.75156 -1.3879e-21)
(6.50491 -4.37771 1.59681e-19)
(6.23107 -4.88182 -4.68319e-19)
(6.09383 -5.47041 0)
(5.9701 -6.0308 -4.48154e-19)
(5.772 -6.50191 1.5129e-19)
(5.57517 -6.95679 5.71737e-19)
(5.39099 -7.37605 5.5393e-19)
(5.22855 -7.80591 -4.10942e-19)
(5.06623 -8.19703 1.05481e-18)
(4.91094 -8.58607 -9.07975e-19)
(4.75717 -8.94463 1.12881e-18)
(4.59656 -9.28205 -2.09264e-18)
(4.45969 -9.61553 9.65066e-19)
(4.31921 -9.92317 1.1599e-19)
(4.20338 -10.2211 9.10153e-19)
(4.07608 -10.5488 -9.78927e-19)
(5.45317 -1.30064 1.6669e-19)
(5.9835 -2.06076 -1.71553e-19)
(5.66737 -2.72659 6.82964e-19)
(5.5164 -3.32777 -6.70274e-19)
(5.38792 -3.99252 -3.26672e-19)
(5.20131 -4.55907 -7.9599e-19)
(4.94692 -5.0595 3.86665e-21)
(4.77649 -5.60879 6.12033e-19)
(4.60938 -6.09461 -1.47349e-19)
(4.44959 -6.58499 0)
(4.27282 -7.00372 0)
(4.12636 -7.44144 0)
(4.00323 -7.84513 0)
(3.86772 -8.23701 1.94129e-21)
(3.77138 -8.61538 0)
(3.6411 -8.96365 1.24044e-19)
(3.53748 -9.30086 4.8551e-19)
(3.42066 -9.61841 -1.4258e-18)
(3.32079 -9.9111 1.05039e-18)
(3.22 -10.2467 -9.83241e-19)
(4.13224 -0.968519 0)
(4.7079 -1.79367 -8.9054e-20)
(4.39127 -2.41049 0)
(4.1013 -2.95697 2.53885e-19)
(3.94327 -3.54003 -1.68256e-19)
(3.86065 -4.15656 -6.4773e-19)
(3.74463 -4.70087 4.11757e-21)
(3.63136 -5.25714 6.21314e-19)
(3.52416 -5.75666 -6.0161e-19)
(3.42811 -6.2612 1.17821e-18)
(3.32668 -6.71761 -5.07993e-21)
(3.19163 -7.13736 -5.62714e-19)
(3.10505 -7.56055 5.43515e-19)
(2.99309 -7.9465 -6.67277e-19)
(2.91463 -8.33677 0)
(2.82635 -8.70135 -5.03541e-19)
(2.74488 -9.05441 4.96022e-19)
(2.65529 -9.38472 0)
(2.57307 -9.68715 -1.16768e-19)
(2.47559 -10.0143 0)
(2.4521 -0.504074 9.13888e-20)
(3.1818 -1.50513 7.97128e-20)
(3.14214 -2.2808 0)
(3.01597 -2.92442 3.42718e-19)
(2.8245 -3.49404 -4.21502e-19)
(2.66207 -4.05482 2.44919e-19)
(2.5134 -4.57663 -7.20776e-19)
(2.39443 -5.07956 3.13596e-19)
(2.3255 -5.57494 -7.62812e-20)
(2.22039 -6.033 0)
(2.19693 -6.514 -7.24592e-20)
(2.09251 -6.93531 -7.06103e-20)
(2.03133 -7.36197 -6.88098e-20)
(1.94134 -7.75095 0)
(1.87801 -8.1404 -5.19669e-19)
(1.80843 -8.50171 1.08196e-18)
(1.76374 -8.86525 -9.30582e-19)
(1.70955 -9.20262 4.86462e-19)
(1.67149 -9.52022 5.90289e-20)
(1.61812 -9.85702 4.99755e-19)
(1.30816 -0.294248 0)
(1.41224 -0.941839 -1.80512e-19)
(1.51548 -1.67976 5.64051e-22)
(1.53329 -2.46977 4.7508e-19)
(1.49635 -3.12951 -1.27228e-19)
(1.46734 -3.78239 -8.19868e-20)
(1.44003 -4.3746 8.14351e-20)
(1.36407 -4.90585 1.57375e-19)
(1.31966 -5.44343 7.62725e-20)
(1.23383 -5.91149 -2.96455e-19)
(1.17939 -6.39473 3.27819e-19)
(1.12967 -6.82943 7.06087e-20)
(1.09166 -7.26146 3.42954e-19)
(1.03873 -7.6545 -2.76063e-21)
(1.00496 -8.04037 2.99195e-20)
(0.962672 -8.40024 -5.73603e-19)
(0.919444 -8.75232 1.56727e-19)
(0.891427 -9.08792 0)
(0.852878 -9.40136 -2.9554e-20)
(0.831948 -9.74459 -2.5e-19)
(0.361874 -0.385218 2.84556e-20)
(0.413662 -0.887201 -7.67137e-20)
(0.0656134 -1.74554 1.62105e-19)
(0.0138134 -2.25958 -4.35917e-20)
(0.0384837 -3.02358 -4.22819e-20)
(-0.0219687 -3.52491 0)
(0.0318584 -4.20681 -7.98595e-20)
(-0.0147719 -4.70813 1.5632e-19)
(0.0180539 -5.31316 -7.65194e-20)
(-0.011954 -5.7826 7.38992e-20)
(0.0214944 -6.30231 -3.64636e-20)
(-0.00790272 -6.73414 -7.0128e-20)
(0.011281 -7.18773 1.37328e-19)
(-0.0106557 -7.58865 -1.33798e-19)
(-0.00738822 -7.9848 3.28795e-20)
(-0.0299615 -8.35544 2.24622e-34)
(-0.0246446 -8.71194 -3.0566e-20)
(-0.0528953 -9.05045 1.80722e-19)
(-0.0468087 -9.36105 -8.92802e-20)
(-0.0779858 -9.6987 -6.30532e-20)
(0.402857 1.97729 3.9157e-20)
(0.649495 -1.90974 1.92186e-20)
(2.87816 -11.6642 0)
(5.60643 -23.0171 1.84752e-20)
(7.04963 -29.5104 1.79011e-20)
(7.54836 -31.9025 1.67784e-20)
(7.62131 -32.4902 0)
(7.57351 -32.5178 1.37553e-20)
(7.49044 -32.4145 0)
(7.35079 -32.1955 0)
(7.2508 -32.0247 -1.25325e-20)
(7.15819 -31.9283 1.04827e-21)
(7.05462 -31.822 2.3642e-20)
(6.98333 -31.7102 0)
(6.84622 -31.633 1.01225e-20)
(6.78615 -31.4453 9.48845e-21)
(6.61768 -31.3348 8.90397e-21)
(6.58154 -31.2009 0)
(6.40518 -31.0851 -1.55672e-20)
(6.33985 -30.8035 1.47071e-20)
(0.379396 0.633596 6.06919e-20)
(1.0573 -4.30855 -9.69975e-20)
(4.03306 -16.2315 0)
(6.57458 -26.3774 -9.23919e-20)
(7.69335 -30.9872 8.98486e-20)
(7.94905 -32.2557 -1.52624e-19)
(7.95773 -32.4096 6.32037e-20)
(7.91024 -32.341 4.19509e-20)
(7.78178 -32.118 -1.99081e-19)
(7.70268 -31.9539 1.12192e-19)
(7.60284 -31.8406 -1.29548e-20)
(7.52692 -31.7017 9.46863e-20)
(7.4111 -31.608 -4.35869e-21)
(7.32716 -31.4501 -8.74048e-20)
(7.17982 -31.2776 -1.01223e-20)
(7.12141 -31.1611 -9.48916e-21)
(6.9631 -31.082 -8.90432e-21)
(6.92651 -30.9213 0)
(6.73917 -30.7742 -5.94243e-20)
(6.67364 -30.4889 3.03732e-21)
(0.25137 -0.476507 -4.33811e-20)
(1.67467 -7.1872 0)
(5.29629 -20.3179 0)
(7.43093 -28.6339 -3.96696e-20)
(8.22265 -31.6821 3.67866e-20)
(8.37872 -32.3028 0)
(8.3536 -32.3076 -3.06235e-20)
(8.27434 -32.1372 8.66135e-20)
(8.17464 -31.9432 -9.05361e-20)
(8.07719 -31.7717 1.06884e-19)
(7.98245 -31.6022 -1.30684e-19)
(7.8769 -31.4639 0)
(7.77227 -31.3105 -8.72435e-20)
(7.68003 -31.1674 -7.69161e-20)
(7.56098 -31.0833 1.41035e-19)
(7.4908 -30.9128 -1.41251e-19)
(7.32891 -30.7971 1.22544e-19)
(7.28064 -30.6256 0)
(7.07727 -30.4521 -1.27516e-19)
(7.01465 -30.1448 2.10444e-19)
(0.221093 -1.64957 2.21138e-19)
(2.62119 -10.6348 0)
(6.27702 -23.1806 8.77363e-20)
(8.23846 -30.1399 1.15571e-19)
(8.76378 -32.0999 -2.36761e-19)
(8.84196 -32.3045 7.05776e-20)
(8.79092 -32.1874 3.20212e-20)
(8.6859 -31.9134 3.39163e-19)
(8.58289 -31.6929 -4.70869e-19)
(8.4921 -31.5088 -4.27988e-20)
(8.38562 -31.349 2.35356e-19)
(8.29528 -31.2005 4.71213e-20)
(8.18741 -31.0934 -2.14808e-19)
(8.08722 -30.9354 2.0882e-19)
(7.94091 -30.7435 5.65702e-20)
(7.8562 -30.6034 -3.44407e-20)
(7.69352 -30.4901 4.83854e-20)
(7.63618 -30.2949 0)
(7.42521 -30.1104 -1.2706e-20)
(7.36649 -29.8262 0)
(0.406472 -2.7413 0)
(3.55488 -13.4796 3.70211e-19)
(7.36193 -25.7136 -4.54867e-19)
(9.00652 -31.1784 4.19277e-19)
(9.3361 -32.2344 -3.34376e-19)
(9.34442 -32.2087 -7.15126e-20)
(9.25002 -31.9626 0)
(9.15527 -31.7089 1.84916e-19)
(9.05019 -31.5052 -2.44222e-19)
(8.94593 -31.2994 2.67457e-19)
(8.83853 -31.1235 -2.09153e-19)
(8.72199 -30.9604 -4.71147e-20)
(8.59505 -30.7689 2.11141e-19)
(8.47558 -30.5887 -3.59664e-19)
(8.34681 -30.4753 2.20849e-19)
(8.25597 -30.3084 -7.25615e-20)
(8.09112 -30.1854 -1.51885e-19)
(8.0261 -29.99 3.38427e-19)
(7.79589 -29.7937 -1.89991e-19)
(7.7302 -29.4667 -2.0374e-19)
(0.69431 -3.81129 4.11418e-19)
(4.73057 -15.9835 3.95877e-19)
(8.45942 -27.3239 -3.92898e-19)
(9.86889 -31.6265 -9.14719e-20)
(10.0234 -32.1985 7.96972e-20)
(9.99178 -32.0634 2.86157e-19)
(9.84408 -31.7415 -2.8871e-19)
(9.72771 -31.4667 0)
(9.58732 -31.2007 2.29304e-19)
(9.4572 -30.9926 -2.25469e-19)
(9.32189 -30.7864 -1.93357e-19)
(9.18895 -30.6054 1.90227e-19)
(9.06507 -30.473 0)
(8.93445 -30.3152 0)
(8.78425 -30.1226 3.08192e-19)
(8.66441 -29.9754 -3.01016e-19)
(8.49059 -29.8352 -2.26403e-19)
(8.3955 -29.6101 2.23022e-19)
(8.15468 -29.3983 -1.8699e-19)
(8.08964 -29.1125 2.25728e-19)
(1.1211 -4.85737 -3.1983e-19)
(5.9669 -17.9351 1.19877e-19)
(9.62633 -28.6535 2.44752e-20)
(10.7189 -31.8823 4.75976e-19)
(10.732 -32.0278 0)
(10.6079 -31.7524 0)
(10.4214 -31.4192 5.43921e-19)
(10.2744 -31.1285 -3.79983e-20)
(10.1169 -30.9005 -4.88098e-19)
(9.96958 -30.6607 4.13588e-19)
(9.82037 -30.4764 -4.0678e-19)
(9.67522 -30.302 0)
(9.51463 -30.0968 3.12675e-19)
(9.35945 -29.9061 -3.07767e-19)
(9.20123 -29.7648 0)
(9.07419 -29.5851 0)
(8.89473 -29.4559 0)
(8.79971 -29.2499 0)
(8.54186 -29.0512 0)
(8.46892 -28.72 -2.09011e-20)
(1.77504 -6.17975 2.56771e-19)
(7.23978 -19.4003 -3.42428e-19)
(10.7331 -29.2583 0)
(11.5684 -31.6827 0)
(11.4976 -31.697 7.16456e-19)
(11.3182 -31.3779 2.65158e-20)
(11.107 -31.0445 -6.51774e-19)
(10.9252 -30.7653 0)
(10.7283 -30.4805 5.64232e-20)
(10.5412 -30.268 -5.09782e-20)
(10.3596 -30.0359 0)
(10.1727 -29.8428 4.14691e-20)
(10.0117 -29.6915 -3.33298e-19)
(9.84007 -29.5234 5.91615e-19)
(9.67129 -29.349 -2.28194e-20)
(9.51407 -29.2133 -2.36171e-19)
(9.32404 -29.0623 -2.39092e-20)
(9.18903 -28.8243 2.11128e-20)
(8.91719 -28.6091 0)
(8.83593 -28.3202 1.63682e-20)
(2.48754 -6.97388 0)
(8.14905 -20.5606 1.67114e-19)
(11.8536 -29.7216 -6.44935e-19)
(12.4215 -31.4642 1.81909e-19)
(12.2329 -31.2815 8.00652e-20)
(11.9789 -30.8882 6.52787e-19)
(11.733 -30.5811 -8.90676e-19)
(11.5053 -30.2647 6.34022e-19)
(11.2777 -30.0234 -4.8061e-19)
(11.0694 -29.7725 5.6462e-19)
(10.8651 -29.5925 8.63972e-20)
(10.6725 -29.4148 3.43059e-19)
(10.471 -29.2267 -1.96339e-19)
(10.2737 -29.053 -3.40013e-19)
(10.0765 -28.8891 2.95731e-19)
(9.90034 -28.7124 0)
(9.70191 -28.5971 6.58418e-20)
(9.56535 -28.3954 1.52888e-20)
(9.28045 -28.2021 -3.17948e-20)
(9.19352 -27.8739 1.07799e-20)
(2.8575 -7.9967 -4.33389e-19)
(9.50374 -21.2935 3.42285e-19)
(12.8383 -29.6137 -4.66189e-21)
(13.2505 -30.8784 -3.59554e-19)
(12.994 -30.661 -3.22223e-19)
(12.7196 -30.3371 -1.48694e-19)
(12.4223 -30.0057 -6.67831e-21)
(12.1646 -29.7399 -1.19985e-19)
(11.9002 -29.4657 0)
(11.647 -29.2613 -9.65161e-20)
(11.4084 -29.0249 -8.6386e-20)
(11.1663 -28.8453 -7.25099e-21)
(10.9543 -28.6888 2.41317e-19)
(10.7355 -28.5228 -1.29669e-19)
(10.5341 -28.3825 -2.46175e-19)
(10.3357 -28.2605 1.89121e-19)
(10.1238 -28.124 1.0308e-19)
(9.94699 -27.9167 -1.79248e-19)
(9.6443 -27.7259 3.1795e-20)
(9.54152 -27.4208 1.53146e-19)
(3.59744 -8.46133 -1.06434e-18)
(10.34 -22.0656 1.07191e-18)
(13.8963 -29.5276 -1.1372e-18)
(14.0221 -30.3789 9.12035e-19)
(13.689 -30.0582 7.49938e-19)
(13.3632 -29.683 -5.83748e-19)
(13.0258 -29.3852 -7.12935e-19)
(12.7187 -29.0728 4.52565e-20)
(12.4198 -28.8328 4.07893e-19)
(12.143 -28.6013 -2.43144e-19)
(11.8808 -28.4388 6.02543e-19)
(11.6296 -28.2653 -3.49659e-19)
(11.3851 -28.1178 -6.15246e-20)
(11.141 -27.9714 1.33442e-19)
(10.898 -27.8004 -3.45107e-19)
(10.6666 -27.6505 1.58234e-19)
(10.4447 -27.5618 0)
(10.2512 -27.3902 -1.89192e-19)
(9.93705 -27.2166 1.8644e-19)
(9.81656 -26.8909 -1.0845e-19)
(4.09761 -8.93127 2.09878e-19)
(11.569 -22.0466 2.42681e-19)
(14.753 -28.8704 9.61016e-19)
(14.8544 -29.4742 7.80688e-19)
(14.4162 -29.2002 -4.73452e-19)
(14.0695 -28.9094 6.07018e-19)
(13.6819 -28.6161 -3.5897e-19)
(13.3402 -28.3762 3.73789e-19)
(13.0064 -28.1313 -6.93868e-19)
(12.6844 -27.9404 2.40609e-19)
(12.383 -27.726 0)
(12.0873 -27.5756 0)
(11.8163 -27.4261 0)
(11.5514 -27.29 -3.00564e-19)
(11.3065 -27.1876 2.95923e-19)
(11.0608 -27.0645 0)
(10.8184 -26.9556 0)
(10.6024 -26.8151 -1.2473e-20)
(10.273 -26.6671 0)
(10.1358 -26.3304 -6.38067e-20)
(4.79951 -9.30607 -3.94812e-19)
(12.5346 -22.3147 -9.64866e-19)
(15.6367 -28.3645 -6.38556e-19)
(15.506 -28.7087 -8.86765e-20)
(15.0344 -28.386 7.97828e-19)
(14.6244 -28.0751 -1.77377e-19)
(14.208 -27.8108 -5.01294e-20)
(13.8171 -27.5442 -4.50302e-19)
(13.4511 -27.3273 0)
(13.1073 -27.1429 -1.80734e-19)
(12.7908 -27.0018 2.81621e-19)
(12.4802 -26.8466 0)
(12.1987 -26.7495 2.73412e-19)
(11.9097 -26.6291 -2.6912e-19)
(11.6299 -26.4868 1.69239e-19)
(11.3559 -26.3816 -2.78742e-19)
(11.115 -26.3065 1.22756e-19)
(10.8771 -26.1784 1.2474e-20)
(10.5661 -26.0587 1.09051e-21)
(10.4297 -25.7443 -1.67025e-20)
(5.3131 -9.44161 -5.1122e-19)
(13.4613 -21.8602 4.97854e-20)
(16.2999 -27.3622 7.09643e-20)
(16.1903 -27.5972 1.08328e-18)
(15.6342 -27.3698 6.28296e-20)
(15.2119 -27.1248 -5.20198e-19)
(14.7518 -26.8888 -3.18194e-19)
(14.3346 -26.6865 1.23715e-19)
(13.938 -26.4876 3.17197e-19)
(13.5534 -26.3262 -2.84721e-19)
(13.1953 -26.1672 1.33863e-19)
(12.8496 -26.0524 -2.59855e-19)
(12.5202 -25.9255 2.11515e-19)
(12.2189 -25.8457 -1.24716e-19)
(11.9265 -25.7786 1.16439e-19)
(11.6374 -25.6711 2.39262e-20)
(11.3717 -25.6207 -3.59323e-20)
(11.1275 -25.5649 -2.67296e-20)
(10.8055 -25.462 3.28844e-20)
(10.6473 -25.1452 1.10155e-19)
(5.93055 -9.57801 -6.15447e-19)
(14.3511 -21.6696 -9.31235e-20)
(17.0178 -26.5368 5.71298e-19)
(16.7126 -26.5846 -4.33095e-19)
(16.1446 -26.3335 4.2519e-19)
(15.6533 -26.1158 9.14715e-20)
(15.1814 -25.9109 0)
(14.7133 -25.7194 -4.76019e-20)
(14.2886 -25.538 1.10488e-19)
(13.8823 -25.4085 -3.70173e-19)
(13.5143 -25.2927 2.48167e-19)
(13.1506 -25.1826 3.74083e-20)
(12.8316 -25.1343 1.86931e-20)
(12.4982 -25.0346 0)
(12.1909 -24.9636 1.28758e-20)
(11.8762 -24.903 -5.61293e-20)
(11.6048 -24.8339 -3.50716e-20)
(11.3329 -24.818 -5.7501e-20)
(11.0532 -24.8119 1.17678e-19)
(10.8959 -24.5181 -4.28198e-20)
(6.41859 -9.50877 5.32567e-19)
(15.0447 -20.9557 -8.8983e-19)
(17.4757 -25.2884 4.89454e-19)
(17.1884 -25.3798 3.4971e-19)
(16.5651 -25.2084 -5.7746e-20)
(16.0546 -25.026 -2.27562e-19)
(15.546 -24.8595 4.03496e-20)
(15.067 -24.7197 4.75988e-20)
(14.6179 -24.5866 0)
(14.1825 -24.4704 0)
(13.7785 -24.3836 -6.02105e-20)
(13.3866 -24.2976 5.72244e-20)
(13.0114 -24.2288 -5.15031e-21)
(12.6804 -24.2083 0)
(12.3408 -24.1515 1.39696e-20)
(12.0228 -24.1001 1.8411e-19)
(11.7295 -24.0809 -1.85485e-19)
(11.4437 -24.0774 1.91794e-20)
(11.1677 -24.108 2.74951e-19)
(11.0051 -23.8719 -1.79449e-19)
(6.91602 -9.42131 -4.35915e-19)
(15.7655 -20.3865 5.37655e-19)
(17.9709 -24.1599 0)
(17.5399 -24.135 0)
(16.9303 -23.9823 4.46198e-20)
(16.3746 -23.8759 -2.00065e-19)
(15.8574 -23.7448 2.31212e-20)
(15.3331 -23.635 9.90497e-20)
(14.857 -23.5078 -4.74781e-20)
(14.3962 -23.4351 3.02074e-20)
(13.9811 -23.3605 1.62092e-20)
(13.5714 -23.3081 -2.50872e-20)
(13.2046 -23.2914 -1.93041e-19)
(12.8402 -23.2645 -7.22366e-20)
(12.507 -23.2842 1.46389e-19)
(12.1556 -23.2366 -2.46567e-20)
(11.852 -23.216 3.21875e-19)
(11.5382 -23.2724 -2.86159e-19)
(11.3052 -23.345 1.20631e-20)
(11.1559 -23.1895 -3.50176e-19)
(7.33919 -9.22256 0)
(16.293 -19.4988 1.94862e-19)
(18.2442 -22.8626 -2.38921e-19)
(17.7829 -22.8949 0)
(17.1438 -22.7799 -4.46154e-20)
(16.5507 -22.6835 5.94822e-20)
(16.0175 -22.5969 -7.8232e-20)
(15.4953 -22.5434 0)
(15.012 -22.4806 -1.05622e-19)
(14.5388 -22.421 1.0386e-19)
(14.1032 -22.4079 -3.3057e-20)
(13.6739 -22.3455 2.08561e-20)
(13.2607 -22.3319 2.62989e-20)
(12.8927 -22.3359 3.10836e-20)
(12.5265 -22.3557 3.93448e-19)
(12.1904 -22.3891 -7.35739e-19)
(11.8513 -22.3815 7.79376e-19)
(11.5172 -22.459 -7.98598e-19)
(11.2748 -22.5846 3.57876e-19)
(11.1381 -22.5206 -5.13983e-20)
(7.73135 -8.93549 0)
(16.7371 -18.5673 -1.77892e-19)
(18.4897 -21.4889 1.07759e-19)
(17.9428 -21.4917 5.24898e-20)
(17.325 -21.4394 -4.90395e-20)
(16.7296 -21.4331 -4.34213e-20)
(16.1725 -21.3817 3.21548e-20)
(15.6152 -21.3536 0)
(15.0995 -21.311 0)
(14.5939 -21.2847 0)
(14.1411 -21.288 3.30533e-20)
(13.6992 -21.3063 0)
(13.2787 -21.302 4.99073e-19)
(12.8805 -21.3412 -4.30759e-19)
(12.5053 -21.382 4.91325e-19)
(12.1306 -21.4068 -9.95925e-19)
(11.7778 -21.4612 5.04384e-19)
(11.3996 -21.5326 6.11544e-19)
(11.1253 -21.6801 -1.08131e-18)
(10.9899 -21.7319 5.75853e-19)
(8.10782 -8.64528 0)
(17.0624 -17.5807 0)
(18.6097 -20.1636 2.2293e-20)
(17.9925 -20.214 8.53446e-21)
(17.3497 -20.1676 0)
(16.6994 -20.1648 -1.26195e-19)
(16.1558 -20.1612 1.23986e-19)
(15.607 -20.1889 0)
(15.1072 -20.1994 -4.31007e-19)
(14.6031 -20.1908 4.23808e-19)
(14.135 -20.2111 0)
(13.6848 -20.2243 5.52628e-19)
(13.2341 -20.2494 -2.0767e-20)
(12.8113 -20.267 -5.75325e-19)
(12.4045 -20.3411 0)
(12.0015 -20.3631 0)
(11.5685 -20.408 0)
(11.1192 -20.4357 6.33562e-19)
(10.7667 -20.3456 -6.92438e-19)
(10.3776 -20.6113 0)
(5.52956 -30.0544 0)
(4.86798 -28.7488 0)
(3.96233 -28.5255 -2.76687e-22)
(3.42554 -27.9498 -1.908e-23)
(2.748 -27.6125 0)
(2.38919 -27.2225 7.22557e-23)
(1.95487 -26.9201 -5.2961e-22)
(1.67038 -26.5878 0)
(1.37943 -26.2724 -9.01162e-22)
(1.15779 -26.0404 0)
(0.958908 -25.8429 1.07894e-21)
(0.811914 -25.6827 5.85125e-22)
(0.655651 -25.5469 -5.88248e-22)
(0.568429 -25.4224 -1.27919e-21)
(0.439868 -25.3376 0)
(0.415905 -25.1168 3.43899e-22)
(0.3021 -24.1978 -1.71275e-21)
(0.304764 -21.1729 0)
(0.0947059 -14.9831 0)
(0.0816673 -6.10942 -1.4559e-21)
(5.81171 -29.7345 6.10998e-21)
(5.09889 -28.5237 0)
(4.17046 -28.4231 7.35042e-22)
(3.65432 -27.814 -4.41396e-22)
(2.97671 -27.476 0)
(2.57711 -27.0982 2.62569e-21)
(2.12211 -26.802 -1.16159e-21)
(1.79825 -26.4795 0)
(1.49351 -26.1753 -1.02822e-21)
(1.25053 -25.9593 1.94012e-21)
(1.04217 -25.7762 -3.3386e-21)
(0.880726 -25.6275 4.6615e-21)
(0.714656 -25.5036 -3.65634e-21)
(0.617954 -25.3885 1.23502e-21)
(0.479437 -25.3115 1.31127e-21)
(0.446326 -25.0966 -1.38658e-21)
(0.313271 -24.1821 2.61625e-21)
(0.318047 -21.141 3.46733e-21)
(0.090392 -14.9475 1.83717e-21)
(0.0781778 -6.08148 1.82073e-21)
(6.10567 -29.4361 -4.92762e-21)
(5.32246 -28.2384 -4.38974e-21)
(4.33255 -28.0983 -4.51822e-22)
(3.73655 -27.5802 0)
(3.0455 -27.3121 0)
(2.63071 -26.9722 -3.52771e-21)
(2.18196 -26.707 -5.96668e-22)
(1.84901 -26.4096 -4.48947e-22)
(1.54531 -26.1205 -4.00347e-22)
(1.29275 -25.9138 4.02362e-21)
(1.08025 -25.7381 0)
(0.911725 -25.5931 0)
(0.741968 -25.4719 0)
(0.643673 -25.36 5.28007e-21)
(0.501028 -25.2887 0)
(0.47127 -25.0772 5.60585e-21)
(0.324971 -24.172 -5.07355e-21)
(0.333526 -21.1279 -1.97966e-21)
(0.10406 -14.935 -3.63611e-21)
(0.0761491 -6.06802 -5.87305e-21)
(6.38415 -29.0869 5.97275e-21)
(5.60007 -28.0181 -1.03943e-20)
(4.59674 -28.0013 8.73031e-22)
(3.97286 -27.4424 -3.03188e-22)
(3.27717 -27.1746 0)
(2.81312 -26.8453 -5.44875e-21)
(2.34756 -26.5871 1.52936e-20)
(1.97422 -26.2996 -1.04069e-20)
(1.65761 -26.0228 7.83291e-21)
(1.38378 -25.831 -4.46652e-21)
(1.16135 -25.67 -1.89438e-22)
(0.979392 -25.5358 4.9835e-21)
(0.80033 -25.4272 -5.0077e-21)
(0.69316 -25.324 -2.59698e-21)
(0.538345 -25.2615 -2.69322e-21)
(0.498014 -25.0554 -5.61003e-21)
(0.335514 -24.1622 6.11649e-21)
(0.347209 -21.1133 -2.55495e-21)
(0.0973864 -14.9117 1.45913e-21)
(0.0780873 -6.04682 5.86343e-21)
(6.67719 -28.7952 2.0541e-20)
(5.78708 -27.7141 2.02273e-21)
(4.71447 -27.646 5.84897e-22)
(4.03988 -27.1993 -1.97001e-21)
(3.34113 -27.0043 0)
(2.85921 -26.7127 2.69719e-21)
(2.40392 -26.4869 -3.20359e-21)
(2.01977 -26.2231 0)
(1.70498 -25.9635 1.5258e-22)
(1.42209 -25.7799 0)
(1.19575 -25.6272 9.48488e-21)
(1.00734 -25.4971 0)
(0.825396 -25.3924 0)
(0.716473 -25.2924 1.0883e-20)
(0.560219 -25.2345 -5.46175e-21)
(0.520911 -25.0339 5.74051e-21)
(0.345236 -24.1552 0)
(0.361265 -21.1066 -1.26599e-21)
(0.103101 -14.9031 1.40659e-21)
(0.0881197 -6.03527 0)
(6.97847 -28.4005 5.43128e-21)
(6.06005 -27.4749 -2.59992e-21)
(4.98779 -27.5339 -4.11401e-21)
(4.27466 -27.053 4.21075e-21)
(3.57067 -26.8607 -4.89281e-21)
(3.03606 -26.58 -2.7056e-21)
(2.56647 -26.3652 7.21024e-21)
(2.14252 -26.111 7.98699e-21)
(1.81533 -25.8654 -4.22933e-21)
(1.51157 -25.6955 -9.48013e-21)
(1.27483 -25.5578 4.7102e-21)
(1.07351 -25.4384 0)
(0.882537 -25.3464 0)
(0.76378 -25.2545 1.03381e-22)
(0.593025 -25.2068 5.53549e-21)
(0.544651 -25.0102 -5.7229e-21)
(0.35362 -24.1503 0)
(0.3771 -21.104 1.01497e-20)
(0.0992815 -14.8968 1.01094e-20)
(0.102675 -6.0195 7.2185e-22)
(7.25979 -28.1029 -1.2665e-20)
(6.25651 -27.1599 9.8455e-21)
(5.09433 -27.1672 1.18956e-21)
(4.33196 -26.8073 0)
(3.62941 -26.6877 4.91366e-21)
(3.07795 -26.4416 -1.3514e-20)
(2.61857 -26.2602 6.3278e-21)
(2.18453 -26.028 -8.00955e-21)
(1.85848 -25.8014 0)
(1.54652 -25.6386 0)
(1.30573 -25.5102 -1.02322e-20)
(1.09884 -25.3955 1.02689e-20)
(0.904908 -25.3082 0)
(0.782536 -25.2195 -1.66442e-20)
(0.611208 -25.1735 5.49453e-21)
(0.565573 -24.9859 5.76319e-21)
(0.359978 -24.1481 -4.92247e-21)
(0.392168 -21.107 -1.26743e-20)
(0.0970814 -14.8969 -7.01134e-21)
(0.120152 -6.00749 -1.4323e-21)
(7.56885 -27.6554 0)
(6.48608 -26.8913 8.7951e-22)
(5.35363 -27.0257 -8.82195e-22)
(4.56198 -26.6411 0)
(3.85408 -26.5348 0)
(3.2506 -26.3026 1.44626e-20)
(2.77611 -26.1363 -1.45057e-20)
(2.30514 -25.914 0)
(1.96644 -25.7028 -9.56376e-21)
(1.63425 -25.553 1.9649e-20)
(1.38242 -25.4395 -1.00868e-20)
(1.16267 -25.3355 -1.08391e-20)
(0.958999 -25.2606 1.08719e-20)
(0.826065 -25.1782 0)
(0.636196 -25.1465 0)
(0.5873 -24.9613 5.7756e-21)
(0.36436 -24.1481 -7.53818e-21)
(0.406469 -21.1143 -2.27167e-23)
(0.0893115 -14.9046 4.44676e-21)
(0.139643 -5.99451 -1.42534e-21)
(7.84775 -27.3463 3.45187e-21)
(6.70155 -26.5464 -3.45989e-21)
(5.47448 -26.6673 1.05485e-20)
(4.61951 -26.402 -1.78964e-20)
(3.91013 -26.359 2.39981e-20)
(3.28993 -26.1584 1.95416e-21)
(2.82402 -26.026 -1.54416e-20)
(2.34463 -25.825 0)
(2.00562 -25.6337 0)
(1.66632 -25.4904 -1.03415e-20)
(1.40974 -25.387 0)
(1.18501 -25.2883 0)
(0.977707 -25.2187 0)
(0.841333 -25.1396 0)
(0.655704 -25.1115 0)
(0.605918 -24.9346 0)
(0.367232 -24.1496 5.48972e-21)
(0.422677 -21.1258 -5.54003e-21)
(0.0818369 -14.9188 1.48846e-21)
(0.160607 -5.98355 -1.42366e-21)
(8.13484 -26.868 -1.75647e-20)
(6.88563 -26.2585 -4.4067e-22)
(5.70328 -26.4771 4.86281e-21)
(4.83908 -26.2084 8.27794e-21)
(4.12923 -26.1948 -4.50268e-21)
(3.45869 -26.0133 -2.25071e-20)
(2.97613 -25.9 -8.96544e-21)
(2.46318 -25.7094 0)
(2.11083 -25.5345 1.03414e-20)
(1.75214 -25.4036 -2.08241e-20)
(1.48361 -25.3149 -1.09572e-20)
(1.24589 -25.2269 -1.13592e-20)
(1.02774 -25.1689 0)
(0.877803 -25.096 -1.17577e-20)
(0.677768 -25.0815 -1.15558e-20)
(0.625122 -24.9077 0)
(0.367729 -24.155 0)
(0.438565 -21.1435 0)