/*--------------------------------*- C++ -*----------------------------------*\
  =========                 |
  \\      /  F ield         | OpenFOAM: The Open Source CFD Toolbox
   \\    /   O peration     | Website:  https://openfoam.org
    \\  /    A nd           | Version:  9
     \\/     M anipulation  |
\*---------------------------------------------------------------------------*/
FoamFile
{
    format      ascii;
    class       volScalarField;
    location    "8.5";
    object      nut;
}
// * * * * * * * * * * * * * * * * * * * * * * * * * * * * * * * * * * * * * //

dimensions      [0 2 -1 0 0 0 0];

internalField   nonuniform List<scalar> 
46400
(
0.0231478
0.00928948
0.00275023
0.00172895
0.00176884
0.00170744
0.00162871
0.00158026
0.00152854
0.0014779
0.00139662
0.00137135
0.00134048
0.00129127
0.00126679
0.00127015
0.00118381
0.00113729
0.0014769
0.001188
0.0226453
0.00806573
0.00227974
0.0016984
0.00170643
0.00168507
0.00161229
0.00157071
0.00148681
0.00145962
0.00142638
0.00136809
0.00131905
0.00127671
0.0012207
0.00118379
0.00113015
0.0010284
0.00130778
0.00117431
0.0221305
0.00736141
0.0018268
0.00178898
0.00172989
0.00169709
0.00161226
0.00157313
0.00151127
0.00145084
0.00138054
0.00134775
0.0013036
0.00126145
0.0012315
0.00121216
0.00110382
0.00106812
0.00138775
0.00116098
0.0215969
0.00606159
0.00154409
0.00172892
0.00165653
0.00166861
0.00158515
0.00155617
0.00148137
0.00145211
0.00140976
0.00135906
0.00130987
0.00125838
0.00120477
0.00117317
0.00112742
0.00104088
0.00138789
0.00121918
0.0209673
0.00559298
0.0015791
0.00183226
0.00169914
0.00167931
0.00159176
0.00155157
0.00149269
0.00144438
0.00138978
0.00135108
0.00131961
0.0012764
0.0012504
0.00121403
0.00113278
0.00108798
0.00141179
0.00123228
0.0203151
0.00473732
0.00151132
0.00175214
0.00163759
0.00165705
0.00157566
0.00154509
0.00146393
0.00141628
0.0013866
0.00133984
0.00130859
0.00127232
0.00122806
0.00121088
0.001145
0.0010764
0.00140239
0.00123385
0.0195278
0.00559128
0.00164661
0.00185649
0.00171563
0.00168912
0.00159663
0.00155396
0.00150672
0.00144191
0.00138163
0.00133688
0.00129292
0.00125968
0.00124807
0.00122841
0.00116003
0.00109552
0.00138951
0.0012285
0.0187393
0.00548266
0.00163939
0.00179145
0.00165348
0.00168288
0.00160774
0.00155404
0.00148942
0.00143251
0.00138864
0.00134037
0.00131167
0.00125227
0.00121194
0.0012111
0.00117455
0.00109369
0.0013867
0.0012821
0.0179672
0.00524652
0.00167608
0.00188604
0.00170421
0.00165965
0.00160412
0.00154842
0.00150767
0.00146396
0.00140367
0.00134202
0.00130448
0.0012873
0.00122896
0.00118265
0.00114941
0.001082
0.00132904
0.00121662
0.0164358
0.00422227
0.00166245
0.00178491
0.00166193
0.00162415
0.0015774
0.00153749
0.00147188
0.00141385
0.00139927
0.00134308
0.00128921
0.00124819
0.00123615
0.00119584
0.00114755
0.00108331
0.00130195
0.00123638
0.0147367
0.00357485
0.00169761
0.00178931
0.00169215
0.0016097
0.00154367
0.00148435
0.00147549
0.00141794
0.00138072
0.00136474
0.00131801
0.00125144
0.00122329
0.00118766
0.0011369
0.0010748
0.00123626
0.00116025
0.0123182
0.0029413
0.00176868
0.00170922
0.00160737
0.00154246
0.00151118
0.00144324
0.00140079
0.00134703
0.00129939
0.00126861
0.00126952
0.00122984
0.00120006
0.00118199
0.00113063
0.00107696
0.00121648
0.00116191
0.00999979
0.00254219
0.00169571
0.00171181
0.00171167
0.00158666
0.00153103
0.00145686
0.00142447
0.00140266
0.00134854
0.00127034
0.00123434
0.00119695
0.00115921
0.00113304
0.00108512
0.00103144
0.00114472
0.00107181
0.00813975
0.00213841
0.00176504
0.00162817
0.00159655
0.00155073
0.00148454
0.00142381
0.00135098
0.00129975
0.00130843
0.00127656
0.00124989
0.00122209
0.0011956
0.00118725
0.00116071
0.00109991
0.00120707
0.00114861
0.00660762
0.00188963
0.00163055
0.00161518
0.00161643
0.00157993
0.00157032
0.00149358
0.00144613
0.00134259
0.00127835
0.00121154
0.00117342
0.00113276
0.00108453
0.0010509
0.00103264
0.000997192
0.00104944
0.00103343
0.00576966
0.00182722
0.00169066
0.00156009
0.00150011
0.00141015
0.00142786
0.00140762
0.00142294
0.00137827
0.00135223
0.00130652
0.00125365
0.0012298
0.00119491
0.00114321
0.0010966
0.00104596
0.00109552
0.00103394
0.00491369
0.00184857
0.00170143
0.00154161
0.00158081
0.00147849
0.00140149
0.00131556
0.0012958
0.00127716
0.00125306
0.00124169
0.00120047
0.00116055
0.00114561
0.00111701
0.00108574
0.00103488
0.00107743
0.00104493
0.00405152
0.00162995
0.001621
0.00157533
0.00153595
0.0014901
0.001511
0.00143523
0.00137585
0.00132012
0.0012551
0.00122485
0.00119425
0.00114575
0.0011122
0.00109564
0.00106724
0.00102934
0.0010576
0.00100696
0.0036431
0.00160169
0.00172221
0.00163475
0.00155209
0.0014767
0.00140002
0.00137894
0.00132362
0.00130542
0.00125705
0.00120903
0.00118129
0.001156
0.00110898
0.0010781
0.00104169
0.00098894
0.00102318
0.000978857
0.00332868
0.00135603
0.00147833
0.00162494
0.00154742
0.0015028
0.00140643
0.00138276
0.00132344
0.00128639
0.00126372
0.00121694
0.00118231
0.00113871
0.00111664
0.00107908
0.00105184
0.000991276
0.00101045
0.00097033
0.00982741
0.0161883
0.012314
0.00229615
0.000501943
0.000892668
0.00112587
0.00111905
0.0010575
0.00101868
0.00100981
0.000981909
0.000967472
0.0010182
0.00102035
0.00107312
0.00113833
0.00120417
0.00113741
0.000967613
0.0124834
0.0164124
0.0113114
0.000895456
0.000609238
0.00112513
0.00120773
0.00110249
0.00108149
0.00105029
0.00101628
0.00102503
0.00101897
0.000976135
0.000999091
0.00114648
0.00121858
0.00123587
0.00111162
0.000950249
0.0153587
0.0165222
0.0103787
0.000293257
0.000784839
0.00124367
0.00128107
0.00121734
0.00115703
0.0011112
0.00109925
0.00105464
0.00103458
0.0010886
0.00110275
0.00115411
0.00118335
0.00123046
0.00110892
0.000959566
0.0179587
0.0163807
0.00876517
0.000559901
0.00100741
0.00133635
0.0013048
0.00120743
0.00117515
0.00113835
0.00109603
0.00110814
0.00110082
0.00104259
0.00106135
0.00119692
0.00125586
0.00127903
0.00111113
0.000971028
0.0193653
0.0164596
0.00661279
0.000483944
0.00121244
0.00140693
0.00133869
0.00130293
0.00123581
0.00118652
0.00117282
0.00111222
0.00108827
0.00114437
0.00116247
0.00120541
0.00121348
0.00125692
0.00110554
0.000980428
0.0210569
0.0160373
0.0050254
0.00021359
0.00130994
0.00145497
0.00136313
0.00128417
0.00125129
0.00120402
0.00115905
0.00117652
0.00116385
0.00109095
0.00110803
0.00122237
0.00127125
0.00130907
0.00110121
0.000995705
0.0214488
0.0159715
0.00365536
0.000480023
0.00140298
0.00148175
0.00142217
0.0013662
0.00129889
0.0012513
0.00123158
0.00115802
0.00113402
0.00118799
0.0011939
0.00122125
0.00122854
0.00128723
0.0011109
0.00100131
0.0222101
0.0155682
0.00262692
0.000580734
0.00150823
0.00151048
0.00143568
0.00135764
0.00131892
0.00125783
0.00121226
0.00123277
0.00120882
0.00112727
0.00114456
0.00123601
0.00127546
0.00133414
0.00110642
0.0010243
0.0229795
0.0152458
0.00199933
0.00081258
0.00155206
0.00153404
0.00148903
0.00141406
0.00135104
0.00130733
0.00127176
0.00119199
0.00117566
0.00121918
0.00120618
0.00121553
0.00123799
0.00132857
0.00112545
0.00103287
0.0234997
0.0148685
0.00149124
0.00100548
0.00161053
0.00154663
0.00149188
0.00141782
0.00137135
0.00130198
0.00126151
0.0012746
0.00123498
0.00115332
0.00116799
0.00123195
0.00125964
0.00134344
0.00110714
0.00104603
0.0239907
0.0144592
0.00144807
0.0011435
0.00163492
0.0015693
0.00153888
0.00145167
0.00139359
0.00135192
0.00130228
0.0012233
0.00121495
0.00124526
0.00121211
0.00120305
0.0012378
0.00135431
0.00112627
0.00106318
0.0242853
0.0140527
0.00161536
0.00129102
0.00167195
0.00157318
0.00153254
0.00146567
0.00141058
0.00133851
0.00130377
0.00130576
0.00124702
0.00117065
0.00118315
0.00122021
0.00123464
0.00133737
0.00109492
0.00106184
0.02454
0.0135851
0.00206184
0.00136746
0.00170611
0.00159538
0.00157313
0.00148647
0.00143288
0.00139209
0.00132996
0.00125733
0.00126022
0.00127498
0.00121423
0.00118818
0.00122727
0.00135221
0.00111007
0.00108925
0.024643
0.0131376
0.00225996
0.00145573
0.00173996
0.00160251
0.0015597
0.00150488
0.00144165
0.00137137
0.00134402
0.00132973
0.00124959
0.001194
0.00120996
0.0012105
0.00119936
0.00130277
0.00107069
0.00108799
0.0247047
0.0127435
0.00280953
0.00148417
0.00175116
0.00163641
0.00159522
0.00151667
0.0014722
0.00142989
0.00135823
0.00130376
0.00131274
0.00129712
0.00121892
0.00119907
0.00123108
0.00131065
0.0010563
0.0011166
0.0246296
0.0123689
0.00284162
0.00154685
0.00175485
0.00163843
0.00158808
0.00153492
0.00146636
0.00140576
0.00138112
0.00134687
0.00126314
0.00124083
0.00124383
0.00119458
0.00118465
0.00127132
0.0010232
0.0011215
0.024495
0.0120082
0.00271179
0.00160204
0.00176039
0.00166896
0.00161464
0.00154528
0.0015064
0.00146396
0.00139163
0.00135741
0.00135104
0.00131383
0.00125897
0.00124287
0.00123404
0.00125353
0.000974824
0.00114566
0.0242272
0.0115596
0.00257077
0.00163063
0.00175777
0.00166373
0.00161302
0.00155898
0.00148557
0.00143641
0.0014098
0.00136915
0.00129749
0.00128598
0.00126872
0.0012155
0.00122225
0.00125359
0.000924894
0.00114136
0.0239573
0.0108931
0.00267234
0.00168935
0.00177726
0.00169697
0.0016339
0.00157535
0.00153483
0.00149449
0.0014195
0.00139785
0.00138121
0.00133974
0.00130834
0.00130142
0.00128229
0.00126206
0.00090368
0.0011091
0.023527
0.00996313
0.00260885
0.00167329
0.00175457
0.00168272
0.00162562
0.00157693
0.00149763
0.00146387
0.00144068
0.00139952
0.00135213
0.00134251
0.00132112
0.0013211
0.00136634
0.00132369
0.00108988
0.00130893
0.00666155
0.0050495
0.00410713
0.00311647
0.00282422
0.00233632
0.00189727
0.00155803
0.00133431
0.00109484
0.000909535
0.00073387
0.000582441
0.000474021
0.000486113
0.000833418
0.00193042
0.00630517
0.010822
0.0152525
0.00662654
0.00505116
0.00412274
0.0031138
0.00287184
0.00236607
0.00191837
0.00158017
0.00134214
0.00110449
0.000909923
0.00073827
0.000586031
0.000474001
0.000474616
0.000830865
0.00189775
0.00629276
0.0108038
0.015234
0.00592375
0.00504163
0.00409829
0.00306558
0.00282527
0.00229934
0.00186519
0.00154945
0.00131169
0.0010828
0.000888711
0.000719044
0.000564099
0.000458056
0.000458027
0.000805174
0.0018752
0.00627661
0.0107742
0.0152453
0.00683256
0.00505989
0.00413949
0.00307664
0.00287014
0.002335
0.0018886
0.00157599
0.00132333
0.00109731
0.000893198
0.00072814
0.000571863
0.000465019
0.000437286
0.000799172
0.00184668
0.0062856
0.0107845
0.0152406
0.00697742
0.0050341
0.00411979
0.00302959
0.00281343
0.00227198
0.00183934
0.00154486
0.00129324
0.00107693
0.00087246
0.000710598
0.000554501
0.000455938
0.000426883
0.0007713
0.00181485
0.00626573
0.0107446
0.0152518
0.00707028
0.00502045
0.00414023
0.00304506
0.00285864
0.00230443
0.00186712
0.00157346
0.00130784
0.00109439
0.00088188
0.000723192
0.000567402
0.000466069
0.00041249
0.000759439
0.00177994
0.00623834
0.0107656
0.0152538
0.00718362
0.00505782
0.00413688
0.00299414
0.00280089
0.00224165
0.00182268
0.0015422
0.00127963
0.00107525
0.000863042
0.000708022
0.000552117
0.000454422
0.000401495
0.000728619
0.00175191
0.00621533
0.0107505
0.0152412
0.00717879
0.00498993
0.00414014
0.00301594
0.0028422
0.00227257
0.00185303
0.0015708
0.00129628
0.00109503
0.000875483
0.000722005
0.000564731
0.000458983
0.00038244
0.000714563
0.00170299
0.00615077
0.0108071
0.0152041
0.00733605
0.00506095
0.00414211
0.00296452
0.00278048
0.00221489
0.00181039
0.00154224
0.00127017
0.00107687
0.000859082
0.000708549
0.000550116
0.000448582
0.000304674
0.000668356
0.00165365
0.0061488
0.010844
0.015222
0.0072394
0.00495393
0.00414768
0.00299847
0.00281361
0.00225098
0.00183797
0.00157129
0.00128894
0.00109761
0.000873381
0.000724354
0.000564893
0.000467085
0.000381042
0.000628549
0.00158908
0.00609373
0.0108489
0.0152751
0.00741594
0.00499825
0.00412551
0.00294688
0.00274274
0.00220531
0.0017971
0.00154628
0.00126541
0.00108234
0.000860417
0.00071427
0.000555324
0.000466649
0.000284046
0.000586729
0.00151894
0.00608401
0.0108533
0.0153787
0.00728092
0.00488012
0.00414705
0.00299423
0.00276244
0.00224488
0.00182244
0.00157479
0.00128583
0.00110297
0.000876825
0.000731257
0.000567742
0.000471531
0.000352134
0.000618686
0.0014461
0.00605546
0.0108471
0.015492
0.00744965
0.00485516
0.00407851
0.00293973
0.00268415
0.00220546
0.00178644
0.00155134
0.00126606
0.00109078
0.000867161
0.000725435
0.000565664
0.000450272
0.00032231
0.000592998
0.00132753
0.00602448
0.0108421
0.0156378
0.00734041
0.004738
0.00410534
0.00299255
0.00269274
0.00223916
0.00181087
0.00157724
0.00128573
0.00111028
0.000884478
0.000744667
0.00059072
0.000486227
0.000382401
0.000570798
0.00125079
0.00597849
0.0108353
0.0157604
0.00749661
0.00464439
0.00399057
0.00294001
0.00261741
0.00220296
0.00178002
0.00155762
0.00127075
0.00110104
0.00087802
0.000741976
0.000592179
0.000482859
0.000385877
0.000531687
0.00115623
0.00593957
0.0108131
0.0158364
0.00748473
0.00452818
0.00398016
0.00298466
0.00261319
0.00222718
0.00179909
0.001578
0.00128745
0.00111779
0.000894214
0.000759011
0.00061462
0.000505927
0.000406769
0.000501907
0.00105942
0.0058803
0.0107222
0.0158899
0.0076597
0.00441383
0.00382656
0.00293156
0.00254046
0.00219224
0.00177334
0.00156006
0.00127571
0.00110908
0.000887976
0.000754697
0.000616124
0.00050022
0.000399579
0.000472437
0.000954869
0.00579686
0.0106884
0.0158526
0.00772054
0.0043215
0.00378312
0.00297871
0.00254563
0.00222444
0.00180781
0.00159194
0.00130183
0.00113445
0.000911214
0.000776855
0.00064497
0.000540186
0.000427148
0.000458854
0.000848912
0.00576213
0.0107327
0.0158229
0.00771981
0.00429684
0.00356393
0.0028979
0.00246089
0.00216628
0.0017759
0.0015735
0.00129249
0.001127
0.000906096
0.000772
0.00063911
0.000530836
0.000434202
0.000443526
0.000770803
0.00577279
0.0108071
0.0158469
0.00828993
0.00430098
0.0034552
0.00290376
0.0024242
0.00212736
0.0017406
0.00154189
0.00127192
0.00111135
0.00089929
0.000765466
0.000649004
0.000548482
0.000450195
0.000420245
0.000646768
0.00550813
0.010632
0.0155861
0.0154262
0.0455348
0.0342714
0.0312711
0.0262576
0.0233108
0.0188214
0.016568
0.0135276
0.0117731
0.00948919
0.00793858
0.00665633
0.00572395
0.00506986
0.00477035
0.00188526
0.0522742
0.100867
0.144117
0.0402326
0.0284732
0.0228673
0.0201678
0.017591
0.0152629
0.0128288
0.0109536
0.00909727
0.00769429
0.00665598
0.00600421
0.0054623
0.00495337
0.00457005
0.00443698
0.0143196
0.0524591
0.0987425
0.141852
0.0192908
0.0166111
0.0168688
0.01422
0.0126379
0.0110675
0.00990813
0.00917317
0.0082767
0.00765226
0.00705756
0.00670171
0.00628478
0.00586656
0.00529006
0.00475952
0.00965721
0.050116
0.0970303
0.142139
0.0134943
0.0122505
0.0104542
0.0107401
0.00971076
0.00923785
0.00838872
0.00777292
0.00715977
0.00670322
0.00612574
0.00548215
0.00480124
0.00440946
0.00409902
0.00332916
0.0102374
0.0467695
0.0967767
0.138239
0.00821749
0.00842214
0.00901493
0.0076826
0.00717579
0.0065711
0.00628807
0.00598634
0.00569106
0.00544033
0.0051621
0.00500227
0.00477147
0.00446146
0.0043623
0.00382535
0.00761849
0.0421658
0.0966169
0.137636
0.00642438
0.00571694
0.00487764
0.0057077
0.00573925
0.00568154
0.0054034
0.00535045
0.00507361
0.00497293
0.0046766
0.00455432
0.00430956
0.00428768
0.00398335
0.00316131
0.0078199
0.0366509
0.0968903
0.136786
0.0038648
0.00469678
0.00516204
0.00459028
0.00432013
0.00416631
0.00413472
0.00428574
0.0042893
0.00427515
0.0041803
0.00421414
0.00411935
0.00408828
0.00395548
0.00328228
0.00463287
0.0307336
0.0972313
0.138713
0.00322313
0.00304282
0.00273894
0.00312269
0.00328507
0.00379277
0.003649
0.00365096
0.00372696
0.00388739
0.00382295
0.00394778
0.00390484
0.00405194
0.00395446
0.00374757
0.00525466
0.0248853
0.0963198
0.143092
0.00221141
0.00251948
0.00278096
0.00300215
0.002919
0.00279965
0.00307372
0.00328249
0.00324562
0.00350109
0.00352716
0.00376032
0.00372558
0.003984
0.00385816
0.00375633
0.00414492
0.0167271
0.0941845
0.150631
0.00176158
0.0017671
0.00173819
0.00192151
0.00221337
0.00253653
0.00254136
0.00282682
0.00297261
0.00315674
0.00328917
0.00357255
0.00374668
0.0041803
0.00427125
0.00461219
0.00352284
0.0126215
0.0881019
0.160956
0.00134731
0.00159861
0.00174365
0.0019114
0.00201481
0.0022112
0.00233423
0.00248609
0.00269671
0.00292987
0.00312039
0.00336062
0.00351499
0.0038325
0.00411389
0.00486464
0.00453077
0.00765192
0.0652802
0.173795
0.00111023
0.00120352
0.00126769
0.00144893
0.00152312
0.00180261
0.00205413
0.00226532
0.00233026
0.00256787
0.0027973
0.00307111
0.00342732
0.00361872
0.00414282
0.00440862
0.00528194
0.0083144
0.0496177
0.194188
0.00102026
0.00118392
0.00126694
0.00143525
0.00155807
0.00160104
0.00161139
0.00187097
0.00201912
0.00219923
0.00232297
0.00256909
0.00288559
0.00333197
0.00360775
0.00406385
0.00495954
0.00865118
0.0237452
0.147687
0.000830935
0.00092236
0.000975194
0.00110969
0.00117615
0.00138762
0.00142811
0.00155257
0.0016607
0.00191718
0.00195706
0.00226273
0.00231703
0.00281062
0.00284341
0.00355486
0.00329262
0.00524749
0.0121473
0.0985925
0.000770273
0.000866782
0.000914778
0.000986537
0.00102321
0.00108092
0.00119299
0.00129739
0.00130555
0.00143314
0.00147099
0.00163084
0.00177331
0.00199416
0.0021164
0.0024006
0.00281948
0.00346591
0.00406854
0.051531
0.00063816
0.000705282
0.000745723
0.000801794
0.000840118
0.000947403
0.00092499
0.00104418
0.00105894
0.00116089
0.0011369
0.00126682
0.00123261
0.00122283
0.00131262
0.00146315
0.00127697
0.00180039
0.00285315
0.0280469
0.000671484
0.000658757
0.000671542
0.000713415
0.000713069
0.000724175
0.000746008
0.000719143
0.000684197
0.000718498
0.00073361
0.000788774
0.000817621
0.000885123
0.000921206
0.00100312
0.0012158
0.000932835
0.000653261
0.0151207
0.000521854
0.000524423
0.000480048
0.000464318
0.000466789
0.000465224
0.000432784
0.000486457
0.000487905
0.000514099
0.000511167
0.000554526
0.000545245
0.00054966
0.000519531
0.000587227
0.000550256
0.000571972
0.000927555
0.00550623
0.000311913
0.000335059
0.000338037
0.000321882
0.000290211
0.000232715
0.000253886
0.000231037
0.000249453
0.00025066
0.000259743
0.000273853
0.000286041
0.000286616
0.000307577
0.000266732
0.000226439
0.000361764
0.000198286
0.00278191
0.000201655
0.000160841
0.000128429
0.000128809
0.000102299
0.000110936
0.000100004
0.00011345
0.000128988
0.000163086
0.000190899
0.000213394
0.000236615
0.000258424
0.000275674
0.000271669
0.000312901
0.000196731
0.000101932
3.55737e-05
0.0142889
0.014373
0.0144278
0.014626
0.0144163
0.015178
0.0146392
0.0143502
0.0155062
0.0143451
0.0147721
0.0131637
0.0134215
0.0126011
0.0128718
0.0121929
0.0123231
0.0114184
0.0113253
0.011774
0.00699939
0.00703112
0.00699945
0.0070754
0.00702709
0.00714709
0.00686536
0.00814682
0.00806965
0.00675353
0.0071708
0.00747503
0.00748045
0.00537112
0.00756113
0.00723231
0.00728475
0.00652089
0.00675503
0.00837368
0.00426968
0.00435388
0.00438686
0.00455906
0.00448361
0.00475234
0.00473783
0.00491278
0.0044757
0.00542784
0.00594657
0.00535866
0.00392283
0.00412387
0.00331196
0.00335038
0.00363627
0.00416192
0.00461184
0.00506965
0.0027772
0.00279016
0.00278337
0.00279561
0.00273727
0.00281078
0.00272243
0.00265281
0.00283351
0.00274291
0.00294327
0.00299939
0.00280982
0.00319346
0.00273989
0.00326465
0.00238885
0.00257761
0.00205658
0.00292997
0.00165695
0.00167595
0.00168391
0.00170428
0.00171913
0.00173909
0.001797
0.00185809
0.0020446
0.00232432
0.00239633
0.00231312
0.00206511
0.00136547
0.00121516
0.00124716
0.00131992
0.00141998
0.0010632
0.00117843
0.00121995
0.00123924
0.00124775
0.00126213
0.00124549
0.00122067
0.00120539
0.00123177
0.00124512
0.00129213
0.00106977
0.00113248
0.00124125
0.00126772
0.00131158
0.00130504
0.000881664
0.000938108
0.000969665
0.00148588
0.000741213
0.000721458
0.000714998
0.000717212
0.000715962
0.000716923
0.000724315
0.000781178
0.000794626
0.000875026
0.00103075
0.00118238
0.000936463
0.000847317
0.000613813
0.000570725
0.000616623
0.000588385
0.000550472
0.000500487
0.000495259
0.000485776
0.000492903
0.000504357
0.00050689
0.000498911
0.000500005
0.000513947
0.000527946
0.000546742
0.000537695
0.00056259
0.000546006
0.000571292
0.000574623
0.000554014
0.000565402
0.000646111
0.000650788
0.000766144
0.000265291
0.00028567
0.000317699
0.000343724
0.000347653
0.000327767
0.000335018
0.000354635
0.000379083
0.00039027
0.000382565
0.000391022
0.000410541
0.000417433
0.000406174
0.000395077
0.000377247
0.000394844
0.000371471
0.000433124
0.000196403
0.000201174
0.000209202
0.00020998
0.000206281
0.000205849
0.000250474
0.000280305
0.000290815
0.000290195
0.000297169
0.00030489
0.000314088
0.000321864
0.000329764
0.000339605
0.0003481
0.000362156
0.000364315
0.000401313
0.000141105
0.00015027
0.000157848
0.000162494
0.000168202
0.00017128
0.000168516
0.000161523
0.000168908
0.000177779
0.000188885
0.000190168
0.000196955
0.000201274
0.000219329
0.000242951
0.000242581
0.000254306
0.000249185
0.000267231
0.000113343
0.000119655
0.000125721
0.000131975
0.000140074
0.000138848
0.000135636
0.000137161
0.000147544
0.000156806
0.000169414
0.00017735
0.000191906
0.000191719
0.000213992
0.000192873
0.000193979
0.000188941
0.000199537
0.00025676
9.55756e-05
0.000103033
0.000112456
0.000117663
0.000124149
0.000128007
0.000135538
0.000138769
0.000146701
0.000148538
0.00015755
0.000159909
0.000170508
0.000170518
0.000168912
0.0001729
0.000193582
0.000197835
0.000206561
0.000228814
9.05048e-05
9.11118e-05
9.83511e-05
0.000106175
0.000114888
0.000123282
0.000137556
0.000149481
0.000154069
0.000151686
0.000150535
0.000149133
0.000150341
0.00015544
0.000165296
0.000165898
0.00016975
0.000170514
0.000170319
0.000185631
0.000134862
0.00013045
0.000125086
0.000124774
0.000121345
0.000118464
0.000116726
0.000122019
0.000130247
0.000135748
0.000140624
0.000144925
0.000147661
0.00014451
0.000159367
0.000171915
0.000169735
0.000168823
0.000169716
0.000171289
0.000127382
0.000135308
0.000142114
0.000144784
0.000150736
0.000156492
0.000155899
0.000150419
0.000145264
0.000144504
0.000144036
0.000144147
0.000144868
0.000145714
0.000131713
0.000128607
0.000142338
0.000148069
0.000154268
0.000160564
0.000135525
0.000133995
0.000130775
0.000129421
0.000126897
0.000125576
0.000128547
0.00013232
0.000137379
0.000142351
0.000146781
0.000149302
0.000154018
0.000159936
0.000169219
0.000165722
0.000155282
0.000153566
0.000153968
0.000163593
0.000125541
0.000125438
0.000126366
0.000126628
0.000128388
0.0001297
0.000130242
0.000130737
0.00012587
0.000120535
0.000116272
0.00011543
0.00011229
0.000110545
0.000107187
0.000111073
0.000114919
0.000119212
0.00011814
0.000122107
0.000112099
0.000109713
0.00011095
0.000110788
0.000107352
0.000104622
0.000102773
0.00010119
0.000101839
0.000101546
0.000101345
9.97833e-05
9.7401e-05
9.79707e-05
9.92066e-05
0.000102136
9.52769e-05
9.30292e-05
8.79345e-05
8.37463e-05
6.10342e-05
6.10835e-05
5.7242e-05
5.85308e-05
5.78774e-05
5.99018e-05
5.69498e-05
5.81882e-05
5.72444e-05
5.90408e-05
5.79003e-05
5.81888e-05
5.73596e-05
5.67861e-05
5.6607e-05
5.60055e-05
5.61685e-05
5.46072e-05
5.41387e-05
5.43255e-05
0.000894883
0.00107413
0.000799681
0.000886944
0.000924467
0.000916609
0.000961699
0.00100248
0.00103474
0.00106234
0.00110665
0.00112813
0.00118113
0.00121484
0.00129044
0.00124993
0.00137531
0.00116717
0.00394388
0.0169654
0.000895634
0.00101798
0.000800432
0.000892484
0.000924752
0.000972714
0.00101986
0.00104125
0.00106589
0.00109785
0.00113214
0.00116163
0.00121208
0.00124788
0.00131336
0.00131264
0.00141858
0.00116896
0.00368399
0.0165292
0.00095142
0.00109035
0.000821484
0.00087618
0.000928043
0.000952202
0.000965396
0.00100117
0.00103566
0.00107265
0.00111829
0.00115272
0.00120735
0.00124334
0.00131322
0.00130102
0.00144879
0.00129395
0.00435969
0.0159375
0.000965571
0.00107007
0.000812178
0.000916598
0.000967954
0.000961768
0.000994438
0.00103699
0.0010693
0.00111572
0.00115767
0.0012004
0.00125008
0.0012952
0.00136262
0.00137932
0.00150551
0.00134767
0.0046979
0.0153485
0.00100328
0.00106691
0.00082388
0.000912874
0.000908932
0.000937282
0.000992837
0.00105079
0.001078
0.00112178
0.0011546
0.00119029
0.00123736
0.00128869
0.00135883
0.00138444
0.00153259
0.00144157
0.00453077
0.0147008
0.000995228
0.00105478
0.000852325
0.00092916
0.000969455
0.00102958
0.00106875
0.00106954
0.00107049
0.0011216
0.00115792
0.00121237
0.00126277
0.00132964
0.00138995
0.00141973
0.00154056
0.001422
0.00363368
0.0137916
0.000996874
0.00104901
0.000867277
0.000932505
0.000965198
0.000979705
0.00097973
0.00100452
0.00106629
0.00114721
0.00117187
0.00121084
0.00125269
0.00132054
0.00134156
0.00140067
0.00147655
0.0014301
0.00279923
0.0114446
0.000997286
0.00103501
0.000876319
0.000941822
0.000973272
0.000996152
0.00103913
0.00111006
0.00116264
0.00117131
0.00115668
0.00120245
0.00124544
0.00128611
0.00131521
0.00138141
0.00142072
0.00148706
0.0022909
0.00913343
0.00100999
0.0010162
0.000885909
0.000938969
0.000961749
0.000983606
0.00101609
0.00103563
0.000966742
0.00101706
0.00105062
0.00115919
0.00119915
0.00125785
0.0012867
0.00136271
0.00140565
0.00146307
0.00199689
0.00751056
0.000927946
0.000933287
0.000834574
0.000887168
0.000919586
0.000956018
0.000989605
0.00101758
0.00105219
0.00113181
0.00123506
0.00128239
0.00125924
0.00128088
0.00132991
0.00142054
0.00142114
0.001527
0.00183574
0.00621551
0.000965711
0.000989174
0.000911277
0.000970603
0.00100497
0.00103814
0.00106069
0.00108306
0.00111131
0.0011518
0.00115609
0.00114682
0.00117325
0.00129813
0.00138035
0.00138676
0.00137856
0.00148024
0.00166869
0.00533202
0.000955803
0.000965026
0.000898133
0.00094232
0.000969972
0.000989227
0.00100197
0.00103524
0.00106825
0.0011223
0.00117012
0.00125763
0.00137313
0.00148024
0.00141679
0.00139957
0.00145178
0.00153597
0.00161081
0.00464539
0.000950727
0.000978511
0.000933015
0.000987536
0.00102848
0.00104711
0.0010931
0.00113557
0.00119077
0.00125112
0.00129828
0.00131969
0.00130463
0.00124399
0.00116829
0.00127654
0.00141505
0.00154525
0.00154541
0.00414231
0.000945956
0.000973642
0.000926806
0.000976356
0.000991597
0.00101055
0.00104468
0.0010679
0.00110877
0.00112634
0.00113962
0.00113404
0.00117392
0.00122606
0.00137755
0.00160515
0.00171096
0.00165833
0.00161993
0.00401465
0.000953456
0.000970297
0.000932937
0.00097914
0.00100483
0.00103835
0.00106812
0.0011001
0.00113658
0.0011498
0.00118097
0.00122564
0.00130974
0.00137873
0.00146709
0.00152893
0.00145352
0.0013606
0.00151966
0.00375162
0.000927408
0.00093716
0.000924321
0.00096806
0.00100977
0.00103256
0.00107809
0.00110791
0.00115338
0.00118693
0.00124429
0.00129657
0.00134826
0.00138686
0.00145525
0.00138799
0.00139383
0.00152817
0.00181306
0.00285829
0.000950319
0.00098122
0.000961559
0.00102129
0.00105743
0.00109177
0.0011294
0.00116916
0.00119893
0.00124536
0.00126964
0.00131633
0.00136057
0.00137742
0.00141957
0.00142131
0.00148668
0.0016015
0.0015521
0.00172706
0.000910318
0.000946925
0.000929077
0.000995993
0.0010179
0.00106286
0.00108305
0.00113644
0.00115881
0.00120817
0.00123714
0.00129399
0.00130742
0.00141119
0.00138856
0.00155996
0.00158965
0.00181835
0.000675918
0.000695982
0.000947027
0.000990594
0.000959279
0.00101017
0.00103647
0.00105734
0.00109413
0.0011185
0.00116491
0.00119215
0.00124586
0.00126512
0.00129479
0.00131
0.00136653
0.00140362
0.00145305
0.00154251
0.00183457
0.00217194
0.000962864
0.000990381
0.000980551
0.00102835
0.00105847
0.00108238
0.00111227
0.00114189
0.0011624
0.00120141
0.00122321
0.00130385
0.00133243
0.00140334
0.00141627
0.00145256
0.00144969
0.00154629
0.00186782
0.00385607
0.000290213
0.000192913
0.000189345
0.000216386
0.000277371
0.000310265
0.000279087
0.000214157
0.000264521
0.000350994
0.000305637
0.000171906
0.000106116
0.000893883
0.00323014
0.00733001
0.0103172
0.00814772
0.00226198
0.00113467
0.00031795
0.000230286
0.00026846
0.000280616
0.000294174
0.000258875
0.000293526
0.000313555
0.000275931
0.000305006
0.000366068
0.000298412
0.00012645
0.00011043
0.00148745
0.00498686
0.00931457
0.00975286
0.00534082
0.000653391
0.000386772
0.000247645
0.000228739
0.000260593
0.000332875
0.00033496
0.000295377
0.000265565
0.000321237
0.000323713
0.000350646
0.000361854
0.000281613
0.00015857
0.000398754
0.00278886
0.00761575
0.0105613
0.00820731
0.00150215
0.000446848
0.000365938
0.00031741
0.000276687
0.000307319
0.00031951
0.000372826
0.000341374
0.00029556
0.00035092
0.000393351
0.000397534
0.000353366
0.000270295
0.000176274
0.00124218
0.00586449
0.0104892
0.00931
0.00367339
0.000499519
0.000416562
0.000346169
0.000335302
0.000392695
0.00035646
0.000353647
0.000367001
0.000385839
0.000356937
0.000407791
0.000448856
0.000429142
0.000373135
0.000159662
0.000268067
0.00391708
0.00958465
0.0106236
0.00591568
0.00055846
0.000535191
0.000431009
0.000320819
0.000381366
0.000396046
0.000432029
0.000402656
0.000384099
0.00043557
0.000463825
0.000466658
0.00050815
0.00050354
0.000397398
0.000259459
0.00177345
0.00846197
0.011269
0.00783543
0.000543846
0.000561086
0.000526614
0.000428216
0.000461159
0.000408144
0.000430099
0.000464559
0.000464653
0.000440086
0.00051043
0.000563668
0.000517047
0.0005745
0.000550912
0.000176058
0.000694055
0.00743521
0.0115208
0.00986292
0.000588423
0.00062148
0.000562764
0.000422019
0.000490055
0.000488071
0.000494034
0.00048176
0.000484209
0.000520275
0.00054315
0.000572464
0.000597955
0.000633597
0.000647109
0.000460537
0.0003116
0.00548645
0.01161
0.0123532
0.000590294
0.000648967
0.000657446
0.0005278
0.00053946
0.000492481
0.000520855
0.000559555
0.000558326
0.00054483
0.000614892
0.000667149
0.000640524
0.000671086
0.000735498
0.000630466
0.000176712
0.00352041
0.0113986
0.0141723
0.00061382
0.000646138
0.00065786
0.000533652
0.000594601
0.00058568
0.000570026
0.000571599
0.000588768
0.000618226
0.000648078
0.00069741
0.00071848
0.000760113
0.000828112
0.000815557
0.000247702
0.00225332
0.0110881
0.0151158
0.00061576
0.000668271
0.00074777
0.000620651
0.000619436
0.000590404
0.000621931
0.000658523
0.000659783
0.000653358
0.000718629
0.000768635
0.000754692
0.000796949
0.00085865
0.0009029
0.000392297
0.00147317
0.0106996
0.0158684
0.000623444
0.00063691
0.000709801
0.000608703
0.000673891
0.000673636
0.000652812
0.000664723
0.000694694
0.000722442
0.000761308
0.000809071
0.000816666
0.000873473
0.000927679
0.000971257
0.000629316
0.000932845
0.0103112
0.0167099
0.000643856