/*--------------------------------*- C++ -*----------------------------------*\
  =========                 |
  \\      /  F ield         | OpenFOAM: The Open Source CFD Toolbox
   \\    /   O peration     | Website:  https://openfoam.org
    \\  /    A nd           | Version:  9
     \\/     M anipulation  |
\*---------------------------------------------------------------------------*/
FoamFile
{
    format      ascii;
    class       volVectorField;
    location    "8.5";
    object      U;
}
// * * * * * * * * * * * * * * * * * * * * * * * * * * * * * * * * * * * * * //

dimensions      [0 1 -1 0 0 0 0];

internalField   nonuniform List<vector> 
46400
(
(9.88179 -9.73921 -7.33012e-19)
(20.4886 -19.5885 8.08256e-19)
(22.4499 -22.532 -8.07139e-20)
(21.7417 -22.5908 4.49116e-20)
(21.0024 -22.5516 -6.44245e-20)
(20.256 -22.5432 -7.0824e-19)
(19.5836 -22.4855 3.59517e-19)
(18.9431 -22.5135 -5.40023e-20)
(18.3453 -22.4886 4.24633e-20)
(17.754 -22.4874 -3.2063e-20)
(17.2214 -22.4714 2.27362e-20)
(16.7448 -22.5444 0)
(16.2376 -22.506 -1.13562e-19)
(15.7698 -22.5062 1.18388e-19)
(15.3331 -22.5063 1.97741e-21)
(14.8798 -22.4575 -6.14331e-20)
(14.4622 -22.4683 -4.79513e-20)
(14.0821 -22.3861 6.44218e-20)
(13.6947 -22.2998 1.90984e-19)
(13.2127 -22.5225 -1.72162e-19)
(10.1719 -9.21956 0)
(20.6602 -18.3451 -3.99343e-20)
(22.4024 -20.8375 0)
(21.6982 -20.9744 -4.72527e-19)
(21.0072 -21.0099 3.50205e-19)
(20.2772 -21.061 -8.13775e-20)
(19.6082 -21.0633 0)
(18.9475 -21.074 5.40046e-20)
(18.3674 -21.1438 -4.24658e-20)
(17.821 -21.1973 3.2064e-20)
(17.2776 -21.2594 -6.77887e-20)
(16.7456 -21.2511 5.88831e-20)
(16.3007 -21.3786 -2.10331e-20)
(15.8379 -21.3961 0)
(15.4025 -21.4454 6.47259e-21)
(15.0074 -21.4808 1.22101e-20)
(14.6058 -21.5171 0)
(14.232 -21.4821 -2.84494e-19)
(13.8929 -21.4524 -9.43905e-20)
(13.423 -21.6319 2.98656e-19)
(10.4485 -8.67501 -3.16157e-19)
(20.7473 -17.0839 2.73768e-19)
(22.284 -19.278 -3.36901e-19)
(21.4735 -19.4175 -2.05441e-19)
(20.777 -19.4942 2.01706e-19)
(20.0444 -19.6108 0)
(19.3897 -19.6649 1.08457e-19)
(18.7403 -19.747 -1.04081e-19)
(18.1402 -19.7958 -5.87612e-20)
(17.56 -19.8684 6.55293e-20)
(17.0544 -19.9554 1.6084e-19)
(16.572 -20.0625 1.62971e-20)
(16.0721 -20.0827 -1.66068e-19)
(15.6482 -20.2022 0)
(15.2309 -20.2814 3.27156e-19)
(14.7924 -20.3105 -3.22198e-19)
(14.4114 -20.4037 0)
(14.072 -20.4366 -1.81537e-20)
(13.712 -20.5023 4.26986e-20)
(13.2949 -20.7866 -4.57639e-19)
(10.6481 -8.1143 1.51575e-19)
(20.7149 -15.8459 -6.57823e-20)
(21.9542 -17.5991 -1.14745e-19)
(21.2035 -17.8415 1.13377e-19)
(20.5692 -17.9914 1.92744e-20)
(19.8696 -18.1594 -9.83978e-21)
(19.2186 -18.2653 6.90035e-20)
(18.5847 -18.374 -2.8034e-19)
(18.0071 -18.5166 2.65987e-19)
(17.4722 -18.6397 -2.30375e-20)
(16.9337 -18.7709 0)
(16.4394 -18.8729 3.54524e-20)
(15.9997 -19.0582 -4.05925e-20)
(15.5194 -19.0947 0)
(15.1305 -19.2664 4.92869e-19)
(14.7534 -19.3697 -4.12648e-19)
(14.3459 -19.458 0)
(13.988 -19.5138 5.84377e-20)
(13.6219 -19.5409 7.69962e-20)
(13.1618 -19.8298 5.99226e-19)
(10.7779 -7.5331 0)
(20.5393 -14.5648 0)
(21.5994 -16.1221 -3.88034e-20)
(20.7427 -16.3522 4.74796e-21)
(20.0778 -16.5368 -1.37086e-19)
(19.3987 -16.7725 1.25551e-19)
(18.7722 -16.9436 0)
(18.1336 -17.0786 2.21895e-19)
(17.545 -17.2132 -2.62112e-19)
(16.9802 -17.343 -7.6561e-20)
(16.4879 -17.5175 -8.05715e-20)
(15.9948 -17.6475 0)
(15.5437 -17.8056 6.20662e-19)
(15.1406 -17.9945 -6.10955e-19)
(14.7073 -18.1069 0)
(14.3211 -18.2676 -7.47375e-19)
(13.9594 -18.4166 6.64589e-19)
(13.6507 -18.5717 6.97392e-19)
(13.3163 -18.6923 -7.57747e-19)
(12.8621 -18.9815 0)
(10.8509 -6.91937 0)
(20.2604 -13.3021 0)
(21.0181 -14.5271 0)
(20.2626 -14.8457 -3.49725e-20)
(19.6648 -15.0915 0)
(19.0138 -15.3556 0)
(18.4248 -15.6048 0)
(17.8437 -15.8233 -9.49026e-20)
(17.2772 -16.0307 0)
(16.7514 -16.192 7.65651e-20)
(16.2429 -16.3872 -2.46081e-20)
(15.7719 -16.5594 -8.89379e-19)
(15.3121 -16.7348 6.6037e-19)
(14.8702 -16.8862 -9.22228e-19)
(14.4982 -17.1031 6.87678e-19)
(14.1279 -17.2736 0)
(13.7172 -17.4071 -8.35354e-19)
(13.3572 -17.5014 7.10104e-19)
(13.0607 -17.6863 0)
(12.6412 -18.0122 -1.18542e-19)
(10.9105 -6.35884 2.09656e-19)
(19.787 -11.8895 7.87205e-20)
(20.5053 -13.1523 3.25908e-19)
(19.6536 -13.4431 -3.56686e-19)
(18.9865 -13.7194 -3.89487e-19)
(18.3466 -14.0302 7.95035e-19)
(17.7368 -14.3033 -9.55791e-19)
(17.1541 -14.5366 7.21005e-20)
(16.6263 -14.8213 3.13618e-19)
(16.0874 -15.0225 0)
(15.5892 -15.2406 -2.39828e-20)
(15.1282 -15.4355 -2.28539e-20)
(14.7019 -15.6621 1.09178e-19)
(14.2891 -15.8411 9.57787e-19)
(13.8659 -16.0175 -8.51978e-19)
(13.5416 -16.2603 -1.11345e-18)
(13.2451 -16.5292 9.67558e-19)
(12.8968 -16.6668 -1.75416e-20)
(12.5563 -16.8128 -1.28563e-19)
(12.1881 -17.1854 -9.12644e-19)
(11.0039 -5.75354 -1.06732e-19)
(19.2462 -10.5835 3.63763e-20)
(19.6716 -11.5876 -1.28659e-19)
(18.9197 -11.9816 -5.28056e-19)
(18.3469 -12.321 3.44972e-19)
(17.7437 -12.6723 0)
(17.2204 -13.0585 8.1174e-19)
(16.6599 -13.3414 -3.86151e-19)
(16.1223 -13.6241 2.76447e-19)
(15.673 -13.9205 1.51809e-19)
(15.2086 -14.1901 -2.88271e-19)
(14.7503 -14.4129 6.90734e-19)
(14.3273 -14.6518 1.51937e-19)
(13.9328 -14.8898 -8.5742e-19)
(13.5185 -15.0581 2.40934e-18)
(13.1043 -15.2183 -9.87676e-19)
(12.7649 -15.4432 1.27257e-18)
(12.4923 -15.6889 -8.29905e-19)
(12.1713 -15.8414 2.74645e-19)
(11.7731 -16.2109 1.33202e-18)
(11.1267 -5.14816 6.19749e-19)
(18.5569 -9.31002 -1.193e-19)
(18.9735 -10.3022 -3.41112e-20)
(18.1713 -10.7015 3.04472e-19)
(17.5007 -11.0718 1.40785e-19)
(16.8871 -11.4041 1.7324e-19)
(16.3139 -11.7751 -8.0081e-19)
(15.8468 -12.1459 4.92559e-19)
(15.3478 -12.4948 -1.50954e-19)
(14.8405 -12.7648 -1.51803e-19)
(14.4082 -13.1015 -1.5222e-19)
(13.9875 -13.3642 -1.73193e-19)
(13.5621 -13.6261 -3.2387e-19)
(13.2291 -13.91 1.14261e-18)
(12.8941 -14.2128 -1.59345e-18)
(12.5272 -14.3996 -1.67065e-19)
(12.1765 -14.63 1.67595e-20)
(11.8792 -14.8323 -1.22966e-18)
(11.6033 -15.0522 9.19993e-19)
(11.2418 -15.3937 -1.46957e-18)
(11.3239 -4.59572 6.6127e-19)
(17.7297 -8.11645 -1.59021e-18)
(17.7868 -8.89632 1.06847e-18)
(17.1413 -9.37203 -1.68362e-19)
(16.6407 -9.8645 -1.99978e-19)
(16.1126 -10.2748 7.84031e-19)
(15.5979 -10.6865 -9.43789e-19)
(15.0786 -11.0291 0)
(14.6381 -11.4279 7.53209e-19)
(14.2199 -11.7587 -7.40665e-19)
(13.8108 -12.1028 -5.47873e-19)
(13.4394 -12.4339 7.11105e-19)
(13.028 -12.7041 1.7194e-19)
(12.6038 -12.923 -7.2073e-19)
(12.2934 -13.2202 1.66194e-19)
(11.9747 -13.4928 8.68516e-19)
(11.6166 -13.7034 -1.55397e-18)
(11.3434 -13.9539 1.02668e-18)
(11.0659 -14.1604 -1.43099e-20)
(10.7474 -14.5377 -1.44233e-18)
(11.406 -4.14042 9.62393e-19)
(16.7932 -6.95109 -6.28246e-19)
(16.8673 -7.80097 4.36018e-19)
(16.2402 -8.27138 1.82847e-20)
(15.6121 -8.75092 -8.73928e-19)
(15.0999 -9.16857 -8.34032e-19)
(14.5984 -9.61829 1.0444e-18)
(14.1695 -10.0001 -6.2602e-19)
(13.74 -10.4152 8.33586e-19)
(13.3049 -10.7589 0)
(12.8817 -11.1007 1.93351e-20)
(12.5495 -11.4587 1.92963e-19)
(12.2562 -11.851 2.08371e-19)
(11.9235 -12.1501 -2.05249e-19)
(11.5604 -12.4208 0)
(11.2924 -12.7243 1.98832e-19)
(10.9834 -12.987 0)
(10.6848 -13.2136 3.7066e-19)
(10.4295 -13.4492 1.8188e-18)
(10.1321 -13.7916 -5.07508e-21)
(11.3833 -3.69971 5.46391e-19)
(15.7189 -5.91529 -1.06183e-19)
(15.4367 -6.6517 -1.70615e-18)
(14.9658 -7.2075 9.57427e-19)
(14.5741 -7.79195 2.26838e-19)
(14.1341 -8.24246 -2.25637e-19)
(13.7193 -8.72711 -9.44993e-19)
(13.2604 -9.11203 7.06731e-19)
(12.8635 -9.5221 0)
(12.5411 -9.92639 0)
(12.1614 -10.2793 -1.10967e-18)
(11.7551 -10.5711 8.80836e-19)
(11.4248 -10.9087 -2.08395e-19)
(11.1373 -11.254 -6.48103e-19)
(10.8383 -11.5603 1.14141e-21)
(10.5549 -11.867 1.45219e-18)
(10.2743 -12.1539 -8.12391e-19)
(10.0254 -12.4255 6.04186e-19)
(9.77273 -12.6739 -9.74035e-19)
(9.48983 -13.0151 0)
(11.1351 -3.23189 -4.9146e-19)
(14.5302 -4.97504 7.99067e-19)
(14.3699 -5.75642 1.40058e-19)
(13.9157 -6.27453 1.38628e-19)
(13.442 -6.89056 0)
(13.0273 -7.39692 1.04284e-18)
(12.6051 -7.8961 -1.02461e-18)
(12.2674 -8.36525 1.31026e-19)
(11.8737 -8.78951 0)
(11.5121 -9.19528 9.79448e-19)
(11.2258 -9.63459 -8.39025e-19)
(10.9281 -10.0076 9.452e-19)
(10.6039 -10.3458 -9.30195e-19)
(10.328 -10.684 9.10633e-19)
(10.0309 -10.9907 -7.81305e-19)
(9.80127 -11.3093 -8.76388e-19)
(9.56034 -11.6117 1.72296e-18)
(9.30128 -11.8657 -7.38265e-19)
(9.10728 -12.1417 1.06578e-19)
(8.86688 -12.4768 8.82935e-19)
(10.6845 -2.73877 -4.03403e-19)
(13.3041 -4.12969 4.418e-19)
(12.934 -4.86764 -1.40082e-19)
(12.5154 -5.42881 -1.38645e-19)
(12.156 -6.0089 0)
(11.8872 -6.57854 0)
(11.5627 -7.1057 0)
(11.2059 -7.55741 -2.70703e-19)
(10.8876 -8.01245 -1.06502e-18)
(10.5559 -8.39508 2.09257e-18)
(10.2475 -8.79218 -1.1525e-18)
(9.97273 -9.18936 -1.29181e-19)
(9.6959 -9.55709 0)
(9.45636 -9.93126 0)
(9.19724 -10.269 -2.36774e-19)
(8.93476 -10.5946 0)
(8.73085 -10.937 9.09625e-19)
(8.50868 -11.246 -1.11903e-18)
(8.26807 -11.5126 -9.78875e-19)
(8.04667 -11.8838 9.38585e-19)
(10.0339 -2.24846 4.25333e-19)
(11.954 -3.38212 7.95191e-19)
(11.6862 -4.09337 3.0674e-21)
(11.4775 -4.68737 1.8025e-21)
(11.0557 -5.30148 1.56801e-19)
(10.693 -5.81132 -4.43508e-19)
(10.4373 -6.42677 0)
(10.1861 -6.94453 -4.34435e-19)
(9.92897 -7.47103 1.46156e-19)
(9.64873 -7.91824 5.53267e-19)
(9.35496 -8.32832 5.39733e-19)
(9.10406 -8.71866 -4.01845e-19)
(8.83345 -9.07003 1.03463e-18)
(8.60177 -9.42409 -8.88642e-19)
(8.38139 -9.75094 1.11283e-18)
(8.15366 -10.0578 -2.07085e-18)
(7.94309 -10.3516 9.55789e-19)
(7.76865 -10.6546 1.14183e-19)
(7.61092 -10.9328 9.09661e-19)
(7.41411 -11.2522 -9.78568e-19)
(9.20076 -1.762 1.49245e-19)
(10.7539 -2.7437 -1.62421e-19)
(10.3859 -3.49811 6.63252e-19)
(9.9812 -4.02947 -6.51068e-19)
(9.72156 -4.66937 -3.19709e-19)
(9.44239 -5.16169 -7.80823e-19)
(9.13376 -5.68657 1.34583e-21)
(8.88282 -6.17682 6.0462e-19)
(8.65895 -6.68977 -1.44391e-19)
(8.48766 -7.1928 0)
(8.2801 -7.65529 0)
(8.09754 -8.1148 0)
(7.88098 -8.52264 0)
(7.68827 -8.92281 5.14127e-21)
(7.51394 -9.31278 0)
(7.31234 -9.67045 1.24245e-19)
(7.12067 -10.0051 4.94236e-19)
(6.9162 -10.3164 -1.45352e-18)
(6.7428 -10.6114 1.07303e-18)
(6.58116 -10.9595 -1.00993e-18)
(8.1989 -1.3017 0)
(9.13862 -2.19735 -8.99093e-20)
(8.91746 -3.00678 0)
(8.8972 -3.62908 2.54391e-19)
(8.61314 -4.25979 -1.71404e-19)
(8.39877 -4.84409 -6.54833e-19)
(8.16403 -5.37906 2.56544e-21)
(7.93414 -5.87522 6.29801e-19)
(7.67249 -6.31566 -6.12986e-19)
(7.47377 -6.7859 1.20202e-18)
(7.24054 -7.20251 -3.61792e-21)
(7.06946 -7.64376 -5.76333e-19)
(6.89321 -8.05018 5.59624e-19)
(6.67933 -8.43256 -6.85817e-19)
(6.51695 -8.79811 0)
(6.37666 -9.17553 -5.22484e-19)
(6.23124 -9.51197 5.14678e-19)
(6.10521 -9.85886 0)
(5.95631 -10.148 -1.20571e-19)
(5.80839 -10.5055 0)
(7.11993 -0.908682 8.83465e-20)
(7.78292 -1.67668 9.00763e-20)
(7.59055 -2.38719 0)
(7.40957 -3.0167 3.50848e-19)
(7.14756 -3.65294 -4.35397e-19)
(6.9834 -4.22479 2.52921e-19)
(6.82153 -4.82199 -7.48895e-19)
(6.68923 -5.39395 3.25881e-19)
(6.50688 -5.90549 -8.04435e-20)
(6.34648 -6.40588 0)
(6.19095 -6.86104 -7.6763e-20)
(6.01481 -7.29261 -7.49692e-20)
(5.89869 -7.71695 -7.3217e-20)
(5.78032 -8.12303 0)
(5.62336 -8.48986 -5.50208e-19)
(5.48161 -8.85437 1.14743e-18)
(5.34403 -9.20036 -9.8762e-19)
(5.20466 -9.53442 5.17162e-19)
(5.09333 -9.84816 6.36101e-20)
(4.95888 -10.1911 5.34643e-19)
(5.95244 -0.622772 -1.35834e-19)
(6.27569 -1.3141 -1.89987e-19)
(6.17206 -2.04444 2.86537e-22)
(6.16341 -2.78483 5.01082e-19)
(6.03838 -3.41358 -1.36051e-19)
(5.8555 -4.03656 -8.80697e-20)
(5.61356 -4.56299 8.51854e-20)
(5.51757 -5.11516 1.67263e-19)
(5.37015 -5.61848 8.04507e-20)
(5.26698 -6.10838 -3.16999e-19)
(5.14796 -6.58313 3.49338e-19)
(5.02343 -7.01775 7.49712e-20)
(4.88496 -7.43729 3.68234e-19)
(4.76353 -7.83836 -2.35054e-21)
(4.66174 -8.23126 3.32976e-20)
(4.55022 -8.58836 -6.19896e-19)
(4.44791 -8.94699 1.69974e-19)
(4.34713 -9.26976 0)
(4.24605 -9.58201 -3.11817e-20)
(4.15236 -9.91768 -2.73055e-19)
(4.81559 -0.487819 4.76155e-20)
(5.00036 -1.14185 -9.7082e-20)
(4.68103 -1.67565 1.90451e-19)
(4.56723 -2.39134 -4.64024e-20)
(4.48431 -3.0421 -4.62498e-20)
(4.43769 -3.67256 0)
(4.4078 -4.26435 -8.69034e-20)
(4.27613 -4.79118 1.70266e-19)
(4.20459 -5.33916 -8.34226e-20)
(4.06052 -5.80071 8.08659e-20)
(4.00621 -6.30327 -4.03119e-20)
(3.91248 -6.73559 -7.70268e-20)
(3.85895 -7.18756 1.50979e-19)
(3.77181 -7.58058 -1.47373e-19)
(3.70742 -7.9864 3.66064e-20)
(3.62319 -8.35112 2.50876e-34)
(3.55733 -8.71857 -3.42814e-20)
(3.47148 -9.05291 2.00604e-19)
(3.40601 -9.36949 -9.87386e-20)
(3.32085 -9.70537 -7.01165e-20)
(-0.0817855 -4.09853 1.46082e-19)
(1.52725 -18.1375 7.2213e-20)
(3.16225 -32.8435 0)
(4.04866 -39.9743 6.75421e-20)
(4.15453 -41.2292 6.20246e-20)
(4.15874 -41.1061 5.69125e-20)
(4.1185 -40.64 0)
(4.06105 -40.1719 5.36882e-20)
(4.00582 -39.7534 0)
(3.94497 -39.375 0)
(3.87581 -39.0178 -4.38998e-20)
(3.80752 -38.653 3.18793e-21)
(3.72458 -38.3461 8.33295e-20)
(3.65028 -37.9992 0)
(3.54966 -37.6319 3.66863e-20)
(3.48849 -37.2642 3.48205e-20)
(3.35124 -36.8622 3.30957e-20)
(3.31258 -36.362 0)
(3.13733 -35.9131 -5.93851e-20)
(3.12493 -35.4708 5.75412e-20)
(0.105496 -5.21502 2.2329e-19)
(2.4014 -20.408 -3.65486e-19)
(4.32907 -34.6038 0)
(5.20289 -40.5747 -3.34755e-19)
(5.28574 -41.25 3.13908e-19)
(5.25179 -40.9853 -5.30257e-19)
(5.17126 -40.4217 2.32709e-19)
(5.11195 -39.9928 1.57135e-19)
(5.03407 -39.5896 -7.06723e-19)
(4.95262 -39.1979 3.91489e-19)
(4.87599 -38.8302 -4.54166e-20)
(4.78221 -38.4915 3.3687e-19)
(4.69906 -38.105 -1.24312e-20)
(4.60663 -37.7678 -3.14054e-19)
(4.51127 -37.4567 -3.66871e-20)
(4.42766 -37.0578 -3.48175e-20)
(4.2802 -36.5805 -3.3092e-20)
(4.21885 -36.0337 0)
(4.03022 -35.5959 -2.34007e-19)
(4.01693 -35.1647 7.70081e-21)
(0.451434 -6.39634 -1.51549e-19)
(3.36093 -22.3985 0)
(5.59982 -36.1205 0)
(6.36691 -40.9845 -1.37851e-19)
(6.40083 -41.2652 1.26429e-19)
(6.29917 -40.8522 0)
(6.1824 -40.3176 -1.13907e-19)
(6.0709 -39.8314 3.13432e-19)
(5.96102 -39.3713 -3.12066e-19)
(5.84761 -38.9783 3.73773e-19)
(5.73068 -38.588 -4.57157e-19)
(5.61645 -38.2038 0)
(5.49576 -37.8834 -3.1519e-19)
(5.37716 -37.5231 -2.86242e-19)
(5.23903 -37.1284 5.15814e-19)
(5.12959 -36.7285 -5.35133e-19)
(4.95685 -36.2984 4.63027e-19)
(4.87969 -35.7996 0)
(4.65986 -35.3671 -5.16077e-19)
(4.6432 -34.9614 8.81157e-19)
(1.05168 -7.73928 3.08427e-19)
(4.53648 -23.8262 0)
(6.98951 -37.027 2.90236e-19)
(7.64603 -40.9947 3.94403e-19)
(7.62456 -41.0076 -7.6162e-19)
(7.47653 -40.5162 2.37297e-19)
(7.32055 -39.9579 1.13901e-19)
(7.1841 -39.4987 1.15533e-18)
(7.04257 -39.0823 -1.60796e-18)
(6.90361 -38.6607 -1.54861e-19)
(6.77146 -38.2833 8.17698e-19)
(6.62736 -37.9288 1.6645e-19)
(6.4938 -37.5178 -7.78317e-19)
(6.35301 -37.1665 7.59761e-19)
(6.22279 -36.8457 2.11323e-19)
(6.08618 -36.4416 -1.32255e-19)
(5.9025 -35.966 1.89204e-19)
(5.78868 -35.419 0)
(5.55414 -34.9967 -5.48452e-20)
(5.52753 -34.5788 0)
(1.6195 -8.56625 0)
(5.40687 -25.1336 1.02915e-18)
(8.3744 -37.7579 -1.47679e-18)
(8.90868 -40.9171 1.33025e-18)
(8.80544 -40.7408 -1.03423e-18)
(8.58481 -40.1732 -2.40415e-19)
(8.3951 -39.6548 0)
(8.20446 -39.1657 6.13145e-19)
(8.01851 -38.6918 -8.11502e-19)
(7.83896 -38.3032 9.16372e-19)
(7.66124 -37.8954 -7.16759e-19)
(7.48929 -37.5094 -1.66448e-19)
(7.32001 -37.1944 7.65702e-19)
(7.15153 -36.8313 -1.32151e-18)
(6.96708 -36.426 8.30952e-19)
(6.8034 -36.0189 -2.72689e-19)
(6.59142 -35.5806 -6.09753e-19)
(6.46682 -35.0897 1.39543e-18)
(6.19773 -34.6803 -7.92325e-19)
(6.16765 -34.2787 -9.30529e-19)
(1.83347 -9.62719 1.20267e-18)
(6.83781 -26.1197 8.4898e-19)
(9.75411 -38.0497 -1.18121e-18)
(10.18 -40.5488 -2.67521e-19)
(10.0189 -40.2201 2.53085e-19)
(9.76177 -39.6664 9.26762e-19)
(9.52469 -39.1342 -9.10465e-19)
(9.31043 -38.6676 0)
(9.09672 -38.2493 7.61213e-19)
(8.89006 -37.8197 -7.48511e-19)
(8.69598 -37.4515 -6.71162e-19)
(8.49331 -37.0942 6.60274e-19)
(8.30008 -36.6743 0)
(8.10408 -36.3281 0)
(7.93003 -36.0141 1.19143e-18)
(7.73378 -35.6222 -1.16749e-18)
(7.51551 -35.1659 -9.40216e-19)
(7.33938 -34.6369 9.26329e-19)
(7.06178 -34.2343 -8.42643e-19)
(7.01595 -33.8285 1.03879e-18)
(2.53062 -10.1905 -8.87622e-19)
(7.73 -27.0745 2.90305e-19)
(11.1632 -38.1627 5.53276e-20)
(11.4201 -40.1227 1.36491e-18)
(11.186 -39.7042 0)
(10.8957 -39.1499 0)
(10.6081 -38.6285 1.69597e-18)
(10.3397 -38.1514 -8.11959e-20)
(10.0767 -37.6882 -1.55871e-18)
(9.82848 -37.3137 1.39066e-18)
(9.5844 -36.9045 -1.36782e-18)
(9.35 -36.5372 0)
(9.12893 -36.2394 1.15099e-18)
(8.90728 -35.8812 -1.13284e-18)
(8.67098 -35.4854 0)
(8.45585 -35.0986 0)
(8.20226 -34.6796 0)
(8.01804 -34.2078 0)
(7.70432 -33.8084 0)
(7.65316 -33.3891 -1.00633e-19)
(3.05214 -10.7256 8.67507e-19)
(9.08059 -27.528 -1.47611e-18)
(12.5219 -37.9732 0)
(12.7122 -39.4654 0)
(12.3823 -38.9705 2.12982e-18)
(12.0444 -38.433 1.25534e-19)
(11.7123 -37.9285 -1.94613e-18)
(11.4112 -37.4718 0)
(11.1201 -37.0629 1.80847e-19)
(10.8374 -36.6497 -1.6899e-19)
(10.5785 -36.3086 0)
(10.3123 -35.9602 1.47993e-19)
(10.0541 -35.5555 -1.24708e-18)
(9.80006 -35.2376 2.26202e-18)
(9.57701 -34.945 -4.64461e-20)
(9.32201 -34.5778 -9.63226e-19)
(9.06262 -34.1563 -1.07971e-19)
(8.82134 -33.6641 1.01612e-19)
(8.49569 -33.284 0)
(8.41655 -32.8804 9.14982e-20)
(3.6729 -11.1949 5.63362e-19)
(10.3185 -27.9197 4.9524e-19)
(13.8272 -37.5522 -1.70518e-18)
(13.9091 -38.7155 4.99199e-19)
(13.5061 -38.2115 2.22841e-19)
(13.132 -37.7071 1.91673e-18)
(12.7431 -37.2094 -2.66288e-18)
(12.3927 -36.7668 1.93566e-18)
(12.0528 -36.3359 -1.5639e-18)
(11.7331 -35.988 1.85242e-18)
(11.4208 -35.595 3.02025e-19)
(11.1284 -35.2656 1.26458e-18)
(10.854 -34.992 -7.09444e-19)
(10.5774 -34.6473 -1.37006e-18)
(10.289 -34.284 1.20904e-18)
(10.0254 -33.9397 0)
(9.73429 -33.56 3.12145e-19)
(9.48651 -33.1092 9.01833e-20)
(9.12641 -32.7125 -1.8073e-19)
(9.04313 -32.2863 8.07091e-20)
(4.27368 -11.5155 -1.08778e-18)
(11.5728 -27.9779 1.1259e-18)
(15.09 -36.951 -2.11835e-20)
(15.0833 -37.7902 -9.79838e-19)
(14.6134 -37.2666 -9.06633e-19)
(14.193 -36.7768 -4.30318e-19)
(13.7717 -36.3268 -1.83467e-20)
(13.3843 -35.9028 -3.72139e-19)
(13.0166 -35.523 0)
(12.6604 -35.1499 -3.23438e-19)
(12.338 -34.8496 -3.0202e-19)
(12.0063 -34.5246 -1.54393e-20)
(11.6863 -34.162 9.87837e-19)
(11.3801 -33.888 -5.06889e-19)
(11.1079 -33.6287 -1.11071e-18)
(10.7999 -33.3038 8.65445e-19)
(10.4997 -32.9369 5.68915e-19)
(10.1994 -32.5038 -9.53435e-19)
(9.82968 -32.1407 1.80904e-19)
(9.719 -31.7297 1.13865e-18)
(4.89872 -11.763 -2.63691e-18)
(12.7855 -27.9474 2.68511e-18)
(16.2422 -36.1418 -2.97076e-18)
(16.1712 -36.7894 2.41727e-18)
(15.6329 -36.304 2.12787e-18)
(15.1812 -35.8624 -1.65335e-18)
(14.7016 -35.4109 -2.18746e-18)
(14.2722 -35.0237 7.8475e-20)
(13.8616 -34.6383 1.31926e-18)
(13.4737 -34.3288 -8.72311e-19)
(13.0967 -33.971 2.22269e-18)
(12.7496 -33.6944 -1.33046e-18)
(12.4233 -33.4539 -2.49177e-19)
(12.0893 -33.1368 6.45274e-19)
(11.7524 -32.8214 -1.68524e-18)
(11.4453 -32.5286 8.08172e-19)
(11.1196 -32.2064 0)
(10.8082 -31.8014 -1.34826e-18)
(10.4031 -31.4256 1.32595e-18)
(10.2819 -31.0098 -1.06431e-18)
(5.51731 -11.8827 5.08982e-19)
(13.9332 -27.6549 5.65587e-19)
(17.357 -35.2288 2.46662e-18)
(17.1832 -35.6396 2.15312e-18)
(16.6014 -35.1602 -1.29458e-18)
(16.1003 -34.7336 1.83396e-18)
(15.6057 -34.3561 -1.08199e-18)
(15.1379 -33.9864 1.25864e-18)
(14.7013 -33.6562 -2.40464e-18)
(14.2796 -33.3397 8.59501e-19)
(13.8997 -33.0931 0)
(13.5063 -32.8029 0)
(13.1329 -32.5013 0)
(12.7848 -32.2851 -1.62425e-18)
(12.4656 -32.0768 1.59912e-18)
(12.1135 -31.8052 0)
(11.778 -31.4986 0)
(11.431 -31.1362 -1.50297e-19)
(11.0225 -30.7884 0)
(10.8813 -30.3806 -1.25474e-18)
(6.12975 -11.9303 -9.70273e-19)
(15.0305 -27.2683 -2.41919e-18)
(18.3283 -34.1129 -1.74244e-18)
(18.13 -34.4453 -3.20112e-19)
(17.4752 -34.0284 2.30297e-18)
(16.9507 -33.6577 -4.54757e-19)
(16.3994 -33.2695 -8.14795e-20)
(15.9 -32.9546 -1.52966e-18)
(15.4262 -32.6255 0)
(14.9757 -32.3659 -7.53717e-19)
(14.5401 -32.0582 1.21074e-18)
(14.1452 -31.8468 0)
(13.7688 -31.6492 1.59429e-18)
(13.3768 -31.3629 -1.56925e-18)
(12.9975 -31.1047 1.37575e-18)
(12.6541 -30.8888 -2.4786e-18)
(12.2978 -30.6473 1.26002e-18)
(11.9345 -30.3205 1.50298e-19)
(11.4959 -29.976 -1.24728e-19)
(11.3387 -29.5741 9.89404e-19)
(6.72121 -11.873 -1.30074e-18)
(16.0344 -26.6741 7.59835e-20)
(19.2544 -32.9422 1.10388e-19)
(18.9566 -33.1081 3.09467e-18)
(18.2762 -32.7083 2.72864e-19)
(17.6935 -32.364 -1.6581e-18)
(17.1437 -32.0677 -1.1602e-18)
(16.6067 -31.7687 3.5974e-19)
(16.1117 -31.5033 1.29207e-18)
(15.6356 -31.2544 -1.37748e-18)
(15.206 -31.0703 6.66869e-19)
(14.7564 -30.8185 -1.74059e-18)
(14.3426 -30.5967 1.3531e-18)
(13.9646 -30.4595 -1.32768e-18)
(13.5983 -30.2943 1.15882e-18)
(13.2083 -30.0593 9.83013e-19)
(12.8457 -29.8263 -1.12143e-18)
(12.4682 -29.5772 8.6295e-19)
(12.0318 -29.2708 -8.35843e-19)
(11.8555 -28.865 -9.67512e-19)
(7.28536 -11.7626 -1.62873e-18)
(16.9872 -25.9939 -3.17592e-19)
(20.0131 -31.6063 1.59366e-18)
(19.6949 -31.7758 -1.36684e-18)
(18.9772 -31.4352 1.34225e-18)
(18.3727 -31.1454 3.1094e-19)
(17.7669 -30.8331 0)
(17.2128 -30.6046 -2.35133e-19)
(16.6856 -30.3431 6.43322e-19)
(16.1792 -30.14 -2.2734e-18)
(15.696 -29.898 1.59905e-18)
(15.2611 -29.7623 3.54585e-19)
(14.8337 -29.5971 1.74107e-19)
(14.3885 -29.3506 0)
(13.9815 -29.1931 2.03627e-20)
(13.6104 -29.0732 9.85626e-19)
(13.2204 -28.8747 -6.29877e-20)
(12.824 -28.6389 1.59166e-19)
(12.3775 -28.3816 -8.19957e-19)
(12.1879 -27.9916 1.85566e-19)
(7.81351 -11.5611 1.48923e-18)
(17.8308 -25.1487 -2.57949e-18)
(20.7246 -30.2155 1.44965e-18)
(20.3025 -30.2852 1.23313e-18)
(19.5822 -29.9865 -8.75034e-20)
(18.9311 -29.7338 -8.53871e-19)
(18.3344 -29.5212 2.26982e-19)
(17.7428 -29.3018 2.35132e-19)
(17.2045 -29.1149 0)
(16.6862 -28.9404 0)
(16.2138 -28.8152 -1.30113e-18)
(15.7181 -28.6112 2.16148e-18)
(15.2813 -28.4949 -1.17007e-18)
(14.876 -28.4125 0)
(14.4536 -28.248 2.13285e-20)
(14.042 -28.0969 -9.25224e-19)
(13.6687 -27.988 9.03804e-19)
(13.2671 -27.8246 -9.88591e-20)
(12.8208 -27.5955 -6.93848e-19)
(12.6134 -27.2016 4.80295e-19)
(8.30497 -11.3106 -1.34197e-18)
(18.5939 -24.2163 1.69081e-18)
(21.2926 -28.7749 0)
(20.8176 -28.8606 0)
(20.0742 -28.6039 2.40313e-19)
(19.406 -28.3986 -1.14761e-18)
(18.7609 -28.1678 3.73044e-20)
(18.1659 -28.032 8.00066e-19)
(17.5992 -27.8457 -1.33802e-18)
(17.0481 -27.7098 2.52818e-18)
(16.5317 -27.5492 -1.19259e-18)
(16.0613 -27.474 2.5866e-19)
(15.5857 -27.3402 1.00406e-18)
(15.1144 -27.1961 2.16046e-20)
(14.6887 -27.1256 -6.08501e-19)
(14.2741 -27.025 9.6875e-20)
(13.8558 -26.893 -6.83084e-19)
(13.454 -26.7915 5.86436e-19)
(13.0247 -26.6503 1.88392e-20)
(12.8146 -26.2847 4.67007e-19)
(8.74301 -10.972 0)
(19.211 -23.1373 8.27014e-19)
(21.7557 -27.2273 -8.90974e-19)
(21.2177 -27.273 0)
(20.4781 -27.0862 -2.40312e-19)
(19.782 -26.9232 7.68419e-19)
(19.1497 -26.7869 -9.50974e-19)
(18.5183 -26.6472 0)
(17.9527 -26.5452 1.11251e-18)
(17.4048 -26.4407 -1.09398e-18)
(16.9003 -26.3812 1.03223e-19)
(16.3751 -26.2436 -1.169e-19)
(15.9182 -26.2032 -1.05108e-19)
(15.4816 -26.1537 -9.43373e-20)
(15.0223 -26.0444 -6.41869e-19)
(14.6037 -25.9837 1.04037e-18)
(14.2097 -25.949 -9.16468e-19)
(13.7843 -25.8671 8.05629e-19)
(13.3593 -25.7835 -3.1679e-19)
(13.147 -25.4359 4.69307e-20)
(9.15265 -10.6105 0)
(19.7569 -22.0483 -9.873e-19)
(22.1186 -25.7343 5.17511e-19)
(21.5135 -25.7765 6.11687e-19)
(20.7549 -25.6201 -7.43725e-20)
(20.0369 -25.5044 -6.69666e-20)
(19.3669 -25.3536 -6.24103e-19)
(18.7411 -25.3055 0)
(18.1494 -25.2006 0)
(17.5671 -25.1368 0)
(17.0296 -25.0528 -1.03218e-19)
(16.5372 -25.0413 0)
(16.0268 -24.9542 -5.64997e-19)
(15.5465 -24.9086 5.01643e-19)
(15.1012 -24.8939 -3.71092e-19)
(14.6377 -24.7987 6.76353e-19)
(14.1938 -24.7428 -3.06246e-19)
(13.7791 -24.7447 -2.26702e-19)
(13.3714 -24.7354 3.60758e-19)
(13.1657 -24.423 -1.593e-19)
(9.51221 -10.1638 0)
(20.1511 -20.7994 0)
(22.3247 -24.0783 2.15032e-19)
(21.7026 -24.1417 1.92065e-19)
(20.9646 -24.0671 0)
(20.2384 -24.003 5.01579e-19)
(19.5816 -23.9348 -4.92792e-19)
(18.924 -23.8669 0)
(18.3433 -23.848 6.47557e-19)
(17.7828 -23.8131 -6.36758e-19)
(17.2559 -23.8241 0)
(16.715 -23.7496 -3.83287e-19)
(16.2381 -23.7608 1.22398e-19)
(15.7678 -23.7327 3.05315e-19)
(15.2999 -23.7089 0)
(14.8708 -23.7049 0)
(14.4148 -23.6771 0)
(13.9413 -23.606 -2.40552e-21)
(13.5353 -23.5599 1.94738e-20)
(13.2355 -23.3853 0)
(2.37229 -34.3412 0)
(2.21661 -32.4859 0)
(1.38078 -31.3039 -3.09596e-21)
(1.18961 -30.2192 -2.45896e-21)
(0.825817 -29.4422 0)
(0.561409 -28.5113 1.75081e-22)
(0.405218 -27.8665 1.22522e-21)
(0.251523 -27.3152 0)
(0.158174 -26.8393 4.47287e-22)
(0.0728534 -26.4286 0)
(0.0170055 -26.1036 -5.86798e-23)
(-0.0019451 -25.8048 7.63396e-23)
(-0.0396052 -25.6186 -7.67278e-23)
(-0.00925738 -25.4186 -3.46619e-22)
(-0.0525857 -25.3122 0)
(0.0348429 -25.0123 1.35593e-22)
(-0.0105693 -24.3757 -7.15442e-22)
(0.123232 -21.7268 0)
(0.0210228 -15.563 0)
(0.125559 -6.42098 -6.65611e-22)
(3.19153 -34.1144 2.46392e-20)
(2.88858 -32.3168 0)
(1.92169 -31.1803 1.40225e-20)
(1.61931 -30.1866 -8.52129e-21)
(1.17973 -29.4242 0)
(0.845855 -28.4977 -6.41771e-21)
(0.651649 -27.858 2.35249e-21)
(0.448325 -27.3041 0)
(0.329953 -26.8318 1.91579e-22)
(0.211212 -26.423 -6.42345e-22)
(0.135176 -26.1034 -1.49736e-23)
(0.0931121 -25.809 4.23881e-22)
(0.0408809 -25.6225 -6.44263e-22)
(0.0535778 -25.4203 2.46992e-22)
(-0.00298933 -25.3224 3.96008e-22)
(0.0690929 -25.0154 -5.53617e-22)
(0.0169146 -24.3888 1.13537e-21)
(0.139765 -21.7356 1.58354e-21)
(0.0326231 -15.563 8.05333e-22)
(0.114127 -6.39931 8.22446e-22)
(3.65415 -33.8721 -1.21003e-20)
(3.21208 -32.1215 -2.0687e-20)
(2.17673 -30.9849 -1.16427e-20)
(1.82738 -30.0148 0)
(1.35588 -29.2538 0)
(0.987733 -28.3704 7.17231e-21)
(0.773248 -27.7699 -1.37211e-21)
(0.547738 -27.2334 -1.08613e-21)
(0.4148 -26.7793 -9.29768e-22)
(0.280992 -26.3828 -1.1531e-21)
(0.194928 -26.0729 0)
(0.142489 -25.7862 0)
(0.0819661 -25.6077 0)
(0.0864215 -25.4127 1.53927e-21)
(0.0256012 -25.3167 0)
(0.0957977 -25.0251 2.19511e-21)
(0.040376 -24.4038 -2.39057e-21)
(0.15093 -21.7473 -7.95741e-22)
(0.0380106 -15.5723 -1.59842e-21)
(0.100527 -6.38764 -2.6488e-21)
(4.43029 -33.589 3.53163e-20)
(3.85374 -31.9302 -6.66486e-20)
(2.70146 -30.8404 2.39731e-21)
(2.24791 -29.9579 2.06347e-20)
(1.70063 -29.2239 0)
(1.26619 -28.3486 8.56125e-21)
(1.01309 -27.7547 -1.79557e-20)
(0.740175 -27.217 7.85283e-21)
(0.581839 -26.7673 -3.28059e-21)
(0.415966 -26.3729 2.71257e-22)
(0.309795 -26.0683 -3.72867e-22)
(0.234824 -25.7855 8.87422e-22)
(0.159258 -25.6063 -8.91657e-22)
(0.146863 -25.41 -6.79831e-22)
(0.0735895 -25.3237 -8.63452e-22)
(0.127617 -25.0276 -2.1938e-21)
(0.0667938 -24.4161 3.01959e-21)
(0.156873 -21.7666 -1.04959e-21)
(0.046987 -15.5806 6.62598e-22)
(0.0889716 -6.37621 2.60758e-21)
(4.92729 -33.263 9.22392e-20)
(4.18003 -31.6817 1.53879e-20)
(2.94876 -30.6147 -2.02949e-20)
(2.44853 -29.7622 2.85878e-20)
(1.87023 -29.0383 0)
(1.40709 -28.2088 -4.69106e-21)
(1.13037 -27.6551 3.44578e-21)
(0.838514 -27.1359 0)
(0.664528 -26.7062 1.54574e-22)
(0.485175 -26.3244 0)
(0.367783 -26.031 3.21887e-22)
(0.282729 -25.757 0)
(0.19826 -25.5866 0)
(0.179979 -25.3977 3.49922e-21)
(0.102122 -25.3133 -1.80186e-21)
(0.151342 -25.036 2.31981e-21)
(0.0886669 -24.4308 0)
(0.167621 -21.7897 -6.1238e-22)
(0.0478596 -15.597 6.75105e-22)
(0.0779152 -6.36983 0)
(5.63609 -32.9267 3.64374e-20)
(4.77592 -31.4459 -2.87441e-20)
(3.45662 -30.4464 4.82665e-20)
(2.85658 -29.6833 -4.70968e-20)
(2.20376 -28.996 1.18656e-20)
(1.67931 -28.1781 4.70568e-21)
(1.36339 -27.6318 -6.07779e-21)
(1.02595 -27.1143 -3.87902e-21)
(0.82622 -26.6894 1.21171e-21)
(0.616458 -26.3101 2.45865e-23)
(0.478805 -26.0216 -2.46436e-22)
(0.372276 -25.751 0)
(0.273476 -25.5802 0)
(0.239996 -25.3911 7.30421e-24)
(0.149899 -25.3165 1.8832e-21)
(0.181426 -25.0369 -2.31757e-21)
(0.110616 -24.4442 0)
(0.175769 -21.8137 5.17945e-21)
(0.0553656 -15.6108 5.15512e-21)
(0.0666396 -6.36687 3.37538e-22)
(6.1635 -32.5082 -1.0077e-19)
(5.10184 -31.1529 9.31913e-20)
(3.69879 -30.1923 -2.10189e-20)
(3.04816 -29.4625 0)
(2.3701 -28.7954 -1.1916e-20)
(1.81784 -28.0276 1.45392e-20)
(1.47774 -27.5209 -8.49422e-21)
(1.12361 -27.0238 3.88997e-21)
(0.907078 -26.6199 0)
(0.685187 -26.2537 0)
(0.535482 -25.9777 -1.41885e-21)
(0.41896 -25.7171 1.42397e-21)
(0.311864 -25.5564 0)
(0.273994 -25.3744 -5.54565e-21)
(0.178259 -25.3006 1.96515e-21)
(0.20153 -25.0421 2.4838e-21)
(0.131756 -24.4591 -2.49192e-21)
(0.183744 -21.8466 -6.90045e-21)
(0.0544411 -15.6346 -3.39935e-21)
(0.048235 -6.36746 -6.99458e-22)
(6.80899 -32.1197 0)
(5.65934 -30.8656 -4.6866e-20)
(4.18998 -29.9982 4.70163e-20)
(3.43759 -29.3635 0)
(2.69456 -28.7411 0)
(2.0811 -27.9867 -1.36072e-20)
(1.70408 -27.489 1.3649e-20)
(1.30532 -26.9966 0)
(1.06306 -26.5978 8.15082e-22)
(0.812461 -26.2351 -2.82387e-22)
(0.642537 -25.9631 -5.36787e-22)
(0.506154 -25.7059 -2.63163e-21)
(0.385311 -25.5456 2.63948e-21)
(0.331264 -25.3639 0)
(0.222808 -25.2989 0)
(0.229435 -25.0417 2.54666e-21)
(0.154019 -24.4741 -3.91311e-21)
(0.194632 -21.8742 -4.41743e-23)
(0.0536914 -15.6533 2.11531e-21)
(0.0185949 -6.37439 -7.08269e-22)
(7.31676 -31.6132 5.883e-20)
(5.96902 -30.5339 -5.89024e-20)
(4.42721 -29.7131 -5.18821e-20)
(3.62007 -29.1158 5.90473e-20)
(2.8598 -28.5269 -4.34702e-20)
(2.21592 -27.8264 5.47276e-21)
(1.81724 -27.3675 1.26921e-20)
(1.40195 -26.8973 0)
(1.14236 -26.5207 0)
(0.880852 -26.1715 -4.55283e-22)
(0.697881 -25.9132 0)
(0.55173 -25.6674 0)
(0.422222 -25.5177 0)
(0.361806 -25.3424 0)
(0.244814 -25.2779 0)
(0.246683 -25.0443 0)
(0.172744 -24.49 2.77338e-21)
(0.199674 -21.912 -2.77576e-21)
(0.0528954 -15.6779 7.17811e-22)
(-0.014815 -6.3887 -7.1827e-22)
(7.91657 -31.1579 -6.35567e-20)
(6.50162 -30.1994 -8.00196e-20)
(4.9016 -29.4957 -1.35368e-20)
(3.98745 -28.9979 -5.61274e-21)
(3.17617 -28.4601 1.65509e-20)
(2.46879 -27.7741 2.37614e-20)
(2.03595 -27.327 4.33025e-21)
(1.57789 -26.8641 0)
(1.29239 -26.4931 4.32169e-22)
(1.00364 -26.1483 -3.8334e-23)
(0.800878 -25.893 -1.80585e-21)
(0.636297 -25.6507 -2.90176e-21)
(0.492283 -25.5017 0)
(0.413625 -25.327 -4.36914e-21)