# Residuals   
# Time        	Ux            	Uy            	p             
0             	N/A	N/A
0.01          	0.000000e+00	1.000000e+00	1.000000e+00
0.0103704     	1.815792e-02	4.965657e-01	2.186935e-01
0.0107716     	1.399257e-01	9.200920e-01	2.119778e-02
0.0112111     	1.138507e-01	9.126171e-01	1.303222e-02
0.0116993     	2.294196e-01	8.856583e-01	8.044838e-03
0.0122181     	2.340639e-01	8.343410e-01	1.328684e-02
0.012774      	1.622242e-01	7.481264e-01	3.288500e-02
0.0133298     	9.376991e-02	5.397126e-01	8.531285e-02
0.0138429     	3.313827e-02	7.919177e-02	3.383966e-01
0.014356      	6.727190e-02	4.586640e-01	7.261506e-02
0.0148691     	1.384150e-01	5.756704e-01	4.484870e-02
0.0154392     	2.074776e-01	6.329818e-01	3.536739e-02
0.0160093     	1.804057e-01	6.101940e-01	3.950495e-02
0.0165794     	1.250530e-01	5.483495e-01	5.442416e-02
0.0171495     	6.721226e-02	4.439261e-01	7.474407e-02
0.0177196     	6.819201e-02	2.873596e-01	1.064016e-01
0.0182897     	1.026442e-01	8.415671e-02	2.495465e-01
0.0188598     	1.086233e-01	1.196192e-01	1.420673e-01
0.0194299     	8.836609e-02	2.277060e-01	8.595515e-02
0.02          	5.801786e-02	2.702486e-01	6.638877e-02
0.0205882     	3.703863e-02	2.796793e-01	5.967812e-02
0.0211765     	3.299842e-02	2.538510e-01	6.036566e-02
0.0217647     	3.567006e-02	2.094488e-01	6.397719e-02
0.0223529     	3.272372e-02	1.545104e-01	7.025505e-02
0.0229412     	2.656841e-02	9.780710e-02	9.140166e-02
0.0235294     	1.774256e-02	4.549566e-02	1.479123e-01
0.0241176     	1.046033e-02	2.125855e-02	1.892203e-01
0.0247059     	1.271366e-02	3.552276e-02	1.079302e-01
0.0252941     	1.290408e-02	4.910099e-02	8.157469e-02
0.0258824     	1.112685e-02	5.574124e-02	7.501606e-02
0.0264706     	8.856494e-03	5.524692e-02	7.047482e-02
0.0270588     	7.746052e-03	4.981214e-02	6.727302e-02
0.0276471     	7.743145e-03	4.141458e-02	6.697244e-02
0.0282353     	7.211231e-03	3.162248e-02	7.147322e-02
0.0288235     	6.086474e-03	2.172136e-02	7.900283e-02
0.0294118     	4.467904e-03	1.277935e-02	8.716634e-02
0.03          	3.036689e-03	8.304694e-03	8.736428e-02
0.0305882     	3.812744e-03	9.904081e-03	6.620570e-02
0.0311765     	4.039085e-03	1.107269e-02	6.027275e-02
0.0317647     	3.948497e-03	1.190179e-02	5.790768e-02
0.0323529     	3.745350e-03	1.204100e-02	5.583414e-02
0.0329412     	3.515805e-03	1.129540e-02	5.296924e-02
0.0335294     	3.279956e-03	9.916422e-03	5.043008e-02
0.0341176     	3.011550e-03	8.226902e-03	4.843404e-02
0.0347059     	2.616287e-03	6.531666e-03	4.664127e-02
0.0352941     	2.123804e-03	5.132211e-03	4.461705e-02
0.0358824     	1.757562e-03	4.368550e-03	4.131724e-02
0.0364706     	1.791054e-03	4.184833e-03	3.665124e-02
0.0370588     	1.860055e-03	4.144722e-03	3.362252e-02
0.0376471     	1.882586e-03	4.061488e-03	3.185728e-02
0.0382353     	1.865610e-03	3.938719e-03	3.064008e-02
0.0388235     	1.811876e-03	3.778841e-03	2.972753e-02
0.0394118     	1.743744e-03	3.577804e-03	2.877774e-02
0.04          	1.669739e-03	3.343884e-03	2.797886e-02
0.0405882     	1.584078e-03	3.076841e-03	2.729321e-02
0.0411765     	1.505403e-03	2.854690e-03	2.645930e-02
0.0417647     	1.453665e-03	2.709262e-03	2.563634e-02
0.0423529     	1.419142e-03	2.614739e-03	2.496711e-02
0.0429412     	1.407462e-03	2.545911e-03	2.452271e-02
0.0435294     	1.410951e-03	2.497103e-03	2.421831e-02
0.0441176     	1.411931e-03	2.464523e-03	2.395381e-02
0.0447059     	1.412980e-03	2.434996e-03	2.369784e-02
0.0452941     	1.412509e-03	2.407506e-03	2.346340e-02
0.0458824     	1.410531e-03	2.380664e-03	2.314352e-02
0.0464706     	1.406844e-03	2.354948e-03	2.276264e-02
0.0470588     	1.399798e-03	2.328880e-03	2.242971e-02
0.0476471     	1.391869e-03	2.303824e-03	2.208930e-02
0.0482353     	1.387023e-03	2.281991e-03	2.158280e-02
0.0488235     	1.381371e-03	2.262697e-03	2.106772e-02
0.0494118     	1.376310e-03	2.242882e-03	2.073068e-02
0.05          	1.372762e-03	2.223521e-03	2.046406e-02
0.0505882     	1.371247e-03	2.204289e-03	2.015770e-02
0.0511765     	1.367445e-03	2.186975e-03	2.000047e-02
0.0517647     	1.362848e-03	2.171395e-03	1.982446e-02
0.0523529     	1.358762e-03	2.155650e-03	1.955816e-02
0.0529412     	1.355602e-03	2.136522e-03	1.939705e-02
0.0535294     	1.352733e-03	2.114198e-03	1.910939e-02
0.0541176     	1.348616e-03	2.091499e-03	1.874384e-02
0.0547059     	1.345916e-03	2.070827e-03	1.845002e-02
0.0552941     	1.344764e-03	2.052887e-03	1.819613e-02
0.0558824     	1.344864e-03	2.037785e-03	1.798094e-02
0.0564706     	1.346673e-03	2.023088e-03	1.782494e-02
0.0570588     	1.348130e-03	2.008064e-03	1.765633e-02
0.0576471     	1.350965e-03	1.994837e-03	1.749191e-02
0.0582353     	1.354311e-03	1.981726e-03	1.731464e-02
0.0588235     	1.356366e-03	1.967679e-03	1.730560e-02
0.0594118     	1.355653e-03	1.954943e-03	1.720440e-02
0.06          	1.354994e-03	1.943612e-03	1.705036e-02
0.0605882     	1.355891e-03	1.932274e-03	1.697584e-02
0.0611765     	1.357180e-03	1.920409e-03	1.691082e-02
0.0617647     	1.358351e-03	1.911481e-03	1.690718e-02
0.0623529     	1.358260e-03	1.902601e-03	1.681892e-02
0.0629412     	1.357124e-03	1.892736e-03	1.690529e-02
0.0635294     	1.355505e-03	1.881752e-03	1.696725e-02
0.0641176     	1.353552e-03	1.869643e-03	1.690328e-02
0.0647059     	1.350405e-03	1.855604e-03	1.686641e-02
0.0652941     	1.348200e-03	1.840803e-03	1.682114e-02
0.0658824     	1.347581e-03	1.824691e-03	1.682965e-02
0.0664706     	1.347554e-03	1.807238e-03	1.681992e-02
0.0670588     	1.344333e-03	1.789247e-03	1.678885e-02
0.0676471     	1.341253e-03	1.775311e-03	1.693307e-02
0.0682353     	1.338792e-03	1.767928e-03	1.702299e-02
0.0688235     	1.334486e-03	1.761286e-03	1.682749e-02
0.0694118     	1.325984e-03	1.751828e-03	1.663117e-02
0.07          	1.316330e-03	1.739761e-03	1.631740e-02
0.0705882     	1.308122e-03	1.726257e-03	1.605901e-02
0.0711765     	1.301510e-03	1.711313e-03	1.582996e-02
0.0717647     	1.294328e-03	1.696911e-03	1.548141e-02
0.0723529     	1.288343e-03	1.682703e-03	1.525703e-02
0.0729412     	1.283793e-03	1.668546e-03	1.527244e-02
0.0735294     	1.281432e-03	1.652171e-03	1.534848e-02
0.0741176     	1.279757e-03	1.633647e-03	1.529792e-02
0.0747059     	1.278221e-03	1.613772e-03	1.518160e-02
0.0752941     	1.277690e-03	1.596158e-03	1.498309e-02
0.0758824     	1.275432e-03	1.580122e-03	1.487124e-02
0.0764706     	1.273438e-03	1.566231e-03	1.467825e-02
0.0770588     	1.271462e-03	1.553242e-03	1.445014e-02
0.0776471     	1.269271e-03	1.541237e-03	1.423226e-02
0.0781176     	1.015382e-03	1.226090e-03	9.540091e-02
0.0785882     	1.032528e-03	1.241087e-03	6.451059e-02
0.0790588     	1.042665e-03	1.249424e-03	4.423374e-02
0.0795294     	1.049633e-03	1.251758e-03	3.116341e-02
0.08          	1.053260e-03	1.250375e-03	2.286675e-02
0.0805263     	1.177403e-03	1.392612e-03	4.091840e-02
0.0810836     	1.234091e-03	1.452695e-03	5.544284e-02
0.0816409     	1.219480e-03	1.429400e-03	4.201095e-02
0.0821981     	1.210986e-03	1.411069e-03	3.252592e-02
0.0827554     	1.204400e-03	1.396732e-03	2.599998e-02
0.0833127     	1.199488e-03	1.383229e-03	2.147757e-02
0.08387       	1.197303e-03	1.373482e-03	1.847580e-02
0.0844272     	1.195711e-03	1.366427e-03	1.650006e-02
0.0849845     	1.195778e-03	1.360870e-03	1.503384e-02
0.0855418     	1.194434e-03	1.354729e-03	1.396670e-02
0.0860991     	1.191535e-03	1.348046e-03	1.323099e-02
0.0866563     	1.187743e-03	1.341937e-03	1.272155e-02
0.0872136     	1.183565e-03	1.335392e-03	1.231898e-02
0.0877709     	1.179384e-03	1.329579e-03	1.214515e-02
0.0883282     	1.176074e-03	1.323887e-03	1.201224e-02
0.0888854     	1.175109e-03	1.317554e-03	1.184215e-02
0.0894427     	1.174905e-03	1.310534e-03	1.172337e-02
0.09          	1.173722e-03	1.303262e-03	1.151865e-02
0.0905556     	1.170574e-03	1.292741e-03	1.080606e-02
0.0911111     	1.172653e-03	1.287554e-03	1.079406e-02
0.0916667     	1.174359e-03	1.282719e-03	1.085919e-02
0.0922222     	1.175313e-03	1.277601e-03	1.088577e-02
0.0927778     	1.175572e-03	1.272361e-03	1.089712e-02
0.0933333     	1.174349e-03	1.267858e-03	1.082198e-02
0.0938889     	1.173126e-03	1.264225e-03	1.078811e-02
0.0944444     	1.172048e-03	1.262444e-03	1.078557e-02
0.095         	1.170613e-03	1.260240e-03	1.078248e-02
0.0955556     	1.168699e-03	1.257882e-03	1.076443e-02
0.0961111     	1.167319e-03	1.255303e-03	1.083209e-02
0.0966667     	1.166908e-03	1.252827e-03	1.086791e-02
0.0972222     	1.167378e-03	1.248970e-03	1.086746e-02
0.0977778     	1.166721e-03	1.245586e-03	1.081298e-02
0.0983333     	1.166314e-03	1.242383e-03	1.085581e-02
0.0988889     	1.166837e-03	1.239009e-03	1.087809e-02
0.0994444     	1.169268e-03	1.235194e-03	1.083198e-02
0.1           	1.171068e-03	1.231258e-03	1.075816e-02
0.100526      	1.111979e-03	1.163032e-03	2.400620e-02
0.101053      	1.112905e-03	1.162655e-03	1.792727e-02
0.101579      	1.112806e-03	1.160571e-03	1.416504e-02
0.102105      	1.114112e-03	1.158291e-03	1.188429e-02
0.102632      	1.116277e-03	1.155864e-03	1.055416e-02
0.103158      	1.117142e-03	1.153537e-03	9.792436e-03
0.103684      	1.118012e-03	1.150264e-03	9.394528e-03
0.104211      	1.119428e-03	1.146290e-03	9.234335e-03
0.104737      	1.120279e-03	1.142105e-03	9.291996e-03
0.105263      	1.120939e-03	1.137004e-03	9.375539e-03
0.105789      	1.121875e-03	1.131375e-03	9.479434e-03
0.106316      	1.123436e-03	1.126687e-03	9.452573e-03
0.106842      	1.125127e-03	1.122454e-03	9.414138e-03
0.107368      	1.126155e-03	1.118624e-03	9.454469e-03
0.107895      	1.127113e-03	1.114793e-03	9.496580e-03
0.108421      	1.128546e-03	1.111490e-03	9.531528e-03
0.108947      	1.130285e-03	1.108683e-03	9.526650e-03
0.109474      	1.132077e-03	1.106085e-03	9.515128e-03
0.11          	1.133687e-03	1.103744e-03	9.432403e-03
0.110526      	1.135703e-03	1.102057e-03	9.378396e-03
0.111053      	1.136506e-03	1.100187e-03	9.406030e-03
0.111579      	1.136673e-03	1.098491e-03	9.443439e-03
0.112105      	1.136678e-03	1.096887e-03	9.435891e-03
0.112632      	1.136993e-03	1.094891e-03	9.407402e-03
0.113158      	1.137320e-03	1.092920e-03	9.436645e-03
0.113684      	1.137681e-03	1.091240e-03	9.527103e-03
0.114211      	1.137716e-03	1.089538e-03	9.596612e-03
0.114737      	1.138877e-03	1.088308e-03	9.587085e-03
0.115263      	1.140580e-03	1.087054e-03	9.625247e-03
0.115789      	1.141061e-03	1.085990e-03	9.644648e-03
0.116257      	1.015358e-03	9.656091e-04	5.052493e-02
0.116725      	1.018651e-03	9.689317e-04	3.503876e-02
0.117193      	1.021289e-03	9.709535e-04	2.474910e-02
0.117661      	1.023080e-03	9.716279e-04	1.805152e-02
0.118129      	1.024126e-03	9.713356e-04	1.372139e-02
0.118596      	1.024865e-03	9.703379e-04	1.111327e-02
0.119064      	1.025351e-03	9.692449e-04	9.521012e-03
0.119532      	1.025471e-03	9.680740e-04	8.712482e-03
0.12          	1.024919e-03	9.668533e-04	8.390759e-03
0.1205        	1.093665e-03	1.031267e-03	3.251701e-02
0.121         	1.090512e-03	1.027877e-03	2.529067e-02
0.1215        	1.088392e-03	1.025738e-03	2.001202e-02
0.122         	1.086584e-03	1.023969e-03	1.637655e-02
0.1225        	1.085009e-03	1.022554e-03	1.388899e-02
0.123         	1.083703e-03	1.021428e-03	1.219562e-02
0.1235        	1.082421e-03	1.020219e-03	1.113542e-02
0.124         	1.081509e-03	1.019157e-03	1.041079e-02
0.1245        	1.081182e-03	1.018542e-03	9.944712e-03
0.125         	1.080888e-03	1.017915e-03	9.741652e-03
0.125455      	9.826880e-04	9.252610e-04	4.064634e-02
0.125909      	9.833839e-04	9.269536e-04	2.861514e-02
0.126364      	9.839453e-04	9.277756e-04	2.057457e-02
0.126818      	9.842299e-04	9.280853e-04	1.546475e-02
0.127273      	9.858755e-04	9.282355e-04	1.217256e-02
0.127727      	9.872118e-04	9.277147e-04	1.012160e-02
0.128182      	9.883104e-04	9.269264e-04	8.976891e-03
0.128636      	9.891802e-04	9.260014e-04	8.413598e-03
0.129091      	9.898263e-04	9.252325e-04	8.200842e-03
0.129545      	9.899315e-04	9.246519e-04	8.196446e-03
0.13          	9.897491e-04	9.239871e-04	8.337586e-03
0.130476      	1.036205e-03	9.668686e-04	2.541991e-02
0.130952      	1.034704e-03	9.646857e-04	2.012772e-02
0.131429      	1.033043e-03	9.628800e-04	1.653048e-02
0.131905      	1.030997e-03	9.610453e-04	1.410414e-02
0.132381      	1.029095e-03	9.595570e-04	1.245175e-02
0.132857      	1.027220e-03	9.574032e-04	1.149396e-02
0.133333      	1.025109e-03	9.551066e-04	1.091041e-02
0.133778      	9.554942e-04	8.901976e-04	2.997795e-02
0.134222      	9.549118e-04	8.902561e-04	2.187384e-02
0.134667      	9.548955e-04	8.901191e-04	1.643058e-02
0.135111      	9.548910e-04	8.895977e-04	1.293837e-02
0.135556      	9.545888e-04	8.889712e-04	1.080258e-02
0.136         	9.542584e-04	8.883076e-04	9.602322e-03
0.136444      	9.535578e-04	8.876565e-04	8.929343e-03
0.136889      	9.532727e-04	8.869054e-04	8.604585e-03
0.137333      	9.530210e-04	8.859626e-04	8.533592e-03
0.137778      	9.527617e-04	8.847948e-04	8.684746e-03
0.138222      	9.526085e-04	8.835743e-04	8.595465e-03
0.138667      	9.526002e-04	8.825919e-04	8.576608e-03
0.139111      	9.526563e-04	8.815060e-04	8.605469e-03
0.139556      	9.524574e-04	8.802018e-04	8.687949e-03
0.14          	9.520297e-04	8.788323e-04	8.681322e-03
0.140455      	9.728243e-04	8.971493e-04	1.621352e-02
0.140909      	9.717259e-04	8.953647e-04	1.396488e-02
0.141364      	9.713883e-04	8.933110e-04	1.263230e-02
0.141818      	9.709432e-04	8.914410e-04	1.162686e-02
0.142273      	9.707608e-04	8.899048e-04	1.100710e-02
0.142727      	9.709826e-04	8.885062e-04	1.051049e-02
0.143155      	9.147792e-04	8.351663e-04	2.780720e-02
0.143583      	9.165425e-04	8.346829e-04	2.062782e-02
0.144011      	9.181573e-04	8.341585e-04	1.589147e-02
0.144439      	9.194569e-04	8.333726e-04	1.288476e-02
0.144866      	9.208057e-04	8.323930e-04	1.100531e-02
0.145294      	9.221395e-04	8.314080e-04	9.946114e-03
0.145722      	9.236268e-04	8.304059e-04	9.318378e-03
0.14615       	9.244864e-04	8.293685e-04	8.952990e-03
0.146578      	9.261679e-04	8.281343e-04	9.020778e-03
0.147005      	9.274775e-04	8.269372e-04	9.105919e-03
0.147433      	9.286076e-04	8.257082e-04	9.281280e-03
0.147861      	9.292956e-04	8.244142e-04	9.381407e-03
0.148289      	9.294111e-04	8.230531e-04	9.399289e-03
0.148717      	9.295339e-04	8.217233e-04	9.361020e-03
0.149144      	9.302610e-04	8.206874e-04	9.300843e-03
0.149572      	9.312308e-04	8.195602e-04	9.368235e-03
0.15          	9.322768e-04	8.182888e-04	9.408805e-03
0.150435      	9.476126e-04	8.300356e-04	1.457542e-02
0.150851      	9.062250e-04	7.924117e-04	1.826649e-02
0.151267      	9.067134e-04	7.909047e-04	1.444733e-02
0.151682      	9.070877e-04	7.893248e-04	1.200425e-02
0.152098      	9.074509e-04	7.879301e-04	1.045677e-02
0.152514      	9.077171e-04	7.863880e-04	9.511432e-03
0.15293       	9.081791e-04	7.849135e-04	9.009735e-03
0.153346      	9.088993e-04	7.837981e-04	8.810600e-03
0.153762      	9.101798e-04	7.824869e-04	8.807732e-03
0.154178      	9.111504e-04	7.810769e-04	8.900774e-03
0.154594      	9.120190e-04	7.797168e-04	8.946730e-03
0.155009      	9.128375e-04	7.780647e-04	8.955918e-03
0.155425      	9.132719e-04	7.761561e-04	9.001498e-03
0.155841      	9.135440e-04	7.742029e-04	9.157667e-03
0.156257      	9.138337e-04	7.724457e-04	9.188810e-03
0.156673      	9.139996e-04	7.708658e-04	9.287489e-03
0.157089      	9.144324e-04	7.693615e-04	9.394292e-03
0.157505      	9.147987e-04	7.678365e-04	9.314261e-03
0.157921      	9.152896e-04	7.664288e-04	9.209715e-03
0.158336      	9.160202e-04	7.651927e-04	9.429886e-03
0.158752      	9.171054e-04	7.641130e-04	9.490357e-03
0.159168      	9.183672e-04	7.631214e-04	9.622166e-03
0.159584      	9.200079e-04	7.621565e-04	9.753936e-03
0.16          	9.217113e-04	7.612573e-04	9.853882e-03
0.160417      	9.252222e-04	7.619809e-04	1.033330e-02
0.160833      	9.269404e-04	7.610371e-04	1.039410e-02
0.16125       	9.287695e-04	7.600119e-04	1.042433e-02
0.161667      	9.307491e-04	7.589867e-04	1.038886e-02
0.162083      	9.326404e-04	7.578526e-04	1.038277e-02
0.1625        	9.342994e-04	7.567940e-04	1.023174e-02
0.162895      	8.868026e-04	7.161346e-04	2.690521e-02
0.163289      	8.885228e-04	7.154952e-04	2.025346e-02
0.163684      	8.901314e-04	7.147172e-04	1.592750e-02
0.164079      	8.915094e-04	7.138910e-04	1.312716e-02
0.164474      	8.933318e-04	7.132246e-04	1.133324e-02
0.164868      	8.952519e-04	7.126841e-04	1.034133e-02
0.165263      	8.969820e-04	7.121706e-04	9.823306e-03
0.165658      	8.981570e-04	7.113833e-04	9.478038e-03
0.166053      	8.994912e-04	7.105937e-04	9.470840e-03
0.166447      	9.010983e-04	7.102095e-04	9.669722e-03
0.166842      	9.029169e-04	7.101318e-04	9.863220e-03
0.167237      	9.042953e-04	7.101190e-04	1.016559e-02
0.167632      	9.056149e-04	7.100201e-04	1.029578e-02
0.168026      	9.071045e-04	7.097126e-04	1.032234e-02
0.168421      	9.081150e-04	7.090695e-04	1.026445e-02
0.168816      	9.090995e-04	7.080778e-04	1.020276e-02
0.169211      	9.102272e-04	7.070544e-04	1.018819e-02
0.169605      	9.116612e-04	7.059518e-04	1.025450e-02
0.17          	9.128360e-04	7.046148e-04	1.017168e-02
0.1704        	9.260009e-04	7.129425e-04	1.415824e-02
0.1708        	9.269520e-04	7.121055e-04	1.301748e-02
0.1712        	9.282837e-04	7.113393e-04	1.213390e-02
0.1716        	9.304488e-04	7.110912e-04	1.169400e-02
0.172         	9.330091e-04	7.110908e-04	1.142399e-02
0.1724        	9.349416e-04	7.106785e-04	1.121025e-02
0.1728        	9.365918e-04	7.102180e-04	1.103999e-02
0.1732        	9.379991e-04	7.094092e-04	1.096603e-02
0.1736        	9.389636e-04	7.087478e-04	1.103163e-02
0.174         	9.399569e-04	7.083089e-04	1.090188e-02
0.1744        	9.411714e-04	7.079657e-04	1.098413e-02
0.1748        	9.429803e-04	7.073713e-04	1.106511e-02
0.1752        	9.445864e-04	7.066185e-04	1.113862e-02
0.1756        	9.464760e-04	7.060163e-04	1.122937e-02
0.176         	9.489354e-04	7.059274e-04	1.126052e-02
0.1764        	9.508211e-04	7.061485e-04	1.137587e-02
0.1768        	9.526927e-04	7.064122e-04	1.158748e-02
0.1772        	9.545834e-04	7.067267e-04	1.170205e-02
0.1776        	9.564879e-04	7.068097e-04	1.194563e-02
0.177943      	8.225163e-04	6.062650e-04	6.874668e-02
0.178286      	8.278681e-04	6.078741e-04	4.876322e-02
0.178629      	8.316070e-04	6.088768e-04	3.534069e-02
0.178971      	8.346547e-04	6.091913e-04	2.620368e-02
0.179314      	8.365741e-04	6.088130e-04	1.997715e-02
0.179657      	8.375620e-04	6.083017e-04	1.598266e-02
0.18          	8.378550e-04	6.076403e-04	1.345723e-02
0.18037       	9.039895e-04	6.554764e-04	3.441574e-02
0.180756      	9.365223e-04	6.797623e-04	4.251284e-02
0.181141      	9.336824e-04	6.777129e-04	3.318199e-02
0.181526      	9.320616e-04	6.753662e-04	2.641329e-02
0.181911      	9.304912e-04	6.732579e-04	2.174395e-02
0.182296      	9.286980e-04	6.711432e-04	1.852381e-02
0.182681      	9.268918e-04	6.688821e-04	1.623225e-02
0.183067      	9.252944e-04	6.667990e-04	1.462788e-02
0.183452      	9.237182e-04	6.645917e-04	1.344495e-02
0.183837      	9.223713e-04	6.625476e-04	1.277484e-02
0.184222      	9.219037e-04	6.607430e-04	1.241998e-02
0.184607      	9.215427e-04	6.589761e-04	1.230397e-02
0.184993      	9.216384e-04	6.575450e-04	1.236754e-02
0.185378      	9.218866e-04	6.562158e-04	1.226383e-02
0.185763      	9.219345e-04	6.555869e-04	1.218360e-02
0.186148      	9.226142e-04	6.549077e-04	1.213678e-02
0.186533      	9.239664e-04	6.543512e-04	1.201864e-02
0.186919      	9.253383e-04	6.536519e-04	1.187974e-02
0.187304      	9.269994e-04	6.528023e-04	1.216101e-02
0.187689      	9.292023e-04	6.528204e-04	1.218511e-02
0.188074      	9.311467e-04	6.526374e-04	1.227735e-02
0.188459      	9.327384e-04	6.525438e-04	1.209143e-02
0.188844      	9.336456e-04	6.525870e-04	1.175594e-02
0.18923       	9.342349e-04	6.523298e-04	1.142154e-02
0.189615      	9.347379e-04	6.517937e-04	1.137941e-02
0.19          	9.351134e-04	6.513420e-04	1.139855e-02
0.190385      	9.343774e-04	6.499598e-04	1.102309e-02
0.190769      	9.349173e-04	6.492378e-04	1.098884e-02
0.191154      	9.359226e-04	6.481573e-04	1.118476e-02
0.191538      	9.368776e-04	6.470181e-04	1.128673e-02
0.191923      	9.377817e-04	6.461505e-04	1.123089e-02
0.192308      	9.386386e-04	6.456232e-04	1.114907e-02
0.192692      	9.392020e-04	6.448486e-04	1.122713e-02
0.193077      	9.395416e-04	6.441900e-04	1.120269e-02
0.193462      	9.398700e-04	6.435207e-04	1.113052e-02
0.193846      	9.398453e-04	6.430435e-04	1.101128e-02
0.194231      	9.393639e-04	6.426143e-04	1.082559e-02
0.194615      	9.386259e-04	6.419299e-04	1.061567e-02
0.195         	9.383841e-04	6.411769e-04	1.048054e-02
0.195385      	9.390301e-04	6.404425e-04	1.051127e-02
0.195769      	9.393020e-04	6.399007e-04	1.038261e-02
0.196154      	9.392409e-04	6.394447e-04	1.032474e-02
0.196538      	9.389009e-04	6.389240e-04	1.021199e-02
0.196923      	9.383674e-04	6.384596e-04	1.021319e-02
0.197308      	9.380402e-04	6.385597e-04	1.047489e-02
0.197692      	9.375667e-04	6.382052e-04	1.059588e-02
0.198077      	9.373941e-04	6.373650e-04	1.083950e-02
0.198462      	9.372774e-04	6.366473e-04	1.120697e-02
0.198846      	9.372370e-04	6.359483e-04	1.159836e-02
0.199231      	9.370016e-04	6.356285e-04	1.174415e-02
0.199615      	9.366691e-04	6.350094e-04	1.159336e-02
0.2           	9.357266e-04	6.340383e-04	1.157788e-02
0.2004        	9.716418e-04	6.582209e-04	2.476921e-02
0.2008        	9.693759e-04	6.569400e-04	2.093544e-02
0.2012        	9.667339e-04	6.556819e-04	1.812775e-02
0.2016        	9.638049e-04	6.543662e-04	1.625382e-02
0.202         	9.611844e-04	6.527392e-04	1.466934e-02
0.2024        	9.592569e-04	6.513731e-04	1.362293e-02
0.2028        	9.574651e-04	6.502610e-04	1.291853e-02
0.2032        	9.553662e-04	6.492477e-04	1.252129e-02
0.2036        	9.531406e-04	6.486264e-04	1.219646e-02
0.204         	9.513573e-04	6.481933e-04	1.191934e-02
0.2044        	9.493535e-04	6.479194e-04	1.179775e-02
0.2048        	9.474591e-04	6.474363e-04	1.158327e-02
0.2052        	9.459575e-04	6.465978e-04	1.127794e-02
0.2056        	9.442986e-04	6.457467e-04	1.107293e-02
0.206         	9.431276e-04	6.451069e-04	1.098902e-02
0.2064        	9.422899e-04	6.445095e-04	1.082757e-02
0.2068        	9.414297e-04	6.440269e-04	1.067434e-02
0.2072        	9.403297e-04	6.433715e-04	1.062662e-02
0.2076        	9.389484e-04	6.426467e-04	1.059770e-02
0.208         	9.374118e-04	6.418916e-04	1.054697e-02
0.2084        	9.352450e-04	6.410683e-04	1.043611e-02
0.2088        	9.328591e-04	6.400712e-04	1.032237e-02
0.2092        	9.303845e-04	6.391166e-04	1.022875e-02
0.2096        	9.278724e-04	6.381115e-04	1.017666e-02
0.21          	9.256052e-04	6.370498e-04	1.001905e-02
0.2104        	9.235734e-04	6.360068e-04	9.953841e-03
0.2108        	9.213449e-04	6.348754e-04	9.790085e-03
0.2112        	9.195288e-04	6.338304e-04	9.790105e-03
0.2116        	9.178182e-04	6.328641e-04	9.796139e-03
0.212         	9.155447e-04	6.322378e-04	9.711453e-03
0.2124        	9.131482e-04	6.317147e-04	9.542768e-03
0.2128        	9.112564e-04	6.311760e-04	9.466494e-03
0.2132        	9.101118e-04	6.306138e-04	9.522887e-03
0.2136        	9.094229e-04	6.299974e-04	9.498725e-03
0.214         	9.089983e-04	6.295085e-04	9.578198e-03
0.2144        	9.086979e-04	6.288627e-04	9.690849e-03
0.2148        	9.085152e-04	6.282089e-04	9.777715e-03
0.2152        	9.083898e-04	6.275270e-04	9.879006e-03
0.2156        	9.079166e-04	6.268851e-04	9.941614e-03
0.216         	9.075602e-04	6.263206e-04	9.942018e-03
0.2164        	9.072181e-04	6.258350e-04	9.960895e-03
0.2168        	9.070159e-04	6.254255e-04	9.980955e-03
0.2172        	9.074144e-04	6.252044e-04	9.893990e-03
0.2176        	9.081206e-04	6.250690e-04	9.909546e-03
0.218         	9.090972e-04	6.248760e-04	9.952441e-03
0.2184        	9.107277e-04	6.247012e-04	9.919321e-03
0.2188        	9.127542e-04	6.245667e-04	1.009071e-02
0.2192        	9.145149e-04	6.244938e-04	1.027647e-02
0.2196        	9.164977e-04	6.246371e-04	1.030442e-02
0.22          	9.185429e-04	6.248800e-04	1.014792e-02
0.220417      	9.585582e-04	6.509449e-04	2.389218e-02
0.220833      	9.601038e-04	6.509231e-04	1.963973e-02
0.22125       	9.611504e-04	6.508874e-04	1.669768e-02
0.221667      	9.636360e-04	6.505243e-04	1.490424e-02
0.222083      	9.662551e-04	6.501561e-04	1.373249e-02
0.2225        	9.682759e-04	6.497522e-04	1.298286e-02
0.222917      	9.699704e-04	6.494615e-04	1.232611e-02
0.223333      	9.716263e-04	6.492928e-04	1.187980e-02
0.22375       	9.727800e-04	6.493065e-04	1.160139e-02
0.224167      	9.732031e-04	6.492936e-04	1.132712e-02
0.224583      	9.742728e-04	6.489252e-04	1.121948e-02
0.225         	9.751092e-04	6.483197e-04	1.105515e-02
0.225417      	9.757382e-04	6.476790e-04	1.119816e-02
0.225833      	9.760898e-04	6.469461e-04	1.123123e-02
0.22625       	9.763787e-04	6.460672e-04	1.091987e-02
0.226667      	9.772776e-04	6.448836e-04	1.111214e-02
0.227083      	9.784034e-04	6.436379e-04	1.075935e-02
0.2275        	9.795559e-04	6.423714e-04	1.059918e-02
0.227917      	9.803986e-04	6.410703e-04	1.040904e-02
0.228333      	9.812667e-04	6.399673e-04	1.012351e-02
0.22875       	9.819847e-04	6.387239e-04	9.929839e-03
0.229167      	9.827068e-04	6.373117e-04	9.744870e-03
0.229583      	9.834993e-04	6.359528e-04	9.617985e-03
0.23          	9.843457e-04	6.347695e-04	9.420708e-03
0.230435      	1.027797e-03	6.606718e-04	2.372852e-02
0.23087       	1.028722e-03	6.588424e-04	1.930755e-02
0.231304      	1.030253e-03	6.571048e-04	1.640545e-02
0.231739      	1.031720e-03	6.552341e-04	1.458795e-02
0.232174      	1.033085e-03	6.534800e-04	1.346047e-02
0.232609      	1.034481e-03	6.519946e-04	1.260700e-02
0.233043      	1.035894e-03	6.508460e-04	1.200322e-02
0.233478      	1.037288e-03	6.497037e-04	1.157031e-02
0.233913      	1.038353e-03	6.485231e-04	1.120629e-02
0.234348      	1.039047e-03	6.474411e-04	1.109360e-02
0.234783      	1.039871e-03	6.462354e-04	1.090262e-02
0.235217      	1.040346e-03	6.448512e-04	1.076997e-02
0.235652      	1.040432e-03	6.435213e-04	1.066094e-02
0.236087      	1.040206e-03	6.422604e-04	1.069982e-02
0.236522      	1.039847e-03	6.410591e-04	1.060771e-02
0.236957      	1.039629e-03	6.397858e-04	1.067548e-02
0.237391      	1.039590e-03	6.385588e-04	1.071527e-02
0.237826      	1.039087e-03	6.373673e-04	1.047768e-02
0.238261      	1.038337e-03	6.361407e-04	1.046468e-02
0.238696      	1.037112e-03	6.351209e-04	1.029280e-02
0.23913       	1.035921e-03	6.337562e-04	1.026997e-02
0.239565      	1.034626e-03	6.322169e-04	1.027580e-02
0.24          	1.033608e-03	6.303086e-04	1.041057e-02
0.240435      	1.032548e-03	6.281026e-04	1.053332e-02
0.24087       	1.031553e-03	6.259203e-04	1.054165e-02
0.241304      	1.030529e-03	6.239769e-04	1.052446e-02
0.241739      	1.030098e-03	6.222701e-04	1.062664e-02
0.242174      	1.030136e-03	6.202379e-04	1.073595e-02
0.242609      	1.030525e-03	6.183198e-04	1.077008e-02
0.243043      	1.031517e-03	6.166868e-04	1.096712e-02
0.243478      	1.032841e-03	6.152373e-04	1.110195e-02
0.243913      	1.034200e-03	6.139620e-04	1.136326e-02
0.244348      	1.036067e-03	6.130945e-04	1.149796e-02
0.244783      	1.038854e-03	6.127082e-04	1.131804e-02
0.245217      	1.040876e-03	6.118025e-04	1.107001e-02
0.245652      	1.041585e-03	6.102335e-04	1.120595e-02
0.246087      	1.042467e-03	6.087465e-04	1.117710e-02
0.246522      	1.043702e-03	6.073065e-04	1.086327e-02
0.246957      	1.045114e-03	6.060393e-04	1.050207e-02
0.247391      	1.046301e-03	6.046726e-04	1.023833e-02
0.247826      	1.048064e-03	6.034284e-04	1.034132e-02
0.248261      	1.050293e-03	6.022900e-04	1.052067e-02
0.248696      	1.052964e-03	6.012776e-04	1.056797e-02
0.24913       	1.055965e-03	6.003663e-04	1.076531e-02
0.249565      	1.058757e-03	5.996090e-04	1.065973e-02
0.25          	1.061096e-03	5.989132e-04	1.045847e-02
0.250435      	1.062924e-03	5.982538e-04	1.053227e-02
0.25087       	1.064160e-03	5.975162e-04	1.051071e-02
0.251304      	1.065016e-03	5.967614e-04	1.052180e-02
0.251739      	1.065624e-03	5.956975e-04	1.055199e-02
0.252174      	1.066086e-03	5.944812e-04	1.072614e-02
0.252609      	1.066206e-03	5.940178e-04	1.075452e-02
0.253043      	1.065792e-03	5.937386e-04	1.083931e-02
0.253478      	1.065658e-03	5.932724e-04	1.066094e-02
0.253913      	1.065773e-03	5.927867e-04	1.071975e-02
0.254348      	1.066262e-03	5.923186e-04	1.070423e-02
0.254783      	1.066945e-03	5.919344e-04	1.065779e-02
0.255217      	1.067749e-03	5.918014e-04	1.077117e-02
0.255652      	1.068608e-03	5.917495e-04	1.095106e-02
0.256087      	1.069675e-03	5.917480e-04	1.099201e-02
0.256522      	1.070282e-03	5.914263e-04	1.117586e-02
0.256957      	1.071004e-03	5.909855e-04	1.072256e-02
0.257391      	1.072089e-03	5.909737e-04	1.063359e-02
0.257826      	1.073199e-03	5.912788e-04	1.046753e-02
0.258261      	1.074125e-03	5.918048e-04	1.033724e-02
0.258696      	1.075064e-03	5.923355e-04	1.032830e-02
0.25913       	1.075948e-03	5.926975e-04	1.037875e-02
0.259565      	1.076906e-03	5.930189e-04	1.065742e-02
0.26          	1.077902e-03	5.936040e-04	1.068011e-02
0.260435      	1.079211e-03	5.940688e-04	1.109756e-02
0.26087       	1.080875e-03	5.947374e-04	1.139894e-02
0.261304      	1.083197e-03	5.960965e-04	1.117074e-02
0.261739      	1.085286e-03	5.971253e-04	1.092580e-02
0.262174      	1.087038e-03	5.977093e-04	1.119039e-02
0.262609      	1.088864e-03	5.979154e-04	1.075019e-02
0.263043      	1.089924e-03	5.976142e-04	1.068633e-02
0.263478      	1.089774e-03	5.967276e-04	1.092475e-02
0.263913      	1.087331e-03	5.956373e-04	1.103958e-02
0.264348      	1.084833e-03	5.943833e-04	1.077854e-02
0.264783      	1.082630e-03	5.930263e-04	1.092476e-02
0.265217      	1.080600e-03	5.916560e-04	1.101291e-02
0.265652      	1.078606e-03	5.902510e-04	1.126879e-02
0.266087      	1.076719e-03	5.891357e-04	1.139025e-02
0.266522      	1.074807e-03	5.879388e-04	1.117106e-02
0.266957      	1.073470e-03	5.865101e-04	1.105067e-02
0.267391      	1.072165e-03	5.850375e-04	1.092516e-02
0.267826      	1.071147e-03	5.838088e-04	1.086501e-02
0.268261      	1.070486e-03	5.827067e-04	1.086536e-02