/*--------------------------------*- C++ -*----------------------------------*\
  =========                 |
  \\      /  F ield         | OpenFOAM: The Open Source CFD Toolbox
   \\    /   O peration     | Website:  https://openfoam.org
    \\  /    A nd           | Version:  9
     \\/     M anipulation  |
\*---------------------------------------------------------------------------*/
FoamFile
{
    format      ascii;
    class       volVectorField;
    location    "0.1";
    object      U;
}
// * * * * * * * * * * * * * * * * * * * * * * * * * * * * * * * * * * * * * //

dimensions      [0 1 -1 0 0 0 0];

internalField   nonuniform List<vector> 
46400
(
(8.79188 -8.49515 -8.10338e-19)
(17.2874 -16.7303 8.30338e-19)
(18.3661 -18.5872 -7.72141e-20)
(17.6119 -18.6919 8.18926e-20)
(16.9593 -18.6637 -5.95421e-20)
(16.2822 -18.7178 -9.75229e-19)
(15.718 -18.7929 5.09923e-19)
(15.2128 -18.8876 -8.96838e-20)
(14.7245 -18.973 7.85335e-20)
(14.2524 -19.0092 -6.8458e-20)
(13.8149 -19.101 5.93739e-20)
(13.4168 -19.1488 0)
(13.0077 -19.1784 -3.95279e-19)
(12.6349 -19.2056 4.31994e-19)
(12.2788 -19.2476 3.53812e-19)
(11.9375 -19.2572 -2.3855e-20)
(11.5959 -19.2654 -5.184e-20)
(11.3372 -19.2015 -1.98564e-19)
(10.9603 -19.1843 -1.28572e-19)
(10.5524 -19.2929 1.2586e-19)
(8.99672 -8.00048 0)
(17.3219 -15.5979 -3.94214e-20)
(18.2126 -17.1377 0)
(17.4376 -17.278 -6.26876e-19)
(16.8117 -17.3116 4.69225e-19)
(16.1254 -17.38 -1.15843e-19)
(15.5699 -17.4978 0)
(15.0698 -17.6465 8.96771e-20)
(14.5954 -17.7946 -7.85244e-20)
(14.1055 -17.8661 6.84478e-20)
(13.6428 -17.9675 -3.78156e-19)
(13.2515 -18.0954 5.3202e-20)
(12.849 -18.191 2.12781e-19)
(12.4467 -18.2368 0)
(12.0812 -18.3229 -3.02421e-20)
(11.7352 -18.3808 -2.43597e-20)
(11.3761 -18.4009 0)
(11.0977 -18.4113 -1.2989e-20)
(10.8695 -18.5636 -1.89637e-20)
(10.5304 -18.7861 9.85558e-21)
(9.14382 -7.47824 -3.35067e-19)
(17.2467 -14.4482 3.16149e-19)
(17.9407 -15.7247 -4.27615e-19)
(17.1814 -15.9191 -3.07724e-19)
(16.5507 -15.9898 3.02129e-19)
(15.8965 -16.0812 0)
(15.3317 -16.2119 3.59707e-19)
(14.8636 -16.3797 -3.26373e-19)
(14.4165 -16.5848 2.04797e-19)
(13.98 -16.708 -1.94759e-19)
(13.5439 -16.8418 -8.46301e-20)
(13.1793 -16.9779 3.7657e-20)
(12.8172 -17.1319 4.97008e-20)
(12.4568 -17.2135 0)
(12.1158 -17.318 7.34151e-20)
(11.8198 -17.4388 -7.2306e-20)
(11.4962 -17.5198 0)
(11.1764 -17.4616 -2.06436e-20)
(10.8253 -17.5396 1.03108e-20)
(10.4729 -17.8126 -1.92991e-19)
(9.25725 -6.96246 1.82159e-19)
(17.0337 -13.2093 -8.14156e-20)
(17.5644 -14.3498 -1.92249e-19)
(16.8054 -14.5772 1.90563e-19)
(16.2093 -14.7379 8.59285e-20)
(15.558 -14.8648 -9.36976e-20)
(14.9957 -15.0231 -4.90356e-20)
(14.5073 -15.1986 3.6694e-21)
(14.0643 -15.4349 2.73233e-20)
(13.6242 -15.6145 4.28497e-21)
(13.1788 -15.7784 0)
(12.795 -15.949 6.99955e-21)
(12.4346 -16.1492 -1.16974e-20)
(12.0712 -16.2931 0)
(11.714 -16.4209 2.67058e-19)
(11.398 -16.56 -2.17285e-19)
(11.1247 -16.753 0)
(10.885 -16.8726 2.83987e-20)
(10.5865 -17.0005 4.86688e-20)
(10.212 -17.2573 3.50061e-19)
(9.38455 -6.43981 0)
(16.6869 -11.9173 0)
(17.0881 -12.9668 2.33167e-20)
(16.3573 -13.2423 -4.38268e-20)
(15.762 -13.466 -4.84808e-20)
(15.1741 -13.6615 5.69192e-20)
(14.6218 -13.8603 0)
(14.1573 -14.037 1.39275e-19)
(13.7194 -14.2815 -1.5829e-19)
(13.3322 -14.5007 -5.66487e-20)
(12.9271 -14.7154 -5.97316e-20)
(12.5577 -14.8802 0)
(12.2145 -15.101 4.23887e-19)
(11.8985 -15.2984 -4.17272e-19)
(11.5736 -15.4805 0)
(11.2385 -15.5942 -5.11172e-19)
(10.9014 -15.7074 4.58502e-19)
(10.6356 -15.8175 4.81538e-19)
(10.3465 -16.0105 -5.14958e-19)
(9.99194 -16.313 0)
(9.54347 -5.91216 0)
(16.2201 -10.6668 0)
(16.4888 -11.6117 0)
(15.7509 -11.9125 -4.00057e-20)
(15.1808 -12.2345 0)
(14.6181 -12.4987 0)
(14.0965 -12.7848 0)
(13.6223 -12.9997 -8.07956e-20)
(13.164 -13.2486 0)
(12.7547 -13.4869 5.66424e-20)
(12.3703 -13.7581 -2.77923e-20)
(12.0026 -13.9695 -7.05925e-19)
(11.6353 -14.1824 5.17792e-19)
(11.3086 -14.4039 -7.23354e-19)
(11.0314 -14.6781 5.33202e-19)
(10.7757 -14.9406 0)
(10.4859 -15.1384 -6.4017e-19)
(10.221 -15.2697 5.40776e-19)
(9.93741 -15.4694 0)
(9.59461 -15.7717 -9.40144e-20)
(9.75881 -5.41617 2.06364e-19)
(15.6456 -9.45557 8.44371e-20)
(15.7747 -10.2696 3.07469e-19)
(15.0991 -10.6049 -3.41932e-19)
(14.5243 -10.9632 -3.55591e-19)
(14.0232 -11.2872 7.20831e-19)
(13.5472 -11.647 -8.58678e-19)
(13.1304 -11.9326 6.48026e-20)
(12.692 -12.2099 2.73805e-19)
(12.2919 -12.4432 0)
(11.9295 -12.737 -2.63616e-20)
(11.6067 -13.0002 -2.50987e-20)
(11.2572 -13.2353 8.95983e-20)
(10.8963 -13.4032 7.98511e-19)
(10.5498 -13.5814 -7.18329e-19)
(10.2681 -13.8087 -9.25176e-19)
(10.0056 -14.0593 8.01894e-19)
(9.76243 -14.2488 -1.92443e-20)
(9.49976 -14.4905 -1.06126e-19)
(9.17507 -14.8455 -7.57739e-19)
(9.95652 -4.97184 -1.08856e-19)
(14.9763 -8.33466 4.11838e-20)
(14.9101 -9.06347 -1.31984e-19)
(14.2918 -9.41027 -5.20375e-19)
(13.7296 -9.82342 3.37149e-19)
(13.233 -10.1599 0)
(12.7823 -10.5805 7.59432e-19)
(12.3987 -10.9445 -3.59703e-19)
(11.9988 -11.3029 2.53402e-19)
(11.594 -11.5661 1.39959e-19)
(11.2161 -11.8579 -2.5674e-19)
(10.9133 -12.1666 6.15236e-19)
(10.6405 -12.5023 1.36388e-19)
(10.382 -12.8055 -7.45457e-19)
(10.0934 -13.0506 2.09266e-18)
(9.79911 -13.255 -8.55614e-19)
(9.53091 -13.4774 1.0863e-18)
(9.30234 -13.6731 -7.06256e-19)
(9.0533 -13.899 2.30694e-19)
(8.74773 -14.2349 1.14008e-18)
(10.0754 -4.59503 5.89888e-19)
(14.1596 -7.24066 -1.26452e-19)
(13.9746 -7.94516 -3.58056e-20)
(13.4521 -8.31822 3.0484e-19)
(12.922 -8.74101 1.38095e-19)
(12.4528 -9.06889 1.69455e-19)
(12.0096 -9.46807 -7.66268e-19)
(11.6581 -9.84858 4.74199e-19)
(11.3218 -10.2676 -1.40582e-19)
(10.9838 -10.6008 -1.39958e-19)
(10.6105 -10.894 -1.39026e-19)
(10.2619 -11.1504 -1.6001e-19)
(9.92543 -11.4152 -2.94018e-19)
(9.64429 -11.6967 1.03148e-18)
(9.3977 -12.0077 -1.43386e-18)
(9.1409 -12.2774 -1.49819e-19)
(8.87774 -12.5271 1.78999e-20)
(8.6546 -12.7557 -1.07488e-18)
(8.42924 -13.0128 8.06786e-19)
(8.14024 -13.3799 -1.30223e-18)
(9.98521 -4.19445 6.20425e-19)
(13.2415 -6.27114 -1.65336e-18)
(12.9618 -6.97079 1.09943e-18)
(12.5201 -7.3983 -1.692e-19)
(12.0493 -7.8802 -1.98938e-19)
(11.6185 -8.22512 7.6627e-19)
(11.1817 -8.6116 -9.20706e-19)
(10.8173 -8.95662 0)
(10.4955 -9.37263 7.14161e-19)
(10.225 -9.7719 -7.02267e-19)
(9.95062 -10.1593 -5.09086e-19)
(9.69649 -10.5074 6.60031e-19)
(9.43623 -10.8404 1.57425e-19)
(9.15578 -11.1166 -6.56895e-19)
(8.89745 -11.397 1.54922e-19)
(8.67458 -11.6797 7.84491e-19)
(8.44325 -11.9384 -1.38683e-18)
(8.21897 -12.1566 9.16504e-19)
(8.0138 -12.4021 -1.49467e-20)
(7.75871 -12.7466 -1.3018e-18)
(9.67842 -3.71607 9.39803e-19)
(12.1777 -5.35546 -6.51237e-19)
(11.8338 -6.04237 4.39691e-19)
(11.4538 -6.50861 9.08293e-21)
(11.0511 -7.0549 -8.74509e-19)
(10.6879 -7.46336 -8.18752e-19)
(10.2948 -7.8761 1.02425e-18)
(9.9365 -8.20346 -6.03766e-19)
(9.58579 -8.54602 8.051e-19)
(9.29291 -8.88194 0)
(8.99594 -9.22318 1.95157e-20)
(8.72015 -9.55238 1.80237e-19)
(8.46287 -9.8923 1.94733e-19)
(8.24235 -10.2247 -1.90824e-19)
(8.01535 -10.5362 0)
(7.80524 -10.8497 1.82534e-19)
(7.59912 -11.1482 0)
(7.41458 -11.423 3.34701e-19)
(7.21405 -11.6908 1.63014e-18)
(6.99562 -12.0545 -1.36003e-20)
(9.19411 -3.21262 5.43967e-19)
(11.1148 -4.50496 -1.15286e-19)
(10.7646 -5.16656 -1.71712e-18)
(10.4342 -5.63959 9.60105e-19)
(10.0819 -6.21129 2.25345e-19)
(9.79735 -6.69061 -2.22216e-19)
(9.49516 -7.19586 -9.19353e-19)
(9.2244 -7.63206 6.88449e-19)
(8.93151 -8.05038 0)
(8.66964 -8.43518 0)
(8.42245 -8.82345 -1.05009e-18)
(8.16746 -9.15555 8.33155e-19)
(7.9246 -9.47708 -1.95035e-19)
(7.69237 -9.78797 -6.00777e-19)
(7.46779 -10.0814 5.88211e-21)
(7.25784 -10.3663 1.33504e-18)
(7.06629 -10.6482 -7.44487e-19)
(6.88587 -10.9079 5.46752e-19)
(6.71683 -11.1788 -8.81206e-19)
(6.51341 -11.5054 0)
(8.52644 -2.70845 -4.92048e-19)
(9.96268 -3.75982 8.0557e-19)
(9.57267 -4.3816 1.39754e-19)
(9.25803 -4.8344 1.37462e-19)
(8.90033 -5.36785 0)
(8.6005 -5.82527 1.02321e-18)
(8.27826 -6.30711 -1.00522e-18)
(7.99945 -6.76064 1.26992e-19)
(7.7145 -7.20873 0)
(7.44604 -7.60607 9.38027e-19)
(7.22845 -8.01771 -8.0417e-19)
(7.04331 -8.42923 8.94161e-19)
(6.83282 -8.79894 -8.8001e-19)
(6.65569 -9.1603 8.5101e-19)
(6.48961 -9.50503 -7.30639e-19)
(6.31422 -9.82659 -8.09141e-19)
(6.14766 -10.1292 1.58618e-18)
(5.9972 -10.4138 -6.77987e-19)
(5.85194 -10.7007 9.68666e-20)
(5.69427 -11.0338 8.23473e-19)
(7.72383 -2.19894 -4.01605e-19)
(8.96665 -3.10882 4.41296e-19)
(8.63214 -3.77625 -1.39765e-19)
(8.37289 -4.25431 -1.3748e-19)
(8.05885 -4.8024 0)
(7.80837 -5.2872 0)
(7.52913 -5.77765 0)
(7.28639 -6.2146 -2.61873e-19)
(7.09443 -6.6672 -1.02097e-18)
(6.89995 -7.08528 2.00055e-18)
(6.65185 -7.45788 -1.09875e-18)
(6.43903 -7.8272 -1.2206e-19)
(6.26676 -8.19747 0)
(6.07489 -8.5423 0)
(5.89844 -8.88137 -2.20207e-19)
(5.74402 -9.21511 0)
(5.59019 -9.53238 8.34156e-19)
(5.43683 -9.82813 -1.02559e-18)
(5.29813 -10.1233 -8.87284e-19)
(5.15242 -10.4635 8.79375e-19)
(6.74587 -1.71216 4.27893e-19)
(7.547 -2.57169 7.89214e-19)
(7.14228 -3.31815 -2.34136e-22)
(6.91471 -3.8904 -1.65155e-21)
(6.58536 -4.44606 1.49995e-19)
(6.33392 -4.92785 -4.34369e-19)
(6.11676 -5.42984 0)
(5.91329 -5.89643 -4.17415e-19)
(5.68724 -6.33999 1.42772e-19)
(5.51761 -6.7805 5.29398e-19)
(5.38193 -7.20987 5.10986e-19)
(5.22704 -7.59896 -3.80703e-19)
(5.07199 -7.97488 9.68944e-19)
(4.94094 -8.33374 -8.32741e-19)
(4.81496 -8.67538 1.03104e-18)
(4.68473 -9.00107 -1.91253e-18)
(4.57058 -9.31535 8.80297e-19)
(4.46722 -9.61323 1.04344e-19)
(4.35794 -9.9036 8.23167e-19)
(4.24579 -10.2118 -9.1906e-19)
(5.6599 -1.27102 1.5133e-19)
(6.23263 -1.99505 -1.61569e-19)
(6.0045 -2.64922 6.51217e-19)
(5.95127 -3.26973 -6.39185e-19)
(5.8291 -3.87779 -3.11226e-19)
(5.63055 -4.41962 -7.56227e-19)
(5.38486 -4.9127 4.37412e-21)
(5.18948 -5.3951 5.82181e-19)
(5.03668 -5.85721 -1.38243e-19)
(4.86532 -6.28055 0)
(4.69885 -6.697 0)
(4.55061 -7.09787 0)
(4.42436 -7.48575 0)
(4.29118 -7.85059 4.21762e-21)
(4.16485 -8.20639 0)
(4.05348 -8.54642 1.14681e-19)
(3.94323 -8.87298 4.52511e-19)
(3.83373 -9.17968 -1.32616e-18)
(3.74102 -9.48683 9.76584e-19)
(3.64148 -9.80477 -9.41798e-19)
(4.59934 -0.988802 0)
(4.9853 -1.7472 -8.75592e-20)
(4.64755 -2.34053 0)
(4.40845 -2.93474 2.46129e-19)
(4.20315 -3.52178 -1.6529e-19)
(4.06503 -4.10091 -6.28086e-19)
(3.95338 -4.64787 5.19069e-21)
(3.80766 -5.1398 6.01447e-19)
(3.6939 -5.62852 -5.79965e-19)
(3.58538 -6.08158 1.13464e-18)
(3.48497 -6.52038 -6.13468e-21)
(3.38107 -6.92179 -5.40117e-19)
(3.29062 -7.31973 5.19238e-19)
(3.20338 -7.68918 -6.36437e-19)
(3.12265 -8.05027 0)
(3.04186 -8.38663 -4.77445e-19)
(2.97311 -8.7186 4.70323e-19)
(2.90427 -9.02494 0)
(2.83576 -9.32738 -1.0911e-19)
(2.76926 -9.62839 0)
(2.92996 -0.587262 9.01478e-20)
(3.5916 -1.41796 8.75113e-20)
(3.44856 -2.12177 0)
(3.37996 -2.7206 3.37858e-19)
(3.27947 -3.32187 -4.17505e-19)
(3.14323 -3.83588 2.41247e-19)
(3.03412 -4.37949 -7.11437e-19)
(2.91926 -4.8582 3.0911e-19)
(2.82364 -5.34723 -7.54083e-20)
(2.72525 -5.78758 0)
(2.64508 -6.23498 -7.13365e-20)
(2.55776 -6.63984 -6.93611e-20)
(2.48448 -7.04639 -6.74401e-20)
(2.41043 -7.41976 0)
(2.34399 -7.79125 -5.03383e-19)
(2.27982 -8.13616 1.04714e-18)
(2.22095 -8.47607 -8.97747e-19)
(2.16516 -8.79351 4.68893e-19)
(2.11199 -9.10573 5.70056e-20)
(2.05126 -9.42945 4.94859e-19)
(1.96551 -0.409694 -1.36809e-19)
(2.11863 -1.10914 -1.81001e-19)
(2.03027 -1.80311 7.6351e-22)
(1.9159 -2.39934 4.75843e-19)
(1.87327 -3.04939 -1.28207e-19)
(1.78033 -3.59791 -8.22756e-20)
(1.74047 -4.17578 8.10862e-20)
(1.65622 -4.66757 1.56887e-19)
(1.61848 -5.18262 7.54032e-20)
(1.55523 -5.63215 -2.93772e-19)
(1.52094 -6.09459 3.24225e-19)
(1.46735 -6.50651 6.93598e-20)
(1.43477 -6.92268 3.37311e-19)
(1.39229 -7.30262 -3.32895e-21)
(1.36241 -7.68088 2.893e-20)
(1.32557 -8.03178 -5.6104e-19)
(1.29838 -8.37771 1.53502e-19)
(1.26799 -8.70066 0)
(1.24028 -9.01569 -2.82035e-20)
(1.20607 -9.33835 -2.51035e-19)
(0.262864 -0.434666 0)
(0.855092 -0.834207 -9.12728e-20)
(0.709413 -1.81564 1.58776e-19)
(0.752197 -2.24397 -4.40859e-20)
(0.681345 -3.04365 -4.31829e-20)
(0.661064 -3.47478 0)
(0.634723 -4.14728 -8.05734e-20)
(0.609605 -4.56902 1.57571e-19)
(0.583335 -5.14262 -7.7054e-20)
(0.558106 -5.54424 7.41001e-20)
(0.544298 -6.04362 -3.68135e-20)
(0.523256 -6.4267 -7.00075e-20)
(0.508482 -6.8669 1.36938e-19)
(0.489455 -7.22861 -1.3311e-19)
(0.477716 -7.62208 3.28984e-20)
(0.462089 -7.96336 2.23426e-34)
(0.450078 -8.31869 -3.0299e-20)
(0.43748 -8.63641 1.78007e-19)
(0.426553 -8.95689 -8.78214e-20)
(0.412504 -9.27833 -6.4188e-20)
(0.0609749 -7.52787 2.01789e-19)
(1.03072 -22.1546 6.90641e-20)
(1.83563 -33.9996 0)
(1.88236 -37.248 9.19975e-20)
(1.85325 -37.0436 8.57883e-20)
(1.77578 -36.3762 8.15834e-20)
(1.72333 -35.6571 0)
(1.65181 -34.8884 7.26853e-20)
(1.59205 -34.139 0)
(1.54613 -33.5595 0)
(1.53577 -33.213 -5.95062e-20)
(1.537 -32.9822 4.34282e-21)
(1.52761 -32.7298 1.12894e-19)
(1.49953 -32.4385 0)
(1.47092 -32.2565 4.98251e-20)
(1.46507 -32.1583 4.73403e-20)
(1.42305 -31.9905 4.50006e-20)
(1.43278 -31.7366 0)
(1.34288 -31.4527 -8.04532e-20)
(1.36448 -31.091 7.87719e-20)
(0.450326 -8.04628 0)
(2.08179 -22.9724 -4.55231e-19)
(3.11089 -34.4407 0)
(3.21018 -37.2084 -4.52321e-19)
(3.13854 -36.882 4.33325e-19)
(3.00369 -36.2181 -7.39194e-19)
(2.89647 -35.4782 3.15313e-19)
(2.78107 -34.7177 2.11783e-19)
(2.68726 -33.9981 -9.53668e-19)
(2.6129 -33.4624 5.28842e-19)
(2.58674 -33.1448 -6.14981e-20)
(2.55675 -32.93 4.56495e-19)
(2.52582 -32.6382 -1.63591e-20)
(2.46643 -32.3402 -4.26116e-19)
(2.43722 -32.1644 -4.98258e-20)
(2.40336 -32.061 -4.73397e-20)
(2.3529 -31.8859 -4.49988e-20)
(2.33931 -31.615 0)
(2.23071 -31.3268 -3.19058e-19)
(2.23861 -30.976 1.04643e-20)
(0.639656 -8.78975 -1.98714e-19)
(3.03957 -23.7522 0)
(4.43386 -34.7343 0)
(4.47227 -37.0318 -1.82649e-19)
(4.3825 -36.6202 1.72726e-19)
(4.21419 -35.9403 0)
(4.05745 -35.2212 -1.52161e-19)
(3.89911 -34.4804 4.2145e-19)
(3.76872 -33.7996 -4.18844e-19)
(3.67266 -33.3032 5.0437e-19)
(3.61971 -33.0136 -6.17166e-19)
(3.56735 -32.7816 0)
(3.49762 -32.4872 -4.28474e-19)
(3.4252 -32.1842 -3.9127e-19)
(3.37072 -31.999 7.03268e-19)
(3.33466 -31.8987 -7.33187e-19)
(3.25938 -31.734 6.34067e-19)
(3.2296 -31.4546 0)
(3.08962 -31.1445 -7.09485e-19)
(3.08338 -30.7506 1.22263e-18)
(1.09576 -9.21821 9.89218e-19)
(3.93881 -24.3856 0)
(5.73193 -34.897 3.8625e-19)
(5.75435 -36.7679 5.33475e-19)
(5.60545 -36.2698 -1.0381e-18)
(5.39666 -35.6038 3.19747e-19)
(5.19467 -34.876 1.52166e-19)
(4.99314 -34.1632 1.54142e-18)
(4.83265 -33.5298 -2.15063e-18)
(4.7098 -33.0815 -2.10995e-19)
(4.63775 -32.7957 1.10057e-18)
(4.54865 -32.5654 2.25023e-19)
(4.45267 -32.2569 -1.05756e-18)
(4.34895 -31.9617 1.03344e-18)
(4.29442 -31.8039 2.89126e-19)
(4.22701 -31.6882 -1.81804e-19)
(4.14855 -31.4981 2.6047e-19)
(4.08582 -31.2136 0)
(3.92481 -30.9002 -7.64204e-20)
(3.90728 -30.5163 0)
(1.56636 -9.61519 0)
(4.86256 -24.9773 1.55473e-18)
(7.03389 -34.8624 -1.95551e-18)
(7.01287 -36.3772 1.77071e-18)
(6.8147 -35.833 -1.37523e-18)
(6.56987 -35.1655 -3.1974e-19)
(6.31752 -34.459 0)
(6.07683 -33.7767 8.14677e-19)
(5.88237 -33.1972 -1.07902e-18)
(5.7357 -32.7874 1.22957e-18)
(5.63185 -32.5103 -9.62171e-19)
(5.51109 -32.2489 -2.25014e-19)
(5.37402 -31.9509 1.0413e-18)
(5.25886 -31.6931 -1.80265e-18)
(5.17253 -31.5208 1.13921e-18)
(5.09551 -31.4087 -3.74025e-19)
(4.99251 -31.2388 -8.43221e-19)
(4.91185 -30.9476 1.93467e-18)
(4.71694 -30.609 -1.09963e-18)
(4.69091 -30.2025 -1.31094e-18)
(1.98325 -9.95576 1.53287e-18)
(6.03859 -25.2157 1.52669e-18)
(8.30413 -34.6534 -1.54136e-18)
(8.29246 -35.8678 -3.49373e-19)
(8.01393 -35.2931 3.33905e-19)
(7.71691 -34.6375 1.21408e-18)
(7.41611 -33.9398 -1.19273e-18)
(7.13117 -33.3001 0)
(6.91183 -32.7772 1.01195e-18)
(6.73614 -32.4147 -9.95515e-19)
(6.60284 -32.1263 -9.0272e-19)
(6.43842 -31.8521 8.88112e-19)
(6.27826 -31.5661 0)
(6.13238 -31.3245 0)
(6.03564 -31.1986 1.63934e-18)
(5.92172 -31.0684 -1.60747e-18)
(5.80874 -30.8819 -1.30624e-18)
(5.69591 -30.6005 1.28645e-18)
(5.48705 -30.2632 -1.17927e-18)
(5.4533 -29.859 1.46816e-18)
(2.47206 -10.3018 -1.11786e-18)
(7.11663 -25.5302 4.14649e-19)
(9.55301 -34.3065 6.85259e-20)
(9.47347 -35.2463 1.7692e-18)
(9.14989 -34.6569 0)
(8.81363 -34.0245 0)
(8.46982 -33.3557 2.21881e-18)
(8.15253 -32.7505 -9.36965e-20)
(7.90477 -32.2835 -2.05328e-18)
(7.70719 -31.9581 1.85646e-18)
(7.53531 -31.6725 -1.82612e-18)
(7.33955 -31.3713 0)
(7.14656 -31.0977 1.5679e-18)
(6.9911 -30.9033 -1.54373e-18)
(6.85969 -30.7565 0)
(6.73417 -30.6541 0)
(6.60792 -30.5066 0)
(6.48161 -30.2388 0)
(6.24538 -29.9 0)
(6.21205 -29.4835 -1.42942e-19)
(2.97275 -10.5389 1.07587e-18)
(8.22799 -25.5904 -1.86424e-18)
(10.7292 -33.8072 0)
(10.6362 -34.521 0)
(10.2533 -33.9496 2.75065e-18)
(9.87369 -33.3353 1.74685e-19)
(9.48704 -32.6867 -2.51706e-18)
(9.13341 -32.126 0)
(8.86396 -31.7073 2.3795e-19)
(8.63528 -31.4231 -2.24191e-19)
(8.43201 -31.1374 0)
(8.19599 -30.8273 1.99573e-19)
(7.9861 -30.5685 -1.70067e-18)
(7.80663 -30.3832 3.09882e-18)
(7.66432 -30.2888 -5.35226e-20)
(7.5096 -30.1804 -1.33543e-18)
(7.37379 -30.0425 -1.51778e-19)
(7.21729 -29.8021 1.43855e-19)
(6.97129 -29.4742 0)
(6.91702 -29.06 1.32638e-19)
(3.4784 -10.732 6.95232e-19)
(9.31287 -25.5461 6.15747e-19)
(11.8741 -33.1698 -2.14746e-18)
(11.7297 -33.705 6.32887e-19)
(11.2861 -33.1405 2.8231e-19)
(10.8689 -32.559 2.46423e-18)
(10.4425 -31.9481 -3.44086e-18)
(10.0562 -31.4234 2.51301e-18)
(9.76066 -31.0499 -2.06379e-18)
(9.50805 -30.7992 2.44881e-18)
(9.26635 -30.533 4.04121e-19)
(9.00318 -30.2208 1.71366e-18)
(8.76858 -29.9758 -9.58936e-19)
(8.58097 -29.824 -1.89016e-18)
(8.40718 -29.7002 1.67239e-18)
(8.24378 -29.6347 0)
(8.10496 -29.5443 4.41089e-19)
(7.93543 -29.3385 1.30202e-19)
(7.66969 -29.0173 -2.60007e-19)
(7.60357 -28.5851 1.19832e-19)
(4.01869 -10.8724 -1.3282e-18)
(10.3855 -25.4317 1.39552e-18)
(12.9364 -32.4323 -3.0543e-20)
(12.737 -32.7795 -1.23617e-18)
(12.2582 -32.2592 -1.1512e-18)
(11.7971 -31.7124 -5.50791e-19)
(11.3403 -31.141 -2.50064e-20)
(10.9223 -30.662 -4.84294e-19)
(10.6051 -30.3231 0)
(10.321 -30.1 -4.28865e-19)
(10.0492 -29.8545 -4.04115e-19)
(9.75281 -29.5636 -1.98059e-20)
(9.50108 -29.3383 1.35848e-18)
(9.29017 -29.1946 -6.92674e-19)
(9.09976 -29.1119 -1.55549e-18)
(8.91293 -29.0417 1.21427e-18)
(8.76102 -28.9826 8.162e-19)
(8.56211 -28.816 -1.36282e-18)
(8.28393 -28.5275 2.60346e-19)
(8.18649 -28.0897 1.69084e-18)
(4.54342 -10.9329 -3.20902e-18)
(11.3858 -25.0909 3.30921e-18)
(13.9253 -31.5445 -3.6976e-18)
(13.7071 -31.7921 3.01896e-18)
(13.1458 -31.2895 2.6958e-18)
(12.6556 -30.7878 -2.09563e-18)
(12.1656 -30.2639 -2.82097e-18)
(11.7212 -29.8291 8.33986e-20)
(11.3783 -29.5217 1.72295e-18)
(11.0683 -29.3164 -1.16575e-18)
(10.7631 -29.0986 2.98236e-18)
(10.4445 -28.8364 -1.79682e-18)
(10.1698 -28.6383 -3.41388e-19)
(9.93941 -28.5113 9.05369e-19)
(9.71594 -28.405 -2.37096e-18)
(9.5194 -28.3707 1.14416e-18)
(9.3696 -28.3453 0)
(9.16253 -28.2195 -1.97241e-18)
(8.879 -27.9433 1.93751e-18)
(8.79187 -27.5327 -1.60279e-18)
(5.0806 -10.9529 6.13906e-19)
(12.3707 -24.7406 6.86252e-19)
(14.8398 -30.5759 3.04363e-18)
(14.5496 -30.6965 2.69548e-18)
(13.9745 -30.253 -1.62079e-18)
(13.428 -29.7936 2.33943e-18)
(12.9227 -29.326 -1.37921e-18)
(12.4537 -28.9455 1.64447e-18)
(12.0902 -28.6683 -3.16107e-18)
(11.7486 -28.4721 1.13503e-18)
(11.4143 -28.2716 0)
(11.0721 -28.0483 0)
(10.7767 -27.8763 0)
(10.5222 -27.7693 -2.29263e-18)
(10.2794 -27.7017 2.25764e-18)
(10.0652 -27.6788 0)
(9.90713 -27.7073 0)
(9.68589 -27.6406 -2.24784e-19)
(9.40789 -27.4255 0)
(9.29304 -26.9977 -1.92949e-18)
(5.59203 -10.9013 -1.16763e-18)
(13.2635 -24.16 -2.9495e-18)
(15.6405 -29.4838 -2.15613e-18)
(15.3356 -29.5631 -4.20391e-19)
(14.7028 -29.1369 2.89339e-18)
(14.1339 -28.7351 -5.57872e-19)
(13.5991 -28.3197 -8.44085e-20)
(13.1144 -27.9982 -1.9811e-18)
(12.7293 -27.7572 0)
(12.3616 -27.5681 -1.01591e-18)
(12.0005 -27.3839 1.63342e-18)
(11.6431 -27.1935 0)
(11.3296 -27.0539 2.24484e-18)
(11.0483 -26.9509 -2.20999e-18)
(10.773 -26.8733 2.00061e-18)
(10.5467 -26.8676 -3.63081e-18)
(10.3868 -26.9224 1.86219e-18)
(10.1601 -26.9181 2.24819e-19)
(9.89105 -26.7522 -1.94921e-19)
(9.77977 -26.3775 1.57507e-18)
(6.09635 -10.8092 -1.55766e-18)
(14.1321 -23.5753 8.58903e-20)
(16.3713 -28.3253 1.1905e-19)
(15.9705 -28.3311 3.83866e-18)
(15.3508 -27.9752 3.63326e-19)
(14.7291 -27.6139 -2.09562e-18)
(14.1875 -27.2619 -1.50359e-18)
(13.6832 -27.0023 4.48249e-19)
(13.281 -26.8074 1.70339e-18)
(12.8847 -26.6355 -1.86396e-18)
(12.4935 -26.4574 9.03488e-19)
(12.1192 -26.2971 -2.4414e-18)
(11.7881 -26.1801 1.89381e-18)
(11.4888 -26.1018 -1.93122e-18)
(11.2003 -26.0676 1.68106e-18)
(10.9605 -26.0869 1.49012e-18)
(10.7913 -26.184 -1.69475e-18)
(10.5544 -26.2431 1.35232e-18)
(10.3039 -26.1365 -1.32072e-18)
(10.1849 -25.7838 -1.60629e-18)
(6.56424 -10.6462 -1.9468e-18)
(14.883 -22.7824 -3.90003e-19)
(16.9779 -27.0713 1.94207e-18)
(16.5504 -27.0766 -1.70523e-18)
(15.889 -26.7468 1.67446e-18)
(15.2563 -26.4524 3.95255e-19)
(14.6886 -26.1439 0)
(14.1741 -25.9429 -3.09861e-19)
(13.7533 -25.7979 8.70899e-19)
(13.3357 -25.6531 -3.10231e-18)
(12.9245 -25.499 2.19411e-18)
(12.5398 -25.365 5.01149e-19)
(12.1951 -25.2791 2.48733e-19)
(11.8638 -25.1842 0)
(11.5394 -25.1312 2.4387e-20)
(11.2805 -25.1508 1.54115e-18)
(11.0972 -25.2673 -6.33298e-20)
(10.8565 -25.4057 2.92595e-19)
(10.6393 -25.3774 -1.35559e-18)
(10.5386 -25.12 3.24604e-19)
(7.0164 -10.4423 1.7746e-18)
(15.5803 -21.9598 -3.09295e-18)
(17.5016 -25.7827 1.76201e-18)
(16.9687 -25.7429 1.53898e-18)
(16.3287 -25.4886 -8.84785e-20)
(15.6534 -25.2401 -1.078e-18)
(15.0857 -24.9931 2.95915e-19)
(14.5531 -24.8396 3.09862e-19)
(14.1183 -24.7459 0)
(13.6825 -24.6467 0)
(13.2465 -24.5172 -1.85342e-18)
(12.846 -24.4062 3.11521e-18)
(12.4897 -24.3441 -1.70803e-18)
(12.1496 -24.284 0)
(11.8183 -24.2591 2.54348e-20)
(11.5431 -24.2816 -1.51424e-18)
(11.3439 -24.401 1.48036e-18)
(11.0932 -24.5985 -1.61061e-19)
(10.9233 -24.6327 -1.24317e-18)
(10.8224 -24.4532 8.93492e-19)
(7.43342 -10.15 -1.59723e-18)
(16.1249 -20.9993 1.98497e-18)
(17.8776 -24.3928 0)
(17.3269 -24.3974 0)
(16.659 -24.1797 3.03471e-19)
(15.9856 -24.006 -1.48265e-18)
(15.3979 -23.8021 2.81698e-20)
(14.8612 -23.6884 1.05875e-18)
(14.4084 -23.6316 -1.85561e-18)
(13.9627 -23.5719 3.55064e-18)
(13.5236 -23.4986 -1.69769e-18)
(13.12 -23.4296 3.84358e-19)
(12.7473 -23.4008 1.56855e-18)
(12.3761 -23.3268 8.72083e-20)
(12.0093 -23.2869 -9.79612e-19)
(11.7108 -23.3029 1.60646e-19)
(11.4802 -23.4179 -1.24015e-18)
(11.2198 -23.6906 1.01125e-18)
(11.0741 -23.7959 1.98085e-20)
(11.0123 -23.7405 1.0076e-18)
(7.83112 -9.82249 0)
(16.5791 -19.9989 9.46302e-19)
(18.1907 -23.0043 -1.07661e-18)
(17.5354 -22.9801 0)
(16.8888 -22.8392 -3.03468e-19)
(16.1911 -22.7277 1.00387e-18)
(15.6133 -22.5975 -1.24441e-18)
(15.0637 -22.5225 0)
(14.5974 -22.4963 1.57697e-18)
(14.1393 -22.479 -1.55068e-18)
(13.6813 -22.4406 1.57195e-19)
(13.2582 -22.3926 -1.76977e-19)
(12.8799 -22.4127 -1.64964e-19)
(12.5084 -22.4072 -1.54058e-19)
(12.1328 -22.3878 -1.16254e-18)
(11.8021 -22.3897 1.95707e-18)
(11.5179 -22.4691 -1.84162e-18)
(11.229 -22.7498 1.64372e-18)
(11.076 -22.9592 -6.88825e-19)
(11.0484 -22.9771 1.13697e-19)
(8.19012 -9.42181 0)
(16.9129 -18.9454 -1.0861e-18)
(18.3398 -21.5303 6.21997e-19)
(17.6663 -21.5725 7.72438e-19)
(17.0046 -21.4588 -7.16381e-20)
(16.3196 -21.42 -6.40098e-20)
(15.736 -21.3543 -8.27255e-19)
(15.1944 -21.3239 0)
(14.705 -21.3179 0)
(14.2336 -21.3139 0)
(13.7804 -21.3422 -1.57181e-19)
(13.3505 -21.3344 0)
(12.9313 -21.3544 -1.01874e-18)
(12.5284 -21.3669 9.01862e-19)
(12.123 -21.3748 -7.76555e-19)
(11.754 -21.3855 1.4829e-18)
(11.3805 -21.4567 -7.07357e-19)
(11.039 -21.6059 -6.73238e-19)
(10.8249 -21.868 1.16019e-18)
(10.7842 -21.9996 -6.05673e-19)
(8.51716 -8.96371 0)
(17.1498 -17.8484 0)
(18.4314 -20.0736 2.62307e-19)
(17.6864 -20.1146 2.39647e-19)
(17.0449 -20.0682 0)
(16.3504 -20.0785 6.79649e-19)
(15.7868 -20.095 -6.67895e-19)
(15.2518 -20.1258 0)
(14.7606 -20.1553 1.0069e-18)
(14.2733 -20.1639 -9.90103e-19)
(13.802 -20.1929 0)
(13.3677 -20.2072 -7.38196e-19)
(12.947 -20.2491 1.67227e-19)
(12.5342 -20.277 6.51317e-19)
(12.116 -20.2948 0)
(11.7019 -20.2969 0)
(11.2684 -20.3402 0)
(10.844 -20.3364 -2.6712e-19)
(10.5157 -20.2932 3.20771e-19)
(10.1934 -20.7715 0)
(0.849792 -29.9267 0)
(0.719059 -28.161 0)
(0.2966 -27.3916 -4.55591e-21)
(0.348882 -26.3915 -3.84683e-21)
(0.212133 -25.5219 0)
(0.124877 -25.1654 1.96753e-22)
(0.138934 -24.5443 2.54822e-21)
(0.0439875 -24.23 0)
(0.0848241 -23.8119 1.79984e-21)
(0.0480058 -23.5369 0)
(0.0863187 -23.2672 -1.45329e-21)
(0.0435706 -23.122 -6.35442e-22)
(0.0625259 -22.9534 6.38827e-22)
(0.0430616 -22.759 1.13044e-21)
(0.0491793 -22.6194 0)
(0.0431101 -22.5537 -2.51046e-22)
(0.056029 -22.4733 1.23465e-21)
(0.0172282 -22.4133 0)
(0.0429532 -22.3214 0)
(0.0162328 -21.8587 7.54684e-22)
(1.59122 -29.7589 3.36342e-20)
(1.31449 -28.0363 0)
(0.811017 -27.3621 2.12648e-20)
(0.674119 -26.3569 -1.29434e-20)
(0.54647 -25.4899 0)
(0.373289 -25.128 -1.31655e-20)
(0.348221 -24.5231 5.04905e-21)
(0.192293 -24.2124 0)
(0.208857 -23.807 1.56888e-21)
(0.118005 -23.5385 -3.387e-21)
(0.151436 -23.2725 4.19623e-21)
(0.098963 -23.128 -5.26835e-21)
(0.0989037 -22.9561 3.68954e-21)
(0.0660723 -22.7645 -1.21093e-21)
(0.0760455 -22.6211 -1.09648e-21)
(0.0582473 -22.5535 9.91874e-22)
(0.0684414 -22.4701 -1.97914e-21)
(0.0336483 -22.4113 -2.36824e-21)
(0.0541447 -22.3202 -1.15405e-21)
(0.022592 -21.8493 -9.42617e-22)
(2.25957 -29.5824 -1.54849e-20)
(1.88537 -27.9213 -2.85249e-20)
(1.15984 -27.248 -1.78731e-20)
(0.949342 -26.3174 0)
(0.758396 -25.4622 0)
(0.544561 -25.1124 1.53655e-20)
(0.510737 -24.5076 -1.42526e-21)
(0.31609 -24.1964 -1.08564e-21)
(0.31765 -23.7966 -9.09559e-22)
(0.194747 -23.5284 -6.69503e-21)
(0.223049 -23.2618 0)
(0.147839 -23.1117 0)
(0.129679 -22.9449 0)
(0.0893036 -22.7571 -4.39818e-21)
(0.103803 -22.6178 0)
(0.0725533 -22.5521 -3.96719e-21)
(0.0773533 -22.4673 3.82466e-21)
(0.0466727 -22.4092 1.43016e-21)
(0.0634063 -22.3193 2.32713e-21)
(0.0299347 -21.8376 2.94807e-21)
(2.98485 -29.3466 5.04422e-20)
(2.46162 -27.7419 -9.60931e-20)
(1.64257 -27.1625 2.8157e-21)
(1.2361 -26.2619 3.2922e-20)
(1.06042 -25.418 0)
(0.768971 -25.0658 1.96925e-20)
(0.712484 -24.4809 -4.57716e-20)
(0.476514 -24.17 2.44895e-20)
(0.449912 -23.7821 -1.44355e-20)
(0.280951 -23.5229 5.89618e-21)
(0.304723 -23.2624 -3.30348e-22)
(0.211117 -23.1091 -4.88613e-21)
(0.172065 -22.9405 4.90992e-21)
(0.121474 -22.7611 2.27761e-21)
(0.135162 -22.6172 2.1304e-21)
(0.0912522 -22.5476 3.96476e-21)
(0.0908401 -22.464 -4.75758e-21)
(0.0576889 -22.4073 1.85829e-21)
(0.0744196 -22.3176 -9.21929e-22)
(0.0375013 -21.8239 -2.94342e-21)
(3.59701 -29.118 1.2891e-19)
(2.97739 -27.5509 2.26124e-20)
(2.00092 -26.9664 -3.26651e-20)
(1.50761 -26.1832 4.7267e-20)
(1.24789 -25.374 0)
(0.918757 -25.0327 -1.04459e-20)
(0.863479 -24.4514 9.04229e-21)
(0.589275 -24.1389 0)
(0.55837 -23.7545 1.01481e-22)
(0.36659 -23.5027 0)
(0.374605 -23.2471 -1.11115e-20)
(0.264719 -23.0832 0)
(0.211674 -22.9237 0)
(0.148252 -22.7541 -8.43029e-21)
(0.166866 -22.6115 4.1923e-21)
(0.11081 -22.5414 -3.83953e-21)
(0.105242 -22.4595 0)
(0.06952 -22.4048 9.03311e-22)
(0.0864296 -22.3159 -9.07413e-22)
(0.0448943 -21.8078 0)
(4.27649 -28.8091 5.27612e-20)
(3.4946 -27.3444 -4.36426e-20)
(2.45819 -26.8327 8.07598e-20)
(1.804 -26.0941 -7.90011e-20)
(1.53622 -25.3141 2.39894e-20)
(1.13525 -24.983 1.04781e-20)
(1.03279 -24.4238 -1.76131e-20)
(0.73376 -24.1075 -1.52794e-20)
(0.677761 -23.7359 6.87757e-21)
(0.454233 -23.4886 1.1452e-20)
(0.443612 -23.241 -5.98111e-21)
(0.33282 -23.0741 0)
(0.266671 -22.9112 0)
(0.184249 -22.7549 -3.86309e-24)
(0.197667 -22.609 -4.11842e-21)
(0.132838 -22.5328 3.83575e-21)
(0.122347 -22.4544 0)
(0.0830846 -22.4023 -7.13009e-21)
(0.0981079 -22.3136 -6.55753e-21)
(0.0518955 -21.7892 -3.55003e-22)
(4.87641 -28.5298 -1.48636e-19)
(3.98316 -27.0818 1.39653e-19)
(2.81884 -26.5763 -3.45141e-20)
(2.07537 -25.9758 0)
(1.7442 -25.2473 -2.40905e-20)
(1.29423 -24.925 3.79676e-20)
(1.17966 -24.3773 -2.04341e-20)
(0.847084 -24.0674 1.53221e-20)
(0.78212 -23.6968 0)
(0.543873 -23.459 0)
(0.513228 -23.2226 1.01941e-20)
(0.387334 -23.0472 -1.02308e-20)
(0.313948 -22.8889 0)
(0.216831 -22.7446 1.23885e-20)
(0.229662 -22.6011 -4.04194e-21)
(0.153421 -22.5232 -3.65772e-21)
(0.141869 -22.4481 3.67109e-21)
(0.096181 -22.3986 8.85887e-21)
(0.10705 -22.3105 4.25847e-21)
(0.0583987 -21.7684 6.97161e-22)
(5.47759 -28.1461 0)
(4.42384 -26.8524 -7.59978e-20)
(3.24449 -26.396 7.62457e-20)
(2.3751 -25.8546 0)
(2.01305 -25.1714 0)
(1.50268 -24.8666 -3.74425e-20)
(1.33366 -24.3456 3.75569e-20)
(0.979811 -24.0312 0)
(0.892909 -23.6744 1.24079e-20)
(0.636215 -23.4368 -2.35218e-20)
(0.587438 -23.2089 1.11101e-20)
(0.454772 -23.0332 9.1286e-21)
(0.371359 -22.8695 -9.15636e-21)
(0.257822 -22.74 0)
(0.258748 -22.5954 0)
(0.17619 -22.5119 -3.58345e-21)
(0.159663 -22.441 5.33767e-21)
(0.107476 -22.3933 -3.8399e-23)
(0.115108 -22.3069 -2.34795e-21)
(0.0642334 -21.746 6.83467e-22)
(6.04296 -27.8007 9.06724e-20)
(4.88634 -26.5328 -9.07174e-20)
(3.58929 -26.1039 -9.34676e-20)
(2.63291 -25.697 1.12317e-19)
(2.22527 -25.0782 -9.44221e-20)
(1.66863 -24.7837 6.30399e-21)
(1.49644 -24.2818 3.69715e-20)
(1.1031 -23.9845 0)
(0.995963 -23.6292 0)
(0.726923 -23.4021 1.12622e-20)
(0.656672 -23.1857 0)
(0.51299 -23.0051 0)
(0.42118 -22.8431 0)
(0.296352 -22.7249 0)
(0.2894 -22.584 0)
(0.199661 -22.4998 0)
(0.175904 -22.4321 -3.41149e-21)
(0.117017 -22.387 3.41964e-21)
(0.123089 -22.303 -7.09517e-22)
(0.0692122 -21.722 6.69045e-22)
(6.54917 -27.3581 -8.53133e-20)
(5.25904 -26.2795 -1.2749e-19)
(3.98596 -25.8753 -2.70218e-20)
(2.91928 -25.5444 -1.75918e-20)
(2.46757 -24.9873 3.069e-20)
(1.85696 -24.7197 6.18059e-20)
(1.64137 -24.2447 1.65883e-20)
(1.22594 -23.9382 0)
(1.10419 -23.6003 -1.12895e-20)
(0.815082 -23.372 2.37293e-20)
(0.729969 -23.1657 1.00601e-20)
(0.57169 -22.9872 8.97716e-21)
(0.480439 -22.8182 0)
(0.33868 -22.7139 7.67376e-21)
(0.317252 -22.5745 7.27023e-21)