/*--------------------------------*- C++ -*----------------------------------*\
  =========                 |
  \\      /  F ield         | OpenFOAM: The Open Source CFD Toolbox
   \\    /   O peration     | Website:  https://openfoam.org
    \\  /    A nd           | Version:  9
     \\/     M anipulation  |
\*---------------------------------------------------------------------------*/
FoamFile
{
    format      ascii;
    class       volScalarField;
    location    "6";
    object      nut;
}
// * * * * * * * * * * * * * * * * * * * * * * * * * * * * * * * * * * * * * //

dimensions      [0 2 -1 0 0 0 0];

internalField   nonuniform List<scalar> 
46400
(
0.0178988
0.00397766
0.0011417
0.00149518
0.0013918
0.0013838
0.00129844
0.00127879
0.00121451
0.00118042
0.00113921
0.00111387
0.00107646
0.0010392
0.00102807
0.0010157
0.000968548
0.000900963
0.0012304
0.000968181
0.0173598
0.00413921
0.00130471
0.00153036
0.00136533
0.00138805
0.00130055
0.00128955
0.00122622
0.00120244
0.00116818
0.0011115
0.00107972
0.00103109
0.000987402
0.000962908
0.000914247
0.000824469
0.00107622
0.000948431
0.0167687
0.00496078
0.00133274
0.00154408
0.00143044
0.00141651
0.00133463
0.00130148
0.00124093
0.00118267
0.00115038
0.00112083
0.0010828
0.00105065
0.00102075
0.000980401
0.000916416
0.000861758
0.00112943
0.000933192
0.0161955
0.00487182
0.00146043
0.00159442
0.00143716
0.00142254
0.00133782
0.00130412
0.00124959
0.00120773
0.00116593
0.0011186
0.00108012
0.00103475
0.00102331
0.00100076
0.000949414
0.000869788
0.00117318
0.00103504
0.0153249
0.00433611
0.00142959
0.00155392
0.00144107
0.00141999
0.00134935
0.00131156
0.00127204
0.00120943
0.00116896
0.0011325
0.00110109
0.00104406
0.00100446
0.000992596
0.000941762
0.000856507
0.00111641
0.00099671
0.0133874
0.00345984
0.00147046
0.00156977
0.00143499
0.00139411
0.00133996
0.00126868
0.00124178
0.00120607
0.00116289
0.00112572
0.00111175
0.00109459
0.00104349
0.00102326
0.00100877
0.000889664
0.00113599
0.00103457
0.0104883
0.00250851
0.00147971
0.00147351
0.0014465
0.00136788
0.00134202
0.00127989
0.001241
0.00121687
0.00116499
0.00109688
0.00105039
0.00102138
0.00101543
0.000983198
0.000972082
0.00091542
0.00110611
0.0010202
0.00885913
0.00219458
0.00148308
0.00147624
0.00142776
0.00135883
0.00132228
0.00125786
0.00119256
0.00117597
0.00120617
0.0011749
0.00113292
0.00106006
0.00101899
0.000999774
0.000957363
0.000903991
0.00111718
0.00103507
0.0070955
0.00190354
0.00153814
0.00142262
0.00141357
0.00134006
0.00132122
0.00127934
0.001183
0.0010837
0.00105507
0.00105704
0.00106321
0.00105312
0.000998048
0.000975043
0.000937903
0.000859347
0.00101878
0.00101115
0.00597261
0.00170713
0.00150096
0.00146625
0.00145225
0.00135051
0.00131966
0.00133771
0.00132946
0.00122097
0.00112993
0.00106995
0.00103097
0.0010344
0.00101093
0.000982635
0.00095252
0.000882877
0.000978921
0.000948769
0.00506865
0.00165975
0.00154087
0.00140406
0.00143831
0.00134129
0.00122319
0.00117473
0.00120637
0.00120474
0.00115135
0.00109811
0.00103214
0.000994967
0.000982118
0.000967418
0.000947064
0.000908475
0.00100392
0.000973643
0.0043632
0.00161277
0.00158873
0.0014333
0.00146562
0.00149922
0.00141443
0.00128325
0.00121446
0.00119498
0.00115351
0.00111882
0.00106429
0.00100613
0.000956706
0.000926871
0.000890159
0.00084739
0.00092144
0.000920744
0.00390203
0.00151608
0.00157119
0.00141242
0.00125896
0.00129051
0.00134921
0.00131591
0.00126559
0.00122773
0.00120628
0.00116511
0.00113882
0.00109729
0.00105457
0.00101608
0.000976952
0.000918228
0.000969359
0.000938526
0.0039769
0.0015814
0.00158134
0.00161197
0.0014323
0.00129337
0.00126364
0.00124201
0.00122608
0.00118005
0.00116176
0.00112565
0.00109407
0.00105997
0.00102778
0.00100401
0.000974207
0.000932957
0.00097485
0.000947072
0.00423738
0.00164012
0.00138906
0.00138025
0.00147649
0.00138455
0.00133124
0.00127031
0.00124482
0.00121518
0.00119134
0.00117157
0.00114419
0.00110705
0.00107125
0.00103504
0.00100245
0.000943397
0.000989326
0.000950343
0.00319284
0.00174385
0.00148985
0.0014882
0.00146515
0.00148175
0.00143826
0.00136867
0.00127618
0.00120705
0.00114918
0.00110997
0.00108503
0.00106795
0.00104548
0.00102387
0.00100157
0.000951482
0.00097895
0.000936614
0.00213785
0.00146456
0.00156299
0.0015911
0.00147141
0.00137729
0.0013353
0.0013451
0.00132025
0.0012713
0.00123696
0.00119411
0.00115214
0.00110672
0.00107093
0.0010311
0.00100311
0.000947137
0.000971201
0.000944422
0.00168047
0.00176221
0.0018041
0.00153617
0.00151089
0.00131765
0.00130676
0.00124338
0.00125553
0.00121713
0.00121745
0.00115166
0.00111524
0.00106774
0.00104216
0.00101564
0.00100088
0.000950446
0.000965231
0.000938819
0.00196913
0.00143593
0.00146838
0.00155111
0.00152196
0.00152217
0.00149983
0.00139736
0.0013239
0.00127253
0.00122645
0.00115805
0.00116263
0.00112753
0.00112366
0.00109549
0.00106319
0.00102312
0.00101775
0.000988798
0.00263677
0.00166499
0.00163816
0.001637
0.00152575
0.00149749
0.00140909
0.00137273
0.00131321
0.0012662
0.00120889
0.00118524
0.00116752
0.00111627
0.00108995
0.00102607
0.00100731
0.000949153
0.000957804
0.000957051
0.00454286
0.0101366
0.0108985
0.00601484
0.00101395
0.000143231
0.000361802
0.000576529
0.000611384
0.000545946
0.000515824
0.00050775
0.000528867
0.000521297
0.000487572
0.000511542
0.00052855
0.000601864
0.000690406
0.000638381
0.00652465
0.0112105
0.010056
0.00410897
0.000243124
0.000315574
0.000599961
0.000655999
0.000606938
0.000571013
0.000545135
0.000571192
0.000515604
0.000527925
0.000550974
0.00057676
0.000567359
0.000611048
0.000695044
0.000646076
0.00844362
0.0119083
0.00920141
0.00199248
0.000326938
0.000464464
0.000670837
0.000719459
0.000652848
0.000606842
0.000603279
0.000556626
0.000562844
0.000597106
0.000570725
0.000572307
0.000571611
0.000683711
0.00074421
0.000659667
0.0104907
0.0122057
0.00819533
0.000819985
0.000371139
0.000671845
0.000765326
0.000703153
0.000689647
0.000653307
0.000601748
0.000636584
0.000610001
0.000600984
0.000592671
0.000639558
0.000658317
0.000729034
0.000721716
0.00063891
0.0130504
0.0123333
0.00715506
0.000311511
0.000467182
0.000769842
0.000805954
0.000796686
0.000742519
0.000670952
0.000685986
0.000640551
0.000613352
0.000650947
0.00064815
0.000653558
0.000633321
0.000733439
0.000755254
0.000677506
0.0147112
0.012365
0.0046016
0.000413898
0.000675187
0.000863764
0.000864816
0.000783191
0.000765673
0.000734875
0.000668021
0.000684771
0.000682928
0.000675564
0.000645607
0.000686516
0.000713077
0.00081352
0.000764389
0.000664235
0.0157657
0.0120765
0.0033549
9.10536e-05
0.00086112
0.000931002
0.000889994
0.000892035
0.000827953
0.000740722
0.000756703
0.000727731
0.000677299
0.000698192
0.000705315
0.000726058
0.000703312
0.000782997
0.000757135
0.000693232
0.0166733
0.0118829
0.00205215
0.000258918
0.000949409
0.000977571
0.000939381
0.000871266
0.000848781
0.000811441
0.000746858
0.000740572
0.000740342
0.000735505
0.000701061
0.000721206
0.000744238
0.000859467
0.000775455
0.000675905
0.0173825
0.0115194
0.00137338
0.000450735
0.00102449
0.00101012
0.000983566
0.000952303
0.00089596
0.000807209
0.000808357
0.000799515
0.000742851
0.000748689
0.000755023
0.000785387
0.00077144
0.000854449
0.000774497
0.000698
0.0179919
0.0111676
0.000993782
0.000662747
0.00112026
0.00105061
0.00102344
0.000957174
0.000933596
0.000887804
0.000828037
0.000808283
0.00079765
0.000794144
0.000764384
0.000771617
0.000793918
0.000915519
0.000808392
0.000733182
0.018671
0.0108107
0.000826461
0.000876523
0.00114181
0.00107109
0.00107124
0.00100874
0.000956316
0.000880235
0.000855463
0.000856665
0.000800667
0.000789928
0.00078771
0.000812623
0.000808253
0.000883716
0.000751343
0.000705932
0.0189181
0.0103266
0.00144411
0.00093348
0.001224
0.00110294
0.00109461
0.00103349
0.00100337
0.000953927
0.000896742
0.000872436
0.00085205
0.000846195
0.000816397
0.000802787
0.000816456
0.000923152
0.00078494
0.000741963
0.0193309
0.0101896
0.00120572
0.00110742
0.00125411
0.00114129
0.00114625
0.00107516
0.00102084
0.000963967
0.000910952
0.000910639
0.000856605
0.000830743
0.000818931
0.000826873
0.000829629
0.000896723
0.000735396
0.000730954
0.0193808
0.00991642
0.00214724
0.0010902
0.00130857
0.00115734
0.00114825
0.00110325
0.00105535
0.00101316
0.000956704
0.000929539
0.000905125
0.000898115
0.000864955
0.00082681
0.000835216
0.000921681
0.000741005
0.000746833
0.0195155
0.0097822
0.00185222
0.00118397
0.00134879
0.00121992
0.00119434
0.00114199
0.00108228
0.00104386
0.000972148
0.000963497
0.000912666
0.000878358
0.000865091
0.000843457
0.00083976
0.000893659
0.000701308
0.000747665
0.0194149
0.00862843
0.00160416
0.00118464
0.00133046
0.00124054
0.00120102
0.00117558
0.00110891
0.00107832
0.00102295
0.000985025
0.00095614
0.000946782
0.00091607
0.000862901
0.000865705
0.000918324
0.000687487
0.000749185
0.0192904
0.00787493
0.00165437
0.00131394
0.00137398
0.00129035
0.00122284
0.00119272
0.00113315
0.00111035
0.00104216
0.00102813
0.000979174
0.000941508
0.000933651
0.000889408
0.000879856
0.000901846
0.000653755
0.000752804
0.0190363
0.00644729
0.0013148
0.00131397
0.00134007
0.00132279
0.00125802
0.0012436
0.00116498
0.00114506
0.00109437
0.00104786
0.00101731
0.00099894
0.000973542
0.000922253
0.000935675
0.000938567
0.000651233
0.0007749
0.0187265
0.00584109
0.00156474
0.00143311
0.00138877
0.00135078
0.00125865
0.00124398
0.00118185
0.001162
0.00111164
0.00109843
0.00105838
0.00102312
0.00101635
0.000977609
0.000978042
0.000984278
0.000691691
0.000777135
0.018343
0.00433027
0.00120839
0.00145374
0.00133452
0.00137089
0.00128556
0.00127896
0.00120724
0.00119217
0.00115251
0.00110687
0.00108984
0.00106891
0.00105066
0.00104707
0.00105578
0.00105937
0.000868118
0.000883067
0.00423987
0.00231824
0.00183345
0.00147879
0.00120078
0.00084575
0.000742871
0.000602662
0.000592526
0.000692675
0.000472623
0.000369464
0.000414774
0.000269689
0.0003192
0.000388909
0.000269423
0.00579553
0.00970595
0.0145054
0.00442672
0.00244728
0.0019956
0.00160833
0.00125873
0.000894621
0.000790686
0.000649479
0.000632354
0.000716794
0.000474126
0.000393171
0.000402402
0.000258786
0.000328263
0.000408099
0.000316156
0.00584343
0.00968916
0.0144939
0.00437273
0.00246393
0.00200913
0.00160204
0.00125756
0.000903562
0.000786082
0.000683739
0.000624714
0.000684211
0.000428021
0.000404525
0.000423937
0.000289174
0.000342386
0.000418042
0.000372323
0.00588194
0.00967862
0.0143866
0.00459264
0.00258435
0.00211167
0.00163118
0.00126298
0.000966183
0.00084195
0.000735902
0.000688756
0.000707564
0.000414911
0.00041661
0.000404398
0.000282923
0.000353407
0.000420898
0.000420738
0.00594303
0.00978833
0.0144123
0.00463378
0.00259312
0.00217377
0.00169095
0.00128734
0.000947292
0.000847957
0.000756406
0.000684446
0.000679997
0.000386798
0.000417481
0.00042457
0.000326245
0.000365959
0.000421511
0.000465116
0.00595723
0.00982604
0.0144049
0.00481136
0.00267577
0.00221337
0.00166866
0.00129556
0.00100014
0.000884348
0.000811257
0.000730288
0.000703255
0.000388488
0.000419443
0.00039603
0.000324939
0.000374669
0.000418571
0.000501946
0.00594907
0.00991132
0.014444
0.00492314
0.0027307
0.00228748
0.00171669
0.00132132
0.00102155
0.000906356
0.000830022
0.000718649
0.000653787
0.000378668
0.00042106
0.000420332
0.000367851
0.000388289
0.000417044
0.000534557
0.00594548
0.00994936
0.0144485
0.00495664
0.00279452
0.00230795
0.00171778
0.00135409
0.00106346
0.000943309
0.000867325
0.000744007
0.000667464
0.000379306
0.000416545
0.000391022
0.00036525
0.000398124
0.000423585
0.000548684
0.00591237
0.00994544
0.0144286
0.00493685
0.002824
0.00238085
0.00175018
0.00135833
0.00108583
0.000957801
0.000899455
0.000731644
0.000631459
0.000372501
0.000413661
0.000414871
0.000411607
0.000410636
0.000435182
0.000582751
0.00588959
0.00996257
0.0144438
0.00513018
0.00277008
0.00237079
0.00179464
0.001415
0.00114833
0.00100559
0.000919402
0.000736855
0.00063479
0.000379621
0.000401993
0.000381594
0.000417362
0.000425328
0.000432641
0.000597412
0.00587105
0.00996578
0.0144454
0.0052243
0.00290008
0.00238293
0.00179155
0.00140743
0.00115921
0.00100699
0.000957243
0.000748763
0.000614791
0.000374961
0.000398853
0.000390489
0.00046244
0.000454767
0.000426121
0.000618926
0.00585273
0.00996674
0.0144624
0.00525247
0.00286313
0.00240054
0.00183098
0.00145915
0.00123637
0.00105198
0.000951226
0.000746822
0.000629931
0.000391306
0.000387204
0.000346391
0.000443975
0.000477582
0.000429066
0.000617088
0.00584109
0.00997863
0.0144538
0.00538161
0.00292402
0.00239348
0.00185015
0.00146268
0.00124132
0.00104985
0.000985797
0.000771599
0.000632906
0.00037988
0.000389457
0.00035566
0.000487258
0.000501449
0.000429002
0.000611928
0.00582868
0.00999638
0.0144744
0.00541046
0.00290528
0.00238961
0.00187359
0.00149839
0.00131266
0.00107935
0.000970083
0.000765021
0.000658432
0.000404331
0.000385668
0.000318996
0.000395615
0.000521358
0.000429215
0.000582429
0.00579526
0.00998219
0.0144185
0.00552542
0.0029176
0.00235468
0.00191202
0.0015139
0.00131206
0.001085
0.00100518
0.00078837
0.000648532
0.000393626
0.000400545
0.000341326
0.000425972
0.00053944
0.000424812
0.000558892
0.00575177
0.00997747
0.014306
0.0055404
0.00290916
0.00234326
0.00193561
0.00153833
0.00135434
0.00109189
0.000997304
0.000789062
0.000670835
0.000415125
0.000406407
0.000255965
0.000339482
0.00054894
0.000393284
0.000526094
0.00570287
0.00993374
0.0142096
0.00566833
0.0029137
0.00228941
0.00195257
0.00155814
0.00136158
0.00109692
0.00101547
0.000811971
0.000684222
0.000420626
0.000430221
0.000294955
0.000374856
0.000551194
0.000384211
0.000508141
0.00558373
0.00987201
0.0141079
0.00566186
0.0029302
0.00226049
0.00198308
0.00158898
0.00138623
0.00110056
0.00101102
0.0008114
0.000718383
0.000458622
0.000445754
0.000215819
0.000303953
0.00054422
0.000409487
0.000484342
0.00562408
0.00992365
0.0141339
0.00552294
0.00289051
0.00218776
0.00194959
0.00155237
0.00136919
0.00109806
0.00101494
0.000827685
0.000733857
0.00047705
0.000474597
0.00025117
0.000331315
0.000529644
0.000359478
0.000473272
0.00557116
0.0100292
0.0143148
0.00575259
0.00304949
0.0023226
0.0019771
0.00161425
0.00139792
0.00112307
0.00101559
0.00082569
0.000759826
0.000520895
0.00049019
0.000248201
0.000306003
0.000511239
0.000355541
0.000446445
0.00510987
0.00989545
0.0137719
0.0178864
0.0281797
0.0159241
0.0210109
0.0172411
0.0152849
0.0126974
0.0114792
0.00947737
0.0086865
0.00625674
0.00636359
0.00454931
0.00315728
0.0050804
0.00428499
0.00507843
0.0495747
0.0935578
0.126713
0.0243266
0.0201699
0.018722
0.0151702
0.0138316
0.0112023
0.0101971
0.00844806
0.00729688
0.00633521
0.00583157
0.00523906
0.00333557
0.00444967
0.00333458
0.00265106
0.0144641
0.0494512
0.0927757
0.123856
0.0139101
0.014554
0.0128094
0.0113465
0.00992414
0.00846938
0.00736406
0.00637921
0.00614345
0.00522077
0.00469094
0.00475689
0.00456778
0.00452837
0.00407396
0.00314629
0.00531959
0.0520157
0.0915965
0.121859
0.0116246
0.0100725
0.00809358
0.00742457
0.0069353
0.00704755
0.00643259
0.0058204
0.00541193
0.00521495
0.00487378
0.00423707
0.00405411
0.00362797
0.00351573
0.00185482
0.00740917
0.0507436
0.0923891
0.118059
0.00565442
0.00640314
0.00708877
0.00692676
0.00528204
0.00502578
0.00492101
0.00440208
0.00429516
0.00393277
0.00377335
0.00383239
0.00375632
0.00380409
0.00354697
0.00212636
0.00404322
0.0465074
0.0932162
0.117026
0.00532567
0.00519055
0.00451148
0.00378013
0.00359866
0.00374695
0.00387107
0.00389857
0.00370463
0.00371807
0.00367379
0.00346974
0.00341588
0.00329381
0.00336061
0.00166834
0.00312754
0.0410618
0.0940986
0.117952
0.00309007
0.00298964
0.00295034
0.00351995
0.00315448
0.00318549
0.0031484
0.00314351
0.00287422
0.00298385
0.00282887
0.00300505
0.00300751
0.00323015
0.00328755
0.00203185
0.00156929
0.0350474
0.0951414
0.121576
0.002391
0.00235272
0.00238059
0.00215912
0.0019514
0.00194416
0.00211064
0.00228942
0.00238654
0.00249887
0.00258992
0.00271362
0.00281412
0.00300034
0.00311505
0.00233452
0.000905741
0.0274467
0.0951321
0.128827
0.00128568
0.00125473
0.00124746
0.00140357
0.00156099
0.00172913
0.00184478
0.00201726
0.00190263
0.0020142
0.00201124
0.00216545
0.00224068
0.00256737
0.00284526
0.00272971
0.00159286
0.0193377
0.0933218
0.138391
0.000905362
0.000829275
0.000941925
0.00103054
0.00103035
0.0011226
0.00104174
0.00117116
0.0013506
0.00167773
0.00179705
0.00203448
0.00215211
0.00271404
0.00275102
0.00299992
0.00271223
0.0118614
0.0884642
0.150361
0.000404672
0.000373672
0.000411754
0.000505135
0.000567537
0.000752441
0.000879799
0.00116844
0.00107733
0.00128114
0.00138862
0.0016465
0.0016775
0.00210009
0.00261605
0.00349341
0.00282952
0.00698392
0.0695107
0.164594
0.000163374
0.000108436
0.000232102
0.000219379
0.000298125
0.000486638
0.000359621
0.000617987
0.00084873
0.00106353
0.00121543
0.0014415
0.00165709
0.00173121
0.00215954
0.00293055
0.00350015
0.00188792
0.0522214
0.184099
0.000337098
0.000306682
0.000319534
0.000325161
0.000324511
0.000418264
0.000524765
0.000623305
0.000745877
0.000925406
0.00105809
0.00129194
0.00151836
0.00190014
0.00225322
0.00239024
0.00268673
0.00814476
0.0287204
0.159653
0.000426023
0.00040466
0.000370508
0.000376982
0.000399677
0.000478569
0.00054344
0.000737937
0.000743025
0.000914787
0.0009769
0.00126802
0.00134421
0.00172048
0.00173162
0.00184621
0.00171451
0.00397269
0.0180467
0.115113
0.00053021
0.000526049
0.000517557
0.00053776
0.000545295
0.000606576
0.000627405
0.000663154
0.00070037
0.000852913
0.000915249
0.00109002
0.00116368
0.00139416
0.0014902
0.00190415
0.00184799
0.00343439
0.00604233
0.0693849
0.000543509
0.000527726
0.000520065
0.000541859
0.000569462
0.000612002
0.000624836
0.000682104
0.000773077
0.000842992
0.000882845
0.000989107
0.000959122
0.00110678
0.000970087
0.0010406
0.000923239
0.00248054
0.00402859
0.0405767
0.000436981
0.000454043
0.000481532
0.000492192
0.000520599
0.000523995
0.000564168
0.000594307
0.000607548
0.000665254
0.000699715
0.000735254
0.000811614
0.000885522
0.000955929
0.00134263
0.00156627
0.00116255
0.00101343
0.01847
0.000409415
0.000415431
0.000437697
0.000466172
0.00048826
0.000530216
0.000577666
0.000594707
0.000613498
0.000668985
0.000618475
0.000673657
0.000708864
0.000807034
0.00089486
0.000675688
0.00111121
0.00136447
0.00170169
0.00295624
0.00034354
0.000349966
0.000307833
0.00031484
0.000359491
0.000399946
0.000439888
0.000462978
0.000491099
0.00050799
0.00055489
0.000559983
0.000553093
0.000540529
0.000502968
0.0008967
0.000690258
0.000562785
0.00109218
0.00211144
0.000168722
0.000191085
0.00022298
0.000245374
0.000265186
0.0002796
0.000308318
0.000322266
0.000345307
0.000369743
0.00039805
0.000406537
0.000409644
0.000381434
0.000394255
0.000322748
0.000353005
0.000409264
0.000196138
0.000429621
0.0139247
0.0138541
0.0137341
0.0138348
0.013659
0.013605
0.013395
0.0133847
0.0132607
0.0131214
0.0125416
0.0121382
0.0109287
0.0112692
0.0105498
0.0110363
0.00982991
0.00833169
0.00899528
0.00845422
0.00691462
0.00686426
0.00680062
0.00678357
0.00667648
0.00666578
0.00658483
0.00655043
0.00627661
0.00630562
0.00632588
0.00633307
0.00684263
0.00693585
0.00665377
0.00677773
0.00581104
0.00685159
0.00646647
0.00682822
0.00426443
0.00420941
0.00419648
0.00417336
0.00418622
0.00428096
0.00430908
0.00430058
0.00433601
0.00434956
0.00431619
0.00436103
0.00415776
0.00373273
0.00342279
0.00370928
0.00362427
0.00355514
0.00302795
0.00340865
0.0027638
0.00273899
0.00273867
0.00269786
0.00266149
0.00259663
0.00252302
0.00249993
0.00241867
0.00233702
0.00226288
0.00224463
0.00226399
0.00254876
0.00260648
0.00242758
0.00233613
0.00246771
0.00221782
0.0026438
0.0016682
0.00165783
0.00165038
0.0016389
0.00162853
0.00161921
0.00161302
0.00162319
0.0016469
0.00167792
0.00167656
0.00171846
0.00167893
0.00162381
0.00148472
0.00167057
0.00158886
0.00163715
0.00148615
0.00142349
0.00121951
0.00120785
0.00119702
0.00118724
0.00117726
0.0011674
0.00115962
0.00114115
0.00110655
0.00106482
0.00104364
0.00104228
0.0010385
0.00104724
0.00107405
0.00101082
0.00099835
0.00119077
0.00116162
0.00112675
0.000759387
0.000759561
0.000752228
0.000747242
0.000739871
0.000732376
0.00072585
0.000720783
0.000713264
0.000710848
0.000740302
0.000742503
0.000725495
0.000724333
0.000691454
0.000723655
0.000701575
0.000691038
0.000647167
0.000712824
0.000564686
0.000569599
0.00057021
0.000564117
0.000557879
0.000552937
0.000545273
0.000541377
0.000536871
0.000528095
0.000523728
0.000492271
0.000482282
0.000467912
0.000469039
0.000474947
0.000512079
0.000532614
0.000519777
0.000540697
0.000364961
0.000352105
0.000342007
0.000336808
0.000328688
0.000326647
0.000322756
0.000320739
0.000317934
0.000314393
0.000307261
0.00032146
0.000321183
0.00034063
0.000331303
0.000326992
0.000311782
0.00029879
0.000298447
0.000290039
0.000213549
0.000217011
0.00021551
0.000214991
0.000212976
0.000211918
0.000211075
0.000210016
0.000207307
0.000209708
0.000211592
0.000201155
0.000199672
0.000195512
0.000190659
0.00017564
0.000181788
0.000184946
0.000181106
0.000181606
0.000217386
0.000207141
0.000186781
0.000157907
0.000146388
0.000134816
0.000125729
0.000110368
0.000103124
8.86976e-05
9.29917e-05
7.72436e-05
7.78153e-05
8.08291e-05
8.28572e-05
8.53029e-05
8.58765e-05
8.83794e-05
8.83929e-05
9.23894e-05
0.000170585
0.000167123
0.000169038
0.000164167
0.000167084
0.000169676
0.000158696
0.000159219
0.000155813
0.000142555
0.00012562
0.000113375
9.75863e-05
9.03286e-05
8.25369e-05
7.63819e-05
7.65265e-05
7.00307e-05
6.77863e-05
5.58678e-05
0.000161865
0.000158923
0.000155319
0.000152778
0.000147825
0.00014571
0.000144506
0.000128081
0.000121398
0.000125449
0.000136897
0.000132919
0.000131874
0.000127569
0.000126155
0.000117789
0.000120237
0.000114697
0.000120194
9.64058e-05
0.000177752
0.0001742
0.000172213
0.000168645
0.000166734
0.000165212
0.000165466
0.000161833
0.00016984
0.000160431
0.00014421
0.000128088
0.000128589
0.000126573
0.00012207
0.000115787
0.000119357
0.000117052
0.00012112
0.000113042
0.000177147
0.000176809
0.000174407
0.000169349
0.000160625
0.000149925
0.0001348
0.0001245
0.000125309
0.000125231
0.000130217
0.00013505
0.000137392
0.000132964
0.000137321
0.000136539
0.000133062
0.000117968
0.000117851
0.000116403
0.000150726
0.000149602
0.000150795
0.00015034
0.00014924
0.000147318
0.000147835
0.000148966
0.000149392
0.00015085
0.000153404
0.00014946
0.00014347
0.000136438
0.000135615
0.00013378
0.000133749
0.000131459
0.000133597
0.000130626
0.00011703
0.000113421
0.000110902
0.000113745
0.000113104
0.00010952
0.00010363
9.69415e-05
9.67626e-05
9.68293e-05
9.51343e-05
9.37105e-05
9.7886e-05
9.94153e-05
9.90589e-05
9.53569e-05
0.000100143
0.000102687
0.000114631
0.000113328
9.19211e-05
9.6092e-05
8.78543e-05
7.30878e-05
7.19719e-05
8.11396e-05
8.87258e-05
9.31204e-05
9.28902e-05
9.0423e-05
8.58652e-05
8.59318e-05
9.13755e-05
9.47349e-05
9.67245e-05
9.47275e-05
9.63263e-05
9.23102e-05
9.31382e-05
9.47795e-05
5.89251e-05
5.42608e-05
4.18133e-05
5.06362e-05
5.76237e-05
5.5585e-05
5.40724e-05
5.21075e-05
5.08827e-05
5.71661e-05
6.81304e-05
6.75419e-05
6.86117e-05
7.00323e-05
7.005e-05
7.38276e-05
7.58235e-05
7.83423e-05
8.17363e-05
8.09517e-05
2.06607e-05
2.4334e-05
2.72831e-05
2.35555e-05
2.30344e-05
2.39591e-05
2.48734e-05
2.55979e-05
2.69603e-05
2.66454e-05
1.49983e-05
1.79794e-05
2.97547e-05
3.22389e-05
3.30623e-05
3.46232e-05
3.5129e-05
3.6027e-05
3.71195e-05
4.18591e-05
0.00117526
0.00135238
0.00102848
0.00111856
0.00114992
0.00116517
0.00120984
0.0012289
0.00126418
0.00130558
0.00136116
0.00142006
0.00147593
0.00151931
0.00156895
0.00164089
0.0015598
0.00277798
0.00929818
0.0219733
0.00107755
0.00116716
0.000928547
0.00105017
0.00111094
0.00114772
0.00117863
0.00122418
0.00131759
0.00135909
0.00137469
0.00141274
0.00148391
0.00151451
0.00158332
0.00164679
0.00164805
0.00250908
0.00854312
0.0216156
0.00114908
0.0012888
0.000997536
0.00108513
0.00114466
0.00116716
0.00120949
0.00124365
0.00128245
0.00130617
0.00136143
0.00142748
0.0014809
0.00151748
0.00159211
0.00162315
0.00162207
0.00185267
0.00739869
0.0211269
0.00116023
0.0012676
0.000964922
0.00107305
0.00112074
0.00114974
0.00117917
0.00122535
0.00130545
0.00133759
0.00137885
0.00142255
0.00148882
0.00152042
0.00159583
0.00163767
0.0017221
0.00154134
0.00668941
0.0206448
0.00118777
0.00130034
0.00102261
0.0011061
0.00115687
0.00118021
0.00121425
0.00126436
0.00129814
0.00132627
0.00138908
0.00144362
0.00148581
0.00151302
0.00159735
0.00161201
0.00166596
0.00151747
0.00561933
0.0201186
0.00119401
0.00130384
0.00101797
0.00111694
0.00116362
0.00118276
0.00121934
0.00126297
0.00131824
0.00134599
0.0013858
0.00141291
0.00147102
0.00151703
0.00159951
0.00162011
0.00174556
0.001502
0.00511605
0.0194985
0.00122159
0.00131368
0.00106086
0.00115044
0.00117846
0.00119611
0.00123128
0.00127676
0.00129994
0.001332
0.00139443
0.00144509
0.00150134
0.0015287
0.00160298
0.00161009
0.00168683
0.0015361
0.00482878
0.0188158
0.00122482
0.00129346
0.00104788
0.00112594
0.00115653
0.00118943
0.00123259
0.00127314
0.00130894
0.00135187
0.00138539
0.00141904
0.00147243
0.00152128
0.00160556
0.0016317
0.00176588
0.00161527
0.00545919
0.0180287
0.0011943
0.00123651
0.00104658
0.00113229
0.00118028
0.0012162
0.00124322
0.00126511
0.00129482
0.00133491
0.00138855
0.0014427
0.00149972
0.00153907
0.00161642
0.0016252
0.00173494
0.0016579
0.00503225
0.0172426
0.00116768
0.00120287
0.0010634
0.00114115
0.00116572
0.00118165
0.00118859
0.00123108
0.00128385
0.0013302
0.00136148
0.00142085
0.00147256
0.00153712
0.00160343
0.00164284
0.00179957
0.0016481
0.00439016
0.016214
0.0011311
0.00118482
0.00107219
0.00110736
0.00112844
0.00113446
0.00117312
0.00123964
0.00127653
0.00130842
0.00137439
0.00144703
0.0014846
0.00152824
0.00158285
0.00163631
0.00174746
0.00169346
0.0035908
0.0144692
0.00108992
0.00113515
0.00100599
0.00104344
0.0010715
0.00111408
0.00118119
0.00124825
0.00127584
0.00133962
0.00140496
0.00143354
0.00145607
0.00151833
0.0015675
0.00164797
0.00168642
0.00167641
0.0030265
0.0125296
0.00104411
0.00107806
0.000988764
0.0010555
0.00111873
0.0011899
0.00125037
0.00127884
0.00128779
0.00134699
0.00135003
0.00136735
0.00140229
0.0014636
0.00153684
0.00159666
0.00166228
0.0017519
0.00253406
0.0101856
0.00104965
0.00110374
0.00104544
0.00111827
0.00117691
0.001206
0.00121014
0.00120393
0.00122455
0.00126581
0.00127194
0.00135262
0.00141274
0.00152226
0.00154096
0.00158237
0.00162631
0.00167973
0.0021114
0.00807628
0.00103879
0.00110019
0.00106182
0.00111052
0.00113354
0.00112501
0.00112933
0.00116056
0.00122445
0.00128119
0.00133989
0.00141391
0.0014357
0.00149083
0.00147427
0.00159651
0.00163381
0.00166974
0.0018595
0.00660239
0.00101252
0.00106112
0.00101797
0.00105241
0.00107221
0.00107993
0.00113172
0.00119237
0.00125286
0.00128238
0.0013144
0.00133519
0.00137219
0.0014569
0.0015037
0.00159322
0.00156453
0.00170034
0.00176543
0.00547132
0.000994453
0.00105061
0.000999197
0.00104893
0.00107254
0.00111296
0.00118237
0.00121832
0.0012537
0.00127666
0.00131627
0.00137061
0.00144453
0.00149309
0.00143765
0.0015088
0.00152596
0.00164056
0.00164983
0.00464116
0.00100086
0.00101942
0.000991307
0.00104414
0.00107919
0.00112983
0.00116349
0.00117838
0.00121156
0.00124156
0.00128075
0.00133079
0.00135305
0.00135448
0.00139895
0.00157602
0.00161416
0.00169944
0.00168334
0.00407719
0.000953743
0.000986543
0.000986511
0.0010344
0.0010832
0.0011023
0.00112164
0.0011566
0.00119448
0.00123825
0.00127618
0.00132287
0.00135314
0.00138822
0.00153083
0.00153681
0.00143365
0.00150725
0.00162968
0.00374239
0.000957206
0.00100744
0.000988249
0.00104366
0.00106016
0.00107416
0.00111731
0.00114808
0.00119705
0.00121437
0.0012503
0.00128164
0.00130836
0.00136485
0.00139779
0.00134094
0.00139879
0.00159702
0.00193234
0.00413372
0.000745084
0.000794067
0.000662853
0.000611791
0.000638915
0.000556811
0.000516894
0.000514137
0.000574221
0.000610091
0.000633366
0.000567267
0.00041763
0.000261359
0.000893438
0.00553287
0.0116319
0.014542
0.0103
0.00154475
0.000768191
0.000844054
0.000724646
0.000603005
0.000574474
0.000585288
0.000648041
0.000584792
0.000543931
0.000554437
0.000601851
0.000680702
0.000586914
0.000329443
0.000138595
0.00284003
0.0094643
0.014767
0.0119576
0.00339904
0.000747009
0.000861363
0.000815192
0.000705995
0.000682373
0.000571075
0.000573579
0.000627542
0.000666949
0.000640579
0.00061462
0.000619378
0.000658941
0.000551623
0.000287668
0.00110148
0.00746656
0.0139275
0.0133734
0.00283099
0.000764609
0.000852539
0.000823608
0.000701995
0.000694385
0.000680402
0.000694904
0.000614824
0.000610621
0.000683866
0.000719508
0.000716092
0.000747819
0.000665735
0.000369789
0.000262089
0.00472613
0.0128732
0.0144289
0.00513512
0.000773123
0.000899753
0.00091216
0.000774454
0.000742739
0.000647151
0.00067776
0.00074392
0.000739899
0.000693907
0.000711264
0.000746609
0.000803408
0.000811031
0.00064359
0.000364995
0.0024137
0.0115791
0.0150793
0.00817074
0.000774975
0.00085864
0.000922624
0.000809751
0.000799606
0.000753687
0.000751932
0.000697622
0.000731086
0.000827382
0.000838576
0.000836917
0.000849947
0.000927722
0.000847577
0.000481412
0.00104062
0.0103446
0.0153324
0.0108277
0.000817638
0.000929238
0.00097747
0.000828811
0.000819257
0.000754997
0.000785387
0.000839354
0.000818511
0.000787572
0.000851395
0.000901606
0.000936997
0.00100722
0.000982572
0.000621998
0.000470408
0.00907629
0.0153854
0.0134641
0.000806423
0.000875679
0.00100041
0.000892764
0.000874588
0.000806759
0.000813086
0.000796719
0.000844049
0.000939179
0.000933207
0.000941705
0.000983651
0.00105422
0.00109554
0.000863182
0.000395054
0.00674172
0.0151739
0.016722
0.000860231
0.000942014
0.00102504
0.000870259
0.000876963
0.000852613
0.000877227
0.000911358
0.000894624
0.000889565
0.00097334
0.00102799
0.00105886
0.00109993
0.00117219
0.0010526
0.000251714
0.00473541
0.0150797
0.018255
0.000846482
0.000897606
0.00105798
0.00094015
0.00092769
0.000859506
0.00087525
0.000893196
0.000941906
0.00102756
0.00102025
0.00104229
0.00109272
0.00116919
0.00124241
0.00116837
0.000369953
0.00348035
0.0145973
0.0196303
0.000879323
0.000932773
0.00105273
0.000894558
0.000921037
0.000931614
0.000953518
0.000971143