/*--------------------------------*- C++ -*----------------------------------*\
  =========                 |
  \\      /  F ield         | OpenFOAM: The Open Source CFD Toolbox
   \\    /   O peration     | Website:  https://openfoam.org
    \\  /    A nd           | Version:  9
     \\/     M anipulation  |
\*---------------------------------------------------------------------------*/
FoamFile
{
    format      ascii;
    class       volScalarField;
    location    "6";
    object      p;
}
// * * * * * * * * * * * * * * * * * * * * * * * * * * * * * * * * * * * * * //

dimensions      [0 2 -2 0 0 0 0];

internalField   nonuniform List<scalar> 
46400
(
5.60135
11.19
20.293
28.8394
36.0805
42.904
48.8766
54.3561
59.2345
63.6933
67.7308
71.3938
74.7957
77.9031
80.8491
83.6354
86.2312
88.9703
91.9226
92.1438
33.74
38.2634
46.6721
54.7423
61.32
67.4703
72.7515
77.5821
81.8113
85.6418
89.0588
92.1379
94.9104
97.4098
99.6997
101.789
103.664
105.573
107.433
107.071
60.5005
65.4311
73.307
80.4916
86.3535
91.7006
96.2605
100.346
103.91
107.072
109.888
112.345
114.567
116.492
118.222
119.739
121.023
122.303
123.269
122.047
87.7865
93.1528
99.9944
106.187
111.102
115.581
119.339
122.658
125.507
127.972
130.135
131.991
133.615
135.013
136.222
137.251
138.1
138.919
139.628
138.243
115.219
121.117
126.394
131.395
135.318
138.826
141.763
144.289
146.438
148.24
149.773
151.023
152.066
152.898
153.568
154.09
154.445
154.781
155.041
153.462
142.152
147.979
151.644
155.406
158.386
160.942
163.106
164.872
166.362
167.527
168.492
169.217
169.781
170.155
170.4
170.504
170.477
170.404
170.478
168.716
167.647
171.967
175.152
177.781
180.033
181.795
183.229
184.321
185.156
185.728
186.101
186.279
186.303
186.206
185.995
185.708
185.288
184.895
184.613
182.845
190.703
194.079
196.616
198.573
200.15
201.29
202.136
202.637
202.94
202.989
202.892
202.6
202.166
201.592
200.933
200.18
199.347
198.505
197.783
195.718
211.574
214.333
216.25
217.561
218.518
219.041
219.309
219.257
218.996
218.531
217.935
217.222
216.405
215.487
214.475
213.396
212.23
211.082
210.037
207.892
231.172
233.32
234.766
235.491
235.987
235.992
235.794
235.275
234.567
233.617
232.53
231.319
230.037
228.672
227.251
225.775
224.234
222.714
221.286
218.939
248.141
249.744
250.67
250.95
250.96
250.547
249.898
248.989
247.944
246.712
245.338
243.826
242.22
240.541
238.811
237.042
235.216
233.406
231.675
229.169
264.591
265.594
266.105
265.868
265.436
264.57
263.474
262.101
260.579
258.904
257.108
255.217
253.237
251.215
249.144
247.066
244.943
242.866
240.853
238.258
278.09
278.376
278.535
277.944
277.183
276.056
274.814
273.278
271.599
269.718
267.743
265.627
263.443
261.168
258.854
256.495
254.101
251.717
249.398
246.551
290.764
290.644
290.175
289.215
287.926
286.395
284.65
282.757
280.69
278.531
276.243
273.896
271.462
268.991
266.471
263.938
261.368
258.818
256.35
253.405
299.357
299.295
298.829
297.829
296.639
295.065
293.286
291.249
289.085
286.75
284.344
281.821
279.257
276.62
273.962
271.277
268.574
265.894
263.346
260.285
307.483
307.341
306.407
305.206
303.596
301.746
299.627
297.337
294.877
292.318
289.676
286.979
284.24
281.462
278.672
275.861
273.045
270.237
267.559
264.48
311.981
312.005
311.193
310.163
308.65
306.824
304.769
302.495
300.08
297.489
294.814
292.026
289.2
286.317
283.426
280.519
277.611
274.718
271.97
268.837
317.181
316.168
315.19
313.53
311.794
309.648
307.403
304.94
302.391
299.7
296.955
294.108
291.255
288.34
285.441
282.518
279.598
276.686
273.894
270.823
317.369
316.675
315.871
314.531
312.982
311.081
308.963
306.608
304.075
301.413
298.647
295.802
292.908
289.967
287.008
284.015
281.019
278.002
275.099
271.895
316.544
316.117
314.954
313.752
312.15
310.211
308.052
305.649
303.147
300.489
297.791
294.994
292.187
289.32
286.451
283.567
280.677
277.801
275.052
272.028
-284.37
-283.917
-282.206
-275.609
-268.348
-260.797
-252.618
-245.131
-237.717
-230.627
-223.703
-216.999
-210.569
-204.239
-198.246
-192.299
-186.707
-181.169
-175.883
-170.856
-286.42
-285.486
-283.003
-275.611
-266.63
-257.84
-249.239
-241.068
-233.186
-225.592
-218.345
-211.321
-204.618
-198.094
-191.914
-185.838
-180.128
-174.493
-169.172
-164.085
-288.795
-287.791
-282.595
-274.131
-264.061
-254.309
-245.173
-236.356
-228.022
-220.11
-212.509
-205.235
-198.31
-191.589
-185.26
-179.03
-173.248
-167.502
-162.18
-157.017
-291.67
-289.628
-281.446
-271.771
-260.811
-250.242
-240.472
-231.206
-222.379
-214.055
-206.13
-198.564
-191.386
-184.469
-177.963
-171.616
-165.734
-159.891
-154.552
-149.322
-290.57
-289.104
-278.271
-267.241
-255.867
-244.912
-234.522
-224.883
-215.713
-207.086
-198.903
-191.128
-183.768
-176.725
-170.107
-163.673
-157.742
-151.858
-146.55
-141.277
-287.128
-286.419
-276.478
-263.056
-250.618
-238.987
-227.981
-217.788
-208.212
-199.255
-190.785
-182.794
-175.265
-168.082
-161.356
-154.855
-148.898
-142.971
-137.686
-132.362
-283.996
-281.618
-270.072
-256.136
-242.835
-230.72
-219.423
-208.982
-199.189
-190.062
-181.485
-173.396
-165.79
-158.591
-151.841
-145.365
-139.439
-133.51
-128.367
-123.062
-275.658
-273.088
-260.837
-246.638
-233.333
-220.931
-209.433
-198.797
-188.837
-179.595
-170.895
-162.741
-155.109
-147.891
-141.151
-134.734
-128.854
-123.049
-118.092
-112.874
-267.04
-263.376
-250.324
-235.562
-221.912
-209.4
-197.721
-187.042
-177.033
-167.753
-159.093
-150.95
-143.344
-136.174
-129.471
-123.114
-117.255
-111.513
-106.595
-101.344
-255.052
-250.762
-236.863
-222.116
-208.368
-195.893
-184.195
-173.536
-163.583
-154.379
-145.778
-137.733
-130.237
-123.184
-116.585
-110.349
-104.587
-98.9411
-94.1009
-88.7729
-240.16
-235.258
-221.143
-206.459
-192.877
-180.605
-169.068
-158.569
-148.792
-139.735
-131.343
-123.475
-116.169
-109.321
-102.935
-96.9477
-91.4068
-86.0434
-81.5268
-76.4013
-223.483
-218.041
-203.481
-189.106
-175.517
-163.533
-152.174
-141.9
-132.369
-123.557
-115.395
-107.769
-100.707
-94.0955
-87.926
-82.157
-76.805
-71.6612
-67.3001
-62.3031
-203.671
-197.907
-183.402
-169.539
-156.349
-144.732
-133.824
-123.863
-114.701
-106.208
-98.3977
-91.107
-84.3712
-78.0956
-72.2656
-66.857
-61.8249
-57.0328
-53.0289
-48.2127
-182.626
-176.517
-161.814
-148.584
-135.663
-124.473
-113.951
-104.394
-95.6237
-87.5088
-80.0712
-73.1333
-66.7576
-60.8242
-55.3177
-50.23
-45.4926
-41.0387
-37.3018
-32.7049
-159.538
-152.95
-137.594
-125.51
-113.296
-102.628
-92.7834
-83.698
-75.4621
-67.8166
-60.8378
-54.3594
-48.3994
-42.887
-37.792
-33.127
-28.7618
-24.7137
-21.3488
-16.9781
-134.899
-128.2
-113.22
-101.511
-90.0936
-79.8843
-70.5739
-62.0113
-54.2409
-47.0602
-40.5423
-34.4892
-28.9734
-23.8753
-19.1841
-14.9136
-10.9222
-7.29945
-4.27693
-0.166784
-108.503
-101.595
-87.3437
-76.2986
-65.6778
-56.1136
-47.4872
-39.4868
-32.3132
-25.656
-19.6277
-14.0758
-8.99383
-4.33785
-0.0703771
3.77679
7.38758
10.5565
13.1943
17.0726
-80.9898
-74.2849
-61.0479
-50.4293
-40.6555
-31.6557
-23.675
-16.2686
-9.62795
-3.5008
2.02222
7.11504
11.7246
15.9449
19.7847
23.2337
26.4414
29.0927
31.3523
34.9023
-52.6482
-45.9458
-33.8899
-24.0236
-15.143
-6.86739
0.442685
7.22537
13.2771
18.866
23.9118
28.5139
32.7235
36.5367
40.0104
43.1406
46.0224
48.2778
50.2418
53.9433
-23.6145
-16.8882
-6.55245
2.7866
10.7154
18.2801
24.8722
31.025
36.509
41.5782
46.1608
50.3945
54.2638
57.8351
61.1593
64.271
67.1184
69.7144
72.5805
76.2727
-145.949
-118.502
-89.8689
-73.4338
-53.4776
-42.1579
-28.5452
-20.3712
-11.1185
-4.90106
1.39503
5.83134
10.1004
13.205
16.2372
18.125
20.778
21.4039
21.9853
22.7663
-139.222
-113.403
-85.3165
-69.9304
-50.5662
-39.7844
-26.5497
-18.701
-9.63446
-3.72427
2.35545
6.64335
10.6912
13.7753
16.5564
18.5705
20.9052
21.6069
22.0805
22.7763
-132.329
-108.208
-80.7851
-66.2804
-47.708
-37.3591
-24.6432
-17.0207
-8.22596
-2.55751
3.30113
7.46251
11.3658
14.431
16.8789
19.0589
21.0339
21.8744
22.2148
23.0018
-124.917
-102.667
-76.1328
-62.4938
-44.6849
-34.7302
-22.5704
-15.1655
-6.65571
-1.23945
4.36769
8.35545
12.0327
15.0611
17.2084
19.5805
21.1523
22.2127
22.4084
23.1599
-117.317
-97.0067
-71.346
-58.5907
-41.5856
-32.1508
-20.5179
-13.3217
-5.20641
0.0369244
5.38825
9.25254
12.7864
15.7786
17.58
20.1159
21.2854
22.6258
22.6061
23.3581
-109.087
-91.0138
-66.3763
-54.6295
-38.3529
-29.4072
-18.3207
-11.3934
-3.69967
1.45493
6.52469
10.2188
13.5516
16.4611
17.9647
20.6813
21.4558
23.0295
22.8474
23.6006
-100.776
-84.7983
-61.2589
-50.5509
-35.0824
-26.6797
-16.1312
-9.43174
-2.2588
2.80098
7.65663
11.1943
14.3847
17.2165
18.3736
21.3303
21.7279
23.4903
23.185
23.8678
-92.0017
-78.2978
-55.9886
-46.3939
-31.6764
-23.808
-13.8216
-7.40735
-0.720813
4.32014
8.90155
12.2367
15.2105
17.9375
18.8745
22.0194
22.0615
23.9091
23.4713
24.1471
-81.1605
-71.3166
-50.4902
-42.1305
-28.2343
-20.9343
-11.5316
-5.33102
0.880112
5.70072
10.132
13.2711
16.1369
18.7971
19.5138
22.6961
22.4291
24.3562
23.7759
24.4558
-71.1416
-64.3493
-44.9332
-37.7424
-24.6763
-17.9264
-9.1265
-3.22099
2.65539
7.27378
11.4808
14.3806
17.0669
19.5971
20.1891
23.3317
22.7601
24.7987
24.1287
24.7562
-61.0575
-56.8214
-39.2199
-33.2705
-21.0943
-14.9065
-6.72788
-1.05623
4.46659
8.83424
12.8119
15.4882
18.0659
20.4701
20.9266
23.9368
23.1214
25.2496
24.4604
25.0651
-49.9447
-49.2599
-33.3341
-28.6515
-17.4127
-11.7607
-4.22868
1.11869
6.33613
10.4651
14.2512
16.654
19.0497
21.3376
21.6526
24.5761
23.4617
25.7092
24.7803
25.3506
-38.6264
-41.263
-27.3802
-23.9572
-13.728
-8.60995
-1.72382
3.34909
8.28983
12.0436
15.6663
17.8606
20.1178
22.2675
22.3629
25.2375
23.8348
26.1746
25.0871
25.6459
-26.4172
-33.1716
-21.2055
-19.104
-9.94687
-5.34657
0.863119
5.57444
10.2422
13.6261
17.1961
19.1097
21.1668
23.1886
23.0939
25.816
24.1869
26.6239
25.357
25.8942
-13.8811
-24.8195
-15.0347
-14.2202
-6.19675
-2.09528
3.45957
7.85923
12.2439
15.315
18.6861
20.3906
22.291
24.1721
23.8401
26.282
24.5541
27.103
25.5763
26.1513
-0.399579
-16.1667
-8.56737
-9.18119
-2.37041
1.2301
6.09245
10.1173
14.1971
17.1149
20.2365
21.6867
23.363
25.1333
24.6289
26.8458
24.9088
27.5265
25.7922
26.4234
13.3235
-7.06531
-1.99542
-3.93842
1.57418
4.67976
8.84546
12.5333
16.2471
18.9778
21.886
23.1481
24.6535
26.2392
25.4819
27.9461
25.3142
27.9566
25.9791
26.617
26.5634
0.666394
4.18647
1.09378
5.35394
8.03284
11.5928
14.9021
18.2711
20.8959
23.5568
24.537
25.8177
27.3436
26.366
28.9536
25.6845
28.8668
26.2472
27.0922
44.221
9.82525
11.6592
5.29447
8.37934
10.5342
13.7643
16.7136
19.8707
22.4181
25.0132
25.6326
26.6848
28.015
26.8567
29.1199
25.9871
28.9965
26.1785
26.8718
65.5726
26.7508
21.6553
13.3318
14.2002
15.5426
17.4768
19.9315
22.3358
24.7771
26.9607
27.5638
28.3229
29.6579
28.4842
30.5607
27.3869
29.0197
25.1777
27.7412
101.419
98.8743
71.0639
71.4225
58.4402
56.6373
48.8597
49.4698
44.9902
46.0937
43.3235
45.6346
44.217
45.4177
45.2655
46.1527
42.2548
46.3623
30.6804
52.0091
136.019
122.37
101.537
93.2366
80.0089
75.0536
66.985
64.1038
58.8863
57.6425
54.0504
53.4986
51.2992
51.3376
49.8067
49.9715
47.8198
49.0023
46.2028
48.8987
139.465
128.484
116.028
107.52
98.3718
92.0832
85.4145
80.9832
76.5306
73.5878
70.8644
68.8635
66.8694
65.5627
63.9734
63.4499
61.519
61.1245
60.138
60.6982
138.909
130.154
121.609
113.773
106.426
100.175
94.5479
89.9619
85.4222
81.9697
78.2801
75.6989
72.9873
70.9496
69.0446
67.2735
66.0794
65.0929
64.3531
64.4107
132.513
125.915
120.459
114.804
109.916
105.094
100.768
96.8027
93.1986
89.8687
87.0095
84.2788
81.832
79.5911
77.3763
75.4852
73.3291
71.8222
70.7059
70.6738
128.593
124.317
120.85
116.476
112.474
108.386
104.7
101.103
97.7883
94.8316
91.7973
89.2613
86.7009
84.4025
82.2988
80.083
78.4152
76.3068
75.566
74.9712
124.648
121.488
118.764
115.476
112.753
109.795
107.068
104.382
101.74
99.1783
96.7814
94.3575
92.1443
89.9827
87.7732
85.7123
83.5291
81.5359
80.0302
79.5475
122.354
120.3
118.555
116.43
114.1
111.559
109.225
106.928
104.664
102.58
100.338
98.4996
96.1875
94.3645
92.1119
90.1868
87.9149
85.8707
83.9838
83.4062
120.823
119.235
117.783
115.92
114.312
112.721
111.087
109.463
107.697
106.029
104.155
102.519
100.619
99.0743
96.9659
95.3931
92.8792
91.273
88.9133
88.3181
120.047
119.046
118.114
117.008
115.811
114.523
113.063
111.735
110.359
109.146
107.763
106.594
104.982
103.79
101.962
100.732
98.3157
97.1769
93.932
93.7561
119.946
119.253
118.479
117.711
116.989
116.157
115.348
114.406
113.448
112.591
111.491
110.72
109.609
108.894
107.618
106.955
105.04
104.876
101.44
102.582
120.352
119.947
119.403
118.878
118.309
117.809
117.19
116.753
116.131
115.769
115.201
114.887
114.394
114.181
113.771
113.728
113.292
113.49
113.708
115.518
120.984
120.76
120.468
120.212
119.881
119.634
119.322
119.141
118.877
118.813
118.696
118.784
118.91
119.16
119.679
120.086
121.269
121.677
124.282
125.595
121.818
121.726
121.544
121.462
121.305
121.287
121.18
121.275
121.251
121.514
121.63
122.121
122.46
123.259
123.958
125.182
126.507
128.14
131.13
132.128
122.553
122.574
122.538
122.597
122.599
122.738
122.806
123.08
123.242
123.73
124.026
124.827
125.33
126.556
127.402
129.146
130.373
132.953
134.923
138.014
123.4
123.467
123.499
123.627
123.72
123.948
124.122
124.486
124.771
125.316
125.727
126.531
127.049
128.235
128.81
130.562
131.333
133.708
134.632
145.834
123.954
124.081
124.194
124.392
124.567
124.86
125.11
125.532
125.873
126.459
126.915
127.713
128.303
129.387
130.076
131.594
132.145
135
135.56
138.643
124.559
124.68
124.809
125.007
125.204
125.502
125.785
126.199
126.576
127.126
127.589
128.299
128.832
129.74
130.303
131.471
131.963
133.622
133.821
141.539
124.876
125.02
125.181
125.412
125.669
125.991
126.318
126.734
127.12
127.634
128.075
128.733
129.248
130.062
130.668
131.457
132.02
132.91
133.047
133.855
125.068
125.214
125.399
125.617
125.846
126.143
126.45
126.84
127.245
127.737
128.243
128.794
129.35
129.937
130.451
131.214
131.697
132.471
132.707
136.809
235.024
235.282
234.39
233.245
231.201
228.67
225.343
221.616
216.878
212.002
206.042
199.893
192.821
185.642
177.133
169.243
159.234
148.063
138.772
128.431
206.479
206.316
205.936
205.207
204.193
202.91
201.307
199.449
197.208
194.82
192.024
189.097
185.88
181.303
176.212
173.039
168.523
164.454
159.333
154.731
169.451
169.419
169.308
169.086
168.711
168.29
167.651
167.022
166.117
165.288
164.154
163.096
161.65
160.345
158.641
157.026
154.947
153.226
150.735
149.039
157.343
157.228
157.074
156.846
156.569
156.225
155.809
155.328
154.746
154.131
153.354
152.629
151.671
150.853
149.713
148.823
147.525
146.565
145.079
144.105
141.22
141.234
141.185
141.114
140.985
140.835
140.624
140.412
140.127
139.865
139.509
139.2
138.771
138.415
137.882
137.491
136.836
136.432
135.641
135.215
135.438
135.376
135.3
135.203
135.079
134.942
134.773
134.593
134.381
134.151
133.879
133.6
133.257
132.94
132.537
132.191
131.723
131.366
130.813
130.466
128.712
128.702
128.685
128.637
128.582
128.498
128.404
128.287
128.153
128.007
127.839
127.673
127.474
127.29
127.053
126.854
126.575
126.366
126.033
125.826
125.817
125.787
125.739
125.688
125.617
125.542
125.449
125.351
125.237
125.115
124.979
124.831
124.664
124.49
124.294
124.099
123.875
123.674
123.41
123.227
123.314
123.311
123.3
123.273
123.236
123.187
123.124
123.055
122.968
122.88
122.77
122.661
122.531
122.406
122.259
122.116
121.953
121.795
121.605
121.438
122.299
122.277
122.245
122.205
122.156
122.096
122.028
121.951
121.867
121.777
121.679
121.58
121.474
121.359
121.237
121.113
120.975
120.836
120.666
120.511
121.556
121.588
121.609
121.614
121.601
121.565
121.512
121.443
121.373
121.289
121.213
121.132
121.051
120.968
120.878
120.778
120.668
120.554
120.433
120.307
121.693
121.68
121.663
121.642
121.616
121.58
121.538
121.49
121.432
121.373
121.314
121.255
121.195
121.13
121.058
120.981
120.9
120.812
120.721
120.621
121.843
121.842
121.836
121.826
121.812
121.795
121.773
121.748
121.719
121.684
121.649
121.606
121.564
121.513
121.465
121.407
121.352
121.286
121.227
121.149
122.583
122.562
122.541
122.517
122.493
122.466
122.439
122.41
122.38
122.347
122.315
122.279
122.244
122.205
122.166
122.123
122.082
122.033
121.99
121.935
122.791
122.791
122.79
122.788
122.785
122.78
122.775
122.768
122.761
122.752
122.742
122.73
122.719
122.703
122.69
122.672
122.657
122.635
122.62
122.592
123.602
123.591
123.58
123.57
123.56
123.55
123.539
123.529
123.519
123.509
123.5
123.489
123.48
123.469
123.461
123.45
123.442
123.43
123.424
123.41
123.807
123.804
123.8
123.799
123.799
123.8
123.803
123.808
123.813
123.819
123.827
123.834
123.843
123.851
123.861
123.87
123.882
123.89
123.904
123.913
124.55
124.553
124.534
124.509
124.492
124.479
124.469
124.462
124.458
124.456
124.455
124.456
124.458
124.462
124.469
124.474
124.483
124.491
124.506
124.517
124.61
124.593
124.589
124.591
124.593
124.596
124.601
124.608
124.618
124.63
124.643
124.655
124.67
124.686
124.703
124.722
124.743
124.764
124.787
124.811
124.802
124.795
124.791
124.789
124.789
124.792
124.795
124.799
124.803
124.809
124.817
124.83
124.844
124.861
124.88
124.902
124.926
124.952
124.982
125.008
44.8485
41.5132
34.9989
29.055
23.1239
16.7974
10.1749
3.15866
-4.28636
-12.3091
-20.9753
-30.3388
-40.4676
-51.5392
-63.5773
-76.7335
-91.3331
-106.983
-125.328
-133.785
57.8314
55.8927
51.3512
46.6847
41.8464
36.5754
30.8991
24.7578
18.1289
10.9091
3.09788
-5.43491
-14.6991
-24.9134
-35.9862
-48.2307
-61.6876
-76.1501
-93.5214
-102.282
74.1358
73.1928
69.4876
65.4985
61.3174
56.6846
51.6536
46.1884
40.2741
33.8011
26.7398
19.0381
10.6455
1.39546
-8.66935
-19.8555
-32.0671
-45.5352
-61.5651
-70.3752
90.5411
89.9331
86.8142
83.5312
80.0739
76.2126
71.9836
67.3457
62.2684
56.6584
50.5412
43.7851
36.3677
28.1055
19.0897
8.98326
-2.06463
-14.3374
-28.7627
-37.9415
107.616
107.525
105.056
102.376
99.5398
96.3129
92.7315
88.7653
84.3823
79.4932
74.0969
68.1069
61.506
54.1537
46.137
37.1055
27.3488
16.2964
3.46255
-4.64402
124.611
124.771
122.676
120.527
118.23
115.603
112.66
109.385
105.714
101.603
97.0557
91.9602
86.2919
79.9238
72.8952
64.8956
56.1637
46.148
34.7909
27.896
141.457
141.907
140.361
138.743
137.013
134.958
132.631
129.989
126.991
123.578
119.743
115.383
110.497
104.944
98.7718
91.6679
83.9103
74.8361
64.422
58.7806
157.41
158.088
156.941
155.805
154.574
153.087
151.356
149.361
147.027
144.356
141.299
137.78
133.754
129.123
123.886
117.76
110.936
102.806
93.1337
87.6638
172.741
173.716
173.135
172.544
171.88
170.972
169.841
168.458
166.788
164.811
162.47
159.709
156.506
152.752
148.434
143.266
137.549
130.457
122.067
116.07
187.021
188.231
188.1
187.962
187.749
187.34
186.749
185.965
184.932
183.655
182.045
180.099
177.711
174.864
171.45
167.376
162.725
156.769
150.22
143.89
200.48
201.959
202.315
202.662
202.952
203.097
203.088
202.911
202.521
201.903
200.989
199.773
198.185
196.202
193.719
190.698
187.095
182.494
177.618
171.036
212.738
214.438
215.216
215.991
216.737
217.371
217.87
218.233
218.402
218.386
218.1
217.577
216.683
215.477
213.797
211.75
209.05
205.835
201.918
196.663
223.906
225.939
227.204
228.454
229.694
230.813
231.813
232.659
233.343
233.827
234.087
234.119
233.879
233.369
232.485
231.22
229.445
227.186
224.228
220.332
234.248
236.552
238.109
239.686
241.232
242.675
243.996
245.218
246.298
247.259
248.033
248.663
249.014
249.158
248.865
248.325
247.188
245.727
243.478
240.391
243.476
245.956
247.802
249.687
251.556
253.336
255.051
256.685
258.23
259.649
260.919
261.994
262.844
263.432
263.699
263.665
263.124
262.272
260.637
258.226
251.598
254.167
256.204
258.312
260.415
262.47
264.475
266.431
268.28
270.036
271.619
273.091
274.311
275.389
276.089
276.604
276.574
276.295
275.203
273.456
257.96
260.734
263.062
265.468
267.874
270.245
272.57
274.842
277.018
279.107
281.059
282.89
284.501
285.925
287.016
287.928
288.322
288.563
287.928
286.827
263.669
266.546
268.989
271.53
274.101
276.608
279.105
281.525
283.898
286.166
288.347
290.384
292.27
293.965
295.466
296.749
297.661
298.339
298.284
298.086
267.701
270.663
273.224
275.939
278.642
281.345
284.004
286.653
289.228
291.764
294.173
296.515
298.65
300.684
302.414
303.93
305.021
305.95
306.264
306.325
270.528
273.542
276.248
279.067
281.911
284.725
287.529
290.292
293.012
295.643
298.207
300.629
302.941
305.045
306.984
308.651
310.079
311.223
311.995
311.934
-180.197
-185.186
-190.474
-195.985
-201.518
-207.428
-213.26
-219.458
-225.692
-232.125
-238.63
-245.396
-252.002
-258.669
-265.089
-270.711
-274.84
-274.999
-275.364
-275.713
-176.454
-181.681
-187.201
-193.028
-198.861
-205.108
-211.339
-217.902
-224.522
-231.409
-238.454
-245.596
-252.923
-260.242
-267.645
-274.539
-280.111
-282.864
-283.217
-283.499
-172.381
-177.908
-183.661
-189.866
-196.036
-202.701
-209.367
-216.436
-223.647
-231.105
-238.771
-246.695
-254.839
-263.013
-271.529
-279.649
-287.198
-292.979
-293.117
-293.684
-168.253
-174.048
-180.03
-186.572
-193.097
-200.166
-207.311
-214.853
-222.633
-230.761
-239.207
-247.94
-257.003
-266.451
-276.107
-285.993
-295.694
-303.332
-304.997
-305.673
-163.565
-169.682
-175.892
-182.804
-189.697
-197.199
-204.849
-212.977
-221.418
-230.254
-239.526
-249.246
-259.481
-270.272
-281.326
-293.279
-305.409
-315.759
-320.939
-321.617
-158.464
-164.847
-171.262
-178.482
-185.713
-193.59
-201.698
-210.294
-219.337
-228.883
-238.962
-249.617
-260.986
-272.978
-285.849
-299.743
-314.493
-328.069
-337.434
-338.38
-152.509
-159.174
-165.757
-173.258
-180.798
-189.03
-197.563
-206.657
-216.236
-226.37
-237.161
-248.646
-260.889
-273.982
-288.15
-303.388
-319.803
-335.931
-349.338
-349.984
-145.986
-152.845
-159.53
-167.237
-175.001
-183.466
-192.318
-201.735
-211.75
-222.399
-233.744
-245.844
-258.866
-272.799
-287.884
-304.09
-321.568
-339.425
-355.476
-358.226
-138.369
-145.396
-152.071
-159.933
-167.746
-176.427
-185.526
-195.246
-205.579
-216.592
-228.4
-241.043
-254.636
-269.259
-285.014
-302.219
-320.784
-340.453
-356.235
-360.814
-129.684
-136.819
-143.519
-151.391
-159.398
-168.119
-177.373
-187.247
-197.81
-209.096
-221.175
-234.127
-248.144
-263.126
-279.41
-297.146
-316.057
-336.019
-355.039
-359.58
-119.923
-127.029
-133.611
-141.407
-149.43
-158.168
-167.45
-177.397
-188.042
-199.446
-211.737
-224.98
-239.27
-254.68
-271.511
-289.779
-309.326
-331.546
-349.712
-353.78
-108.442
-115.641
-122.102
-129.837
-137.839
-146.502
-155.781
-165.729
-176.402
-187.856
-200.157
-213.4
-227.742
-243.164
-260.069
-278.273
-298.337
-320.326
-340.6
-346.314
-94.9668
-102.375
-108.896
-116.573
-124.572
-133.197
-142.407
-152.269
-162.852
-174.216
-186.479
-199.712
-214.007
-229.43
-246.31
-264.453
-284.275
-306.237
-326.332
-332.338
-80.8707
-88.2922
-94.6494
-102.133
-109.964
-118.367
-127.386
-137.087
-147.496
-158.689
-170.741
-183.764
-197.873
-213.12
-229.826
-247.703
-267.797
-289.095
-309.574
-316.984
-66.2872
-73.4845
-79.5363
-86.6602
-94.2121
-102.336
-111.074
-120.462
-130.563
-141.454
-153.228
-165.963
-179.738
-194.653
-210.961
-228.593
-248.112
-268.96
-289.111
-296.755
-49.6384
-56.7544
-62.5755
-69.3926
-76.6963
-84.5148
-92.9416
-102.056
-111.852
-122.405
-133.795
-146.134
-159.496
-173.99
-189.853
-206.899
-225.927
-246.33
-267.031
-274.979
-32.828
-39.7298
-45.2092
-51.6151
-58.5699
-66.0224
-74.079
-82.7701
-92.1187
-102.232
-113.181
-125.033
-137.853
-151.766
-166.937
-183.325
-201.594
-220.805
-241.62
-249.649
-14.3962
-21.1255
-26.245
-32.1977
-38.8248
-45.9184
-53.5719
-61.895
-70.8541
-80.5192
-90.9632
-102.298
-114.558
-127.903
-142.445
-158.199
-175.604
-194.133
-214.864
-223.102
6.16343
-1.17726
-6.32731
-11.9438
-18.3747
-25.2427
-32.5951
-40.5332
-49.0356
-58.2272
-68.1762
-78.9302
-90.5519
-103.184
-116.943
-131.823
-148.337
-165.939
-185.856
-194.33
30.4702
22.783
16.1855
10.2241
3.73594
-3.15206
-10.3468
-18.0176
-26.1826
-34.9344
-44.3282
-54.4984
-65.4615
-77.4377
-90.4314
-104.592
-120.238
-136.982
-156.14
-164.644
16.7419
17.1005
15.1683
13.066
10.2935
6.86526
3.85637
-0.414953
-4.27688
-9.61291
-15.0449
-21.7183
-29.8106
-38.3093
-50.7836
-61.9851
-81.3302
-98.1827
-127.268
-155.47
17.2578
17.5878
15.8288
13.7407
11.1405
7.83277
5.00158
0.856662
-2.80264
-7.9833
-13.1815
-19.6573
-27.4328
-35.5917
-47.8094
-58.5733
-77.8831
-93.9786
-123.512
-150.675
17.7613
18.1284
16.5657
14.4321
11.9765
8.78816
6.13261
2.11465
-1.36426
-6.3938
-11.3674
-17.6396
-25.1595
-33.0435
-44.907
-55.1149
-74.0469
-89.4225
-118.875
-145.636
18.2627
18.5732
17.1125
15.0756
12.8501
9.7735
7.30145
3.42076
0.13421
-4.73642
-9.46985
-15.5594
-22.7393
-30.3128
-41.8992
-51.6092
-70.3896
-85.0461
-114.777
-140.562
18.7327
19.043
17.7747
15.7489
13.6916
10.7487
8.45798
4.70787
1.60522
-3.11444
-7.61666
-13.5185
-20.4074
-27.7582
-38.9701
-48.1332
-66.6807
-80.3692
-110.137
-135.073
19.194
19.4921
18.3555
16.4251
14.5609
11.7557
9.65423
6.04415
3.13458
-1.42797
-5.68766
-11.4164
-17.9429
-25.0322
-35.8515
-44.6327
-62.909
-75.6041
-105.116
-129.408
19.6413
19.9141
18.9647
17.1448
15.4335
12.7567
10.8398
7.36415
4.6385
0.229628
-3.7972
-9.34798
-15.5545
-22.4581
-32.8284
-41.1952
-59.0403
-70.9939
-100.613
-123.071
20.0726
20.3262
19.5292
17.7994
16.3608
13.7904
12.0675
8.73391
6.19811
1.94712
-1.84071
-7.22031
-13.0502
-19.7299
-29.6282
-37.6722
-55.0289
-66.2772
-95.8229
-116.59
20.4879
20.7237
20.1306
18.4575
17.246
14.8215
13.286
10.0906
7.73454
3.64217
0.0829603
-5.12036
-10.6089
-17.1244
-26.5117
-34.2095
-50.9757
-61.4542
-90.3473
-109.572
20.8885
21.1083
20.6877
19.1435
18.1977
15.8911
14.5474
11.4965
9.32314
5.39214
2.06179
-2.96384
-8.0711
-14.3869
-23.2318
-30.6596
-46.7588
-56.6333
-84.6941
-102.232
21.2777
21.4735
21.2177
19.8099
19.1346
16.9611
15.8021
12.8928
10.8913
7.12494
4.01278
-0.828643
-5.58262
-11.7418
-20.0208
-27.1428
-42.4919
-51.5497
-79.0184
-94.2764
21.6505
21.8254
21.7697
20.5138
20.0866
18.0764
17.0999
14.3364
12.507
8.90687
6.00759
1.35912
-3.01911
-8.98677
-16.6678
-23.5592
-38.0651
-46.5411
-72.5868
-83.9558
22.0071
22.1514
22.3112
21.215
21.0486
19.1894
18.3939
15.7731
14.1047
10.6754
7.97814
3.53194
-0.492864
-6.29525
-13.3677
-19.9773
-33.5608
-40.6916
-65.6105
-72.3238
22.3526
22.4677
22.8673
21.9442
22.0382
20.3595
19.7318
17.2559
15.7465
12.4886
9.98448
5.75596
2.09294
-3.50713
-9.94524
-16.3504
-28.958
-34.7658
-58.596
-62.1204
22.6912
22.7583
23.4322
22.6823
23.0576
21.5247
21.067
18.7317
17.3697
14.2874
11.9644
7.96537
4.6418
-0.770761
-6.58685
-12.7609
-24.2043
-28.1462
-51.9085
-50.7892
23.0197
23.0268
23.9989
23.4563
24.2031
22.7558
22.4387
20.2428
19.0223
16.1134
13.9587
10.2076
7.21964
2.03476
-3.15027
-9.15685
-19.3958
-22.5493
-44.2658
-38.2284
23.3101
23.288
24.5662
24.2666
25.3581
24.005
23.8265
21.7733
20.6882
17.9644
15.9773
12.4984
9.84443
4.90872
0.351655
-5.4109
-14.2724
-16.8748
-36.3653
-25.2834
23.848
23.6673
25.3143
25.0635
26.3891
25.3363
25.2551
23.348
22.3941
19.8511
18.0119
14.8322
12.4862
7.79889
3.77911
-1.84013
-9.49259
-11.5465
-29.1325
-11.8877
23.8952
23.6637
25.7076
25.8091
27.1692
26.5119
26.5176
24.7334
23.8653
21.4621
19.6984
16.8073
14.6651
10.1491
6.48511
0.968705
-5.59778
-7.42697
-20.8475
6.87456
24.646
22.988
25.8792
27.1159
28.4928
27.9355
28.0491
26.3662
25.6217
23.3999
21.8573
19.2401
17.4779
13.4696
10.7479
5.94634
1.63925
0.262801
-5.25955
28.0422
42.8743
34.5579
39.9275
37.9904
40.5442
39.1308
40.4818
39.8554
40.9188
40.6752
42.1618
41.8589
44.0539
44.2665
48.9917
49.2757
58.9488
58.6507
72.8782
60.1043
45.0993
42.3068
45.2546
44.1068
46.2764
46.2863
47.6
48.2788
49.7409
51.0321
53.3503
55.7968
60.0692
63.8545
70.7461
75.6308
86.8953
92.2591
113.632
121.55
61.8849
61.3662
61.3865
62.1476
62.8524
63.7743
65.035
66.3553
68.216
70.0254
72.8563
75.6054
79.3691
82.863
88.2802
93.2436
101.1
108.252
120.379
127.84
66.285
66.3872
66.5755
67.4215
68.3177
69.7205
71.3411
73.3659
75.7935
78.6494
81.8837
85.1682
89.3077
93.5619
99.0899
104.255
111.71
117.644
126.789
132.871
74.9061
75.2295
75.7196
77.1081
78.2608
79.7119
81.359
83.0383
85.2208
87.3013
89.8853
92.5541
95.8101
99.1541
103.022
107.071
111.661
116.186
121.513
127.249
78.8442
79.1673
79.8422
81.2774
82.5612
84.3583
86.1437
88.2728
90.5557
92.8963
95.6694
98.346
101.561
104.611
108.36
111.672
115.905
119.429
123.98
126.024
83.1188
83.3743
84.635
86.2637
88.1233
89.7525
91.7289
93.4501
95.4999
97.413
99.6014
101.727
104.092
106.454
108.918
111.501
113.94
116.395
118.796
121.597
86.2495
86.7774
88.1318
89.9569
91.8361
93.6104
95.5934
97.3319
99.4359
101.204
103.419
105.275
107.556
109.475
111.799
113.682
116.011
118.117
120.534
121.393
89.4852
90.2138
92.0275
93.905
96.008
97.681
99.5955
101.157
102.963
104.463
106.216
107.702
109.427
110.921
112.601
114.114
115.684
116.748
117.815
118.995
92.7071
93.3545
95.762
97.4569
99.8008
101.288
103.254
104.552
106.315
107.539
109.171
110.343
111.873
112.994
114.418
115.454
116.744
117.846
119.144
120.05
97.8334
98.4036
101.282
102.66
104.787
106.001
107.62
108.659
110.015
110.945
112.141
113.018
114.121
114.946
115.976
116.753
117.695
118.216
118.9
119.211
103.734
103.374
107.533
107.917
109.871
110.467
111.784
112.32
113.391
113.935
114.869
115.399
116.267
116.746
117.537
117.95
118.675
119.126
119.79
120.251
116.465
115.008
115.445
115.283
116.193
116.374
116.934
117.166
117.635
117.874
118.302
118.549
118.966
119.228
119.658
119.92
120.359
120.46
120.845
120.781
127.228
125.695
123.257
123.235
122.141
121.806
121.455
121.045
121.044
120.708
120.842
120.638
120.849
120.779
120.98
121.01
121.275
121.378
121.603
121.685
133.601
133.369
130.142
128.782
127.52
126.326
125.733
124.878
124.558
123.98
123.835
123.458
123.403
123.151
123.2
123.022
123.044
122.851
122.942
122.82
139.148
137.482
134.864
132.101
131.269
129.059
128.798
127.325
127.052
126.066
125.797
125.128
124.881
124.418
124.225
123.893
123.84
123.659
123.659
123.519
144.407
138.918
138.782
133.807
134.565
131.048
131.405
129.242
129.166
127.797
127.576
126.698
126.47
125.905
125.694
125.324
125.06
124.774
124.568
124.317
142.955
139.205
138.427
135.778
135.077
133.227
132.454
131.16
130.381
129.417
128.735
127.991
127.424
126.85
126.394
125.946
125.576
125.275
125.033
124.843
143.11
137.988
137.511
135.911
135.087
133.662
132.825
131.601
130.889
129.897
129.295
128.525
128.03
127.442
127.057
126.618
126.35
125.986
125.755