/*--------------------------------*- C++ -*----------------------------------*\
  =========                 |
  \\      /  F ield         | OpenFOAM: The Open Source CFD Toolbox
   \\    /   O peration     | Website:  https://openfoam.org
    \\  /    A nd           | Version:  9
     \\/     M anipulation  |
\*---------------------------------------------------------------------------*/
FoamFile
{
    format      ascii;
    class       surfaceScalarField;
    location    "6";
    object      phi;
}
// * * * * * * * * * * * * * * * * * * * * * * * * * * * * * * * * * * * * * //

dimensions      [0 3 -1 0 0 0 0];

internalField   nonuniform List<scalar> 
92080
(
-0.00578062
-0.445582
0.451363
-0.0363991
-0.843903
0.874522
-0.0779026
-0.8886
0.930104
-0.119829
-0.872135
0.914061
-0.161537
-0.858004
0.899712
-0.203488
-0.842871
0.884821
-0.245062
-0.831187
0.872762
-0.285722
-0.818475
0.859135
-0.326054
-0.807455
0.847787
-0.366154
-0.797529
0.837629
-0.405437
-0.787127
0.82641
-0.444379
-0.778326
0.817268
-0.483139
-0.769064
0.807825
-0.522354
-0.761267
0.800481
-0.560293
-0.755461
0.7934
-0.5976
-0.747093
0.7844
-0.63549
-0.73983
0.77772
-0.671857
-0.734276
0.770643
-0.705868
-0.726934
0.760944
-0.720941
0.753097
-0.738024
-0.00430093
-0.441281
-0.0403719
-0.807832
-0.0859157
-0.843057
-0.130755
-0.827296
-0.174009
-0.81475
-0.216824
-0.800056
-0.259176
-0.788835
-0.301373
-0.776279
-0.343496
-0.765332
-0.384666
-0.756359
-0.425955
-0.745838
-0.466467
-0.737814
-0.506042
-0.729489
-0.545738
-0.721572
-0.584879
-0.71632
-0.622086
-0.709886
-0.659354
-0.702561
-0.696695
-0.696935
-0.731059
-0.69257
-0.687598
-0.764402
0.000454609
-0.441736
-0.0394546
-0.767923
-0.0856193
-0.796892
-0.132337
-0.780578
-0.178158
-0.768929
-0.223515
-0.754699
-0.268261
-0.744089
-0.311579
-0.732961
-0.354986
-0.721925
-0.397303
-0.714042
-0.43885
-0.704291
-0.480738
-0.695927
-0.521726
-0.688501
-0.56303
-0.680268
-0.604037
-0.675312
-0.643362
-0.670562
-0.68144
-0.664484
-0.71989
-0.658484
-0.758109
-0.654352
-0.650641
-0.795065
0.0024071
-0.444143
-0.0392763
-0.72624
-0.0901704
-0.745998
-0.139864
-0.730884
-0.187972
-0.72082
-0.234603
-0.708068
-0.280885
-0.697807
-0.326174
-0.687672
-0.371004
-0.677095
-0.415266
-0.66978
-0.45815
-0.661407
-0.500835
-0.653242
-0.542362
-0.646974
-0.583591
-0.639038
-0.626519
-0.632384
-0.668625
-0.628455
-0.709211
-0.623897
-0.749479
-0.618216
-0.789999
-0.613833
-0.610172
-0.830468
0.00306427
-0.447207
-0.0402649
-0.68291
-0.0920433
-0.694219
-0.142501
-0.680426
-0.192052
-0.67127
-0.240444
-0.659676
-0.287828
-0.650423
-0.334092
-0.641409
-0.380461
-0.630726
-0.42622
-0.62402
-0.470763
-0.616864
-0.515117
-0.608887
-0.559083
-0.603009
-0.600601
-0.59752
-0.641933
-0.591052
-0.684574
-0.585814
-0.7259
-0.582571
-0.765952
-0.578164
-0.806348
-0.573437
-0.569498
-0.847022
9.95029e-05
-0.447307
-0.0476662
-0.635145
-0.102057
-0.639829
-0.154038
-0.628445
-0.204283
-0.621025
-0.253329
-0.61063
-0.301942
-0.60181
-0.348355
-0.594996
-0.394403
-0.584678
-0.440981
-0.577441
-0.485862
-0.571983
-0.530405
-0.564345
-0.575763
-0.557651
-0.621633
-0.551651
-0.665721
-0.546963
-0.70976
-0.541776
-0.754509
-0.537823
-0.797422
-0.535251
-0.838712
-0.532147
-0.528002
-0.880208
-0.0092252
-0.438081
-0.0572426
-0.587127
-0.110128
-0.586943
-0.162347
-0.576226
-0.213724
-0.569648
-0.262869
-0.561485
-0.3123
-0.552379
-0.360153
-0.547143
-0.406605
-0.538226
-0.454276
-0.52977
-0.500915
-0.525345
-0.544909
-0.52035
-0.587625
-0.514935
-0.630212
-0.509063
-0.674006
-0.50317
-0.71688
-0.498902
-0.760542
-0.49416
-0.805235
-0.490559
-0.848594
-0.488788
-0.48625
-0.890346
-0.0177713
-0.42031
-0.0675332
-0.537366
-0.119649
-0.534828
-0.171499
-0.524376
-0.223291
-0.517856
-0.273227
-0.511548
-0.32275
-0.502856
-0.371259
-0.498634
-0.416805
-0.49268
-0.463208
-0.483367
-0.512107
-0.476446
-0.560907
-0.471551
-0.608504
-0.467337
-0.653622
-0.463946
-0.697671
-0.459121
-0.741901
-0.454672
-0.784973
-0.451088
-0.828772
-0.44676
-0.873792
-0.443769
-0.442157
-0.917884
-0.0243306
-0.39598
-0.0770223
-0.484674
-0.132032
-0.479818
-0.183705
-0.472703
-0.235731
-0.465831
-0.286119
-0.46116
-0.336488
-0.452487
-0.387037
-0.448085
-0.433875
-0.445842
-0.476948
-0.440294
-0.520135
-0.433259
-0.564645
-0.42704
-0.610596
-0.421386
-0.656901
-0.417641
-0.701534
-0.414488
-0.745698
-0.410507
-0.789363
-0.407423
-0.831861
-0.404262
-0.874756
-0.400874
-0.398331
-0.918583
-0.0320228
-0.363957
-0.0847022
-0.431994
-0.137923
-0.426597
-0.191594
-0.419032
-0.245065
-0.41236
-0.296313
-0.409912
-0.346438
-0.402362
-0.3995
-0.395024
-0.453105
-0.392237
-0.503308
-0.390091
-0.550222
-0.386345
-0.595517
-0.381746
-0.640091
-0.376812
-0.685923
-0.371809
-0.731712
-0.368699
-0.776779
-0.36544
-0.821561
-0.36264
-0.86553
-0.360294
-0.908286
-0.358118
-0.355862
-0.950754
-0.03588
-0.328077
-0.0907521
-0.377122
-0.146125
-0.371224
-0.198156
-0.367001
-0.252291
-0.358224
-0.304462
-0.357741
-0.351832
-0.354991
-0.39866
-0.348196
-0.447905
-0.342992
-0.49821
-0.339785
-0.547154
-0.337401
-0.594748
-0.334152
-0.640361
-0.331199
-0.685223
-0.326947
-0.730437
-0.323485
-0.775608
-0.320268
-0.82077
-0.317478
-0.866148
-0.314916
-0.911234
-0.313031
-0.311242
-0.955855
-0.0417716
-0.286305
-0.0985763
-0.320318
-0.155873
-0.313927
-0.209578
-0.313296
-0.26421
-0.303592
-0.322538
-0.299414
-0.378133
-0.299396
-0.429635
-0.296694
-0.479417
-0.29321
-0.529554
-0.289648
-0.579014
-0.287941
-0.627855
-0.285312
-0.675504
-0.283549
-0.721453
-0.280998
-0.766398
-0.27854
-0.810611
-0.276056
-0.854301
-0.273788
-0.897666
-0.271551
-0.941149
-0.269548
-0.267939
-0.984452
-0.0438313
-0.242474
-0.0987423
-0.265407
-0.155572
-0.257098
-0.209394
-0.259475
-0.25681
-0.256175
-0.307606
-0.248618
-0.361104
-0.245897
-0.414575
-0.243224
-0.46651
-0.241275
-0.518175
-0.237983
-0.569647
-0.236468
-0.620513
-0.234446
-0.670966
-0.233096
-0.720702
-0.231262
-0.769443
-0.229799
-0.817392
-0.228107
-0.864543
-0.226637
-0.91087
-0.225224
-0.956671
-0.223747
-0.222461
-1.00215
-0.0562021
-0.186272
-0.113903
-0.207706
-0.172276
-0.198725
-0.233271
-0.19848
-0.288619
-0.200828
-0.339373
-0.197864
-0.390306
-0.194964
-0.441188
-0.192342
-0.492548
-0.189915
-0.542759
-0.187772
-0.593291
-0.185937
-0.643044
-0.184693
-0.692476
-0.183663
-0.741162
-0.182577
-0.789441
-0.181519
-0.837251
-0.180297
-0.884656
-0.179232
-0.931812
-0.178068
-0.97848
-0.177078
-0.176105
-1.02484
-0.0552276
-0.131044
-0.114766
-0.148168
-0.165239
-0.148251
-0.218088
-0.145631
-0.274804
-0.144111
-0.329576
-0.143092
-0.38289
-0.14165
-0.435151
-0.140081
-0.487016
-0.13805
-0.538907
-0.135881
-0.590442
-0.134403
-0.642194
-0.13294
-0.693466
-0.132392
-0.744169
-0.131874
-0.794127
-0.131561
-0.843324
-0.131101
-0.891891
-0.130665
-0.939791
-0.130168
-0.987284
-0.129586
-0.129057
-1.03433
-0.0523733
-0.0786709
-0.114807
-0.0857337
-0.170971
-0.0920873
-0.22712
-0.0894823
-0.283739
-0.0874919
-0.341782
-0.0850492
-0.399428
-0.0840035
-0.4553
-0.0842098
-0.508798
-0.0845522
-0.560512
-0.084166
-0.610945
-0.0839704
-0.660659
-0.0832258
-0.710142
-0.0829089
-0.759682
-0.0823343
-0.808981
-0.0822621
-0.85809
-0.0819919
-0.906844
-0.0819106
-0.955179
-0.0818333
-1.00303
-0.0817342
-0.0819009
-1.05019
-0.0516964
-0.0269745
-0.104048
-0.0333826
-0.163135
-0.0330003
-0.22299
-0.0296272
-0.280167
-0.0303146
-0.334841
-0.0303749
-0.388797
-0.0300476
-0.444064
-0.0289432
-0.499035
-0.0295812
-0.55326
-0.0299413
-0.606796
-0.030434
-0.659683
-0.0303391
-0.711586
-0.0310056
-0.762616
-0.0313045
-0.812896
-0.0319816
-0.862344
-0.0325442
-0.911224
-0.0330306
-0.95951
-0.0335477
-1.00735
-0.033892
-0.0343786
-1.05487
-0.0584258
0.0314513
-0.12428
0.0324715
-0.190267
0.0329868
-0.249855
0.0299609
-0.307873
0.0277037
-0.360829
0.0225808
-0.413715
0.0228384
-0.465531
0.0228731
-0.518324
0.0232113
-0.570749
0.0224835
-0.62367
0.0224875
-0.675219
0.02121
-0.725821
0.0195961
-0.775605
0.018479
-0.82487
0.0172844
-0.873868
0.0164529
-0.922753
0.0158552
-0.971063
0.0147622
-1.01926
0.0143015
0.0129611
-1.0666
-0.0446321
0.0760834
-0.098519
0.0863584
-0.152745
0.0872128
-0.211792
0.0890081
-0.270253
0.0861645
-0.330073
0.0824012
-0.389909
0.0826743
-0.446983
0.0799469
-0.502315
0.0785436
-0.556517
0.0766852
-0.609811
0.0757818
-0.661282
0.0726806
-0.713602
0.0719158
-0.765402
0.0702794
-0.817592
0.0694741
-0.869502
0.0683634
-0.920554
0.0669069
-0.971533
0.0657411
-1.02136
0.0641315
0.0629058
-1.07131
-0.0492398
0.125323
-0.109285
0.146404
-0.171778
0.149706
-0.233283
0.150513
-0.291648
0.14453
-0.350322
0.141074
-0.406476
0.138829
-0.462399
0.13587
-0.516772
0.132916
-0.570681
0.130594
-0.622858
0.127959
-0.675346
0.125168
-0.727671
0.124241
-0.778984
0.121592
-0.829857
0.120347
-0.878973
0.11748
-0.927903
0.115837
-0.976035
0.113872
-1.02396
0.112061
-1.0719
0.110841
0.0267722
-0.0903772
0.063605
0.128628
-0.380813
0.278958
0.252978
-0.830764
0.706414
0.329366
-1.10605
1.02966
0.360757
-1.19908
1.16769
0.372861
-1.21392
1.20182
0.38062
-1.21114
1.20338
0.383638
-1.20119
1.19818
0.386979
-1.19114
1.1878
0.389569
-1.18246
1.17987
0.392317
-1.17536
1.17262
0.394624
-1.16834
1.16603
0.395649
-1.16114
1.16011
0.396725
-1.15464
1.15356
0.39752
-1.14816
1.14736
0.398002
-1.14104
1.14056
0.39724
-1.1345
1.13526
0.395519
-1.12611
1.12783
0.392558
-1.11755
1.12051
-1.10437
0.390187
1.10674
0.0289625
-0.11934
0.136082
-0.487933
0.236893
-0.931575
0.292913
-1.16207
0.313272
-1.21944
0.322046
-1.2227
0.326485
-1.21558
0.328704
-1.20341
0.330638
-1.19308
0.332523
-1.18434
0.333726
-1.17657
0.334053
-1.16867
0.334664
-1.16175
0.334851
-1.15483
0.334035
-1.14734
0.332545
-1.13955
0.33069
-1.13265
0.328311
-1.12373
0.324854
-1.11409
-1.10055
0.321029
0.0347102
-0.15405
0.131464
-0.584686
0.214402
-1.01451
0.25142
-1.19909
0.262373
-1.23039
0.267189
-1.22751
0.267895
-1.21629
0.268847
-1.20436
0.269698
-1.19393
0.269845
-1.18449
0.26948
-1.1762
0.269232
-1.16842
0.268078
-1.1606
0.266177
-1.15292
0.263908
-1.14507
0.261655
-1.1373
0.25852
-1.12951
0.254314
-1.11953
0.248932
-1.10871
-1.09577
0.244152
0.0420803
-0.19613
0.124597
-0.667203
0.188314
-1.07823
0.211805
-1.22258
0.21847
-1.23706
0.220485
-1.22953
0.220792
-1.2166
0.220803
-1.20438
0.21983
-1.19295
0.218464
-1.18312
0.216846
-1.17458
0.214155
-1.16573
0.211104
-1.15754
0.207965
-1.14979
0.204174
-1.14128
0.199695
-1.13282
0.19444
-1.12426
0.188799
-1.11389
0.18288
-1.10279
-1.08985
0.176963
0.0416944
-0.237825
0.111264
-0.736773
0.15971
-1.12668
0.173119
-1.23599
0.175596
-1.23954
0.173942
-1.22788
0.171675
-1.21433
0.168984
-1.20168
0.165942
-1.18991
0.162437
-1.17962
0.158314
-1.17046
0.154216
-1.16163
0.149837
-1.15316
0.14475
-1.1447
0.139226
-1.13576
0.133537
-1.12713
0.127518
-1.11824
0.12091
-1.10728
0.113474
-1.09536
-1.08229
0.105918
0.0348116
-0.272636
0.0923879
-0.79435
0.12935
-1.16364
0.136485
-1.24312
0.136422
-1.23947
0.13322
-1.22467
0.129824
-1.21093
0.125641
-1.1975
0.12089
-1.18516
0.115628
-1.17435
0.110204
-1.16504
0.104051
-1.15548
0.0972752
-1.14639
0.0903879
-1.13781
0.0831138
-1.12848
0.0754478
-1.11946
0.0668636
-1.10965
0.0578072
-1.09822
0.0485268
-1.08607
-1.07324
0.0394692
0.0361944
-0.308831
0.0853514
-0.843507
0.107616
-1.1859
0.108007
-1.24351
0.102487
-1.23395
0.0958118
-1.218
0.0888783
-1.204
0.0817355
-1.19036
0.0740153
-1.17744
0.0661056
-1.16645
0.0577521
-1.15668
0.0491617
-1.14689
0.0405771
-1.1378
0.0316791
-1.12891
0.0225255
-1.11933
0.0131907
-1.11013
0.0038038
-1.10027
-0.00589453
-1.08852
-0.0159083
-1.07606
-1.06283
-0.0263111
0.0308493
-0.33968
0.07214
-0.884797
0.0860216
-1.19978
0.0809387
-1.23843
0.0725382
-1.22555
0.0638413
-1.2093
0.0545426
-1.1947
0.0446415
-1.18046
0.0347648
-1.16756
0.0243504
-1.15603
0.0139346
-1.14627
0.00328968
-1.13624
-0.00785774
-1.12666
-0.0191083
-1.11766
-0.0304946
-1.10794
-0.0419046
-1.09872
-0.0539474
-1.08822
-0.0661907
-1.07628
-0.0787619
-1.06349
-1.05045
-0.0911461
0.0257562
-0.365436
0.0562435
-0.915284
0.0604298
-1.20397
0.0516874
-1.22969
0.0403076
-1.21417
0.0286749
-1.19767
0.016709
-1.18273
0.00489303
-1.16864
-0.00768355
-1.15499
-0.0202877
-1.14343
-0.033193
-1.13336
-0.0464393
-1.123
-0.059681
-1.11342
-0.07308
-1.10426
-0.0866927
-1.09433
-0.100583
-1.08483
-0.114614
-1.07419
-0.128862
-1.06203
-0.1433
-1.04905
-1.03575
-0.157996
0.0230205
-0.388457
0.0482146
-0.940479
0.0471421
-1.2029
0.0341592
-1.2167
0.0193558
-1.19937
0.00465473
-1.18297
-0.0105231
-1.16756
-0.0262705
-1.15289
-0.0415482
-1.13971
-0.0574371
-1.12754
-0.0732097
-1.11759
-0.0888858
-1.10732
-0.104782
-1.09752
-0.120604
-1.08844
-0.136304
-1.07863
-0.15174
-1.06939
-0.167396
-1.05854
-0.183234
-1.04619
-0.199295
-1.03299
-1.0196
-0.215448
0.0185276
-0.406984
0.0345669
-0.956518
0.0249546
-1.19329
0.00786128
-1.19961
-0.00968618
-1.18182
-0.0271349
-1.16552
-0.0445712
-1.15012
-0.0617337
-1.13573
-0.0795491
-1.12189
-0.0972136
-1.10987
-0.115045
-1.09976
-0.13305
-1.08932
-0.151051
-1.07952
-0.169058
-1.07044
-0.187031
-1.06066
-0.20495
-1.05147
-0.222502
-1.04098
-0.23972
-1.02898
-0.256389
-1.01632
-1.00313
-0.272862
0.0161313
-0.423115
0.0262604
-0.966647
0.0131797
-1.1802
-0.00654811
-1.17988
-0.0270321
-1.16134
-0.0474869
-1.14506
-0.0682778
-1.12933
-0.0893099
-1.1147
-0.109715
-1.10149
-0.130779
-1.08881
-0.151723
-1.07882
-0.172422
-1.06862
-0.193195
-1.05875
-0.213869
-1.04976
-0.234284
-1.04024
-0.254301
-1.03146
-0.274169
-1.02111
-0.29387
-1.00928
-0.313341
-0.996851
-0.983598
-0.332869
0.0122655
-0.435381
0.0166267
-0.971008
-0.00260044
-1.16098
-0.0265262
-1.15596
-0.0502908
-1.13757
-0.0738263
-1.12153
-0.09696
-1.1062
-0.120126
-1.09153
-0.143506
-1.07811
-0.166555
-1.06576
-0.189699
-1.05567
-0.212647
-1.04567
-0.235391
-1.036
-0.258017
-1.02714
-0.280479
-1.01778
-0.302466
-1.00947
-0.32375
-0.999832
-0.344686
-0.98834
-0.364913
-0.976624
-0.963611
-0.3849
0.00998292
-0.445364
0.0087831
-0.969808
-0.0142656
-1.13793
-0.0403798
-1.12984
-0.066668
-1.11129
-0.0928772
-1.09532
-0.119068
-1.08
-0.144954
-1.06565
-0.170353
-1.05271
-0.196306
-1.03981
-0.222259
-1.02972
-0.24803
-1.0199
-0.273723
-1.01031
-0.299287
-1.00157
-0.324732
-0.992338
-0.34983
-0.984371
-0.374137
-0.975526
-0.397679
-0.964798
-0.4205
-0.953803
-0.940942
-0.443169
0.00708279
-0.452447
0.0023681
-0.965094
-0.0255538
-1.11001
-0.055852
-1.09954
-0.0853926
-1.08174
-0.114648
-1.06606
-0.14328
-1.05137
-0.172227
-1.0367
-0.200762
-1.02418
-0.228843
-1.01173
-0.25707
-1.00149
-0.2849
-0.992069
-0.312464
-0.982743
-0.339676
-0.97436
-0.36679
-0.965224
-0.393482
-0.957679
-0.419415
-0.949593
-0.444809
-0.939404
-0.468972
-0.92964
-0.917067
-0.492846
0.00418809
-0.456635
-0.0061066
-0.954799
-0.0359019
-1.08021
-0.0677158
-1.06773
-0.099388
-1.05007
-0.131207
-1.03425
-0.162767
-1.01981
-0.193693
-1.00577
-0.224489
-0.99338
-0.255395
-0.98082
-0.286336
-0.970551
-0.317034
-0.96137
-0.347545
-0.952233
-0.377768
-0.944137
-0.407933
-0.93506
-0.438206
-0.927406
-0.467398
-0.9204
-0.495677
-0.911125
-0.522611
-0.902706
-0.890855
-0.548823
0.00161553
-0.45825
-0.0127131
-0.94047
-0.0467639
-1.04616
-0.0823166
-1.03218
-0.116687
-1.0157
-0.150582
-1.00035
-0.183946
-0.986449
-0.217683
-0.972036
-0.250626
-0.960437
-0.283358
-0.948088
-0.316615
-0.937295
-0.3496
-0.928385
-0.382292
-0.919541
-0.414464
-0.911965
-0.446296
-0.903228
-0.478209
-0.895493
-0.509621
-0.888988
-0.540328
-0.880418
-0.569577
-0.873457
-0.862826
-0.597606
-0.000230429
-0.45802
-0.0188946
-0.921806
-0.0545161
-1.01054
-0.0912675
-0.995426
-0.127986
-0.978983
-0.164878
-0.963459
-0.201138
-0.950189
-0.23682
-0.936354
-0.272652
-0.924605
-0.3077
-0.91304
-0.342913
-0.902083
-0.378275
-0.893022
-0.413608
-0.884208
-0.448459
-0.877114
-0.482943
-0.868744
-0.517961
-0.860474
-0.552468
-0.854482
-0.586349
-0.846537
-0.619899
-0.839906
-0.831109
-0.651616
-0.00205205
-0.455968
-0.0236605
-0.900198
-0.0627006
-0.971499
-0.102471
-0.955656
-0.140982
-0.940471
-0.179259
-0.925183
-0.217228
-0.91222
-0.255177
-0.898405
-0.29234
-0.887442
-0.329425
-0.875955
-0.366639
-0.864868
-0.403976
-0.855685
-0.441631
-0.846554
-0.479258
-0.839486
-0.515982
-0.83202
-0.553098
-0.823358
-0.590512
-0.817068
-0.627453
-0.809597
-0.66541
-0.801949
-0.795223
-0.701296
-0.00460519
-0.0302814
-0.0716767
-0.113271
-0.15403
-0.194392
-0.23385
-0.273119
-0.312774
-0.3511
-0.389559
-0.427976
-0.466705
-0.50571
-0.54433
-0.583288
-0.622636
-0.66159
-0.702594
-0.74472
0.324301
-9.59904
9.66493
0.278541
-9.14093
9.18669
0.241296
-9.15781
9.19505
0.204798
-8.89055
8.92705
0.182945
-8.87673
8.89858
0.16597
-8.70966
8.72664
0.154548
-8.71006
8.72148
0.141503
-8.60114
8.61419
0.12984
-8.57506
8.58672
0.112884
-8.44681
8.46376
0.100383
-8.38003
8.39253
0.0895413
-8.40059
8.41143
0.0770206
-8.38969
8.40221
0.0701955
-8.43903
8.44586
0.063827
-8.52129
8.52766
0.0551767
-8.35611
8.36476
0.0509738
-8.38399
8.38819
0.032461
-7.34442
7.36294
0.0187716
-5.34588
5.35957
-2.25461
2.27338
0.251008
-9.52902
0.20487
-9.09479
0.16929
-9.12223
0.1359
-8.85716
0.117117
-8.85795
0.103109
-8.69565
0.0941544
-8.7011
0.0842802
-8.59127
0.0763094
-8.56709
0.0640291
-8.43453
0.0569842
-8.37299
0.0503894
-8.39399
0.0431291
-8.38243
0.0417595
-8.43766
0.0400201
-8.51955
0.0360579
-8.35215
0.036519
-8.38445
0.0249971
-7.3329
0.0150029
-5.33589
-2.23961
0.176418
-9.46129
0.130918
-9.04929
0.0951236
-9.08644
0.0635239
-8.82556
0.0471604
-8.84158
0.0375475
-8.68604
0.0326411
-8.6962
0.0261763
-8.5848
0.0226468
-8.56356
0.0170056
-8.42889
0.0163181
-8.3723
0.0141653
-8.39184
0.0109618
-8.37923
0.013596
-8.44029
0.0162586
-8.52221
0.0172419
-8.35313
0.0220911
-8.3893
0.0170431
-7.32785
0.0128864
-5.33173
-2.22672
0.102803
-9.38713
0.0544397
-9.00093
0.0188331
-9.05083
-0.00690734
-8.79982
-0.018614
-8.82988
-0.0247635
-8.67989
-0.0273578
-8.6936
-0.030619
-8.58154
-0.0309934
-8.56318
-0.0318381
-8.42804
-0.0271189
-8.37702
-0.0247624
-8.39419
-0.0225357
-8.38145
-0.0146186
-8.44821
-0.00744843
-8.52938
-0.00133423
-8.35925
0.00795636
-8.39859
0.00954937
-7.32945
0.00948774
-5.33167
-2.21723
0.0303883
-9.31159
-0.0166561
-8.95389
-0.0510116
-9.01647
-0.0759459
-8.77489
-0.0859063
-8.81992
-0.0894549
-8.67634
-0.0886397
-8.69442
-0.0881483
-8.58203
-0.0833617
-8.56797
-0.0778862
-8.43352
-0.0676006
-8.3873
-0.0604392
-8.40136
-0.0541811
-8.38771
-0.0426451
-8.45975
-0.0310561
-8.54097
-0.0198232
-8.37048
-0.006163
-8.41225
0.0017877
-7.3374
0.00709864
-5.33698
-2.21013
-0.0413994
-9.23073
-0.0919098
-8.90338
-0.124629
-8.98375
-0.145982
-8.75354
-0.152558
-8.81334
-0.152827
-8.67607
-0.148495
-8.69875
-0.144533
-8.586
-0.136383
-8.57612
-0.126254
-8.44365
-0.111093
-8.40247
-0.0989974
-8.41345
-0.0871453
-8.39956
-0.0706777
-8.47622
-0.0545896
-8.55706
-0.0382719
-8.3868
-0.0200488
-8.43047
-0.0056169
-7.35183
0.00403635
-5.34664
-2.2061
-0.110065
-9.14697
-0.162299
-8.85114
-0.193741
-8.95231
-0.213221
-8.73406
-0.217613
-8.80895
-0.215368
-8.67832
-0.207997
-8.70612
-0.200475
-8.59352
-0.187251
-8.58934
-0.170983
-8.45991
-0.150857
-8.42259
-0.133876
-8.43043
-0.118131
-8.41531
-0.0983262
-8.49602
-0.0780961
-8.57729
-0.0568078
-8.40809
-0.034057
-8.45322
-0.012897
-7.37299
0.00234278
-5.36188
-2.20376
-0.177662
-9.06046
-0.232192
-8.79661
-0.262619
-8.92189
-0.2804
-8.71628
-0.28312
-8.80623
-0.27836
-8.68308
-0.267662
-8.71682
-0.256294
-8.60489
-0.239298
-8.60634
-0.218593
-8.48062
-0.193665
-8.44752
-0.171551
-8.45255
-0.150283
-8.43658
-0.125907
-8.5204
-0.101577
-8.60162
-0.0755773
-8.43409
-0.0478361
-8.48096
-0.0203418
-7.40048
-0.000129846
-5.38209
-2.20389
-0.243252
-8.9752
-0.300671
-8.73919
-0.331129
-8.89143
-0.346868
-8.70054
-0.346511
-8.80658
-0.338688
-8.6909
-0.324633
-8.73087
-0.310159
-8.61936
-0.288634
-8.62787
-0.262232
-8.50702
-0.232461
-8.47729
-0.205423
-8.47958
-0.180356
-8.46164
-0.153145
-8.54761
-0.124942
-8.62982
-0.0943421
-8.46469
-0.0621448
-8.51316
-0.0275883
-7.43504
-0.00148208
-5.40819
-2.20537
-0.312859
-8.87779
-0.366716
-8.68534
-0.395261
-8.86288
-0.410529
-8.68527
-0.409385
-8.80773
-0.400071
-8.70022
-0.383528
-8.74742
-0.365063
-8.63783
-0.339136
-8.65379
-0.308589
-8.53757
-0.27449
-8.51139
-0.242386
-8.51169
-0.211634
-8.4924
-0.180477
-8.57876
-0.148338
-8.66196
-0.112854
-8.50017
-0.0757529
-8.55026
-0.0345439
-7.47625
-0.00300415
-5.43973
-2.20837
-0.372729
-8.77792
-0.434257
-8.62381
-0.461988
-8.83515
-0.474541
-8.67272
-0.470517
-8.81175
-0.458022
-8.71271
-0.437732
-8.76771
-0.416406
-8.65915
-0.386901
-8.6833
-0.351368
-8.5731
-0.312671
-8.55009
-0.275746
-8.54861
-0.240671
-8.52747
-0.20695
-8.61248
-0.171308
-8.69761
-0.131155
-8.54032
-0.089439
-8.59198
-0.0414442
-7.52424
-0.00383885
-5.47734
-2.21221
-0.437966
-8.67283
-0.496743
-8.56503
-0.523925
-8.80797
-0.535719
-8.66092
-0.530802
-8.81667
-0.51741
-8.7261
-0.49486
-8.79026
-0.469023
-8.68499
-0.435339
-8.71698
-0.396394
-8.61205
-0.353806
-8.59267
-0.31197
-8.59045
-0.270908
-8.56853
-0.232833
-8.65056
-0.193588
-8.73685
-0.149125
-8.58479
-0.102298
-8.6388
-0.0479568
-7.57859
-0.00490832
-5.52039
-2.21712
-0.496115
-8.56161
-0.559938
-8.50121
-0.585928
-8.78198
-0.59604
-8.65081
-0.589047
-8.82366
-0.572604
-8.74255
-0.546425
-8.81644
-0.517866
-8.71355
-0.481341
-8.75351
-0.438181
-8.65521
-0.390886
-8.63997
-0.344506
-8.63683
-0.299197
-8.61384
-0.258173
-8.69158
-0.21562
-8.7794
-0.16685
-8.63356
-0.114964
-8.69069
-0.0540906
-7.63946
-0.00559372
-5.56889
-2.22271
-0.557353
-8.44743
-0.620459
-8.4381
-0.646063
-8.75638
-0.655149
-8.64172
-0.64701
-8.8318
-0.62963
-8.75993
-0.600918
-8.84515
-0.56785
-8.74662
-0.527369
-8.79399
-0.481304
-8.70127
-0.430517
-8.69076
-0.379732
-8.68761
-0.328704
-8.66487
-0.283092
-8.7372
-0.237153
-8.82534
-0.18426
-8.68645
-0.126793
-8.74816
-0.0598018
-7.70645
-0.00622241
-5.62246
-2.22894
-0.613565
-8.32671
-0.679761
-8.37191
-0.703491
-8.73264
-0.7115
-8.63371
-0.701756
-8.84155
-0.681349
-8.78033
-0.649694
-8.8768
-0.614216
-8.7821
-0.570983
-8.83722
-0.521045
-8.75121
-0.465915
-8.74589
-0.41124
-8.74229
-0.356408
-8.7197
-0.307398
-8.78621
-0.258196
-8.87454
-0.201314
-8.74333
-0.138587
-8.81088
-0.0659573
-7.77908
-0.0069991
-5.68142
-2.23593
-0.67051
-8.20502
-0.737281
-8.30514
-0.760902
-8.70902
-0.768283
-8.62633
-0.757572
-8.85226
-0.735645
-8.80226
-0.701029
-8.91142
-0.661583
-8.82154
-0.615001
-8.8838
-0.562101
-8.80411
-0.503775
-8.80421
-0.445345
-8.80072
-0.385463
-8.77959
-0.331796
-8.83987
-0.279033
-8.92731
-0.21791
-8.80445
-0.14984
-8.87895
-0.0718555
-7.85706
-0.00776683
-5.74551
-2.2437
-0.724547
-8.07808
-0.793179
-8.2365
-0.814173
-8.68803
-0.819768
-8.62074
-0.807785
-8.86424
-0.783514
-8.82653
-0.746429
-8.9485
-0.704223
-8.86375
-0.655144
-8.93288
-0.599284
-8.85997
-0.537388
-8.86611
-0.475639
-8.86247
-0.412644
-8.84258
-0.355588
-8.89693
-0.299077
-8.98382
-0.233808
-8.86972
-0.161076
-8.95169
-0.078216
-7.93992
-0.00832063
-5.81541
-2.25202
-0.781569
-7.94813
-0.850978
-8.16709
-0.869924
-8.66908
-0.873808
-8.61685
-0.860735
-8.87731
-0.834294
-8.85297
-0.794206
-8.98859
-0.748239
-8.90971
-0.695881
-8.98524
-0.637675
-8.91818
-0.573402
-8.93038
-0.508372
-8.9275
-0.440962
-8.90999
-0.379252
-8.95864
-0.318857
-9.04421
-0.249293
-8.93929
-0.171942
-9.02904
-0.084232
-8.02763
-0.00915693
-5.89048
-2.26118
-0.829182
-7.82024
-0.90412
-8.09216
-0.920936
-8.65227
-0.924237
-8.61355
-0.90868
-8.89287
-0.880108
-8.88155
-0.837414
-9.03128
-0.788531
-8.9586
-0.733492
-9.04028
-0.672604
-8.97906
-0.605363
-8.99762
-0.537734
-8.99513
-0.467604
-8.98012
-0.402295
-9.02395
-0.337839
-9.10867
-0.26444
-9.01269
-0.182671
-9.11081
-0.0912702
-8.11904
-0.0107455
-5.97101
-2.27192
-0.869691
-7.69527
-0.95046
-8.01139
-0.969404
-8.63332
-0.968943
-8.61401
-0.953087
-8.90873
-0.923089
-8.91154
-0.879518
-9.07486
-0.827719
-9.01039
-0.770214
-9.09778
-0.70747
-9.04181
-0.638446
-9.06665
-0.567422
-9.06615
-0.493435
-9.05411
-0.423972
-9.09341
-0.355986
-9.17665
-0.279117
-9.08955
-0.192992
-9.19693
-0.0976561
-8.21437
-0.0108221
-6.05784
-2.28275
5.91225
-7.28971
-6.31781
5.3789
-7.47804
4.69724
-7.95166
4.14838
-8.06515
3.60663
-8.36699
3.14302
-8.44793
2.69315
-8.62499
2.31942
-8.63666
1.97327
-8.75163
1.68683
-8.75537
1.4547
-8.83452
1.24686
-8.85831
1.08532
-8.89257
0.936944
-8.94504
0.75372
-8.99343
0.645485
-8.98132
0.477134
-9.02858
0.350025
-8.08726
0.200721
-5.90854
-2.08203
3.02952
-7.2168
-3.10243
2.95708
-7.4056
2.72407
-7.71866
2.54231
-7.88339
2.28966
-8.11434
2.0711
-8.22936
1.81617
-8.37006
1.61656
-8.43705
1.40303
-8.5381
1.2429
-8.59525
1.07468
-8.66629
0.933561
-8.71719
0.824347
-8.78335
0.707775
-8.82846
0.596458
-8.88211
0.511259
-8.89612
0.34861
-8.86593
0.253761
-7.99241
-0.0240805
-5.6307
-2.10611
1.77246
-7.3324
-1.65686
1.89276
-7.5259
1.88575
-7.71165
1.86052
-7.85816
1.74541
-7.99922
1.62949
-8.11343
1.49151
-8.23209
1.36518
-8.31072
1.22495
-8.39786
1.09937
-8.46967
0.970325
-8.53725
0.851513
-8.59838
0.725128
-8.65697
0.601388
-8.70472
0.478012
-8.75874
0.380532
-8.79864
0.280215
-8.76561
0.196502
-7.9087
0.0427328
-5.47693
-2.06337
0.822109
-7.52605
-0.628462
0.949629
-7.65342
0.993742
-7.75576
1.02712
-7.89154
1.00674
-7.97884
0.959625
-8.06631
0.895232
-8.1677
0.829263
-8.24476
0.753556
-8.32216
0.676002
-8.39212
0.599114
-8.46036
0.521066
-8.52033
0.438816
-8.57472
0.3678
-8.63371
0.297327
-8.68826
0.241383
-8.7427
0.150523
-8.67475
0.124841
-7.88302
0.0869943
-5.43908
-1.97638
0.281555
-7.68175
-0.125857
0.390748
-7.76262
0.470479
-7.83549
0.527094
-7.94816
0.560948
-8.0127
0.570587
-8.07595
0.548032
-8.14514
0.521408
-8.21813
0.476459
-8.27721
0.428837
-8.34449
0.364589
-8.39611
0.30075
-8.45649
0.236486
-8.51045
0.170873
-8.5681
0.10852
-8.62591
0.0406992
-8.67488
-0.0224464
-8.61161
-0.00159456
-7.90387
0.0396686
-5.48034
-1.93671
-0.0737634
-7.81998
0.212001
0.043355
-7.87974
0.12876
-7.9209
0.162762
-7.98216
0.180619
-8.03055
0.187871
-8.08321
0.180144
-8.13741
0.164132
-8.20212
0.143517
-8.25659
0.109663
-8.31064
0.0791191
-8.36557
0.0401836
-8.41756
-0.00319937
-8.46707
-0.0506268
-8.52067
-0.10549
-8.57105
-0.150125
-8.63024
-0.182863
-8.57887
-0.128854
-7.95788
0.0102545
-5.61945
-1.92646
-0.292098
-7.90947
0.381581
-0.223645
-7.94819
-0.170882
-7.97366
-0.125179
-8.02786
-0.0886583
-8.06707
-0.0633179
-8.10855
-0.0528665
-8.14787
-0.0573001
-8.19769
-0.0737023
-8.24019
-0.0983775
-8.28597
-0.132935
-8.33101
-0.175402
-8.37509
-0.218761
-8.42371
-0.265835
-8.47359
-0.308355
-8.52853
-0.351775
-8.58682
-0.369521
-8.56112
-0.283108
-8.04429
-0.0498
-5.85276
-1.97626
-0.422115
-7.98116
0.49381
-0.362628
-8.00768
-0.309703
-8.02658
-0.279251
-8.05831
-0.262498
-8.08383
-0.254455
-8.11659
-0.256864
-8.14546
-0.268384
-8.18617
-0.283961
-8.22461
-0.307007
-8.26292
-0.33473
-8.30329
-0.366583
-8.34324
-0.405186
-8.38511
-0.45024
-8.42854
-0.501182
-8.47759
-0.554967
-8.53304
-0.58102
-8.53507
-0.483685
-8.14163
-0.15133
-6.18512
-2.12759
-0.488496
-8.02239
0.529722
-0.457952
-8.03822
-0.434665
-8.04987
-0.420442
-8.07254
-0.409784
-8.09449
-0.402869
-8.1235
-0.397138
-8.15119
-0.402802
-8.1805
-0.416701
-8.21071
-0.439766
-8.23986
-0.467181
-8.27587
-0.504016
-8.3064
-0.546956
-8.34217
-0.596684
-8.37881
-0.648939
-8.42533
-0.707519
-8.47446
-0.752533
-8.49006
-0.673548
-8.22061
-0.287639
-6.57102
-2.41522
-0.533824
-8.05244
0.563873
-0.511832
-8.06021
-0.491945
-8.06976
-0.477993
-8.08649
-0.469168
-8.10331
-0.468494
-8.12418
-0.475757
-8.14392
-0.492532
-8.16373
-0.516215
-8.18703
-0.545353
-8.21072
-0.583047
-8.23818
-0.624923
-8.26453
-0.672859
-8.29423
-0.733182
-8.31849
-0.800648
-8.35786
-0.881614
-8.39349
-0.950002
-8.42167
-0.913107
-8.2575
-0.509559
-6.97457
-2.92478
-0.535482
-8.06681
0.54986
-0.524032
-8.07166
-0.515649
-8.07814
-0.513013
-8.08912
-0.515041
-8.10128
-0.523114
-8.1161
-0.536438
-8.1306
-0.556069
-8.1441
-0.577535
-8.16557
-0.605983
-8.18227
-0.641688
-8.20247
-0.685864
-8.22035
-0.739463
-8.24063
-0.803672
-8.25428
-0.889101
-8.27244
-0.99606
-8.28653
-1.10362
-8.31411
-1.10827
-8.25286
-0.759133
-7.32371
-3.68392
-0.520129
-8.07057
0.523888
-0.516605
-8.07518
-0.514544
-8.0802
-0.516827
-8.08684
-0.523019
-8.09509
-0.535216
-8.10391
-0.550412
-8.1154
-0.569243
-8.12527
-0.596703
-8.13811
-0.630073
-8.1489
-0.670963
-8.16158
-0.718434
-8.17288
-0.775091
-8.18398
-0.833807
-8.19556
-0.911759
-8.19448
-1.01391
-8.18438
-1.13981
-8.18821
-1.20568
-8.18699
-0.957916
-7.57147
-4.64183
-0.457859
-8.06651
0.453798
-0.463511
-8.06953
-0.46967
-8.07405
-0.478624
-8.07789
-0.489304
-8.08441
-0.503617
-8.08959
-0.522393
-8.09663
-0.543684
-8.10397
-0.570671
-8.11112
-0.603049
-8.11652
-0.641042
-8.12359
-0.686519
-8.1274
-0.740023
-8.13047
-0.805619
-8.12997
-0.878592
-8.12151
-0.957357
-8.10561
-1.04342
-8.10215
-1.11233
-8.11807
-0.930855
-7.75295
-5.57269
-0.385894
-8.06087
0.380253
-0.393436
-8.06199
-0.402856
-8.06463
-0.413434
-8.06731
-0.426085
-8.07176
-0.44014
-8.07554
-0.456462
-8.08031
-0.479213
-8.08122
-0.504063
-8.08627
-0.533525
-8.08706
-0.566356
-8.09076
-0.605975
-8.08778
-0.649097
-8.08735
-0.699809
-8.07925
-0.748688
-8.07263
-0.798126
-8.05618
-0.85462
-8.04566
-0.92056
-8.05213
-0.801233
-7.87227
-6.37392
-0.319178
-8.05187
0.31018
-0.328482
-8.05269
-0.338231
-8.05488
-0.349722
-8.05582
-0.363498
-8.05798
-0.380821
-8.05822
-0.399705
-8.06142
-0.418835
-8.06209
-0.439528
-8.06558
-0.462755
-8.06383
-0.487731
-8.06578
-0.51486
-8.06065
-0.542659
-8.05955
-0.571829
-8.05008
-0.597272
-8.04719
-0.619861
-8.03359
-0.641361
-8.02416
-0.695637
-7.99786
-0.638997
-7.92891
-7.01292
-0.232375
-8.04064
0.221146
-0.24392
-8.04114
-0.255784
-8.04301
-0.267554
-8.04405
-0.278948
-8.04659
-0.290592
-8.04657
-0.303609
-8.0484
-0.318017
-8.04769
-0.33446
-8.04913
-0.351645
-8.04665
-0.36971
-8.04772
-0.387225
-8.04314
-0.403166
-8.04361
-0.41743
-8.03582
-0.430091
-8.03453
-0.441276
-8.0224
-0.447692
-8.01774
-0.464409
-7.98114
-0.432676
-7.96065
-7.44559
-0.167307
-8.03391
0.160575
-0.174479
-8.03397
-0.183312
-8.03418
-0.193777
-8.03358
-0.206103
-8.03426
-0.217963
-8.03471
-0.230066
-8.0363
-0.242332
-8.03542
-0.254562
-8.0369
-0.266405