/*--------------------------------*- C++ -*----------------------------------*\
  =========                 |
  \\      /  F ield         | OpenFOAM: The Open Source CFD Toolbox
   \\    /   O peration     | Website:  https://openfoam.org
    \\  /    A nd           | Version:  9
     \\/     M anipulation  |
\*---------------------------------------------------------------------------*/
FoamFile
{
    format      ascii;
    class       volVectorField;
    location    "6";
    object      U;
}
// * * * * * * * * * * * * * * * * * * * * * * * * * * * * * * * * * * * * * //

dimensions      [0 1 -1 0 0 0 0];

internalField   nonuniform List<vector> 
46400
(
(8.13442 -7.7163 2.21047e-20)
(15.3749 -15.0497 -7.75282e-20)
(15.9998 -16.276 -3.5987e-20)
(15.3041 -16.3971 -7.37537e-20)
(14.7184 -16.4126 -2.77596e-20)
(14.1144 -16.4843 2.77419e-19)
(13.6029 -16.593 -1.74733e-19)
(13.0952 -16.6668 6.1724e-20)
(12.6044 -16.7488 -6.48657e-20)
(12.1765 -16.8383 6.75315e-20)
(11.7405 -16.9376 -6.97378e-20)
(11.3469 -17.0033 0)
(10.9308 -17.0753 4.52948e-19)
(10.5998 -17.1756 -5.17789e-19)
(10.2509 -17.2886 -6.24494e-19)
(9.89905 -17.31 -9.39062e-20)
(9.56806 -17.4107 -1.7278e-20)
(9.29319 -17.4803 4.81407e-19)
(8.96739 -17.4504 6.41028e-19)
(8.54111 -17.6465 -5.87625e-19)
(8.35312 -7.25867 0)
(15.3225 -13.9094 -2.52231e-20)
(15.6955 -14.8939 0)
(14.9704 -15.0864 2.75261e-19)
(14.458 -15.217 -2.2901e-19)
(13.8624 -15.3258 5.34821e-20)
(13.3514 -15.4635 0)
(12.8415 -15.5528 -6.17235e-20)
(12.3668 -15.7041 6.48645e-20)
(11.9382 -15.81 -6.75295e-20)
(11.4755 -15.9183 7.14437e-19)
(11.0991 -16.037 2.04882e-20)
(10.7088 -16.1584 -5.71293e-19)
(10.3467 -16.2357 0)
(10.0418 -16.407 7.53561e-20)
(9.73194 -16.4908 7.62164e-20)
(9.40362 -16.5752 0)
(9.15471 -16.6763 -6.93055e-19)
(8.92314 -16.781 -1.71853e-19)
(8.55235 -16.9738 6.96157e-19)
(8.64649 -6.83165 1.71241e-19)
(15.1193 -12.6434 -3.00637e-19)
(15.4088 -13.5837 2.82553e-19)
(14.7458 -13.8073 3.35321e-19)
(14.171 -13.9813 -3.29207e-19)
(13.5853 -14.1255 0)
(13.0663 -14.3294 -8.51294e-19)
(12.5661 -14.4572 7.35746e-19)
(12.0632 -14.6075 -8.81683e-19)
(11.6657 -14.7785 8.69529e-19)
(11.2264 -14.9156 7.90741e-19)
(10.8529 -15.0581 -9.05359e-20)
(10.4639 -15.2068 -6.74832e-19)
(10.1285 -15.3369 0)
(9.79684 -15.5061 7.94502e-19)
(9.49991 -15.6371 -7.82455e-19)
(9.17603 -15.7529 0)
(8.90318 -15.8293 -1.33017e-20)
(8.64747 -15.9645 8.92103e-20)
(8.31341 -16.2269 -7.99088e-19)
(8.97609 -6.47927 -2.8302e-19)
(14.8054 -11.4073 8.09121e-20)
(14.9391 -12.2669 4.20276e-19)
(14.2057 -12.4957 -4.14339e-19)
(13.6846 -12.7743 -3.25717e-19)
(13.1067 -12.9566 4.39297e-19)
(12.5989 -13.1996 5.6339e-19)
(12.1369 -13.3937 -1.38153e-18)
(11.6564 -13.6007 1.14353e-18)
(11.2651 -13.7948 -1.06287e-19)
(10.8285 -13.9825 0)
(10.4485 -14.1201 1.0692e-19)
(10.0866 -14.3254 -1.06878e-19)
(9.72134 -14.418 0)
(9.4282 -14.6406 9.1308e-19)
(9.16899 -14.8302 -7.79461e-19)
(8.87172 -15.009 0)
(8.60858 -15.1259 1.04197e-19)
(8.36823 -15.2773 1.1456e-19)
(8.017 -15.5695 9.09662e-19)
(9.32421 -6.09803 0)
(14.3322 -10.2365 0)
(14.2974 -10.9278 -5.27313e-19)
(13.6937 -11.257 3.73985e-19)
(13.1623 -11.5732 -6.62514e-19)
(12.6385 -11.8249 5.31285e-19)
(12.1316 -12.1073 0)
(11.6719 -12.3212 5.43995e-19)
(11.1831 -12.549 -6.59821e-19)
(10.8076 -12.7883 -1.42788e-19)
(10.416 -13.0291 -1.41557e-19)
(10.0549 -13.2184 0)
(9.71096 -13.453 1.05061e-18)
(9.38872 -13.6337 -1.03419e-18)
(9.01804 -13.7608 0)
(8.75659 -13.9552 -1.13427e-18)
(8.48984 -14.1674 9.99386e-19)
(8.22446 -14.2959 9.88707e-19)
(7.98373 -14.4397 -1.0796e-18)
(7.67396 -14.7482 0)
(9.63123 -5.76069 0)
(13.7524 -9.1518 0)
(13.5925 -9.79003 0)
(12.9483 -10.0907 -2.33075e-20)
(12.4523 -10.4916 0)
(11.9448 -10.7428 0)
(11.4754 -11.0893 0)
(11.0723 -11.3566 -1.63363e-19)
(10.6042 -11.5992 0)
(10.2447 -11.857 1.42792e-19)
(9.86411 -12.1267 -1.61582e-20)
(9.49545 -12.3104 -1.34231e-18)
(9.15804 -12.5642 1.0145e-18)
(8.87279 -12.7971 -1.30587e-18)
(8.58874 -13.0659 9.88281e-19)
(8.29654 -13.2281 0)
(8.04691 -13.4953 -1.10407e-18)
(7.82692 -13.6972 9.4604e-19)
(7.58244 -13.849 0)
(7.24927 -14.1447 -1.45209e-19)
(9.7056 -5.46784 6.3392e-19)
(12.9739 -8.02371 1.89848e-19)
(12.6341 -8.62488 7.22534e-19)
(12.1995 -9.00234 -7.31089e-19)
(11.7326 -9.46024 -7.14036e-19)
(11.2864 -9.77129 1.40877e-18)
(10.8182 -10.113 -1.57838e-18)
(10.4549 -10.4445 1.59755e-19)
(10.0061 -10.7131 5.01188e-19)
(9.62758 -10.9678 0)
(9.31489 -11.3097 -1.53003e-20)
(8.98481 -11.537 -1.46089e-20)
(8.63666 -11.7637 1.53355e-19)
(8.31895 -11.9408 1.24895e-18)
(8.02241 -12.1715 -1.09403e-18)
(7.77559 -12.3908 -1.37853e-18)
(7.50219 -12.5987 1.20166e-18)
(7.30162 -12.8337 -1.12089e-20)
(7.1305 -13.0644 -1.50282e-19)
(6.84461 -13.3736 -1.06845e-18)
(9.54291 -4.98624 -1.91289e-19)
(12.2082 -7.08103 2.19799e-20)
(11.8718 -7.67281 -2.11342e-19)
(11.3039 -7.98041 -8.21454e-19)
(10.8704 -8.45776 5.80308e-19)
(10.4723 -8.81631 0)
(10.0212 -9.18221 1.15487e-18)
(9.69926 -9.53826 -5.60115e-19)
(9.30449 -9.86108 3.72556e-19)
(8.92854 -10.0876 1.90625e-19)
(8.60344 -10.4296 -3.61218e-19)
(8.34046 -10.7501 8.79882e-19)
(8.06564 -11.0819 1.80244e-19)
(7.80113 -11.3463 -1.02385e-18)
(7.50155 -11.5788 2.8567e-18)
(7.25547 -11.8067 -1.16035e-18)
(7.00649 -12.0483 1.45533e-18)
(6.76797 -12.2333 -9.53286e-19)
(6.5807 -12.4646 3.10557e-19)
(6.35523 -12.8166 1.4686e-18)
(9.23421 -4.45956 1.00397e-18)
(11.2379 -6.08895 -2.11976e-19)
(10.815 -6.71074 -1.95303e-20)
(10.4286 -7.1256 4.36808e-19)
(10.0112 -7.60252 2.06571e-19)
(9.6651 -8.01188 2.20503e-19)
(9.24912 -8.39245 -1.03578e-18)
(8.94942 -8.79233 6.23351e-19)
(8.64603 -9.18678 -1.94069e-19)
(8.26318 -9.4241 -1.90657e-19)
(7.90216 -9.66706 -1.87217e-19)
(7.59769 -9.91869 -1.9631e-19)
(7.31927 -10.2056 -3.72536e-19)
(7.10324 -10.5065 1.28134e-18)
(6.86505 -10.7953 -1.79343e-18)
(6.62748 -11.0228 -1.8052e-19)
(6.41285 -11.2943 1.00769e-20)
(6.2067 -11.5017 -1.33432e-18)
(6.00317 -11.7053 9.94362e-19)
(5.79288 -12.0218 -1.54833e-18)
(8.7069 -3.88248 8.97498e-19)
(10.2145 -5.22067 -2.18701e-18)
(9.81204 -5.80488 1.43807e-18)
(9.41793 -6.23599 -2.27673e-19)
(8.99982 -6.74735 -2.40246e-19)
(8.69489 -7.19316 9.29732e-19)
(8.2774 -7.58354 -1.12961e-18)
(7.97033 -7.97475 0)
(7.74014 -8.47041 8.61175e-19)
(7.52058 -8.88178 -8.46873e-19)
(7.22493 -9.22777 -6.12767e-19)
(6.94461 -9.50825 8.00395e-19)
(6.65235 -9.78903 1.92281e-19)
(6.40764 -10.0455 -7.73133e-19)
(6.19439 -10.3629 1.89207e-19)
(5.99387 -10.6139 9.25383e-19)
(5.78403 -10.8976 -1.6245e-18)
(5.61393 -11.1319 1.07141e-18)
(5.43031 -11.3664 -8.50556e-21)
(5.22832 -11.6431 -1.45647e-18)
(8.03671 -3.28284 1.22092e-18)
(9.20186 -4.3883 -7.83409e-19)
(8.79946 -5.0462 5.1418e-19)
(8.42544 -5.47499 5.85676e-22)
(8.05701 -5.99191 -1.00509e-18)
(7.83093 -6.50437 -9.56215e-19)
(7.501 -6.93122 1.18438e-18)
(7.12118 -7.23552 -6.90958e-19)
(6.83175 -7.62405 9.14234e-19)
(6.59914 -8.01533 0)
(6.37823 -8.41901 1.09327e-20)
(6.1528 -8.75244 2.07942e-19)
(5.9198 -9.09085 2.13392e-19)
(5.67932 -9.34874 -2.08483e-19)
(5.46521 -9.65411 0)
(5.27596 -9.916 1.98997e-19)
(5.09277 -10.2134 0)
(4.93467 -10.464 3.71947e-19)
(4.78867 -10.7402 1.81295e-18)
(4.6264 -11.0453 -1.37741e-20)
(7.21681 -2.69918 6.58569e-19)
(7.90934 -3.62561 -1.38266e-19)
(7.51482 -4.27509 -1.91372e-18)
(7.30017 -4.84019 1.06934e-18)
(6.84462 -5.29223 2.54765e-19)
(6.64666 -5.86681 -2.49566e-19)
(6.4635 -6.44257 -1.0007e-18)
(6.20575 -6.89578 7.44438e-19)
(5.93104 -7.29733 0)
(5.707 -7.69146 0)
(5.50718 -8.0938 -1.13506e-18)
(5.30731 -8.44998 8.96842e-19)
(5.12461 -8.81733 -2.13384e-19)
(4.93239 -9.12117 -6.40047e-19)
(4.73799 -9.42613 6.9278e-21)
(4.56255 -9.68913 1.42601e-18)
(4.3846 -9.96848 -7.96965e-19)
(4.22678 -10.2027 5.81947e-19)
(4.07738 -10.4542 -9.4642e-19)
(3.92681 -10.734 0)
(6.27332 -2.15426 -5.6083e-19)
(6.81584 -2.95357 8.68973e-19)
(6.45409 -3.58705 1.45592e-19)
(6.25465 -4.18798 1.42522e-19)
(5.89788 -4.65538 0)
(5.561 -5.04027 1.0679e-18)
(5.37318 -5.58339 -1.04899e-18)
(5.18407 -6.05355 1.30062e-19)
(4.98142 -6.54146 0)
(4.75854 -6.93801 9.72175e-19)
(4.58799 -7.38934 -8.35221e-19)
(4.40936 -7.76893 9.26054e-19)
(4.24641 -8.17501 -9.11325e-19)
(4.09106 -8.52807 8.81727e-19)
(3.93831 -8.89289 -7.58526e-19)
(3.79682 -9.20635 -8.39483e-19)
(3.65828 -9.53663 1.64616e-18)
(3.53307 -9.81693 -7.05302e-19)
(3.40522 -10.0998 9.94035e-20)
(3.28139 -10.4049 8.22156e-19)
(5.19943 -1.71026 -4.47122e-19)
(5.39615 -2.50408 4.57875e-19)
(4.99236 -3.08974 -1.45578e-19)
(4.95255 -3.78948 -1.42485e-19)
(4.82789 -4.45204 0)
(4.54219 -4.90125 0)
(4.307 -5.3862 0)
(4.10598 -5.82107 -2.64366e-19)
(3.94177 -6.29228 -1.02882e-18)
(3.76676 -6.70572 2.01522e-18)
(3.61524 -7.12741 -1.10807e-18)
(3.4711 -7.52135 -1.21596e-19)
(3.34187 -7.90728 0)
(3.201 -8.26526 0)
(3.07658 -8.61413 -2.22411e-19)
(2.94872 -8.94096 0)
(2.82671 -9.2618 8.4248e-19)
(2.71392 -9.5617 -1.03654e-18)
(2.6039 -9.84734 -9.00932e-19)
(2.48726 -10.1641 8.55144e-19)
(3.72681 -1.13498 4.66089e-19)
(4.22664 -2.01753 7.80224e-19)
(3.86808 -2.63497 -1.49985e-21)
(3.61529 -3.07986 -2.20132e-21)
(3.52909 -3.75048 1.45345e-19)
(3.41852 -4.29294 -4.28837e-19)
(3.24883 -4.84308 0)
(3.09566 -5.31055 -4.08752e-19)
(2.90333 -5.78728 1.38422e-19)
(2.7638 -6.22085 5.20815e-19)
(2.60999 -6.66799 5.03648e-19)
(2.49798 -7.07432 -3.7391e-19)
(2.37847 -7.4997 9.57497e-19)
(2.2875 -7.87633 -8.24227e-19)
(2.18068 -8.26367 1.023e-18)
(2.08667 -8.60112 -1.8964e-18)
(1.99248 -8.95359 8.7429e-19)
(1.90048 -9.25789 1.04655e-19)
(1.81738 -9.56236 8.23334e-19)
(1.72372 -9.88583 -8.7837e-19)
(2.56127 -0.661875 1.6055e-19)
(2.58033 -1.57524 -1.58157e-19)
(2.69974 -2.23689 6.263e-19)
(2.6076 -2.88311 -6.14705e-19)
(2.37989 -3.45367 -2.99082e-19)
(2.21884 -4.04216 -7.27296e-19)
(2.09607 -4.62698 4.19697e-21)
(1.97255 -5.16556 5.58499e-19)
(1.86945 -5.67741 -1.34275e-19)
(1.72591 -6.12083 0)
(1.62991 -6.5636 0)
(1.50955 -6.95303 0)
(1.43693 -7.35711 0)
(1.35366 -7.72273 2.05546e-21)
(1.29159 -8.10388 0)
(1.22683 -8.44527 1.12443e-19)
(1.15815 -8.7985 4.39926e-19)
(1.10131 -9.11528 -1.29157e-18)
(1.03328 -9.42438 9.51661e-19)
(0.976398 -9.74906 -8.83411e-19)
(1.27663 -0.503912 0)
(1.35421 -1.14749 -8.19434e-20)
(1.33773 -1.81184 0)
(1.07878 -2.476 2.32578e-19)
(1.00416 -3.12646 -1.54262e-19)
(0.854195 -3.6827 -5.92711e-19)
(0.739308 -4.22622 4.12119e-21)
(0.701754 -4.745 5.68164e-19)
(0.651194 -5.28547 -5.49585e-19)
(0.626622 -5.76805 1.07607e-18)
(0.564395 -6.25149 -4.85905e-21)
(0.516132 -6.68859 -5.1357e-19)
(0.440175 -7.12259 4.95658e-19)
(0.375461 -7.51228 -6.08242e-19)
(0.312713 -7.90178 0)
(0.254624 -8.25464 -4.58807e-19)
(0.208301 -8.60678 4.51949e-19)
(0.160238 -8.93102 0)
(0.125856 -9.23722 -1.06043e-19)
(0.0817788 -9.5672 0)
(-0.132415 -0.487242 1.1814e-20)
(0.0305967 -1.01463 7.09215e-20)
(-0.165861 -2.03491 0)
(-0.192457 -2.54728 3.13624e-19)
(-0.245311 -3.32605 -3.85557e-19)
(-0.20543 -3.80008 2.2382e-19)
(-0.237149 -4.40008 -6.58679e-19)
(-0.363342 -4.8316 2.86501e-19)
(-0.404847 -5.36288 -6.97299e-20)
(-0.468924 -5.7947 0)
(-0.496288 -6.28179 -6.62274e-20)
(-0.553994 -6.69961 -6.45356e-20)
(-0.547206 -7.1264 -6.28917e-20)
(-0.559537 -7.50816 0)
(-0.555121 -7.88812 -4.74107e-19)
(-0.553516 -8.24135 9.87214e-19)
(-0.56699 -8.59026 -8.48895e-19)
(-0.571915 -8.92247 4.43818e-19)
(-0.593256 -9.22691 5.39519e-20)
(-0.602384 -9.55849 4.52809e-19)
(-1.49932 -0.162772 0)
(-1.78353 -0.7882 -1.65051e-19)
(-1.75297 -1.41425 5.48501e-22)
(-1.67096 -2.06902 4.34388e-19)
(-1.62524 -2.73914 -1.16269e-19)
(-1.50123 -3.34959 -7.50115e-20)
(-1.58404 -3.98938 7.43994e-20)
(-1.54166 -4.5557 1.43965e-19)
(-1.60198 -5.0927 6.97178e-20)
(-1.57483 -5.58262 -2.71332e-19)
(-1.62311 -6.06259 2.9995e-19)
(-1.56866 -6.5033 6.45333e-20)
(-1.55932 -6.91889 3.13882e-19)
(-1.5537 -7.34807 -2.50064e-21)
(-1.55589 -7.72463 2.74301e-20)
(-1.57405 -8.13738 -5.25098e-19)
(-1.58309 -8.48188 1.43581e-19)
(-1.57669 -8.86155 0)
(-1.57782 -9.16895 -2.69162e-20)
(-1.55321 -9.53413 -2.27405e-19)
(-2.32247 -0.16847 2.54254e-20)
(-2.61099 -0.980885 -3.9082e-20)
(-2.74368 -1.6241 1.60948e-19)
(-2.97204 -2.38786 -3.98082e-20)
(-2.92113 -3.00198 -3.8641e-20)
(-2.90023 -3.64256 0)
(-2.87452 -4.21338 -7.30277e-20)
(-2.8196 -4.7623 1.42965e-19)
(-2.72935 -5.28313 -6.99888e-20)
(-2.69967 -5.76965 6.76335e-20)
(-2.64381 -6.23939 -3.3365e-20)
(-2.57663 -6.66572 -6.42347e-20)
(-2.5825 -7.10618 1.25813e-19)
(-2.53946 -7.50619 -1.22635e-19)
(-2.52859 -7.89702 3.0158e-20)
(-2.48736 -8.26582 2.0643e-34)
(-2.43407 -8.6005 -2.81019e-20)
(-2.4132 -8.94614 1.65966e-19)
(-2.35772 -9.23338 -8.19321e-20)
(-2.35491 -9.5751 -5.75351e-20)
(0.0877771 -1.93082 7.47062e-20)
(0.764066 -8.11445 3.64706e-20)
(2.89335 -19.3824 0)
(4.21009 -26.8088 3.42773e-20)
(4.68223 -29.5944 3.28015e-20)
(4.84527 -30.1323 3.03142e-20)
(4.8461 -30.1168 0)
(4.8322 -29.9366 2.74362e-20)
(4.77229 -29.6552 0)
(4.74355 -29.4574 0)
(4.68414 -29.2611 -2.44515e-20)
(4.65849 -29.1181 1.43817e-21)
(4.58798 -28.9398 4.60673e-20)
(4.55183 -28.7566 0)
(4.46669 -28.6159 2.0367e-20)
(4.45246 -28.4524 1.94378e-20)
(4.33884 -28.313 1.85724e-20)
(4.32697 -28.101 0)
(4.18273 -27.8924 -3.40784e-20)
(4.14995 -27.5628 3.27669e-20)
(-0.00154209 -2.59237 1.11894e-19)
(1.5117 -10.8526 -1.82605e-19)
(3.70692 -21.9407 0)
(5.02416 -28.2017 -1.69268e-19)
(5.37228 -30.0292 1.64773e-19)
(5.45269 -30.2116 -2.72887e-19)
(5.44876 -30.0917 1.16072e-19)
(5.39046 -29.7733 8.18713e-20)
(5.34229 -29.5563 -3.73433e-19)
(5.28371 -29.3185 2.07666e-19)
(5.23598 -29.1642 -2.45982e-20)
(5.17608 -28.9577 1.82164e-19)
(5.10216 -28.7804 -5.7007e-21)
(5.06697 -28.6413 -1.70826e-19)
(4.97256 -28.4643 -2.03656e-20)
(4.937 -28.2741 -1.94362e-20)
(4.81078 -28.095 -1.85715e-20)
(4.79408 -27.8891 0)
(4.64207 -27.6804 -1.31015e-19)
(4.60836 -27.3538 3.82266e-21)
(0.147069 -3.37865 -7.52859e-20)
(2.32028 -13.3289 0)
(4.6306 -24.1199 0)
(5.83919 -29.2182 -6.81387e-20)
(6.01753 -30.2318 6.55419e-20)
(6.05017 -30.2054 0)
(5.98126 -29.9742 -5.63522e-20)
(5.9172 -29.6904 1.62725e-19)
(5.83729 -29.3994 -1.60689e-19)
(5.78642 -29.2104 1.95815e-19)
(5.70433 -28.9843 -2.3918e-19)
(5.64446 -28.8051 0)
(5.57104 -28.6477 -1.68029e-19)
(5.50439 -28.4474 -1.54308e-19)
(5.39997 -28.2653 2.7682e-19)
(5.35399 -28.0706 -2.8973e-19)
(5.2277 -27.9238 2.51039e-19)
(5.19732 -27.6861 0)
(5.01395 -27.438 -2.82088e-19)
(4.97613 -27.0905 4.79441e-19)
(0.52262 -4.3564 0)
(3.28498 -15.4664 0)
(5.62717 -25.758 1.41405e-19)
(6.62276 -29.6906 2.00408e-19)
(6.74499 -30.2144 -3.82202e-19)
(6.71632 -30.0927 1.16884e-19)
(6.62567 -29.7769 5.75488e-20)
(6.55346 -29.4775 5.86319e-19)
(6.47085 -29.2604 -8.19363e-19)
(6.37802 -28.9893 -8.05911e-20)
(6.3014 -28.8165 4.20684e-19)
(6.21723 -28.6198 8.53234e-20)
(6.11135 -28.4037 -4.04762e-19)
(6.0366 -28.2339 3.9544e-19)
(5.92285 -28.0458 1.10587e-19)
(5.85751 -27.8622 -6.89302e-20)
(5.70386 -27.6495 9.98162e-20)
(5.65249 -27.3938 0)
(5.45369 -27.1422 -2.80556e-20)
(5.42739 -26.8456 0)
(0.779544 -5.36322 0)
(4.26768 -17.0959 2.74411e-19)
(6.6119 -26.8543 -7.15994e-19)
(7.43384 -29.948 6.60654e-19)
(7.46498 -30.1447 -5.05365e-19)
(7.3969 -29.9075 -1.17988e-19)
(7.2576 -29.6046 0)
(7.15915 -29.3147 3.05825e-19)
(7.02764 -28.9895 -4.05587e-19)
(6.9317 -28.794 4.62783e-19)
(6.81683 -28.5658 -3.61434e-19)
(6.70744 -28.3456 -8.53214e-20)
(6.60593 -28.1808 3.91521e-19)
(6.50641 -27.9861 -6.76597e-19)
(6.37638 -27.7829 4.26525e-19)
(6.28742 -27.5625 -1.40078e-19)
(6.1362 -27.3902 -3.16272e-19)
(6.07698 -27.1388 7.23233e-19)
(5.86305 -26.8946 -4.10059e-19)
(5.81834 -26.5475 -4.80334e-19)
(1.34285 -6.30817 5.87092e-19)
(4.89546 -18.6239 5.75171e-19)
(7.71642 -27.7909 -5.71517e-19)
(8.23371 -29.9744 -1.28618e-19)
(8.21299 -29.9465 1.2199e-19)
(8.09371 -29.6222 4.47961e-19)
(7.94343 -29.2893 -4.4498e-19)
(7.81128 -28.9757 0)
(7.6834 -28.7498 3.75079e-19)
(7.54324 -28.4657 -3.68811e-19)
(7.42195 -28.2723 -3.32577e-19)
(7.3025 -28.0867 3.27179e-19)
(7.16333 -27.8671 0)
(7.04137 -27.6732 0)
(6.89792 -27.4743 5.97343e-19)
(6.79501 -27.2925 -5.85546e-19)
(6.61621 -27.0768 -4.72773e-19)
(6.52093 -26.7999 4.65725e-19)
(6.27542 -26.5268 -4.24639e-19)
(6.23094 -26.2253 5.19948e-19)
(1.72711 -7.02056 -4.3409e-19)
(6.05232 -19.6055 1.55956e-19)
(8.68088 -28.086 2.59171e-20)
(9.15408 -29.7688 6.52561e-19)
(8.9993 -29.6457 0)
(8.82754 -29.2785 0)
(8.63479 -28.9892 8.16389e-19)
(8.46797 -28.6867 -3.78923e-20)
(8.27656 -28.3561 -7.51388e-19)
(8.12286 -28.1563 6.7256e-19)
(7.96748 -27.9388 -6.61482e-19)
(7.80146 -27.7022 0)
(7.65486 -27.5235 5.59097e-19)
(7.51362 -27.3407 -5.50298e-19)
(7.35205 -27.1336 0)
(7.21494 -26.9097 0)
(7.03082 -26.7084 0)
(6.92831 -26.4442 0)
(6.68401 -26.2109 0)
(6.62385 -25.8774 -4.95811e-20)
(2.25178 -7.85118 4.15963e-19)
(7.04562 -20.4922 -7.03005e-19)
(9.7432 -28.3067 0)
(9.98955 -29.4199 0)
(9.78071 -29.1612 1.00157e-18)
(9.56476 -28.8092 5.79697e-20)
(9.33807 -28.4901 -9.17064e-19)
(9.12959 -28.1891 0)
(8.93203 -27.9577 8.41809e-20)
(8.73194 -27.686 -7.85845e-20)
(8.54958 -27.49 0)
(8.3815 -27.3116 6.86726e-20)
(8.19928 -27.1113 -5.86506e-19)
(8.02921 -26.9195 1.06456e-18)
(7.8465 -26.7261 -2.19755e-20)
(7.69842 -26.5527 -4.5373e-19)
(7.49748 -26.3506 -4.98277e-20)
(7.35318 -26.0758 4.67819e-20)
(7.07045 -25.812 0)
(7.00217 -25.4961 4.17441e-20)
(2.76606 -8.40309 2.69908e-19)
(8.06977 -21.1276 2.28868e-19)
(10.62 -28.1675 -7.9961e-19)
(10.7837 -28.9435 2.29066e-19)
(10.4961 -28.6803 9.95481e-20)
(10.2593 -28.3253 8.81838e-19)
(9.98476 -28.0382 -1.22999e-18)
(9.74877 -27.7359 8.89235e-19)
(9.5015 -27.4342 -7.18822e-19)
(9.28243 -27.2355 8.48406e-19)
(9.08551 -27.0428 1.35674e-19)
(8.86337 -26.821 5.73131e-19)
(8.66702 -26.6401 -3.25043e-19)
(8.47883 -26.4755 -6.20845e-19)
(8.27741 -26.2826 5.46366e-19)
(8.0889 -26.0798 0)
(7.86508 -25.8672 1.39652e-19)
(7.69931 -25.6141 3.7166e-20)
(7.41043 -25.39 -7.88954e-20)
(7.32166 -25.0706 3.24641e-20)
(3.27485 -8.83403 -5.10202e-19)
(9.06543 -21.3254 5.23598e-19)
(11.5783 -27.7957 -1.48913e-20)
(11.6407 -28.3126 -4.44321e-19)
(11.2715 -27.9916 -4.09106e-19)
(10.9853 -27.6599 -1.96491e-19)
(10.6742 -27.3672 -1.36471e-20)
(10.3919 -27.1091 -1.68773e-19)
(10.1222 -26.8739 0)
(9.85849 -26.6353 -1.45742e-19)
(9.61359 -26.4535 -1.35667e-19)
(9.39084 -26.2873 -1.20284e-20)
(9.1596 -26.1155 4.25027e-19)
(8.94401 -25.9414 -2.21303e-19)
(8.71662 -25.763 -4.81712e-19)
(8.52388 -25.5995 3.73205e-19)
(8.29264 -25.4128 2.39833e-19)
(8.09817 -25.1497 -4.08688e-19)
(7.78144 -24.9041 7.86705e-20)
(7.68535 -24.5799 4.68573e-19)
(3.85016 -9.22304 -1.21376e-18)
(10.0817 -21.6255 1.22225e-18)
(12.4107 -27.3601 -1.32344e-18)
(12.3216 -27.5995 1.07525e-18)
(11.9083 -27.3114 9.34907e-19)
(11.5975 -27.0037 -7.24318e-19)
(11.2472 -26.7381 -9.45448e-19)
(10.9291 -26.4523 3.79623e-20)
(10.6304 -26.2101 5.65714e-19)
(10.3431 -26.0181 -3.71493e-19)
(10.0994 -25.8651 9.36146e-19)
(9.82955 -25.6799 -5.60599e-19)
(9.58348 -25.5192 -1.06153e-19)
(9.35395 -25.387 2.61458e-19)
(9.11553 -25.2284 -6.88281e-19)
(8.88867 -25.0671 3.28709e-19)
(8.63404 -24.8687 0)
(8.4209 -24.6349 -5.34777e-19)
(8.10996 -24.4292 5.25951e-19)
(8.01614 -24.1107 -4.15029e-19)
(4.36538 -9.40569 2.2718e-19)
(10.9433 -21.3536 2.53863e-19)
(13.1522 -26.5549 1.07681e-18)
(13.0685 -26.7439 9.13879e-19)
(12.5841 -26.4604 -5.56215e-19)
(12.2336 -26.1755 7.61665e-19)
(11.8525 -25.9281 -4.48479e-19)
(11.5037 -25.7291 5.13489e-19)
(11.1686 -25.5014 -9.75777e-19)
(10.8477 -25.3124 3.4404e-19)
(10.548 -25.1583 0)
(10.2734 -25.0194 0)
(9.99504 -24.8824 0)
(9.73576 -24.7395 -6.17487e-19)
(9.46476 -24.5938 6.07946e-19)
(9.23015 -24.4609 0)
(8.97289 -24.3164 0)
(8.73308 -24.0966 -5.13337e-20)
(8.4001 -23.8996 0)
(8.27733 -23.5897 -4.36707e-19)
(4.91783 -9.58434 -4.22956e-19)
(11.8619 -21.2484 -1.03557e-18)
(13.9138 -25.8677 -7.20459e-19)
(13.6557 -25.8358 -1.2592e-19)
(13.1465 -25.5913 9.30025e-19)
(12.7445 -25.3468 -1.93102e-19)
(12.3351 -25.1178 -3.9758e-20)
(11.9327 -24.8788 -5.89239e-19)
(11.5852 -24.7142 0)
(11.231 -24.5358 -2.82639e-19)
(10.9349 -24.4339 4.43599e-19)
(10.6265 -24.2983 0)
(10.331 -24.1744 5.59949e-19)
(10.0687 -24.0798 -5.51171e-19)
(9.79527 -23.9702 4.64675e-19)
(9.54157 -23.8604 -8.32699e-19)
(9.26176 -23.6996 4.1687e-19)
(9.00886 -23.5073 5.13366e-20)
(8.68091 -23.3463 -3.53351e-20)
(8.5609 -23.0366 2.96433e-19)
(5.40468 -9.58881 -5.31094e-19)
(12.5984 -20.704 4.25687e-20)
(14.4337 -24.7962 5.69764e-20)
(14.2182 -24.8011 1.19566e-18)
(13.6587 -24.5846 9.65097e-20)
(13.2275 -24.376 -6.145e-19)
(12.8006 -24.1911 -4.15946e-19)
(12.3877 -24.0469 1.41126e-19)
(11.9984 -23.8539 4.46794e-19)
(11.6315 -23.7283 -4.61135e-19)
(11.2844 -23.612 2.18869e-19)
(10.9683 -23.5234 -5.45728e-19)
(10.6504 -23.4368 4.32513e-19)
(10.3529 -23.3363 -3.93986e-19)
(10.0433 -23.2358 3.49037e-19)
(9.77621 -23.1597 2.66713e-19)
(9.5012 -23.0782 -3.10107e-19)
(9.2226 -22.9091 2.23802e-19)
(8.88346 -22.771 -2.09701e-19)
(8.74334 -22.4802 -2.20853e-19)
(5.90357 -9.5885 -6.31906e-19)
(13.3672 -20.2393 -9.73541e-20)
(15.0136 -23.8542 5.92773e-19)
(14.6584 -23.7393 -4.80189e-19)
(14.097 -23.5592 4.71461e-19)
(13.6024 -23.401 1.10066e-19)
(13.1538 -23.2295 0)
(12.6889 -23.07 -6.81814e-20)
(12.2992 -22.9843 1.8497e-19)
(11.8887 -22.8308 -6.54627e-19)
(11.5416 -22.782 4.57976e-19)
(11.2028 -22.6976 9.46936e-20)
(10.8629 -22.6251 4.96029e-20)
(10.5734 -22.574 0)
(10.2659 -22.5122 1.50838e-20)
(9.98758 -22.4566 2.03572e-19)
(9.69494 -22.368 -2.7256e-20)
(9.41401 -22.2513 1.53378e-20)
(9.08385 -22.1559 -1.43838e-19)
(8.93826 -21.8675 2.6276e-20)
(6.36583 -9.41825 5.32424e-19)
(13.9348 -19.5549 -8.47249e-19)
(15.3751 -22.6009 4.92645e-19)
(14.9919 -22.5674 3.85327e-19)
(14.442 -22.4208 -4.26979e-20)
(13.9241 -22.3101 -2.63667e-19)
(13.4624 -22.2032 5.6213e-20)
(12.9911 -22.1063 6.81782e-20)
(12.5553 -21.9885 0)
(12.1556 -21.9342 0)
(11.7603 -21.8637 -2.67093e-19)
(11.4156 -21.8371 4.24896e-19)
(11.0667 -21.8097 -2.18724e-19)
(10.7432 -21.7662 0)
(10.4005 -21.7129 1.57455e-20)
(10.11 -21.6946 -8.95751e-20)
(9.8223 -21.6848 8.5151e-20)
(9.51337 -21.5831 -1.27708e-20)
(9.18232 -21.5329 -1.0425e-20)
(9.02586 -21.267 1.39419e-20)
(6.79757 -9.2275 -4.25452e-19)
(14.4708 -18.8006 4.79846e-19)
(15.7825 -21.5032 0)
(15.2509 -21.4366 0)
(14.6854 -21.3019 5.24684e-20)
(14.1184 -21.2263 -2.66781e-19)
(13.6411 -21.1258 9.33999e-21)
(13.1449 -21.0585 1.62821e-19)
(12.7208 -21.0374 -2.13373e-19)
(12.271 -20.9334 3.73715e-19)
(11.8816 -20.9397 -1.61215e-19)
(11.5152 -20.9168 2.43013e-20)
(11.139 -20.906 4.48017e-20)
(10.826 -20.9121 -3.51898e-20)
(10.4854 -20.901 -1.49492e-20)
(10.1756 -20.8832 4.57796e-21)
(9.87756 -20.8854 5.66673e-20)
(9.5765 -20.8568 -5.72436e-20)
(9.26406 -20.8549 1.39423e-20)
(9.1045 -20.6164 -9.15591e-20)
(7.19239 -8.9113 0)
(14.8567 -17.956 1.6763e-19)
(15.9209 -20.1108 -2.27741e-19)
(15.3703 -20.1335 0)
(14.8469 -20.0779 -5.24695e-20)
(14.277 -20.0698 1.07298e-19)
(13.7868 -20.0474 -1.39292e-19)
(13.2701 -19.9959 0)
(12.805 -19.9784 4.83693e-20)
(12.3828 -19.9838 -4.75615e-20)
(11.938 -19.9486 -1.15359e-20)
(11.5733 -19.98 -3.04629e-21)
(11.2014 -20.0189 1.17604e-21)
(10.8637 -20.0439 4.92045e-21)
(10.502 -20.0533 1.51838e-19)
(10.1864 -20.0723 -3.04749e-19)
(9.88705 -20.128 3.40718e-19)
(9.55241 -20.1141 -3.68721e-19)
(9.25074 -20.158 1.71975e-19)
(9.0817 -19.984 -2.07049e-20)
(7.56852 -8.5912 0)
(15.149 -17.0216 -1.41737e-19)
(16.1471 -18.9323 9.38511e-20)
(15.4813 -18.9622 6.81119e-20)
(14.903 -18.8777 -3.38636e-20)
(14.2912 -18.8769 -3.02158e-20)
(13.7907 -18.8729 -1.2276e-20)
(13.2821 -18.8908 0)
(12.8227 -18.9265 0)
(12.3651 -18.9126 0)
(11.9424 -18.9682 1.15354e-20)
(11.5495 -18.99 0)
(11.1433 -19.036 2.76035e-19)
(10.8161 -19.114 -2.34837e-19)
(10.4534 -19.1747 2.77596e-19)
(10.1062 -19.1802 -5.66521e-19)
(9.78864 -19.2596 2.88746e-19)
(9.4689 -19.3159 3.58159e-19)
(9.14655 -19.3801 -6.31857e-19)
(8.98199 -19.2564 3.33691e-19)
(7.89375 -8.15129 0)
(15.3108 -16.0976 0)
(16.0174 -17.4685 2.06214e-20)
(15.3294 -17.6053 1.06737e-20)
(14.8359 -17.6512 0)
(14.246 -17.7219 -8.36029e-20)
(13.7392 -17.7766 8.21341e-20)
(13.2077 -17.7795 0)
(12.734 -17.8596 -2.8724e-19)
(12.3004 -17.9142 2.8244e-19)
(11.8257 -17.9326 0)
(11.4425 -17.9995 3.66342e-19)
(11.0453 -18.0727 -1.18225e-20)
(10.6879 -18.1424 -3.80087e-19)
(10.3298 -18.2353 0)
(9.98322 -18.2752 0)
(9.64107 -18.3726 0)
(9.29695 -18.4132 4.06925e-19)
(8.93475 -18.4407 -4.47444e-19)
(8.72191 -18.4073 0)
(3.59849 -26.7637 0)
(3.27004 -25.46 0)
(2.79002 -25.4882 -1.89291e-21)
(2.48346 -24.7371 -1.55704e-21)
(2.13893 -24.6756 0)
(1.98904 -24.2083 1.23517e-22)
(1.82793 -24.2025 7.80377e-22)
(1.7075 -23.9023 0)
(1.56951 -23.831 2.31528e-22)
(1.432 -23.4802 0)
(1.21768 -23.2874 4.21361e-23)
(1.14692 -23.344 9.03965e-23)
(0.978218 -23.3153 -9.08751e-23)
(0.861549 -23.4477 -3.09448e-22)
(0.811772 -23.676 0)
(0.689207 -23.2207 9.68151e-23)
(0.605391 -23.2915 -3.91604e-22)
(0.546514 -20.4273 0)
(0.178127 -14.8736 0)
(0.225841 -6.28678 -2.74383e-23)
(3.93994 -26.5579 1.38324e-20)
(3.53092 -25.3155 0)
(2.99197 -25.3795 8.61441e-21)
(2.64777 -24.6459 -5.19388e-21)
(2.27875 -24.63 0)
(2.09772 -24.1684 -4.05473e-21)
(1.91292 -24.1754 1.46582e-21)
(1.75676 -23.8708 0)
(1.60748 -23.796 6.55836e-23)
(1.44335 -23.4351 -2.99745e-22)
(1.23655 -23.2571 -2.45021e-22)
(1.16436 -23.3145 5.9779e-22)
(0.981437 -23.2835 -6.74624e-22)
(0.886647 -23.4249 2.4216e-22)
(0.825715 -23.6524 3.10811e-22)
(0.705465 -23.1902 -3.93072e-22)
(0.605635 -23.2736 7.48661e-22)
(0.539747 -20.3643 1.27204e-21)
(0.186765 -14.8168 6.51383e-22)
(0.185302 -6.23723 6.65613e-22)
(4.24427 -26.3443 -5.88393e-21)
(3.78806 -25.1737 -1.16731e-20)
(3.17927 -25.2578 -6.80794e-21)
(2.7757 -24.517 0)
(2.37634 -24.5372 0)
(2.16458 -24.0963 4.43068e-21)
(1.98121 -24.1195 -9.00314e-22)
(1.79734 -23.8129 -7.30542e-22)
(1.63171 -23.7532 -6.20457e-22)
(1.46221 -23.3769 -4.84415e-22)
(1.27817 -23.2122 0)
(1.2079 -23.2703 0)
(1.01185 -23.2347 0)
(0.915385 -23.3991 1.35282e-21)
(0.839178 -23.6266 0)
(0.721709 -23.1592 1.53898e-21)
(0.610669 -23.2542 -1.68658e-21)
(0.528512 -20.3282 -7.58476e-22)
(0.188771 -14.7924 -1.29022e-21)
(0.186888 -6.18816 -1.73792e-21)
(4.56934 -26.1133 1.95938e-20)
(4.01859 -24.9973 -3.75039e-20)
(3.32458 -25.1152 1.18144e-21)
(2.89665 -24.4064 1.21237e-20)
(2.50308 -24.4712 0)
(2.27797 -24.0469 5.05802e-21)
(2.06081 -24.0789 -1.03393e-20)
(1.85141 -23.7665 4.32789e-21)
(1.66255 -23.7063 -1.39947e-21)
(1.46982 -23.3355 -1.4091e-22)
(1.29311 -23.1853 -2.9877e-22)
(1.22182 -23.2356 9.26171e-22)
(1.0162 -23.2008 -9.30088e-22)
(0.941493 -23.3743 -6.12552e-22)
(0.851753 -23.5992 -6.57086e-22)
(0.73751 -23.1286 -1.53845e-21)
(0.619075 -23.2331 2.11874e-21)
(0.518718 -20.277 -1.02699e-21)
(0.197515 -14.7491 4.30116e-22)
(0.154632 -6.1508 2.16513e-21)
(4.87795 -25.847 4.80393e-20)
(4.26462 -24.8187 8.68192e-21)
(3.53035 -24.9675 -1.17717e-20)
(3.05169 -24.2822 1.63586e-20)
(2.62077 -24.3795 0)
(2.35325 -23.973 -2.72229e-21)
(2.12261 -24.014 1.91416e-21)
(1.88707 -23.7036 0)
(1.68892 -23.6602 1.21351e-22)
(1.49878 -23.2822 0)
(1.33263 -23.1481 9.7799e-22)
(1.26179 -23.1913 0)
(1.05124 -23.152 0)
(0.967706 -23.3464 3.00732e-21)
(0.864008 -23.57 -1.3581e-21)
(0.7524 -23.0989 1.62248e-21)
(0.627546 -23.2105 0)
(0.507986 -20.253 -5.26138e-22)
(0.200772 -14.7319 5.28418e-22)
(0.147766 -6.10997 0)
(5.19239 -25.5675 1.82445e-20)
(4.47524 -24.6165 -1.5355e-20)
(3.6803 -24.8031 2.63628e-20)
(3.17053 -24.1497 -2.6273e-20)
(2.73401 -24.2931 6.48499e-21)
(2.43638 -23.9033 2.73022e-21)
(2.19212 -23.959 -3.06903e-21)
(1.93439 -23.647 -1.86244e-21)
(1.71631 -23.6096 3.70877e-22)
(1.50693 -23.2423 -7.19053e-22)
(1.34275 -23.12 1.83259e-22)
(1.26758 -23.1539 0)
(1.05939 -23.1158 0)
(0.990184 -23.3181 3.16095e-23)
(0.875513 -23.54 1.41186e-21)
(0.766046 -23.0689 -1.43603e-21)
(0.635442 -23.1866 0)
(0.499515 -20.2153 4.32101e-21)
(0.206728 -14.701 4.02158e-21)
(0.124202 -6.07897 2.7168e-22)
(5.50612 -25.2605 -5.08373e-20)
(4.70078 -24.3962 4.80297e-20)
(3.87172 -24.6381 -1.12391e-20)
(3.31332 -24.0166 0)
(2.85685 -24.1956 -6.51133e-21)
(2.52359 -23.8261 7.62329e-21)
(2.25786 -23.8908 -4.57258e-21)
(1.97721 -23.5779 1.86726e-21)
(1.74327 -23.5583 0)
(1.54609 -23.1949 0)
(1.38279 -23.087 -1.70783e-21)
(1.30717 -23.1119 1.71522e-21)
(1.09708 -23.0691 0)
(1.01446 -23.2867 -4.71565e-21)
(0.886634 -23.5085 1.48466e-21)
(0.776111 -23.0393 1.40123e-21)
(0.642117 -23.1607 -1.26229e-21)
(0.488294 -20.201 -5.35255e-21)
(0.218037 -14.6887 -2.60118e-21)
(0.121949 -6.04851 -5.48645e-22)
(5.81755 -24.9425 0)
(4.91281 -24.1588 -2.37382e-20)
(4.05007 -24.4549 2.37867e-20)
(3.44366 -23.8698 0)
(2.97008 -24.0912 0)
(2.59197 -23.7383 -6.72935e-21)
(2.3166 -23.8211 6.75275e-21)
(2.00993 -23.513 0)
(1.7701 -23.5055 -3.1725e-22)
(1.55221 -23.154 1.51465e-21)
(1.39063 -23.0558 -1.19791e-21)
(1.31112 -23.073 -2.49002e-21)
(1.10804 -23.0306 2.50068e-21)
(1.03546 -23.2541 0)
(0.896672 -23.4733 0)
(0.781741 -23.0115 1.47989e-21)
(0.643439 -23.1354 -1.88092e-21)
(0.482555 -20.1797 -3.19976e-23)
(0.218828 -14.675 1.61517e-21)
(0.112662 -6.02045 -5.53153e-22)
(6.09824 -24.529 2.36003e-20)
(5.12254 -23.8946 -2.71665e-20)
(4.22102 -24.2671 -2.50204e-20)
(3.5608 -23.7196 2.91224e-20)
(3.08569 -23.9796 -2.14178e-20)
(2.67917 -23.6533 3.00271e-21)
(2.39113 -23.7491 5.85268e-21)
(2.0614 -23.4392 0)
(1.79954 -23.4508 0)
(1.59453 -23.1144 -1.17087e-21)
(1.43062 -23.0272 0)
(1.35179 -23.0356 0)
(1.14745 -22.9852 0)
(1.05957 -23.2155 0)
(0.903408 -23.435 0)
(0.786658 -22.9827 0)
(0.640428 -23.1118 1.64151e-21)
(0.467197 -20.175 -2.10095e-21)
(0.232058 -14.6713 5.55655e-22)
(0.116539 -5.99641 -5.57885e-22)
(6.31764 -24.281 -2.62523e-20)
(5.31387 -23.6321 -3.52278e-20)
(4.41786 -24.0634 -6.28685e-21)
(3.70124 -23.5589 -2.74187e-21)
(3.20422 -23.8636 7.69981e-21)
(2.7475 -23.5524 1.06699e-20)
(2.43847 -23.6673 1.43512e-21)
(2.08144 -23.366 0)
(1.82339 -23.3937 1.15572e-21)
(1.60349 -23.0696 -2.06806e-21)
(1.43549 -22.9924 -2.21204e-21)
(1.35089 -22.9953 -2.71896e-21)
(1.15675 -22.9451 0)
(1.08013 -23.1793 -3.66624e-21)
(0.902128 -23.3966 -2.6733e-21)
(0.790552 -22.9549 0)