/*--------------------------------*- C++ -*----------------------------------*\
  =========                 |
  \\      /  F ield         | OpenFOAM: The Open Source CFD Toolbox
   \\    /   O peration     | Website:  https://openfoam.org
    \\  /    A nd           | Version:  9
     \\/     M anipulation  |
\*---------------------------------------------------------------------------*/
FoamFile
{
    format      ascii;
    class       volScalarField;
    location    "6.1";
    object      nut;
}
// * * * * * * * * * * * * * * * * * * * * * * * * * * * * * * * * * * * * * //

dimensions      [0 2 -1 0 0 0 0];

internalField   nonuniform List<scalar> 
46400
(
0.021923
0.00657605
0.00186654
0.0017502
0.00163111
0.00160851
0.00151712
0.0014865
0.00141519
0.00137412
0.00133496
0.00129913
0.00126155
0.00125572
0.00122878
0.00122751
0.00114743
0.00115473
0.00157753
0.00115852
0.0214479
0.00531643
0.00143432
0.00168217
0.00162163
0.0016485
0.00155156
0.00151471
0.00145183
0.00139632
0.00133515
0.00128486
0.0012471
0.00119359
0.00114617
0.00111329
0.00102272
0.000958499
0.0012948
0.00113614
0.0208449
0.00496232
0.00147137
0.00177781
0.00161522
0.00160363
0.00152641
0.00148957
0.00142942
0.00138983
0.00134615
0.00130702
0.00125388
0.00123202
0.00120345
0.00116785
0.0010599
0.00105543
0.00142334
0.00112376
0.0202037
0.00487933
0.00151215
0.00175121
0.00159728
0.00163544
0.00153291
0.00149981
0.00143731
0.00137923
0.00132712
0.00126768
0.00123087
0.00116656
0.00112754
0.00109959
0.0010138
0.000995093
0.00136664
0.00116046
0.0194955
0.00556673
0.00150826
0.0018043
0.0016437
0.00162469
0.00155922
0.00150383
0.00145822
0.00140076
0.00136906
0.00132662
0.00128076
0.00124681
0.00121115
0.00117293
0.00107138
0.00103998
0.00139418
0.00115951
0.0188983
0.00556342
0.00167941
0.00181996
0.00160938
0.00160236
0.00151576
0.00146713
0.00142437
0.00137006
0.00131313
0.00127112
0.00123505
0.00118802
0.00115329
0.0011361
0.00106725
0.0010326
0.00138602
0.00118636
0.0177613
0.00499162
0.00154463
0.00179268
0.00167277
0.00162234
0.00155812
0.00148616
0.00143797
0.00138989
0.00136671
0.0013117
0.00128458
0.00124185
0.0012183
0.001163
0.00109087
0.00105731
0.00135729
0.00116909
0.016269
0.00411465
0.00163192
0.00177838
0.00161165
0.00156642
0.00150716
0.00142084
0.00138429
0.00131353
0.00128412
0.00124579
0.00122149
0.00118691
0.00117685
0.00116654
0.00110138
0.00106964
0.00137583
0.00120643
0.013303
0.00312282
0.00163089
0.00165969
0.00163873
0.00157189
0.00155481
0.00148704
0.00142891
0.00136593
0.00131193
0.00125992
0.00122049
0.00118094
0.00115533
0.00113519
0.00108304
0.00103369
0.00133409
0.00119536
0.0109849
0.00268696
0.00159887
0.0016326
0.00158068
0.00149877
0.00148415
0.00143125
0.00140782
0.00136722
0.00133677
0.00128864
0.00125591
0.00120619
0.00117965
0.00115639
0.00110265
0.0010337
0.00126832
0.00117308
0.0091078
0.00230583
0.00167525
0.00154445
0.00156173
0.00148663
0.00144164
0.00141097
0.0013524
0.00130467
0.00128181
0.00125219
0.00122562
0.00118697
0.0011531
0.00113471
0.00109962
0.00106322
0.00124887
0.00114626
0.00761909
0.00204848
0.00162311
0.00157984
0.00155766
0.00147265
0.00141955
0.00137906
0.00135808
0.00129907
0.0012524
0.00121686
0.00120014
0.00117777
0.00113825
0.00110955
0.00105805
0.00101819
0.00118491
0.0011008
0.00650133
0.00190473
0.00169316
0.00153235
0.00152079
0.00148946
0.0014103
0.00134747
0.00132073
0.00128298
0.0012436
0.00118593
0.001145
0.00112935
0.00111645
0.00109182
0.00104863
0.000998558
0.00112712
0.0010669
0.00546248
0.00177829
0.00167736
0.00156312
0.00154734
0.00151331
0.00150821
0.00141304
0.00134702
0.00129886
0.00125406
0.00121358
0.00114897
0.00109421
0.00105764
0.0010358
0.000996553
0.000966275
0.00105689
0.000996358
0.00474838
0.00158991
0.00161532
0.00155449
0.00146064
0.00139405
0.00141049
0.00138819
0.00134749
0.00130848
0.00126729
0.00124023
0.00121493
0.00117468
0.00112418
0.00109104
0.00104275
0.00100068
0.00108861
0.00101532
0.00470005
0.00164023
0.00164196
0.00163346
0.00161328
0.00145539
0.00138336
0.00136191
0.00129487
0.00126984
0.00121762
0.00116654
0.00112985
0.0011014
0.00107579
0.00104535
0.00101344
0.000963966
0.00102009
0.000968263
0.00434365
0.00171867
0.00155934
0.00145775
0.0015054
0.00142784
0.00139543
0.00133427
0.00130173
0.00128303
0.00124676
0.00122339
0.00117521
0.00113777
0.00109687
0.00106981
0.00103173
0.000991281
0.00103633
0.0009806
0.00374032
0.00186492
0.00187194
0.00162054
0.00150286
0.00143121
0.00135619
0.00128764
0.00123019
0.00120779
0.00116104
0.00114912
0.00112177
0.00110714
0.00107792
0.00106378
0.00102755
0.000997269
0.0010168
0.000987903
0.00268874
0.00137372
0.00158044
0.0015829
0.00155872
0.0015328
0.00144799
0.00142244
0.00137347
0.00134148
0.00125999
0.00121325
0.00115898
0.00111683
0.00108721
0.00105786
0.00103192
0.000987779
0.00101371
0.000972105
0.00308101
0.00170468
0.00140071
0.00144457
0.00144574
0.00143038
0.00138656
0.00134414
0.00131752
0.0012562
0.001216
0.00118253
0.00114473
0.0011176
0.0010752
0.00104853
0.00100527
0.00095933
0.000960358
0.000939358
0.0169109
0.0152594
0.00965333
0.000222023
0.00077698
0.00124691
0.00130539
0.0012802
0.00117187
0.00112824
0.00113503
0.00109623
0.00110335
0.00112024
0.00114172
0.00118873
0.0011926
0.00119652
0.00111008
0.000976974
0.0180519
0.0154581
0.00810301
0.000648745
0.000881312
0.0014022
0.00137401
0.00122964
0.00123567
0.00120849
0.00112381
0.00114349
0.00113388
0.00108229
0.00108897
0.00118107
0.0012265
0.00124228
0.00112635
0.000992128
0.0192663
0.0153406
0.00599497
0.000248073
0.0011817
0.00137253
0.00132404
0.00133243
0.00124174
0.00117559
0.00117846
0.00114066
0.00110899
0.00112205
0.00117804
0.00124579
0.00123736
0.0012348
0.00109861
0.000980091
0.0201865
0.015231
0.00468708
0.000790254
0.00132084
0.00149361
0.00141257
0.00129531
0.00126584
0.00124425
0.00117124
0.00116661
0.00118152
0.00114652
0.00114442
0.00119518
0.00121708
0.00125956
0.0011047
0.000989528
0.0208732
0.0150056
0.00339237
0.000423195
0.00139543
0.00145402
0.00138138
0.00134659
0.00129836
0.00123482
0.00121064
0.00118574
0.0011373
0.00112386
0.00118295
0.00126724
0.00127165
0.00128105
0.00108913
0.00098519
0.0215477
0.0148101
0.00245424
0.000569281
0.00146018
0.00150819
0.00144797
0.00136072
0.0012916
0.00125704
0.00121377
0.00118426
0.00119307
0.00117989
0.00119195
0.00122668
0.00122865
0.00127705
0.00107238
0.000983603
0.0220924
0.0144919
0.00174481
0.000748435
0.00150504
0.00150063
0.00143083
0.00134663
0.00133132
0.0012837
0.00122669
0.00121484
0.00117784
0.00114014
0.00117992
0.00124902
0.00127259
0.00130709
0.0010617
0.000980875
0.0227228
0.0142221
0.00122528
0.000967263
0.00154654
0.00150723
0.00146525
0.0014029
0.00131746
0.00126747
0.00124609
0.00119967
0.00118132
0.00117871
0.0012095
0.00124604
0.00124267
0.00129164
0.00104445
0.000980222
0.0230779
0.0138167
0.0011575
0.00104891
0.00156445
0.00153363
0.00147982
0.0013584
0.00134412
0.00131477
0.00123929
0.00122671
0.0012097
0.00115876
0.00117633
0.00121961
0.00125472
0.00131514
0.00102897
0.000977665
0.0235058
0.0135245
0.00100677
0.0012479
0.00160054
0.00151048
0.00147464
0.00142297
0.00133787
0.00127772
0.00126452
0.00121472
0.00116781
0.00116027
0.00119641
0.00123668
0.00124225
0.00129734
0.00101075
0.000981449
0.0236617
0.013034
0.00186563
0.00123452
0.00159488
0.00154776
0.00151321
0.00138433
0.00134743
0.00132501
0.00124962
0.00122799
0.00122017
0.00116367
0.00116408
0.00118718
0.00122335
0.00129972
0.000986657
0.000971523
0.0239196
0.0127287
0.0013757
0.00144693
0.00166405
0.00151996
0.00148955
0.00143514
0.00135858
0.00129695
0.00127239
0.00122919
0.00117135
0.0011448
0.00116208
0.00119763
0.0012219
0.00128699
0.000972903
0.000984018
0.0239287
0.0123239
0.00274618
0.00133903
0.00163922
0.00155217
0.00152471
0.00142109
0.00135316
0.00132685
0.00126685
0.00123106
0.00121915
0.00116937
0.00114953
0.00115424
0.00118669
0.00127511
0.00095455
0.00098059
0.0240067
0.0121268
0.00194518
0.00152278
0.00169109
0.00155234
0.0015001
0.00144149
0.0013786
0.00131869
0.00127355
0.00124396
0.00119235
0.00114548
0.00113197
0.0011466
0.00118277
0.00125582
0.000938207
0.000993322
0.0238693
0.0117576
0.00239623
0.0014296
0.00164593
0.00156503
0.00154186
0.00146392
0.0013744
0.00134197
0.00129574
0.00124238
0.00122136
0.00119015
0.00114756
0.00113118
0.00115298
0.00124181
0.000927475
0.00100645
0.0237518
0.0115046
0.0023694
0.00157856
0.00170178
0.00157698
0.00150547
0.0014563
0.00139698
0.00134348
0.0012877
0.0012694
0.00122462
0.00117142
0.00113649
0.00112326
0.00115124
0.00121166
0.000893438
0.00100739
0.0234773
0.0103644
0.00198729
0.00153637
0.00164054
0.00158521
0.00154636
0.00149305
0.0014029
0.00136393
0.00132543
0.00126793
0.00124031
0.00122602
0.00117164
0.00114081
0.00114154
0.00119345
0.000872645
0.00102817
0.0231844
0.00982462
0.0023112
0.0016167
0.00170103
0.00160865
0.00152359
0.00148607
0.00142229
0.00137719
0.00131867
0.00130368
0.00126595
0.00122126
0.00117981
0.00115673
0.00116134
0.00117485
0.000813458
0.000913663
0.0228312
0.00850426
0.00175821
0.00165074
0.00163843
0.00160593
0.00153664
0.00150314
0.00142506
0.0013839
0.00134814
0.00130128
0.00127168
0.00126808
0.00122134
0.00120054
0.00118898
0.00119026
0.000818213
0.000991099
0.0223757
0.00753674
0.00212791
0.00165014
0.00166974
0.00164098
0.00154861
0.00151645
0.00145571
0.00141552
0.00136283
0.00134393
0.00131937
0.00128906
0.00126293
0.00128402
0.00127709
0.00125778
0.000971024
0.00109962
0.00690816
0.00503295
0.00386561
0.00288234
0.00245629
0.0020177
0.00166663
0.00134481
0.00109196
0.000902034
0.000711152
0.000613581
0.000463154
0.000413796
0.000400921
0.000596111
0.0016789
0.00593823
0.00992587
0.0148045
0.00691422
0.00485488
0.00386342
0.00286384
0.00252421
0.00206059
0.00170153
0.00137072
0.00111435
0.000924372
0.000712871
0.000608461
0.0004542
0.000414574
0.000382553
0.000608492
0.00170543
0.005963
0.00989107
0.0146478
0.00701184
0.00501162
0.00393976
0.0028
0.00245538
0.00198272
0.0016451
0.00132039
0.0010637
0.000885354
0.000680969
0.000580497
0.000421713
0.000395276
0.000378055
0.000605249
0.00171624
0.00598926
0.0098559
0.0145338
0.00689126
0.00471707
0.00378067
0.0028016
0.00251448
0.00203002
0.00167091
0.00134733
0.00108298
0.000906141
0.000685812
0.000576244
0.000419515
0.00038771
0.000364723
0.000623903
0.00170939
0.00599729
0.00986384
0.0145023
0.0068452
0.00496512
0.00366535
0.0027185
0.00242808
0.00196587
0.00161736
0.00130624
0.00103746
0.000877536
0.00065814
0.000561074
0.000397654
0.000373995
0.00034925
0.000628089
0.00169723
0.0060019
0.00990117
0.014442
0.00694033
0.00472089
0.00373811
0.0027306
0.00248282
0.00200065
0.00163595
0.00133857
0.00105574
0.000897139
0.00066555
0.000558497
0.000391963
0.000367675
0.000336229
0.000642067
0.00167166
0.00595542
0.0099058
0.0144044
0.0072465
0.00487595
0.0037356
0.00260325
0.0024048
0.00194868
0.0015846
0.00130817
0.00101397
0.000872932
0.000648619
0.000552889
0.000380546
0.000350512
0.000313461
0.00064873
0.00164142
0.00592152
0.00992426
0.0143638
0.00719944
0.00480556
0.0037367
0.00264061
0.00243916
0.00197189
0.00159775
0.0013441
0.00103687
0.000888957
0.000649063
0.000549877
0.000376469
0.000349646
0.000293845
0.00061067
0.00158994
0.00588331
0.0099476
0.0143288
0.00725342
0.00484285
0.00371596
0.00253649
0.00238629
0.00192913
0.00154748
0.00132026
0.00100706
0.000872499
0.000642775
0.000549284
0.000370524
0.000335446
0.000255641
0.000538865
0.00151137
0.00582772
0.00997744
0.0142912
0.00729237
0.00484152
0.00373473
0.00253381
0.00239401
0.00195909
0.00155819
0.00135442
0.0010311
0.000882969
0.000644708
0.00054809
0.000374439
0.000279963
0.000218467
0.000503816
0.00143077
0.00581418
0.0100038
0.0142587
0.00726029
0.00484302
0.00379447
0.00251328
0.00233845
0.00191773
0.00151973
0.00132477
0.00101686
0.000873573
0.000647262
0.000550546
0.000370007
0.000238539
0.00017413
0.000471663
0.00135062
0.00581544
0.0100233
0.0142382
0.00734486
0.00478027
0.00373403
0.00249009
0.00233716
0.00194317
0.00153643
0.00134535
0.00104062
0.000882152
0.000651416
0.000557285
0.000372244
0.00026013
0.000154464
0.000433468
0.00126612
0.00576017
0.0100491
0.0142208
0.00733292
0.00475473
0.00378252
0.00250998
0.00228986
0.00191163
0.00151379
0.00131435
0.00103395
0.000878006
0.0006563
0.000562301
0.000379143
0.000325014
0.000128743
0.000394457
0.00116813
0.0057609
0.0101006
0.0142128
0.00737564
0.00463712
0.00369359
0.00248821
0.00228024
0.00192019
0.0015316
0.00133643
0.0010505
0.000888415
0.00066223
0.000575516
0.000417074
0.000344314
0.00012455
0.00035431
0.00108123
0.00573211
0.010138
0.0142381
0.00742494
0.0045127
0.00363534
0.00252753
0.00225583
0.00190493
0.00151266
0.0013193
0.00104728
0.000886492
0.000669854
0.000579021
0.000425054
0.000360591
9.02283e-05
0.000316865
0.000982254
0.00567629
0.0101803
0.0142764
0.00745858
0.00438731
0.00353434
0.00251483
0.00222479
0.00191221
0.00153057
0.00133382
0.00106046
0.000894865
0.000676762
0.000592209
0.000447874
0.000384739
0.000117168
0.000288207
0.000887352
0.00561636
0.0102175
0.0143162
0.00757202
0.00420498
0.00340127
0.00256422
0.00220456
0.00189274
0.00151309
0.00131824
0.00106111
0.000892343
0.000684235
0.000594667
0.000449438
0.000392499
0.000127541
0.000259461
0.000805349
0.00561215
0.010248
0.014354
0.00758563
0.00406299
0.00329501
0.00257622
0.00219939
0.00193579
0.00155356
0.00135064
0.00108696
0.000916857
0.000700479
0.000617222
0.000474447
0.000408304
0.000145295
0.000239583
0.00072998
0.00558213
0.010273
0.0144391
0.00751413
0.00401197
0.00306722
0.00259496
0.00216772
0.00188429
0.00152201
0.00133311
0.00108126
0.000919843
0.000710031
0.000614006
0.000476013
0.00040968
0.00014876
0.000206229
0.000658752
0.00559545
0.0102789
0.0145447
0.00795374
0.00395013
0.00291945
0.00257325
0.00213011
0.00186582
0.00147852
0.00128408
0.00104773
0.000890887
0.000703471
0.000603997
0.0004766
0.000415281
0.000156282
0.000168645
0.000545233
0.00532482
0.0101578
0.0143841
0.0149525
0.0394014
0.0296856
0.0283637
0.0236459
0.0209097
0.0167177
0.0141025
0.0111739
0.00945133
0.00769588
0.00662357
0.00516727
0.0046905
0.00383989
0.00344109
0.000931243
0.0508031
0.0962305
0.132802
0.0351251
0.0242979
0.0207033
0.0194107
0.015955
0.0137555
0.0115879
0.00938818
0.00779058
0.00656018
0.00550945
0.00452257
0.00419656
0.00363583
0.00353682
0.00298146
0.00931752
0.053288
0.094984
0.129735
0.0178688
0.0160708
0.0153678
0.0120928
0.0103805
0.00895261
0.00836341
0.00756616
0.00667251
0.00618311
0.00558977
0.00511277
0.00469854
0.00424397
0.00423405
0.00351075
0.00818301
0.0532641
0.0923329
0.130333
0.0121706
0.00985259
0.00908148
0.00983626
0.00848394
0.00773171
0.00708818
0.0065758
0.00595263
0.0053333
0.00492086
0.00461646
0.00418454
0.00384304
0.00329245
0.0022883
0.00749845
0.0518901
0.0939392
0.126821
0.00676781
0.00819228
0.00807583
0.00685305
0.00622418
0.00545298
0.00527807
0.00505342
0.00468804
0.00456635
0.00410359
0.0039553
0.00380797
0.00385358
0.00379359
0.00268271
0.00511499
0.0472005
0.0941641
0.126732
0.00595715
0.00512833
0.00418559
0.00438136
0.00446029
0.00485993
0.00441726
0.00441042
0.00410163
0.00400253
0.00399308
0.00366717
0.00363234
0.00342969
0.00341024
0.00250077
0.00435563
0.0420197
0.0949362
0.127714
0.00166572
0.00349519
0.00417042
0.00440363
0.00388864
0.00341815
0.00337714
0.00335923
0.00338419
0.0033037
0.00312096
0.00330976
0.00319188
0.00345079
0.00332995
0.00257234
0.00338821
0.0330725
0.0961078
0.130696
0.00262995
0.00265826
0.00233735
0.00221221
0.0025382
0.00285038
0.00276983
0.00296555
0.00283828
0.00309316
0.00309988
0.00305617
0.00298503
0.00315548
0.00324417
0.00285431
0.00392328
0.0253396
0.095709
0.136992
0.0014429
0.00166271
0.00193396
0.00228825
0.0023046
0.002335
0.0022599
0.00238682
0.00248751
0.00261162
0.00260333
0.00293226
0.00281048
0.00311336
0.00307621
0.00322638
0.00254323
0.0177992
0.0939678
0.144594
0.00115573
0.00125569
0.00127974
0.00133879
0.00143834
0.00167536
0.00181412
0.0020784
0.00218478
0.00236525
0.00250707
0.00267143
0.0027856
0.00297193
0.00308783
0.00366531
0.00267299
0.0111058
0.0891953
0.1559
0.000666706
0.000839418
0.000961447
0.0012028
0.00129976
0.00151786
0.00159303
0.00174407
0.00188558
0.00210671
0.0022207
0.00252433
0.0026697
0.00282092
0.00286585
0.00339198
0.00301536
0.006389
0.0695386
0.16829
0.000463592
0.00066121
0.000695582
0.000875454
0.000954724
0.0011293
0.00129694
0.00151638
0.00165255
0.00188036
0.00208372
0.00230535
0.00261589
0.00299043
0.00304484
0.0031531
0.00373395
0.00517886
0.0563731
0.18586
0.000441322
0.00062453
0.000710747
0.000851608
0.000929464
0.00110147
0.00117596
0.00141883
0.00146128
0.00168374
0.00179502
0.00207313
0.00226309
0.00253894
0.00293823
0.00307273
0.00431872
0.00976264
0.0312681
0.159539
0.000492183
0.000574145
0.000614965
0.000786957
0.000863716
0.0010542
0.00109882
0.00122535
0.00130919
0.00153713
0.00158571
0.0018361
0.00178518
0.00216449
0.00226865
0.00329867
0.0032364
0.00634306
0.0168164
0.111139
0.000566864
0.000658799
0.000686109
0.000768797
0.00079396
0.000873278
0.000935014
0.00106255
0.00113388
0.00129434
0.00132162
0.00157667
0.00167427
0.00215569
0.0021419
0.00267554
0.00264766
0.00374997
0.0044469
0.0628012
0.000407296
0.000502901
0.000560743
0.000628959
0.000675988
0.000756871
0.000820609
0.000985687
0.000934115
0.00106976
0.00104076
0.00126513
0.00124585
0.00150804
0.00146584
0.00157965
0.0016132
0.00261029
0.00470174
0.0330048
0.00037927
0.000426626
0.000452308
0.00053314
0.000572749
0.000660656
0.00066443
0.000700347
0.000709909
0.000837416
0.00083127
0.00093963
0.00105021
0.00107051
0.00118653
0.00138968
0.00157656
0.00138815
0.000956545
0.0145451
0.000326451
0.000345526
0.000353736
0.000372897
0.000371251
0.000402256
0.000439041
0.000523668
0.000569394
0.000605482
0.000628055
0.000659114
0.000660798
0.000643247
0.000615929
0.000696097
0.000848769
0.000973065
0.00129418
0.00436747
0.000338494
0.000312189
0.000296876
0.00029831
0.000302548
0.000303434
0.000277469
0.000264057
0.000243633
0.000266032
0.000277196
0.000311865
0.000326185
0.000403694
0.00037556
0.000447238
0.000307483
0.000412953
0.000255796
0.0030605
0.000371941
0.000349325
0.000310953
0.000272169
0.000227839
0.000195002
0.000161652
0.000143704
0.000142756
0.000184982
0.000185903
0.000219728
0.000239287
0.00028783
0.000300082
0.000223671
0.000329034
0.00019178
0.000221349
0.000365728
0.014082
0.0142005
0.0141586
0.014261
0.0143893
0.0142456
0.0145721
0.0139433
0.0138711
0.0140326
0.0129485
0.0125848
0.0121177
0.0117526
0.0121498
0.0113328
0.0119597
0.00980655
0.0105542
0.0115868
0.00696641
0.0069596
0.00692507
0.00694624
0.00687298
0.00691749
0.0067754
0.00665353
0.0074925
0.00713528
0.00690863
0.0070032
0.00699083
0.00723039
0.00719748
0.00693985
0.00685667
0.00612186
0.00646875
0.00797728
0.00418994
0.00420291
0.00425182
0.00430718
0.00435787
0.00444105
0.00445529
0.00464183
0.00447471
0.00439836
0.00420753
0.00447238
0.00414103
0.00364774
0.0036081
0.00363901
0.00314119
0.00394348
0.00417392
0.00456707
0.00268195
0.00268879
0.00267894
0.00267597
0.00265183
0.00264685
0.00261257
0.00257322
0.00245766
0.00248747
0.00249246
0.00241744
0.00268531
0.00281929
0.00258924
0.00314715
0.00287329
0.00299005
0.00242085
0.00289663
0.00161556
0.00161239
0.00160768
0.00161343
0.00162893
0.00162155
0.00160427
0.00166164
0.00175411
0.00186454
0.00196978
0.00194401
0.00197339
0.00169084
0.00138389
0.00125371
0.00127573
0.00144694
0.00157883
0.00170581
0.00114613
0.00114679
0.00115074
0.00115606
0.00115797
0.00116223
0.00115659
0.00118726
0.00115254
0.00121282
0.000969465
0.000942056
0.00090564
0.0011001
0.00142569
0.00122209
0.00116778
0.00115514
0.00103703
0.00126552
0.000660614
0.000660473
0.000660563
0.000662115
0.000669832
0.000671236
0.000688783
0.00068046
0.000697558
0.00074835
0.000777911
0.000888022
0.000780688
0.00077279
0.000590376
0.000703298
0.000781696
0.000803304
0.000729544
0.000678184
0.000449546
0.000451622
0.000454388
0.000461065
0.000472413
0.000478244
0.000483448
0.00048741
0.000493685
0.000503561
0.000497588
0.000476521
0.000450282
0.000468319
0.000458141
0.000499979
0.000488439
0.000488589
0.000431702
0.000581807
0.000232566
0.00023464
0.000246169
0.000249119
0.000260948
0.00024659
0.000246091
0.000243779
0.000251143
0.000243013
0.000259057
0.000250236
0.000286001
0.00029695
0.000299577
0.00033567
0.000278316
0.00025703
0.000248512
0.000294663
0.000123491
0.000124179
0.000125332
0.000127818
0.000123653
0.000121897
0.000121482
0.000154608
0.000136219
0.000155057
0.000153897
0.000160652
0.000165435
0.000157707
0.000132658
0.000151861
0.000146901
0.000168445
0.000168053
0.000262957
5.18581e-05
4.57264e-05
4.07934e-05
3.75862e-05
3.56445e-05
3.31132e-05
3.86846e-05
4.41857e-05
5.15509e-05
5.67426e-05
6.73519e-05
6.85531e-05
8.29725e-05
7.30619e-05
8.37428e-05
0.000100677
0.000101205
0.000118446
0.000115513
0.000129008
7.1535e-05
4.9317e-05
3.73967e-05
2.76028e-05
2.2587e-05
1.98266e-05
1.39476e-05
5.89151e-06
8.60144e-06
1.15318e-05
1.88271e-05
2.20508e-05
3.25283e-05
4.42153e-05
6.7976e-05
7.02355e-05
7.94386e-05
7.26259e-05
7.60001e-05
0.000101216
6.70706e-05
6.4553e-05
6.30974e-05
6.13545e-05
6.13818e-05
6.05472e-05
6.52127e-05
6.83506e-05
7.28025e-05
7.1139e-05
7.34712e-05
7.02236e-05
7.83129e-05
7.0962e-05
8.28618e-05
7.60248e-05
9.0188e-05
8.05597e-05
9.92501e-05
0.000102835
6.68992e-05
6.47094e-05
7.03858e-05
7.65522e-05
8.30582e-05
8.97626e-05
9.5496e-05
0.000102844
0.000108174
0.000107709
0.000110311
0.000111538
0.000113097
0.000110268
0.000113155
0.000106304
0.000110998
0.000104465
0.000116221
0.000124073
3.66926e-05
3.86815e-05
4.11349e-05
4.55356e-05
5.38998e-05
6.10019e-05
6.83459e-05
7.08727e-05
7.27487e-05
7.7484e-05
8.45869e-05
8.53639e-05
9.18646e-05
9.22983e-05
0.000102394
0.000101298
0.000112538
0.000109648
0.00012397
0.000129282
2.48232e-05
2.85472e-05
3.22301e-05
3.63593e-05
3.808e-05
4.03306e-05
4.27159e-05
4.37081e-05
4.54197e-05
4.96776e-05
4.98845e-05
4.8817e-05
4.98327e-05
5.19e-05
5.15055e-05
5.44381e-05
5.25281e-05
5.7512e-05
5.00837e-05
5.97973e-05
7.17451e-05
7.38077e-05
7.77352e-05
8.02067e-05
8.07284e-05
8.09419e-05
8.01695e-05
7.95299e-05
7.86819e-05
7.80886e-05
7.73558e-05
7.6131e-05
7.65614e-05
7.61331e-05
7.71897e-05
7.67647e-05
8.00876e-05
7.92391e-05
8.63664e-05
8.91839e-05
4.39781e-05
4.13759e-05
4.00181e-05
3.76935e-05
3.43182e-05
3.12307e-05
2.81828e-05
2.60251e-05
2.63933e-05
2.76575e-05
2.90923e-05
3.11072e-05
3.12578e-05
3.26956e-05
3.33859e-05
3.49208e-05
3.48496e-05
3.69439e-05
3.68256e-05
4.30793e-05
0.000100583
9.86575e-05
9.73157e-05
9.70249e-05
9.63357e-05
9.52245e-05
9.42115e-05
9.31209e-05
9.2061e-05
9.08889e-05
8.99442e-05
8.90303e-05
8.76606e-05
8.62626e-05
8.51124e-05
8.43912e-05
8.38917e-05
8.48139e-05
8.45962e-05
8.70345e-05
0.000115227
0.00011375
0.000112378
0.000111226
0.000110155
0.000108916
0.000107749
0.000106468
0.000105279
0.000104057
0.00010288
0.000101508
0.000100231
9.9217e-05
9.81139e-05
9.71955e-05
9.58188e-05
9.52153e-05
9.41892e-05
9.2982e-05
0.000925162
0.00102972
0.00079972
0.000881513
0.000924267
0.000949872
0.00098395
0.00100703
0.00106079
0.00110446
0.00114614
0.00117567
0.00121884
0.00124254
0.00131756
0.00134914
0.0013293
0.00202793
0.00678402
0.0177865
0.000943795
0.00108694
0.000871736
0.00093971
0.000984415
0.0010134
0.00102992
0.00106466
0.00109778
0.00111096
0.00113813
0.00115864
0.0012176
0.00125702
0.00134338
0.00134998
0.00140732
0.00143782
0.00595662
0.0174546
0.00106081
0.00113363
0.0008431
0.000913688
0.000956767
0.000961081
0.000983768
0.00101202
0.00105371
0.0011024
0.00114858
0.00118943
0.00123718
0.00126602
0.00134952
0.00135668
0.0014444
0.00129444
0.00485063
0.0170271
0.0010496
0.00112304
0.000871411
0.000970876
0.000986114
0.00101258
0.00104163
0.00107126
0.00110979
0.00113643
0.0011732
0.00120562
0.00126234
0.00130725
0.0013815
0.00137166
0.0014863
0.00127553
0.00428157
0.0165622
0.00106731
0.0011242
0.000860853
0.000902423
0.000921207
0.000952917
0.000977427
0.00102439
0.00107771
0.0011297
0.00117372
0.0012097
0.00125557
0.00129038
0.00136221
0.00136926
0.00147909
0.00132365
0.00393836
0.0160057
0.000991198
0.00103257
0.000818285
0.000907337
0.00100315
0.001033
0.00106467
0.00111819
0.00115169
0.00118333
0.00121648
0.00126129
0.00131681
0.00135935
0.00140995
0.00141697
0.00151724
0.00140425
0.0047983
0.0152949
0.000994877
0.00103682
0.000872518
0.000962694
0.00097625
0.000988318
0.0010362
0.0010788
0.0011078
0.00115125
0.00118323
0.00121533
0.00124727
0.00128389
0.00137105
0.00141337
0.0015332
0.00147578
0.00441701
0.014589
0.000974744
0.00104589
0.000909187
0.000954721
0.000989474
0.00105399
0.00109881
0.00113754
0.0011618
0.00119555
0.00121823
0.00127323
0.00132332
0.0013983
0.00145105
0.00147975
0.00158045
0.00151173
0.00394666
0.0136936
0.00104889
0.00109182
0.000919512
0.000971028
0.00103557
0.00104388
0.00104853
0.00105819
0.00107486
0.00112748
0.00117767
0.00122805
0.00127372
0.00133249
0.00138981
0.00146189
0.00153662
0.00152152
0.00325973
0.0124546
0.000940042
0.000957267
0.000863823
0.000945634
0.00095978
0.00098515
0.00102731
0.00107503
0.00114935
0.00123537
0.0012615
0.00131396
0.00134758
0.00140945
0.00144322
0.00149193
0.00155236
0.00159786
0.00264638
0.0105725
0.000987383
0.00103268
0.000983846
0.00102449
0.00105942
0.00110397
0.00111504
0.00115946
0.00121157
0.00119855
0.00120183
0.00123984
0.00126277
0.001328
0.00135517
0.00144417
0.00146962
0.00152645
0.00221872
0.00856115
0.000952677
0.00102515
0.000937455
0.00095556
0.000991129
0.000989755
0.00101712
0.0010683
0.00105831
0.00107627
0.00115037
0.00122205
0.00127299
0.00134051
0.00138971
0.00148457
0.00153251
0.00165962
0.00196489
0.00676641
0.000970611
0.000973006
0.000881812
0.000953319
0.000968984
0.00102171
0.00108737
0.00111696
0.00115362
0.0012341
0.00126974
0.00129228
0.00130433
0.00136568
0.00140898
0.00147938
0.00147592
0.00155141
0.00166943
0.00527245
0.000947829
0.000949352
0.000939556
0.000997003
0.00102755
0.00108706
0.0010735
0.00109817
0.00112875
0.00115261
0.00118099
0.00124232
0.00130146
0.00139665
0.00142049
0.00150001
0.0015071
0.00163501
0.00164439
0.00442019
0.000939364
0.000998648
0.0009918
0.00101937
0.00106149
0.00105604
0.00107396
0.00113275
0.00115603
0.00122258
0.0012703
0.00130896
0.00133776
0.00138382
0.00138201
0.00144075
0.00142001
0.00150717
0.00147396
0.00372434
0.000963146
0.000983028
0.000936227
0.000977767
0.000985897
0.00101498
0.00108093
0.0011179
0.00116434
0.00120969
0.00122736
0.00127022
0.00131878
0.00135756
0.00137683
0.0014278
0.00143493
0.00147101
0.00153963
0.00413015
0.000936764
0.000958731
0.000942633
0.00099247
0.00102765
0.00108496
0.00110145
0.00112676
0.00114825
0.00116904
0.00120857
0.00124638
0.00128791
0.00132261
0.00134085
0.00139631
0.00142114
0.00150606
0.00167868
0.00410986
0.000931725
0.000964974
0.000968452
0.0010155
0.00105452
0.00107431
0.00108405
0.0011331
0.00114521
0.0012208
0.00123009
0.00127844
0.00129604
0.0013168
0.00137972
0.00146551
0.00151979
0.00173688
0.00169658
0.00251317
0.000949374
0.000974012
0.000956271
0.00100201
0.00101415
0.00104148
0.00106843
0.00111669
0.00115236
0.00120443
0.0012186
0.00128968
0.00133946
0.00141484
0.00148547
0.00153269
0.00161665
0.00168135
0.00162221
0.00136045
0.000954936
0.000978144
0.000976319
0.0010166
0.00105984
0.00108651
0.00113193
0.0011561
0.0011897
0.00120443
0.00122891
0.00127414
0.00128956
0.00132991
0.00133155
0.00136614
0.00148667
0.00144889
0.00177762
0.00142403
0.000361174
0.000367664
0.000363961
0.000309396
0.000287436
0.000323105
0.00033043
0.000360482
0.000496954
0.00037075
0.000190472
0.000606315
0.00192526
0.00505743
0.00962133
0.0117962
0.00825857
0.00349295
0.000803229
0.00153448
0.000328069
0.000310441
0.00039457
0.000396752
0.000340049
0.000299823
0.00034345
0.000319163
0.000351222
0.00044331
0.000356982
0.000155548
0.000792933
0.00255588
0.00639847
0.0108763
0.0109966
0.00630769
0.00154761
6.5475e-24
0.000356889
0.000275342
0.000287035
0.000329459
0.00036166
0.000318092
0.000353714
0.000342536
0.000360145
0.000360597
0.000396488
0.000296674
8.3236e-05
0.00117851
0.00370108
0.00821166
0.0118205
0.00888511
0.00362212
0.000446746
0.000342442
0.000299718
0.000360587
0.000337818
0.000351067
0.000297206
0.000323228
0.000333249
0.000347726
0.000360171
0.00037281
0.000337768
0.000202993
0.000139862
0.00179218
0.00566397
0.010634
0.0112331
0.00651148
0.000563308
0.000380494
0.000228982
0.000274249
0.000323771
0.000402848
0.000341623
0.000334427
0.0003169
0.000341407
0.000350236
0.000392293
0.000376016
0.000291193
0.000117498
0.000519801
0.00340584
0.00855652
0.0119655
0.00894751
0.00223264
0.000415841
0.000303248
0.000303851
0.000271683
0.000362958
0.000356988
0.000373507
0.000365815
0.000349755
0.000354337
0.000358437
0.000412453
0.000357981
0.000228078
6.84641e-05
0.00152373
0.00642814
0.0117058
0.0102058
0.0024406
0.000439804
0.00028655
0.000310497
0.000281756
0.000396386
0.000374066
0.000364826
0.000375035
0.000401877
0.000391875
0.000413437
0.000413035
0.000415154
0.000357082
9.4215e-05
0.000376809
0.0042461
0.0104626
0.0115525
0.0040713
0.000504077
0.000375222
0.000350127
0.000272071
0.000382864
0.000426047
0.000444788
0.000423542
0.000413931
0.000434132
0.000449196
0.000495232
0.000489868
0.000448906
0.000334735
0.000182195
0.00199956
0.00922518
0.012204
0.00672733
0.000552388
0.000400801
0.000397443
0.000299304
0.0004119
0.000443372
0.00045299
0.000487672
0.000509513
0.000486449
0.00050988
0.000545249
0.000529253
0.000594807
0.000538875
0.000129899
0.000809646
0.00784729
0.0123714
0.00920927
0.000607774
0.0004782
0.000450229
0.0003376
0.000422127
0.000490735
0.000526892
0.000514868
0.000527877
0.000566306
0.000588813
0.000639699
0.000634136
0.000644142
0.000649145
0.000432874
0.000392024
0.00577937
0.0122905
0.011607
0.000629551
0.000490344
0.000503473
0.000406442
0.000476932
0.000540714
0.000554503
0.000594561
0.000619222
0.000599504
0.000630857
0.000687554
0.000696551
0.000747737
0.000790207
0.000658075
0.000197575
0.00403379
0.0120309
0.0142219
0.000706359
0.000585217
0.000595014
0.000489393
0.000519425
0.000586058
0.000626321
0.000622431
0.000645412
0.000691316
0.000721078
0.000765252
0.00076432
0.000784691
0.000827174