/*--------------------------------*- C++ -*----------------------------------*\
  =========                 |
  \\      /  F ield         | OpenFOAM: The Open Source CFD Toolbox
   \\    /   O peration     | Website:  https://openfoam.org
    \\  /    A nd           | Version:  9
     \\/     M anipulation  |
\*---------------------------------------------------------------------------*/
FoamFile
{
    format      ascii;
    class       surfaceScalarField;
    location    "6.1";
    object      phi;
}
// * * * * * * * * * * * * * * * * * * * * * * * * * * * * * * * * * * * * * //

dimensions      [0 3 -1 0 0 0 0];

internalField   nonuniform List<scalar> 
92080
(
-0.0055084
-0.536876
0.542384
-0.034248
-1.04916
1.0779
-0.0825164
-1.13139
1.17966
-0.130038
-1.11296
1.16048
-0.175621
-1.09352
1.1391
-0.220348
-1.07519
1.11991
-0.264487
-1.05832
1.10246
-0.30826
-1.04179
1.08556
-0.350856
-1.02759
1.07018
-0.393023
-1.01255
1.05471
-0.435307
-0.99978
1.04206
-0.476716
-0.986892
1.0283
-0.5178
-0.975183
1.01627
-0.558101
-0.963384
1.00368
-0.597869
-0.951466
0.991234
-0.636898
-0.940871
0.979901
-0.674949
-0.929822
0.967873
-0.713603
-0.917746
0.9564
-0.752486
-0.90673
0.945613
-0.900745
0.934561
-0.786303
-0.00848725
-0.528389
-0.0404364
-1.01721
-0.0873783
-1.08445
-0.134545
-1.0658
-0.181439
-1.04662
-0.228499
-1.02813
-0.274706
-1.01211
-0.320473
-0.996022
-0.365633
-0.982429
-0.409383
-0.968797
-0.452432
-0.956731
-0.494659
-0.944664
-0.536367
-0.933475
-0.577019
-0.922732
-0.617008
-0.911477
-0.656228
-0.901651
-0.693665
-0.892385
-0.728208
-0.883203
-0.760594
-0.874344
-0.867245
-0.794093
-0.00855921
-0.519829
-0.0439511
-0.98182
-0.0932059
-1.0352
-0.142248
-1.01675
-0.189499
-0.999372
-0.236509
-0.981114
-0.283538
-0.96508
-0.330125
-0.949436
-0.376306
-0.936248
-0.422498
-0.922604
-0.467826
-0.911404
-0.512401
-0.900089
-0.556028
-0.889848
-0.598821
-0.879939
-0.640683
-0.869615
-0.682389
-0.859945
-0.724114
-0.85066
-0.765762
-0.841555
-0.806044
-0.834062
-0.828659
-0.84463
-0.0073199
-0.512509
-0.0482067
-0.940933
-0.0993609
-0.984043
-0.150429
-0.965685
-0.199931
-0.949871
-0.248485
-0.93256
-0.296256
-0.91731
-0.344095
-0.901597
-0.391155
-0.889189
-0.436967
-0.876792
-0.483102
-0.865269
-0.528117
-0.855074
-0.572816
-0.845149
-0.616178
-0.836577
-0.658591
-0.827202
-0.699795
-0.818741
-0.739493
-0.810962
-0.778777
-0.802271
-0.818986
-0.793853
-0.787728
-0.859917
-0.000562891
-0.511947
-0.0448242
-0.896672
-0.0964939
-0.932374
-0.148822
-0.913357
-0.200296
-0.898396
-0.251012
-0.881843
-0.300853
-0.867469
-0.350018
-0.852431
-0.399716
-0.839491
-0.448454
-0.828053
-0.496363
-0.81736
-0.544196
-0.807241
-0.591365
-0.79798
-0.638149
-0.789793
-0.683762
-0.781588
-0.729781
-0.772723
-0.775003
-0.76574
-0.818241
-0.759033
-0.860139
-0.751955
-0.745652
-0.902215
0.00128076
-0.513227
-0.0448587
-0.850532
-0.103128
-0.874104
-0.159338
-0.857147
-0.212285
-0.84545
-0.263503
-0.830625
-0.313724
-0.817248
-0.362758
-0.803397
-0.411581
-0.790668
-0.460268
-0.779367
-0.508188
-0.76944
-0.555582
-0.759846
-0.602639
-0.750923
-0.649389
-0.743044
-0.694704
-0.736272
-0.738972
-0.728456
-0.783927
-0.720785
-0.828793
-0.714166
-0.872942
-0.707806
-0.701884
-0.91671
0.00203759
-0.515265
-0.045315
-0.80318
-0.100689
-0.81873
-0.157334
-0.800502
-0.213946
-0.788838
-0.268045
-0.776527
-0.320561
-0.764733
-0.371539
-0.752418
-0.422042
-0.740166
-0.472315
-0.729093
-0.522404
-0.719351
-0.571518
-0.710733
-0.620694
-0.701746
-0.669716
-0.694022
-0.718839
-0.687149
-0.766196
-0.681099
-0.812914
-0.674067
-0.858868
-0.668212
-0.904341
-0.662334
-0.65691
-0.949315
0.00099845
-0.516263
-0.0503478
-0.751833
-0.110743
-0.758336
-0.167734
-0.743511
-0.223358
-0.733214
-0.278262
-0.721622
-0.331576
-0.711419
-0.382358
-0.701637
-0.431979
-0.690545
-0.480769
-0.680303
-0.529898
-0.670222
-0.578616
-0.662016
-0.626593
-0.653769
-0.674733
-0.645882
-0.723144
-0.638738
-0.771546
-0.632696
-0.819429
-0.626184
-0.867736
-0.619905
-0.91521
-0.614859
-0.60945
-0.96267
-0.007802
-0.508461
-0.0613074
-0.698328
-0.119318
-0.700325
-0.176866
-0.685962
-0.233488
-0.676592
-0.288704
-0.666407
-0.344465
-0.655657
-0.398872
-0.64723
-0.451646
-0.63777
-0.50284
-0.62911
-0.552712
-0.62035
-0.602329
-0.612398
-0.651357
-0.604742
-0.699668
-0.597571
-0.748107
-0.590299
-0.796513
-0.58429
-0.844088
-0.578609
-0.891613
-0.572381
-0.939695
-0.566777
-0.561792
-0.987353
-0.0162899
-0.492171
-0.0696888
-0.644929
-0.125485
-0.644529
-0.18092
-0.630527
-0.236919
-0.620593
-0.290942
-0.612384
-0.344713
-0.601886
-0.398178
-0.593765
-0.451001
-0.584946
-0.503858
-0.576253
-0.556204
-0.568003
-0.607545
-0.561057
-0.658164
-0.554123
-0.708018
-0.547717
-0.757321
-0.540996
-0.806635
-0.534976
-0.855563
-0.529682
-0.903167
-0.524777
-0.950172
-0.519772
-0.514466
-0.997498
-0.0248425
-0.467329
-0.0818185
-0.587953
-0.141048
-0.5853
-0.195931
-0.575644
-0.25193
-0.564594
-0.306721
-0.557593
-0.360116
-0.548492
-0.413748
-0.540134
-0.465429
-0.533265
-0.51592
-0.525762
-0.566557
-0.517366
-0.617569
-0.510046
-0.668246
-0.503446
-0.718099
-0.497863
-0.767276
-0.49182
-0.816481
-0.48577
-0.865826
-0.480337
-0.915523
-0.47508
-0.964136
-0.471158
-0.466709
-1.01189
-0.0318544
-0.435475
-0.0883595
-0.531448
-0.14557
-0.52809
-0.201964
-0.519249
-0.257707
-0.508851
-0.312897
-0.502403
-0.365899
-0.49549
-0.41923
-0.486803
-0.472748
-0.479747
-0.524745
-0.473764
-0.575145
-0.466966
-0.625043
-0.460148
-0.675389
-0.453099
-0.725899
-0.447353
-0.775117
-0.442603
-0.823606
-0.43728
-0.871472
-0.432471
-0.91915
-0.427403
-0.96728
-0.423028
-0.419
-1.01499
-0.0366298
-0.398845
-0.0951781
-0.4729
-0.155451
-0.467817
-0.2117
-0.462999
-0.267354
-0.453198
-0.324221
-0.445536
-0.378181
-0.441529
-0.430633
-0.434351
-0.482976
-0.427404
-0.535288
-0.421452
-0.586788
-0.415465
-0.636797
-0.41014
-0.685749
-0.404147
-0.73528
-0.397822
-0.785245
-0.392638
-0.834661
-0.387865
-0.883522
-0.38361
-0.931563
-0.379362
-0.978922
-0.375668
-0.371546
-1.02638
-0.0420049
-0.35684
-0.101214
-0.413691
-0.161091
-0.40794
-0.21883
-0.405261
-0.274574
-0.397453
-0.331941
-0.388169
-0.390077
-0.383393
-0.445505
-0.378924
-0.499357
-0.373551
-0.552169
-0.368641
-0.604252
-0.363382
-0.655741
-0.358651
-0.705325
-0.354563
-0.753291
-0.349856
-0.800641
-0.345288
-0.847971
-0.340534
-0.895071
-0.33651
-0.942153
-0.33228
-0.988986
-0.328835
-0.325274
-1.03526
-0.0433499
-0.31349
-0.0979339
-0.359107
-0.155586
-0.350288
-0.214206
-0.346641
-0.268297
-0.343362
-0.321573
-0.334893
-0.376567
-0.328399
-0.431788
-0.323703
-0.48633
-0.31901
-0.54006
-0.31491
-0.593185
-0.310258
-0.645979
-0.305856
-0.698947
-0.301595
-0.751007
-0.297796
-0.801931
-0.294364
-0.851868
-0.290597
-0.901099
-0.28728
-0.949752
-0.283627
-0.998091
-0.280495
-0.27707
-1.0463
-0.0492531
-0.264237
-0.107688
-0.300672
-0.16629
-0.291686
-0.228171
-0.28476
-0.288913
-0.28262
-0.345349
-0.278457
-0.399733
-0.274015
-0.454699
-0.268736
-0.508109
-0.2656
-0.561326
-0.261693
-0.613412
-0.258172
-0.664175
-0.255093
-0.714259
-0.251512
-0.763961
-0.248094
-0.813539
-0.244786
-0.862433
-0.241702
-0.911161
-0.238553
-0.95899
-0.235798
-1.00661
-0.232878
-0.23041
-1.05327
-0.0499818
-0.214255
-0.112474
-0.238179
-0.167847
-0.236314
-0.223515
-0.229091
-0.281046
-0.225089
-0.337235
-0.222268
-0.392798
-0.218452
-0.446808
-0.214727
-0.500706
-0.211701
-0.554356
-0.208044
-0.607792
-0.204736
-0.660983
-0.201902
-0.713196
-0.199298
-0.764596
-0.196694
-0.815171
-0.19421
-0.865171
-0.191703
-0.914653
-0.18907
-0.963705
-0.186746
-1.01242
-0.184162
-0.182012
-1.06082
-0.0474086
-0.166846
-0.115322
-0.170265
-0.183356
-0.168281
-0.244136
-0.168311
-0.301455
-0.16777
-0.357141
-0.166582
-0.411513
-0.16408
-0.464047
-0.162193
-0.51573
-0.160017
-0.566848
-0.156926
-0.617552
-0.154031
-0.668054
-0.1514
-0.718714
-0.148638
-0.769189
-0.14622
-0.819515
-0.143884
-0.869628
-0.141589
-0.919273
-0.139425
-0.968748
-0.137271
-1.01763
-0.135278
-0.13322
-1.06642
-0.0417696
-0.125077
-0.0903668
-0.121668
-0.14952
-0.109128
-0.209016
-0.108815
-0.269239
-0.107547
-0.329097
-0.106725
-0.386715
-0.106461
-0.444495
-0.104414
-0.500929
-0.103583
-0.557349
-0.100506
-0.611382
-0.0999983
-0.664751
-0.098032
-0.716596
-0.0967922
-0.76778
-0.095036
-0.818404
-0.0932607
-0.868548
-0.0914453
-0.918418
-0.0895555
-0.967823
-0.0878657
-1.01695
-0.0861557
-0.0845968
-1.06557
-0.0637727
-0.0613041
-0.125336
-0.0601042
-0.177688
-0.0567763
-0.232641
-0.0538615
-0.288747
-0.0514413
-0.345246
-0.0502258
-0.401087
-0.0506201
-0.456271
-0.0492302
-0.511276
-0.0485778
-0.564882
-0.0468997
-0.617881
-0.0469999
-0.670239
-0.0456739
-0.722039
-0.0449914
-0.773382
-0.0436932
-0.823913
-0.0427298
-0.8739
-0.0414587
-0.923015
-0.0404403
-0.971525
-0.0393553
-1.01941
-0.0382755
-1.06663
-0.0373755
0.0383164
-0.311897
0.27358
0.10273
-0.918477
0.854063
0.150751
-1.42712
1.3791
0.164581
-1.59277
1.57894
0.167098
-1.59716
1.59465
0.165346
-1.57832
1.58008
0.163266
-1.55523
1.55731
0.160663
-1.53483
1.53744
0.158388
-1.51636
1.51864
0.155475
-1.49893
1.50184
0.152149
-1.48236
1.48568
0.148822
-1.46702
1.47035
0.144786
-1.45078
1.45481
0.140023
-1.43525
1.44001
0.135007
-1.41997
1.42498
0.130218
-1.40294
1.40773
0.125707
-1.38466
1.38917
0.121281
-1.36444
1.36887
0.11674
-1.34758
1.35212
-1.33061
0.112249
1.3351
0.0321074
-0.344004
0.0858931
-0.972263
0.125839
-1.46707
0.133865
-1.6008
0.133547
-1.59684
0.129924
-1.5747
0.126622
-1.55193
0.123317
-1.53153
0.119383
-1.51243
0.114825
-1.49437
0.110124
-1.47766
0.104812
-1.46171
0.0993522
-1.44532
0.0942858
-1.43019
0.0890785
-1.41476
0.0833263
-1.39718
0.0767628
-1.3781
0.0698668
-1.35755
0.0627665
-1.34048
-1.32374
0.0559004
0.0292069
-0.373211
0.0777052
-1.02076
0.108147
-1.49751
0.111431
-1.60408
0.107582
-1.59299
0.101938
-1.56906
0.0965112
-1.5465
0.0904925
-1.52551
0.0840213
-1.50596
0.0779848
-1.48833
0.0713971
-1.47107
0.064841
-1.45515
0.0582772
-1.43876
0.051081
-1.42299
0.0433231
-1.407
0.0352504
-1.38911
0.0274204
-1.37027
0.0197606
-1.34989
0.0120125
-1.33273
-1.31627
0.0045416
0.0284839
-0.401695
0.0691383
-1.06142
0.0886201
-1.51699
0.0868788
-1.60234
0.0803731
-1.58649
0.0733544
-1.56204
0.06562
-1.53877
0.0580009
-1.51789
0.0506831
-1.49864
0.0422036
-1.47985
0.0337269
-1.46259
0.0249653
-1.44639
0.0157408
-1.42953
0.00666192
-1.41391
-0.00223226
-1.39811
-0.0109993
-1.38034
-0.0200513
-1.36121
-0.0293744
-1.34056
-0.0388955
-1.32321
-1.30689
-0.0482796
0.0257899
-0.427485
0.0618306
-1.09746
0.0748651
-1.53002
0.0686201
-1.5961
0.0584477
-1.57632
0.0483882
-1.55198
0.0385959
-1.52898
0.0286084
-1.5079
0.0178354
-1.48786
0.00798165
-1.47
-0.00227423
-1.45234
-0.0126869
-1.43598
-0.0227355
-1.41948
-0.0329176
-1.40373
-0.0434839
-1.38754
-0.0545678
-1.36926
-0.0657791
-1.35
-0.0769385
-1.3294
-0.0881232
-1.31203
-1.29615
-0.0988617
0.0222501
-0.449735
0.052192
-1.1274
0.0583082
-1.53614
0.0487004
-1.58649
0.0368537
-1.56447
0.0249047
-1.54003
0.0123787
-1.51645
-9.36738e-05
-1.49543
-0.0118986
-1.47606
-0.024595
-1.4573
-0.0372122
-1.43972
-0.0496568
-1.42353
-0.0623894
-1.40675
-0.0752499
-1.39087
-0.0879087
-1.37488
-0.100128
-1.35704
-0.112049
-1.33808
-0.123977
-1.31748
-0.136116
-1.29989
-1.28435
-0.147911
0.0201466
-0.469882
0.0451362
-1.15239
0.045664
-1.53667
0.032357
-1.57318
0.0170637
-1.54918
0.00213574
-1.5251
-0.0123309
-1.50198
-0.0266736
-1.48109
-0.0415978
-1.46114
-0.0557613
-1.44314
-0.0700988
-1.42538
-0.0847353
-1.4089
-0.0989899
-1.3925
-0.112886
-1.37697
-0.126679
-1.36109
-0.140687
-1.34303
-0.1548
-1.32397
-0.168878
-1.3034
-0.182915
-1.28585
-1.27053
-0.196739
0.0172873
-0.487169
0.0366307
-1.17173
0.0307828
-1.53082
0.0144713
-1.55687
-0.00246408
-1.53224
-0.0192606
-1.50831
-0.0365103
-1.48473
-0.0536597
-1.46394
-0.0701584
-1.44464
-0.0868778
-1.42642
-0.103388
-1.40887
-0.119496
-1.39279
-0.135567
-1.37643
-0.151875
-1.36066
-0.167929
-1.34504
-0.183635
-1.32733
-0.198771
-1.30883
-0.213767
-1.2884
-0.229024
-1.2706
-1.25563
-0.243919
0.0154454
-0.502614
0.0304872
-1.18677
0.0212708
-1.5216
0.00199235
-1.53759
-0.0181152
-1.51213
-0.0379926
-1.48843
-0.0573665
-1.46536
-0.0765698
-1.44474
-0.0958112
-1.4254
-0.11474
-1.40749
-0.133558
-1.39005
-0.152541
-1.37381
-0.171145
-1.35782
-0.189146
-1.34266
-0.206693
-1.32749
-0.223912
-1.31011
-0.240919
-1.29183
-0.257681
-1.27164
-0.274485
-1.25379
-1.23906
-0.29106
0.0127274
-0.515341
0.0222087
-1.19625
0.00661718
-1.50601
-0.0157162
-1.51526
-0.0378277
-1.49002
-0.0595951
-1.46666
-0.0814449
-1.44351
-0.102945
-1.42324
-0.124222
-1.40412
-0.144958
-1.38676
-0.165392
-1.36962
-0.185478
-1.35372
-0.205265
-1.33803
-0.225087
-1.32284
-0.244424
-1.30815
-0.263521
-1.29101
-0.282019
-1.27333
-0.300179
-1.25348
-0.318445
-1.23553
-1.22103
-0.336468
0.0113439
-0.526685
0.0169098
-1.20182
-0.000726347
-1.48838
-0.0254173
-1.49057
-0.0502473
-1.46519
-0.0747065
-1.4422
-0.0989134
-1.4193
-0.12308
-1.39907
-0.146624
-1.38057
-0.170352
-1.36303
-0.193661
-1.34631
-0.216752
-1.33063
-0.239517
-1.31527
-0.261817
-1.30054
-0.283333
-1.28664
-0.303975
-1.27037
-0.324052
-1.25325
-0.343702
-1.23383
-0.363458
-1.21577
-1.20149
-0.383002
0.00860188
-0.535287
0.00948646
-1.20271
-0.0138184
-1.46507
-0.0415039
-1.46288
-0.0690139
-1.43768
-0.0959512
-1.41526
-0.122354
-1.3929
-0.14837
-1.37305
-0.17454
-1.35441
-0.199604
-1.33796
-0.224394
-1.32152
-0.249062
-1.30596
-0.273157
-1.29117
-0.297086
-1.27661
-0.320407
-1.26332
-0.34318
-1.2476
-0.365148
-1.23128
-0.386467
-1.21251
-0.407917
-1.19432
-1.18001
-0.4294
0.00747313
-0.54276
0.00461436
-1.19985
-0.0210483
-1.43941
-0.0504884
-1.43344
-0.0798087
-1.40836
-0.108885
-1.38619
-0.13793
-1.36386
-0.166771
-1.34421
-0.194801
-1.32637
-0.223286
-1.30948
-0.250937
-1.29387
-0.278028
-1.27887
-0.304924
-1.26428
-0.331667
-1.24987
-0.357589
-1.23739
-0.382383
-1.2228
-0.406182
-1.20748
-0.429116
-1.18958
-0.45209
-1.17135
-1.15697
-0.475129
0.00493955
-0.5477
-0.00230875
-1.1926
-0.0323488
-1.40937
-0.0654438
-1.40035
-0.0977561
-1.37605
-0.129272
-1.35467
-0.159959
-1.33317
-0.190507
-1.31366
-0.221128
-1.29575
-0.250788
-1.27982
-0.280422
-1.26423
-0.309926
-1.24937
-0.338472
-1.23573
-0.366823
-1.22152
-0.394832
-1.20939
-0.421952
-1.19568
-0.448129
-1.18131
-0.473142
-1.16457
-0.498112
-1.14638
-1.13182
-0.52326
0.00361584
-0.551316
-0.00702466
-1.18196
-0.0386449
-1.37775
-0.0730517
-1.36594
-0.107246
-1.34185
-0.141176
-1.32074
-0.174874
-1.29947
-0.208101
-1.28044
-0.240843
-1.26301
-0.273692
-1.24697
-0.305606
-1.23232
-0.337202
-1.21777
-0.368573
-1.20436
-0.399624
-1.19046
-0.430187
-1.17882
-0.459822
-1.16605
-0.488226
-1.1529
-0.515376
-1.13742
-0.542193
-1.11956
-1.10496
-0.569048
0.00135177
-0.552667
-0.0133776
-1.16723
-0.0482952
-1.34283
-0.0857747
-1.32846
-0.122559
-1.30507
-0.15849
-1.28481
-0.19357
-1.26439
-0.228577
-1.24543
-0.263228
-1.22836
-0.297729
-1.21247
-0.332037
-1.19801
-0.366101
-1.18371
-0.39951
-1.17095
-0.432715
-1.15726
-0.46572
-1.14582
-0.497908
-1.13386
-0.529143
-1.12167
-0.558534
-1.10802
-0.587207
-1.09089
-1.07645
-0.615717
-0.00023741
-0.55243
-0.0186702
-1.1488
-0.0564975
-1.305
-0.0955283
-1.28943
-0.134051
-1.26655
-0.172312
-1.24655
-0.209947
-1.22676
-0.247078
-1.2083
-0.284078
-1.19136
-0.3206
-1.17595
-0.35681
-1.1618
-0.392898
-1.14762
-0.428621
-1.13523
-0.464109
-1.12177
-0.499573
-1.11035
-0.534542
-1.09889
-0.568717
-1.08749
-0.601158
-1.07558
-0.632167
-1.05988
-1.04606
-0.662559
-0.00129313
-0.551137
-0.0221556
-1.12793
-0.0611189
-1.26604
-0.10241
-1.24814
-0.143239
-1.22572
-0.183583
-1.20621
-0.223218
-1.18712
-0.262481
-1.16904
-0.301033
-1.15281
-0.340016
-1.13696
-0.378204
-1.12361
-0.416431
-1.10939
-0.454506
-1.09716
-0.492224
-1.08405
-0.530095
-1.07248
-0.56754
-1.06145
-0.604707
-1.05033
-0.640334
-1.03996
-0.673717
-1.0265
-1.0126
-0.707184
-0.00393296
-0.547204
-0.0278242
-1.10404
-0.0715152
-1.22235
-0.115138
-1.20452
-0.157748
-1.18311
-0.199736
-1.16422
-0.240777
-1.14608
-0.28152
-1.12829
-0.322046
-1.11228
-0.361952
-1.09706
-0.402097
-1.08347
-0.441819
-1.06967
-0.48148
-1.0575
-0.521113
-1.04442
-0.561156
-1.03244
-0.601295
-1.02131
-0.641666
-1.00995
-0.681661
-0.999961
-0.718742
-0.989415
-0.976471
-0.754867
-0.00481978
-0.030961
-0.0736463
-0.117681
-0.161689
-0.205995
-0.24962
-0.29235
-0.33445
-0.376794
-0.4182
-0.459567
-0.500796
-0.541531
-0.582736
-0.624143
-0.666224
-0.709785
-0.753587
-0.795497
0.0606176
-11.5445
11.5961
0.0246794
-10.8244
10.8603
-0.00400387
-10.457
10.4856
-0.0107613
-10.0478
10.0546
-0.0213983
-9.85141
9.86204
-0.0258603
-9.54895
9.55341
-0.0304874
-9.35467
9.3593
-0.0303827
-9.1585
9.15839
-0.0278098
-9.03072
9.02815
-0.0252957
-8.90121
8.8987
-0.0211136
-8.82625
8.82207
-0.0154777
-8.73947
8.73384
-0.00709146
-8.68979
8.6814
-0.00157257
-8.63884
8.63332
0.00738844
-8.58328
8.57432
0.0148903
-8.52577
8.51827
0.0186548
-8.31501
8.31125
0.0178122
-7.34744
7.34829
0.0107509
-5.33747
5.34453
-2.23675
2.2475
-0.0104268
-11.4781
-0.042102
-10.7927
-0.0645039
-10.4345
-0.0703228
-10.042
-0.0799603
-9.84177
-0.0832882
-9.54562
-0.0846461
-9.35331
-0.0812907
-9.16185
-0.0751267
-9.03688
-0.0688502
-8.90749
-0.0610949
-8.83401
-0.0517091
-8.74886
-0.0393985
-8.7021
-0.0293486
-8.64889
-0.0155489
-8.59708
-0.00354807
-8.53777
0.00602187
-8.32458
0.0109375
-7.35236
0.0089107
-5.33545
-2.22784
-0.062707
-11.4109
-0.104489
-10.7509
-0.132666
-10.4064
-0.138176
-10.0365
-0.145113
-9.83483
-0.145223
-9.54551
-0.142231
-9.3563
-0.134578
-9.16951
-0.123737
-9.04773
-0.113267
-8.91796
-0.101167
-8.84611
-0.0875279
-8.7625
-0.0713216
-8.71831
-0.0568452
-8.66337
-0.038453
-8.61547
-0.0220137
-8.55421
-0.00655834
-8.34004
0.00441996
-7.36334
0.00766031
-5.33869
-2.22018
-0.128385
-11.3308
-0.169891
-10.7094
-0.193589
-10.3827
-0.198702
-10.0314
-0.205079
-9.82846
-0.203284
-9.54731
-0.196677
-9.36291
-0.185915
-9.18027
-0.171632
-9.06201
-0.157237
-8.93235
-0.141445
-8.8619
-0.124068
-8.77987
-0.10373
-8.73864
-0.0846756
-8.68242
-0.0615143
-8.63863
-0.0405347
-8.57519
-0.0190287
-8.36155
-0.001715
-7.38065
0.00635107
-5.34675
-2.21382
-0.185124
-11.2445
-0.234768
-10.6598
-0.262316
-10.3551
-0.265482
-10.0282
-0.269084
-9.82485
-0.26412
-9.55227
-0.253314
-9.37372
-0.238418
-9.19516
-0.219742
-9.08069
-0.201235
-8.95086
-0.181216
-8.88192
-0.159694
-8.8014
-0.135685
-8.76265
-0.112356
-8.70575
-0.0845159
-8.66647
-0.0590161
-8.60069
-0.0315847
-8.38898
-0.00815555
-7.40408
0.00511817
-5.36003
-2.20871
-0.243504
-11.1489
-0.295154
-10.6081
-0.322784
-10.3275
-0.327885
-10.0231
-0.330064
-9.82268
-0.321949
-9.56039
-0.307545
-9.38812
-0.289711
-9.213
-0.267699
-9.1027
-0.2452
-8.97336
-0.221323
-8.9058
-0.195899
-8.82682
-0.167737
-8.79082
-0.139879
-8.73361
-0.1075
-8.69885
-0.0774184
-8.63077
-0.0440203
-8.42237
-0.0146226
-7.43348
0.00354425
-5.37819
-2.20516
-0.302152
-11.0435
-0.362155
-10.5481
-0.391597
-10.2981
-0.393271
-10.0214
-0.392629
-9.82332
-0.381467
-9.57155
-0.362877
-9.40671
-0.341061
-9.23481
-0.315062
-9.1287
-0.288511
-8.99991
-0.260585
-8.93372
-0.231272
-8.85613
-0.199531
-8.82256
-0.167462
-8.76568
-0.130545
-8.73577
-0.0957433
-8.66557
-0.0564618
-8.46166
-0.0211315
-7.46881
0.0020789
-5.4014
-2.20308
-0.356311
-10.9311
-0.421108
-10.4833
-0.453964
-10.2652
-0.457427
-10.018
-0.453347
-9.8274
-0.43836
-9.58654
-0.416499
-9.42857
-0.391879
-9.25943
-0.362711
-9.15786
-0.332013
-9.03061
-0.3
-8.96574
-0.266679
-8.88945
-0.231029
-8.85821
-0.194716
-8.80199
-0.153378
-8.77711
-0.113927
-8.70503
-0.0688658
-8.50672
-0.0276745
-7.51
0.000503613
-5.42958
-2.20258
-0.412459
-10.8097
-0.483862
-10.4119
-0.519059
-10.23
-0.520561
-10.0165
-0.514269
-9.83369
-0.496369
-9.60444
-0.470255
-9.45469
-0.441668
-9.28802
-0.408979
-9.19055
-0.374568
-9.06502
-0.338767
-9.00154
-0.301651
-8.92657
-0.262329
-8.89753
-0.221937
-8.84238
-0.176634
-8.82241
-0.13253
-8.74913
-0.0814444
-8.5578
-0.0337681
-7.55768
-0.000710475
-5.46264
-2.20329
-0.467661
-10.6785
-0.545422
-10.3341
-0.583743
-10.1917
-0.584591
-10.0156
-0.573275
-9.845
-0.551965
-9.62575
-0.523016
-9.48363
-0.491482
-9.31956
-0.455737
-9.2263
-0.417083
-9.10367
-0.377105
-9.04152
-0.336066
-8.96761
-0.293058
-8.94054
-0.248696
-8.88674
-0.199675
-8.87143
-0.150986
-8.79782
-0.0942617
-8.61453
-0.0400539
-7.61188
-0.00205035
-5.50064
-2.20534
-0.519374
-10.5421
-0.60124
-10.2523
-0.64327
-10.1496
-0.645136
-10.0138
-0.632009
-9.85813
-0.607978
-9.64978
-0.574992
-9.51662
-0.539495
-9.35505
-0.500693
-9.2651
-0.45865
-9.14572
-0.415109
-9.08506
-0.370342
-9.01238
-0.323657
-8.98722
-0.275367
-8.93503
-0.222564
-8.92424
-0.169501
-8.85088
-0.107322
-8.67671
-0.0469196
-7.67229
-0.0038871
-5.54367
-2.20923
-0.576409
-10.3951
-0.663073
-10.1656
-0.706449
-10.1063
-0.706947
-10.0133
-0.689158
-9.87592
-0.662103
-9.67683
-0.626661
-9.55206
-0.588003
-9.39371
-0.545927
-9.30718
-0.499684
-9.19196
-0.452081
-9.13266
-0.403642
-9.06081
-0.353444
-9.03742
-0.301493
-8.98698
-0.245012
-8.98072
-0.187797
-8.9081
-0.120075
-8.74443
-0.0534985
-7.73886
-0.00576744
-5.59141
-2.21499
-0.626913
-10.2434
-0.715306
-10.0772
-0.760603
-10.061
-0.763931
-10.0099
-0.745282
-9.89457
-0.715696
-9.70642
-0.676687
-9.59107
-0.634238
-9.43616
-0.589247
-9.35217
-0.539942
-9.24127
-0.488899
-9.1837
-0.436739
-9.11297
-0.382947
-9.09121
-0.327407
-9.04252
-0.26709
-9.04103
-0.2058
-8.96939
-0.133574
-8.81665
-0.0606772
-7.81176
-0.00756702
-5.64452
-2.22256
-0.682147
-10.0845
-0.772936
-9.98644
-0.819352
-10.0146
-0.822492
-10.0068
-0.800279
-9.91678
-0.767899
-9.7388
-0.726855
-9.63212
-0.681139
-9.48188
-0.63248
-9.40083
-0.579207
-9.29454
-0.524257
-9.23865
-0.468584
-9.16865
-0.41154
-9.14826
-0.352725
-9.10134
-0.288696
-9.10506
-0.223447
-9.03464
-0.147141
-8.89296
-0.0681888
-7.89071
-0.0097859
-5.70292
-2.23235
-0.734847
-9.91867
-0.824489
-9.8968
-0.869379
-9.96967
-0.876066
-10.0001
-0.853887
-9.93896
-0.819147
-9.77354
-0.774558
-9.6767
-0.725318
-9.53111
-0.673912
-9.45223
-0.617778
-9.35067
-0.559468
-9.29696
-0.5001
-9.22801
-0.439581
-9.20878
-0.377623
-9.1633
-0.310187
-9.1725
-0.24073
-9.10409
-0.160794
-8.97289
-0.075869
-7.97564
-0.0122428
-5.76654
-2.24459
-0.785713
-9.74867
-0.877153
-9.80535
-0.923197
-9.92363
-0.930191
-9.99312
-0.905641
-9.96351
-0.868934
-9.81025
-0.822548
-9.72309
-0.770009
-9.58365
-0.714922
-9.50732
-0.655076
-9.41052
-0.593144
-9.3589
-0.530381
-9.29078
-0.466671
-9.27249
-0.401522
-9.22844
-0.331105
-9.24292
-0.257739
-9.17746
-0.174842
-9.05579
-0.0843419
-8.06614
-0.0151073
-5.83578
-2.2597
-0.840135
-9.5711
-0.927433
-9.71806
-0.96944
-9.88162
-0.980086
-9.98247
-0.956208
-9.98739
-0.916947
-9.84951
-0.867259
-9.77278
-0.811743
-9.63917
-0.754068
-9.565
-0.691556
-9.47303
-0.62641
-9.42404
-0.560078
-9.35711
-0.492707
-9.33986
-0.42417
-9.29698
-0.351151
-9.31594
-0.274264
-9.25435
-0.188073
-9.14198
-0.0924502
-8.16176
-0.0184463
-5.90978
-2.27814
-0.891808
-9.38647
-0.980992
-9.62887
-1.02069
-9.84192
-1.03013
-9.97303
-1.00472
-10.0128
-0.964227
-9.89
-0.912805
-9.8242
-0.853881
-9.69809
-0.792546
-9.62633
-0.726673
-9.5389
-0.658239
-9.49248
-0.588713
-9.42664
-0.518167
-9.4104
-0.446202
-9.36895
-0.370434
-9.3917
-0.29022
-9.33456
-0.200161
-9.23204
-0.0997487
-8.26217
-0.0221308
-5.9874
-2.30027
-0.935753
-9.20559
-1.03006
-9.53456
-1.06772
-9.80426
-1.07909
-9.96166
-1.05401
-10.0379
-1.01039
-9.93363
-0.955756
-9.87883
-0.894057
-9.75979
-0.829886
-9.6905
-0.761308
-9.60748
-0.689722
-9.56406
-0.616678
-9.49968
-0.54263
-9.48445
-0.467231
-9.44435
-0.388973
-9.46996
-0.305657
-9.41788
-0.211718
-9.32598
-0.107128
-8.36676
-0.0257587
-6.06877
-2.32603
-0.976596
-9.02449
-1.07142
-9.43974
-1.10682
-9.76886
-1.11819
-9.95029
-1.09567
-10.0604
-1.05226
-9.97703
-0.996781
-9.93431
-0.932015
-9.82456
-0.865049
-9.75747
-0.793444
-9.67909
-0.719512
-9.63799
-0.643196
-9.576
-0.56625
-9.5614
-0.487491
-9.5231
-0.407262
-9.55019
-0.3205
-9.50464
-0.222765
-9.42372
-0.114166
-8.47536
-0.0279142
-6.15502
-2.35395
7.71449
-8.22037
-8.51861
6.72982
-8.45507
5.77799
-8.81703
4.86387
-9.03617
4.01677
-9.2133
3.29751
-9.25777
2.69038
-9.32718
2.20131
-9.33549
1.79763
-9.35379
1.47121
-9.35266
1.19335
-9.36014
0.968166
-9.35081
0.778067
-9.3713
0.62067
-9.36571
0.473323
-9.40284
0.365487
-9.3968
0.28964
-9.34787
0.213539
-8.39926
0.071777
-6.01326
-2.28217
4.35724
-7.88883
-4.68878
3.99325
-8.09108
3.57982
-8.40359
3.14342
-8.59978
2.6976
-8.76748
2.30195
-8.86212
1.94023
-8.96546
1.6404
-9.03566
1.37873
-9.09212
1.15786
-9.1318
0.967522
-9.1698
0.814825
-9.19811
0.668715
-9.22519
0.54886
-9.24585
0.424104
-9.27809
0.327434
-9.30013
0.2125
-9.23294
0.113951
-8.30071
-0.061042
-5.83827
-2.34321
3.00802
-7.81544
-3.08141
2.91995
-8.00301
2.73151
-8.21515
2.51805
-8.38631
2.28482
-8.53425
2.05881
-8.63611
1.82354
-8.73019
1.60149
-8.81361
1.39097
-8.88159
1.19575
-8.93659
1.01126
-8.9853
0.842269
-9.02913
0.681377
-9.06429
0.541427
-9.1059
0.399472
-9.13613
0.274622
-9.17528
0.155215
-9.11353
0.0940272
-8.23952
0.0205594
-5.7648
-2.32265
1.87519
-7.86501
-1.82562
1.87454
-8.00237
1.79421
-8.13482
1.68442
-8.27653
1.55281
-8.40263
1.41516
-8.49847
1.26715
-8.58217
1.11993
-8.6664
0.972778
-8.73444
0.835042
-8.79885
0.701952
-8.85221
0.577552
-8.90472
0.4671
-8.95384
0.362001
-9.0008
0.276473
-9.0506
0.195089
-9.0939
0.103523
-9.02196
0.0849781
-8.22098
0.07231
-5.75213
-2.25034
1.13149
-7.93889
-1.05762
1.17723
-8.0481
1.20185
-8.15944
1.18016
-8.25484
1.11114
-8.33361
1.03424
-8.42156
0.944423
-8.49236
0.846379
-8.56836
0.744592
-8.63265
0.638832
-8.69309
0.539406
-8.75278
0.43994
-8.80526
0.336061
-8.84996
0.23525
-8.89999
0.135104
-8.95046
0.0412584
-9.00005
-0.0353024
-8.9454
-0.0287831
-8.22749
0.032817
-5.81373
-2.21753
0.731939
-8.01949
-0.65134
0.777816
-8.09398
0.771978
-8.1536
0.747943
-8.2308
0.713604
-8.29927
0.664146
-8.37211
0.60764
-8.43585
0.538354
-8.49907
0.463812
-8.55811
0.385922
-8.6152
0.300568
-8.66743
0.214144
-8.71884
0.131783
-8.7676
0.0520117
-8.82022
-0.0262608
-8.87219
-0.106405
-8.91991
-0.16789
-8.88392
-0.120045
-8.27534
0.0224454
-5.95622
-2.19508
0.377415
-8.06854
-0.328362
0.403142
-8.11971
0.41863
-8.16909
0.420363
-8.23254
0.412875
-8.29179
0.38887
-8.3481
0.35269
-8.39967
0.306432
-8.45281
0.251412
-8.50309
0.190414
-8.5542
0.126336
-8.60335
0.0595701
-8.65207
-0.00882412
-8.69921
-0.0855359
-8.74351
-0.162845
-8.79488
-0.244875
-8.83788
-0.308331
-8.82046
-0.243133
-8.34054
-0.0294704
-6.16989
-2.22455
0.203093
-8.11092
-0.16072
0.231044
-8.14766
0.248253
-8.1863
0.242261
-8.22654
0.21973
-8.26926
0.189893
-8.31826
0.156444
-8.36622
0.111116
-8.40748
0.0639052
-8.45588
0.00687854
-8.49717
-0.0498449
-8.54663
-0.114847
-8.58707
-0.182239
-8.63182
-0.25546
-8.67029
-0.334676
-8.71566
-0.413272
-8.75928
-0.469343
-8.76439
-0.407308
-8.40257
-0.122083
-6.45511
-2.34663
0.0551933
-8.12756
-0.0385461
0.0631691
-8.15563
0.0639691
-8.1871
0.0621127
-8.22469
0.0544316
-8.26158
0.0358622
-8.2997
0.00351589
-8.33387
-0.035405
-8.36856
-0.0827104
-8.40857
-0.13431
-8.44557
-0.197522
-8.48342
-0.264681
-8.51991
-0.333657
-8.56284
-0.406553
-8.59739
-0.48414
-8.63808
-0.573822
-8.6696
-0.638106
-8.70011
-0.588841
-8.45184
-0.253298
-6.79065
-2.59993
-0.00155158
-8.13869
0.0126736
0.00574481
-8.16293
0.00637426
-8.18773
-0.00442982
-8.21388
-0.0266038
-8.2394
-0.0609553
-8.26534
-0.101008
-8.29382
-0.145254
-8.32431
-0.196028
-8.3578
-0.254507
-8.3871
-0.31668
-8.42124
-0.384217
-8.45237
-0.460277
-8.48678
-0.542091
-8.51558
-0.637707
-8.54246
-0.74195
-8.56536
-0.829088
-8.61297
-0.81733
-8.4636
-0.456321
-7.15166
-3.05625
-0.0334435
-8.13676
0.0315217
-0.0425032
-8.15387
-0.0578075
-8.17243
-0.0807189
-8.19097
-0.107786
-8.21233
-0.140067
-8.23306
-0.17529
-8.2586
-0.218129
-8.28148
-0.270614
-8.30531
-0.329805
-8.3279
-0.397547
-8.3535
-0.474331
-8.37559
-0.560148
-8.40096
-0.649481
-8.42625
-0.744601
-8.44734
-0.845983
-8.46398
-0.959622
-8.49933
-0.988986
-8.43423
-0.691855
-7.44879
-3.74811
-0.0312764
-8.12668
0.0211894
-0.0472775
-8.13787
-0.0660903
-8.15361
-0.0898046
-8.16726
-0.118007
-8.18413
-0.151362
-8.19971
-0.193373
-8.21659
-0.241961
-8.23289
-0.296962
-8.25031
-0.358683
-8.26618
-0.429352
-8.28283
-0.506576
-8.29836
-0.596381
-8.31116
-0.697468
-8.32516
-0.806013
-8.33879
-0.912673
-8.35732
-1.04861
-8.3634
-1.1593
-8.32353
-0.948679
-7.65942
-4.69679
-0.0147491
-8.11087
-0.00105812
-0.0341057
-8.11851
-0.0577587
-8.12996
-0.0846071
-8.14041
-0.115636
-8.1531
-0.151432
-8.16391
-0.191152
-8.17687
-0.238358
-8.18568
-0.289453
-8.19922
-0.347573
-8.20806
-0.411621
-8.21879
-0.484714
-8.22527
-0.564927
-8.23094
-0.655084
-8.235
-0.75755
-8.23633
-0.869296
-8.24557
-1.00644
-8.22625
-1.13719
-8.19278
-0.971175
-7.82544
-5.66796
0.0101661
-8.09285
-0.0281825
-0.00927754
-8.09907
-0.0316923
-8.10755
-0.0585059
-8.1136
-0.0897385
-8.12187
-0.126202
-8.12745
-0.166151
-8.13692
-0.208633
-8.1432
-0.256344
-8.15151
-0.309441
-8.15497
-0.36705
-8.16118
-0.429682
-8.16264
-0.494512
-8.16611
-0.566898
-8.16262
-0.644356
-8.15887
-0.748693
-8.14123
-0.851512
-8.12343
-0.95512
-8.08917
-0.845481
-7.93507
-6.51344
0.0440196
-8.07216
-0.0647174
0.0211678
-8.07622
-0.00367659
-8.0827
-0.0303123
-8.08696
-0.0588884
-8.0933
-0.0890783
-8.09726
-0.123073
-8.10292
-0.159725
-8.10655
-0.20019
-8.11104
-0.243138
-8.11202
-0.289115
-8.1152
-0.33919
-8.11256
-0.392125
-8.11318
-0.455346
-8.0994
-0.518442
-8.09577
-0.587289
-8.07239
-0.64181
-8.06891
-0.700849
-8.03013
-0.661804
-7.97412
-7.17525
0.077431
-8.05692
-0.0926665
0.0601953
-8.05898
0.0397466
-8.06225
0.0178981
-8.06511
-0.00663125
-8.06877
-0.0325232
-8.07137
-0.060934
-8.07451
-0.09325
-8.07423
-0.125859
-8.07843
-0.160312
-8.07757
-0.194657
-8.08085
-0.232689
-8.07453
-0.269805
-8.07606
-0.30959
-8.05961
-0.34436
-8.061
-0.377381
-8.03937
-0.409766
-8.03653
-0.42797
-8.01193
-0.40479
-7.9973
-7.58004
0.0824373
-8.0433
-0.0960607
0.0676472
-8.04419
0.0512656
-8.04587
0.0328078
-8.04665
0.012341
-8.0483
-0.0104167
-8.04861
-0.0344829
-8.05045
-0.0580716
-8.05064
-0.0831661
-8.05334
-0.109576
-8.05116