/*--------------------------------*- C++ -*----------------------------------*\
  =========                 |
  \\      /  F ield         | OpenFOAM: The Open Source CFD Toolbox
   \\    /   O peration     | Website:  https://openfoam.org
    \\  /    A nd           | Version:  9
     \\/     M anipulation  |
\*---------------------------------------------------------------------------*/
FoamFile
{
    format      ascii;
    class       volScalarField;
    location    "4.2";
    object      p;
}
// * * * * * * * * * * * * * * * * * * * * * * * * * * * * * * * * * * * * * //

dimensions      [0 2 -2 0 0 0 0];

internalField   nonuniform List<scalar> 
46400
(
40.3157
44.6364
52.2057
59.5771
65.6621
71.3724
76.3126
80.8138
84.7884
88.395
91.6471
94.5856
97.2804
99.7509
102.068
104.259
106.282
108.502
110.974
111.097
64.7891
68.709
76.1055
82.8649
88.4201
93.5256
97.9107
101.845
105.29
108.374
111.116
113.563
115.778
117.734
119.525
121.141
122.558
123.987
125.33
124.688
89.3809
93.8539
100.52
106.45
111.216
115.521
119.153
122.353
125.118
127.521
129.636
131.454
133.075
134.489
135.745
136.849
137.771
138.725
139.549
138.405
114.21
119.229
124.859
129.761
133.654
137.147
140.068
142.599
144.756
146.597
148.174
149.475
150.583
151.47
152.211
152.789
153.207
153.626
153.936
152.494
139.566
144.735
148.565
152.438
155.327
157.91
160.02
161.774
163.25
164.431
165.436
166.198
166.815
167.245
167.532
167.69
167.701
167.686
167.646
165.915
163.479
168.253
171.07
173.861
176.071
177.845
179.314
180.406
181.271
181.873
182.316
182.589
182.749
182.769
182.683
182.49
182.174
181.827
181.667
179.863
185.939
189.319
191.643
193.524
195.089
196.242
197.108
197.649
197.965
198.028
197.932
197.673
197.322
196.872
196.356
195.768
195.088
194.413
193.861
191.991
205.928
208.63
210.553
211.937
212.985
213.615
214.017
214.086
213.978
213.633
213.154
212.484
211.711
210.826
209.894
208.907
207.853
206.826
205.925
203.848
224.057
226.119
227.526
228.303
228.864
228.979
228.91
228.526
227.979
227.225
226.369
225.386
224.307
223.133
221.882
220.581
219.211
217.867
216.624
214.408
241.401
242.949
243.902
244.181
244.232
243.863
243.333
242.542
241.579
240.416
239.122
237.727
236.256
234.718
233.132
231.5
229.814
228.148
226.583
224.169
255.883
256.864
257.427
257.267
256.976
256.229
255.316
254.178
252.963
251.601
250.132
248.539
246.867
245.114
243.322
241.488
239.615
237.767
236.064
233.497
270.596
271.024
271.069
270.456
269.699
268.529
267.134
265.492
263.774
261.928
260.038
258.059
256.048
253.978
251.895
249.785
247.655
245.561
243.59
240.991
281.247
281.1
280.827
279.953
278.965
277.746
276.381
274.768
272.97
271.017
268.949
266.805
264.594
262.344
260.057
257.754
255.411
253.096
250.913
248.059
291.496
291.343
290.746
289.58
288.146
286.409
284.572
282.527
280.393
278.116
275.789
273.375
270.949
268.476
266.018
263.541
261.075
258.633
256.365
253.529
297.052
297.138
296.416
295.568
294.259
292.702
290.851
288.85
286.673
284.368
281.965
279.46
276.912
274.294
271.672
269.017
266.362
263.719
261.231
258.257
304.348
303.584
302.722
301.114
299.53
297.486
295.381
293.035
290.642
288.101
285.536
282.879
280.215
277.501
274.791
272.067
269.343
266.639
264.093
261.125
306.14
305.734
305.051
303.697
302.297
300.413
298.486
296.219
293.906
291.365
288.805
286.097
283.397
280.608
277.845
275.04
272.251
269.465
266.864
263.793
307.18
306.817
306.122
304.872
303.304
301.407
299.221
296.882
294.374
291.79
289.118
286.401
283.651
280.867
278.081
275.275
272.467
269.654
266.975
263.964
306.489
305.94
305.099
303.774
302.265
300.404
298.418
296.22
293.897
291.45
288.891
286.272
283.562
280.837
278.05
275.281
272.461
269.684
267.019
264.053
302.986
302.841
301.781
300.564
298.929
297.215
295.237
293.118
290.877
288.489
286.051
283.495
280.931
278.291
275.661
273
270.337
267.688
265.212
262.318
-252.578
-253.156
-250.065
-245.86
-238.672
-230.827
-223.17
-215.586
-208.373
-201.337
-194.555
-187.953
-181.594
-175.387
-169.415
-163.547
-157.901
-152.302
-146.91
-141.52
-251.664
-251.417
-249.197
-242.119
-234.288
-225.998
-217.358
-209.541
-201.904
-194.615
-187.597
-180.814
-174.332
-168.018
-161.972
-156.07
-150.381
-144.801
-139.418
-134.08
-247.226
-246.474
-243.819
-236.518
-227.623
-218.95
-210.528
-202.53
-194.782
-187.348
-180.226
-173.344
-166.782
-160.389
-154.308
-148.352
-142.637
-137.046
-131.697
-126.483
-245.189
-244.714
-239.754
-231.61
-222.367
-212.896
-204.083
-195.58
-187.532
-179.825
-172.464
-165.424
-158.718
-152.214
-146.08
-140.027
-134.34
-128.674
-123.374
-118.221
-242.452
-242.245
-235.223
-225.551
-215.38
-205.509
-196.389
-187.7
-179.415
-171.586
-164.109
-156.971
-150.183
-143.639
-137.445
-131.365
-125.666
-119.98
-114.794
-109.58
-237.582
-237.068
-228.98
-218.297
-207.701
-197.607
-187.993
-179.112
-170.6
-162.582
-154.972
-147.749
-140.896
-134.318
-128.11
-122.04
-116.404
-110.772
-105.704
-100.619
-232.542
-231.107
-221.79
-210.216
-198.895
-188.467
-178.617
-169.469
-160.834
-152.697
-145.015
-137.739
-130.849
-124.269
-118.062
-112.046
-106.465
-100.975
-96.087
-91.1472
-223.821
-221.704
-211.653
-199.694
-188.24
-177.644
-167.713
-158.492
-149.784
-141.64
-133.95
-126.706
-119.86
-113.348
-107.212
-101.241
-95.8147
-90.419
-85.709
-80.8093
-214.622
-211.725
-200.744
-188.359
-176.656
-165.833
-155.773
-146.474
-137.725
-129.548
-121.875
-114.659
-107.871
-101.433
-95.3794
-89.6116
-84.2922
-79.0646
-74.558
-69.7867
-202.591
-199.018
-187.28
-174.692
-162.899
-152.145
-142.077
-132.867
-124.205
-116.161
-108.625
-101.556
-94.9224
-88.6588
-82.772
-77.177
-72.0151
-66.9821
-62.6273
-57.9429
-188.458
-184.255
-172.084
-159.56
-147.808
-137.191
-127.185
-118.066
-109.528
-101.587
-94.2116
-87.3076
-80.8627
-74.7972
-69.1184
-63.7688
-58.8298
-54.0521
-49.9153
-45.414
-172.139
-167.464
-154.917
-142.553
-130.883
-120.536
-110.756
-101.882
-93.615
-85.9473
-78.8481
-72.2175
-66.0514
-60.2787
-54.878
-49.8063
-45.1111
-40.6131
-36.7345
-32.421
-153.699
-148.605
-135.959
-124.041
-112.557
-102.506
-93.0364
-84.4155
-76.4481
-69.047
-62.2334
-55.898
-50.0349
-44.5574
-39.4544
-34.6914
-30.2774
-26.1026
-22.4545
-18.3917
-133.537
-128.076
-115.223
-103.91
-92.8409
-83.1891
-74.1869
-65.959
-58.41
-51.3967
-44.9725
-38.9987
-33.4923
-28.3873
-23.6423
-19.2383
-15.1497
-11.3353
-8.02223
-4.16282
-112.064
-106.285
-92.8814
-82.3884
-71.801
-62.5797
-54.056
-46.2422
-39.123
-32.5206
-26.4814
-20.902
-15.779
-11.0417
-6.67324
-2.65557
1.06216
4.45743
7.44322
11.0044
-88.924
-82.8489
-69.8379
-59.8619
-50.0922
-41.3117
-33.3831
-26.0446
-19.4112
-13.2539
-7.66078
-2.48773
2.24341
6.57864
10.5561
14.1823
17.5494
20.5416
23.1818
26.5478
-64.4217
-58.3737
-46.066
-36.4178
-27.3177
-19.0566
-11.6552
-4.83463
1.30877
6.97303
12.1221
16.8383
21.1373
25.0651
28.6332
31.8503
34.8269
37.3453
39.6222
42.7589
-39.1427
-33.1388
-21.8199
-12.7184
-4.40372
3.29023
10.0855
16.3705
22.0001
27.1907
31.8712
36.1609
40.0614
43.5939
46.7913
49.6676
52.3396
54.4223
56.4156
59.2165
-12.8491
-6.65345
3.31791
11.8472
19.3
26.3226
32.4717
38.1578
43.2325
47.8888
52.0968
55.9178
59.3871
62.5356
65.3782
67.9388
70.2648
72.0902
73.8379
76.6024
13.7295
19.3662
27.9219
35.7823
42.4795
48.8466
54.4311
59.5652
64.1671
68.3898
72.2161
75.7238
78.96
81.9172
84.682
87.2948
89.7192
91.9192
94.6004
97.4963
-115.96
-85.8918
-53.9165
-33.6412
-11.4697
2.90643
18.345
28.2453
38.7856
46.3592
53.3522
58.8824
63.8772
67.9369
71.6314
73.9841
76.484
77.9549
78.2968
79.2262
-108.848
-80.8352
-49.9136
-30.9168
-9.41764
4.2482
19.1009
28.858
39.0811
46.5413
53.1741
58.7794
63.4446
67.5787
71.1272
73.5304
75.7729
77.3149
77.6596
78.6424
-101.518
-75.6361
-45.8209
-28.1212
-7.36063
5.74052
19.9693
29.5122
39.2966
46.6897
53.0994
58.8153
63.1157
67.2681
70.558
73.1154
75.2097
76.7387
77.0163
78.0771
-94.0052
-70.2815
-41.6245
-25.034
-5.20812
7.39165
21.0437
30.3471
39.719
47.0033
53.0013
58.7518
62.7661
67.0171
70.1221
72.7512
74.5668
76.1651
76.3761
77.5551
-86.1516
-64.725
-37.3521
-21.8892
-2.92877
9.1139
22.1379
31.1906
40.1148
47.2826
53.0456
58.8517
62.5199
66.8366
69.5868
72.4155
74.092
75.6301
75.6952
77.023
-77.9111
-58.9881
-32.8997
-18.5812
-0.53498
10.9586
23.3761
32.1296
40.7296
47.7119
53.1232
58.8931
62.2983
66.6982
69.1962
72.17
73.581
75.1425
75.0929
76.5388
-69.569
-52.7963
-28.3559
-15.1277
1.92864
12.9021
24.6682
33.1437
41.292
48.1321
53.2873
59.0465
62.1718
66.6043
68.7
71.9101
73.1863
74.7046
74.4698
76.088
-60.9807
-46.3048
-23.614
-11.5538
4.4624
14.9613
26.0745
34.222
41.8428
48.7359
53.5524
59.158
62.0895
66.5134
68.3666
71.6735
72.719
74.3492
73.9556
75.6499
-52.0124
-39.5342
-18.7494
-7.83695
7.0759
17.1017
27.5322
35.3922
42.5929
49.3035
53.8462
59.4
62.0589
66.4705
67.9802
71.4511
72.3047
74.0334
73.3848
75.3393
-42.7157
-32.4537
-13.6885
-4.01529
9.74922
19.3433
29.0914
36.6572
43.3623
49.8105
54.0431
59.6881
62.0476
66.4334
67.6619
71.1918
71.7951
73.7118
72.9146
74.848
-32.9736
-25.1245
-8.46306
-0.04405
12.5124
21.6527
30.6977
37.9577
44.1756
50.3938
54.3146
59.8799
62.11
66.4942
67.374
70.9391
71.341
73.4159
72.3353
74.6215
-22.6642
-17.5471
-3.06496
4.00918
15.3252
24.0408
32.424
39.3709
45.1656
50.9502
54.4886
60.0913
62.246
66.5726
67.3242
70.7533
70.8322
73.1179
71.8644
74.1843
-12.1287
-9.79433
2.54693
8.23601
18.2443
26.4756
34.193
40.7864
46.1933
51.7134
54.7187
60.3378
62.4199
66.7063
67.3773
70.609
70.4314
72.8455
71.3914
74.0467
-0.86569
-1.75213
8.2874
12.4989
21.2538
28.9876
36.0745
42.3276
47.2733
52.5003
54.9631
61.0482
62.6941
66.9567
67.5162
70.5233
69.9865
72.5738
70.9303
73.818
10.6516
6.25094
14.18
16.9229
24.374
31.5297
37.9712
43.871
48.4039
53.4728
55.4622
61.9977
63.1909
67.4973
67.7026
70.5317
69.6343
72.338
70.5061
73.743
23.0149
14.7658
20.2745
21.3776
27.5957
34.1337
39.9548
45.513
49.5459
54.3829
56.1031
62.6424
63.8579
68.0262
68.0235
70.568
69.2219
72.0136
70.0902
73.5253
35.567
23.287
26.5551
26.1335
31.0354
36.8365
42.0026
47.22
50.8114
55.6362
57.1453
63.3934
64.5254
68.6418
68.2716
70.7138
68.949
71.6691
69.4967
73.4857
47.4057
31.2974
32.4703
30.5834
34.4321
39.5514
44.1092
49.0153
52.0978
57.1098
58.253
64.4076
65.2137
69.4004
68.5063
70.6997
68.6104
71.333
69.0944
73.2958
63.6704
40.1494
38.4282
34.5548
37.6325
41.781
45.7751
50.384
52.9791
58.176
59.2523
65.3094
65.8215
69.6986
68.6232
70.4589
68.1686
70.6134
68.0955
72.6034
84.782
53.7869
46.5733
41.6834
42.3468
45.5755
48.8214
53.0125
54.9533
59.5156
61.0705
66.3684
67.2191
70.2544
69.4761
70.8946
68.1519
69.8516
66.1435
73.4221
117.014
111.315
89.1263
87.7544
77.3518
78.2527
73.0602
75.0095
74.3008
74.7658
76.4486
76.7846
78.5674
77.5836
78.9297
78.5369
75.3529
76.5141
66.0501
94.4828
147.504
134.744
116.738
108.772
98.491
94.446
88.5435
86.8036
83.9827
83.278
82.7194
81.8932
81.6857
81.6523
80.8986
80.6288
78.6196
78.2819
76.878
77.9937
147.239
136.902
126.657
119.723
112.523
107.82
103.121
99.8514
97.0107
94.7978
93.448
91.7931
91.0389
90.1078
89.2619
89.1711
87.5377
87.6651
85.7571
87.9293
144.941
138.131
131.934
124.92
119.505
114.13
110.003
106.224
103.419
100.718
98.5144
96.7546
94.9485
93.5443
92.3817
91.0108
90.4838
89.5168
89.2246
89.3286
137.666
132.479
128.193
123.724
120.153
116.412
113.378
110.303
107.855
105.472
103.484
101.454
99.9312
98.2637
96.9179
95.628
94.2598
93.524
92.3774
92.5848
132.939
129.596
127.709
124.309
121.713
118.415
115.883
113.039
110.732
108.344
106.351
104.468
102.602
100.971
99.3649
97.7641
96.5222
95.1277
94.4603
94.4347
128.312
126.006
124.384
121.828
119.921
117.575
115.712
113.65
111.94
110.072
108.413
106.707
105.147
103.505
102.077
100.483
99.1581
97.6725
96.9408
96.6133
125.307
123.875
123.035
121.464
120.295
118.638
117.176
115.375
113.605
112.061
110.348
108.821
107.138
105.626
103.94
102.34
100.701
99.057
97.9292
97.5749
123.204
122.281
121.523
120.367
119.175
117.942
116.727
115.621
114.426
113.102
111.746
110.437
108.939
107.547
105.938
104.32
102.534
100.751
99.2216
98.7349
122.094
121.564
121.192
120.559
119.989
119.188
118.012
117.092
115.898
114.895
113.617
112.593
111.127
109.959
108.232
106.849
104.76
102.966
100.859
100.4
121.403
121.145
120.809
120.268
119.696
119.136
118.606
118.085
117.311
116.691
115.639
114.889
113.594
112.774
111.13
110.16
107.938
106.821
104.453
104.06
121.538
121.416
121.266
121.134
120.894
120.726
120.346
119.849
119.355
118.86
118.204
117.683
116.818
116.227
115.007
114.376
112.377
111.941
109.07
109.137
121.939
122.003
121.99
121.95
121.848
121.739
121.559
121.547
121.202
121.188
120.765
120.714
120.196
120.134
119.425
119.361
118.027
118.495
115.507
117.678
122.673
122.85
122.957
123.112
123.198
123.341
123.407
123.533
123.631
123.766
123.916
124.096
124.318
124.55
124.905
125.213
125.724
126.128
127.577
129.617
123.277
123.561
123.779
124.067
124.282
124.611
124.827
125.257
125.493
126.036
126.355
127.028
127.527
128.363
129.258
130.201
131.921
132.648
136.159
137.085
124.191
124.546
124.874
125.267
125.638
126.097
126.528
127.09
127.601
128.32
128.94
129.892
130.665
131.935
132.886
134.609
135.881
138.266
140.558
142.499
124.761
125.164
125.558
126.027
126.472
127.036
127.547
128.243
128.841
129.709
130.416
131.524
132.364
133.807
134.806
136.749
137.897
140.573
141.61
151.468
125.451
125.893
126.359
126.883
127.426
128.056
128.69
129.459
130.198
131.149
132.01
133.202
134.188
135.708
136.791
138.789
140.007
142.843
144.235
148.248
125.823
126.265
126.743
127.284
127.851
128.505
129.167
129.956
130.722
131.675
132.551
133.699
134.682
136.06
137.129
138.76
139.743
141.5
142.095
149.384
125.989
126.471
126.998
127.568
128.182
128.858
129.575
130.38
131.214
132.174
133.137
134.283
135.372
136.747
137.932
139.599
140.795
142.856
143.867
146.534
226
227.195
227.596
227.348
226.455
224.998
222.752
220.059
216.413
212.466
207.646
202.255
196.195
189.364
182.024
175.022
166.803
158.584
149.862
140.832
202.084
202.496
202.889
202.772
202.487
201.798
200.912
199.779
198.358
196.824
194.96
193.155
190.392
186.211
181.941
178.588
174.624
171.403
167.009
163.368
165.106
165.633
166.007
166.324
166.447
166.54
166.428
166.32
165.97
165.642
165.026
164.473
163.565
162.86
161.662
160.683
159.162
158.018
156.104
155
153.852
154.213
154.549
154.786
154.994
155.103
155.166
155.129
155.007
154.811
154.511
154.198
153.671
153.265
152.526
152.056
151.093
150.581
149.468
148.904
138.873
139.174
139.461
139.698
139.903
140.082
140.213
140.34
140.406
140.493
140.495
140.526
140.465
140.436
140.297
140.23
140
139.924
139.516
139.456
133.473
133.718
133.901
134.098
134.249
134.397
134.515
134.615
134.695
134.744
134.764
134.763
134.724
134.682
134.587
134.527
134.345
134.295
134.008
133.999
127.145
127.352
127.576
127.747
127.931
128.072
128.213
128.329
128.429
128.522
128.591
128.668
128.709
128.768
128.779
128.816
128.796
128.823
128.742
128.765
124.453
124.618
124.757
124.904
125.02
125.143
125.24
125.338
125.415
125.491
125.546
125.601
125.628
125.659
125.653
125.669
125.63
125.636
125.576
125.595
121.978
122.149
122.302
122.441
122.577
122.692
122.806
122.901
122.992
123.067
123.138
123.196
123.24
123.284
123.311
123.339
123.346
123.362
123.344
123.354
121.116
121.245
121.36
121.478
121.578
121.683
121.767
121.856
121.924
121.996
122.048
122.103
122.142
122.178
122.199
122.22
122.221
122.228
122.208
122.203
120.026
120.161
120.291
120.408
120.522
120.633
120.741
120.841
120.942
121.032
121.126
121.206
121.286
121.354
121.414
121.463
121.502
121.52
121.513
121.486
120.72
120.823
120.919
121.014
121.103
121.191
121.273
121.346
121.39
121.415
121.435
121.458
121.476
121.483
121.494
121.514
121.533
121.55
121.559
121.558
120.662
120.786
120.908
121.027
121.144
121.258
121.367
121.471
121.561
121.622
121.664
121.702
121.746
121.782
121.817
121.843
121.868
121.884
121.902
121.905
121.628
121.721
121.81
121.891
121.966
122.032
122.089
122.141
122.192
122.24
122.288
122.331
122.374
122.412
122.451
122.483
122.518
122.544
122.575
122.592
121.867
121.957
122.046
122.131
122.213
122.29
122.364
122.436
122.507
122.575
122.642
122.706
122.769
122.828
122.888
122.941
122.998
123.045
123.098
123.138
122.678
122.756
122.834
122.91
122.985
123.059
123.132
123.205
123.277
123.348
123.418
123.487
123.556
123.623
123.692
123.756
123.824
123.885
123.953
124.009
123.087
123.161
123.235
123.31
123.385
123.46
123.536
123.612
123.689
123.766
123.843
123.92
123.999
124.075
124.155
124.231
124.312
124.387
124.469
124.543
123.754
123.816
123.879
123.943
124.009
124.077
124.147
124.219
124.293
124.368
124.445
124.523
124.603
124.684
124.768
124.851
124.939
125.025
125.117
125.203
123.941
124.011
124.083
124.157
124.232
124.308
124.387
124.467
124.55
124.636
124.724
124.815
124.91
125.006
125.101
125.195
125.291
125.391
125.489
125.58
124.159
124.218
124.278
124.342
124.408
124.477
124.548
124.621
124.695
124.77
124.846
124.924
125.005
125.09
125.181
125.276
125.38
125.485
125.594
125.702
6.73402
2.93041
-4.23259
-10.846
-17.437
-24.4552
-31.7716
-39.5459
-47.8002
-56.6448
-66.1382
-76.3981
-87.4761
-99.5158
-112.601
-126.808
-142.534
-159.415
-178.739
-187.553
20.6822
18.2283
13.0747
7.723
2.19765
-3.78724
-10.2287
-17.1421
-24.5817
-32.632
-41.3064
-50.7309
-60.8753
-72.0391
-84.1374
-97.3711
-111.934
-127.584
-145.848
-154.763
37.0798
35.7349
31.5985
27.0258
22.2638
17.0041
11.3471
5.20502
-1.43823
-8.6435
-16.4565
-24.9717
-34.2559
-44.4538
-55.5452
-67.7563
-81.2503
-95.925
-113.163
-122.044
54.844
53.8567
50.2242
46.3528
42.2849
37.8211
32.9314
27.6016
21.7946
15.4378
8.51071
0.892399
-7.37802
-16.572
-26.5566
-37.6631
-49.8291
-63.0865
-79.009
-88.5655
72.7447
72.2553
69.3624
66.0993
62.7144
58.9016
54.7032
50.0911
45.0167
39.4425
33.3158
26.5798
19.1537
10.9162
1.95876
-8.0537
-18.9553
-31.0997
-45.3376
-54.2775
90.6131
90.5217
88.1445
85.4935
82.683
79.5386
76.027
72.1374
67.8295
63.0532
57.7764
51.8932
45.4306
38.19
30.2807
21.348
11.6481
0.75258
-11.9188
-19.9726
109.385
109.566
107.478
105.324
103.05
100.434
97.4865
94.2166
90.5491
86.4627
81.8841
76.7943
71.105
64.7103
57.7024
49.7117
41.0284
31.03
19.6511
13.4094
126.765
127.087
125.482
123.827
122.079
120.055
117.749
115.152
112.193
108.857
105.093
100.83
96.0381
90.5946
84.5225
77.461
69.7198
60.6639
49.9715
44.2121
143.712
144.377
143.304
142.203
141.015
139.56
137.828
135.838
133.518
130.876
127.818
124.346
120.355
115.768
110.608
104.536
97.9248
89.7974
80.2879
74.2143
159.674
160.537
159.939
159.292
158.56
157.616
156.458
155.1
153.463
151.544
149.274
146.629
143.506
139.9
135.696
130.708
125.148
118.117
110.302
103.931
174.521
175.7
175.62
175.489
175.301
174.948
174.4
173.675
172.692
171.471
169.925
168.055
165.761
163.027
159.758
155.88
151.456
145.833
139.927
132.773
188.536
189.917
190.271
190.607
190.906
191.053
191.037
190.874
190.502
189.925
189.061
187.913
186.382
184.515
182.148
179.311
175.843
171.63
166.971
160.7
201.18
202.887
203.741
204.568
205.349
206.007
206.53
206.927
207.139
207.163
206.924
206.436
205.635
204.519
202.964
201.009
198.516
195.491
191.751
186.963
213.15
215.156
216.401
217.613
218.797
219.882
220.85
221.691
222.349
222.83
223.107
223.179
222.971
222.483
221.621
220.41
218.693
216.553
213.699
209.989
223.238
225.579
227.274
228.927
230.548
232.053
233.443
234.712
235.823
236.812
237.615
238.251
238.624
238.746
238.513
237.979
236.991
235.611
233.538
230.513
234.248
236.817
238.449
240.19
241.941
243.598
245.198
246.712
248.149
249.472
250.639
251.634
252.396
252.952
253.208
253.221
252.781
252.018
250.493
248.214
242.145
244.572
246.439
248.452
250.483
252.486
254.446
256.365
258.209
259.95
261.566
263.017
264.309
265.402
266.235
266.804
266.944
266.7
265.772
264.078
249.254
251.965
254.145
256.427
258.73
260.977
263.178
265.331
267.387
269.371
271.212
272.961
274.522
275.905
277.017
277.846
278.241
278.252
277.615
276.479
254.911
257.654
259.966
262.389
264.856
267.262
269.69
272.05
274.403
276.664
278.869
280.957
282.884
284.64
286.116
287.317
288.107
288.542
288.472
288.12
259.125
262.051
264.545
267.176
269.823
272.433
275.032
277.571
280.08
282.466
284.796
286.925
288.944
290.712
292.242
293.467
294.377
294.983
295.196
294.905
-234.303
-240.355
-246.767
-253.436
-260.169
-267.281
-274.388
-281.862
-289.403
-297.206
-305.104
-313.322
-321.492
-329.816
-337.99
-345.534
-351.314
-352.297
-352.838
-352.926
-229.948
-236.192
-242.782
-249.723
-256.677
-264.107
-271.514
-279.319
-287.205
-295.368
-303.741
-312.274
-321.006
-329.85
-338.773
-347.086
-353.943
-357.627
-358.25
-358.615
-225.397
-231.836
-238.557
-245.777
-252.989
-260.716
-268.497
-276.692
-285.069
-293.749
-302.656
-311.86
-321.365
-330.894
-340.843
-350.291
-359.18
-365.776
-366.321
-367.153
-220.523
-227.195
-234.107
-241.628
-249.157
-257.273
-265.476
-274.127
-283.033
-292.302
-301.934
-311.891
-322.201
-332.92
-343.887
-355.116
-366.086
-374.743
-377.11
-377.823
-215.3
-222.216
-229.278
-237.091
-244.903
-253.35
-261.994
-271.131
-280.624
-290.564
-300.946
-311.82
-323.29
-335.35
-347.686
-360.991
-374.532
-385.934
-391.857
-392.669
-209.385
-216.527
-223.75
-231.831
-239.969
-248.782
-257.843
-267.438
-277.491
-288.064
-299.215
-310.966
-323.454
-336.586
-350.566
-365.691
-381.557
-396.022
-406.102
-406.922
-202.781
-210.171
-217.519
-225.826
-234.2
-243.29
-252.736
-262.754
-273.299
-284.443
-296.242
-308.782
-322.163
-336.394
-351.776
-368.297
-385.975
-403.153
-416.916
-417.258
-195.314
-202.884
-210.308
-218.761
-227.359
-236.7
-246.426
-256.767
-267.719
-279.324
-291.672
-304.791
-318.845
-333.858
-350.058
-367.432
-386.018
-405.043
-421.389
-424.781
-186.841
-194.611
-201.953
-210.572
-219.269
-228.752
-238.729
-249.325
-260.567
-272.518
-285.249
-298.858
-313.489
-329.133
-345.978
-364.236
-383.914
-404.558
-421.1
-425.982
-177.144
-184.953
-192.378
-201.042
-209.894
-219.441
-229.522
-240.271
-251.717
-263.916
-276.943
-290.859
-305.831
-321.822
-339.077
-357.829
-377.614
-398.574
-418.152
-422.58
-166.253
-174.149
-181.533
-190.105
-198.961
-208.512
-218.676
-229.499
-241.023
-253.348
-266.539
-280.706
-296.005
-312.38
-330.261
-349.577
-370.268
-393.637
-412.356
-416.453
-153.97
-161.858
-169.201
-177.709
-186.55
-196.049
-206.136
-216.916
-228.442
-240.769
-253.974
-268.144
-283.42
-299.815
-317.664
-336.902
-357.876
-380.989
-402.057
-407.858
-140.611
-148.481
-155.629
-163.927
-172.614
-181.937
-191.931
-202.609
-214.011
-226.252
-239.384
-253.539
-268.817
-285.196
-303.13
-322.283
-343.248
-366.373
-387.127
-393.287
-125.736
-133.504
-140.534
-148.614
-157.155
-166.305
-176.072
-186.538
-197.764
-209.808
-222.739
-236.668
-251.688
-267.895
-285.544
-304.439
-325.482
-347.93
-369.257
-376.775
-109.673
-117.364
-124.146
-131.93
-140.21
-149.059
-158.582
-168.802
-179.731
-191.505
-204.166
-217.849
-232.626
-248.526
-265.916
-284.615
-305.314
-327.313
-348.144
-356.114
-92.3508
-99.9119
-106.497
-113.957
-121.976
-130.559
-139.756
-149.637
-160.261
-171.688
-183.972
-197.232
-211.517
-226.98
-243.821
-261.908
-281.949
-303.523
-324.983
-333.153
-73.9612
-81.3486
-87.6302
-94.7143
-102.424
-110.641
-119.487
-129.03
-139.239
-150.25
-162.107
-174.93
-188.766
-203.691
-219.976
-237.486
-256.968
-277.517
-299.058
-307.445
-54.8783
-62.1395
-68.0797
-74.7243
-82.0918
-89.9811
-98.4378
-107.547
-117.353
-127.914
-139.266
-151.53
-164.716
-179.034
-194.577
-211.347
-229.829
-249.436
-271.104
-279.549
-32.6395
-40.5636
-46.6245
-52.9694
-60.1666
-67.8422
-75.9926
-84.7882
-94.1787
-104.275
-115.128
-126.851
-139.478
-153.118
-167.969
-183.976
-201.648
-220.506
-241.498
-250.224
-7.56061
-15.8576
-23.466
-30.254
-37.5296
-45.2567
-53.2988
-61.7873
-70.8096
-80.4499
-90.7425
-101.825
-113.687
-126.612
-140.607
-155.74
-172.401
-190.235
-210.351
-219.118
-3.6705
-3.91936
-5.67393
-7.85542
-10.6475
-14.1649
-17.5108
-22.0575
-26.5944
-32.4628
-38.8506
-46.4996
-55.7724
-65.7897
-79.7211
-93.4572
-115.164
-136.014
-169.547
-204.384
-3.40206
-3.56621
-5.21803
-7.33962
-9.94152
-13.3367
-16.4993
-20.9143
-25.2631
-30.9774
-37.1423
-44.6058
-53.6264
-63.4247
-77.1524
-90.4865
-111.894
-131.875
-165.513
-199.355
-3.12178
-3.19406
-4.67165
-6.72721
-9.21719
-12.4907
-15.4582
-19.7457
-23.9034
-29.472
-35.4195
-42.7104
-51.4545
-60.9921
-74.3604
-87.2247
-108.483
-127.714
-161.33
-194.291
-2.8783
-2.90557
-4.22777
-6.20027
-8.45186
-11.6252
-14.3984
-18.5521
-22.5184
-27.9339
-33.652
-40.7644
-49.2438
-58.5657
-71.7014
-84.2208
-105.117
-123.475
-157.032
-188.7
-2.62132
-2.58834
-3.76082
-5.7172
-7.69436
-10.7385
-13.3102
-17.33
-21.1065
-26.374
-31.869
-38.8147
-47.0028
-56.0574
-68.7808
-80.7648
-101.423
-118.956
-152.277
-183.051
-2.4025
-2.34885
-3.30661
-5.17739
-6.90323
-9.83009
-12.1995
-16.0806
-19.6675
-24.7799
-30.0428
-36.8145
-44.7108
-53.5851
-66.0043
-77.7004
-98.0144
-114.533
-147.556
-176.785
-2.16565
-2.07441
-2.86759
-4.63946
-6.09046
-8.8985
-11.0578
-14.8015
-18.2012
-23.163
-28.2008
-34.8073
-42.3894
-51.0232
-62.9438
-74.1814
-93.9456
-109.664
-142.367
-170.137
-1.95571
-1.86957
-2.41103
-4.04619
-5.16033
-7.93349
-9.89117
-13.4927
-16.7074
-21.5115
-26.3183
-32.7492
-40.0225
-48.4838
-60.034
-71.0632
-90.3211
-105.165
-137.108
-162.873
-1.72626
-1.58869
-1.92136
-3.49265
-4.29117
-6.93984
-8.6956
-12.153
-15.1864
-19.8363
-24.4201
-30.6824
-37.6324
-45.8671
-56.872
-67.4796
-85.9789
-100.066
-131.125
-155.274
-1.49103
-1.40173
-1.42011
-2.87022
-3.35535
-5.90162
-7.47184
-10.782
-13.6385
-18.1277
-22.4852
-28.5649
-35.1955
-43.2491
-53.8234
-64.2527
-82.1023
-95.3589
-125.123
-147.04
-1.24511
-1.24501
-0.895465
-2.24794
-2.45177
-4.85339
-6.21916
-9.3796
-12.0636
-16.3952
-20.5345
-26.4383
-32.7449
-40.5756
-50.5873
-60.6418
-77.564
-90.0374
-118.449
-138.192
-1.01832
-1.05388
-0.286435
-1.57365
-1.53185
-3.75047
-4.93436
-7.94675
-10.4638
-14.6324
-18.553
-24.2644
-30.2483
-37.8774
-47.4153
-57.2927
-73.4191
-85.051
-111.72
-128.66
-0.775485
-0.82912
0.329632
-0.875066
-0.572385
-2.64838
-3.61855
-6.48275
-8.8376
-12.8455
-16.5546
-22.0791
-27.7426
-35.1402
-44.1229
-53.6685
-68.7277
-79.5147
-104.344
-118.207
-0.536903
-0.571013
0.988821
-0.11945
0.483342
-1.46916
-2.26483
-4.98898
-7.18714
-11.0302
-14.5292
-19.849
-25.1911
-32.3591
-40.8522
-50.1996
-64.3184
-74.2193
-96.8792
-107.102
-0.288892
-0.271544
1.67495
0.65259
1.51602
-0.285525
-0.888051
-3.46945
-5.51849
-9.19989
-12.4968
-17.6188
-22.6496
-29.5764
-37.5583
-46.6082
-59.5694
-68.5604
-88.7975
-94.7612
-0.0519382
0.0509887
2.34898
1.48554
2.6196
0.966386
0.523897
-1.92816
-3.83453
-7.35181
-10.4496
-15.3559
-20.075
-26.751
-34.2696
-43.0873
-54.9786
-62.9387
-80.3054
-81.4644
0.275529
0.441995
3.13427
2.36327
3.75515
2.26048
1.98922
-0.324685
-2.08658
-5.43279
-8.32458
-13.0018
-17.3886
-23.7625
-30.7621
-39.2291
-49.8416
-56.7971
-71.2093
-67.4979
0.567606
0.873479
4.08784
3.31865
4.93975
3.61451
3.48182
1.28313
-0.35536
-3.5366
-6.23979
-10.6943
-14.7774
-20.9085
-27.5475
-35.7833
-45.3869
-51.3678
-62.6418
-53.2339
0.672781
1.10853
4.64242
4.11053
5.94726
4.81756
4.81552
2.71006
1.14235
-1.92243
-4.49677
-8.79693
-12.7007
-18.7399
-25.2794
-33.3746
-41.9371
-46.4258
-52.4177
-33.1379
1.91431
1.2518
5.2639
4.80282
7.30845
6.33718
6.46978
4.52117
3.14819
0.299463
-2.01536
-5.94462
-9.41543
-14.8888
-20.5585
-27.915
-34.4157
-36.8531
-37.1766
-11.4349
21.3915
12.8864
18.4941
17.1327
19.7087
18.5291
19.4472
18.7553
19.2954
18.8343
19.314
18.7912
20.3083
20.1381
23.7684
24.0724
31.2496
30.958
38.3819
25.0059
25.6785
24.4456
25.3846
25.4574
26.3352
26.9473
27.584
28.4402
29.4028
30.6844
32.7904
35.1324
38.786
41.9004
48.2387
52.414
62.6188
67.3898
90.0545
97.4294
43.1475
42.6184
43.0597
43.8737
44.8451
45.6759
47.0896
48.2007
50.1037
51.8701
54.5069
56.8657
60.3972
63.8467
69.1674
74.3102
82.2659
90.1668
101.928
111.499
48.4466
48.5615
49.0417
50.0206
51.2692
52.9126
54.6429
56.9105
59.4877
62.2561
65.529
68.9726
73.3439
77.7244
83.5291
89.0578
96.9398
103.499
113.693
121.288
59.9847
60.1683
60.9143
62.3944
63.6391
65.1331
66.8338
68.6947
70.8028
73.0371
75.7143
78.5338
81.9169
85.497
89.7138
94.1558
99.2263
104.395
110.317
116.487
64.7715
65.1392
66.1868
67.3884
68.9875
70.7418
72.8386
74.9542
77.4753
80.0095
83.0358
86.004
89.5997
92.9923
97.1437
100.936
105.566
109.622
114.944
118.122
71.8318
72.0537
73.087
74.9806
76.607
78.4488
80.3337
82.2222
84.3814
86.4422
88.813
91.1485
93.7832
96.4189
99.2893
102.198
105.218
108.304
111
114.282
75.9068
76.5019
77.7284
79.476
81.3068
83.0658
85.1289
86.9568
89.2197
91.1771
93.6687
95.8024
98.4334
100.722
103.426
105.866
108.462
111.245
113.922
116.31
79.865
80.6295
82.2343
84.1753
86.2729
88.0688
90.1229
91.8644
93.88
95.6227
97.6275
99.3838
101.422
103.208
105.304
107.092
109.244
110.85
112.455
113.854
83.1992
84.0202
86.3511
88.276
90.7452
92.3984
94.5495
96.0649
98.0356
99.5099
101.393
102.851
104.699
106.13
107.967
109.319
111.148
112.599
114.495
115.862
88.1464
88.9208
92.0129
93.6119
96.2573
97.6732
99.6348
100.875
102.563
103.733
105.193
106.351
107.729
108.882
110.22
111.374
112.684
113.549
114.595
115.284
94.5662
93.6753
98.9354
99.6836
101.987
102.904
104.434
105.297
106.553
107.4
108.529
109.341
110.44
111.228
112.297
113.033
114.058
114.787
115.877
116.64
109.556
107.339
108.34
108.211
109.501
109.8
110.562
110.951
111.57
111.992
112.599
113.08
113.718
114.221
114.913
115.448
116.187
116.66
117.33
117.625
121.164
119.215
116.77
116.873
115.83
115.772
115.34
115.319
115.249
115.302
115.481
115.648
115.979
116.261
116.686
116.989
117.474
117.78
118.321
118.647
131.286
130.475
126.496
124.721
123.044
121.659
120.9
120.005
119.695
119.174
119.102
118.826
118.901
118.77
118.982
119.016
119.317
119.448
119.819
119.993
137.728
133.041
130.7
128.289
126.92
125.153
124.292
123.113
122.509
121.773
121.378
120.961
120.707
120.507
120.503
120.466
120.574
120.632
120.847
120.966
143.404
132.027
131.021
128.848
127.841
126.221
125.511
124.276
123.866
123.004
122.758
122.209
122.111
121.8
121.718
121.512
121.563
121.512
121.649
121.699
133.872
131.913
131.384
129.444
128.911
127.504
126.881
125.863
125.266
124.539
124.039
123.522
123.118
122.801
122.542
122.481
122.517
122.486
122.562
122.619
133.221
131.455
130.887
129.56
128.911