/*--------------------------------*- C++ -*----------------------------------*\
  =========                 |
  \\      /  F ield         | OpenFOAM: The Open Source CFD Toolbox
   \\    /   O peration     | Website:  https://openfoam.org
    \\  /    A nd           | Version:  9
     \\/     M anipulation  |
\*---------------------------------------------------------------------------*/
FoamFile
{
    format      ascii;
    class       volVectorField;
    location    "4.2";
    object      U;
}
// * * * * * * * * * * * * * * * * * * * * * * * * * * * * * * * * * * * * * //

dimensions      [0 1 -1 0 0 0 0];

internalField   nonuniform List<vector> 
46400
(
(7.64756 -7.24476 1.63832e-19)
(14.2499 -14.0157 -2.33912e-19)
(14.6644 -15.0228 -3.1582e-20)
(13.9687 -15.1606 -1.02302e-19)
(13.456 -15.2202 -2.4145e-20)
(12.909 -15.3249 4.89388e-19)
(12.4042 -15.4001 -2.91619e-19)
(11.897 -15.4444 8.86226e-20)
(11.4576 -15.5483 -9.0659e-20)
(11.0402 -15.6272 9.22837e-20)
(10.6334 -15.7196 -9.35331e-20)
(10.2888 -15.8318 0)
(9.92368 -15.9354 6.08784e-19)
(9.59384 -16.0335 -6.92925e-19)
(9.30485 -16.1732 -8.10365e-19)
(8.99475 -16.2168 -1.10454e-19)
(8.70267 -16.3027 -1.42533e-20)
(8.43363 -16.3271 6.14627e-19)
(8.13132 -16.2655 8.04569e-19)
(7.73011 -16.41 -7.38662e-19)
(7.85847 -6.80735 0)
(14.1464 -12.8231 -2.45458e-20)
(14.4328 -13.7612 0)
(13.8075 -13.9284 4.3128e-19)
(13.2793 -14.0709 -3.50525e-19)
(12.7225 -14.1788 8.28615e-20)
(12.2051 -14.3076 0)
(11.721 -14.4011 -8.86183e-20)
(11.2472 -14.5276 9.06542e-20)
(10.8529 -14.6588 -9.22795e-20)
(10.4369 -14.7874 9.22613e-19)
(10.0622 -14.8852 1.69307e-20)
(9.71871 -15.0283 -7.24222e-19)
(9.40195 -15.1613 0)
(9.08313 -15.296 9.591e-20)
(8.7621 -15.368 9.6077e-20)
(8.48344 -15.5002 0)
(8.26692 -15.6568 -8.37617e-19)
(8.05281 -15.7602 -2.03905e-19)
(7.72935 -15.9674 8.40015e-19)
(8.16467 -6.42416 2.7099e-19)
(13.9242 -11.6298 -4.33385e-19)
(14.1033 -12.5316 4.10559e-19)
(13.4005 -12.7181 4.53659e-19)
(12.8542 -12.8941 -4.45423e-19)
(12.3349 -13.0863 0)
(11.8313 -13.2526 -1.08175e-18)
(11.3424 -13.371 9.37318e-19)
(10.8915 -13.536 -1.09262e-18)
(10.497 -13.6892 1.07639e-18)
(10.1057 -13.8612 9.63482e-19)
(9.78594 -14.036 -1.15011e-19)
(9.42747 -14.1599 -8.18499e-19)
(9.11258 -14.268 0)
(8.87537 -14.4828 9.44005e-19)
(8.59396 -14.5852 -9.29677e-19)
(8.27476 -14.6408 0)
(8.02992 -14.7186 -1.22625e-20)
(7.81902 -14.862 1.067e-19)
(7.49011 -15.1059 -9.4005e-19)
(8.50247 -6.11843 -3.76968e-19)
(13.5423 -10.418 1.14064e-19)
(13.5369 -11.1769 5.39589e-19)
(12.9678 -11.4843 -5.30694e-19)
(12.4646 -11.7577 -4.06326e-19)
(11.9491 -11.9689 5.44273e-19)
(11.4624 -12.2135 6.86134e-19)
(10.9991 -12.3684 -1.6638e-18)
(10.528 -12.5514 1.37193e-18)
(10.1378 -12.734 -1.28547e-19)
(9.73528 -12.9275 0)
(9.3947 -13.137 1.2748e-19)
(9.10517 -13.3985 -1.26675e-19)
(8.76707 -13.5386 0)
(8.46538 -13.721 1.05607e-18)
(8.2414 -13.9553 -9.03453e-19)
(7.99245 -14.1463 0)
(7.72779 -14.2318 1.20951e-19)
(7.51451 -14.3629 1.29682e-19)
(7.21915 -14.6466 1.03769e-18)
(8.84857 -5.71718 0)
(13.0891 -9.40944 0)
(12.9637 -10.0206 -6.38644e-19)
(12.3303 -10.3359 4.57306e-19)
(11.8158 -10.668 -7.88848e-19)
(11.3544 -10.9268 6.29592e-19)
(10.8918 -11.2237 0)
(10.475 -11.4278 6.30798e-19)
(10.0232 -11.6245 -7.67022e-19)
(9.66079 -11.8087 -1.62424e-19)
(9.26388 -11.9858 -1.60418e-19)
(8.9324 -12.1648 0)
(8.62737 -12.4181 1.19348e-18)
(8.35479 -12.6344 -1.17481e-18)
(8.07585 -12.8452 0)
(7.80164 -13.0098 -1.28026e-18)
(7.58174 -13.2583 1.12659e-18)
(7.36834 -13.4451 1.10976e-18)
(7.13823 -13.569 -1.2145e-18)
(6.85013 -13.8806 0)
(9.13984 -5.48081 0)
(12.3559 -8.26819 0)
(12.0652 -8.80775 0)
(11.6221 -9.18794 -2.14104e-20)
(11.1824 -9.61971 0)
(10.7585 -9.937 0)
(10.3232 -10.2831 0)
(9.95508 -10.5771 -1.83424e-19)
(9.53778 -10.8375 0)
(9.1884 -11.0698 1.62429e-19)
(8.82352 -11.2837 -1.49922e-20)
(8.45213 -11.4156 -1.49917e-18)
(8.16577 -11.6577 1.13562e-18)
(7.88146 -11.8762 -1.45214e-18)
(7.62648 -12.1288 1.10132e-18)
(7.39187 -12.3648 0)
(7.13522 -12.5745 -1.22264e-18)
(6.93733 -12.8158 1.04893e-18)
(6.74724 -12.9917 0)
(6.43526 -13.2971 -1.59712e-19)
(9.09771 -5.16151 7.33044e-19)
(11.6891 -7.32271 2.14172e-19)
(11.3503 -7.90254 8.1781e-19)
(10.8427 -8.22226 -8.22703e-19)
(10.3561 -8.6288 -8.00852e-19)
(9.96478 -8.97519 1.57711e-18)
(9.55168 -9.3692 -1.75911e-18)
(9.20178 -9.70135 1.81742e-19)
(8.81449 -10.0274 5.58217e-19)
(8.50521 -10.3391 0)
(8.19866 -10.66 -1.42256e-20)
(7.8695 -10.8571 -1.35688e-20)
(7.52258 -11.0264 1.69775e-19)
(7.2522 -11.2171 1.37087e-18)
(6.98504 -11.4197 -1.19772e-18)
(6.7633 -11.6331 -1.50546e-18)
(6.56208 -11.8837 1.31298e-18)
(6.36547 -12.0853 -1.03413e-20)
(6.21583 -12.323 -1.62941e-19)
(5.98798 -12.6501 -1.16148e-18)
(8.86971 -4.6945 -2.13465e-19)
(10.7634 -6.3427 1.98128e-20)
(10.3165 -6.83533 -2.326e-19)
(9.97528 -7.25938 -9.03945e-19)
(9.57798 -7.72334 6.436e-19)
(9.1942 -8.05526 0)
(8.791 -8.43679 1.267e-18)
(8.49771 -8.817 -6.16057e-19)
(8.12251 -9.12621 4.07244e-19)
(7.79731 -9.42864 2.06732e-19)
(7.54554 -9.81388 -3.92926e-19)
(7.30901 -10.1651 9.58696e-19)
(7.05899 -10.4789 1.94725e-19)
(6.77351 -10.7036 -1.1097e-18)
(6.51926 -10.9387 3.0942e-18)
(6.2669 -11.1322 -1.25578e-18)
(6.04042 -11.3529 1.57241e-18)
(5.84295 -11.5668 -1.03076e-18)
(5.65302 -11.7457 3.35182e-19)
(5.44344 -12.0888 1.58504e-18)
(8.43617 -4.15457 1.11107e-18)
(10.018 -5.53879 -2.34028e-19)
(9.58585 -6.08463 -1.77073e-20)
(9.12314 -6.42287 4.75674e-19)
(8.7175 -6.92174 2.26077e-19)
(8.3959 -7.31413 2.37613e-19)
(7.97768 -7.69637 -1.12195e-18)
(7.71005 -8.11244 6.72963e-19)
(7.40598 -8.51093 -2.10792e-19)
(7.05199 -8.75502 -2.06769e-19)
(6.73151 -9.05472 -2.0275e-19)
(6.4689 -9.34477 -2.10166e-19)
(6.24535 -9.68838 -4.00391e-19)
(6.05122 -10.0081 1.37423e-18)
(5.83375 -10.299 -1.92474e-18)
(5.63537 -10.5671 -1.92707e-19)
(5.42857 -10.8104 9.22139e-21)
(5.25526 -11.0506 -1.42921e-18)
(5.09252 -11.26 1.06399e-18)
(4.8893 -11.5582 -1.65966e-18)
(7.81147 -3.57478 9.77204e-19)
(8.85453 -4.67568 -2.35996e-18)
(8.35738 -5.23834 1.55049e-18)
(8.02738 -5.67424 -2.46242e-19)
(7.65834 -6.16948 -2.56465e-19)
(7.37843 -6.587 9.93114e-19)
(6.98504 -6.94299 -1.20836e-18)
(6.70419 -7.33331 0)
(6.5188 -7.82429 9.19405e-19)
(6.30253 -8.23713 -9.04123e-19)
(6.05081 -8.57858 -6.54172e-19)
(5.80536 -8.89559 8.55171e-19)
(5.55744 -9.16736 2.05702e-19)
(5.34418 -9.46519 -8.2273e-19)
(5.15766 -9.74884 2.02521e-19)
(4.9789 -10.034 9.84939e-19)
(4.80098 -10.2983 -1.72692e-18)
(4.63543 -10.5508 1.1384e-18)
(4.48743 -10.7857 -7.92401e-21)
(4.31315 -11.0991 -1.5478e-18)
(7.01812 -2.96648 1.31231e-18)
(7.95943 -3.96581 -8.35195e-19)
(7.5336 -4.56356 5.46338e-19)
(7.17368 -4.99617 -9.39561e-22)
(6.83655 -5.53889 -1.06549e-18)
(6.65324 -6.04718 -1.01598e-18)
(6.28761 -6.40584 1.25673e-18)
(5.91931 -6.68403 -7.32294e-19)
(5.61858 -7.01528 9.67651e-19)
(5.41709 -7.41833 0)
(5.21411 -7.7988 9.64738e-21)
(5.03872 -8.18777 2.20667e-19)
(4.85719 -8.54343 2.24596e-19)
(4.66306 -8.86782 -2.194e-19)
(4.47356 -9.18228 0)
(4.29758 -9.476 2.09401e-19)
(4.13068 -9.77779 0)
(3.96695 -10.039 3.92676e-19)
(3.82402 -10.2982 1.91526e-18)
(3.64728 -10.6162 -1.57716e-20)
(6.04696 -2.35602 7.02863e-19)
(6.54752 -3.25072 -1.4787e-19)
(6.10764 -3.86748 -2.02075e-18)
(5.81168 -4.34508 1.12884e-18)
(5.46019 -4.84781 2.69424e-19)
(5.37529 -5.50274 -2.63613e-19)
(5.2373 -6.09292 -1.05161e-18)
(5.00385 -6.55144 7.81558e-19)
(4.72849 -6.91432 0)
(4.47937 -7.26027 0)
(4.26015 -7.61103 -1.19144e-18)
(4.05577 -7.93622 9.40586e-19)
(3.88933 -8.29502 -2.24617e-19)
(3.73077 -8.60746 -6.70185e-19)
(3.59361 -8.94658 7.2609e-21)
(3.44842 -9.22535 1.49422e-18)
(3.32305 -9.53652 -8.35526e-19)
(3.19447 -9.79271 6.09528e-19)
(3.08065 -10.0536 -9.93174e-19)
(2.94862 -10.348 0)
(5.0111 -1.79319 -5.95075e-19)
(5.51122 -2.65644 9.11186e-19)
(5.29077 -3.37297 1.5174e-19)
(5.07349 -3.87912 1.48441e-19)
(4.58066 -4.22751 0)
(4.29875 -4.64212 1.1139e-18)
(4.13467 -5.19564 -1.09412e-18)
(4.00451 -5.70495 1.35166e-19)
(3.85231 -6.22128 0)
(3.66286 -6.63015 1.01285e-18)
(3.49935 -7.06629 -8.70636e-19)
(3.31436 -7.41576 9.6464e-19)
(3.16591 -7.80386 -9.49294e-19)
(3.00381 -8.13033 9.18593e-19)
(2.87075 -8.48855 -7.90562e-19)
(2.74026 -8.80776 -8.74909e-19)
(2.61144 -9.13553 1.71581e-18)
(2.49921 -9.43997 -7.35554e-19)
(2.38177 -9.71946 1.03384e-19)
(2.25996 -10.0575 8.58362e-19)
(3.79879 -1.30763 -4.73795e-19)
(3.78307 -2.01367 4.75118e-19)
(3.62103 -2.71329 -1.51691e-19)
(3.71792 -3.50152 -1.48357e-19)
(3.504 -4.10642 0)
(3.2254 -4.52929 0)
(3.0086 -5.01124 0)
(2.83387 -5.45331 -2.73799e-19)
(2.68174 -5.93337 -1.06546e-18)
(2.55371 -6.36237 2.08669e-18)
(2.41892 -6.7997 -1.14761e-18)
(2.29407 -7.18698 -1.25441e-19)
(2.16137 -7.56894 0)
(2.04894 -7.91942 0)
(1.92132 -8.25543 -2.3022e-19)
(1.82146 -8.57696 0)
(1.71391 -8.89019 8.72888e-19)
(1.62278 -9.1851 -1.07391e-18)
(1.54135 -9.46435 -9.34834e-19)
(1.44397 -9.77928 8.87558e-19)
(2.6587 -1.00723 4.86591e-19)
(2.94521 -1.66055 8.04387e-19)
(2.61728 -2.17081 -1.66739e-21)
(2.43898 -2.70241 -2.24707e-21)
(2.3693 -3.43477 1.4894e-19)
(2.22527 -3.95973 -4.41564e-19)
(2.04732 -4.52718 0)
(1.89589 -4.98437 -4.19817e-19)
(1.76972 -5.50326 1.41932e-19)
(1.62591 -5.92089 5.35556e-19)
(1.52415 -6.40155 5.17883e-19)
(1.41152 -6.79358 -3.84088e-19)
(1.3267 -7.23048 9.84578e-19)
(1.23114 -7.5905 -8.47905e-19)
(1.15271 -7.98247 1.0524e-18)
(1.06316 -8.30379 -1.94996e-18)
(0.989027 -8.65708 8.99162e-19)
(0.905983 -8.94752 1.08044e-19)
(0.841935 -9.24842 8.47084e-19)
(0.76525 -9.55668 -9.05226e-19)
(0.896576 -0.664621 1.30405e-19)
(1.51319 -1.39132 -1.62344e-19)
(1.2159 -2.25123 6.41001e-19)
(1.10625 -2.68806 -6.2922e-19)
(0.825661 -3.43607 -3.05801e-19)
(0.843611 -3.86416 -7.44087e-19)
(0.686469 -4.52901 4.39425e-21)
(0.642332 -4.90482 5.7096e-19)
(0.528472 -5.48673 -1.37668e-19)
(0.482829 -5.84371 0)
(0.382999 -6.3532 0)
(0.337969 -6.69868 0)
(0.253902 -7.154 0)
(0.214704 -7.48808 1.38774e-21)
(0.149167 -7.89763 0)
(0.113851 -8.21407 1.15314e-19)
(0.0577628 -8.57993 4.50085e-19)
(0.0264599 -8.87664 -1.32169e-18)
(-0.0212587 -9.18339 9.73658e-19)
(-0.0555552 -9.49153 -9.05969e-19)
(-0.254282 -0.203761 0)
(0.0110925 -0.853246 -8.28719e-20)
(-0.000895144 -1.75563 0)
(-0.151853 -2.29828 2.36517e-19)
(-0.0945721 -2.89214 -1.561e-19)
(-0.154915 -3.44069 -6.01853e-19)
(-0.251459 -4.01261 4.13932e-21)
(-0.299349 -4.53228 5.76968e-19)
(-0.401385 -5.05094 -5.58173e-19)
(-0.447712 -5.53304 1.09294e-18)
(-0.53829 -6.00061 -4.85889e-21)
(-0.572023 -6.4358 -5.21736e-19)
(-0.643122 -6.85839 5.03714e-19)
(-0.66216 -7.24893 -6.18495e-19)
(-0.714954 -7.635 0)
(-0.722863 -7.99013 -4.66531e-19)
(-0.762647 -8.34656 4.59557e-19)
(-0.764366 -8.6733 0)
(-0.792291 -8.98294 -1.08216e-19)
(-0.793629 -9.31857 0)
(-1.21256 -0.0635915 0)
(-1.51664 -0.678623 8.28751e-20)
(-1.67016 -1.35295 0)
(-1.29351 -2.07866 3.16807e-19)
(-1.48335 -2.73309 -3.88451e-19)
(-1.61012 -3.41825 2.26121e-19)
(-1.64879 -3.99488 -6.64351e-19)
(-1.69192 -4.57469 2.89132e-19)
(-1.69611 -5.08586 -7.01262e-20)
(-1.71454 -5.59034 0)
(-1.6913 -6.03632 -6.66461e-20)
(-1.70144 -6.48898 -6.49652e-20)
(-1.67158 -6.88541 -6.33229e-20)
(-1.68062 -7.30153 0)
(-1.66049 -7.66068 -4.78974e-19)
(-1.66677 -8.04467 9.97271e-19)
(-1.65616 -8.37556 -8.57938e-19)
(-1.65521 -8.73159 4.48496e-19)
(-1.6478 -9.02555 5.44161e-20)
(-1.64171 -9.37698 4.586e-19)
(-2.22374 -0.161541 -8.29037e-20)
(-2.71075 -1.02262 -1.45759e-19)
(-2.78716 -1.60374 5.4078e-22)
(-3.00372 -2.29329 4.35128e-19)
(-3.0224 -2.93483 -1.16011e-19)
(-2.93971 -3.49903 -7.48493e-20)
(-2.85907 -4.02305 7.47903e-20)
(-2.79183 -4.54109 1.44239e-19)
(-2.77771 -5.04048 7.0135e-20)
(-2.70022 -5.50601 -2.72135e-19)
(-2.71128 -5.97747 3.0116e-19)
(-2.65913 -6.41103 6.49622e-20)
(-2.67145 -6.84259 3.1534e-19)
(-2.6371 -7.25192 -2.4228e-21)
(-2.63144 -7.63947 2.75481e-20)
(-2.60275 -8.02335 -5.27926e-19)
(-2.58334 -8.37253 1.44277e-19)
(-2.55965 -8.72921 0)
(-2.53264 -9.02951 -2.72976e-20)
(-2.51744 -9.37894 -2.29387e-19)
(-4.12903 -0.35254 4.15771e-20)
(-4.58011 -1.37699 -8.16504e-20)
(-4.35886 -2.06287 1.6016e-19)
(-4.18992 -2.76807 -3.97365e-20)
(-4.06236 -3.28174 -3.82367e-20)
(-3.99005 -3.8589 0)
(-3.92942 -4.32511 -7.26176e-20)
(-3.97006 -4.89302 1.42197e-19)
(-3.87666 -5.31165 -6.96319e-20)
(-3.86394 -5.81128 6.73588e-20)
(-3.80924 -6.22636 -3.31032e-20)
(-3.74618 -6.66307 -6.40332e-20)
(-3.70904 -7.06318 1.25448e-19)
(-3.62423 -7.44794 -1.22333e-19)
(-3.59297 -7.82373 2.99825e-20)
(-3.51123 -8.16914 2.05493e-34)
(-3.47575 -8.51866 -2.79866e-20)
(-3.39799 -8.83474 1.65864e-19)
(-3.35522 -9.13768 -8.19752e-20)
(-3.27971 -9.45797 -5.7606e-20)
(0.0265343 -2.11958 6.83646e-20)
(0.149578 -6.28044 3.36356e-20)
(2.03025 -14.8943 0)
(3.79931 -22.6972 3.13966e-20)
(4.74614 -26.6994 3.00021e-20)
(5.02294 -27.8847 2.87019e-20)
(5.09166 -28.0049 0)
(5.10717 -27.9284 2.44546e-20)
(5.07917 -27.7135 0)
(5.04189 -27.4878 0)
(5.01808 -27.3294 -2.20965e-20)
(4.99121 -27.1376 1.47174e-21)
(4.934 -26.9474 4.12903e-20)
(4.90931 -26.7731 0)
(4.85843 -26.6513 1.79418e-20)
(4.85065 -26.5394 1.7042e-20)
(4.79648 -26.4773 1.61916e-20)
(4.79897 -26.3998 0)
(4.7263 -26.3545 -2.88461e-20)
(4.74096 -26.2354 2.76661e-20)
(0.199347 -2.26937 6.99465e-20)
(0.899696 -8.03033 -1.67628e-19)
(3.20795 -17.9017 0)
(4.79626 -24.8361 -1.54439e-19)
(5.43245 -27.55 1.49533e-19)
(5.64148 -28.0791 -2.47012e-19)
(5.64375 -28.0255 1.02851e-19)
(5.63609 -27.8309 7.20413e-20)
(5.58332 -27.5943 -3.34876e-19)
(5.56183 -27.435 1.86135e-19)
(5.51615 -27.236 -2.2052e-20)
(5.46418 -27.018 1.61295e-19)
(5.41541 -26.8462 -5.7188e-21)
(5.38374 -26.6947 -1.50607e-19)
(5.3204 -26.549 -1.7941e-20)
(5.29392 -26.4188 -1.70416e-20)
(5.23585 -26.3657 -1.6192e-20)
(5.23952 -26.3227 0)
(5.17708 -26.2752 -1.08282e-19)
(5.16161 -26.0742 4.00822e-21)
(0.213092 -3.04043 -6.65161e-20)
(1.75491 -10.384 0)
(4.24762 -20.3266 0)
(5.74851 -26.1613 -6.02645e-20)
(6.16048 -27.9661 5.91002e-20)
(6.21216 -28.1199 0)
(6.21148 -28.0129 -4.92218e-20)
(6.13593 -27.7353 1.43293e-19)
(6.0899 -27.5386 -1.42338e-19)
(6.03136 -27.3149 1.72539e-19)
(5.96328 -27.0942 -2.10399e-19)
(5.92233 -26.9064 0)
(5.8552 -26.7327 -1.46224e-19)
(5.81591 -26.5412 -1.32956e-19)
(5.73766 -26.407 2.40106e-19)
(5.73158 -26.3103 -2.48283e-19)
(5.6724 -26.2927 2.11501e-19)
(5.67647 -26.2218 0)
(5.56297 -26.1202 -2.31522e-19)
(5.49396 -25.7717 3.94942e-19)
(0.317613 -3.70228 3.29791e-19)
(2.61285 -12.7483 0)
(5.21474 -22.5745 1.24334e-19)
(6.48478 -27.1892 1.76905e-19)
(6.74658 -28.1449 -3.44725e-19)
(6.78316 -28.1159 1.02561e-19)
(6.71802 -27.8745 4.99237e-20)
(6.63999 -27.5703 5.13528e-19)
(6.58233 -27.3658 -7.16563e-19)
(6.51329 -27.1572 -6.83271e-20)
(6.46052 -26.9738 3.65979e-19)
(6.38365 -26.7637 7.3206e-20)
(6.3114 -26.5676 -3.46956e-19)
(6.25462 -26.4092 3.38661e-19)
(6.18516 -26.2872 9.39336e-20)
(6.16462 -26.2026 -5.78418e-20)
(6.06367 -26.1501 8.33985e-20)
(6.04532 -26.0054 0)
(5.85974 -25.8263 -2.24874e-20)
(5.76103 -25.4175 0)
(0.651339 -4.41599 0)
(3.54884 -14.5326 5.06499e-19)
(6.26654 -23.8497 -6.25291e-19)
(7.32696 -27.5657 5.77629e-19)
(7.47004 -28.1015 -4.38414e-19)
(7.43821 -27.9924 -1.02181e-19)
(7.31272 -27.6651 0)
(7.23696 -27.4343 2.63526e-19)
(7.14479 -27.2178 -3.50525e-19)
(7.06769 -27.0105 3.97611e-19)
(6.96524 -26.7743 -3.09943e-19)
(6.8789 -26.5581 -7.32077e-20)
(6.79749 -26.3929 3.31678e-19)
(6.73353 -26.224 -5.70936e-19)
(6.64327 -26.0993 3.57476e-19)
(6.59529 -25.9664 -1.17409e-19)
(6.48529 -25.9058 -2.60754e-19)
(6.43586 -25.7284 5.90422e-19)
(6.19719 -25.4728 -3.33803e-19)
(6.08627 -25.0667 -3.82755e-19)
(1.11096 -5.38704 5.05689e-19)
(4.48462 -16.3146 4.94069e-19)
(7.32012 -25.2086 -4.89792e-19)
(8.09358 -27.8832 -1.11602e-19)
(8.10832 -28.0142 1.06535e-19)
(8.01354 -27.7717 3.81372e-19)
(7.85557 -27.4432 -3.81108e-19)
(7.74753 -27.177 0)
(7.63589 -26.9757 3.18115e-19)
(7.51133 -26.7424 -3.12786e-19)
(7.40863 -26.5465 -2.79512e-19)
(7.30537 -26.364 2.74987e-19)
(7.20614 -26.1852 0)
(7.11124 -26.0193 0)
(7.01236 -25.8783 4.90938e-19)
(6.94645 -25.7794 -4.80842e-19)
(6.80481 -25.6669 -3.8169e-19)
(6.68831 -25.39 3.75909e-19)
(6.39095 -25.0529 -3.36397e-19)
(6.27609 -24.6739 4.10247e-19)
(1.51598 -6.16317 -3.70794e-19)
(5.50731 -17.473 1.31432e-19)
(8.27395 -25.7053 2.20038e-20)
(8.85762 -27.703 5.54328e-19)
(8.78445 -27.715 0)
(8.64447 -27.4304 0)
(8.46648 -27.1424 6.8805e-19)
(8.32958 -26.9043 -3.45457e-20)
(8.18352 -26.6764 -6.3072e-19)
(8.05299 -26.4802 5.58967e-19)
(7.918 -26.2739 -5.49756e-19)
(7.77895 -26.0682 0)
(7.65733 -25.9037 4.56105e-19)
(7.54705 -25.7485 -4.48948e-19)
(7.42225 -25.6157 0)
(7.30206 -25.4379 0)
(7.10723 -25.2628 0)
(6.9355 -24.9434 0)
(6.63698 -24.6315 0)
(6.53229 -24.3043 -3.85187e-20)
(2.0109 -7.00435 3.50576e-19)
(6.52983 -18.6342 -5.92811e-19)
(9.24038 -26.1643 0)
(9.62722 -27.4983 0)
(9.46882 -27.3822 8.33608e-19)
(9.25535 -27.0497 4.50285e-20)
(9.03586 -26.7469 -7.62516e-19)
(8.85191 -26.5112 0)
(8.67668 -26.3201 6.86162e-20)
(8.49406 -26.1087 -6.36374e-20)
(8.31964 -25.9096 0)
(8.16213 -25.7467 5.48083e-20)
(8.01848 -25.6022 -4.67812e-19)
(7.86602 -25.4387 8.45702e-19)
(7.70486 -25.2619 -2.09728e-20)
(7.55121 -25.0823 -3.55554e-19)
(7.33361 -24.8652 -3.78132e-20)
(7.13598 -24.5299 3.50507e-20)
(6.82968 -24.233 0)
(6.725 -23.9035 3.03386e-20)
(2.5075 -7.63756 2.26855e-19)
(7.52921 -19.3353 1.88604e-19)
(10.0933 -26.1556 -6.6722e-19)
(10.3215 -27.0831 1.88077e-19)
(10.0654 -26.8679 7.98978e-20)
(9.83193 -26.5514 7.20558e-19)
(9.5881 -26.294 -1.00595e-18)
(9.37876 -26.0631 7.22698e-19)
(9.16395 -25.8526 -5.78919e-19)
(8.95902 -25.6602 6.80724e-19)
(8.76965 -25.4918 1.06396e-19)
(8.57386 -25.3257 4.47631e-19)
(8.39006 -25.1769 -2.56299e-19)
(8.21388 -25.0314 -4.77141e-19)
(8.02807 -24.881 4.18043e-19)
(7.83171 -24.6676 0)
(7.57375 -24.4178 1.03435e-19)
(7.3568 -24.0678 2.53571e-20)
(7.05767 -23.8018 -5.588e-20)
(6.9923 -23.525 2.11817e-20)
(3.03302 -8.15787 -4.20583e-19)
(8.50576 -19.8239 4.31419e-19)
(10.9306 -25.9182 -1.51669e-20)
(11.029 -26.4888 -3.62205e-19)
(10.7138 -26.29 -3.315e-19)
(10.4475 -26.0081 -1.59895e-19)
(10.135 -25.7343 -1.41225e-20)
(9.87671 -25.5231 -1.35618e-19)
(9.63001 -25.3441 0)
(9.38452 -25.1695 -1.15299e-19)
(9.14252 -24.9828 -1.06384e-19)
(8.91556 -24.8359 -1.242e-20)
(8.71609 -24.7238 3.16091e-19)
(8.50298 -24.5831 -1.67496e-19)
(8.28505 -24.4034 -3.54162e-19)
(8.05752 -24.1841 2.72782e-19)
(7.81534 -23.9475 1.67844e-19)
(7.60232 -23.6613 -2.90439e-19)
(7.33983 -23.4456 5.58731e-20)
(7.2389 -23.1448 3.12948e-19)
(3.57132 -8.56312 -9.90131e-19)
(9.45516 -20.0554 9.95551e-19)
(11.7111 -25.5494 -1.06582e-18)
(11.6761 -25.8668 8.65034e-19)
(11.2785 -25.5965 7.41483e-19)
(10.9613 -25.3087 -5.73256e-19)
(10.6336 -25.0736 -7.35188e-19)
(10.3434 -24.8782 3.42897e-20)
(10.0658 -24.6998 4.34474e-19)
(9.78163 -24.5263 -2.79531e-19)
(9.52789 -24.3884 6.96604e-19)
(9.27504 -24.2646 -4.15447e-19)
(9.02973 -24.1478 -7.85405e-20)
(8.80076 -24.0387 1.81307e-19)
(8.57351 -23.9152 -4.79427e-19)
(8.3515 -23.7359 2.26633e-19)
(8.08983 -23.5063 0)
(7.86804 -23.2161 -3.44097e-19)
(7.58115 -22.9914 3.37904e-19)
(7.477 -22.7003 -2.53808e-19)
(4.11353 -8.83677 1.8106e-19)
(10.3163 -20.0435 2.04472e-19)
(12.363 -24.8404 8.55652e-19)
(12.2523 -25.0258 7.09603e-19)
(11.8164 -24.8298 -4.35413e-19)
(11.4926 -24.6017 5.77343e-19)
(11.1148 -24.3756 -3.39494e-19)
(10.7827 -24.1955 3.79626e-19)
(10.4774 -24.0391 -7.15939e-19)
(10.1742 -23.8932 2.49037e-19)
(9.87757 -23.7311 0)
(9.59338 -23.6019 0)
(9.34751 -23.5294 0)
(9.10308 -23.45 -4.05194e-19)
(8.86629 -23.3484 3.98913e-19)
(8.61898 -23.1836 0)
(8.37565 -22.9979 0)
(8.14238 -22.7713 -2.76009e-20)
(7.86047 -22.5831 0)
(7.71173 -22.2733 -2.35155e-19)
(4.63085 -9.00984 -3.32677e-19)
(11.1251 -19.8194 -8.10551e-19)
(13.0366 -24.16 -5.50379e-19)
(12.8323 -24.1744 -9.01909e-20)
(12.344 -23.9592 6.95176e-19)
(11.9398 -23.7335 -1.51382e-19)
(11.5421 -23.5292 -3.57441e-20)
(11.1735 -23.3884 -4.17551e-19)
(10.8447 -23.2584 0)
(10.4997 -23.1229 -1.89884e-19)
(10.1911 -23.0086 2.91808e-19)
(9.8935 -22.9152 0)
(9.60474 -22.8333 3.38122e-19)
(9.34361 -22.784 -3.32831e-19)
(9.09968 -22.7435 2.56861e-19)
(8.86246 -22.6656 -4.51567e-19)
(8.58225 -22.4971 2.18275e-19)
(8.29694 -22.2568 2.75977e-20)
(7.97018 -22.0499 -1.23655e-20)
(7.79475 -21.7617 1.14837e-19)
(5.12801 -9.0865 -3.98633e-19)
(11.8721 -19.4685 3.86424e-20)
(13.518 -23.2104 5.11311e-20)
(13.2492 -23.2003 8.67275e-19)
(12.7297 -23.027 6.26989e-20)
(12.3139 -22.8611 -4.27289e-19)
(11.9021 -22.6935 -2.76898e-19)
(11.5043 -22.5642 1.03617e-19)
(11.1553 -22.4579 2.83924e-19)
(10.8095 -22.3572 -2.7674e-19)
(10.4725 -22.2435 1.28429e-19)
(10.1465 -22.1341 -2.90506e-19)
(9.85642 -22.0886 2.37119e-19)
(9.58631 -22.0676 -1.83078e-19)
(9.32079 -22.0593 1.67121e-19)
(9.04304 -21.9875 9.4327e-20)
(8.75353 -21.8797 -1.15552e-19)
(8.45815 -21.7052 6.1247e-20)
(8.14037 -21.5498 -5.04458e-20)
(7.9694 -21.2664 -2.19143e-20)
(5.60046 -9.05827 -4.58585e-19)
(12.5002 -18.932 -5.81307e-20)
(13.9734 -22.214 4.2155e-19)
(13.664 -22.1355 -3.21585e-19)
(13.1411 -22.0077 3.15723e-19)
(12.6641 -21.8769 7.32666e-20)
(12.2136 -21.7272 0)
(11.7836 -21.6486 -3.50798e-20)
(11.4098 -21.5863 9.02184e-20)
(11.023 -21.513 -3.16573e-19)
(10.6677 -21.4415 2.17837e-19)
(10.3296 -21.3825 3.78058e-20)
(9.98824 -21.3148 2.20081e-20)
(9.67125 -21.2839 0)
(9.38349 -21.3069 1.48041e-20)
(9.10336 -21.3243 5.46604e-21)
(8.79396 -21.2485 -2.38955e-20)
(8.46685 -21.115 -2.86183e-20)
(8.15263 -20.9961 3.85539e-20)
(7.98196 -20.7553 -1.8037e-20)
(6.03985 -8.93178 3.60984e-19)
(13.0761 -18.3509 -5.54153e-19)
(14.367 -21.1419 3.23206e-19)
(13.9235 -21.0954 2.29332e-19)
(13.3945 -20.9406 -3.79805e-20)
(12.8742 -20.8498 -1.53472e-19)
(12.4311 -20.7432 2.22394e-20)
(11.9741 -20.6785 3.50785e-20)
(11.5814 -20.641 0)
(11.1999 -20.615 0)
(10.8253 -20.5794 -3.75081e-20)
(10.4574 -20.5095 3.37316e-20)
(10.1086 -20.4779 -9.18459e-22)
(9.7852 -20.4599 0)
(9.46318 -20.4807 1.52822e-20)
(9.16129 -20.5004 1.27802e-19)
(8.86351 -20.5046 -1.28552e-19)
(8.56428 -20.4445 1.03428e-20)
(8.29075 -20.4241 1.86391e-19)
(8.14509 -20.2058 -1.18361e-19)
(6.44429 -8.70114 -2.58324e-19)
(13.5101 -17.6145 2.8231e-19)
(14.5895 -19.927 0)
(14.0958 -19.9028 0)
(13.5935 -19.8473 1.62332e-20)
(13.0591 -19.7962 -9.21204e-20)
(12.5683 -19.7087 6.6297e-21)
(12.0949 -19.6781 3.20429e-20)
(11.6814 -19.6846 3.15408e-20)
(11.2653 -19.6768 -1.02606e-19)
(10.8757 -19.6814 7.04166e-20)
(10.5123 -19.6855 -3.05657e-20)
(10.1281 -19.6395 -1.92366e-19)
(9.75962 -19.5934 -5.65482e-20)
(9.43405 -19.6136 1.36297e-19)
(9.14474 -19.6856 -1.96215e-20)
(8.86947 -19.7393 2.64389e-19)
(8.55718 -19.7456 -2.38211e-19)
(8.313 -19.7808 1.35172e-20)
(8.17735 -19.6462 -2.62618e-19)
(6.82374 -8.4164 0)
(13.863 -16.783 6.02877e-20)
(14.853 -18.7814 -1.06534e-19)
(14.2576 -18.7693 0)
(13.7283 -18.677 -1.62321e-20)
(13.16 -18.6656 -2.68466e-20)
(12.6754 -18.6156 2.56003e-20)
(12.1806 -18.5985 0)
(11.7461 -18.6172 -1.87641e-19)
(11.3421 -18.6543 1.84505e-19)
(10.9427 -18.698 -3.87328e-20)
(10.565 -18.7147 2.40523e-20)
(10.1988 -18.7434 2.73316e-20)
(9.85587 -18.7354 3.01826e-20)
(9.5011 -18.7342 3.66609e-19)
(9.19116 -18.766 -6.76696e-19)
(8.9129 -18.8504 7.01166e-19)
(8.61485 -18.913 -7.14284e-19)
(8.39929 -19.0274 3.19818e-19)
(8.26699 -19.0003 -4.19428e-20)
(7.17888 -8.08475 0)
(14.0896 -15.9203 -6.13676e-21)
(14.8418 -17.4659 1.38596e-20)
(14.2016 -17.5417 -4.00656e-20)
(13.7058 -17.5387 -2.9632e-20)
(13.1412 -17.5658 -2.64823e-20)
(12.6331 -17.5537 1.1607e-19)
(12.1308 -17.5545 0)
(11.6961 -17.6094 0)
(11.2684 -17.6435 0)
(10.8668 -17.7075 3.8732e-20)
(10.514 -17.7924 0)
(10.1434 -17.8428 4.9735e-19)
(9.78069 -17.8525 -4.28747e-19)
(9.44122 -17.8693 4.61598e-19)
(9.12872 -17.9106 -9.2581e-19)
(8.8499 -18.0122 4.6415e-19)
(8.52712 -18.0662 5.47963e-19)
(8.2649 -18.1728 -9.61847e-19)
(8.1495 -18.2306 4.96877e-19)
(7.43887 -7.6746 0)
(14.2203 -14.9933 0)
(14.8597 -16.2642 -1.65194e-20)
(14.2004 -16.3452 -2.48266e-20)
(13.6789 -16.3628 0)
(13.1143 -16.4151 -2.07566e-19)
(12.6038 -16.4416 2.0392e-19)
(12.1101 -16.4693 0)
(11.6508 -16.5334 -5.05733e-19)
(11.2469 -16.6065 4.97281e-19)
(10.8324 -16.6864 0)
(10.458 -16.7625 5.61534e-19)
(10.1046 -16.8777 -3.96532e-20)
(9.77705 -16.9715 -5.65712e-19)
(9.40663 -17.0033 0)
(9.04249 -16.9787 0)
(8.73265 -17.0668 0)
(8.42369 -17.128 5.49335e-19)
(8.10955 -17.1392 -6.08214e-19)
(7.90931 -17.2271 0)
(4.10977 -25.428 0)
(3.59735 -24.0621 0)
(3.20135 -24.0238 -1.16283e-21)
(3.03186 -23.5225 -7.26746e-22)
(2.82776 -23.4333 0)
(2.66177 -23.1252 1.59866e-22)
(2.53987 -23.0847 -2.27037e-22)
(2.36648 -22.834 0)
(2.26219 -22.8199 -9.01597e-22)
(2.10198 -22.6614 0)
(1.93975 -22.7243 1.24244e-21)
(1.75493 -22.7902 7.21545e-22)
(1.73449 -23.0185 -7.24286e-22)
(1.52711 -22.9415 -1.38363e-21)
(1.49351 -23.2899 0)
(1.36018 -23.0944 4.50367e-22)
(1.25464 -23.393 -1.95457e-21)
(1.13759 -21.6935 0)
(0.677643 -16.9956 0)
(0.174038 -8.19584 -1.92871e-21)
(4.37423 -25.1795 1.16701e-20)
(3.78545 -23.9109 0)
(3.39624 -23.9452 4.791e-21)
(3.15343 -23.457 -2.91689e-21)
(2.9043 -23.3897 0)
(2.71983 -23.0833 8.42174e-22)
(2.55544 -23.0463 -5.17925e-22)
(2.37745 -22.7894 0)
(2.26017 -22.7934 -1.07668e-21)
(2.09385 -22.6228 1.98844e-21)
(1.91375 -22.6872 -3.86273e-21)
(1.75083 -22.7642 5.51047e-21)
(1.72499 -22.9904 -4.43567e-21)
(1.51861 -22.9069 1.30198e-21)
(1.48966 -23.2719 1.51232e-21)
(1.33899 -23.0669 -1.78498e-21)
(1.2565 -23.3656 3.1048e-21)
(1.15303 -21.6199 4.67227e-21)
(0.683103 -16.8482 2.3472e-21)
(0.167195 -8.06533 2.40492e-21)
(4.59446 -24.8858 -6.29879e-21)
(4.01445 -23.7636 -9.33624e-21)
(3.55141 -23.8614 -3.93409e-21)
(3.25105 -23.3714 0)
(2.97915 -23.3252 0)
(2.75265 -23.0159 -1.40328e-21)
(2.56497 -22.9938 -1.08931e-21)
(2.3902 -22.7464 -8.80822e-22)
(2.27996 -22.7468 -7.89387e-22)
(2.12604 -22.5637 3.99813e-21)
(1.9342 -22.6223 0)
(1.74879 -22.7325 0)
(1.71961 -22.9484 0)
(1.51229 -22.8724 5.47403e-21)
(1.48789 -23.2413 0)
(1.35365 -23.0281 6.97577e-21)
(1.26027 -23.3417 -6.167e-21)
(1.15983 -21.5478 -2.8002e-21)
(0.670318 -16.7366 -4.6981e-21)
(0.171079 -7.97079 -7.59386e-21)
(4.85194 -24.6185 1.46599e-20)
(4.213 -23.6007 -2.73829e-20)
(3.71569 -23.7493 1.49443e-21)
(3.35436 -23.2788 6.04422e-21)
(3.04666 -23.2636 0)
(2.80146 -22.9577 -2.60463e-21)
(2.57657 -22.95 9.33102e-21)
(2.39697 -22.7031 -7.89778e-21)
(2.27361 -22.7179 6.79012e-21)
(2.1155 -22.5208 -4.65513e-21)
(1.90618 -22.5777 -2.8305e-22)
(1.74784 -22.7045 5.72485e-21)
(1.71448 -22.922 -5.74997e-21)
(1.50711 -22.8387 -2.68009e-21)
(1.48828 -23.2228 -2.91282e-21)
(1.34129 -23.0023 -6.9706e-21)
(1.26476 -23.3197 7.71451e-21)
(1.16121 -21.481 -3.66918e-21)
(0.683477 -16.5992 1.85299e-21)
(0.167446 -7.84745 7.58174e-21)
(5.06033 -24.3287 3.84486e-20)
(4.40651 -23.431 6.08796e-21)
(3.87445 -23.6419 -5.76131e-21)
(3.44337 -23.1766 7.23055e-21)
(3.10022 -23.185 0)
(2.83541 -22.8798 9.21519e-22)
(2.5823 -22.8919 -1.99052e-21)
(2.40973 -22.6622 0)
(2.29329 -22.6751 4.4863e-23)
(2.14666 -22.4645 0)
(1.92795 -22.509 9.95784e-21)
(1.75186 -22.6698 0)
(1.71316 -22.8738 0)
(1.5048 -22.8055 1.10142e-20)
(1.49079 -23.1947 -5.69788e-21)
(1.36446 -22.9666 6.9069e-21)
(1.26882 -23.2969 0)
(1.13811 -21.4203 -1.82844e-21)
(0.677884 -16.4992 1.83491e-21)
(0.17356 -7.75762 0)
(5.25207 -24.0162 1.3294e-20)
(4.58307 -23.2591 -1.01277e-20)
(4.00862 -23.4963 1.17408e-20)
(3.52036 -23.0584 -1.12505e-20)
(3.15825 -23.1074 -1.28556e-22)
(2.87356 -22.81 -9.24313e-22)
(2.59819 -22.8381 4.44039e-21)
(2.41676 -22.6228 6.05691e-21)
(2.28633 -22.6454 -3.5194e-21)
(2.12903 -22.4187 -9.27172e-21)
(1.89939 -22.4586 4.39294e-21)
(1.76297 -22.6415 0)
(1.70961 -22.8476 0)
(1.50481 -22.7731 -1.15262e-22)
(1.49358 -23.1761 5.5933e-21)
(1.35987 -22.9399 -6.88484e-21)
(1.27098 -23.2691 0)
(1.09451 -21.361 1.44607e-20)
(0.682289 -16.3779 1.35585e-20)
(0.173339 -7.63856 9.18916e-22)
(5.46104 -23.7381 -3.55832e-20)
(4.76616 -23.0773 3.24747e-20)
(4.16163 -23.3674 -5.5985e-21)
(3.60803 -22.9344 0)
(3.21661 -23.0224 1.29094e-22)
(2.91055 -22.7237 -6.94467e-21)
(2.60846 -22.7751 2.51197e-21)
(2.43309 -22.5777 -6.07154e-21)
(2.29935 -22.6041 0)
(2.15027 -22.3654 0)
(1.92388 -22.3956 -1.00351e-20)
(1.78871 -22.6072 1.06013e-20)
(1.71217 -22.7931 0)
(1.50798 -22.7411 -1.63777e-20)
(1.49695 -23.1511 5.57521e-21)
(1.38208 -22.9076 6.90212e-21)
(1.27028 -23.2343 -5.95066e-21)
(1.045 -21.3116 -1.80233e-20)
(0.674907 -16.3051 -9.01507e-21)
(0.188015 -7.55407 -1.81897e-21)
(5.64284 -23.4143 0)
(4.93099 -22.8811 -1.28236e-20)
(4.27506 -23.1939 1.28587e-20)
(3.67954 -22.7933 0)
(3.27976 -22.9318 0)
(2.94876 -22.6429 7.61902e-21)
(2.63875 -22.7131 -7.63896e-21)
(2.43819 -22.5413 0)
(2.28899 -22.576 -8.17281e-21)
(2.12415 -22.3203 1.71094e-20)
(1.91092 -22.3453 -8.8165e-21)
(1.8263 -22.5771 -1.14537e-20)
(1.7109 -22.761 1.14768e-20)
(1.51318 -22.7091 0)
(1.4996 -23.1308 0)
(1.37208 -22.8794 6.62505e-21)
(1.26686 -23.1931 -8.92028e-21)
(1.00544 -21.2598 -2.96783e-23)
(0.664514 -16.2083 5.36401e-21)
(0.17297 -7.44032 -1.80073e-21)
(5.88496 -23.1361 1.68875e-20)
(5.09229 -22.6766 -1.69234e-20)
(4.39692 -23.0419 -7.92266e-21)
(3.75253 -22.6554 5.07438e-21)
(3.35764 -22.8365 4.36067e-21)
(2.985 -22.5516 3.81544e-21)
(2.66652 -22.6424 -8.34563e-21)
(2.47147 -22.4859 0)
(2.29911 -22.5225 0)
(2.13545 -22.2753 -8.66003e-21)
(1.93136 -22.2987 0)
(1.87318 -22.5396 0)
(1.71652 -22.6968 0)
(1.5218 -22.6767 0)
(1.50257 -23.1051 0)
(1.38096 -22.8478 0)
(1.26177 -23.1497 5.97579e-21)
(0.994011 -21.2202 -7.01029e-21)
(0.655666 -16.1591 1.78135e-21)
(0.204992 -7.36677 -1.12326e-21)
(6.07967 -22.7864 -2.09474e-20)
(5.27583 -22.444 -1.93871e-20)
(4.52863 -22.8423 -2.79365e-22)
(3.83886 -22.5066 4.004e-21)
(3.45024 -22.7362 2.28893e-21)
(3.02603 -22.4596 -9.30517e-21)
(2.70448 -22.5772 -5.62173e-21)
(2.4805 -22.446 0)
(2.28547 -22.4945 9.04124e-21)
(2.11525 -22.2349 -1.64159e-20)
(1.93501 -22.2589 -8.81604e-21)
(1.9104 -22.5073 -1.10066e-20)
(1.71564 -22.6547 0)
(1.53421 -22.644 -9.44691e-21)
(1.50572 -23.0802 -1.23515e-20)