/*--------------------------------*- C++ -*----------------------------------*\
  =========                 |
  \\      /  F ield         | OpenFOAM: The Open Source CFD Toolbox
   \\    /   O peration     | Website:  https://openfoam.org
    \\  /    A nd           | Version:  9
     \\/     M anipulation  |
\*---------------------------------------------------------------------------*/
FoamFile
{
    format      ascii;
    class       volScalarField;
    location    "10.9";
    object      p;
}
// * * * * * * * * * * * * * * * * * * * * * * * * * * * * * * * * * * * * * //

dimensions      [0 2 -2 0 0 0 0];

internalField   nonuniform List<scalar> 
46400
(
-193.936
-183.883
-164.283
-147.324
-131.752
-117.431
-104.433
-92.3872
-81.386
-71.1594
-61.7043
-52.897
-44.6729
-36.9355
-29.5805
-22.5619
-15.9485
-8.99243
-2.11637
0.916266
-155.563
-144.687
-126.497
-111.155
-97.0427
-84.0532
-72.3135
-61.3727
-51.4038
-42.1427
-33.6488
-25.7265
-18.4039
-11.587
-5.23901
0.644514
6.09421
11.5336
16.5066
18.4682
-116.196
-106.134
-89.5977
-75.3682
-62.5863
-50.6852
-40.0509
-30.2179
-21.3069
-13.0775
-5.51665
1.42713
7.8466
13.7648
19.2653
24.3403
28.9364
33.543
37.2477
37.9587
-77.1522
-67.6795
-52.9303
-40.1384
-28.7611
-18.1607
-8.69078
0.0755477
7.99017
15.2418
21.8256
27.8899
33.4188
38.4864
43.1376
47.3686
51.1975
54.9835
58.1598
58.5044
-38.1315
-30.5438
-17.5558
-5.83528
4.36406
13.9146
22.3412
30.0766
37.0229
43.36
49.1149
54.3149
59.0606
63.3563
67.2777
70.8483
73.9924
77.1241
79.7341
79.6069
-1.96509
4.35138
16.3616
27.0899
36.3146
44.8357
52.3114
59.1015
65.1557
70.583
75.4528
79.845
83.7951
87.344
90.5541
93.4095
95.9707
98.5179
100.669
100.35
32.4303
38.6866
49.8587
59.5917
67.6931
75.1831
81.6496
87.4585
92.598
97.1799
101.27
104.881
108.111
110.973
113.502
115.735
117.621
119.526
120.965
120.246
66.1066
72.8853
82.6705
91.3305
98.3404
104.7
110.174
114.983
119.225
122.911
126.161
129.005
131.494
133.664
135.583
137.231
138.654
140.037
141.155
140.189
99.4326
106.966
114.733
121.997
127.782
132.974
137.437
141.269
144.604
147.46
149.951
152.066
153.889
155.404
156.678
157.727
158.538
159.37
160.067
158.888
132.028
139.776
145.774
151.537
156.209
160.169
163.592
166.443
168.91
170.933
172.637
174.027
175.176
176.1
176.854
177.401
177.762
178.133
178.373
177.063
163.244
169.911
174.617
178.872
182.467
185.444
187.961
189.953
191.595
192.872
193.878
194.587
195.07
195.337
195.435
195.383
195.158
194.958
194.631
192.993
192.425
197.293
201.106
204.174
206.787
208.769
210.442
211.645
212.581
213.17
213.551
213.705
213.699
213.511
213.186
212.706
212.095
211.491
210.78
208.947
218.148
222.07
225.009
227.213
229.042
230.322
231.281
231.809
232.066
231.99
231.713
231.212
230.574
229.789
228.904
227.917
226.822
225.752
224.607
222.586
240.918
243.979
246.182
247.627
248.748
249.321
249.684
249.645
249.445
248.956
248.311
247.439
246.434
245.273
244.009
242.638
241.172
239.725
238.21
235.933
261.991
264.361
266
266.776
267.306
267.262
266.991
266.312
265.46
264.34
263.11
261.702
260.207
258.592
256.914
255.151
253.327
251.504
249.644
247.21
279.03
280.799
281.958
282.355
282.498
282.119
281.511
280.574
279.444
278.078
276.553
274.866
273.068
271.16
269.179
267.129
265
262.894
260.773
258.08
295.858
296.982
297.608
297.401
296.93
295.977
294.779
293.292
291.64
289.815
287.875
285.825
283.696
281.494
279.251
276.967
274.643
272.338
270.075
267.343
308.6
309.102
309.332
308.814
308.107
306.98
305.622
303.998
302.174
300.17
298.033
295.766
293.414
290.984
288.495
285.963
283.39
280.838
278.345
275.425
320.919
320.759
320.388
319.353
318.028
316.418
314.587
312.572
310.407
308.126
305.741
303.274
300.751
298.173
295.574
292.942
290.295
287.669
285.151
282.198
328.031
328.11
327.613
326.745
325.46
323.903
322.013
319.932
317.625
315.2
312.635
310.002
307.28
304.525
301.722
298.913
296.071
293.266
290.568
287.497
-600.22
-599.979
-586.118
-566.38
-543.629
-522.008
-501.98
-483.138
-465.269
-448.363
-432.326
-417.081
-402.598
-388.77
-375.672
-363.092
-351.357
-340.059
-329.608
-319.59
-610.043
-609.742
-591.687
-569.44
-545.726
-523.104
-501.995
-482.323
-463.762
-446.249
-429.668
-413.949
-399.031
-384.864
-371.436
-358.585
-346.633
-335.134
-324.585
-314.405
-619.089
-615.465
-595.008
-570.116
-545.364
-521.991
-500.063
-479.597
-460.375
-442.278
-425.189
-409.044
-393.783
-379.297
-365.618
-352.579
-340.464
-328.802
-318.171
-307.814
-620.316
-614.771
-594.11
-567.687
-541.938
-517.909
-495.578
-474.715
-455.109
-436.711
-419.357
-402.961
-387.463
-372.814
-358.954
-345.782
-333.548
-321.781
-311.141
-300.667
-617.307
-612.227
-588.929
-561.983
-536.336
-511.859
-489.117
-467.863
-447.908
-429.162
-411.515
-394.89
-379.23
-364.42
-350.461
-337.236
-324.971
-313.155
-302.578
-292.029
-611.275
-606.309
-583.691
-554.738
-528.212
-503.328
-480.2
-458.706
-438.551
-419.716
-402.011
-385.36
-369.657
-354.873
-340.909
-327.72
-315.457
-303.71
-293.224
-282.638
-603.019
-597.322
-573.335
-544.105
-517.199
-492.108
-468.846
-447.252
-427.042
-408.115
-390.363
-373.684
-358.021
-343.247
-329.35
-316.253
-304.054
-292.409
-282.057
-271.513
-590.131
-583.697
-559.071
-529.81
-502.986
-478.038
-454.816
-433.339
-413.234
-394.491
-376.926
-360.427
-344.936
-330.383
-316.668
-303.768
-291.741
-280.294
-270.149
-259.629
-574.371
-567.018
-541.743
-512.71
-486.082
-461.371
-438.373
-417.099
-397.233
-378.647
-361.262
-344.957
-329.685
-315.313
-301.823
-289.148
-277.295
-266.073
-256.13
-245.775
-554.695
-546.561
-521.039
-492.411
-466.223
-442.06
-419.451
-398.583
-379.091
-360.944
-343.978
-328.061
-313.155
-299.172
-286.022
-273.689
-262.151
-251.242
-241.584
-231.318
-532.339
-523.583
-497.881
-469.808
-444.064
-420.377
-398.275
-377.845
-358.82
-341.031
-324.434
-308.899
-294.378
-280.747
-267.984
-256.014
-244.78
-234.243
-224.897
-214.92
-506.464
-497.188
-471.592
-444.328
-419.286
-396.405
-374.973
-355.193
-336.766
-319.624
-303.631
-288.638
-274.632
-261.502
-249.19
-237.669
-226.857
-216.718
-207.698
-197.879
-478.628
-469.035
-443.41
-417.191
-392.688
-370.453
-349.706
-330.521
-312.718
-296.079
-280.604
-266.152
-252.67
-240.049
-228.264
-217.225
-206.843
-197.201
-188.574
-179.122
-447.528
-437.798
-412.191
-387.349
-363.918
-342.584
-322.734
-304.376
-287.334
-271.493
-256.744
-242.927
-230.053
-217.991
-206.726
-196.202
-186.318
-177.145
-168.885
-159.67
-415.381
-405.486
-380.005
-356.15
-333.62
-313.117
-294.063
-276.452
-260.149
-244.924
-230.814
-217.661
-205.416
-193.982
-183.331
-173.366
-163.991
-155.373
-147.522
-138.674
-380.422
-370.388
-345.711
-323.05
-301.833
-282.386
-264.362
-247.663
-232.222
-217.861
-204.517
-192.028
-180.421
-169.554
-159.45
-150.021
-141.186
-133.078
-125.615
-117.055
-345.092
-335.049
-311.196
-289.381
-269.013
-250.477
-233.296
-217.419
-202.77
-189.108
-176.492
-164.742
-153.826
-143.657
-134.205
-125.367
-117.077
-109.558
-102.564
-94.4425
-307.868
-297.493
-274.701
-254.356
-235.335
-217.924
-201.86
-186.935
-173.205
-160.412
-148.564
-137.49
-127.216
-117.621
-108.739
-100.454
-92.7568
-85.8435
-79.385
-71.6305
-270.643
-260.569
-238.801
-219.245
-201.081
-184.556
-169.355
-155.281
-142.353
-130.311
-119.202
-108.849
-99.2318
-90.2782
-81.9351
-74.0839
-66.8245
-60.4051
-54.1116
-46.0078
-232.333
-221.682
-200.851
-183.087
-166.401
-151.119
-137.137
-124.084
-112.103
-100.891
-90.5024
-80.7362
-71.6011
-62.9881
-54.8538
-47.1013
-39.9167
-33.0372
-25.4021
-17.3363
-271.339
-218.176
-170.031
-139.652
-110.628
-90.7234
-72.9724
-59.1923
-47.8882
-37.9064
-30.5208
-23.1723
-18.2902
-12.8043
-9.50974
-5.51613
-3.10997
-1.02172
-0.03354
0.425871
-265.963
-213.78
-165.814
-136.397
-107.775
-88.3984
-71.0474
-57.5147
-46.4687
-36.6595
-29.4518
-22.2328
-17.4744
-12.0827
-8.92739
-4.97946
-2.83724
-0.627349
0.172201
0.685386
-259.124
-208.852
-161.543
-133.139
-104.988
-86.0424
-69.0741
-55.7945
-45.0296
-35.3866
-28.3583
-21.2749
-16.6445
-11.3619
-8.34285
-4.43883
-2.51738
-0.147024
0.427347
0.981791
-252.383
-203.627
-156.951
-129.47
-101.938
-83.4943
-67.0052
-53.9631
-43.4966
-34.0251
-27.1885
-20.2428
-15.7375
-10.568
-7.6832
-3.84524
-2.11829
0.439923
0.680856
1.28598
-244.355
-197.664
-152.258
-125.815
-98.9357
-80.9216
-64.8904
-52.0928
-41.9368
-32.6369
-25.9928
-19.1918
-14.8162
-9.77396
-7.01686
-3.24584
-1.67423
0.966584
1.02147
1.65389
-236.193
-191.476
-147.205
-121.753
-95.6751
-78.1567
-62.6728
-50.1145
-40.2877
-31.1636
-24.7217
-18.0681
-13.8173
-8.90228
-6.2784
-2.593
-1.16981
1.50596
1.36336
2.03405
-226.753
-184.575
-142.039
-117.699
-92.4527
-75.3713
-60.4121
-48.1003
-38.6057
-29.6642
-23.4232
-16.9237
-12.8046
-8.03121
-5.52972
-1.95178
-0.625767
2.03808
1.71135
2.42625
-217.114
-177.427
-136.491
-113.247
-88.9784
-72.3988
-58.0442
-45.9846
-36.8389
-28.0835
-22.0514
-15.7096
-11.7157
-7.0775
-4.71977
-1.26737
-0.0447352
2.56628
2.12843
2.88343
-206.232
-169.595
-130.827
-108.794
-85.5351
-69.4089
-55.6344
-43.8352
-35.0349
-26.4782
-20.6516
-14.4738
-10.6143
-6.1196
-3.89261
-0.400424
0.571143
3.10652
2.56751
3.36461
-195.02
-161.517
-124.763
-103.957
-81.8485
-66.2433
-53.1171
-41.593
-33.1501
-24.7958
-19.1814
-13.172
-9.4351
-5.08297
-2.9764
0.525399
1.27886
3.69155
3.08538
3.88838
-182.572
-152.824
-118.601
-99.1109
-78.186
-63.0629
-50.5582
-39.3191
-31.2265
-23.0905
-17.6835
-11.8488
-8.24001
-4.04428
-2.05132
1.41
1.98727
4.30376
3.66096
4.46213
-169.701
-143.867
-112.035
-93.8999
-74.2946
-59.7262
-47.897
-36.9639
-29.2269
-21.3135
-16.1199
-10.4643
-6.96702
-2.93992
-1.05257
2.31309
2.65681
4.94493
4.31108
5.08146
-155.601
-134.386
-105.396
-88.6625
-70.4071
-56.3695
-45.1897
-34.5767
-27.188
-19.5144
-14.5295
-9.05946
-5.66772
-1.83415
-0.0605258
3.1654
3.36258
5.60772
5.01114
5.74879
-141.011
-124.657
-98.4086
-83.1
-66.3127
-52.8791
-42.3856
-32.1151
-25.0746
-17.6461
-12.8768
-7.59819
-4.30279
-0.659356
1.09577
4.08267
4.0988
6.28036
5.73344
6.44055
-125.087
-114.448
-91.4398
-77.5597
-62.2469
-49.4044
-39.5627
-29.6438
-22.9384
-15.7657
-11.2065
-6.12461
-2.91691
0.542294
2.19519
5.01243
4.86305
6.97643
6.44696
7.14379
-108.373
-103.704
-84.0398
-71.6618
-57.9516
-45.8004
-36.6494
-27.1117
-20.738
-13.8287
-9.48625
-4.60835
-1.50564
1.81668
3.26296
5.98412
5.6664
7.65139
7.10279
7.86648
-91.1266
-92.6694
-76.5324
-65.5505
-53.4457
-42.0176
-33.5655
-24.4553
-18.4332
-11.8173
-7.70059
-3.03934
-0.0703478
3.12579
4.48191
7.0162
6.5063
8.33092
7.66913
8.5463
-73.6355
-82.1147
-69.5515
-59.8327
-49.1693
-38.4105
-30.5739
-21.8406
-16.1295
-9.77514
-5.88598
-1.4382
1.41484
4.49309
5.73254
8.0893
7.29981
9.19581
8.27574
9.30036
-50.1716
-69.7826
-63.131
-54.9699
-45.6557
-35.5929
-28.2265
-19.7656
-14.2182
-8.04014
-4.3212
-0.0523315
2.73146
5.72414
6.88193
9.07752
7.96595
9.7439
8.59617
9.84229
-25.7172
-52.4292
-52.0473
-46.0678
-39.266
-30.6128
-24.3323
-16.6107
-11.4917
-5.78859
-2.29887
1.69647
4.36957
7.17719
8.27203
10.1975
8.99096
9.75231
8.34797
10.6091
23.9254
36.0323
24.4189
21.6491
15.021
15.8425
12.9498
13.9039
13.2971
14.6289
15.3607
16.6836
17.3313
18.551
19.0541
20.2455
19.9771
21.0831
19.3059
24.1604
99.7819
90.5154
66.8105
59.8749
48.859
43.8
38.2862
35.3873
32.5317
30.9215
29.6206
29.2118
28.9113
28.9342
28.8143
28.9421
28.7767
28.6548
28.1841
29.0087
120.547
108.155
94.6181
85.3596
76.4805
70.433
64.5598
60.8422
57.1725
54.812
52.2847
50.5486
48.9701
47.8891
47.0978
46.271
46.1208
45.2324
45.7311
45.6984
132.69
123.404
111.067
102.977
94.0151
87.7025
81.3957
76.5173
71.948
68.3127
65.0844
62.4055
59.9722
57.8837
56.2386
54.8492
53.8046
52.7008
52.5153
52.2679
129.88
122.277
115.144
108.461
102.404
96.8362
91.8866
87.5479
83.6367
80.2946
77.2449
74.6646
72.3849
70.2668
68.4841
66.6696
65.3449
63.7583
62.8243
62.7501
133.693
128.057
121.373
116.274
110.656
106.076
101.241
97.2627
93.2178
89.8422
86.5304
83.692
80.9576
78.5925
76.3818
74.3001
72.6245
71.1691
70.2583
69.9036
129.862
126.179
122.514
118.39
114.403
110.582
106.944
103.576
100.314
97.4095
94.4913
91.9974
89.3851
87.1732
84.8355
82.7749
80.6632
78.8153
77.5631
77.0499
132.336
129.214
125.382
122.102
118.679
115.626
112.327
109.508
106.425
103.842
101.01
98.6454
96.0226
93.8414
91.3549
89.2681
86.888
84.8217
83.1338
82.4736
131.467
129.348
127.017
124.568
121.776
119.304
116.622
114.331
111.811
109.664
107.252
105.263
102.864
100.983
98.4999
96.5981
93.8898
91.8385
89.4316
88.6774
133.13
131.277
128.767
126.867
124.546
122.713
120.454
118.563
116.416
114.594
112.507
110.77
108.647
106.963
104.668
102.943
100.133
98.3989
95.4498
94.8072
133.972
132.596
130.965
129.435
127.668
126.09
124.426
122.948
121.326
119.95
118.356
117.1
115.467
114.286
112.469
111.321
108.842
108.023
103.294
103.597
135.071
133.939
132.48
131.347
129.938
128.817
127.473
126.394
125.144
124.155
122.988
122.147
121.016
120.332
119.095
118.651
116.917
117.061
115.208
117.094
136.614
135.781
134.704
133.856
132.847
132.038
131.136
130.431
129.67
129.109
128.555
128.119
127.869
127.549
127.76
127.506
128.385
128.199
129.993
132.034
137.743
137.069
136.189
135.553
134.754
134.203
133.509
133.099
132.535
132.384
132.01
132.17
132.092
132.651
133.032
133.969
135.238
136.484
139.74
139.972
139.197
138.691
138.06
137.614
137.093
136.763
136.379
136.233
136.032
136.114
136.096
136.532
136.742
137.585
138.097
139.566
140.49
142.818
144.604
147.292
140.13
139.716
139.216
138.881
138.49
138.274
138.022
137.976
137.882
138.067
138.123
138.635
138.852
139.847
140.339
141.947
142.593
145.051
145.694
155.899
141.169
140.823
140.447
140.191
139.923
139.815
139.679
139.744
139.802
140.072
140.353
140.879
141.406
142.301
143.03
144.234
145.236
147.188
148.307
151.317
141.795
141.511
141.251
141.066
140.861
140.762
140.711
140.819
140.878
141.215
141.414
141.947
142.265
143.027
143.547
144.693
145.314
146.719
147.489
149.565
142.313
142.022
141.747
141.62
141.531
141.485
141.485
141.556
141.69
141.884
142.161
142.558
142.979
143.594
144.126
144.903
145.458
146.4
146.969
147.674
142.48
142.253
142.033
141.85
141.737
141.73
141.739
141.826
141.953
142.19
142.453
142.831
143.21
143.722
144.181
144.798
145.241
145.844
146.012
148.332
251.712
248.283
244.197
239.446
233.856
227.743
220.599
212.899
204.512
194.291
184.735
173.394
162.263
149.621
136.779
122.817
108.642
93.3607
78.2219
62.7311
224.605
222.675
220.209
217.767
214.581
211.629
207.737
204.287
198.846
193.081
188.566
183.376
178.394
173.068
167.583
161.942
155.362
147.344
138.708
128.882
187.949
186.554
184.963
183.342
181.408
179.572
177.2
175.132
172.163
169.641
165.998
161.783
157.658
153.877
150.204
146.967
143.586
140.42
136.533
133.089
175.911
174.875
173.766
172.578
171.344
169.956
168.612
166.927
165.519
163.618
162.133
159.747
157.104
155.099
152.283
150.516
148.039
145.987
143.566
141.407
160.454
159.675
158.796
157.968
156.996
156.079
154.999
153.934
152.763
151.483
150.166
148.458
146.479
144.497
142.661
140.906
139.174
137.593
136.057
134.748
154.996
154.366
153.723
153.042
152.335
151.592
150.792
150.026
149.092
148.329
147.191
146.371
145.135
143.763
142.594
141.393
140.403
139.442
138.439
137.513
148.067
147.521
146.946
146.33
145.692
145.019
144.337
143.628
142.854
142.083
141.063
140.052
138.904
137.899
136.872
135.95
135.011
134.137
133.254
132.461
145.759
145.29
144.788
144.242
143.676
143.083
142.489
141.862
141.249
140.617
140.035
139.405
138.773
138.192
137.555
136.928
136.292
135.688
135.026
134.391
142.69
142.199
141.64
141.079
140.556
140.045
139.553
139.072
138.619
138.161
137.722
137.261
136.769
136.257
135.74
135.215
134.673
134.136
133.574
133.053
141.885
141.546
141.204
140.854
140.501
140.141
139.783
139.412
139.038
138.65
138.264
137.864
137.467
137.056
136.647
136.228
135.805
135.374
134.926
134.466
141.229
140.956
140.679
140.396
140.104
139.802
139.493
139.174
138.852
138.521
138.188
137.843
137.499
137.142
136.787
136.422
136.055
135.687
135.323
134.974
141.344
141.112
140.87
140.62
140.367
140.109
139.845
139.576
139.304
139.024
138.742
138.452
138.161
137.86
137.561
137.249
136.94
136.619
136.299
135.971
141.79
141.576
141.36
141.14
140.92
140.695
140.469
140.24
140.009
139.775
139.54
139.3
139.061
138.816
138.573
138.323
138.075
137.821
137.569
137.31
142.159
141.972
141.784
141.593
141.401
141.207
141.012
140.813
140.615
140.413
140.212
140.006
139.802
139.593
139.386
139.173
138.964
138.749
138.537
138.319
142.841
142.677
142.511
142.345
142.178
142.011
141.843
141.676
141.507
141.339
141.17
141.001
140.832
140.662
140.494
140.322
140.155
139.982
139.815
139.642
143.276
143.124
142.974
142.823
142.674
142.524
142.375
142.226
142.078
141.931
141.784
141.638
141.492
141.348
141.203
141.061
140.917
140.777
140.635
140.497
143.852
143.716
143.581
143.447
143.313
143.181
143.05
142.92
142.791
142.663
142.537
142.412
142.288
142.165
142.045
141.924
141.807
141.688
141.574
141.459
144.162
144.033
143.906
143.78
143.656
143.533
143.412
143.293
143.177
143.062
142.95
142.84
142.732
142.626
142.521
142.421
142.319
142.223
142.126
142.034
144.494
144.375
144.256
144.14
144.025
143.908
143.791
143.675
143.561
143.451
143.345
143.244
143.146
143.051
142.958
142.868
142.78
142.694
142.61
142.528
144.589
144.47
144.354
144.239
144.126
144.015
143.905
143.798
143.693
143.59
143.489
143.39
143.293
143.198
143.105
143.015
142.927
142.841
142.757
142.676
165.565
164.983
162.301
160.025
157.804
155.431
152.913
150.218
147.284
144.076
140.546
136.625
132.296
127.45
122.133
116.041
109.508
101.98
93.1181
87.3509
176.372
176.79
175.379
173.867
172.323
170.549
168.571
166.374
163.919
161.166
158.099
154.654
150.839
146.509
141.773
136.279
130.417
123.478
115.967
110.931
188.531
189.335
188.398
187.275
186.102
184.748
183.196
181.459
179.477
177.251
174.731
171.872
168.636
164.942
160.783
155.921
150.649
144.299
137.442
133.833
200.655
201.808
201.282
200.692
200.05
199.206
198.171
196.958
195.508
193.818
191.834
189.524
186.853
183.711
180.138
175.863
171.132
165.296
158.59
155.028
213.108
214.372
213.973
213.683
213.343
212.856
212.228
211.454
210.471
209.29
207.847
206.124
204.049
201.601
198.717
195.205
191.306
186.27
180.523
176.263
224.459
225.908
225.987
226.151
226.309
226.337
226.218
225.968
225.506
224.875
223.986
222.848
221.39
219.597
217.395
214.691
211.559
207.452
202.836
198.12
235.32
236.991
237.434
237.935
238.42
238.766
239.008
239.153
239.145
238.982
238.602
238.034
237.196
236.116
234.661
232.811
230.566
227.514
224.31
219.638
245.208
247.141
248.012
248.943
249.863
250.703
251.44
252.1
252.606
252.975
253.14
253.16
252.936
252.488
251.662
250.559
248.95
246.939
244.478
240.778
254.812
256.912
258.09
259.308
260.534
261.672
262.723
263.687
264.525
265.282
265.898
266.38
266.624
266.662
266.379
265.808
264.837
263.513
261.668
259.049
262.985
265.34
266.906
268.517
270.144
271.708
273.207
274.644
275.983
277.239
278.334
279.298
280.012
280.554
280.745
280.743
280.291
279.6
278.291
276.224
271.423
273.976
275.685
277.489
279.308
281.065
282.754
284.374
285.911
287.364
288.682
289.888
290.912
291.763
292.316
292.707
292.706
292.497
291.626
290.164
277.627
280.167
282.165
284.25
286.36
288.441
290.483
292.5
294.45
296.363
298.17
299.884
301.417
302.799
303.89
304.838
305.396
305.752
305.352
304.44
283.668
286.505
288.773
291.122
293.488
295.809
298.086
300.317
302.473
304.543
306.476
308.274
309.889
311.384
312.667
313.808
314.514
315.052
314.873
314.548
288.06
290.936
293.333
295.827
298.339
300.834
303.3
305.76
308.17
310.539
312.819
315.025
317.108
319.088
320.866
322.416
323.578
324.449
324.812
324.906
291.898
294.948
297.517
300.194
302.9
305.577
308.241
310.875
313.458
315.962
318.379
320.674
322.838
324.785
326.502
327.925
329.043
329.901
330.328
330.308
294.095
297.132
299.733
302.48
305.265
308.038
310.811
313.564
316.288
318.958
321.564
324.091
326.511
328.785
330.885
332.774
334.399
335.687
336.518
336.545
295.858
298.96
301.604
304.413
307.27
310.116
312.951
315.771
318.542
321.262
323.902
326.461
328.882
331.173
333.278
335.188
336.842
338.195
339.006
339.295
295.231
298.348
301.079
303.948
306.846
309.73
312.603
315.462
318.285
321.07
323.796
326.442
328.987
331.407
333.641
335.73
337.463
339.042
339.869
340.74
294.193
297.346
300.118
303.022
305.946
308.861
311.756
314.64
317.478
320.271
322.979
325.596
328.062
330.39
332.511
334.428
336.039
337.387
338.343
338.851
291.47
294.523
297.228
300.046
302.908
305.74
308.576
311.383
314.163
316.886
319.545
322.099
324.542
326.808
328.894
330.703
332.262
333.395
334.245
334.37
-24.7728
-27.1702
-29.629
-32.0035
-34.5452
-37.1686
-39.7779
-42.4415
-45.118
-48.0825
-50.9785
-53.7362
-56.5935
-59.6261
-62.4266
-64.9437
-65.5598
-66.2995
-66.1422
-66.3612
-19.6236
-22.1145
-24.6876
-27.2584
-29.9106
-32.6347
-35.4051
-38.3206
-41.2311
-44.2196
-47.3744
-50.5529
-53.5452
-56.8179
-60.142
-62.5515
-64.1422
-65.6208
-65.6869
-66.0928
-14.2361
-16.909
-19.6103
-22.3497
-25.139
-28.1058
-31.024
-34.1064
-37.219
-40.4645
-43.7415
-47.1373
-50.7169
-54.0395
-57.3209
-60.3141
-63.7638
-64.6869
-65.9291
-65.4158
-9.14817
-11.8806
-14.6023
-17.47
-20.352
-23.4499
-26.5596
-29.8412
-33.1755
-36.6403
-40.2155
-43.8979
-47.6517
-51.6396
-55.2688
-59.1753
-62.5372
-64.0134
-66.5971
-66.5922
-3.50774
-6.40429
-9.2091
-12.2283
-15.2871
-18.5648
-21.8714
-25.3779
-28.9618
-32.7087
-36.5731
-40.5377
-44.7089
-48.8871
-53.3486
-57.6648
-61.6648
-65.4446
-66.4852
-66.8221
2.39496
-0.618341
-3.53195
-6.69962
-9.88889
-13.3647
-16.8792
-20.617
-24.4953
-28.5505
-32.7892
-37.2051
-41.8415
-46.6307
-51.6884
-56.6334
-61.6446
-66.1168
-67.3987
-68.4251
8.83821
5.66861
2.67588
-0.695116
-4.0464
-7.70999
-11.468
-15.4492
-19.6235
-24.0234
-28.6677
-33.5521
-38.7172
-44.223
-49.9848
-56.1966
-62.674
-68.3741
-71.7465
-72.7535
15.6479
12.3787
9.31153
5.79258
2.32373
-1.48563
-5.43139
-9.62095
-14.0581
-18.7557
-23.7565
-29.0574
-34.7516
-40.792
-47.2993
-54.3032
-61.8647
-68.7931
-75.1969
-77.0561
22.991
19.6181
16.5588
12.9546
9.3734
5.44058
1.3173
-3.06009
-7.71905
-12.6959
-17.9995
-23.6645
-29.7541
-36.2477
-43.3512
-50.8946
-58.9702
-67.1076
-75.2385
-76.837
30.8978
27.4656
24.4587
20.785
17.1587
13.175
8.93946
4.43621
-0.391545
-5.56192
-11.1226
-17.0903
-23.548
-30.5038
-38.0895
-46.2926
-55.1849
-64.6772
-72.8315
-73.3236
39.7257
36.242
33.2193
29.5493
25.8356
21.8345
17.5285
12.9367
8.00002
2.66845
-3.05879
-9.23775
-15.9652
-23.2173
-31.1997
-39.8656
-49.3854
-59.6873
-68.8444
-70.9978
49.1253
45.6199
42.6757
39.1128
35.4214
31.4524
27.1612
22.5546
17.5906
12.2176
6.41853
0.130158
-6.71448
-14.1256
-22.327
-31.1857
-41.015
-51.6298
-61.7174
-64.3235
59.2709
55.7982
52.9596
49.5111
45.8876
42.0082
37.7705
33.2193
28.2866
22.9218
17.1267
10.8211
3.93515
-3.54038
-11.8301
-20.7015
-30.6376
-41.445
-52.0404
-55.3287
70.4837
67.0487
64.2981
61.0261
57.4816
53.7126
49.5897
45.1166
40.2813
35.0019
29.2866
23.0307
16.2093
8.75305
0.454792
-8.38329
-18.5942
-29.2708
-40.3027
-44.3903
81.9508
78.5537
76.0312
72.9931
69.6411
66.08
62.138
57.8645
53.2025
48.0998
42.5543
36.4659
29.8075
22.4759
14.3864
5.66232
-4.38638
-14.7993
-25.758
-30.2138
94.701
91.3795
88.9815
86.2784
83.0696
79.6894
75.9596
71.8579
67.402
62.5011
57.1717
51.2913
44.869
37.7802
29.9459
21.4625
11.6696
1.41997
-10.0615
-14.7834
107.558
104.339
102.232
99.7928
96.8621
93.7322
90.248
86.4304
82.2411
77.6346
72.5995
67.0312
60.9504
54.1826
46.786
38.7134
29.3868
20.0362
8.22214
3.03606
120.87
118.059
116.272
114.217
111.558
108.686
105.508
101.958
98.065
93.7554
89.036
83.7978
78.0671
71.6677
64.7091
56.9107
48.1442
39.0503
27.2597
22.0081
136.055
132.921
131.193
129.345
126.878
124.19
121.219
117.936
114.321
110.339
105.968
101.119
95.8088
89.8792
83.4188
76.1694
68.1187
59.5798
48.4613
42.929
154.421
151.183
148.457
146.12
143.558
140.765
137.837
134.687
131.277
127.553
123.5
119.018
114.125
108.638
102.709
95.897
88.5103
80.2927
70.0837
64.6338
87.5024
86.8785
87.7732
85.612
85.2451
81.7267
80.8281
78.06
75.8896
72.5507
68.9938
64.899
59.5784
54.3967
46.0868
39.5304
26.6696
18.4252
-0.794728
-14.6652
87.5945
86.9566
88.0897
85.8597
85.7325
82.2398
81.4026
78.7212
76.6987
73.492
70.1325
66.187
61.1973
56.3633
48.4662
42.2954
30.0729
22.4141
4.07915
-8.77139
87.7288
87.0779
88.4671
86.1672
86.3978
82.8535
82.1218
79.4772
77.5595
74.4828
71.2894
67.5398
62.7932
58.1729
50.7241
45.0699
33.4727
26.3294
8.89139
-2.93866
87.8317
87.1579
88.831
86.3266
86.9313
83.4513
82.7492
80.1935
78.386
75.4433
72.4589
68.862
64.4537
60.1804
53.1756
47.9006
36.9252
30.3476
13.653
2.97264
87.972
87.3072
89.27
86.5886
87.567
84.0728
83.4845
80.9728
79.2685
76.452
73.6383
70.2372
66.0987
62.0119
55.4808
50.7065
40.3216
34.3575
18.3472
8.84373
88.0788
87.3717
89.7264
86.72
87.9723
84.6959
84.1606
81.7255
80.1109
77.4269
74.8293
71.5909
67.7881
64.0643
57.9997
53.599
43.901
38.9279
23.1778
15.3793
88.2401
87.528
90.1706
87.0377
88.4699
85.3051
84.8361
82.5294
80.9972
78.4476
76.0269
72.9915
69.4877
65.9421
60.3502
56.4487
47.3073
43.4639
28.1957
22.2847
88.3645
87.6514
90.5675
87.2448
88.9466
85.9254
85.4849
83.2944
81.8462
79.4292
77.2306
74.3711
71.2009
67.9935
62.9371
59.3666
50.9799
47.9038
33.1735
29.1422
88.5401
87.7832
91.0177
87.5845
89.4509
86.5379
86.1577
84.0982
82.7341
80.455
78.4405
75.7993
72.951
69.9336
65.3486
62.2357
54.5079
52.1588
38.4846
35.8799
88.6968
87.9253
91.3815
87.8389
89.9553
87.1622
86.8267
84.8636
83.5844
81.4368
79.6494
77.2101
74.6946
72.0296
67.9872
65.2062
58.2922
56.4797
43.8476
42.9664
88.8724
88.1592
91.8335
88.1804
90.4756
87.7775
87.5141
85.6623
84.4668
82.4604
80.8654
78.6807
76.5047
74.0251
70.4485
68.1264
61.9282
60.8804
49.5275
50.2673
89.0429
88.4233
92.265
88.4583
91.0005
88.4008
88.1859
86.4211
85.3114
83.4356
82.0754
80.1018
78.2904
76.1598
73.1399
71.1691
65.8125
65.3807
55.2992
58.1497
89.2376
88.6719
92.6934
88.8045
91.5554
89.014
88.883
87.2091
86.1835
84.4592
83.3091
81.6049
80.1548
78.2111
75.6681
74.1812
69.5704
69.9435
61.2871
66.3666
89.4379
88.8473
93.0825
89.1161
92.0982
89.6293
89.5796
87.9568
87.0198
85.4291
84.5254
83.0696
82.0019
80.3771
78.3941
77.2782
73.5432
74.6282
67.4738
75.0796
89.6464
88.9286
93.4586
89.5011
92.6056
90.2518
90.2388
88.7165
87.8443
86.4028
85.7052
84.5607
83.8648
82.4444
80.9883
80.3409
77.3937
79.3213
73.7019
84.5238
89.8717
88.8775
93.7655
89.9194
93.291
90.885
90.8035
89.4513
88.6495
87.339
86.9057
86.0859
85.7222
84.6328
83.7453
83.5666
81.5203
84.3021
80.4928
94.4301
90.1099
88.6701
94.2222
90.3743
94.305
91.6429
91.9585
90.2865
89.7092
88.4675
88.3316
87.8797
87.911
86.9395
86.5464
86.8454
85.6501
89.222
87.1986
105.005
90.5926
88.5819
95.0483
90.8604
94.6975
92.3228
92.8451
90.8963
90.3044
89.2997
89.4474
89.3473
89.6231
89.0084
89.2238
90.0807
89.2786
94.0863
92.5518
114.652
90.3519
88.2377
95.2786
91.2761
94.7669
92.7487
92.7997
91.0178
90.4704
89.8756
90.1845
90.3572
90.8617
90.6035
91.0337
92.8201
92.4907
101.091
99.645
129.208
91.3392
87.2097
95.362
91.7876
96.2097
94.4704
94.576
93.1299
92.938
92.4263
92.9522
93.2027
94.2971
94.2626
95.6962
97.7753
99.6275
109.992
113.175
147.453
115.321
91.4443
108.925
104.644
110.734
110.88
114.247
115.509
118.799
118.923
121.024
119.561
124.032
123.984
131.202
131.226
143.17
141.857
165.396
169.53
111.471
109.44
111.516
111.207
113.989
114.675
117.314
118.648
121.627
123.086
126.63
128.604
132.971
135.878
142.651
147.613
158.021
165.272
181.626
192.455
120.01
118.68
120.729
120.978
123.205
124.382
126.433
128.47
130.681
132.898
135.458
137.827
141.47
144.997
149.755
154.579
161.006
167.527
176.633
186.04
121.863
121.997
122.866
123.87
125.328
127.062
128.945
131.027
133.403
135.904
138.797
141.931
145.255
149.089
153.35
158.309
163.304
169.36
174.053
179.664
124.22
124.355
125.276
127.113
128.851
130.593
132.5
134.456
136.496
138.67
140.938
143.297
145.825
148.635
151.382
154.694
157.527
161.515
164.615
169.14
125.128
125.486
126.703
128.578
130.146
132.204
134.065
136.078
138.176
140.279
142.468
144.815
147.096
149.644
151.955
154.705
156.845
159.464
160.326
162.73
125.139
126.348
127.59
129.73
131.759
133.615
135.538
137.198
139.02
140.601
142.339
143.91
145.543
147.142
148.612
150.282
151.584
153.533
154.182
155.886
125.788
127.184
128.669
131.265
133.287
135.218
137.129
138.726
140.472
141.95
143.506
144.953
146.286
147.71
148.806
150.272
151.008
152.232
151.922
152.514
129.264
129.718
132.261
133.597
136.067
137.231
139.088
140.074
141.539
142.402
143.585
144.333
145.27
145.91
146.544
146.998
147.86
148.302
148.617
148.77
132.538
132.677
136
137.004
139.145
140.141
141.551
142.374
143.464
144.174
145.033
145.634
146.266
146.753
147.358
147.826
148.023
147.779
147.749
147.458
140.425
138.556
141.971
141.863
143.567
143.836
144.802
145.036
145.683
145.85
146.29
146.388
146.68
146.733
146.609
146.495
146.166
146.14
146.016
145.832
152.414
150.592
149.231
148.908
148.641
148.509
148.333
148.239
148.14
148.029
147.968
147.857
147.798
147.699
147.587
147.441
147.075
146.671
146.186
145.648
159.521
158.633
155.47
155.027
153.322
152.601
151.758
151.043
150.603
150.001
149.718
149.215
148.968
148.501
148.154
147.694
147.207
146.717
146.232
145.663
164.296
162.6
160.238
158.067
156.941
155.373
154.542
153.387
152.719
151.825
151.242
150.499
149.937
149.277
148.754
148.13
147.637
147.038
146.436
145.81
172.786
163.479
162.464
159.996
158.744
157.042
155.964
154.705
153.825
152.842
152.122
151.311
150.701
149.973
149.396
148.729
148.143
147.494
146.915
146.271
167.591
164.461
163.246
160.99
159.904
158.187
157.23
155.878
155.022
153.929
153.144
152.226
151.496
150.693
150.008
149.276
148.626
147.939
147.303
146.641
166.316
163.895
162.763
160.989
159.852
158.467
157.406
156.265
155.316
154.338
153.496
152.63
151.876
151.089
150.394
149.668
149.009
148.331
147.696
147.053
163.354
162.33
161.392
160.329
159.397
158.348
157.45
156.455
155.6
154.679
153.866
153.018
152.246
151.463
150.732
150.004
149.312
148.63
147.976
147.339
161.39
160.889
160.371
159.578
158.871
158.005
157.222
156.35
155.551
154.705
153.926
153.12
152.375
151.614
150.908
150.192
149.527
148.855
148.187
147.556
161.151
160.608
160.081
159.394
158.707
157.938
157.173
156.373