/*--------------------------------*- C++ -*----------------------------------*\
  =========                 |
  \\      /  F ield         | OpenFOAM: The Open Source CFD Toolbox
   \\    /   O peration     | Website:  https://openfoam.org
    \\  /    A nd           | Version:  9
     \\/     M anipulation  |
\*---------------------------------------------------------------------------*/
FoamFile
{
    format      ascii;
    class       volVectorField;
    location    "10.9";
    object      U;
}
// * * * * * * * * * * * * * * * * * * * * * * * * * * * * * * * * * * * * * //

dimensions      [0 1 -1 0 0 0 0];

internalField   nonuniform List<vector> 
46400
(
(9.89797 -9.73981 -8.58707e-19)
(20.3415 -19.5272 9.49226e-19)
(22.1483 -22.2257 -8.35198e-20)
(21.4267 -22.3035 7.2486e-20)
(20.7452 -22.3169 -6.63295e-20)
(20.0188 -22.3338 -9.16764e-19)
(19.3729 -22.329 4.75023e-19)
(18.7358 -22.3481 -8.08687e-20)
(18.1361 -22.3609 6.8657e-20)
(17.5548 -22.3575 -5.76064e-20)
(17.0102 -22.3516 4.76878e-20)
(16.5225 -22.374 0)
(16.0336 -22.3979 -2.85674e-19)
(15.5684 -22.3745 3.11262e-19)
(15.0867 -22.3513 2.12165e-19)
(14.6451 -22.3107 -4.02773e-20)
(14.2123 -22.3151 -4.94223e-20)
(13.8506 -22.2416 -9.06932e-20)
(13.4519 -22.1815 2.02653e-21)
(12.9774 -22.421 4.34852e-21)
(10.2147 -9.21244 0)
(20.5508 -18.2544 -4.15875e-20)
(22.2511 -20.7448 0)
(21.4692 -20.8345 -6.16375e-19)
(20.7469 -20.8328 4.61964e-19)
(19.9932 -20.9065 -1.09748e-19)
(19.3417 -20.9195 0)
(18.6775 -20.9553 8.08729e-20)
(18.0905 -20.9869 -6.86628e-20)
(17.5466 -21.0593 5.76096e-20)
(17.0093 -21.1184 -2.85332e-19)
(16.4757 -21.1183 6.00184e-20)
(15.9987 -21.1824 1.40495e-19)
(15.5597 -21.245 0)
(15.1458 -21.2955 -1.63438e-20)
(14.7648 -21.3586 -1.01318e-20)
(14.3602 -21.3765 0)
(13.9935 -21.3383 -1.19681e-19)
(13.6458 -21.3038 -5.3986e-20)
(13.1691 -21.4848 1.28683e-19)
(10.4644 -8.66922 -3.87496e-19)
(20.6013 -17.0215 3.65158e-19)
(21.9395 -18.9817 -4.47634e-19)
(21.1474 -19.1625 -3.11848e-19)
(20.4877 -19.2569 3.06147e-19)
(19.7614 -19.3779 0)
(19.1348 -19.4824 3.27071e-19)
(18.5232 -19.6002 -2.95796e-19)
(17.9235 -19.6839 1.49214e-19)
(17.3375 -19.7301 -1.38861e-19)
(16.8199 -19.8231 -1.6439e-20)
(16.3572 -19.9394 3.81876e-20)
(15.8569 -19.9784 -1.58776e-20)
(15.426 -20.0709 0)
(14.9681 -20.1255 1.6368e-19)
(14.5444 -20.1651 -1.61204e-19)
(14.1649 -20.2832 0)
(13.836 -20.3036 -1.94922e-20)
(13.4723 -20.3975 2.3291e-20)
(13.0567 -20.6822 -3.00627e-19)
(10.6506 -8.10154 2.15505e-19)
(20.5491 -15.7294 -8.74777e-20)
(21.7873 -17.5048 -2.12861e-19)
(20.957 -17.6867 2.10411e-19)
(20.2843 -17.8005 9.06398e-20)
(19.5635 -17.9743 -1.02309e-19)
(18.9094 -18.0787 -4.45847e-20)
(18.2752 -18.2127 -1.56641e-20)
(17.7144 -18.3631 4.96622e-20)
(17.2035 -18.5283 -1.10051e-21)
(16.6609 -18.6384 0)
(16.1599 -18.7356 1.44266e-20)
(15.7058 -18.889 -1.99845e-20)
(15.2578 -18.9632 0)
(14.8771 -19.1215 3.39834e-19)
(14.4942 -19.214 -2.80029e-19)
(14.0967 -19.311 0)
(13.7508 -19.3675 3.97159e-20)
(13.3678 -19.3806 5.98543e-20)
(12.9152 -19.6841 4.50498e-19)
(10.7713 -7.51066 0)
(20.3796 -14.5021 0)
(21.2315 -15.854 5.35534e-20)
(20.4291 -16.1505 -6.49519e-20)
(19.7773 -16.315 -2.69575e-20)
(19.0831 -16.528 3.97666e-20)
(18.4784 -16.7253 0)
(17.8863 -16.9078 1.41134e-19)
(17.2945 -17.0634 -1.62017e-19)
(16.7374 -17.2083 -5.79372e-20)
(16.2535 -17.4037 -6.23035e-20)
(15.7925 -17.567 0)
(15.3242 -17.7036 4.74228e-19)
(14.9164 -17.8828 -4.66813e-19)
(14.471 -17.9829 0)
(14.0792 -18.1279 -5.90246e-19)
(13.7171 -18.2797 5.27631e-19)
(13.435 -18.4622 5.62919e-19)
(13.0942 -18.5784 -6.08915e-19)
(12.615 -18.8578 0)
(10.846 -6.92124 0)
(20.0496 -13.1441 0)
(20.8446 -14.4455 0)
(20.0274 -14.7021 -3.69656e-20)
(19.4014 -14.9312 0)
(18.7244 -15.1692 0)
(18.0858 -15.3696 0)
(17.5003 -15.5988 -7.70912e-20)
(16.9556 -15.8233 0)
(16.4612 -16.0377 5.79397e-20)
(15.9455 -16.2279 -2.60858e-20)
(15.488 -16.4281 -7.35071e-19)
(15.0391 -16.6152 5.41013e-19)
(14.6149 -16.778 -7.72981e-19)
(14.2618 -17.0099 5.72217e-19)
(13.8782 -17.147 0)
(13.4423 -17.2441 -7.08526e-19)
(13.1074 -17.3462 6.0018e-19)
(12.8253 -17.5488 0)
(12.392 -17.8615 -1.03177e-19)
(10.9406 -6.33188 1.39661e-19)
(19.5792 -11.7713 6.18076e-20)
(20.1248 -12.899 2.49854e-19)
(19.3474 -13.2881 -2.83537e-19)
(18.6944 -13.5415 -3.16939e-19)
(18.0459 -13.8437 6.53004e-19)
(17.4418 -14.0951 -8.0043e-19)
(16.8798 -14.3399 5.40524e-20)
(16.3331 -14.5987 2.62863e-19)
(15.8063 -14.8218 0)
(15.3336 -15.066 -2.53625e-20)
(14.9006 -15.3019 -2.41914e-20)
(14.477 -15.5329 9.29376e-20)
(14.0619 -15.7195 8.33979e-19)
(13.6611 -15.9166 -7.4708e-19)
(13.3673 -16.2016 -9.79856e-19)
(13.044 -16.4291 8.50094e-19)
(12.6834 -16.5504 -1.86263e-20)
(12.3647 -16.7143 -1.14809e-19)
(11.9807 -17.074 -8.09293e-19)
(11.0684 -5.72672 -9.26739e-20)
(18.9993 -10.4492 3.89546e-20)
(19.436 -11.4698 -1.12762e-19)
(18.6633 -11.8432 -4.63808e-19)
(18.0878 -12.2131 2.95349e-19)
(17.4924 -12.5576 0)
(16.8992 -12.885 7.17209e-19)
(16.3332 -13.1544 -3.38933e-19)
(15.8018 -13.4262 2.45978e-19)
(15.3566 -13.7162 1.37491e-19)
(14.8783 -13.9642 -2.58642e-19)
(14.4437 -14.2121 6.17365e-19)
(14.0599 -14.4881 1.38211e-19)
(13.6704 -14.7316 -7.72427e-19)
(13.2499 -14.8885 2.1727e-18)
(12.8707 -15.0817 -8.9195e-19)
(12.5468 -15.3194 1.15059e-18)
(12.26 -15.54 -7.49437e-19)
(11.9526 -15.7093 2.47691e-19)
(11.5629 -16.0819 1.20554e-18)
(11.2511 -5.13951 5.47211e-19)
(18.2895 -9.18237 -1.0391e-19)
(18.5441 -10.0746 -3.6167e-20)
(17.823 -10.5585 2.7501e-19)
(17.1677 -10.9247 1.25418e-19)
(16.5921 -11.3021 1.59702e-19)
(16.0455 -11.6654 -7.29229e-19)
(15.5715 -12.0321 4.51619e-19)
(15.0623 -12.3511 -1.36432e-19)
(14.5649 -12.6401 -1.37486e-19)
(14.1349 -12.9501 -1.38108e-19)
(13.7006 -13.2108 -1.60478e-19)
(13.2945 -13.4725 -2.97574e-19)
(13.0012 -13.813 1.05238e-18)
(12.6733 -14.1029 -1.46563e-18)
(12.3176 -14.3211 -1.54923e-19)
(11.9864 -14.5549 1.7809e-20)
(11.6738 -14.7594 -1.12939e-18)
(11.403 -14.9734 8.46768e-19)
(11.0303 -15.3316 -1.35477e-18)
(11.483 -4.6282 6.06812e-19)
(17.4358 -7.98218 -1.47439e-18)
(17.4343 -8.7361 9.90885e-19)
(16.8359 -9.21958 -1.54529e-19)
(16.3412 -9.75634 -1.87853e-19)
(15.8435 -10.1888 7.341e-19)
(15.2906 -10.5872 -8.81337e-19)
(14.7749 -10.9256 0)
(14.3169 -11.2916 7.03015e-19)
(13.9066 -11.6245 -6.91312e-19)
(13.5024 -11.9556 -5.10291e-19)
(13.1294 -12.2709 6.61524e-19)
(12.7091 -12.5139 1.59382e-19)
(12.3012 -12.7456 -6.73094e-19)
(12.0022 -13.0486 1.54117e-19)
(11.7023 -13.3345 8.0998e-19)
(11.3816 -13.5816 -1.44971e-18)
(11.1021 -13.8228 9.58561e-19)
(10.8349 -14.0464 -1.52778e-20)
(10.522 -14.4238 -1.34914e-18)
(11.5827 -4.19622 8.95729e-19)
(16.4972 -6.83803 -5.94898e-19)
(16.4193 -7.62999 4.129e-19)
(15.8263 -8.11749 1.77445e-20)
(15.1986 -8.58196 -8.29741e-19)
(14.7579 -9.06793 -7.87249e-19)
(14.322 -9.54934 9.87676e-19)
(13.9155 -9.9702 -5.91615e-19)
(13.4757 -10.3591 7.89282e-19)
(13.03 -10.7006 0)
(12.6323 -11.0524 2.0465e-20)
(12.2997 -11.4244 1.81403e-19)
(11.9917 -11.7832 1.97977e-19)
(11.6617 -12.0859 -1.94926e-19)
(11.3118 -12.3472 0)
(11.0207 -12.6405 1.8866e-19)
(10.7503 -12.9189 0)
(10.4577 -13.1556 3.49762e-19)
(10.2125 -13.3945 1.71496e-18)
(9.92714 -13.7591 -5.79104e-21)
(11.5426 -3.78848 5.17454e-19)
(15.3964 -5.81909 -1.01876e-19)
(15.0444 -6.51603 -1.63368e-18)
(14.681 -7.07542 9.16007e-19)
(14.2452 -7.64193 2.15957e-19)
(13.8028 -8.08351 -2.14804e-19)
(13.3659 -8.56999 -9.03799e-19)
(12.9482 -8.99572 6.76962e-19)
(12.5814 -9.43031 0)
(12.2211 -9.81033 0)
(11.8264 -10.1255 -1.05886e-18)
(11.4629 -10.4535 8.41188e-19)
(11.143 -10.7817 -1.97992e-19)
(10.846 -11.1291 -6.18826e-19)
(10.5653 -11.4404 1.51172e-21)
(10.2739 -11.7496 1.3844e-18)
(10.005 -12.0495 -7.73791e-19)
(9.7597 -12.3369 5.75459e-19)
(9.50211 -12.5881 -9.25873e-19)
(9.24214 -12.966 0)
(11.2097 -3.30188 -4.73014e-19)
(14.2652 -4.93319 7.70882e-19)
(13.9987 -5.68371 1.35603e-19)
(13.5326 -6.16328 1.3416e-19)
(13.0471 -6.75894 0)
(12.6678 -7.2495 1.00612e-18)
(12.2743 -7.75928 -9.88478e-19)
(11.9413 -8.22245 1.2665e-19)
(11.6115 -8.6946 0)
(11.3195 -9.15937 9.43287e-19)
(11.004 -9.57259 -8.07814e-19)
(10.6688 -9.93087 9.09196e-19)
(10.3594 -10.2663 -8.94778e-19)
(10.0614 -10.5917 8.74896e-19)
(9.77689 -10.8929 -7.50411e-19)
(9.50169 -11.186 -8.41045e-19)
(9.27395 -11.4789 1.65303e-18)
(9.0367 -11.7532 -7.07925e-19)
(8.82619 -12.0051 1.02319e-19)
(8.5986 -12.3511 8.48209e-19)
(10.6843 -2.79683 -3.9075e-19)
(12.9945 -4.09458 4.29327e-19)
(12.5853 -4.84565 -1.3562e-19)
(12.3094 -5.42959 -1.34176e-19)
(11.9047 -5.99093 0)
(11.5998 -6.49926 0)
(11.233 -7.00022 0)
(10.8638 -7.43506 -2.62425e-19)
(10.4966 -7.85579 -1.03125e-18)
(10.1982 -8.28093 2.02572e-18)
(9.95259 -8.71524 -1.11515e-18)
(9.69632 -9.13127 -1.25298e-19)
(9.43677 -9.50841 0)
(9.1904 -9.88536 0)
(8.96445 -10.235 -2.28589e-19)
(8.7098 -10.564 0)
(8.46545 -10.8667 8.76078e-19)
(8.27313 -11.1856 -1.07778e-18)
(8.05067 -11.4544 -9.40876e-19)
(7.8249 -11.8048 9.06309e-19)
(9.89844 -2.28618 4.14642e-19)
(11.6206 -3.38261 7.77055e-19)
(11.2659 -4.1084 2.78358e-21)
(11.0639 -4.69005 1.4769e-21)
(10.7187 -5.36262 1.53063e-19)
(10.3853 -5.86005 -4.32919e-19)
(10.1088 -6.45176 0)
(9.86783 -6.94988 -4.23872e-19)
(9.60294 -7.44265 1.42974e-19)
(9.31249 -7.85511 5.38997e-19)
(9.03623 -8.26976 5.25162e-19)
(8.77501 -8.66024 -3.91373e-19)
(8.53806 -9.03367 1.0053e-18)
(8.28385 -9.38901 -8.63264e-19)
(8.07738 -9.73351 1.07928e-18)
(7.87283 -10.0739 -2.00834e-18)
(7.66416 -10.3701 9.26439e-19)
(7.4705 -10.6708 1.10223e-19)
(7.32286 -10.9621 8.78847e-19)
(7.14386 -11.2992 -9.50842e-19)
(8.97097 -1.77692 1.45949e-19)
(10.3922 -2.69198 -1.58964e-19)
(10.0623 -3.40369 6.49886e-19)
(9.75494 -3.96686 -6.37865e-19)
(9.47218 -4.61426 -3.13305e-19)
(9.24687 -5.14376 -7.64086e-19)
(8.90739 -5.67648 1.65312e-21)
(8.65519 -6.1599 5.91528e-19)
(8.41314 -6.68157 -1.40926e-19)
(8.20267 -7.15292 0)
(7.99551 -7.60869 0)
(7.79757 -8.04079 0)
(7.59614 -8.44464 0)
(7.39204 -8.8249 5.46042e-21)
(7.20447 -9.18446 0)
(7.03337 -9.55072 1.20741e-19)
(6.85527 -9.88762 4.80872e-19)
(6.66014 -10.2038 -1.41374e-18)
(6.47701 -10.4963 1.04359e-18)
(6.29876 -10.8536 -9.83655e-19)
(7.91388 -1.30727 0)
(8.93479 -2.17612 -8.84095e-20)
(8.57547 -2.89897 0)
(8.40811 -3.50865 2.50239e-19)
(8.19749 -4.17575 -1.69016e-19)
(7.98848 -4.77475 -6.43863e-19)
(7.80695 -5.3649 2.87405e-21)
(7.57601 -5.87895 6.18912e-19)
(7.34256 -6.36576 -6.01593e-19)
(7.16704 -6.83489 1.17932e-18)
(6.96006 -7.26978 -3.9922e-21)
(6.78184 -7.69306 -5.64839e-19)
(6.63415 -8.10398 5.47613e-19)
(6.45428 -8.49643 -6.70832e-19)
(6.26629 -8.84102 0)
(6.09687 -9.20041 -5.10141e-19)
(5.95376 -9.5274 5.02519e-19)
(5.81424 -9.86233 0)
(5.68432 -10.1498 -1.1738e-19)
(5.5358 -10.4945 0)
(6.81681 -0.880164 8.7201e-20)
(7.62618 -1.68303 8.8631e-20)
(7.42817 -2.38198 0)
(7.12257 -2.98837 3.45605e-19)
(6.8489 -3.59565 -4.2923e-19)
(6.68534 -4.1838 2.48949e-19)
(6.48251 -4.73592 -7.37481e-19)
(6.36066 -5.29826 3.20803e-19)
(6.201 -5.79185 -7.92228e-20)
(6.06166 -6.29781 0)
(5.92265 -6.76874 -7.55208e-20)
(5.75976 -7.20954 -7.37196e-20)
(5.5983 -7.62907 -7.19567e-20)
(5.50344 -8.05475 0)
(5.37235 -8.44167 -5.39428e-19)
(5.23911 -8.81376 1.12469e-18)
(5.10366 -9.16411 -9.67328e-19)
(4.95989 -9.50057 5.06415e-19)
(4.84016 -9.81332 6.22976e-20)
(4.69307 -10.16 5.24579e-19)
(5.61712 -0.560163 -1.34732e-19)
(6.02449 -1.40134 -1.87909e-19)
(5.83562 -2.21311 4.04099e-22)
(5.71085 -2.93306 4.95267e-19)
(5.60435 -3.55077 -1.34631e-19)
(5.46756 -4.14687 -8.70289e-20)
(5.34492 -4.66839 8.40686e-20)
(5.21412 -5.19832 1.65041e-19)
(5.07491 -5.68638 7.9235e-20)
(4.91853 -6.15284 -3.12309e-19)
(4.82669 -6.60413 3.4403e-19)
(4.72421 -7.04907 7.37292e-20)
(4.59754 -7.44937 3.62147e-19)
(4.46907 -7.84042 -2.46894e-21)
(4.36493 -8.22873 3.26017e-20)
(4.25796 -8.5842 -6.08777e-19)
(4.16206 -8.94576 1.6696e-19)
(4.06356 -9.26452 0)
(3.9735 -9.57924 -3.04767e-20)
(3.87943 -9.90757 -2.68556e-19)
(4.40957 -0.394201 4.72919e-20)
(4.40278 -1.11518 -9.61576e-20)
(4.36631 -1.74181 1.88642e-19)
(4.33045 -2.42524 -4.59557e-20)
(4.26426 -3.02411 -4.58472e-20)
(4.23576 -3.67122 0)
(4.12276 -4.25334 -8.59319e-20)
(4.02429 -4.81348 1.68328e-19)
(3.95863 -5.33976 -8.2456e-20)
(3.87407 -5.83845 7.98468e-20)
(3.75724 -6.29809 -3.98603e-20)
(3.67592 -6.75739 -7.59688e-20)
(3.61512 -7.19213 1.48862e-19)
(3.52159 -7.60139 -1.45219e-19)
(3.46254 -7.99457 3.61084e-20)
(3.37354 -8.36607 2.47173e-34)
(3.31371 -8.72719 -3.3726e-20)
(3.23089 -9.0663 1.97139e-19)
(3.16592 -9.38244 -9.70188e-20)
(3.08728 -9.72351 -6.91425e-20)
(-0.143999 -5.23329 1.73005e-19)
(1.59994 -20.4492 8.58445e-20)
(2.88905 -34.7601 0)
(3.59386 -40.9926 7.99351e-20)
(3.6351 -41.718 7.36012e-20)
(3.61602 -41.4694 6.90759e-20)
(3.55654 -40.8863 0)
(3.51373 -40.4176 6.35105e-20)
(3.45204 -39.99 0)
(3.39223 -39.5672 0)
(3.32661 -39.2001 -5.23415e-20)
(3.25677 -38.8422 3.65856e-21)
(3.17974 -38.4692 9.92584e-20)
(3.11116 -38.105 0)
(3.01969 -37.7485 4.38264e-20)
(2.96027 -37.3146 4.16794e-20)
(2.82569 -36.7882 3.96997e-20)
(2.79215 -36.2254 0)
(2.62192 -35.7379 -7.17156e-20)
(2.62014 -35.2848 6.97165e-20)
(0.143246 -6.45491 2.61427e-19)
(2.4804 -22.4431 -4.32247e-19)
(4.13506 -36.3291 0)
(4.76445 -41.4601 -3.94404e-19)
(4.80166 -41.7944 3.71087e-19)
(4.7177 -41.3891 -6.27855e-19)
(4.62855 -40.826 2.74458e-19)
(4.54235 -40.3197 1.85432e-19)
(4.46681 -39.8708 -8.35029e-19)
(4.37173 -39.4809 4.62918e-19)
(4.29155 -39.0625 -5.39054e-20)
(4.19218 -38.6601 4.00153e-19)
(4.11008 -38.282 -1.40879e-20)
(4.00739 -37.8967 -3.73692e-19)
(3.91561 -37.4917 -4.38229e-20)
(3.8198 -37.0243 -4.16789e-20)
(3.69014 -36.533 -3.97019e-20)
(3.62581 -35.9639 0)
(3.4568 -35.5382 -2.82388e-19)
(3.44937 -35.1045 8.58079e-21)
(0.699612 -7.71343 -8.37015e-20)
(3.56633 -23.886 0)
(5.51661 -37.35 0)
(6.05029 -41.5577 -1.5736e-19)
(6.04186 -41.5899 1.45952e-19)
(5.92758 -41.1086 0)
(5.79627 -40.5222 -1.33267e-19)
(5.681 -40.0345 3.69089e-19)
(5.55861 -39.5817 -3.66735e-19)
(5.43813 -39.1332 4.41248e-19)
(5.3188 -38.7549 -5.39629e-19)
(5.19775 -38.3828 0)
(5.07251 -37.9955 -3.74431e-19)
(4.95395 -37.6181 -3.41686e-19)
(4.82367 -37.2516 6.14149e-19)
(4.71064 -36.8055 -6.4041e-19)
(4.53598 -36.2732 5.54044e-19)
(4.45085 -35.7141 0)
(4.23047 -35.2505 -6.22755e-19)
(4.2069 -34.793 1.06825e-18)
(1.26036 -8.56399 0)
(4.41466 -25.2 0)
(6.90871 -38.1365 3.35458e-19)
(7.3721 -41.5632 4.60799e-19)
(7.28746 -41.412 -8.94891e-19)
(7.09154 -40.8326 2.78511e-19)
(6.92571 -40.2882 1.33256e-19)
(6.75934 -39.7654 1.35201e-18)
(6.61085 -39.3061 -1.8846e-18)
(6.45271 -38.9104 -1.83825e-19)
(6.31248 -38.4786 9.62141e-19)
(6.15296 -38.0697 1.96328e-19)
(6.01869 -37.6863 -9.22086e-19)
(5.8626 -37.3038 9.00533e-19)
(5.72331 -36.8891 2.51436e-19)
(5.56668 -36.419 -1.57778e-19)
(5.3912 -35.9192 2.26495e-19)
(5.26869 -35.3522 0)
(5.04641 -34.9203 -6.6082e-20)
(5.02579 -34.511 0)
(1.46453 -9.6272 0)
(5.74081 -26.2503 9.71053e-19)
(8.30832 -38.5405 -1.70303e-18)
(8.6629 -41.2448 1.54158e-18)
(8.53674 -40.9208 -1.20143e-18)
(8.3096 -40.3534 -2.80585e-19)
(8.10324 -39.8022 0)
(7.90818 -39.3176 7.15731e-19)
(7.71492 -38.8567 -9.47345e-19)
(7.52259 -38.4044 1.07535e-18)
(7.34303 -38.0261 -8.41128e-19)
(7.16274 -37.6509 -1.96325e-19)
(6.98053 -37.2649 9.05957e-19)
(6.80581 -36.885 -1.56625e-18)
(6.62737 -36.5246 9.87712e-19)
(6.45554 -36.0801 -3.24084e-19)
(6.23715 -35.5643 -7.30566e-19)
(6.09158 -35.0167 1.6764e-18)
(5.82481 -34.5882 -9.52807e-19)
(5.77878 -34.1259 -1.13056e-18)
(2.10731 -10.2043 1.36999e-18)
(6.65163 -27.2546 1.15375e-18)
(9.7277 -38.7681 -1.35649e-18)
(9.96724 -40.9459 -3.07829e-19)
(9.75553 -40.52 2.92883e-19)
(9.49135 -39.9355 1.07188e-18)
(9.23223 -39.3886 -1.05302e-18)
(8.98619 -38.864 0)
(8.76172 -38.4104 8.87841e-19)
(8.53517 -38.0188 -8.73026e-19)
(8.32775 -37.5911 -7.87728e-19)
(8.10342 -37.1901 7.74988e-19)
(7.91014 -36.8145 0)
(7.697 -36.4482 0)
(7.50575 -36.0439 1.41722e-18)
(7.28804 -35.602 -1.38931e-18)
(7.06638 -35.112 -1.127e-18)
(6.87725 -34.5603 1.1104e-18)
(6.6007 -34.125 -1.01803e-18)
(6.56385 -33.7273 1.26007e-18)
(2.62171 -10.7549 -1.00904e-18)
(7.94137 -27.7718 3.69572e-19)
(11.1287 -38.6444 6.07526e-20)
(11.2947 -40.2957 1.56412e-18)
(11.0072 -39.7856 0)
(10.6996 -39.2373 0)
(10.3986 -38.7088 1.96166e-18)
(10.1182 -38.2406 -8.79784e-20)
(9.84828 -37.7866 -1.80871e-18)
(9.57819 -37.3477 1.62434e-18)
(9.33484 -36.9816 -1.5977e-18)
(9.08997 -36.6186 0)
(8.84727 -36.2471 1.35845e-18)
(8.6131 -35.8809 -1.33712e-18)
(8.38165 -35.5443 0)
(8.14878 -35.1197 0)
(7.88533 -34.639 0)
(7.6752 -34.1164 0)
(7.36511 -33.722 0)
(7.2927 -33.2576 -1.22121e-19)
(3.20697 -11.2595 9.77469e-19)
(9.19873 -28.2601 -1.67182e-18)
(12.477 -38.3575 0)
(12.5726 -39.7044 0)
(12.1939 -39.1696 2.44257e-18)
(11.8403 -38.6156 1.50906e-19)
(11.4803 -38.091 -2.23636e-18)
(11.146 -37.5904 0)
(10.8442 -37.1614 2.09568e-19)
(10.5454 -36.791 -1.96581e-19)
(10.2671 -36.3843 0)
(9.97743 -36.0036 1.73554e-19)
(9.72424 -35.6504 -1.47153e-18)
(9.45523 -35.3079 2.67526e-18)
(9.21137 -34.9337 -4.9961e-20)
(8.94208 -34.5477 -1.14672e-18)
(8.67483 -34.0927 -1.29468e-19)
(8.41777 -33.571 1.22476e-19)
(8.08942 -33.1392 0)
(8.02734 -32.7452 1.1182e-19)
(3.79663 -11.6033 6.35004e-19)
(10.4519 -28.3766 5.59835e-19)
(13.8008 -37.8026 -1.92962e-18)
(13.7937 -38.7477 5.67187e-19)
(13.3665 -38.1953 2.53443e-19)
(12.9757 -37.697 2.19721e-18)
(12.5847 -37.2169 -3.06003e-18)
(12.2178 -36.7845 2.22924e-18)
(11.8717 -36.3582 -1.81455e-18)
(11.5245 -35.9482 2.15094e-18)
(11.2181 -35.613 3.52743e-19)
(10.9089 -35.2785 1.48562e-18)
(10.6058 -34.935 -8.32207e-19)
(10.3134 -34.6022 -1.62346e-18)
(10.0289 -34.302 1.43425e-18)
(9.73849 -33.9119 0)
(9.43253 -33.4857 3.7495e-19)
(9.1575 -33.0065 1.09455e-19)
(8.8078 -32.6371 -2.19766e-19)
(8.7035 -32.1818 9.93915e-20)
(4.4108 -11.9007 -1.21867e-18)
(11.6979 -28.4707 1.26523e-18)
(15.0137 -37.1434 -2.51067e-20)
(14.9676 -37.9273 -1.1126e-18)
(14.4526 -37.3913 -1.03339e-18)
(14.0156 -36.8877 -4.92144e-19)
(13.566 -36.4051 -2.146e-20)
(13.1455 -35.9524 -4.29057e-19)
(12.7738 -35.5657 0)
(12.4061 -35.235 -3.76084e-19)
(12.0611 -34.8617 -3.52723e-19)
(11.7102 -34.5152 -1.77432e-20)
(11.4001 -34.1965 1.16905e-18)
(11.0788 -33.8811 -5.98233e-19)
(10.7867 -33.5576 -1.32657e-18)
(10.4781 -33.2478 1.0346e-18)
(10.1708 -32.8508 6.89097e-19)
(9.85032 -32.3753 -1.15269e-18)
(9.47482 -31.9581 2.19843e-19)
(9.38228 -31.5684 1.40543e-18)
(5.01691 -12.0396 -2.95483e-18)
(12.8706 -28.2109 3.01633e-18)
(16.2059 -36.2158 -3.35358e-18)
(16.0537 -36.7104 2.73257e-18)
(15.51 -36.2056 2.42349e-18)
(15.0357 -35.7649 -1.88388e-18)
(14.5692 -35.3506 -2.51326e-18)
(14.1205 -34.9702 8.30242e-20)
(13.7018 -34.5897 1.52379e-18)
(13.2832 -34.2236 -1.01767e-18)
(12.9177 -33.9397 2.59858e-18)
(12.5497 -33.6497 -1.56007e-18)
(12.1904 -33.3505 -2.94185e-19)
(11.8454 -33.0648 7.69834e-19)
(11.5101 -32.8015 -2.01364e-18)
(11.1695 -32.4602 9.68552e-19)
(10.8278 -32.11 0)
(10.4968 -31.6954 -1.64702e-18)
(10.1087 -31.347 1.61955e-18)
(9.97665 -30.9102 -1.32036e-18)
(5.64412 -12.155 5.68215e-19)
(14.0337 -27.9893 6.30147e-19)
(17.2614 -35.3022 2.77096e-18)
(17.0723 -35.705 2.43805e-18)
(16.448 -35.2269 -1.46597e-18)
(15.927 -34.7868 2.09861e-18)
(15.4053 -34.3635 -1.23761e-18)
(14.9079 -33.9774 1.45597e-18)
(14.4765 -33.6493 -2.78919e-18)
(14.0479 -33.3727 9.99226e-19)
(13.6424 -33.0419 0)
(13.2374 -32.7439 0)
(12.8758 -32.4716 0)
(12.5068 -32.1925 -1.94758e-18)
(12.1728 -31.9374 1.91753e-18)
(11.8354 -31.7058 0)
(11.4953 -31.3837 0)
(11.1214 -30.9803 -1.85593e-19)
(10.7056 -30.5931 0)
(10.5771 -30.2116 -1.57217e-18)
(6.22827 -12.1131 -1.08385e-18)
(15.0714 -27.3814 -2.71232e-18)
(18.2488 -34.0491 -1.96902e-18)
(17.9982 -34.2791 -3.72104e-19)
(17.3501 -33.8627 2.62045e-18)
(16.8011 -33.4985 -5.1142e-19)
(16.2729 -33.1583 -8.54988e-20)
(15.7519 -32.8412 -1.76517e-18)
(15.2675 -32.5198 0)
(14.7878 -32.2131 -8.8439e-19)
(14.3711 -31.9983 1.42253e-18)
(13.9526 -31.7631 0)
(13.5446 -31.5235 1.90881e-18)
(13.1545 -31.2902 -1.87888e-18)
(12.77 -31.0623 1.67252e-18)
(12.3886 -30.7849 -3.02381e-18)
(12.0195 -30.5236 1.5442e-18)
(11.6473 -30.1929 1.85609e-19)
(11.2247 -29.8677 -1.57222e-19)
(11.0695 -29.4554 1.25674e-18)
(6.83035 -12.0693 -1.45354e-18)
(16.1062 -26.8848 8.05288e-20)
(19.1418 -32.9476 1.15463e-19)
(18.8231 -33.1297 3.50522e-18)
(18.1239 -32.7279 3.20306e-19)
(17.512 -32.3667 -1.89661e-18)
(16.9379 -32.0177 -1.34255e-18)
(16.3759 -31.7099 4.08431e-19)
(15.8937 -31.4515 1.50708e-18)
(15.4129 -31.235 -1.62563e-18)
(14.9528 -30.9552 7.88078e-19)
(14.5029 -30.7205 -2.08863e-18)
(14.0964 -30.5083 1.62156e-18)
(13.6867 -30.2811 -1.61974e-18)
(13.3171 -30.0993 1.41173e-18)
(12.956 -29.934 1.22338e-18)
(12.5907 -29.7037 -1.39303e-18)
(12.1837 -29.4064 1.09234e-18)
(11.7397 -29.0739 -1.06079e-18)
(11.5746 -28.6969 -1.25613e-18)
(7.35949 -11.8842 -1.8259e-18)
(16.991 -26.0027 -3.6208e-19)
(19.8763 -31.4221 1.7962e-18)
(19.5255 -31.5312 -1.55843e-18)
(18.8319 -31.224 1.53053e-18)
(18.2156 -30.9532 3.57181e-19)
(17.6346 -30.6933 0)
(17.0557 -30.4483 -2.75656e-19)
(16.5156 -30.1948 7.61592e-19)
(15.9885 -29.964 -2.69999e-18)
(15.5308 -29.8276 1.90358e-18)
(15.0705 -29.6482 4.28213e-19)
(14.6231 -29.4796 2.10859e-19)
(14.1974 -29.3058 0)
(13.7667 -29.1195 2.21852e-20)
(13.3533 -28.9096 1.24733e-18)
(12.9609 -28.7271 -6.55314e-20)
(12.5663 -28.5007 2.19397e-19)
(12.1226 -28.2269 -1.06283e-18)
(11.9467 -27.8442 2.46329e-19)
(7.90219 -11.7055 1.67028e-18)
(17.8755 -25.2622 -2.89967e-18)
(20.6194 -30.196 1.63561e-18)
(20.1427 -30.2807 1.41167e-18)
(19.4156 -29.9629 -9.02223e-20)
(18.7296 -29.6934 -9.82747e-19)
(18.1177 -29.431 2.66328e-19)
(17.5061 -29.2092 2.75667e-19)
(16.9826 -29.0239 0)
(16.4567 -28.8632 0)
(15.9511 -28.6467 -1.58667e-18)
(15.4679 -28.4872 2.65016e-18)
(15.0229 -28.3392 -1.44295e-18)
(14.5822 -28.1805 0)
(14.1837 -28.0736 2.30569e-20)
(13.8018 -27.9702 -1.20414e-18)
(13.417 -27.8366 1.17817e-18)
(12.9992 -27.6584 -1.29371e-19)
(12.5458 -27.406 -9.50867e-19)
(12.353 -27.0363 6.55372e-19)
(8.35295 -11.3751 -1.51472e-18)
(18.5288 -24.1275 1.91093e-18)
(21.0963 -28.5174 0)
(20.6077 -28.5632 0)
(19.8982 -28.3739 2.79735e-19)
(19.2357 -28.1982 -1.34445e-18)
(18.616 -28.0215 3.73261e-20)
(17.9946 -27.8548 9.4827e-19)
(17.4132 -27.676 -1.62105e-18)
(16.856 -27.5332 3.08128e-18)
(16.3649 -27.4685 -1.46284e-18)
(15.8729 -27.342 3.24247e-19)
(15.3974 -27.2477 1.28852e-18)
(14.9462 -27.1351 4.97077e-20)
(14.4769 -26.998 -7.914e-19)
(14.038 -26.8504 1.27268e-19)
(13.6216 -26.7344 -9.42995e-19)
(13.226 -26.6327 8.13319e-19)
(12.7882 -26.464 2.02095e-20)
(12.5993 -26.1148 6.88422e-19)
(8.81465 -11.0837 0)
(19.2214 -23.1868 9.39555e-19)
(21.6439 -27.1916 -1.01289e-18)
(21.042 -27.2307 0)
(20.2936 -27.0093 -2.79701e-19)
(19.5565 -26.8439 9.14696e-19)
(18.9226 -26.6723 -1.13159e-18)
(18.2771 -26.5433 0)
(17.7197 -26.4254 1.38014e-18)
(17.1561 -26.3114 -1.35713e-18)
(16.6217 -26.1801 1.33909e-19)
(16.1178 -26.1046 -1.48707e-19)
(15.6396 -26.014 -1.36086e-19)
(15.1807 -25.9376 -1.24541e-19)
(14.7626 -25.9042 -8.99545e-19)
(14.3644 -25.8617 1.48806e-18)
(13.9556 -25.8019 -1.35424e-18)
(13.5335 -25.7226 1.23395e-18)
(13.0961 -25.6049 -4.97126e-19)
(12.9031 -25.2743 7.3584e-20)
(9.18603 -10.6304 0)
(19.6431 -21.9282 -1.13507e-18)
(21.861 -25.4302 5.96523e-19)
(21.2482 -25.461 7.22579e-19)
(20.5401 -25.3814 -7.69709e-20)
(19.8391 -25.3006 -6.91367e-20)
(19.1962 -25.2068 -7.57681e-19)
(18.5512 -25.1259 0)
(17.9484 -25.04 0)
(17.374 -24.9796 0)
(16.8466 -24.9505 -1.33906e-19)
(16.3386 -24.8878 0)
(15.8464 -24.8683 -8.16869e-19)
(15.3737 -24.805 7.22639e-19)
(14.8762 -24.7284 -5.85754e-19)
(14.4181 -24.6396 1.09786e-18)
(13.9722 -24.5939 -5.13204e-19)
(13.5711 -24.5972 -4.52669e-19)
(13.1494 -24.5651 7.49448e-19)
(12.9623 -24.2537 -3.58134e-19)
(9.58591 -10.2473 0)
(20.1198 -20.7702 0)
(22.1866 -24.009 2.50775e-19)
(21.4954 -24.0477 2.27156e-19)
(20.7454 -23.9336 0)
(19.9826 -23.8857 6.28121e-19)
(19.3385 -23.8078 -6.17143e-19)
(18.6751 -23.7654 0)
(18.0914 -23.7101 8.81163e-19)
(17.5144 -23.6636 -8.66467e-19)
(16.9707 -23.631 0)
(16.446 -23.6056 -5.99704e-19)
(15.9445 -23.5711 1.51471e-19)
(15.4781 -23.5705 5.13274e-19)
(15.041 -23.5786 0)
(14.6201 -23.5773 0)
(14.1571 -23.5483 0)
(13.7037 -23.4907 -1.67835e-19)
(13.2865 -23.4387 2.06725e-19)
(12.9949 -23.2379 0)
(1.87854 -34.0832 0)
(1.74125 -32.1749 0)
(0.959352 -31.1315 -4.08997e-21)
(0.732732 -29.9014 -3.37963e-21)
(0.460391 -29.1439 0)
(0.299514 -28.247 1.91014e-22)
(0.111782 -27.5389 2.03559e-21)
(0.0337963 -26.983 0)
(-0.0471527 -26.5203 1.18587e-21)
(-0.0862166 -26.0881 0)
(-0.127876 -25.7739 -7.61741e-22)
(-0.107518 -25.4561 -2.64618e-22)
(-0.126344 -25.2673 2.65929e-22)
(-0.0492389 -25.0718 3.21184e-22)
(-0.078625 -24.9673 0)
(0.0610944 -24.6659 -2.81229e-23)
(5.53905e-06 -24.0687 1.06233e-22)
(0.184223 -21.4713 0)
(0.0137446 -15.435 0)
(0.103102 -6.39874 -1.4738e-23)
(2.62218 -33.9348 2.9827e-20)
(2.408 -32.0293 0)
(1.50739 -31.0182 1.88238e-20)
(1.17329 -29.8819 -1.14267e-20)
(0.835438 -29.156 0)
(0.582858 -28.2563 -1.04824e-20)
(0.364104 -27.5507 3.96733e-21)
(0.233897 -26.9952 0)
(0.12615 -26.5264 9.0372e-22)
(0.0535457 -26.0986 -2.10088e-21)
(-0.00715314 -25.7852 2.0749e-21)
(-0.010295 -25.4712 -2.3333e-21)
(-0.04265 -25.2815 1.39773e-21)
(0.0163201 -25.0842 -4.3141e-22)
(-0.0261053 -24.9861 -2.72548e-22)
(0.0990875 -24.6743 1.01916e-22)
(0.0289185 -24.0855 -1.80371e-22)
(0.19682 -21.48 -2.33665e-23)
(0.0234152 -15.4254 1.45928e-23)
(0.102154 -6.38296 1.75735e-23)
(3.20109 -33.6354 -1.33228e-20)
(2.78171 -31.8518 -2.5426e-20)
(1.77543 -30.8211 -1.55501e-20)
(1.39685 -29.7188 0)
(1.03428 -29.0091 0)
(0.73649 -28.1255 1.20118e-20)
(0.503992 -27.4554 -1.50679e-21)
(0.343031 -26.9266 -1.20385e-21)
(0.217252 -26.4769 -1.02697e-21)
(0.127895 -26.0611 -4.06699e-21)
(0.0573007 -25.7583 0)
(0.042075 -25.4553 0)
(0.00140173 -25.2745 0)
(0.0533773 -25.0842 -1.13176e-21)
(0.00778603 -24.99 0)
(0.126841 -24.6893 -4.31961e-22)
(0.0546847 -24.1026 2.42887e-22)
(0.207314 -21.487 1.76721e-23)
(0.0345393 -15.4255 -1.57275e-23)
(0.102462 -6.37198 -1.20107e-22)
(3.93098 -33.4209 4.41883e-20)
(3.41257 -31.6622 -8.40566e-20)
(2.32035 -30.6829 2.68627e-21)
(1.82902 -29.6803 2.81751e-20)
(1.39808 -29.0054 0)
(1.0121 -28.1253 1.49462e-20)
(0.748864 -27.462 -3.36707e-20)
(0.536202 -26.9296 1.70158e-20)
(0.386213 -26.4762 -9.21373e-21)
(0.263734 -26.0664 3.09859e-21)
(0.174198 -25.765 -4.08394e-22)
(0.135422 -25.4652 -1.83896e-21)
(0.0807885 -25.2837 1.84674e-21)
(0.114146 -25.0923 6.60745e-22)
(0.0566803 -25.0045 4.73249e-22)
(0.159006 -24.6965 4.31706e-22)
(0.0813686 -24.1189 -2.6462e-22)
(0.211586 -21.503 5.47767e-24)
(0.0454675 -15.4279 1.34946e-23)
(0.0980504 -6.35999 1.18703e-22)
(4.50014 -33.0531 1.11832e-19)
(3.78479 -31.436 1.96172e-20)
(2.59328 -30.4571 -2.77893e-20)
(2.04762 -29.4929 3.96525e-20)
(1.59186 -28.8391 0)
(1.16292 -27.9805 -7.91883e-21)
(0.887659 -27.3549 6.5954e-21)
(0.642534 -26.8502 0)
(0.475423 -26.4188 1.61949e-22)
(0.337479 -26.0211 0)
(0.237024 -25.7313 -5.28951e-21)
(0.185255 -25.4432 0)
(0.122443 -25.2716 0)
(0.148229 -25.0877 -1.82966e-21)
(0.0873531 -25.004 8.69359e-22)
(0.179787 -24.7097 -3.0403e-22)
(0.10691 -24.1343 0)
(0.215127 -21.5251 -2.08231e-23)
(0.0549669 -15.4353 2.53223e-23)
(0.0930337 -6.35113 0)
(5.21258 -32.7694 4.5305e-20)
(4.38636 -31.1996 -3.6936e-20)
(3.13004 -30.2889 6.68163e-20)
(2.46989 -29.4318 -6.55462e-20)
(1.94277 -28.8185 1.87109e-20)
(1.43072 -27.9706 7.94346e-21)
(1.12324 -27.3541 -1.23429e-20)
(0.828911 -26.843 -9.88946e-21)
(0.639837 -26.4116 4.15666e-21)
(0.468971 -26.0211 5.67324e-21)
(0.349134 -25.7323 -3.11171e-21)
(0.275165 -25.4473 0)
(0.197906 -25.2755 0)
(0.204626 -25.0909 -5.53497e-25)
(0.131812 -25.0132 -7.85573e-22)
(0.206268 -24.716 3.03736e-22)
(0.130307 -24.1504 0)
(0.225131 -21.5469 3.11216e-22)
(0.0609528 -15.4493 3.00502e-22)
(0.0859059 -6.34492 2.1261e-23)
(5.76172 -32.3309 -1.2662e-19)
(4.73967 -30.9305 1.18401e-19)
(3.3974 -30.0362 -2.86762e-20)
(2.68421 -29.2167 0)
(2.13177 -28.6325 -1.87903e-20)
(1.58018 -27.8138 2.72228e-20)
(1.25931 -27.2363 -1.49386e-20)
(0.93268 -26.755 9.91734e-21)
(0.727521 -26.3468 0)
(0.54249 -25.968 0)
(0.409865 -25.6923 4.11819e-21)
(0.32319 -25.4195 -4.13307e-21)
(0.236856 -25.2581 0)
(0.235097 -25.0816 2.446e-21)
(0.156215 -25.0075 -7.02141e-22)
(0.222878 -24.7279 -1.33896e-22)
(0.151842 -24.167 1.34334e-22)
(0.229052 -21.5777 -4.22531e-22)
(0.0587105 -15.4636 -1.69626e-22)
(0.0765662 -6.34178 -5.16164e-23)
(6.44512 -31.9704 0)
(5.31554 -30.649 -6.24254e-20)
(3.91266 -29.8393 6.26245e-20)
(3.09359 -29.1316 0)
(2.46811 -28.5941 0)
(1.83882 -27.7932 -2.62686e-20)
(1.48462 -27.2258 2.63499e-20)
(1.11342 -26.7371 0)
(0.88596 -26.3334 6.59728e-21)
(0.669327 -25.9621 -1.17274e-20)
(0.516911 -25.6869 5.12564e-21)
(0.408964 -25.4174 2.81235e-21)
(0.308467 -25.2559 -2.81993e-21)
(0.284538 -25.0786 0)
(0.194111 -25.0117 0)
(0.248743 -24.7348 -6.80591e-23)
(0.175151 -24.1849 2.60612e-24)
(0.23462 -21.6051 -5.61803e-23)
(0.0634484 -15.4842 1.87886e-22)
(0.0666803 -6.34302 -6.38418e-23)
(6.95642 -31.4631 7.52292e-20)
(5.63906 -30.3366 -7.53115e-20)
(4.16283 -29.5599 -7.38125e-20)
(3.3006 -28.8887 8.7415e-20)
(2.65153 -28.3884 -7.05252e-20)
(1.98712 -27.6262 6.0524e-21)
(1.61649 -27.099 2.53726e-20)
(1.21505 -26.6421 0)
(0.972043 -26.2611 0)
(0.742248 -25.9018 5.23911e-21)
(0.575484 -25.6407 0)
(0.455922 -25.3841 0)
(0.34452 -25.2327 0)
(0.312515 -25.0639 0)
(0.215262 -25.0024 0)
(0.265212 -24.7389 0)
(0.195429 -24.2019 1.90992e-22)
(0.240436 -21.6415 -1.91148e-22)
(0.0633754 -15.508 7.71208e-23)
(0.0487644 -6.34792 -7.71607e-23)
(7.58759 -31.0218 -7.37454e-20)
(6.18348 -30.0101 -1.03835e-19)
(4.6486 -29.3373 -2.04415e-20)
(3.69067 -28.7815 -1.18917e-20)
(2.97159 -28.3316 2.39263e-20)
(2.23575 -27.5937 4.33122e-20)
(1.83178 -27.077 1.05711e-20)
(1.39044 -26.614 0)
(1.12312 -26.2418 -5.27109e-21)
(0.863898 -25.8896 1.1529e-20)
(0.677673 -25.6287 3.78365e-21)
(0.537759 -25.3756 2.57214e-21)
(0.411673 -25.224 0)
(0.357293 -25.0548 9.4029e-22)