/*--------------------------------*- C++ -*----------------------------------*\
  =========                 |
  \\      /  F ield         | OpenFOAM: The Open Source CFD Toolbox
   \\    /   O peration     | Website:  https://openfoam.org
    \\  /    A nd           | Version:  9
     \\/     M anipulation  |
\*---------------------------------------------------------------------------*/
FoamFile
{
    format      ascii;
    class       volScalarField;
    location    "1";
    object      nut;
}
// * * * * * * * * * * * * * * * * * * * * * * * * * * * * * * * * * * * * * //

dimensions      [0 2 -1 0 0 0 0];

internalField   nonuniform List<scalar> 
46400
(
0.0184186
0.00657097
0.00191877
0.00130006
0.00130766
0.00127873
0.00124321
0.00121765
0.00113468
0.00111361
0.00108653
0.00104739
0.00100835
0.000982537
0.000962871
0.00096355
0.000918339
0.000852917
0.00119717
0.000976311
0.018148
0.00588803
0.00169849
0.00139895
0.00136339
0.00134232
0.00125928
0.0012292
0.00115266
0.00113594
0.00108596
0.00105079
0.00101111
0.000968493
0.0009274
0.000900475
0.000836444
0.000755045
0.00101084
0.000921597
0.0177402
0.00460026
0.00121402
0.00141102
0.00130933
0.00132084
0.00127193
0.00125293
0.00116989
0.0011376
0.00111568
0.00107695
0.00104362
0.00101005
0.000978236
0.000960367
0.000895019
0.000832089
0.00112954
0.000963091
0.0173108
0.00417481
0.00125658
0.0014892
0.00137514
0.00135771
0.00128013
0.00126143
0.00119045
0.0011518
0.00110262
0.00107233
0.00103496
0.000997488
0.000964945
0.000936968
0.00088594
0.000820494
0.00112538
0.00100949
0.0167698
0.00415543
0.00127439
0.0014681
0.00134817
0.00135924
0.00130164
0.0012868
0.0012194
0.00117857
0.0011467
0.00110232
0.00107496
0.00103862
0.00101458
0.000995092
0.000930705
0.000881714
0.00117722
0.00102955
0.0161551
0.00477965
0.00139155
0.00155968
0.00142401
0.00138799
0.00130853
0.00128531
0.00122814
0.0011816
0.00113937
0.00110086
0.00106534
0.00103158
0.0010016
0.000991029
0.000943078
0.000868794
0.00117646
0.00108261
0.01557
0.00471265
0.0014311
0.00153089
0.00141078
0.00140455
0.00133465
0.00130442
0.00125663
0.00120744
0.00117548
0.00112825
0.0010945
0.00105571
0.00103059
0.00100963
0.000972865
0.000890081
0.00115092
0.00107524
0.014501
0.00398734
0.00146858
0.00158987
0.00144702
0.00139449
0.00133274
0.00128497
0.00124333
0.00119797
0.00116258
0.0011257
0.00109312
0.00104953
0.00101885
0.00100583
0.000968556
0.000919241
0.00113884
0.00107009
0.0130354
0.00311534
0.00146855
0.00152536
0.00145179
0.0014005
0.00134331
0.0012965
0.00126059
0.00121077
0.00118313
0.00113351
0.001097
0.0010576
0.00101434
0.000987493
0.000952712
0.000900571
0.00111177
0.00104059
0.0105347
0.0025844
0.00154353
0.00151231
0.00144686
0.00138241
0.0013313
0.00125353
0.00122145
0.00119028
0.00117207
0.00115992
0.0011253
0.00108255
0.00104765
0.000997293
0.000953256
0.000898016
0.00106173
0.00103892
0.00832619
0.00208963
0.00152147
0.00148997
0.00143915
0.00138557
0.0013634
0.00128862
0.0012047
0.00113935
0.00111699
0.00109114
0.0011042
0.00107494
0.0010571
0.0010275
0.000960949
0.00091101
0.00101574
0.000967962
0.00691173
0.00185773
0.00150913
0.00147162
0.0014609
0.00138614
0.00137806
0.00134516
0.0013058
0.00119426
0.00113551
0.00109074
0.00106376
0.00106904
0.00104664
0.00105148
0.00101363
0.000962292
0.00106728
0.000992396
0.00567741
0.00168703
0.00151792
0.00143875
0.00140145
0.00134069
0.00133397
0.00129392
0.0012846
0.00123812
0.00114512
0.00108463
0.00102936
0.000995369
0.000991963
0.000972383
0.000982904
0.000945486
0.00106774
0.00102603
0.00504298
0.00164908
0.0015192
0.00144917
0.00144251
0.00132057
0.00131411
0.00131362
0.00130471
0.00129582
0.00126353
0.00118066
0.00112551
0.00104265
0.00100161
0.000955064
0.000917344
0.000888915
0.00095757
0.000949643
0.00454364
0.00167549
0.00158642
0.00148532
0.00147002
0.0013293
0.00121159
0.00116244
0.00116108
0.00115745
0.00118174
0.00117462
0.00115678
0.00112562
0.00108164
0.001051
0.000995572
0.00094451
0.00100262
0.000935452
0.00438932
0.00163564
0.00151277
0.00147642
0.0015794
0.00154812
0.00144485
0.00130881
0.00122233
0.0011512
0.00111084
0.00108299
0.0010682
0.00104552
0.00102894
0.00100476
0.000980686
0.000930944
0.00098279
0.000938261
0.00367001
0.00164135
0.0014049
0.00123401
0.0012849
0.00135961
0.00141859
0.00139361
0.00135427
0.0012895
0.00123612
0.00117793
0.00113604
0.00109681
0.00106304
0.00103666
0.00100072
0.000958128
0.00100264
0.000940381
0.00371579
0.00182969
0.00183259
0.00156107
0.00135743
0.00127276
0.00125122
0.00122075
0.001215
0.00118257
0.0011594
0.00112489
0.00109203
0.00106143
0.00103188
0.00100923
0.000978457
0.000928794
0.000981562
0.000914889
0.00265183
0.0013197
0.0015163
0.00153817
0.00152228
0.00141286
0.00137185
0.00131236
0.00127553
0.00123194
0.00120412
0.0011615
0.00113346
0.00108757
0.00105916
0.00102097
0.000990297
0.000926028
0.000965813
0.000903921
0.000676097
0.000600227
0.00139751
0.00129292
0.00143615
0.00132034
0.00133041
0.00124927
0.00124263
0.00117611
0.0011645
0.00111364
0.00110012
0.00105779
0.00103987
0.00100527
0.000981336
0.000919615
0.000969753
0.000889226
2.48261e-06
0.00185733
0.00634982
0.0105386
0.00998035
0.0058823
0.00235822
0.000597015
0.000109208
0.000185846
0.000273708
0.000285818
0.000221631
0.000252508
0.000279467
0.000298105
0.000269002
0.00025982
0.00027487
0.000342586
0.000415376
0.00385261
0.008919
0.0111658
0.00771507
0.00349186
0.000914898
0.00010813
0.000151698
0.000251559
0.00028522
0.000277126
0.000274973
0.000285842
0.000252682
0.00024856
0.000269543
0.000331233
0.000314792
0.000342304
0.00077632
0.00655431
0.0107971
0.0100594
0.0054298
0.00161136
0.000109704
0.000107027
0.000261406
0.000323822
0.000326637
0.000317634
0.000272292
0.000273652
0.000274111
0.000330875
0.000351533
0.000325508
0.000301498
0.000364332
0.00207439
0.00879034
0.011622
0.00826871
0.00328906
0.000485882
0.000151588
0.00027992
0.000351476
0.000354701
0.000319479
0.000297047
0.000285805
0.000330153
0.000322479
0.000345304
0.000321213
0.000336303
0.000362665
0.000407473
0.00262114
0.0100203
0.0114449
0.00638931
0.00148887
0.000171405
0.000285986
0.000384581
0.000391944
0.000341559
0.000360073
0.000358983
0.000349218
0.000353432
0.000331652
0.000379036
0.000364448
0.000386503
0.000389595
0.000414814
0.00471745
0.0113378
0.0104036
0.00421206
0.000397135
0.00016302
0.000395469
0.000429147
0.000403057
0.000428322
0.000412951
0.000372791
0.000353434
0.000385396
0.000384584
0.000420967
0.000374067
0.00041473
0.000436449
0.00045153
0.00702478
0.0120018
0.00927656
0.00222089
0.000224351
0.000353983
0.000532208
0.000542794
0.000478994
0.00045454
0.000437149
0.000420167
0.000431753
0.000441772
0.000417852
0.000447782
0.000401713
0.00047369
0.00047097
0.00046108
0.00949168
0.0123078
0.00810578
0.000906657
0.000322107
0.000575539
0.000633303
0.000535489
0.000513077
0.000538021
0.000515805
0.000476579
0.000460302
0.000470198
0.000459043
0.000490138
0.000444944
0.000528797
0.000509684
0.000489504
0.0119911
0.0122402
0.00627086
0.000455784
0.000395606
0.000651159
0.00069506
0.000646288
0.000614736
0.000580912
0.000541229
0.000512526
0.000523284
0.000528529
0.000511574
0.000528779
0.000482884
0.000579252
0.000536936
0.000516499
0.0141565
0.0121735
0.00457698
0.000333582
0.000634206
0.000804664
0.000778562
0.000671414
0.000634235
0.000650695
0.000616494
0.00057957
0.000567171
0.000561749
0.000540453
0.000555627
0.000521756
0.000611386
0.000553065
0.000545372
0.0156552
0.0118621
0.00287833
0.000348202
0.000759725
0.000834461
0.000802099
0.000762611
0.000739401
0.000700254
0.000653311
0.000620401
0.000618877
0.00061483
0.00060114
0.000605514
0.000568143
0.000659623
0.000578541
0.000565958
0.0163391
0.011569
0.00199334
0.000357331
0.000894012
0.000942011
0.000913482
0.000796447
0.000755726
0.000762822
0.00071713
0.000681007
0.000669352
0.0006575
0.000633723
0.000634504
0.000610495
0.000688338
0.000585464
0.000596568
0.0171244
0.0110827
0.00131827
0.000533456
0.000985239
0.00094332
0.000936331
0.000875853
0.000850815
0.000812733
0.000763991
0.000730825
0.00071539
0.000703686
0.000689054
0.000681568
0.000655992
0.000724942
0.000599904
0.000621175
0.0178823
0.0107358
0.000999206
0.000752985
0.00108847
0.00103089
0.00103011
0.000908865
0.000864892
0.000869543
0.000814927
0.000778439
0.000763512
0.000749282
0.000725272
0.000711418
0.000691178
0.000737131
0.000589673
0.000647236
0.0181899
0.0102861
0.00158447
0.000855613
0.00114402
0.00102713
0.00104908
0.000988337
0.000945951
0.000915747
0.000869485
0.000836403
0.000809913
0.000794126
0.0007763
0.000758365
0.000746665
0.000777641
0.000603196
0.000676954
0.0186505
0.00992742
0.00180973
0.0010342
0.00122453
0.00113838
0.00111673
0.00101703
0.000965243
0.000966783
0.000907809
0.00087125
0.000850755
0.000836035
0.000812978
0.000787142
0.000778246
0.000788092
0.000584985
0.000700282
0.0187209
0.00957438
0.00236732
0.0010792
0.00124147
0.00112091
0.00114092
0.00108653
0.00102839
0.00100711
0.000964844
0.000931258
0.000898299
0.000879885
0.000858356
0.000836089
0.000844353
0.000830729
0.00059444
0.000735504
0.0189126
0.00934757
0.00231698
0.00116549
0.00132396
0.00121999
0.00118243
0.00111038
0.00104782
0.00104955
0.00099224
0.000956564
0.000932422
0.000918128
0.000891977
0.000860888
0.000875297
0.00085391
0.000584583
0.000767
0.0187774
0.008668
0.00192935
0.00117208
0.00130487
0.00121336
0.0012058
0.00117
0.00109702
0.00108022
0.00104511
0.00101113
0.000976928
0.000958115
0.000936346
0.000922236
0.000940554
0.000926259
0.000627364
0.000767313
0.0187119
0.00781989
0.00222
0.00127144
0.0013568
0.0012962
0.00122893
0.00118375
0.00111487
0.00111502
0.00106437
0.0010321
0.00100988
0.000994239
0.000969687
0.000968648
0.000972045
0.000975026
0.000771813
0.000846426
0.00290079
0.00205364
0.00194485
0.00165816
0.00155307
0.00131231
0.0013198
0.00119989
0.00111031
0.00109253
0.000925673
0.000856389
0.000772292
0.000736148
0.000614908
0.000687085
0.00111504
0.00439207
0.0100762
0.0211998
0.00273142
0.00208761
0.00207022
0.0016029
0.00160404
0.00149053
0.00143038
0.00122104
0.00109596
0.00106858
0.000890248
0.000829112
0.000750538
0.000711835
0.000599345
0.000662236
0.00109255
0.00452334
0.0101031
0.020972
0.00304671
0.00216167
0.00210151
0.00167267
0.0016293
0.00135267
0.00132061
0.00119638
0.00110177
0.0010828
0.000916229
0.000858043
0.000771859
0.00073003
0.000609969
0.000683448
0.00109518
0.00458907
0.0101445
0.0208178
0.00295159
0.00222437
0.00222662
0.00163717
0.00166553
0.00151099
0.00143181
0.00122228
0.00109008
0.00106097
0.000885648
0.000832485
0.000750501
0.000706528
0.000594331
0.000658014
0.00107127
0.00469773
0.0101686
0.0206023
0.00332954
0.00232993
0.00221235
0.00167117
0.00170374
0.00139933
0.00133094
0.0011959
0.00109511
0.00107399
0.000912469
0.00086224
0.000772328
0.000725764
0.0006067
0.000679469
0.00107017
0.00472263
0.0102043
0.0204616
0.00335733
0.00236738
0.00231958
0.00168998
0.00172989
0.00152855
0.00143363
0.00122327
0.00108606
0.00105435
0.000885927
0.000838079
0.0007519
0.000703758
0.000591289
0.000653428
0.00104495
0.00481348
0.010224
0.0202538
0.00358885
0.00248868
0.00230197
0.00169465
0.0017522
0.00144685
0.0013473
0.00119929
0.00109138
0.00106679
0.000913186
0.000867737
0.00077431
0.000724055
0.000605532
0.000674432
0.0010404
0.00482863
0.0102561
0.0201251
0.00371786
0.00248376
0.00238486
0.00176077
0.00178459
0.00155484
0.00143032
0.00122305
0.0010844
0.00104904
0.00088956
0.000844935
0.0007558
0.000704473
0.000591425
0.000647676
0.00101201
0.00490755
0.0102691
0.0199289
0.00392915
0.00260695
0.00238889
0.00173948
0.00177701
0.00149907
0.00135903
0.00120451
0.0010912
0.00106099
0.00091655
0.000873771
0.000778908
0.000726267
0.000608484
0.000668815
0.001003
0.00490919
0.0103009
0.0198035
0.00410463
0.00258995
0.00243528
0.0018292
0.00181615
0.0015937
0.00142207
0.00122263
0.0010861
0.00104437
0.000895267
0.00085276
0.0007632
0.000709597
0.000596551
0.000642845
0.000970159
0.00497169
0.0103051
0.0196176
0.00420659
0.00275353
0.00246278
0.00180232
0.00178688
0.00155214
0.00136447
0.00120983
0.00109482
0.00105587
0.000921089
0.000880407
0.000786898
0.000733277
0.000616943
0.000664324
0.00095911
0.00495992
0.0103418
0.0194931
0.004371
0.00272934
0.00248899
0.00189235
0.00182693
0.00163608
0.00141181
0.00122252
0.00109062
0.00104039
0.000901863
0.000861719
0.000774177
0.000720217
0.000608111
0.000639208
0.000924606
0.00499729
0.0103407
0.01932
0.00451803
0.00284991
0.00253262
0.00187286
0.00178287
0.00159687
0.0013643
0.00121476
0.00110114
0.00105148
0.000925784
0.000887785
0.000798168
0.00074595
0.000631557
0.000660895
0.000914269
0.00498278
0.0103818
0.0192018
0.00467909
0.0028279
0.00254163
0.00195961
0.0018247
0.00167037
0.00139936
0.00122378
0.00109774
0.00103684
0.0009083
0.000871608
0.000788152
0.000736739
0.000625721
0.000637483
0.000879921
0.00498932
0.0103814
0.0190509
0.00482233
0.00290364
0.00258508
0.00195188
0.00177173
0.00162504
0.00135847
0.00122009
0.00110907
0.001047
0.000929712
0.000895477
0.000811808
0.000763853
0.000651395
0.000660268
0.000874792
0.00496367
0.0104199
0.0189669
0.00498543
0.00289043
0.00257927
0.00203442
0.00181416
0.00167857
0.00138092
0.00122617
0.00110473
0.00103206
0.000912921
0.000880562
0.000803782
0.000757429
0.000647779
0.000639373
0.000845225
0.00492125
0.0104071
0.0188531
0.00519795
0.00295537
0.00261187
0.00204105
0.00176744
0.00163043
0.00135166
0.00122907
0.00111704
0.0010425
0.000932543
0.00090303
0.000827304
0.000786025
0.000675989
0.000664315
0.000850511
0.00488827
0.0104525
0.018754
0.00527591
0.0029194
0.00258786
0.0021216
0.00181996
0.00167173
0.00137169
0.00124073
0.0011183
0.00103369
0.000920693
0.000893531
0.000823754
0.00078664
0.000679189
0.000650998
0.00082976
0.00482049
0.0104736
0.0187568
0.00524592
0.00300421
0.00255607
0.00209282
0.0017528
0.00159582
0.00132928
0.00122399
0.00111341
0.00103184
0.000927611
0.00090247
0.000839576
0.000807881
0.000706368
0.000670485
0.000864732
0.00475618
0.0104776
0.0186234
0.00597086
0.00321495
0.00259634
0.00218753
0.0018206
0.00164575
0.00137735
0.00127027
0.00114281
0.00104135
0.000930532
0.000905875
0.00084367
0.000813652
0.000709078
0.000665689
0.000862984
0.00448762
0.0102303
0.0181887
0.0165487
0.0324859
0.0183656
0.0234809
0.0199719
0.0175633
0.014905
0.0136273
0.0122325
0.0111709
0.0101161
0.00981329
0.00921585
0.00919322
0.00820129
0.00813398
0.012443
0.043064
0.0973589
0.159843
0.0314902
0.0231172
0.0200116
0.0181051
0.0165377
0.0142053
0.0129454
0.0118137
0.0103686
0.00882553
0.00883758
0.00848287
0.00799746
0.00728005
0.00709636
0.005504
0.012968
0.0502881
0.0956472
0.146177
0.0161022
0.0154903
0.0153472
0.0130183
0.0120591
0.0111895
0.0101442
0.00923481
0.00841557
0.00771047
0.00753482
0.00741301
0.00717157
0.00715033
0.00675269
0.00583129
0.0142756
0.0507211
0.0944789
0.142101
0.0131584
0.0112127
0.00932374
0.00921342
0.00944131
0.00901867
0.00875597
0.00824713
0.00797995
0.0072563
0.00700128
0.00662031
0.00646381
0.00625229
0.00630183
0.00406168
0.00818533
0.0529893
0.0941783
0.130815
0.00610177
0.00744321
0.00885123
0.00825282
0.0070543
0.00673672
0.00657356
0.00638716
0.00606276
0.0058408
0.00572875
0.00583416
0.00588918
0.00561208
0.00559384
0.00397583
0.00888912
0.0530939
0.0942261
0.128717
0.00593443
0.00623427
0.0052385
0.00486706
0.00510787
0.00535717
0.00559229
0.00570528
0.00585296
0.00542975
0.00526046
0.00508467
0.00514077
0.0050706
0.00526276
0.00349457
0.0066452
0.052283
0.0950329
0.124913
0.0031953
0.0037227
0.00451634
0.00507483
0.00462345
0.00430308
0.00407662
0.00420796
0.0042701
0.00434898
0.00432384
0.00449835
0.00480252
0.00455609
0.00463973
0.00380778
0.00521063
0.0461518
0.0960836
0.124866
0.00296799
0.00329619
0.00316558
0.00277355
0.00274953
0.00322281
0.00357552
0.00373694
0.00399946
0.00400636
0.00388674
0.00385672
0.00405393
0.00429149
0.00426455
0.00324769
0.0066739
0.0392434
0.0965513
0.127111
0.00153074
0.00208492
0.00233204
0.00280824
0.00306659
0.00305428
0.00274261
0.00278449
0.00302609
0.00367619
0.00350569
0.00385461
0.00389532
0.00438263
0.00424651
0.00335754
0.00365146
0.0292767
0.0972704
0.132553
0.00152903
0.00172438
0.0018266
0.0018373
0.0017421
0.00210793
0.00248273
0.00286551
0.0028537
0.00308221
0.00345216
0.00351227
0.00349854
0.00389515
0.00424493
0.00423873
0.0042289
0.0213091
0.0954072
0.140103
0.000996543
0.00117661
0.0013124
0.00155945
0.00191227
0.00215452
0.00222684
0.00227281
0.0022955
0.00260612
0.00282104
0.00324696
0.00327454
0.00346926
0.0035541
0.00434705
0.00372359
0.0140404
0.0910618
0.153162
0.000813141
0.00098687
0.0010556
0.00105872
0.00104114
0.00129593
0.0016313
0.00208991
0.00219234
0.00219594
0.0024497
0.00271078
0.00291938
0.00335429
0.00349664
0.00414315
0.00374997
0.00771604
0.0692534
0.166797
0.000583349
0.000759229
0.000920603
0.00111939
0.00128992
0.00135964
0.00132715
0.00143069
0.00180288
0.00198792
0.00214938
0.00244025
0.00264677
0.00311924
0.00344627
0.00346855
0.00412657
0.00493335
0.0540044
0.186418
0.000507417
0.000593107
0.000646178
0.00072913
0.000758962
0.000994623
0.00114731
0.00123714
0.00134592
0.00167457
0.00177177
0.00200067
0.00237644
0.00262951
0.00302957
0.00333261
0.00420254
0.00899163
0.0278931
0.158845
0.000497242
0.000589606
0.000644206
0.000773671
0.000827998
0.00088873
0.00095153
0.00112717
0.00111953
0.0013154
0.00150536
0.00171809
0.00176834
0.00200657
0.00215168
0.00283323
0.0028527
0.00570578
0.0157363
0.111754
0.000317786
0.000440382
0.000472795
0.000538159
0.000628866
0.000751034
0.000826989
0.000975755
0.00105268
0.00117013
0.0012047
0.00143505
0.00149117
0.00168922
0.00177066
0.00205119
0.00235169
0.00315577
0.00348664
0.0650865
0.000369554
0.000411374
0.000443999
0.000485466
0.000490602
0.000546622
0.000590964
0.000660041
0.000707539
0.000794873
0.000817138
0.000917793
0.000902979
0.00111555
0.00111482
0.00130156
0.0013606
0.00230357
0.00376552
0.0352292
0.000265107
0.000302826
0.000335341
0.000379969
0.000423051
0.000468381
0.000510521
0.000526186
0.000560492
0.000659204
0.000686693
0.000745128
0.000769374
0.000913121
0.000881125
0.0011947
0.00107776
0.000954171
0.000720391
0.0197885
0.00018963
0.000201481
0.000201652
0.000211111
0.000244393
0.000314344
0.000321965
0.000384762
0.0004165
0.000455523
0.000472086
0.000524369
0.00053857
0.000638691
0.000707722
0.000601585
0.00057374
0.000651887
0.00128541
0.00635912
0.000105314
0.000154836
0.000167433
0.00023431
0.000281024
0.000314471
0.000343883
0.000402503
0.000431108
0.000477589
0.000515134
0.000563899
0.000594362
0.00065362
0.000657957
0.000555843
0.000556912
0.000618159
0.000531578
0.00520897
0.013896
0.0139461
0.0138697
0.0137676
0.0137346
0.0137312
0.0136743
0.0138328
0.0128585
0.013223
0.0124854
0.0123836
0.0124456
0.0112716
0.0113085
0.00972343
0.00951456
0.00951076
0.00937442
0.00840478
0.00692759
0.00691902
0.00686773
0.0068831
0.00679639
0.00678233
0.00674249
0.0064995
0.00674256
0.00662785
0.006396
0.00784879
0.00705398
0.00653253
0.00612275
0.0067914
0.00678163
0.00686411
0.00681336
0.00759065
0.00426681
0.00427485
0.00433974
0.00436314
0.0043851
0.00447338
0.00439201
0.00460617
0.00447833
0.00444593
0.00456646
0.00417838
0.00407347
0.00413579
0.00405179
0.00424394
0.0037497
0.00390638
0.00334452
0.00364619
0.00276155
0.00276653
0.00274313
0.00270213
0.00270481
0.00265972
0.00264418
0.00260965
0.00255397
0.00258407
0.00241755
0.00265842
0.00259339
0.00271336
0.00270763
0.00279165
0.00269272
0.00300027
0.00268783
0.00300383
0.00171801
0.00171425
0.00171785
0.00170945
0.0017209
0.00172033
0.00172202
0.00177019
0.00175268
0.00177359
0.00190257
0.00185186
0.00180586
0.00181176
0.00177743
0.00190449
0.00185108
0.00188318
0.00170286
0.00170176
0.00123592
0.00123306
0.00123609
0.00123163
0.00124145
0.00123677
0.00123963
0.00123968
0.00121598
0.00125167
0.00121651
0.00123355
0.0012253
0.0012676
0.00126896
0.00132249
0.00121887
0.00136011
0.00133182
0.00128896
0.000750698
0.000750547
0.000751468
0.000754075
0.000757709
0.000760674
0.000758457
0.000763464
0.000767741
0.000777653
0.000786485
0.000811511
0.00081294
0.000840068
0.000819133
0.000865048
0.000907944
0.000974808
0.000874401
0.000781774
0.000543181
0.000544314
0.000546503
0.0005519
0.00055581
0.000559193
0.000560476
0.000570437
0.000574239
0.000579828
0.000582286
0.000598734
0.000601878
0.000610205
0.000590563
0.000619407
0.000622302
0.000656482
0.000590866
0.000537979
0.000297727
0.000298386
0.000300898
0.00030358
0.00030516
0.00030401
0.000306309
0.000312778
0.000321433
0.000332986
0.000343217
0.000368467
0.000379226
0.000392128
0.000379863
0.000420936
0.000424363
0.00047947
0.000409306
0.000316982
0.000195618
0.000196944
0.000200054
0.000202382
0.000202429
0.000202315
0.000206604
0.000213138
0.000218015
0.000221623
0.000225891
0.000240639
0.000239935
0.000239469
0.000220421
0.000221603
0.000208536
0.000222196
0.000293758
0.00033248
6.97851e-05
7.09107e-05
7.56666e-05
8.16537e-05
8.4458e-05
8.87386e-05
9.96891e-05
0.000112279
0.000122474
0.000130989
0.000142764
0.000169466
0.000174106
0.000185414
0.000142712
0.000171163
0.000158509
0.000148277
9.55907e-05
0.000108414
7.06833e-06
1.3042e-05
1.84816e-05
3.11952e-05
3.85254e-05
4.97173e-05
6.33673e-05
7.199e-05
8.08464e-05
8.44736e-05
8.99573e-05
7.82538e-05
7.76437e-05
0.000102062
0.000135131
0.00014296
0.000162538
0.000186318
0.00016591
0.000180601
3.66277e-05
3.53723e-05
3.8388e-05
4.55686e-05
4.64908e-05
4.43617e-05
4.71826e-05
5.37268e-05
5.47195e-05
5.82774e-05
6.19189e-05
7.74024e-05
9.12916e-05
8.08306e-05
6.28984e-05
7.97427e-05
0.000106675
0.000107951
0.000115311
0.000124661
5.83687e-05
5.80907e-05
5.82765e-05
5.86794e-05
6.24658e-05
6.7101e-05
7.13933e-05
6.92188e-05
7.54822e-05
7.79278e-05
8.77789e-05
8.85246e-05
9.06083e-05
9.08579e-05
0.000104615
9.38183e-05
9.88994e-05
9.69578e-05
0.000104393
0.000113274
6.88413e-05
6.94442e-05
7.13853e-05
7.28999e-05
7.15559e-05
7.21355e-05
7.42183e-05
7.48455e-05
7.4168e-05
7.4527e-05
7.48493e-05
8.04934e-05
8.38808e-05
8.774e-05
8.93887e-05
9.49641e-05
9.84064e-05
0.000101627
0.000105398
0.0001141
6.75067e-05
6.88428e-05
7.02758e-05
7.10972e-05
7.33587e-05
7.47663e-05
7.57456e-05
7.77193e-05
7.95947e-05
7.90664e-05
7.76643e-05
7.52928e-05
7.68427e-05
7.69641e-05
8.0253e-05
7.94957e-05
8.43072e-05
8.26651e-05
8.92854e-05
9.16252e-05
6.39886e-05
6.45004e-05
6.36964e-05
6.15751e-05
6.23351e-05
6.43039e-05
6.67671e-05
6.89266e-05
6.92756e-05
7.1809e-05
7.20648e-05
7.19322e-05
7.23964e-05
6.50141e-05
7.00591e-05
5.94189e-05
6.90883e-05
5.61648e-05
7.27084e-05
8.44368e-05
4.68336e-05
4.60688e-05
4.69035e-05
4.75924e-05
4.76301e-05
4.63644e-05
4.65508e-05
4.45657e-05
4.59444e-05
4.44567e-05
4.55974e-05
4.65913e-05
4.91428e-05
5.12417e-05
5.22875e-05
5.24861e-05
5.51561e-05
5.58484e-05
5.75061e-05
5.99603e-05
2.36967e-05
2.36516e-05
2.43833e-05
2.36106e-05
2.49711e-05
2.44325e-05
2.6351e-05
2.93666e-05
3.36612e-05
3.34682e-05
3.63811e-05
3.78026e-05
3.92696e-05
4.07981e-05
3.90851e-05
4.24187e-05
4.10084e-05
4.46145e-05
4.16704e-05
4.66061e-05
9.1041e-06
1.00702e-05
1.20852e-05
1.17518e-05
1.40762e-05
1.39592e-05
1.66095e-05
1.62153e-05
1.78167e-05
1.67991e-05
1.93065e-05
1.84381e-05
2.08513e-05
2.06699e-05
2.23902e-05
2.31294e-05
2.44562e-05
2.57739e-05
2.47692e-05
2.98817e-05
0.000975854
0.00119403
0.00085351
0.000920683
0.000967068
0.000966462
0.000983861
0.00100904
0.00104638
0.00108154
0.00110974
0.00113373
0.00121631
0.00124427
0.00128104
0.00131345
0.00130591
0.00192599
0.00658722
0.0184293
0.000926112
0.00101106
0.000757756
0.000837444
0.000899988
0.000926103
0.000966693
0.00101073
0.00104995
0.00108333
0.00113353
0.00114929
0.00122486
0.00125894
0.00134027
0.00135627
0.00139612
0.00167875
0.0058639
0.0181518
0.000959419
0.00112275
0.000831257
0.000892966
0.000959513
0.000978364
0.00100873
0.00104197
0.0010733
0.00111089
0.00113535
0.00116968
0.0012525
0.00127392
0.00132203
0.00131645
0.00141813
0.00122191
0.00462005
0.0177442
0.00101426
0.00112443
0.00082242
0.000885748
0.000936471
0.00096347
0.000995118
0.00103371
0.00107046
0.00110153
0.00115122
0.00118841
0.00125853
0.00128043
0.00135487
0.00136923
0.00148482
0.00125362
0.0041525
0.0173165
0.00102433
0.00116614
0.00087789
0.000925099
0.000990082
0.0010111
0.0010348
0.00107219
0.00110006
0.00114561
0.00117795
0.00121951
0.00128654
0.00130283
0.00135917
0.00135304
0.00146941
0.00127914
0.00414977
0.0167725
0.00107805
0.00116705
0.000867839
0.000939422
0.000989193
0.00100032
0.00103054
0.00106742
0.0011021
0.00114042
0.00118048
0.00122601
0.00128269
0.00130875
0.00138435
0.00141883
0.0015556
0.00139249
0.00477352
0.0161503
0.00106527
0.0011436
0.000891238
0.000971717
0.0010091
0.0010313
0.00105828
0.001098
0.00112938
0.00117619
0.00120722
0.0012582
0.00130552
0.00133635
0.00140357
0.00141393
0.00153195
0.00142698
0.00468978
0.0155561
0.0010878
0.00115199
0.000924599
0.000974657
0.00101008
0.00102549
0.00105564
0.00109701
0.00112578
0.0011636
0.00119758
0.00124351
0.00128385
0.00133347
0.00139196
0.00144833
0.0015881
0.00147034
0.00403088
0.0144986
0.00104249
0.00110342
0.000898006
0.000951165
0.000989927
0.00101894
0.00105974
0.00109806
0.00113486
0.0011861
0.00121215
0.00126387
0.00129784
0.00134547
0.00140139
0.00145608
0.001521
0.00146846
0.00314177
0.0130921
0.00105177
0.00107216
0.00090829
0.000966046
0.00100989
0.0010561
0.00108782
0.00113159
0.00116447
0.00117649
0.00119268
0.00122527
0.00125358
0.00133453
0.00138324
0.00144822
0.00151218
0.00154629
0.00260929
0.0106396
0.000986797
0.00102068
0.000915817
0.000966501
0.00102924
0.00105862
0.00107814
0.00110752
0.00109397
0.00112036
0.0011419
0.00120606
0.0012859
0.00136573
0.00138394
0.00144038
0.00148402
0.00151739
0.00211826
0.00847465
0.00100884
0.00106744
0.000968271
0.00102047
0.0010589
0.00105595
0.00107575
0.00107032
0.0010938
0.00113774
0.00119196
0.00130014
0.00134492
0.00138417
0.00138721
0.00146246
0.00146922
0.00151099
0.00188737
0.00707327
0.00104567
0.00106576
0.000953211
0.000987993
0.000976633
0.000991805
0.0009933
0.00102576
0.00107762
0.00114035
0.00123199
0.00128675
0.00130143
0.00133561
0.00133458
0.00139383
0.00143118
0.00152337
0.00170977
0.00583415
0.000962884
0.000944697
0.000889004
0.000913168
0.000949719
0.000995125
0.0010395
0.00112076
0.00118211
0.00126709
0.00130298
0.00131532
0.00131404
0.00130866
0.00131161
0.00144459
0.00145876
0.00152576
0.00166074
0.00518527
0.000946833
0.000990087
0.000948053
0.000994762
0.00105196
0.00108391
0.00113103
0.00116207
0.00118563
0.00118641
0.00116613
0.00115893
0.00115935
0.00121272
0.00133712
0.00148914
0.00149082
0.00159267
0.00167367
0.00465494
0.000956903
0.000980735
0.000943988
0.000988521
0.00101422
0.00103659
0.00105571
0.00107564
0.00109113
0.00111378
0.00115658
0.00122176
0.00132049
0.00145285
0.00156461
0.0015815
0.00147338
0.00150927
0.00160915
0.00436602
0.000958708
0.00100091
0.000971468
0.00100668
0.00104365
0.00106594
0.0011033
0.00113559
0.00118245
0.00123393
0.00129627
0.00135769
0.00140831
0.00142141
0.0013736
0.00128363
0.0012399
0.00141462
0.00160588
0.00362443
0.000932544
0.000977217
0.000939607
0.000981626
0.0010161
0.00103396
0.00106948
0.00109309
0.00113532
0.00116069
0.00119954
0.00121483
0.00124017
0.00124369
0.00129283
0.00134423
0.00158081
0.00181703
0.00179102
0.00362062
0.000922678
0.000970221
0.000941626
0.000996627
0.00102882
0.00106279
0.00109515
0.00113633
0.00117098
0.00120848
0.00124627
0.00128063
0.00133822
0.0013834
0.00146848
0.00154198
0.00166664
0.00152998
0.00145379
0.00224231
0.000918833
0.000966927
0.000936289
0.000987042
0.00101432
0.0010426
0.00106835
0.0011027
0.0011286
0.00116965
0.00119869
0.00125367
0.00128684
0.0013517
0.00139429
0.00146209
0.00149674
0.00149557
0.00170024
0.00208815
0.00034726
0.000278856
0.000268655
0.000277022
0.000301045
0.000277279
0.000248171
0.000215711
0.000273494
0.000258084
0.000175187
0.000105328
0.000596166
0.00236453
0.00586547
0.00995838
0.0105425
0.00635514
0.00182844
2.07076e-23
0.000344888
0.000315649
0.00033125
0.000274623
0.000251419
0.000253828
0.0002817
0.000269975
0.000273201
0.00027695
0.000247674
0.000152165
0.000109638
0.00091602
0.00351238
0.00770836
0.0111524
0.00889868
0.0038507
0.000396993
0.000369076
0.000310641
0.000330257
0.000358728
0.000340494
0.00027871
0.000273677
0.000265363
0.000309077
0.000315949
0.000319245
0.000265494
0.000106178
0.00011165
0.00159751
0.00544171
0.0100638
0.0107955
0.00656898
0.000779858
0.000408795
0.000365632
0.000337192
0.000319839
0.000346184
0.000328768
0.000334053
0.000288216
0.000294856
0.000310261
0.000339032
0.000345418
0.0002847
0.000152257
0.000480675
0.00331286
0.00827826
0.0116297
0.00876452
0.00210952
0.000420097
0.000400193
0.000392892
0.000372923
0.000385346
0.000333966
0.000354125
0.000345929
0.000359395
0.000358733
0.000338278
0.000384288
0.000379178
0.000289756
0.000172626
0.00149867
0.00639627
0.0114457
0.010021
0.00263869
0.000453643
0.000441358
0.000417605
0.000371959
0.000424185
0.000393791
0.000391389
0.00035496
0.000368954
0.000405453
0.000416957
0.00039806
0.000428499
0.000390538
0.000148199
0.000399626
0.00423859
0.010412
0.0113336
0.00470829
0.000462893
0.000479633
0.000482076
0.000408108
0.000448605
0.000417039
0.000443719
0.000432581
0.00042382
0.000435441
0.00044741
0.000469
0.000538551
0.000535009
0.000355591
0.000223683
0.00220301
0.00928757
0.0120075
0.00701861
0.000491874
0.00051664
0.000536611
0.00044689
0.000495758
0.000468567
0.00047547
0.000461121
0.000476071
0.00051513
0.000531459
0.000507878
0.000530757
0.000626754
0.000572372
0.000293152
0.000932631
0.00810796
0.0123057
0.00948571
0.000517941
0.000541883
0.000585068
0.000486795
0.000526585
0.000509469
0.000530651
0.000524939
0.000514532
0.000536796
0.000572648
0.000605486
0.00064079
0.000698015
0.00065431
0.000402284
0.000449647
0.00631969
0.0122515
0.011991
0.000549717
0.000565034
0.00062177
0.000526368
0.000561442
0.00054841
0.000565917
0.000568043
0.000582552
0.000619764
0.000645549
0.000627834
0.000664757
0.000773125
0.000798922
0.000621361
0.000296542
0.00455169
0.0121731
0.0141518
0.000568688
0.000584571
0.000665419
0.000570459
0.00060421
0.000600619
0.000617825
0.000621262
0.000621408
0.00064822
0.000692891
0.000732135
0.000756274
0.000801085