/*--------------------------------*- C++ -*----------------------------------*\
  =========                 |
  \\      /  F ield         | OpenFOAM: The Open Source CFD Toolbox
   \\    /   O peration     | Website:  https://openfoam.org
    \\  /    A nd           | Version:  9
     \\/     M anipulation  |
\*---------------------------------------------------------------------------*/
FoamFile
{
    format      ascii;
    class       volScalarField;
    location    "1";
    object      p;
}
// * * * * * * * * * * * * * * * * * * * * * * * * * * * * * * * * * * * * * //

dimensions      [0 2 -2 0 0 0 0];

internalField   nonuniform List<scalar> 
46400
(
-42.8188
-36.5357
-24.1309
-14.0795
-4.895
3.49605
10.9868
17.8337
24.0194
29.6998
34.8672
39.6193
43.9985
48.0586
51.862
55.4531
58.7899
62.2603
65.9006
66.9897
-17.8369
-11.3851
-0.0380165
9.18393
17.4632
25.1018
31.8513
38.056
43.5606
48.6306
53.2014
57.3617
61.148
64.6025
67.774
70.6722
73.2858
75.8942
78.2975
78.7261
7.49749
13.6041
23.4506
32.1118
39.5554
46.5101
52.6205
58.1821
63.1519
67.6475
71.7
75.3526
78.6497
81.6138
84.2943
86.704
88.8077
90.8728
92.5695
92.156
33.3913
38.7738
47.4689
55.3275
62.0238
68.1959
73.5865
78.4539
82.701
86.5355
89.934
92.9626
95.662
98.0568
100.192
102.071
103.69
105.272
106.617
105.98
58.1119
62.3795
70.4236
77.7778
83.8447
89.4132
94.1979
98.4737
102.204
105.473
108.357
110.864
113.059
114.95
116.594
117.99
119.132
120.248
121.067
120.054
82.0334
86.7442
94.1435
100.687
105.999
110.738
114.768
118.281
121.279
123.881
126.121
128.043
129.695
131.092
132.28
133.258
134.031
134.783
135.372
134.222
106.215
111.303
117.605
123.22
127.662
131.608
134.915
137.763
140.167
142.162
143.848
145.213
146.336
147.212
147.908
148.414
148.73
149.044
149.29
147.912
130.574
136.023
140.817
145.314
148.833
151.84
154.344
156.394
158.091
159.445
160.532
161.363
161.985
162.409
162.679
162.793
162.757
162.735
162.638
161.144
154.055
159.405
163.041
166.422
169.106
171.268
173.036
174.408
175.469
176.214
176.729
176.998
177.091
176.994
176.773
176.408
175.924
175.462
174.93
173.201
177.059
181.014
183.813
186.055
187.932
189.308
190.369
191.072
191.54
191.743
191.766
191.58
191.243
190.742
190.121
189.383
188.53
187.712
186.824
184.898
197.261
200.248
202.471
204.066
205.293
206.059
206.53
206.651
206.543
206.191
205.694
205.033
204.251
203.334
202.316
201.183
199.96
198.749
197.485
195.359
215.339
217.701
219.365
220.363
221.087
221.347
221.347
221.011
220.455
219.655
218.707
217.616
216.437
215.144
213.785
212.322
210.783
209.255
207.661
205.328
231.481
233.25
234.428
234.906
235.118
234.889
234.447
233.701
232.767
231.594
230.277
228.799
227.246
225.604
223.916
222.168
220.36
218.578
216.757
214.276
246.108
247.406
248.116
248.128
247.904
247.243
246.387
245.264
243.982
242.477
240.829
239.029
237.131
235.153
233.128
231.052
228.942
226.855
224.77
222.14
258.532
259.274
259.581
259.179
258.571
257.521
256.287
254.819
253.239
251.508
249.671
247.704
245.652
243.496
241.296
239.029
236.73
234.461
232.227
229.424
270.031
270.187
270.079
269.335
268.422
267.066
265.482
263.628
261.653
259.537
257.357
255.085
252.766
250.387
247.977
245.534
243.056
240.62
238.225
235.379
277.685
277.558
277.096
276.115
274.971
273.593
272.007
270.171
268.14
265.932
263.602
261.172
258.675
256.123
253.542
250.928
248.291
245.686
243.142
240.126
285.031
284.786
284.092
282.752
281.217
279.381
277.444
275.281
273.035
270.624
268.165
265.591
263
260.335
257.679
254.979
252.281
249.616
247.066
243.997
288.022
287.771
287.122
286.061
284.646
282.891
280.907
278.716
276.381
273.908
271.344
268.699
265.997
263.261
260.498
257.737
254.95
252.235
249.638
246.598
293.164
290.245
289.809
288.273
286.751
284.789
282.713
280.395
277.995
275.442
272.84
270.141
267.42
264.639
261.863
259.055
256.249
253.483
250.849
247.717
-161.672
-161.277
-161.606
-160.556
-160.222
-158.388
-156.288
-154.033
-151.714
-149.15
-146.577
-144.118
-141.78
-139.392
-137.105
-134.796
-132.569
-130.408
-128.303
-126.127
-162.449
-162.257
-162.584
-161.644
-159.969
-157.822
-155.04
-152.224
-149.536
-146.668
-143.911
-141.135
-138.528
-135.886
-133.349
-130.842
-128.415
-125.952
-123.584
-121.254
-162.992
-163.216
-162.719
-162.642
-160.014
-157.067
-153.794
-150.763
-147.474
-144.27
-141.118
-138.061
-135.139
-132.174
-129.421
-126.639
-123.981
-121.414
-118.946
-116.445
-165.239
-165.288
-164.234
-163.218
-160.174
-156.637
-153.141
-149.273
-145.654
-142.057
-138.609
-135.203
-131.937
-128.695
-125.655
-122.562
-119.705
-116.892
-114.219
-111.522
-167.96
-167.645
-167.16
-164.341
-160.679
-156.55
-152.058
-147.916
-143.749
-139.747
-135.828
-132.05
-128.427
-124.864
-121.533
-118.189
-115.131
-112.067
-109.239
-106.388
-172.775
-171.98
-171.209
-167.043
-162.061
-157.023
-151.888
-147.011
-142.22
-137.613
-133.221
-128.98
-124.928
-121.01
-117.337
-113.687
-110.384
-107.055
-104.059
-101.031
-180.612
-179.585
-176.58
-170.933
-164.121
-157.61
-151.533
-145.696
-140.173
-134.944
-129.972
-125.266
-120.8
-116.527
-112.525
-108.608
-105.079
-101.478
-98.3477
-95.1412
-188.125
-186.996
-180.831
-173.522
-165.321
-157.588
-150.505
-143.895
-137.65
-131.792
-126.303
-121.11
-116.209
-111.571
-107.218
-103.025
-99.2199
-95.3581
-92.0606
-88.6044
-194.497
-192.722
-183.267
-174.262
-164.908
-156.262
-148.181
-140.828
-133.936
-127.514
-121.522
-115.916
-110.656
-105.702
-101.067
-96.6411
-92.6032
-88.5383
-85.0852
-81.3704
-195.591
-193.327
-183.39
-172.674
-162.524
-153.097
-144.385
-136.412
-129.002
-122.127
-115.751
-109.787
-104.219
-99.0114
-94.1445
-89.562
-85.3625
-81.203
-77.7194
-73.8845
-194.1
-191.687
-180.698
-169.136
-158.234
-148.168
-138.884
-130.434
-122.565
-115.292
-108.569
-102.316
-96.5011
-91.0783
-86.0313
-81.3033
-76.96
-72.7199
-69.1837
-65.235
-190.16
-187.651
-176.529
-163.485
-151.95
-141.301
-131.525
-122.682
-114.501
-106.969
-100.04
-93.5987
-87.6314
-82.0828
-76.9202
-72.1194
-67.672
-63.3948
-59.7703
-55.6893
-184.211
-180.615
-168.033
-154.795
-142.787
-132.034
-122.026
-113.032
-104.695
-97.0025
-89.9439
-83.3985
-77.3483
-71.7339
-66.5326
-61.7135
-57.2438
-53.012
-49.4006
-45.3082
-173.743
-169.585
-156.937
-143.834
-131.726
-120.917
-110.797
-101.669
-93.2729
-85.5417
-78.4613
-71.9091
-65.871
-60.2779
-55.1044
-50.3331
-45.8885
-41.737
-38.1677
-34.0549
-161.863
-156.751
-143.812
-130.973
-118.458
-107.679
-97.5814
-88.4858
-80.1435
-72.4499
-65.4313
-58.9447
-52.9779
-47.4625
-42.3821
-37.7093
-33.3549
-29.3576
-25.875
-21.8106
-146.256
-141.009
-127.937
-115.155
-103.134
-92.4589
-82.6232
-73.6806
-65.5223
-58.0075
-51.1498
-44.8256
-39.0203
-33.6591
-28.7311
-24.2068
-19.9793
-16.1648
-12.8021
-8.75257
-129.349
-123.707
-110.334
-97.8567
-86.0103
-75.6776
-66.0727
-57.3984
-49.4794
-42.1748
-35.5378
-29.419
-23.8093
-18.6429
-13.9139
-9.57938
-5.53749
-1.98262
1.22942
5.17378
-109.677
-103.903
-90.224
-78.584
-67.2839
-57.3154
-48.2044
-39.8514
-32.3094
-25.3409
-19.0039
-13.178
-7.84096
-2.9328
1.55033
5.67103
9.49451
12.7565
15.7499
19.5743
-89.2289
-83.2213
-69.3599
-58.1862
-47.4037
-37.8572
-29.1673
-21.2517
-14.0626
-7.43787
-1.4204
4.11746
9.19426
13.8578
18.1217
22.0649
25.6751
28.6836
31.533
35.656
-66.5294
-59.995
-46.5624
-36.2005
-26.3111
-17.3548
-9.30662
-1.87216
4.80354
11.0005
16.6456
21.8567
26.6675
31.1314
35.2986
39.2357
42.835
46.1955
49.872
54.1184
-115.903
-102.556
-89.3718
-83.6715
-75.4613
-71.743
-66.4974
-62.9813
-59.4427
-56.0919
-53.4489
-50.3844
-48.2
-45.4303
-43.4739
-41.0447
-39.1571
-37.1817
-36.3985
-35.6578
-110.374
-98.0829
-84.7737
-79.5621
-71.4032
-67.8427
-62.9577
-59.7595
-56.5381
-53.4059
-51.0267
-48.1584
-46.1933
-43.5999
-41.848
-39.5866
-37.8409
-36.0426
-35.3432
-34.6701
-104.732
-93.4296
-80.0828
-75.3304
-67.4691
-64.3096
-59.6453
-56.5947
-53.6259
-50.6973
-48.5582
-45.8842
-44.1467
-41.7295
-40.1971
-38.0683
-36.4687
-34.9448
-34.262
-33.6201
-99.1001
-88.676
-75.3204
-71.106
-63.4118
-60.4374
-56.1501
-53.4042
-50.7552
-48.0482
-46.1622
-43.6819
-42.1571
-39.9155
-38.59
-36.6231
-35.1772
-33.8167
-33.218
-32.6453
-93.3522
-83.7074
-70.4874
-66.8118
-59.4602
-56.8795
-52.8655
-50.2734
-47.8848
-45.3779
-43.7183
-41.4298
-40.1252
-38.061
-36.9531
-35.1178
-33.8302
-32.7128
-32.1679
-31.6254
-87.5391
-78.6304
-65.5895
-62.45
-55.4015
-53.0292
-49.4147
-47.1125
-45.0426
-42.758
-41.3442
-39.2469
-38.1493
-36.2604
-35.361
-33.6841
-32.5949
-31.58
-31.1662
-30.6726
-81.0935
-73.2888
-60.6045
-58.051
-51.4285
-49.444
-46.1469
-44.0083
-42.2043
-40.1147
-38.9235
-37.0136
-36.1304
-34.4131
-33.743
-32.1939
-31.3398
-30.4696
-30.1632
-29.688
-74.141
-67.8299
-55.4432
-53.6386
-47.363
-45.6082
-42.7385
-40.8761
-39.3887
-37.5241
-36.567
-34.8484
-34.1626
-32.6213
-32.1617
-30.7756
-30.1873
-29.3356
-29.2156
-28.7651
-66.6259
-62.1542
-50.2598
-49.1211
-43.4026
-41.9815
-39.4876
-37.7948
-36.5766
-34.9118
-34.166
-32.634
-32.1501
-30.7884
-30.5454
-29.3035
-28.9837
-28.2148
-28.2552
-27.819
-59.5817
-56.2729
-45.0695
-44.4643
-39.352
-38.1506
-36.1149
-34.6925
-33.785
-32.3476
-31.8255
-30.4832
-30.1861
-29.0023
-28.9639
-27.8969
-27.8681
-27.0743
-27.3716
-26.93
-52.3202
-49.9767
-39.7622
-39.7825
-35.3875
-34.5003
-32.8732
-31.635
-30.9957
-29.7671
-29.4452
-28.2854
-28.1786
-27.1744
-27.346
-26.4376
-26.6881
-25.9754
-26.45
-26.0214
-44.4566
-43.5494
-34.3829
-34.9676
-31.3294
-30.6824
-29.5296
-28.5652
-28.2267
-27.2305
-27.1211
-26.147
-26.2156
-25.3882
-25.7576
-25.0379
-25.559
-24.8914
-25.6279
-25.1637
-36.1072
-36.7723
-28.8664
-30.1221
-27.3448
-27.0205
-26.2898
-25.5303
-25.4563
-24.6798
-24.7616
-23.9638
-24.2097
-23.5594
-24.1303
-23.5859
-24.3629
-23.8252
-24.7408
-24.2854
-27.1125
-29.8796
-23.2765
-25.1439
-23.2673
-23.2284
-22.9719
-22.4946
-22.7085
-22.1719
-22.4557
-21.837
-22.2454
-21.7675
-22.5277
-22.1872
-23.2185
-22.7698
-23.9698
-23.4542
-17.4627
-22.634
-17.5878
-20.1503
-19.2719
-19.5982
-19.7571
-19.5043
-19.9729
-19.6656
-20.1315
-19.6787
-20.2478
-19.9406
-20.8919
-20.7464
-22.0122
-21.7404
-23.2041
-22.5907
-6.93665
-15.0379
-11.7252
-14.9602
-15.1247
-15.8187
-16.4468
-16.4923
-17.237
-17.1811
-17.8437
-17.56
-18.2774
-18.1351
-19.2684
-19.3447
-20.8494
-20.7096
-22.5329
-21.8074
3.72618
-7.24741
-5.76989
-9.68304
-10.9665
-12.091
-13.1294
-13.4377
-14.4465
-14.6411
-15.4937
-15.3738
-16.2423
-16.2596
-17.5734
-17.8493
-19.599
-19.5394
-21.7047
-20.9296
14.4647
-0.0136945
-0.208869
-4.66158
-7.02329
-8.63859
-10.0464
-10.6137
-11.854
-12.2865
-13.3114
-13.3405
-14.3263
-14.4897
-15.9589
-16.4709
-18.3946
-18.5046
-21.047
-20.0181
30.1673
9.11888
5.62093
0.301775
-3.24485
-5.56171
-7.30258
-8.06758
-9.48344
-10.1448
-11.3018
-11.4319
-12.5077
-12.8254
-14.4645
-15.2976
-17.342
-17.7785
-20.7191
-19.6788
48.2985
21.5978
13.8378
7.67349
2.76209
-0.10286
-2.76256
-4.06472
-5.92416
-6.9778
-8.47625
-8.81848
-10.1041
-10.5704
-12.443
-13.4795
-16.3924
-16.747
-20.1535
-18.3605
73.9323
70.7969
54.8681
48.6624
38.1907
33.9862
26.4224
22.5653
17.5122
14.3287
10.215
7.8617
5.1338
4.31028
1.64707
1.67645
-2.93773
-2.38094
-7.71347
-1.82652
111.564
100.208
80.8014
70.8216
59.0172
51.1508
43.0045
37.232
31.7258
27.7939
24.3381
20.7327
17.5542
14.0385
11.7046
9.00469
6.94576
5.28529
4.29602
4.55604
114.724
102.761
91.3675
82.0877
73.4965
66.113
59.0459
53.0267
47.3589
42.6883
38.7106
35.5626
32.6125
30.2113
27.8469
25.9134
23.857
22.2026
21.8038
21.5382
114.274
106.254
97.7085
89.3407
81.7328
74.7356
68.6824
62.9896
58.2008
53.3403
49.2211
44.8629
41.6126
37.8408
35.3648
32.2402
30.2799
27.7399
27.109
26.8557
106.365
99.5371
93.9311
88.1335
83.002
77.7477
73.0055
68.3719
64.1488
60.3552
56.8296
53.6179
50.7344
47.8888
45.4486
42.8715
41.1548
38.739
37.7132
37.3945
102.929
98.8378
95.181
90.1521
86.0855
81.5066
77.4858
73.4254
69.7215
65.9168
62.5388
59.1026
56.0586
52.9931
50.4839
47.4681
45.3273
42.944
42.0948
41.8557
97.026
93.7165
90.6781
87.6869
84.5488
81.5257
78.3846
75.4446
72.4216
69.6721
66.7984
64.2259
61.5632
59.0741
56.648
54.1916
51.9962
49.417
48.1638
47.7573
95.3495
93.1687
91.3024
88.5524
86.0428
83.5043
80.9069
78.3232
75.7298
73.1693
70.6313
68.1176
65.6891
63.204
60.9434
58.4279
56.4263
54.0887
52.8386
52.163
92.1317
90.4853
88.8765
87.4247
85.631
83.7633
81.7951
79.9029
77.8231
75.9549
73.7756
71.9411
69.6473
67.7967
65.2673
63.3449
60.6771
58.4968
56.4696
55.7787
91.8662
90.857
89.7688
88.3546
86.707
85.2402
83.6875
82.1114
80.4428
78.8548
77.0453
75.3685
73.3909
71.6585
69.4626
67.5114
64.7639
62.6837
59.9159
59.2901
90.8919
90.0581
89.2636
88.5611
87.6963
86.6896
85.4565
84.399
83.0083
81.9249
80.478
79.3384
77.7086
76.5151
74.5701
73.2809
70.574
69.3344
65.9046
65.669
91.3827
90.982
90.2878
89.5555
88.7268
88.013
87.1935
86.4809
85.6188
84.7773
83.8723
83.0362
81.9981
81.1584
79.9317
79.1551
77.2265
76.9664
72.9154
74.2263
91.7378
91.517
91.1436
90.8929
90.4359
90.0594
89.4924
89.0818
88.5679
88.241
87.744
87.4438
87.0397
86.8282
86.4583
86.3056
85.8496
86.0879
86.1347
88.0796
92.345
92.1951
91.933
91.7545
91.5344
91.4061
91.2103
91.1184
90.9966
91.0001
90.9345
91.0622
91.2024
91.4658
91.9718
92.3351
93.6048
93.9064
96.4437
97.7516
93.2558
93.2737
93.1893
93.2017
93.1438
93.1985
93.1915
93.3559
93.4141
93.6942
93.9317
94.4532
94.912
95.8363
96.6286
98.0372
99.2761
101.185
104.141
104.873
93.9033
93.987
94.0243
94.1665
94.2735
94.4892
94.6809
95.007
95.3166
95.8426
96.3325
97.1324
97.8466
98.9203
99.874
101.457
102.896
105.419
107.472
111.353
94.676
94.8068
94.9209
95.1007
95.2884
95.5714
95.8493
96.2666
96.6331
97.2334
97.7139
98.5517
99.1653
100.341
101.199
102.794
103.924
105.935
106.881
117.139
95.1827
95.3646
95.5555
95.8176
96.0987
96.4274
96.8093
97.2494
97.778
98.3867
99.0383
99.8547
100.625
101.698
102.54
103.959
104.766
106.656
107.821
110.523
95.5873
95.7865
95.9832
96.2661
96.5392
96.9296
97.3018
97.8196
98.3016
98.9516
99.5527
100.356
101.077
102.05
102.88
104.016
104.917
106.133
106.432
111.824
95.7875
95.9893
96.2269
96.508
96.8422
97.2165
97.6579
98.1437
98.7033
99.32
99.9989
100.765
101.553
102.49
103.352
104.491
105.345
106.759
107.427
109.23
211.697
211.151
209.827
208.188
205.526
202.64
198.799
194.643
189.542
184.134
177.916
171.207
163.924
155.07
147.342
138.065
127.927
118.65
109.045
99.063
182.152
181.859
181.297
180.432
179.29
177.909
176.153
174.3
171.923
169.587
166.704
164.042
159.588
155.097
151.55
148.044
144.049
139.926
135.466
130.762
144.964
144.857
144.624
144.303
143.847
143.293
142.632
141.842
140.951
139.974
138.803
137.636
136.205
134.898
133.086
131.522
129.513
127.739
125.479
123.766
132.583
132.525
132.392
132.22
131.929
131.645
131.173
130.761
130.131
129.536
128.78
128.027
127.109
126.244
125.185
124.23
123.008
121.976
120.586
119.633
115.045
115.006
114.946
114.823
114.706
114.511
114.327
114.079
113.816
113.542
113.192
112.9
112.483
112.152
111.648
111.26
110.673
110.248
109.567
109.18
109.246
109.229
109.179
109.127
109.025
108.937
108.785
108.658
108.46
108.277
108.043
107.795
107.495
107.202
106.833
106.522
106.076
105.742
105.207
104.898
101.256
101.236
101.205
101.146
101.084
100.99
100.892
100.77
100.632
100.49
100.313
100.151
99.9395
99.7532
99.505
99.294
99
98.7679
98.4335
98.1962
98.3508
98.342
98.3153
98.2862
98.234
98.1839
98.1075
98.0357
97.9363
97.8417
97.7202
97.6052
97.4589
97.3238
97.1519
96.9999
96.7998
96.6316
96.3842
96.2073
95.1837
95.1703
95.1494
95.1116
95.0683
95.0074
94.9405
94.8591
94.7666
94.6663
94.5477
94.4305
94.2851
94.1508
93.9794
93.8258
93.617
93.4216
93.145
92.8821
93.733
93.7251
93.7085
93.6844
93.6516
93.6126
93.5663
93.5141
93.4537
93.3898
93.314
93.2419
93.146
93.0597
92.9391
92.838
92.7141
92.5987
92.4614
92.3155
92.9894
92.9805
92.9628
92.9373
92.9041
92.865
92.8194
92.7666
92.7086
92.6421
92.5692
92.4891
92.3867
92.2684
92.1159
91.9812
91.8229
91.6773
91.5134
91.3528
92.6181
92.6046
92.5804
92.5551
92.5297
92.5051
92.4745
92.4438
92.4118
92.3718
92.3287
92.2743
92.2155
92.1466
92.0788
91.999
91.9174
91.8288
91.7273
91.6469
92.7485
92.7462
92.7437
92.7363
92.7191
92.696
92.6689
92.6373
92.6004
92.5602
92.5144
92.4655
92.4117
92.3543
92.2928
92.2273
92.1589
92.0863
92.0169
91.9445
93.0262
93.0236
93.0185
93.0101
93.0003
92.9867
92.9721
92.9531
92.9337
92.9089
92.8842
92.8534
92.823
92.7858
92.749
92.7052
92.6611
92.6094
92.5583
92.4994
93.5614
93.5603
93.5578
93.5543
93.5491
93.5432
93.5352
93.5268
93.5162
93.5053
93.4919
93.4785
93.4629
93.4471
93.4291
93.4105
93.3909
93.3691
93.3471
93.3215
93.9671
93.9669
93.9667
93.9661
93.9657
93.9647
93.9638
93.9622
93.9607
93.9584
93.9561
93.9532
93.9501
93.9459
93.9421
93.9364
93.9324
93.9256
93.9216
93.9136
94.5327
94.5335
94.5347
94.537
94.5395
94.5428
94.5464
94.5507
94.5556
94.5611
94.5671
94.5736
94.5807
94.5881
94.5964
94.6046
94.6143
94.6225
94.634
94.642
94.8313
94.8327
94.8357
94.8399
94.8457
94.8529
94.862
94.8724
94.8849
94.898
94.9139
94.9309
94.9495
94.9691
94.9894
95.0108
95.034
95.0579
95.0835
95.1094
95.168
95.1705
95.1757
95.1825
95.1924
95.2034
95.2173
95.2319
95.2487
95.266
95.285
95.3037
95.3239
95.345
95.3665
95.3918
95.4163
95.4453
95.4735
95.5066
95.2853
95.2891
95.2962
95.3043
95.3152
95.3264
95.3408
95.3551
95.373
95.3909
95.4127
95.434
95.4604
95.4863
95.5175
95.5486
95.5834
95.6188
95.6578
95.6977
66.9398
65.837
62.194
58.7155
55.3728
51.7756
47.9649
43.8994
39.5142
34.7551
29.5834
23.899
17.7114
10.8682
3.37977
-5.00805
-14.1865
-24.2282
-36.6465
-42.9419
78.6924
78.2483
75.8406
73.2231
70.6024
67.6958
64.5166
61.0543
57.2614
53.0935
48.5195
43.4489
37.9423
31.7391
24.9863
17.3436
9.0613
-0.179834
-11.534
-17.9655
92.0748
92.4779
90.7899
88.7197
86.6143
84.204
81.5224
78.5585
75.2611
71.608
67.5585
63.0651
58.0986
52.5467
46.4405
39.498
32.0644
23.4135
13.582
7.40232
105.955
106.575
105.233
103.643
102.02
100.136
97.9966
95.5978
92.8956
89.866
86.4687
82.6364
78.3918
73.5303
68.1423
61.979
55.2857
47.4355
38.7652
33.3832
119.938
120.943
120.143
119.027
117.891
116.503
114.865
112.981
110.793
108.291
105.413
102.15
98.425
94.1605
89.3825
83.8297
77.7788
70.4601
62.4382
58.1709
134.13
135.289
134.729
133.982
133.217
132.245
131.061
129.666
128.014
126.092
123.851
121.249
118.25
114.741
110.709
105.978
100.669
94.1375
86.7346
82.104
147.751
149.152
148.954
148.654
148.351
147.857
147.172
146.302
145.186
143.824
142.139
140.145
137.742
134.896
131.584
127.64
123.195
117.578
111.284
106.222
161.194
162.708
162.801
162.823
162.858
162.74
162.465
162.034
161.401
160.562
159.465
158.102
156.395
154.338
151.822
148.816
145.277
140.784
135.964
130.51
173.261
174.976
175.504
175.962
176.446
176.808
177.026
177.119
177.023
176.751
176.231
175.481
174.413
173.034
171.254
169.083
166.378
162.999
159.312
154.025
185.054
186.983
187.866
188.68
189.526
190.255
190.865
191.353
191.676
191.845
191.806
191.586
191.099
190.379
189.298
187.905
186.003
183.743
180.897
176.982
195.561
197.661
198.903
200.097
201.305
202.423
203.429
204.332
205.104
205.754
206.239
206.58
206.676
206.544
206.059
205.279
204.034
202.427
200.175
197.194
205.561
207.861
209.435
210.949
212.476
213.925
215.272
216.549
217.713
218.787
219.717
220.5
221.04
221.357
221.339
221.06
220.316
219.306
217.617
215.254
214.495
216.922
218.726
220.494
222.287
224.02
225.697
227.326
228.871
230.34
231.652
232.819
233.747
234.481
234.91
235.127
234.905
234.418
233.222
231.437
222.245
224.816
226.914
229.006
231.117
233.192
235.222
237.198
239.1
240.894
242.542
244.031
245.303
246.402
247.245
247.89
248.097
248.066
247.323
245.995
229.429
232.184
234.457
236.747
239.062
241.34
243.555
245.717
247.779
249.745
251.585
253.308
254.889
256.346
257.579
258.61
259.207
259.573
259.227
258.453
235.356
238.165
240.61
243.074
245.574
248.031
250.46
252.846
255.177
257.449
259.637
261.745
263.722
265.559
267.135
268.443
269.335
270.016
270.088
269.895
240.035
243.014
245.613
248.252
250.915
253.548
256.153
258.716
261.232
263.666
266.016
268.219
270.264
272.077
273.664
274.998
276.118
277.043
277.443
277.516
243.963
246.996
249.59
252.28
255.001
257.714
260.396
263.07
265.688
268.267
270.756
273.161
275.439
277.575
279.546
281.314
282.879
284.077
284.806
284.778
246.475
249.51
252.167
254.921
257.728
260.514
263.292
266.048
268.761
271.427
274
276.497
278.84
281.062
283.05
284.832
286.227
287.246
287.805
287.918
247.606
250.691
253.38
256.183
259.009
261.84
264.635
267.438
270.177
272.902
275.525
278.11
280.538
282.895
285.006
287.012
288.619
290.101
290.972
291.748
-126.459
-128.624
-130.722
-132.88
-135.099
-137.401
-139.674
-142.046
-144.356
-146.796
-149.347
-151.895
-154.193
-156.435
-158.583
-160.599
-160.967
-161.946
-161.658
-161.977
-121.607
-123.929
-126.282
-128.734
-131.148
-133.64
-136.16
-138.788
-141.382
-144.145
-146.888
-149.744
-152.461
-155.336
-158.182
-160.34
-162.059
-163.131
-162.754
-162.914
-116.734
-119.231
-121.697
-124.258
-126.915
-129.703
-132.456
-135.425
-138.351
-141.412
-144.558
-147.778
-151.087
-154.087
-157.326
-160.313
-163.076
-163.189
-163.621
-163.4
-111.804
-114.497
-117.172
-119.986
-122.837
-125.927
-128.963
-132.202
-135.463
-138.867
-142.322
-145.916
-149.537
-153.419
-156.964
-160.536
-163.581
-164.55
-165.632
-165.574
-106.636
-109.48
-112.314
-115.382
-118.444
-121.796
-125.133
-128.708
-132.341
-136.131
-140.056
-144.065
-148.237
-152.371
-156.875
-160.996
-164.633
-167.457
-167.917
-168.241
-101.264
-104.295
-107.291
-110.627
-113.93
-117.586
-121.262
-125.185
-129.241
-133.486
-137.887
-142.5
-147.296
-152.19
-157.336
-162.377
-167.38
-171.533
-172.302
-173.121
-95.3621
-98.5682
-101.702
-105.312
-108.846
-112.77
-116.782
-121.067
-125.544
-130.262
-135.244
-140.481
-146.008
-151.844
-157.922
-164.442
-171.243
-176.899
-179.919
-180.926
-88.7869
-92.2519
-95.5525
-99.4231
-103.234
-107.437
-111.797
-116.446
-121.356
-126.562
-132.065
-137.933
-144.19
-150.816
-157.913
-165.659
-173.89
-181.196
-187.354
-188.514
-81.5731
-85.2896
-88.748
-92.821
-96.8653
-101.299
-105.943
-110.908
-116.179
-121.796
-127.798
-134.227
-141.125
-148.473
-156.553
-165.21
-174.546
-183.543
-193.06
-194.832
-74.0518
-77.8867
-81.3724
-85.5385
-89.7435
-94.3357
-99.2106
-104.431
-110.011
-115.991
-122.383
-129.272
-136.694
-144.679
-153.408
-162.836
-173.006
-183.727
-193.668
-195.921
-65.4057
-69.3577
-72.8988
-77.1491
-81.5004
-86.2387
-91.2969
-96.7318
-102.558
-108.823
-115.559
-122.84
-130.715
-139.167
-148.448
-158.515
-169.408
-180.968
-191.96
-194.371
-55.8194
-59.899
-63.5316
-67.8181
-72.2725
-77.0831
-82.2548
-87.8164
-93.7973
-100.256
-107.203
-114.751
-122.945
-131.801
-141.589
-152.251
-163.805
-176.864
-187.995
-190.504
-45.4602
-49.5559
-53.165
-57.4054
-61.8806
-66.7096
-71.9221
-77.5492
-83.6124
-90.171
-97.2464
-104.948
-113.293
-122.29
-132.299
-143.051
-155.051
-168.282
-180.87
-184.469
-34.1435
-38.256
-41.8387
-46.0026
-50.4562
-55.2397
-60.4246
-66.0325
-72.0852
-78.6565
-85.7532
-93.5003
-101.912
-111.053
-121.184
-132.013
-144.143
-157.253
-169.901
-174.066
-21.9299
-26.0011
-29.4821
-33.4896
-37.8474
-42.5283
-47.619
-53.1456
-59.1251
-65.6248
-72.6601
-80.3641
-88.7165
-97.8161
-107.919
-118.704
-131.216
-144.065
-157.01
-162.122
-8.84132
-12.8857
-16.2568
-20.0839
-24.3171
-28.8527
-33.7928
-39.169
-44.9883
-51.3308
-58.2025
-65.7294
-73.9003
-82.8512
-92.6941
-103.376
-115.407
-128.203
-141.303
-146.545
5.06383
1.11738
-2.08878
-5.65616
-9.70007
-14.0402
-18.7777
-23.9524
-29.572
-35.7015
-42.3519
-49.6664
-57.5946
-66.2738
-75.8835
-86.2244
-98.0709
-110.549
-123.935
-129.58
19.4622
15.6406
12.6522
9.38044
5.55554
1.42948
-3.06206
-7.98206
-13.3298
-19.1708
-25.5186
-32.4953
-40.0474
-48.4054
-57.523
-67.4965
-78.8066
-90.4611
-104.148
-109.915
35.5842
31.4416
28.5936
25.582
21.9665
18.0178
13.746
9.07532
3.99082
-1.556
-7.58276
-14.2151
-21.4097
-29.3268
-38.0175
-47.5677
-58.3493
-69.5167
-83.3983
-89.4216
54.0657
49.7942
46.1163
42.7489
39.1437
35.1983
31.0223
26.548
21.7284
16.505
10.8523
4.65089
-2.03154
-9.46763
-17.5204
-26.4811
-36.3739
-46.7477
-60.1853
-66.7127
-35.6916
-36.4346
-37.2146
-39.201
-41.0841
-43.5199
-45.4797
-48.2558
-50.4472
-53.5185
-56.1745
-59.5275
-63.0966
-66.5991
-71.901
-75.6019
-83.8565
-89.5836
-102.744
-116.267
-34.7042
-35.3807
-36.0751
-37.8859
-39.6264
-41.8944
-43.6495
-46.2497
-48.2227
-51.0973
-53.4903
-56.6245
-59.878
-63.0584
-68.0051
-71.529
-79.7588
-84.9938
-98.2763
-110.681
-33.654
-34.3002
-34.9769
-36.5137
-38.1088
-40.2446
-41.7803
-44.2041
-45.9498
-48.63
-50.7833
-53.7132
-56.7155
-59.7474
-64.4779
-67.5994
-75.5187
-80.272
-93.6369
-105
-32.6789
-33.2562
-33.8487
-35.2238
-36.664
-38.6378
-39.968
-42.2151
-43.7489
-46.2347
-48.1363
-50.8435
-53.5265
-56.2494
-60.6056
-63.5324
-71.3085
-75.5118
-88.8773
-99.3568
-31.6582
-32.2052
-32.7451
-33.8756
-35.1594
-37.0014
-38.1141
-40.184
-41.4979
-43.792
-45.4674
-47.975
-50.3985
-52.9684
-57.0567
-59.5827
-67.009
-70.6628
-83.9208
-93.5948
-30.7046
-31.203
-31.6118
-32.6368
-33.7258
-35.4096
-36.3144
-38.2086
-39.3162
-41.4185
-42.8482
-45.1334
-47.2375
-49.5145
-53.2028
-55.5188
-62.657
-65.7585
-78.834
-87.7675
-29.7189
-30.1986
-30.5014
-31.3785
-32.2358
-33.7918
-34.4679
-36.1905
-37.084
-38.9989
-40.2073
-42.2965
-44.136
-46.2507
-49.6287
-51.5456
-58.254
-60.7717
-73.5043
-81.2876
-28.7949
-29.2495
-29.367
-30.2276
-30.8174
-32.2108
-32.6767
-34.223
-34.9198
-36.643
-37.6168
-39.4822
-41.0028
-42.8408
-45.7883
-47.4771
-53.8561
-55.5938
-68.0387
-74.3062
-27.8475
-28.2882
-28.2461
-29.0233
-29.3454
-30.5948
-30.8444
-32.2112
-32.7063
-34.2431
-35.005
-36.6717
-37.9229
-39.5948
-42.1701
-43.5192
-49.3417
-50.4074
-62.3725
-66.8022
-26.9574
-27.4029
-27.1055
-27.9083
-27.9387
-29.0134
-29.0589
-30.2474
-30.5565
-31.9031
-32.4414
-33.8818
-34.8191
-36.2233
-38.335
-39.4693
-44.689
-45.2081
-56.485
-59.7431
-26.0478
-26.4798
-26.0065
-26.7277
-26.4793
-27.3958
-27.2317
-28.2404
-28.3595
-29.5236
-29.8611
-31.094
-31.7618
-32.9861
-34.6907
-35.5094
-40.0118
-39.8983
-50.1909
-52.4805
-25.1894
-25.657
-24.9227
-25.5992
-25.0795
-25.8075
-25.4459
-26.2777
-26.222
-27.1999
-27.3248
-28.3266
-28.6905
-29.6462
-30.8706
-31.4553
-35.1991
-34.5103
-43.7592
-44.6053
-24.3105
-24.7694
-23.8574
-24.4025
-23.6273
-24.1805
-23.6177
-24.2722
-24.0395
-24.8409
-24.7742
-25.5575
-25.6547
-26.4108
-27.2123
-27.4775
-30.3602
-28.9886
-36.9791
-36.2434
-23.4789
-23.9987
-22.8018
-23.2585
-22.2284
-22.578
-21.8263
-22.308
-21.9135
-22.5352
-22.2664
-22.8111
-22.6176
-23.0987
-23.4205
-23.4085
-25.3838
-23.3875
-30.0785
-27.2465
-22.6153
-23.2332
-21.7728
-22.0517
-20.7872
-20.9425
-19.9999
-20.3107
-19.7558
-20.2112
-19.76
-20.0762
-19.626
-19.889
-19.7933
-19.4232
-20.3968
-17.6887
-22.8277
-17.5655
-21.8314
-22.5623
-20.7425
-20.8894
-19.3851
-19.3189
-18.195
-18.3405
-17.6379
-17.9234
-17.2756
-17.3411
-16.6129
-16.5858
-16.0171
-15.2902
-15.2059
-11.8092
-15.2149
-7.03388
-20.9537
-21.7346
-19.5728
-19.6385
-17.8895
-17.6242
-16.32
-16.3057
-15.4521
-15.5731
-14.7352
-14.5503
-13.5566
-13.2728
-12.2919
-11.1438
-9.92917
-5.84356
-7.42158
3.65152
-20.042
-21.0781
-18.5383
-18.4343
-16.5101
-16.0099
-14.5507
-14.39
-13.4196
-13.3905
-12.3804
-11.9575
-10.7323
-10.1991
-8.8484
-7.22156
-4.90596
-0.260514
-0.179443
14.3834
-19.6998
-20.7513
-17.8122
-17.3807
-15.3347
-14.5153
-12.8871
-12.5717
-11.512
-11.381
-10.2386
-9.58692
-8.18706
-7.46859
-5.78895
-3.46995
0.0584524
5.60833
9.00216
30.1051
-18.3832
-20.1861
-16.7817
-16.4313
-13.518
-12.4925
-10.6324
-10.1677
-8.89851
-8.55495
-7.07184
-6.02523
-4.1815
-2.92849
-0.321825
2.53138
7.45679
13.8136
21.5192
48.3101
-1.88911
-7.74612
-2.44512
-2.98345
1.60748
1.58104
4.24362
5.07021
7.79406
10.1552
14.2502
17.4478
22.4929
26.3538
33.9985
38.122
48.7101
54.5849
70.895
73.9699
4.50565
4.24598
5.23588
6.89803
8.95126
11.6599
13.9858
17.5044
20.6757
24.2837
27.7363
31.6795
37.1803
42.9611
51.1231
58.9685
70.8069
80.806
100.199
111.592
21.4878
21.7542
22.1513
23.8036
25.8568
27.7894
30.1518
32.5525
35.5007
38.6498
42.6238
47.2964
52.9584
58.984
66.0518
73.4221
82.0068
91.2762
102.663
114.68
26.8111
27.0653
27.6955
30.2397
32.2032
35.3298
37.8076
41.5817
44.834
49.1954
53.3183
58.185
62.9795
68.6797
74.7312
81.7485
89.3718
97.759
106.303
114.321
37.3476
37.6639
38.6936
41.1083
42.8235
45.4019
47.8398
50.6843
53.5684
56.7789
60.3048
64.0968
68.321
72.9391
77.6807
82.9325
88.0632
93.8504
99.4784
106.341
41.8328
42.0736
42.9211
45.3045
47.4486
50.4616
52.9743
56.0406
59.0859
62.5223
65.9027
69.7069
73.412
77.4848
81.5139
86.0904
90.1609
95.188
98.9064
102.94
47.7218
48.1277
49.382
51.9608
54.1539
56.6129
59.0385
61.5284
64.1927
66.765
69.6431
72.3896
75.4232
78.3547
81.5124
84.5219
87.69
90.6636
93.6721
96.9696
52.15
52.8279
54.0769
56.4139
58.4158
60.9309
63.1921
65.6779
68.1062
70.6224
73.1586
75.7238
78.314
80.9011
83.499
86.0286
88.5524
91.3157
93.1926
95.3847
55.7504
56.4411
58.4689
60.6493
63.3181
65.2415
67.7717
69.6232
71.9193
73.7555
75.9383
77.8108
79.8938
81.7942
83.7609
85.6479
87.4319
88.873
90.4761
92.1306
59.281
59.9077
62.6745
64.7536
67.5016
69.4524
71.6487
73.3818
75.3582
77.0352
78.841
80.4439
82.1082
83.6852
85.2347
86.7053
88.3542
89.7726
90.8611
91.8648
65.6453
65.881
69.3119
70.5526
73.2602
74.5509
76.4968
77.6918
79.323
80.4645
81.9138
83.0007
84.3947
85.4541
86.6912
87.6994
88.56
89.2657
90.0593
90.8958
74.2153
72.9056
76.957
77.2186
79.1469
79.9242
81.151
81.9916
83.0298
83.8666
84.7722
85.6145
86.4769
87.1905
88.0104
88.7229
89.5535
90.2856
90.9793
91.3794
88.0577
86.1138
86.0696
85.8321
86.2893
86.4429
86.8139
87.0263
87.432
87.7333
88.2312
88.5594
89.0744
89.4858
90.0535
90.4321
90.8888
91.1407
91.5142
91.736
97.7431
96.4338
93.8971
93.5965
92.3271
91.9649
91.4591
91.1967
91.0577
90.9299
90.9942
90.9916
91.1129
91.2053
91.4014
91.5307
91.7515
91.9305
92.1933
92.3436
104.863
104.13
101.173
99.2645
98.0256
96.6166
95.8249
94.8998
94.442
93.9238
93.6876
93.4078
93.351
93.1873
93.1949
93.1402
93.1989
93.1868
93.2714
93.2538
111.34
107.461
105.414
102.89
101.451
99.8684
98.914
97.8413
97.1238
96.3246
95.8358
95.3112
95.0018
94.6768
94.4853
94.2698
94.1631
94.0215
93.9845
93.9014
117.134
106.877
105.929