/*--------------------------------*- C++ -*----------------------------------*\
  =========                 |
  \\      /  F ield         | OpenFOAM: The Open Source CFD Toolbox
   \\    /   O peration     | Website:  https://openfoam.org
    \\  /    A nd           | Version:  9
     \\/     M anipulation  |
\*---------------------------------------------------------------------------*/
FoamFile
{
    format      ascii;
    class       surfaceScalarField;
    location    "1";
    object      phi;
}
// * * * * * * * * * * * * * * * * * * * * * * * * * * * * * * * * * * * * * //

dimensions      [0 3 -1 0 0 0 0];

internalField   nonuniform List<scalar> 
92080
(
0.000683521
-0.441004
0.44032
-0.0181538
-0.895076
0.913913
-0.0530283
-0.98433
1.0192
-0.0898387
-0.969187
1.006
-0.126071
-0.95367
0.989902
-0.162038
-0.938889
0.974856
-0.197411
-0.925321
0.960695
-0.232419
-0.910675
0.945683
-0.267458
-0.899611
0.93465
-0.302058
-0.888575
0.923175
-0.336353
-0.877754
0.912048
-0.370643
-0.867525
0.901815
-0.404791
-0.858834
0.892983
-0.438828
-0.850243
0.88428
-0.472215
-0.842578
0.875964
-0.505034
-0.834572
0.867392
-0.537452
-0.827341
0.859758
-0.569112
-0.819645
0.851305
-0.599587
-0.811347
0.841821
-0.805627
0.834082
-0.628042
-0.00196903
-0.439035
-0.0240472
-0.872998
-0.0633372
-0.94504
-0.102806
-0.929718
-0.141499
-0.914977
-0.179768
-0.90062
-0.217369
-0.88772
-0.25492
-0.873125
-0.291912
-0.862619
-0.328184
-0.852303
-0.364068
-0.84187
-0.399728
-0.831865
-0.434936
-0.823626
-0.469439
-0.81574
-0.503636
-0.80838
-0.537284
-0.800924
-0.570165
-0.79446
-0.601555
-0.788255
-0.631229
-0.781672
-0.776366
-0.66049
-0.0042051
-0.43483
-0.0296276
-0.847576
-0.0696511
-0.905016
-0.110431
-0.888937
-0.150484
-0.874925
-0.190186
-0.860917
-0.229087
-0.84882
-0.267623
-0.834588
-0.306445
-0.823798
-0.344554
-0.814193
-0.381986
-0.804437
-0.419547
-0.794305
-0.457467
-0.785706
-0.494997
-0.77821
-0.531419
-0.771959
-0.567382
-0.764961
-0.603404
-0.758438
-0.638535
-0.753124
-0.672503
-0.747704
-0.742324
-0.706545
-0.00581972
-0.42901
-0.036857
-0.816538
-0.0798026
-0.862071
-0.12249
-0.846251
-0.164649
-0.832766
-0.206237
-0.819329
-0.247156
-0.807901
-0.287898
-0.793846
-0.328339
-0.783356
-0.368154
-0.774378
-0.406925
-0.765666
-0.44489
-0.75634
-0.482819
-0.747777
-0.521302
-0.739728
-0.55977
-0.73349
-0.596967
-0.727764
-0.634133
-0.721273
-0.671523
-0.715733
-0.707503
-0.711724
-0.70675
-0.743078
-0.00506101
-0.423949
-0.0402765
-0.781323
-0.0838391
-0.818508
-0.127589
-0.8025
-0.171122
-0.789232
-0.214459
-0.775993
-0.25652
-0.765839
-0.298115
-0.752251
-0.340611
-0.740861
-0.382866
-0.732122
-0.424193
-0.72434
-0.464839
-0.715694
-0.505031
-0.707586
-0.54482
-0.699938
-0.585067
-0.693243
-0.625017
-0.687813
-0.663818
-0.682473
-0.703346
-0.676204
-0.743059
-0.672012
-0.668205
-0.781603
-0.00171307
-0.422236
-0.0418427
-0.741193
-0.0894607
-0.77089
-0.136311
-0.75565
-0.18219
-0.743354
-0.227744
-0.730438
-0.27239
-0.721193
-0.315716
-0.708926
-0.358628
-0.697948
-0.401967
-0.688784
-0.444686
-0.68162
-0.48611
-0.674269
-0.527241
-0.666455
-0.568339
-0.65884
-0.609362
-0.65222
-0.65077
-0.646405
-0.691426
-0.641817
-0.731085
-0.636545
-0.771664
-0.631433
-0.627223
-0.812647
0.000570898
-0.422807
-0.0402057
-0.700417
-0.0903797
-0.720716
-0.139226
-0.706803
-0.187132
-0.695448
-0.234547
-0.683023
-0.280587
-0.675153
-0.325558
-0.663955
-0.370648
-0.652859
-0.41545
-0.643982
-0.460261
-0.63681
-0.504236
-0.630294
-0.546755
-0.623937
-0.588701
-0.616894
-0.630697
-0.610224
-0.672828
-0.604274
-0.715254
-0.599391
-0.756794
-0.595006
-0.797479
-0.590747
-0.586262
-0.83844
0.000352229
-0.423159
-0.0446024
-0.655462
-0.0980882
-0.66723
-0.149172
-0.655719
-0.198298
-0.646323
-0.247128
-0.634193
-0.295288
-0.626993
-0.341156
-0.618087
-0.386154
-0.60786
-0.431737
-0.598399
-0.477044
-0.591503
-0.521994
-0.585344
-0.566513
-0.579418
-0.60978
-0.573627
-0.652477
-0.567527
-0.695283
-0.561467
-0.738122
-0.556552
-0.781349
-0.551779
-0.823832
-0.548265
-0.544448
-0.865646
-0.000413179
-0.422746
-0.0479116
-0.607964
-0.102367
-0.612775
-0.155059
-0.603027
-0.206197
-0.595185
-0.255973
-0.584417
-0.304979
-0.577987
-0.352966
-0.570101
-0.39971
-0.561116
-0.445784
-0.552324
-0.492443
-0.544844
-0.538294
-0.539493
-0.583184
-0.534528
-0.627613
-0.529197
-0.670641
-0.524499
-0.713342
-0.518767
-0.756079
-0.513815
-0.798797
-0.509061
-0.842176
-0.504885
-0.501681
-0.884943
-0.00835296
-0.414393
-0.0585213
-0.557795
-0.113913
-0.557383
-0.167074
-0.549866
-0.218255
-0.544004
-0.269265
-0.533407
-0.31931
-0.527942
-0.36673
-0.522681
-0.41329
-0.514556
-0.459894
-0.50572
-0.506667
-0.498071
-0.554594
-0.491566
-0.601808
-0.487314
-0.648122
-0.482883
-0.693736
-0.478885
-0.737539
-0.474963
-0.780963
-0.470391
-0.823773
-0.466251
-0.866496
-0.462163
-0.458169
-0.910008
-0.0178309
-0.396562
-0.0683303
-0.507296
-0.122719
-0.502994
-0.177424
-0.495161
-0.229658
-0.49177
-0.280633
-0.482432
-0.332666
-0.475909
-0.383062
-0.472285
-0.429706
-0.467912
-0.474732
-0.460695
-0.519894
-0.45291
-0.56533
-0.44613
-0.612362
-0.440282
-0.659154
-0.436091
-0.705915
-0.432124
-0.752174
-0.428705
-0.796784
-0.425781
-0.841035
-0.422001
-0.883862
-0.419336
-0.415586
-0.926445
-0.0262539
-0.370308
-0.0776879
-0.455862
-0.130702
-0.44998
-0.184322
-0.441541
-0.237974
-0.438118
-0.290024
-0.430383
-0.342574
-0.423359
-0.395789
-0.419069
-0.448079
-0.415622
-0.496481
-0.412293
-0.542979
-0.406411
-0.588874
-0.400235
-0.634437
-0.394719
-0.681373
-0.389155
-0.72796
-0.385536
-0.775446
-0.381219
-0.822503
-0.378724
-0.868822
-0.375681
-0.914837
-0.373321
-0.371216
-0.959206
-0.0333356
-0.336973
-0.0861313
-0.403066
-0.140232
-0.395879
-0.194092
-0.387682
-0.246195
-0.386014
-0.297044
-0.379534
-0.348386
-0.372017
-0.399724
-0.367731
-0.45144
-0.363906
-0.502681
-0.361052
-0.550625
-0.358468
-0.597195
-0.353665
-0.642273
-0.349641
-0.686936
-0.344492
-0.732219
-0.340253
-0.777244
-0.336194
-0.82374
-0.332228
-0.869995
-0.329426
-0.917164
-0.326152
-0.324102
-0.964278
-0.040001
-0.296972
-0.0948418
-0.348225
-0.148558
-0.342164
-0.202915
-0.333324
-0.257404
-0.331526
-0.308531
-0.328407
-0.359701
-0.320847
-0.412535
-0.314897
-0.46546
-0.31098
-0.519126
-0.307386
-0.572208
-0.305386
-0.622903
-0.302969
-0.672213
-0.300332
-0.719123
-0.297582
-0.765179
-0.294197
-0.810102
-0.291271
-0.854448
-0.287882
-0.899002
-0.284873
-0.943139
-0.282015
-0.279029
-0.988211
-0.0431789
-0.253793
-0.101522
-0.289883
-0.158534
-0.285151
-0.214638
-0.277221
-0.270356
-0.275807
-0.322594
-0.276169
-0.370319
-0.273122
-0.417629
-0.267586
-0.465789
-0.262821
-0.514835
-0.25834
-0.565407
-0.254814
-0.616547
-0.25183
-0.667505
-0.249373
-0.718105
-0.246982
-0.767518
-0.244784
-0.816408
-0.242381
-0.863993
-0.240296
-0.911033
-0.237833
-0.957224
-0.235824
-0.23343
-1.00282
-0.0450506
-0.208742
-0.104093
-0.23084
-0.158193
-0.23105
-0.21393
-0.221484
-0.273668
-0.216069
-0.334082
-0.215755
-0.391019
-0.216184
-0.444001
-0.214605
-0.494301
-0.21252
-0.543105
-0.209536
-0.591079
-0.20684
-0.638985
-0.203924
-0.686993
-0.201365
-0.734916
-0.199059
-0.782856
-0.196845
-0.830363
-0.194874
-0.877816
-0.192843
-0.9246
-0.191049
-0.971271
-0.189153
-0.187416
-1.01729
-0.0490186
-0.159724
-0.108363
-0.171496
-0.160303
-0.17911
-0.206752
-0.175035
-0.256124
-0.166697
-0.309703
-0.162176
-0.366178
-0.159709
-0.422675
-0.158108
-0.478489
-0.156706
-0.532737
-0.155288
-0.585776
-0.153802
-0.637381
-0.152318
-0.688146
-0.150601
-0.738154
-0.149051
-0.787537
-0.147462
-0.836468
-0.145943
-0.884804
-0.144507
-0.932877
-0.142976
-0.980383
-0.141647
-0.140046
-1.02775
-0.0500505
-0.109673
-0.116318
-0.105229
-0.183399
-0.112029
-0.242992
-0.115443
-0.295124
-0.114565
-0.345848
-0.111452
-0.396236
-0.109321
-0.446894
-0.10745
-0.49772
-0.10588
-0.548538
-0.10447
-0.598888
-0.103453
-0.649024
-0.102181
-0.69831
-0.101315
-0.747426
-0.0999355
-0.795823
-0.0990649
-0.844062
-0.0977035
-0.891712
-0.0968572
-0.939139
-0.0955484
-0.986082
-0.0947047
-0.0934279
-1.0327
-0.0514233
-0.0582498
-0.0989811
-0.0576711
-0.155501
-0.0555087
-0.213866
-0.0570777
-0.272668
-0.0557623
-0.328427
-0.0556934
-0.383614
-0.054134
-0.437453
-0.0536114
-0.490786
-0.0525468
-0.543286
-0.0519695
-0.595564
-0.0511749
-0.646911
-0.0508343
-0.69803
-0.0501952
-0.747989
-0.0499771
-0.797716
-0.0493379
-0.846318
-0.0491016
-0.894693
-0.0484824
-0.942023
-0.0482182
-0.989073
-0.0476545
-0.0473533
-1.03515
-0.0774843
0.0192346
-0.130118
-0.00503769
-0.185502
-0.000124209
-0.237673
-0.00490736
-0.292663
-0.000772126
-0.345711
-0.00264477
-0.399258
-0.000587602
-0.451223
-0.0016463
-0.503349
-0.00042036
-0.55415
-0.00116871
-0.604983
-0.000342002
-0.6549
-0.000917722
-0.704769
-0.000326303
-0.753949
-0.000797108
-0.802911
-0.000375041
-0.851232
-0.00078069
-0.899231
-0.000483587
-0.946607
-0.000842636
-0.993614
-0.000646908
-1.03992
-0.00104942
-0.00113378
0.0583467
-0.0572129
0.0308764
0.00947705
-0.0414873
0.129048
-0.142502
0.0443305
0.344091
-0.477667
0.262624
0.551251
-0.821211
0.614051
0.678662
-1.02561
0.898203
0.739399
-1.11115
1.05042
0.766934
-1.13745
1.10991
0.781009
-1.1428
1.12872
0.789752
-1.14191
1.13317
0.796128
-1.1391
1.13273
0.802028
-1.13508
1.12918
0.808623
-1.13322
1.12662
0.814628
-1.13045
1.12445
0.819324
-1.12899
1.12429
0.823746
-1.12609
1.12167
0.828298
-1.12517
1.12062
0.833079
-1.12222
1.11744
0.836844
-1.12118
1.11741
-1.11764
0.839569
1.11491
0.0101249
0.0482218
0.0636608
-0.0440588
0.207736
-0.286578
0.415481
-0.685412
0.562311
-0.968041
0.638151
-1.10145
0.669741
-1.14275
0.684119
-1.15182
0.692863
-1.15154
0.699638
-1.14869
0.705086
-1.14455
0.71074
-1.14073
0.715585
-1.13806
0.720161
-1.13503
0.724767
-1.1336
0.729395
-1.13072
0.733268
-1.12904
0.735565
-1.12452
0.737581
-1.12319
-1.11918
0.739119
0.0231506
0.0250712
0.0963821
-0.11729
0.274246
-0.464442
0.440988
-0.852154
0.538257
-1.06531
0.5781
-1.1413
0.595316
-1.15996
0.604621
-1.16113
0.611025
-1.15795
0.615072
-1.15274
0.618851
-1.14833
0.622365
-1.14425
0.625968
-1.14167
0.629673
-1.13873
0.632619
-1.13654
0.634632
-1.13273
0.635676
-1.13008
0.636921
-1.12576
0.638227
-1.1245
-1.11903
0.638087
0.0392354
-0.0141642
0.127164
-0.205219
0.299602
-0.63688
0.423535
-0.976087
0.482368
-1.12414
0.50636
-1.16529
0.517082
-1.17068
0.523446
-1.16749
0.526719
-1.16122
0.530302
-1.15632
0.533809
-1.15183
0.537266
-1.1477
0.540171
-1.14457
0.542229
-1.14079
0.5434
-1.13771
0.544249
-1.13358
0.544733
-1.13057
0.545087
-1.12612
0.544495
-1.12391
-1.11709
0.542554
0.0399304
-0.0540945
0.154197
-0.319486
0.300323
-0.783006
0.387371
-1.06313
0.423249
-1.16002
0.436403
-1.17844
0.442822
-1.1771
0.445702
-1.17037
0.44854
-1.16406
0.451201
-1.15898
0.452905
-1.15354
0.453968
-1.14877
0.454542
-1.14515
0.454835
-1.14109
0.454729
-1.13761
0.454218
-1.13307
0.453011
-1.12936
0.451491
-1.1246
0.449231
-1.12165
-1.1139
0.44604
0.035776
-0.0898705
0.159498
-0.443208
0.273173
-0.896681
0.333141
-1.1231
0.354473
-1.18135
0.363128
-1.1871
0.368147
-1.18212
0.370574
-1.1728
0.372987
-1.16647
0.374242
-1.16024
0.374829
-1.15412
0.375147
-1.14909
0.374992
-1.14499
0.374048
-1.14014
0.372184
-1.13574
0.369747
-1.13063
0.36689
-1.1265
0.363861
-1.12157
0.359838
-1.11762
-1.10895
0.354881
0.0386855
-0.128556
0.151009
-0.555531
0.240825
-0.986497
0.281262
-1.16354
0.294576
-1.19467
0.30075
-1.19327
0.301993
-1.18337
0.302679
-1.17349
0.302816
-1.1666
0.302231
-1.15965
0.30091
-1.1528
0.299032
-1.14721
0.296402
-1.14236
0.293136
-1.13688
0.289431
-1.13204
0.285528
-1.12673
0.281045
-1.12202
0.276022
-1.11655
0.26991
-1.11151
-1.10239
0.263355
0.0426653
-0.171221
0.138492
-0.651358
0.205414
-1.05342
0.229851
-1.18798
0.236852
-1.20167
0.238476
-1.19489
0.238303
-1.18319
0.237908
-1.17309
0.236563
-1.16526
0.234102
-1.15719
0.230918
-1.14962
0.22713
-1.14342
0.222826
-1.13806
0.217939
-1.13199
0.212458
-1.12656
0.206437
-1.12071
0.199888
-1.11547
0.192896
-1.10956
0.184953
-1.10357
-1.09411
0.176672
0.0487957
-0.220017
0.12406
-0.726622
0.172676
-1.10204
0.186019
-1.20132
0.188433
-1.20408
0.186868
-1.19333
0.184403
-1.18073
0.18088
-1.16957
0.176646
-1.16103
0.171712
-1.15226
0.166158
-1.14407
0.160191
-1.13745
0.153541
-1.13141
0.146226
-1.12467
0.138427
-1.11876
0.13035
-1.11263
0.121729
-1.10685
0.112621
-1.10045
0.102737
-1.09368
-1.08397
0.0925987
0.0442265
-0.264243
0.104663
-0.787058
0.138453
-1.13583
0.143073
-1.20594
0.140865
-1.20187
0.135943
-1.18841
0.130671
-1.17546
0.124871
-1.16377
0.118361
-1.15451
0.111064
-1.14496
0.103215
-1.13622
0.0946989
-1.12894
0.0857477
-1.12246
0.0764267
-1.11535
0.0667717
-1.1091
0.0567742
-1.10263
0.0463992
-1.09647
0.0356957
-1.08974
0.0244507
-1.08244
-1.07244
0.012923
0.0373778
-0.301621
0.0890192
-0.8387
0.109393
-1.1562
0.108274
-1.20482
0.101973
-1.19557
0.0947238
-1.18116
0.0866921
-1.16742
0.0778891
-1.15497
0.0684489
-1.14507
0.0583566
-1.13487
0.0477071
-1.12557
0.0366923
-1.11792
0.0251549
-1.11092
0.0130951
-1.10329
0.000628352
-1.09664
-0.0121634
-1.08984
-0.025365
-1.08327
-0.0387903
-1.07632
-0.0525377
-1.06869
-1.05863
-0.0663546
0.0301353
-0.331757
0.0674656
-0.87603
0.0786346
-1.16737
0.0723443
-1.19853
0.0625605
-1.18579
0.0522331
-1.17083
0.0411227
-1.15631
0.0294521
-1.1433
0.0172616
-1.13288
0.00459549
-1.1222
-0.00847437
-1.1125
-0.0221586
-1.10424
-0.0362012
-1.09688
-0.050531
-1.08896
-0.0651308
-1.08204
-0.0799523
-1.07502
-0.0950521
-1.06817
-0.110381
-1.06099
-0.125961
-1.05311
-1.04287
-0.141715
0.0290319
-0.360789
0.0593778
-0.906376
0.060412
-1.1684
0.0490779
-1.1872
0.0351083
-1.17182
0.0210685
-1.15679
0.00656411
-1.14181
-0.0083239
-1.12841
-0.0235897
-1.11762
-0.0394023
-1.10639
-0.0555982
-1.0963
-0.0720798
-1.08776
-0.0888988
-1.08006
-0.106037
-1.07183
-0.123464
-1.06461
-0.141175
-1.05731
-0.159106
-1.05024
-0.176941
-1.04315
-0.194455
-1.0356
-1.02538
-0.211949
0.0210377
-0.381826
0.0394411
-0.924779
0.0335198
-1.16248
0.0177644
-1.17144
0.00100646
-1.15506
-0.0158207
-1.13996
-0.0329893
-1.12464
-0.0507175
-1.11068
-0.0687322
-1.0996
-0.086937
-1.08818
-0.105473
-1.07776
-0.124508
-1.06872
-0.143789
-1.06078
-0.163272
-1.05234
-0.182953
-1.04493
-0.20271
-1.03755
-0.222656
-1.0303
-0.242745
-1.02306
-0.262427
-1.01592
-1.00574
-0.282066
0.0186322
-0.400458
0.0316121
-0.937759
0.0196911
-1.15056
0.00102246
-1.15277
-0.0190224
-1.13502
-0.0393384
-1.11965
-0.0599109
-1.10407
-0.0807028
-1.08989
-0.101728
-1.07858
-0.123216
-1.0667
-0.144903
-1.05608
-0.166845
-1.04678
-0.189022
-1.0386
-0.211358
-1.03001
-0.233929
-1.02236
-0.256726
-1.01475
-0.27952
-1.0075
-0.302166
-1.00042
-0.324116
-0.993965
-0.98399
-0.345868
0.0134918
-0.41395
0.018765
-0.943032
0.000271665
-1.13207
-0.0234826
-1.12902
-0.0468325
-1.11167
-0.0702797
-1.0962
-0.0935939
-1.08075
-0.11735
-1.06613
-0.14111
-1.05482
-0.164768
-1.04304
-0.188717
-1.03213
-0.212983
-1.02251
-0.237392
-1.01419
-0.261891
-1.00551
-0.286528
-0.997719
-0.311274
-0.990008
-0.336281
-0.982496
-0.361525
-0.975174
-0.38585
-0.96964
-0.960217
-0.409623
0.0112408
-0.425191
0.0118268
-0.943618
-0.0097543
-1.11049
-0.0357566
-1.10301
-0.0621489
-1.08527
-0.0884891
-1.06986
-0.114849
-1.05439
-0.141235
-1.03974
-0.167784
-1.02827
-0.19461
-1.01621
-0.2214
-1.00534
-0.248469
-0.995445
-0.275739
-0.98692
-0.303018
-0.978229
-0.330414
-0.970323
-0.357956
-0.962466
-0.385371
-0.95508
-0.413105
-0.94744
-0.440605
-0.94214
-0.933999
-0.466823
0.00691605
-0.432107
0.00126245
-0.937965
-0.0263405
-1.08288
-0.0560777
-1.07328
-0.0853282
-1.05602
-0.114501
-1.04069
-0.143235
-1.02566
-0.172332
-1.01065
-0.201251
-0.999351
-0.229976
-0.987486
-0.258965
-0.976349
-0.288005
-0.966405
-0.317238
-0.957687
-0.346592
-0.948874
-0.375945
-0.94097
-0.405481
-0.93293
-0.435246
-0.925315
-0.465262
-0.917424
-0.495746
-0.911656
-0.904756
-0.524989
0.0057148
-0.437822
-0.00370752
-0.928542
-0.0332421
-1.05335
-0.0652453
-1.04127
-0.0970379
-1.02423
-0.128798
-1.00893
-0.160254
-0.994204
-0.191533
-0.979369
-0.222906
-0.967978
-0.254262
-0.95613
-0.285548
-0.945063
-0.317127
-0.934827
-0.348702
-0.926112
-0.380446
-0.91713
-0.412468
-0.908947
-0.444522
-0.900877
-0.476553
-0.893284
-0.509016
-0.884961
-0.543046
-0.877627
-0.871942
-0.575861
0.00249848
-0.0121305
-0.046275
-0.0815524
-0.115882
-0.149952
-0.183461
-0.217147
-0.250476
-0.283431
-0.316446
-0.349457
-0.382586
-0.415437
-0.448421
-0.481905
-0.515431
-0.549086
-0.584892
-0.622751
0.750284
-9.82885
9.91813
0.686452
-9.63109
9.69493
0.621868
-9.6248
9.68938
0.561221
-9.54739
9.60803
0.509224
-9.58044
9.63244
0.462235
-9.51333
9.56032
0.416965
-9.51938
9.56465
0.374889
-9.48259
9.52467
0.336498
-9.51025
9.54864
0.299693
-9.48018
9.51699
0.267951
-9.47022
9.50197
0.23944
-9.48234
9.51085
0.213326
-9.49562
9.52173
0.189552
-9.49039
9.51417
0.169283
-9.49686
9.51713
0.149022
-9.51149
9.53175
0.130778
-9.41389
9.43213
0.100413
-8.84776
8.87813
0.04944
-7.11254
7.16352
-3.74074
3.79018
0.65689
-9.74662
0.594684
-9.56889
0.53166
-9.56178
0.478412
-9.49414
0.430016
-9.53204
0.382564
-9.46588
0.339259
-9.47607
0.302136
-9.44547
0.269767
-9.47788
0.239423
-9.44984
0.214357
-9.44516
0.19231
-9.46029
0.172462
-9.47577
0.155096
-9.47303
0.140958
-9.48272
0.127268
-9.4978
0.115588
-9.4022
0.0907961
-8.82297
0.0460494
-7.0678
-3.69469
0.558414
-9.66694
0.497251
-9.50773
0.438994
-9.50352
0.388513
-9.44366
0.345033
-9.48856
0.308062
-9.42891
0.27382
-9.44183
0.243002
-9.41465
0.215927
-9.4508
0.190739
-9.42465
0.170287
-9.42471
0.152825
-9.44283
0.137778
-9.46072
0.12538
-9.46063
0.116373
-9.47371
0.107363
-9.48879
0.100826
-9.39567
0.0828226
-8.80497
0.0438545
-7.02883
-3.65083
0.466925
-9.59131
0.407144
-9.44794
0.350387
-9.44676
0.306181
-9.39945
0.266543
-9.44893
0.229663
-9.39203
0.197333
-9.4095
0.171234
-9.38855
0.149994
-9.42956
0.131074
-9.40573
0.117039
-9.41067
0.105899
-9.43169
0.0970505
-9.45187
0.0909767
-9.45456
0.0880622
-9.4708
0.0856082
-9.48634
0.0855632
-9.39562
0.0734266
-8.79283
0.0407143
-6.99612
-3.61012
0.370555
-9.51583
0.310916
-9.38831
0.259984
-9.39583
0.219444
-9.35891
0.184218
-9.4137
0.156709
-9.36452
0.132809
-9.3856
0.112857
-9.3686
0.0968095
-9.41352
0.0829693
-9.39189
0.0734481
-9.40115
0.0667913
-9.42503
0.0626593
-9.44774
0.0614405
-9.45334
0.0635395
-9.4729
0.0656836
-9.48848
0.0707534
-9.40069
0.0654603
-8.78754
0.0385684
-6.96923
-3.57155
0.280641
-9.44159
0.223621
-9.33129
0.174335
-9.34655
0.137915
-9.32249
0.10636
-9.38215
0.079675
-9.33784
0.0578855
-9.36381
0.0424936
-9.35321
0.0320531
-9.40308
0.0242529
-9.38409
0.0208952
-9.39779
0.0203868
-9.42452
0.0223393
-9.44969
0.0273013
-9.4583
0.0354116
-9.48101
0.0440505
-9.49712
0.0554825
-9.41212
0.0562503
-8.7883
0.0356395
-6.94861
-3.53591
0.18811
-9.36635
0.130579
-9.27375
0.0862617
-9.30223
0.0543001
-9.29053
0.0275402
-9.35539
0.00905323
-9.31935
-0.00516669
-9.34959
-0.014748
-9.34363
-0.0201626
-9.39766
-0.0229914
-9.38126
-0.0219597
-9.39882
-0.0180882
-9.42839
-0.0115466
-9.45623
-0.00192583
-9.46792
0.0110834
-9.49402
0.024253
-9.51029
0.0407273
-9.4286
0.0483221
-8.7959
0.033589
-6.93388
-3.50232
0.100615
-9.29029
0.0465653
-9.21971
0.00306191
-9.25872
-0.0255911
-9.26188
-0.0493586
-9.33162
-0.0666905
-9.30202
-0.0782547
-9.33803
-0.0833115
-9.33857
-0.083377
-9.3976
-0.080403
-9.38423
-0.0734692
-9.40576
-0.0636276
-9.43824
-0.0512198
-9.46864
-0.035537
-9.4836
-0.0167358
-9.51282
0.00283926
-9.52986
0.0255638
-9.45132
0.0392775
-8.80961
0.0308488
-6.92545
-3.47147
0.0118335
-9.20952
-0.0425724
-9.1653
-0.0812641
-9.22003
-0.10622
-9.23692
-0.12421
-9.31363
-0.134501
-9.29172
-0.139341
-9.33319
-0.139053
-9.33886
-0.134324
-9.40232
-0.126522
-9.39204
-0.115327
-9.41695
-0.101226
-9.45234
-0.084402
-9.48547
-0.0641935
-9.50381
-0.0407766
-9.53623
-0.0167769
-9.55386
0.0109501
-9.47905
0.0313656
-8.83003
0.0288409
-6.92293
-3.44263
-0.0715569
-9.12504
-0.124075
-9.11278
-0.160171
-9.18394
-0.18378
-9.21331
-0.199574
-9.29783
-0.208444
-9.28286
-0.210213
-9.33142
-0.20541
-9.34366
-0.195617
-9.41212
-0.182269
-9.40538
-0.165417
-9.4338
-0.145606
-9.47215
-0.12315
-9.50792
-0.0971951
-9.52977
-0.0681262
-9.5653
-0.0379015
-9.58409
-0.00405031
-9.5129
0.0224338
-8.85651
0.0261381
-6.92663
-3.4165
-0.151805
-9.03959
-0.207834
-9.05675
-0.241823
-9.14995
-0.26066
-9.19447
-0.270501
-9.28799
-0.2731
-9.28026
-0.268992
-9.33553
-0.25932
-9.35334
-0.245001
-9.42644
-0.227008
-9.42338
-0.206021
-9.45479
-0.182093
-9.49608
-0.155415
-9.5346
-0.125183
-9.56
-0.091751
-9.59874
-0.0572729
-9.61857
-0.0184922
-9.55168
0.0144658
-8.88947
0.0240356
-6.9362
-3.39246
-0.232484
-8.94882
-0.285768
-9.00347
-0.317819
-9.1179
-0.335539
-9.17675
-0.343601
-9.27993
-0.34463
-9.27923
-0.337192
-9.34297
-0.323078
-9.36745
-0.303986
-9.44553
-0.280729
-9.44663
-0.254357
-9.48116
-0.225014
-9.52542
-0.192989
-9.56663
-0.157318
-9.59567
-0.118483
-9.63757
-0.0780235
-9.65903
-0.0332785
-9.59643
0.00556065
-8.92831
0.0212506
-6.95189
-3.37121
-0.308247
-8.85252
-0.363998
-8.94772
-0.395085
-9.08681
-0.408658
-9.16318
-0.410745
-9.27784
-0.405985
-9.28399
-0.393404
-9.35555
-0.374873
-9.38598
-0.351532
-9.46887
-0.323845
-9.47432
-0.293464
-9.51155
-0.26016
-9.55872
-0.224133
-9.60265
-0.184476
-9.63533
-0.141552
-9.68049
-0.0970376
-9.70354
-0.0475071
-9.64596
-0.00252217
-8.97329
0.0190018
-6.97342
-3.35221
-0.383975
-8.75062
-0.438243
-8.89345
-0.467644
-9.05741
-0.4804
-9.15042
-0.481049
-9.27719
-0.474542
-9.29049
-0.458491
-9.3716
-0.435686
-9.40879
-0.407883
-9.49667
-0.375226
-9.50698
-0.339744
-9.54703
-0.301345
-9.59712
-0.260278
-9.64372
-0.215524
-9.68008
-0.16749
-9.72853
-0.117285
-9.75375
-0.0620236
-9.70122
-0.011226
-9.02409
0.0161718
-7.00081
-3.33604
-0.454918
-8.64157
-0.5112
-8.83717
-0.540294
-9.02832
-0.54974
-9.14098
-0.544565
-9.28237
-0.53254
-9.30252
-0.511965
-9.39217
-0.485149
-9.4356
-0.45336
-9.52846
-0.416499
-9.54384
-0.377135
-9.58639
-0.334936
-9.63932
-0.2901
-9.68856
-0.241661
-9.72852
-0.18983
-9.78036
-0.135819
-9.80776
-0.0760083
-9.76103
-0.0192597
-9.08084
0.0138606
-7.03393
-3.32217
-0.524662
-8.52653
-0.580851
-8.78098
-0.608672
-9.0005
-0.617932
-9.13172
-0.611766
-9.28854
-0.597615
-9.31667
-0.573508
-9.41628
-0.542694
-9.46642
-0.506762
-9.56439
-0.465245
-9.58536
-0.42108
-9.63056
-0.37411
-9.68629
-0.32456
-9.73811
-0.271391
-9.78169
-0.214768
-9.83698
-0.155427
-9.8671
-0.0902177
-9.82624
-0.0278229
-9.14324
0.0113881
-7.07315
-3.31079
-0.591249
-8.4021
-0.64885
-8.72338
-0.676075
-8.97327
-0.682667
-9.12513
-0.671182
-9.30002
-0.651803
-9.33605
-0.623817
-9.44427
-0.589431
-9.5008
-0.549792
-9.60403
-0.504342
-9.63081
-0.456458
-9.67844
-0.405871
-9.73688
-0.352811
-9.79117
-0.296269
-9.83823
-0.236187
-9.89706
-0.173325
-9.92996
-0.103889
-9.89568
-0.0358204
-9.2113
0.00955775
-7.11852
-3.30123
-0.658581
-8.26851
-0.716022
-8.66594
-0.741209
-8.94808
-0.747905
-9.11843
-0.735776
-9.31215
-0.713692
-9.35813
-0.681889
-9.47607
-0.643668
-9.53902
-0.600156
-9.64754
-0.550348
-9.68061
-0.497933
-9.73085
-0.442873
-9.79194
-0.385402
-9.84864
-0.32451
-9.89912
-0.25998
-9.96159
-0.192162
-9.99778
-0.117556
-9.97028
-0.0440354
-9.28483
0.00756967
-7.17013
-3.29366
-0.712307
-8.13206
-0.778365
-8.59988
-0.803929
-8.92252
-0.8086
-9.11376
-0.792008
-9.32874
-0.765307
-9.38483
-0.72996
-9.51142
-0.688299
-9.58068
-0.641163
-9.69468
-0.587599
-9.73418
-0.531493
-9.78696
-0.472906
-9.85053
-0.41211
-9.90943
-0.348182
-9.96305
-0.280507
-10.0293
-0.209462
-10.0688
-0.131185
-10.0486
-0.052227
-9.36378
0.00624422
-7.2286
-3.28742
-0.762446
-7.99237
-0.83484
-8.52748
-0.859129
-8.89823
-0.864356
-9.10853
-0.84858
-9.34452
-0.819046
-9.41437
-0.781231
-9.54923
-0.736493
-9.62542
-0.68654
-9.74463
-0.62916
-9.79156
-0.569373
-9.84675
-0.506613
-9.91329
-0.442208
-9.97384
-0.374199
-10.0311
-0.303007
-10.1005
-0.226966
-10.1449
-0.144916
-10.1306
-0.0598165
-9.44888
0.00438708
-7.2928
-3.28303
7.92346
-7.58448
-8.33135
7.25945
-7.86347
6.62404
-8.26282
6.00278
-8.48727
5.40308
-8.74482
4.89487
-8.90616
4.43045
-9.08481
4.01329
-9.20826
3.61474
-9.34608
3.25072
-9.42754
2.91172
-9.50775
2.59213
-9.59369
2.27844
-9.66015
1.98657
-9.73919
1.70284
-9.81673
1.44402
-9.88605
1.14285
-9.82944
0.784293
-9.09032
0.304641
-6.81315
-2.97839
4.6388
-7.46704
-4.75625
4.47822
-7.70289
4.23471
-8.01931
3.97919
-8.23174
3.69413
-8.45977
3.43166
-8.64369
3.15873
-8.81188
2.8999
-8.94943
2.63319
-9.07937
2.37592
-9.17027
2.12951
-9.26133
1.90065
-9.36483
1.68577
-9.44528
1.49026
-9.54367
1.29733
-9.6238
1.10862
-9.69734
0.888414
-9.60924
0.602296
-8.80421
0.174636
-6.38549
-2.80375
3.32193
-7.54302
-3.24595
3.36717
-7.74813
3.3149
-7.96704
3.22011
-8.13696
3.07339
-8.31305
2.90835
-8.47865
2.72887
-8.6324
2.54391
-8.76448
2.34703
-8.88248
2.15769
-8.98094
1.97048
-9.07412
1.77746
-9.17181
1.58443
-9.25225
1.38401
-9.34325
1.18192
-9.4217
0.978749
-9.49417
0.777693
-9.40818
0.527723
-8.55424
0.221049
-6.07882
-2.5827
2.13613
-7.69655
-1.98259
2.22225
-7.83425
2.22857
-7.97336
2.21494
-8.12332
2.16289
-8.261
2.07509
-8.39085
1.959
-8.51631
1.82717
-8.63265
1.68732
-8.74263
1.55002
-8.84364
1.41186
-8.93596
1.26298
-9.02293
1.11851
-9.10778
0.969953
-9.1947
0.820238
-9.27198
0.686051
-9.35999
0.559928
-9.28206
0.395972
-8.39028
0.172999
-5.85584
-2.4097
1.49365
-7.82018
-1.37002
1.57598
-7.91658
1.63372
-8.0311
1.66782
-8.15742
1.65895
-8.25213
1.61753
-8.34943
1.54975
-8.44853
1.46469
-8.54759
1.37003
-8.64797
1.26692
-8.74053
1.15181
-8.82085
1.02508
-8.89621
0.895691
-8.97839
0.760511
-9.05952
0.625931
-9.1374
0.493075
-9.22713
0.363822
-9.1528
0.258526
-8.28498
0.147369
-5.74469
-2.26233
1.01349
-7.93193
-0.901741
1.10321
-8.0063
1.14897
-8.07686
1.15361
-8.16206
1.14415
-8.24267
1.1189
-8.32418
1.07271
-8.40234
1.00965
-8.48452
0.930712
-8.56903
0.843327
-8.65315
0.745361
-8.72288
0.64785
-8.7987
0.545805
-8.87634
0.44619
-8.9599
0.346188
-9.0374
0.23678
-9.11772
0.145027
-9.06105
0.120321
-8.26028
0.0977871
-5.72215
-2.16455
0.676828
-8.00815
-0.600609
0.72882
-8.05829
0.765554
-8.11359
0.792159
-8.18866
0.801589
-8.2521
0.790261
-8.31285
0.765017
-8.3771
0.722906
-8.44241
0.663216
-8.50934
0.590675
-8.5806
0.515821
-8.64803
0.434582
-8.71746
0.344249
-8.78601
0.250517
-8.86617
0.145017
-8.9319
0.0210374
-8.99374
-0.0760795
-8.96393
-0.0659351
-8.27042
0.0345266
-5.82261
-2.13002
0.465999
-8.06294
-0.411213
0.512168
-8.10446
0.546269
-8.14769
0.550442
-8.19283
0.537867
-8.23953
0.514951
-8.28994
0.484985
-8.34714
0.440017
-8.39744
0.382869
-8.45219
0.322839
-8.52057
0.26363
-8.58882
0.190827
-8.64466
0.114141
-8.70932
0.0212184
-8.77325
-0.0726432
-8.83804
-0.169721
-8.89666
-0.257086
-8.87657
-0.213295
-8.31421
0.000553473
-6.03646
-2.12947
0.270431
-8.09388
-0.239486
0.28958
-8.12361
0.300007
-8.15812
0.303879
-8.19671
0.304243
-8.23989
0.295933
-8.28163
0.274397
-8.3256
0.243031
-8.36608
0.207724
-8.41688
0.15099
-8.46384
0.0835804
-8.52141
0.00840325
-8.56948
-0.0725503
-8.62837
-0.172494
-8.67331
-0.273747
-8.73679
-0.366873
-8.80354
-0.439139
-8.8043
-0.37395
-8.3794
-0.083195
-6.32722
-2.21266
0.167344
-8.11045
-0.150779
0.1781
-8.13437
0.181967
-8.16198
0.175023
-8.18976
0.154872
-8.21974
0.122269
-8.24903
0.0846373
-8.28797
0.0462798
-8.32772
-3.74068e-05
-8.37057
-0.063797
-8.40008
-0.139539
-8.44567
-0.214703
-8.49432
-0.302763
-8.54031
-0.395981
-8.58009
-0.49501
-8.63776
-0.603441
-8.69511
-0.681367
-8.72638
-0.635696
-8.42508
-0.254986
-6.70793
-2.46765
0.0630007
-8.11254
-0.0609086
0.0591579
-8.13053
0.0491673
-8.15199
0.0306889
-8.17128
0.00402531
-8.19308
-0.0281654
-8.21684
-0.0682459
-8.24789
-0.116903
-8.27906
-0.175184
-8.31228
-0.235829
-8.33944
-0.302886
-8.37861
-0.383953
-8.41325
-0.473287
-8.45097
-0.560518
-8.49286
-0.660219
-8.53806
-0.788021
-8.5673
-0.903228
-8.61117
-0.899098
-8.42921
-0.496104
-7.11092
-2.96375
0.00771941
-8.10789
-0.0123651
-0.00223285
-8.12057
-0.0168834
-8.13734
-0.0353601
-8.15281
-0.0596557
-8.16878
-0.0914254
-8.18507
-0.133649
-8.20566
-0.18806
-8.22465
-0.247558
-8.25279
-0.307353
-8.27964
-0.380657
-8.30531
-0.464395
-8.32951
-0.554437
-8.36093
-0.655704
-8.39159
-0.773329
-8.42043
-0.901883
-8.43875
-1.04225
-8.4708
-1.0819
-8.38955
-0.760904
-7.43192
-3.72466
-0.0361187
-8.09515
0.0233718
-0.0539473
-8.10274
-0.0780626
-8.11323
-0.107014
-8.12386
-0.139918
-8.13588
-0.173334
-8.15165
-0.210877
-8.16812
-0.253277
-8.18225
-0.309641
-8.19642
-0.372819
-8.21646
-0.44432
-8.23381
-0.522634
-8.2512
-0.611609
-8.27196
-0.718541
-8.28466
-0.839815
-8.29916
-0.959761
-8.3188
-1.10771
-8.32286
-1.21494
-8.28232
-0.988464
-7.65839
-4.71312
-0.0590604
-8.08151
0.0454242
-0.075274
-8.08653
-0.0940926
-8.09441
-0.116723
-8.10123
-0.141558
-8.11104
-0.17367
-8.11954
-0.211321
-8.13047
-0.252455
-8.14112
-0.298479
-8.1504
-0.355354
-8.15959
-0.417366
-8.17179
-0.487969
-8.18059
-0.572365
-8.18756
-0.666263
-8.19076
-0.772119
-8.1933
-0.893166
-8.19776
-1.02758
-8.18844
-1.14154
-8.16836
-0.969707
-7.83023
-5.68283
-0.0743812
-8.06456
0.057432
-0.0935345
-8.06738
-0.115377
-8.07257
-0.139972
-8.07663
-0.166895
-8.08412
-0.195981
-8.09045
-0.229186
-8.09726
-0.267634
-8.10267
-0.30777
-8.11026
-0.353659
-8.1137
-0.407944
-8.11751
-0.467894
-8.12064
-0.531542
-8.12391
-0.599175
-8.12313
-0.671759
-8.12072
-0.760666
-8.10885
-0.853529
-8.09558
-0.943003
-8.07889
-0.831114
-7.94211
-6.51394
-0.0699192
-8.05026
0.0556211
-0.085042
-8.05226
-0.102151
-8.05546
-0.12092
-8.05786
-0.14358
-8.06146
-0.169903
-8.06413
-0.199543
-8.06762
-0.233678
-8.06854
-0.271229
-8.07271
-0.311011
-8.07392
-0.352108
-8.07641
-0.398599
-8.07415
-0.44688
-8.07563
-0.496553
-8.07345
-0.546339
-8.07093
-0.592743
-8.06245
-0.634546
-8.05378
-0.687285
-8.02615
-0.645107
-7.98429
-7.15905
-0.0661914
-8.03692
0.0528491
-0.0805727
-8.03787
-0.0965115
-8.03952
-0.113573
-8.0408
-0.131216
-8.04382
-0.149946
-8.0454
-0.170394
-8.04718
-0.191425
-8.04751
-0.215111
-8.04902
-0.239699
-8.04933
-0.264533
-8.05158
-0.288697
-8.04999
-0.312161
-8.05217
-0.336859
-8.04875
-0.357598
-8.05019
-0.379419
-8.04062
-0.398438
-8.03476
-0.403443
-8.02114
-0.378729