/*--------------------------------*- C++ -*----------------------------------*\
  =========                 |
  \\      /  F ield         | OpenFOAM: The Open Source CFD Toolbox
   \\    /   O peration     | Website:  https://openfoam.org
    \\  /    A nd           | Version:  9
     \\/     M anipulation  |
\*---------------------------------------------------------------------------*/
FoamFile
{
    format      ascii;
    class       volVectorField;
    location    "1";
    object      U;
}
// * * * * * * * * * * * * * * * * * * * * * * * * * * * * * * * * * * * * * //

dimensions      [0 1 -1 0 0 0 0];

internalField   nonuniform List<vector> 
46400
(
(7.87279 -7.69778 -2.18339e-19)
(16.387 -15.5955 1.74524e-19)
(17.7307 -17.6595 -5.81574e-20)
(17.1899 -17.7336 -4.60511e-20)
(16.6596 -17.7538 -4.4128e-20)
(16.1188 -17.8078 1.4513e-20)
(15.6305 -17.8398 -3.50248e-20)
(15.1033 -17.8282 3.3259e-20)
(14.6518 -17.8658 -3.95358e-20)
(14.2415 -17.9227 4.50605e-20)
(13.8138 -17.9492 -4.98307e-20)
(13.4257 -17.9836 0)
(13.0574 -18.0423 3.45814e-19)
(12.7213 -18.0966 -3.97103e-19)
(12.3878 -18.16 -5.1931e-19)
(12.0611 -18.1796 -9.49297e-20)
(11.7334 -18.2308 -2.80487e-20)
(11.4438 -18.2264 4.21239e-19)
(11.1457 -18.1857 5.8807e-19)
(10.7197 -18.3763 -5.4148e-19)
(8.20351 -7.38017 0)
(16.5629 -14.664 -2.89171e-20)
(17.7227 -16.4494 0)
(17.0805 -16.5541 6.49198e-20)
(16.5288 -16.5668 -6.68194e-20)
(15.935 -16.6566 1.76243e-20)
(15.4343 -16.7003 0)
(14.918 -16.7632 -3.32582e-20)
(14.4907 -16.8672 3.95346e-20)
(14.0494 -16.9208 -4.50595e-20)
(13.6401 -17.006 5.50246e-19)
(13.253 -17.0604 3.53957e-20)
(12.8906 -17.156 -4.6176e-19)
(12.546 -17.2099 0)
(12.2241 -17.297 6.35269e-20)
(11.9308 -17.3662 6.5958e-20)
(11.6422 -17.4585 0)
(11.3914 -17.4987 -6.40592e-19)
(11.1453 -17.5364 -1.67095e-19)
(10.7997 -17.732 6.52394e-19)
(8.45307 -6.92085 1.19572e-20)
(16.5944 -13.7277 -1.11274e-19)
(17.4988 -15.0886 9.5905e-20)
(16.8706 -15.2825 1.83182e-19)
(16.3579 -15.3813 -1.79838e-19)
(15.8127 -15.5167 0)
(15.3203 -15.639 -6.1305e-19)
(14.7825 -15.6858 5.2738e-19)
(14.3225 -15.806 -6.97387e-19)
(13.927 -15.9358 6.90558e-19)
(13.494 -16.0301 6.65564e-19)
(13.1021 -16.1145 -6.274e-20)
(12.7335 -16.2369 -5.79392e-19)
(12.4067 -16.3592 0)
(12.0717 -16.4716 7.26301e-19)
(11.7497 -16.5452 -7.15288e-19)
(11.438 -16.6555 0)
(11.1791 -16.7307 -1.49083e-20)
(10.8995 -16.8006 8.41023e-20)
(10.5329 -17.0373 -7.77407e-19)
(8.64381 -6.48097 -1.39639e-19)
(16.5123 -12.7056 2.97282e-20)
(17.2472 -13.8945 2.6601e-19)
(16.5544 -14.0889 -2.62727e-19)
(16.0069 -14.2042 -2.35254e-19)
(15.4298 -14.367 3.20951e-19)
(14.9419 -14.5151 4.44601e-19)
(14.4358 -14.6461 -1.12892e-18)
(13.992 -14.8084 9.47588e-19)
(13.57 -14.9432 -8.86907e-20)
(13.1808 -15.1089 0)
(12.7884 -15.2049 9.36968e-20)
(12.4139 -15.3339 -9.5494e-20)
(12.079 -15.448 0)
(11.7872 -15.6272 8.59146e-19)
(11.504 -15.7573 -7.31048e-19)
(11.2093 -15.8891 0)
(10.9732 -16.0116 9.95409e-20)
(10.7426 -16.1424 1.12668e-19)
(10.3723 -16.3935 8.98325e-19)
(8.7866 -6.02719 0)
(16.3121 -11.6081 0)
(16.8187 -12.5873 -3.83352e-19)
(16.1885 -12.8555 2.64751e-19)
(15.6762 -13.0461 -5.26347e-19)
(15.1454 -13.2567 4.27045e-19)
(14.66 -13.4706 0)
(14.1226 -13.5749 4.77584e-19)
(13.6549 -13.7667 -5.77661e-19)
(13.2758 -13.9671 -1.31922e-19)
(12.8645 -14.1574 -1.32658e-19)
(12.4951 -14.3138 0)
(12.1227 -14.4822 9.99188e-19)
(11.7768 -14.6199 -9.83561e-19)
(11.44 -14.7751 0)
(11.1534 -14.9429 -1.1069e-18)
(10.8429 -15.0941 9.77076e-19)
(10.5714 -15.2005 9.79589e-19)
(10.3365 -15.378 -1.06863e-18)
(10.0027 -15.6781 0)
(8.98168 -5.55569 0)
(15.9433 -10.4255 0)
(16.365 -11.389 0)
(15.6734 -11.6624 -2.90361e-20)
(15.1131 -11.8836 0)
(14.5566 -12.1148 0)
(14.1071 -12.3902 0)
(13.6278 -12.5906 -1.52345e-19)
(13.1548 -12.7888 0)
(12.7465 -12.9839 1.31922e-19)
(12.3939 -13.2408 -2.00799e-20)
(12.0242 -13.4141 -1.29984e-18)
(11.6677 -13.6074 9.78295e-19)
(11.3461 -13.7798 -1.28622e-18)
(11.0425 -13.9789 9.69881e-19)
(10.7692 -14.1582 0)
(10.5089 -14.377 -1.10768e-18)
(10.2438 -14.5063 9.47218e-19)
(10.0007 -14.6601 0)
(9.67691 -14.9924 -1.49479e-19)
(9.21339 -5.15617 5.47153e-19)
(15.4594 -9.25621 1.60654e-19)
(15.6789 -10.0874 6.24165e-19)
(15.0867 -10.4493 -6.43995e-19)
(14.5926 -10.7736 -6.50618e-19)
(14.0782 -11.05 1.29591e-18)
(13.618 -11.3721 -1.4808e-18)
(13.1294 -11.5724 1.39836e-19)
(12.6717 -11.8373 4.75772e-19)
(12.2824 -12.0653 0)
(11.8957 -12.3266 -1.94674e-20)
(11.5781 -12.5718 -1.85458e-20)
(11.221 -12.7958 1.51203e-19)
(10.8837 -12.9722 1.25616e-18)
(10.5565 -13.1713 -1.10468e-18)
(10.2675 -13.356 -1.40559e-18)
(9.99434 -13.5727 1.22436e-18)
(9.75857 -13.7598 -1.41836e-20)
(9.51367 -13.9156 -1.558e-19)
(9.19207 -14.2367 -1.11741e-18)
(9.46998 -4.72293 -1.82691e-19)
(14.867 -8.22549 3.15319e-20)
(14.9437 -8.95979 -1.97371e-19)
(14.3261 -9.34008 -7.79307e-19)
(13.792 -9.69378 5.38639e-19)
(13.2802 -9.98452 0)
(12.8902 -10.379 1.12581e-18)
(12.4705 -10.661 -5.42707e-19)
(12.004 -10.9153 3.69561e-19)
(11.6182 -11.1645 1.93063e-19)
(11.2797 -11.4657 -3.65431e-19)
(10.9492 -11.7098 8.87333e-19)
(10.6557 -11.9957 1.8574e-19)
(10.3612 -12.2238 -1.05239e-18)
(10.0654 -12.452 2.94338e-18)
(9.79309 -12.6571 -1.19869e-18)
(9.53293 -12.889 1.51561e-18)
(9.30173 -13.0829 -9.91476e-19)
(9.09239 -13.301 3.24679e-19)
(8.79813 -13.6106 1.56425e-18)
(9.66785 -4.33057 9.37567e-19)
(14.0775 -7.14273 -1.94264e-19)
(13.952 -7.7982 -2.79699e-20)
(13.5036 -8.24225 4.24407e-19)
(13.0837 -8.72496 1.99462e-19)
(12.603 -9.04572 2.22183e-19)
(12.1829 -9.4474 -1.03957e-18)
(11.7983 -9.7609 6.30062e-19)
(11.3885 -10.0998 -1.951e-19)
(10.9911 -10.347 -1.93058e-19)
(10.632 -10.6569 -1.90799e-19)
(10.3466 -10.9468 -2.05155e-19)
(10.0237 -11.2216 -3.87505e-19)
(9.75083 -11.4734 1.34307e-18)
(9.46216 -11.7244 -1.87763e-18)
(9.18958 -11.9257 -1.91266e-19)
(8.935 -12.1665 1.32756e-20)
(8.70427 -12.3576 -1.40978e-18)
(8.49527 -12.5773 1.05177e-18)
(8.25146 -12.9126 -1.66942e-18)
(9.73519 -4.01568 8.50805e-19)
(13.2383 -6.19153 -2.1548e-18)
(13.0111 -6.8741 1.4265e-18)
(12.5317 -7.29396 -2.2522e-19)
(12.0798 -7.77032 -2.46702e-19)
(11.6538 -8.13375 9.57284e-19)
(11.3211 -8.59967 -1.15978e-18)
(10.9702 -8.94201 0)
(10.5768 -9.27178 8.96818e-19)
(10.2368 -9.572 -8.81853e-19)
(9.89456 -9.88742 -6.42642e-19)
(9.61023 -10.1911 8.37868e-19)
(9.36916 -10.5439 2.01755e-19)
(9.10554 -10.816 -8.21441e-19)
(8.87623 -11.1255 1.97673e-19)
(8.62833 -11.3658 9.84993e-19)
(8.38475 -11.6123 -1.73811e-18)
(8.1663 -11.8253 1.14704e-18)
(7.94754 -12.033 -1.12768e-20)
(7.71091 -12.3478 -1.59262e-18)
(9.53357 -3.62354 1.18532e-18)
(12.1976 -5.29728 -7.96378e-19)
(11.8581 -5.9213 5.3241e-19)
(11.5463 -6.41488 7.21456e-21)
(11.2423 -6.99715 -1.04812e-18)
(10.7989 -7.34593 -9.97225e-19)
(10.4455 -7.82218 1.23942e-18)
(10.1962 -8.24271 -7.28956e-19)
(9.85166 -8.63651 9.66845e-19)
(9.48369 -8.89455 0)
(9.14848 -9.21827 1.52442e-20)
(8.84669 -9.48166 2.20783e-19)
(8.57737 -9.80735 2.30449e-19)
(8.36134 -10.1157 -2.25646e-19)
(8.12083 -10.4193 0)
(7.93469 -10.7168 2.16201e-19)
(7.71385 -10.9954 0)
(7.52428 -11.2292 4.03171e-19)
(7.33409 -11.4764 1.96623e-18)
(7.11036 -11.7578 -1.37764e-20)
(9.09804 -3.16372 6.54599e-19)
(11.2144 -4.51855 -1.37953e-19)
(10.8608 -5.15402 -2.00845e-18)
(10.4226 -5.56332 1.12397e-18)
(10.1108 -6.1549 2.67508e-19)
(9.77066 -6.57855 -2.6337e-19)
(9.42297 -7.05729 -1.07118e-18)
(9.16239 -7.49269 7.98263e-19)
(8.94628 -7.98519 0)
(8.69176 -8.37109 0)
(8.3716 -8.69988 -1.22764e-18)
(8.09999 -9.01166 9.71595e-19)
(7.82627 -9.31261 -2.30467e-19)
(7.59546 -9.6102 -6.99526e-19)
(7.392 -9.9359 5.99171e-21)
(7.18341 -10.2142 1.5598e-18)
(7.02178 -10.5501 -8.71639e-19)
(6.83222 -10.7979 6.39183e-19)
(6.68208 -11.0903 -1.03637e-18)
(6.48657 -11.3989 0)
(8.4765 -2.67438 -5.70215e-19)
(10.0627 -3.77462 9.19478e-19)
(9.68982 -4.42143 1.57079e-19)
(9.39466 -4.903 1.54347e-19)
(9.14121 -5.50053 0)
(8.80517 -5.90815 1.15698e-18)
(8.4713 -6.3904 -1.13664e-18)
(8.22737 -6.81295 1.4249e-19)
(7.95429 -7.26658 0)
(7.77061 -7.68913 1.0626e-18)
(7.53918 -8.10431 -9.12013e-19)
(7.28632 -8.40778 1.01553e-18)
(7.05738 -8.76131 -9.99449e-19)
(6.8163 -9.0151 9.69745e-19)
(6.61685 -9.34302 -8.3343e-19)
(6.42258 -9.60305 -9.25617e-19)
(6.24247 -9.91268 1.81608e-18)
(6.10007 -10.1904 -7.77932e-19)
(5.93893 -10.4699 1.10377e-19)
(5.80698 -10.8249 9.25683e-19)
(7.65411 -2.17499 -4.56547e-19)
(8.91273 -3.14401 4.92071e-19)
(8.54216 -3.81171 -1.57081e-19)
(8.15255 -4.24886 -1.54343e-19)
(7.96705 -4.90062 0)
(7.72156 -5.36155 0)
(7.39597 -5.83449 0)
(7.17343 -6.27728 -2.91263e-19)
(6.9795 -6.77663 -1.13805e-18)
(6.77749 -7.19944 2.23079e-18)
(6.62201 -7.6849 -1.22679e-18)
(6.4325 -8.06924 -1.35451e-19)
(6.2438 -8.46209 0)
(6.05472 -8.79086 0)
(5.85482 -9.10479 -2.47297e-19)
(5.68377 -9.39933 0)
(5.49484 -9.67289 9.39213e-19)
(5.34052 -9.9375 -1.15544e-18)
(5.18243 -10.1924 -1.0044e-18)
(5.02459 -10.4934 9.72057e-19)
(6.70367 -1.67924 4.76212e-19)
(7.64332 -2.54917 8.59812e-19)
(7.36436 -3.2843 -1.19719e-22)
(7.07099 -3.79785 -1.29052e-21)
(6.85447 -4.43541 1.63239e-19)
(6.704 -4.95645 -4.74498e-19)
(6.4128 -5.43174 0)
(6.13466 -5.79555 -4.55966e-19)
(5.90056 -6.23256 1.54497e-19)
(5.72195 -6.61211 5.80723e-19)
(5.54996 -7.04803 5.62794e-19)
(5.4241 -7.4459 -4.18217e-19)
(5.27835 -7.86718 1.0717e-18)
(5.15597 -8.23765 -9.21799e-19)
(5.0122 -8.62142 1.14591e-18)
(4.8832 -8.94519 -2.12621e-18)
(4.74687 -9.29634 9.80173e-19)
(4.61625 -9.57006 1.17051e-19)
(4.491 -9.87844 9.23426e-19)
(4.34936 -10.1773 -1.00444e-18)
(5.6261 -1.22636 1.65885e-19)
(6.19208 -2.02049 -1.7524e-19)
(5.94376 -2.72985 7.02389e-19)
(5.63535 -3.2138 -6.89379e-19)
(5.51722 -3.89819 -3.35703e-19)
(5.46407 -4.50752 -8.17714e-19)
(5.38228 -5.14796 4.162e-21)
(5.21662 -5.62446 6.29636e-19)
(5.02979 -6.10899 -1.50602e-19)
(4.83348 -6.49313 0)
(4.65986 -6.91157 0)
(4.48867 -7.2586 0)
(4.34945 -7.65181 0)
(4.21118 -7.98405 3.40466e-21)
(4.09388 -8.35356 0)
(3.9735 -8.66685 1.26686e-19)
(3.86551 -9.00993 4.98268e-19)
(3.75829 -9.29943 -1.46297e-18)
(3.66014 -9.60079 1.07821e-18)
(3.55533 -9.91538 -1.0202e-18)
(4.63964 -0.915564 0)
(4.95669 -1.6441 -9.31756e-20)
(4.98281 -2.40675 0)
(4.66048 -2.82557 2.63008e-19)
(4.31162 -3.33675 -1.7536e-19)
(4.16608 -3.82429 -6.72487e-19)
(4.06441 -4.42425 4.14218e-21)
(3.98224 -4.95031 6.45063e-19)
(3.89229 -5.50935 -6.24661e-19)
(3.79698 -5.98281 1.22335e-18)
(3.68892 -6.46873 -5.38551e-21)
(3.59014 -6.8849 -5.84171e-19)
(3.47045 -7.30866 5.63981e-19)
(3.38035 -7.68219 -6.91728e-19)
(3.26708 -8.06465 0)
(3.18526 -8.40397 -5.22045e-19)
(3.081 -8.75709 5.14253e-19)
(3.00433 -9.06233 0)
(2.91016 -9.37755 -1.20356e-19)
(2.82976 -9.70117 0)
(3.17444 -0.5937 9.51401e-20)
(3.2769 -1.29648 9.31329e-20)
(3.43642 -2.22667 0)
(3.43538 -2.89325 3.58737e-19)
(3.2383 -3.52234 -4.4268e-19)
(3.05759 -3.97116 2.56587e-19)
(2.90752 -4.5177 -7.56463e-19)
(2.80399 -4.94513 3.2894e-19)
(2.70017 -5.45558 -8.03523e-20)
(2.62218 -5.86722 0)
(2.54206 -6.3391 -7.63124e-20)
(2.47231 -6.7208 -7.43544e-20)
(2.40305 -7.15346 -7.24486e-20)
(2.32986 -7.49858 0)
(2.2693 -7.89711 -5.44395e-19)
(2.19671 -8.2106 1.13365e-18)
(2.14166 -8.58211 -9.74298e-19)
(2.07064 -8.86504 5.09426e-19)
(2.02 -9.19324 6.20992e-20)
(1.94289 -9.49979 5.28598e-19)
(2.31285 -0.587161 -1.45355e-19)
(1.87155 -0.942803 -1.9072e-19)
(1.91761 -1.7111 5.5626e-22)
(1.97632 -2.26459 5.02185e-19)
(2.01055 -3.02564 -1.35073e-19)
(1.94939 -3.53659 -8.70887e-20)
(1.89509 -4.17405 8.57718e-20)
(1.83021 -4.63388 1.66488e-19)
(1.76927 -5.20143 8.03405e-20)
(1.70963 -5.61733 -3.13617e-19)
(1.66149 -6.13366 3.46295e-19)
(1.60685 -6.51496 7.43479e-20)
(1.56295 -6.98357 3.6236e-19)
(1.51224 -7.33231 -2.96491e-21)
(1.46599 -7.75338 3.17336e-20)
(1.42052 -8.07163 -6.06069e-19)
(1.37485 -8.45351 1.65847e-19)
(1.33518 -8.74178 0)
(1.2924 -9.07008 -3.08141e-20)
(1.25438 -9.37491 -2.67163e-19)
(0.391816 -1.09471 0)
(0.920101 -1.03987 -9.40315e-20)
(0.670305 -2.11769 1.0864e-19)
(0.68593 -2.41646 -4.63291e-20)
(0.528381 -3.20453 -4.53396e-20)
(0.555842 -3.60432 0)
(0.481911 -4.27783 -8.52407e-20)
(0.489415 -4.6681 1.66844e-19)
(0.451677 -5.25887 -8.16628e-20)
(0.452281 -5.62858 7.8849e-20)
(0.4192 -6.15178 -3.90681e-20)
(0.428254 -6.49936 -7.48119e-20)
(0.402235 -6.97034 1.46492e-19)
(0.415482 -7.29605 -1.4271e-19)
(0.395352 -7.72377 3.52187e-20)
(0.40469 -8.02592 2.406e-34)
(0.388252 -8.41799 -3.27259e-20)
(0.392678 -8.69403 1.92651e-19)
(0.380636 -9.03488 -9.50642e-20)
(0.383423 -9.3336 -6.79573e-20)
(-0.183312 1.52521 5.40488e-20)
(0.122579 0.71728 2.41227e-20)
(0.617966 -2.16604 0)
(2.76174 -9.04078 2.41956e-20)
(5.87173 -18.2659 1.50683e-20)
(7.78685 -24.2334 2.40356e-20)
(8.66156 -27.1099 0)
(8.94238 -28.0138 2.18896e-20)
(8.99787 -28.273 0)
(8.97421 -28.2604 0)
(8.89916 -28.2333 -1.98908e-20)
(8.82701 -28.1189 6.65096e-22)
(8.74496 -28.0874 3.92083e-20)
(8.70625 -28.0512 0)
(8.60081 -28.0205 1.77401e-20)
(8.55267 -27.9339 1.73793e-20)
(8.43741 -27.9015 1.68187e-20)
(8.40104 -27.8569 0)
(8.2914 -27.8475 -3.11226e-20)
(8.25068 -27.7642 2.93225e-20)
(-0.184136 1.37169 8.11633e-20)
(0.386267 -0.236911 -1.32988e-19)
(1.44456 -4.90115 0)
(4.73348 -14.5841 -1.25247e-19)
(7.27103 -22.3053 1.2314e-19)
(8.64599 -26.4523 -2.17063e-19)
(9.10632 -27.8008 9.15972e-20)
(9.18706 -28.1871 6.06833e-20)
(9.17698 -28.1933 -2.66394e-19)
(9.13051 -28.1682 1.57807e-19)
(9.05516 -28.0671 -2.01833e-20)
(8.99745 -27.9836 1.55901e-19)
(8.91507 -27.9284 -2.87916e-21)
(8.86372 -27.8318 -1.48163e-19)
(8.76651 -27.7965 -1.79705e-20)
(8.73146 -27.7413 -1.70917e-20)
(8.63284 -27.7353 -1.61954e-20)
(8.59462 -27.6317 0)
(8.45775 -27.5952 -1.21601e-19)
(8.42858 -27.5042 2.0921e-21)
(0.0638847 1.05348 -4.26699e-20)
(0.575359 -1.88302 0)
(2.91952 -9.12013 0)
(6.41569 -18.9209 -4.30528e-20)
(8.4277 -25.0144 4.95933e-20)
(9.25697 -27.3778 0)
(9.42492 -28.0499 -4.56919e-20)
(9.45837 -28.1197 1.23767e-19)
(9.42324 -28.0981 -1.18623e-19)
(9.35064 -27.9895 1.59379e-19)
(9.26966 -27.8916 -2.01336e-19)
(9.1957 -27.7948 0)
(9.11109 -27.729 -1.46641e-19)
(9.06519 -27.6796 -1.38161e-19)
(8.96649 -27.6595 2.44217e-19)
(8.92981 -27.5755 -2.61315e-19)
(8.79769 -27.5151 2.2611e-19)
(8.75025 -27.4018 0)
(8.62717 -27.3946 -2.58189e-19)
(8.59733 -27.2886 4.28962e-19)
(0.37719 0.239561 2.75161e-19)
(1.08245 -3.83522 0)
(4.47788 -13.4003 1.04769e-19)
(7.68238 -22.3062 1.51286e-19)
(9.19582 -26.5346 -3.00722e-19)
(9.61454 -27.8521 9.4769e-20)
(9.73819 -28.0964 4.36851e-20)
(9.70505 -28.073 4.36599e-19)
(9.63998 -27.9507 -6.53203e-19)
(9.55175 -27.8162 -7.30593e-20)
(9.48647 -27.7124 3.57715e-19)
(9.41768 -27.62 7.4493e-20)
(9.35165 -27.5734 -3.5737e-19)
(9.29 -27.4886 3.49893e-19)
(9.1881 -27.4212 9.95889e-20)
(9.13735 -27.3223 -6.30057e-20)
(9.0094 -27.2805 9.19427e-20)
(8.9772 -27.1842 0)
(8.8387 -27.1569 -2.58946e-20)
(8.80024 -26.9954 0)
(0.350117 -0.82177 0)
(1.89612 -6.06099 4.32313e-19)
(6.04349 -17.1776 -5.3014e-19)
(8.76582 -24.4897 5.12844e-19)
(9.78201 -27.3616 -4.03588e-19)
(10.0646 -28.0203 -9.1406e-20)
(10.0378 -28.0234 0)
(9.99027 -27.9077 2.47231e-19)
(9.89019 -27.7366 -3.41816e-19)
(9.83098 -27.6481 3.98731e-19)
(9.7533 -27.5455 -3.1231e-19)
(9.67173 -27.4534 -7.44865e-20)
(9.58564 -27.3661 3.49288e-19)
(9.50967 -27.2813 -6.08021e-19)
(9.40931 -27.2252 3.87613e-19)
(9.35428 -27.1327 -1.27262e-19)
(9.21757 -27.0644 -2.94791e-19)
(9.17924 -26.9469 6.73375e-19)
(9.01931 -26.9099 -3.7877e-19)
(8.98777 -26.7384 -4.44353e-19)
(0.304222 -1.7947 4.57075e-19)
(3.05025 -9.22721 4.42929e-19)
(7.30224 -20.0835 -4.37217e-19)
(9.60641 -26.0601 -1.06991e-19)
(10.2707 -27.7906 1.00594e-19)
(10.3697 -27.9971 3.64537e-19)
(10.3637 -27.9378 -3.50647e-19)
(10.2675 -27.7381 0)
(10.2097 -27.6197 3.27934e-19)
(10.1204 -27.4766 -3.22426e-19)
(10.0346 -27.3352 -2.9713e-19)
(9.94547 -27.2169 2.92324e-19)
(9.86915 -27.1507 0)
(9.78701 -27.0594 0)
(9.68186 -26.978 5.54648e-19)
(9.60446 -26.8644 -5.44341e-19)
(9.46228 -26.7984 -4.48392e-19)
(9.42117 -26.6887 4.37598e-19)
(9.24547 -26.6412 -4.03001e-19)
(9.2055 -26.4318 4.85584e-19)
(0.496892 -2.67554 -3.5183e-19)
(4.27302 -11.8481 1.233e-19)
(8.44061 -22.2769 1.10401e-20)
(10.4151 -26.9172 5.49217e-19)
(10.7879 -27.921 0)
(10.8455 -27.9603 0)
(10.7629 -27.7822 6.94546e-19)
(10.6495 -27.5487 -2.7083e-20)
(10.55 -27.3775 -6.69932e-19)
(10.4562 -27.2438 6.10443e-19)
(10.3568 -27.1133 -6.00392e-19)
(10.259 -27.0176 0)
(10.1602 -26.9156 5.2068e-19)
(10.0509 -26.8036 -5.12482e-19)
(9.93596 -26.7119 0)
(9.84431 -26.6037 0)
(9.70023 -26.5268 0)
(9.64692 -26.4054 0)
(9.444 -26.3414 0)
(9.40515 -26.1242 -4.72293e-20)
(0.841779 -3.63601 3.69008e-19)
(5.61685 -14.2431 -6.01855e-19)
(9.5929 -23.8976 0)
(11.1502 -27.4563 0)
(11.3447 -27.9106 8.88299e-19)
(11.289 -27.7972 5.81943e-20)
(11.1543 -27.5217 -8.33565e-19)
(11.0385 -27.3083 0)
(10.9476 -27.1747 7.95478e-20)
(10.8231 -27.0075 -7.46757e-20)
(10.7025 -26.8447 0)
(10.5804 -26.7105 6.60494e-20)
(10.4704 -26.6183 -5.61919e-19)
(10.3525 -26.5085 1.02292e-18)
(10.2293 -26.4149 -1.81673e-20)
(10.1182 -26.3037 -4.40119e-19)
(9.96405 -26.2191 -4.94384e-20)
(9.89099 -26.0913 4.66437e-20)
(9.66932 -26.0129 0)
(9.62557 -25.779 4.13228e-20)
(1.44019 -4.71081 1.44692e-19)
(7.0024 -15.9726 1.39037e-19)
(10.6622 -24.912 -7.30624e-19)
(11.8913 -27.5208 2.21539e-19)
(11.931 -27.7078 9.9599e-20)
(11.8334 -27.5168 8.25729e-19)
(11.6675 -27.2705 -1.17141e-18)
(11.5177 -27.0378 8.54014e-19)
(11.3678 -26.8371 -6.92093e-19)
(11.22 -26.6678 8.20761e-19)
(11.0784 -26.5165 1.34403e-19)
(10.9442 -26.4082 5.64823e-19)
(10.8133 -26.297 -3.16979e-19)
(10.6666 -26.1735 -6.15561e-19)
(10.5251 -26.0677 5.43255e-19)
(10.3885 -25.9514 0)
(10.229 -25.8624 1.41163e-19)
(10.1295 -25.7347 3.94994e-20)
(9.89538 -25.6454 -8.14596e-20)
(9.84135 -25.4125 3.4406e-20)
(2.20451 -5.66965 0)
(7.94576 -17.2284 3.74411e-19)
(11.7765 -25.5503 -1.65505e-21)
(12.5834 -27.4693 -4.31978e-19)
(12.5338 -27.4371 -3.95119e-19)
(12.3391 -27.1633 -1.886e-19)
(12.1332 -26.8786 -5.6353e-21)
(11.9442 -26.6412 -1.65171e-19)
(11.7971 -26.4968 0)
(11.6174 -26.3201 -1.43753e-19)
(11.4481 -26.1504 -1.34384e-19)
(11.283 -26.0163 -7.57846e-21)
(11.1284 -25.9104 4.38016e-19)
(10.967 -25.7889 -2.25694e-19)
(10.8123 -25.6886 -4.94215e-19)
(10.6631 -25.5842 3.84533e-19)
(10.4927 -25.4874 2.51689e-19)
(10.3715 -25.3561 -4.24484e-19)
(10.1307 -25.2617 8.14581e-20)
(10.0646 -25.0224 4.94343e-19)
(2.66753 -6.60776 -1.23952e-18)
(9.17467 -18.2537 8.92971e-19)
(12.7137 -25.7599 -1.37024e-18)
(13.3005 -27.0778 1.09813e-18)
(13.1359 -26.9777 9.58323e-19)
(12.9171 -26.6949 -7.56298e-19)
(12.6856 -26.4591 -9.88627e-19)
(12.4692 -26.2326 3.88883e-20)
(12.2555 -26.0243 5.92621e-19)
(12.0438 -25.8449 -3.87639e-19)
(11.8481 -25.6913 9.84905e-19)
(11.6628 -25.5761 -5.88206e-19)
(11.4856 -25.4682 -1.1005e-19)
(11.2971 -25.3497 2.79759e-19)
(11.1183 -25.2497 -7.3208e-19)
(10.9375 -25.1398 3.50235e-19)
(10.7524 -25.0505 0)
(10.5997 -24.9306 -5.76383e-19)
(10.3455 -24.8349 5.67269e-19)
(10.261 -24.5958 -4.45037e-19)
(3.39609 -7.19831 2.4596e-19)
(10.0507 -19.0492 2.73512e-19)
(13.6801 -25.77 1.1741e-18)
(13.9609 -26.7028 1.0017e-18)
(13.7152 -26.4815 -6.0199e-19)
(13.4436 -26.1911 8.4186e-19)
(13.1498 -25.9103 -4.97537e-19)
(12.883 -25.6715 5.65126e-19)
(12.6708 -25.5312 -1.07429e-18)
(12.426 -25.3595 3.821e-19)
(12.2006 -25.1958 0)
(11.9856 -25.0748 0)
(11.7821 -24.9728 0)
(11.5723 -24.8553 -6.86463e-19)
(11.3757 -24.7616 6.75858e-19)
(11.1822 -24.67 0)
(10.9834 -24.5743 0)
(10.8075 -24.4623 -5.9097e-20)
(10.5503 -24.3723 0)
(10.4553 -24.1384 -4.90556e-19)
(3.91857 -7.72308 -4.76728e-19)
(11.2287 -19.2828 -1.18347e-18)
(14.4728 -25.3705 -8.22792e-19)
(14.6611 -25.961 -1.38176e-19)
(14.3038 -25.7717 1.07401e-18)
(14.0162 -25.5132 -2.19828e-19)
(13.6928 -25.2957 -4.60674e-20)
(13.3976 -25.0933 -6.87839e-19)
(13.1175 -24.9009 0)
(12.8385 -24.7397 -3.25416e-19)
(12.584 -24.6029 5.18786e-19)
(12.3419 -24.4932 0)
(12.1128 -24.4022 6.53845e-19)
(11.8811 -24.3003 -6.43582e-19)
(11.6596 -24.2185 5.45075e-19)
(11.4383 -24.1275 -9.76064e-19)
(11.2218 -24.0512 4.90421e-19)
(11.0196 -23.9532 5.90939e-20)
(10.7525 -23.8691 -4.35853e-20)
(10.6437 -23.6336 3.50891e-19)
(4.5906 -8.14871 -6.46912e-19)
(12.1538 -19.5346 4.34778e-20)
(15.2101 -24.9557 6.42484e-20)
(15.2328 -25.3272 1.47211e-18)
(14.808 -25.083 1.14555e-19)
(14.4651 -24.8326 -7.64263e-19)
(14.0899 -24.5825 -5.14958e-19)
(13.7428 -24.3746 1.69589e-19)
(13.4693 -24.2584 5.58022e-19)
(13.1585 -24.1068 -5.73636e-19)
(12.8758 -23.9666 2.76096e-19)
(12.6103 -23.8712 -6.86898e-19)
(12.3588 -23.7904 5.39089e-19)
(12.103 -23.6939 -4.98068e-19)
(11.8629 -23.6207 4.38595e-19)
(11.6274 -23.5492 3.44114e-19)
(11.3973 -23.4705 -3.96681e-19)
(11.1771 -23.3982 2.88454e-19)
(10.9169 -23.3444 -2.74384e-19)
(10.7969 -23.1215 -2.91911e-19)
(5.10292 -8.33197 -8.11328e-19)
(13.0539 -19.2648 -1.46209e-19)
(15.8469 -24.192 7.54951e-19)
(15.8048 -24.3635 -6.38215e-19)
(15.3204 -24.1871 6.26536e-19)
(14.9625 -23.9814 1.40967e-19)
(14.5725 -23.8003 0)
(14.1955 -23.634 -9.65485e-20)
(13.8552 -23.4766 2.55791e-19)
(13.5177 -23.3549 -8.95299e-19)
(13.2058 -23.2484 6.2449e-19)
(12.909 -23.1578 1.30669e-19)
(12.6301 -23.0973 6.51369e-20)
(12.3568 -23.0233 0)
(12.0921 -22.9711 1.40079e-20)
(11.8353 -22.9118 2.97415e-19)
(11.5851 -22.8598 -3.44274e-20)
(11.3377 -22.7951 2.88154e-20)
(11.0683 -22.7546 -2.19531e-19)
(10.935 -22.5369 4.29316e-20)
(5.7164 -8.48856 7.30628e-19)
(13.8742 -19.1151 -1.24907e-18)
(16.4642 -23.3936 6.90211e-19)
(16.2456 -23.52 5.58367e-19)
(15.7365 -23.311 -5.70057e-20)
(15.2916 -23.1267 -3.78777e-19)
(14.8584 -22.9247 9.00683e-20)
(14.4381 -22.7714 9.65408e-20)
(14.1076 -22.6979 0)
(13.7373 -22.5794 0)
(13.4017 -22.4807 -4.34672e-19)
(13.0898 -22.4195 7.02134e-19)
(12.7943 -22.3726 -3.67664e-19)
(12.4991 -22.3103 0)
(12.2176 -22.2673 1.51196e-20)
(11.9453 -22.2231 -2.02603e-19)
(11.6854 -22.1796 1.95304e-19)
(11.4261 -22.1562 -2.31081e-20)
(11.1719 -22.1587 -9.15294e-20)
(11.0323 -21.9571 6.9025e-20)
(6.18813 -8.46559 -6.43564e-19)
(14.55 -18.5305 8.03745e-19)
(16.8976 -22.3455 0)
(16.6471 -22.3666 0)
(16.1025 -22.2582 9.62319e-20)
(15.6679 -22.1289 -4.53303e-19)
(15.2257 -22.0079 2.34466e-20)
(14.7791 -21.8884 2.9404e-19)
(14.3878 -21.786 -4.29157e-19)
(14.0062 -21.7214 7.798e-19)
(13.6427 -21.6537 -3.51938e-19)
(13.2995 -21.5961 6.50595e-20)
(12.9783 -21.5762 2.03501e-19)
(12.6697 -21.5405 -3.10672e-20)
(12.3676 -21.5261 -1.09155e-19)
(12.0807 -21.5004 1.76695e-20)
(11.7959 -21.4757 -4.41715e-20)
(11.5049 -21.447 3.05471e-20)
(11.2477 -21.474 1.42733e-20)
(11.101 -21.3014 -2.60789e-20)
(6.69482 -8.42221 0)
(15.2144 -18.0595 3.54621e-19)
(17.2892 -21.3787 -3.99552e-19)
(16.93 -21.3764 0)
(16.3636 -21.2379 -9.62126e-20)
(15.8423 -21.139 2.60242e-19)
(15.3698 -21.0016 -3.24893e-19)
(14.8928 -20.9157 0)
(14.5172 -20.8944 2.69956e-19)
(14.1013 -20.8218 -2.65445e-19)
(13.724 -20.7821 1.15585e-20)
(13.3732 -20.7582 -2.37174e-20)
(13.0397 -20.7526 -1.73421e-20)
(12.7141 -20.736 -1.16366e-20)
(12.3978 -20.7355 2.40674e-20)
(12.0978 -20.7243 -9.35736e-20)
(11.8113 -20.7295 1.54114e-19)
(11.5103 -20.739 -2.04913e-19)
(11.256 -20.7797 1.05004e-19)
(11.1201 -20.6629 -1.24784e-20)
(7.09575 -8.23353 0)
(15.6938 -17.2434 -3.92002e-19)
(17.5051 -20.1276 2.16982e-19)
(17.1222 -20.1199 2.09718e-19)
(16.5665 -20.0757 -5.10486e-20)
(16.0623 -20.0403 -4.49719e-20)
(15.5899 -19.992 -1.62418e-19)
(15.0905 -19.926 0)
(14.6597 -19.8905 0)
(14.2515 -19.8859 0)
(13.8454 -19.8621 -1.15573e-20)
(13.4699 -19.852 0)
(13.1146 -19.8725 1.2063e-19)
(12.7774 -19.8764 -9.94007e-20)
(12.4481 -19.9101 1.7066e-19)
(12.1347 -19.9184 -3.67724e-19)
(11.8145 -19.9334 1.96662e-19)
(11.4911 -19.9454 2.78819e-19)
(11.205 -19.9986 -5.03371e-19)
(11.0702 -19.8869 2.73243e-19)
(7.51529 -8.05326 0)
(16.1655 -16.4946 0)
(17.7163 -18.9967 7.50067e-20)
(17.2088 -19.0194 6.03104e-20)
(16.6442 -18.9488 0)
(16.0665 -18.9457 6.57876e-20)
(15.5713 -18.8912 -6.46361e-20)
(15.0622 -18.8785 0)
(14.6535 -18.9175 -7.38865e-20)
(14.2115 -18.9015 7.26523e-20)
(13.8054 -18.9218 0)
(13.425 -18.9324 2.16049e-19)
(13.0652 -18.9774 2.1007e-20)
(12.7142 -18.9948 -2.49296e-19)
(12.3687 -19.0225 0)
(12.048 -19.0441 0)
(11.725 -19.1012 0)
(11.4029 -19.1096 3.51946e-19)
(11.0677 -19.108 -3.84339e-19)
(10.8958 -19.059 0)
(7.56155 -27.4286 0)
(7.16121 -26.8416 0)
(6.43401 -26.8361 -2.39975e-21)
(5.92856 -26.6116 -2.26101e-21)
(5.3647 -26.675 0)
(4.92184 -26.4699 1.88618e-23)
(4.50715 -26.4991 1.94446e-21)
(4.04759 -26.4045 0)
(3.70554 -26.4774 1.64702e-21)
(3.30315 -26.3898 0)
(2.97673 -26.3531 -1.49983e-21)
(2.67748 -26.377 -7.1169e-22)
(2.39222 -26.4072 7.15554e-22)
(2.14953 -26.3877 1.29934e-21)
(1.88793 -26.3993 0)
(1.72371 -26.4454 -2.95465e-22)
(1.44509 -26.1721 1.29002e-21)
(1.3208 -24.6195 0)
(0.778731 -19.8401 0)
(0.249965 -10.4659 1.05154e-21)
(7.71003 -27.1846 1.30312e-20)
(7.32734 -26.6712 0)
(6.50134 -26.6393 1.14636e-20)
(5.9996 -26.4336 -6.8485e-21)
(5.46469 -26.5474 0)
(4.95071 -26.3738 -9.31761e-21)
(4.48471 -26.38 3.68128e-21)
(4.00243 -26.2724 0)
(3.66663 -26.3534 1.47597e-21)
(3.26406 -26.2729 -3.13997e-21)
(2.94898 -26.2537 4.34992e-21)
(2.65813 -26.2962 -5.58966e-21)
(2.38021 -26.3386 4.04287e-21)
(2.14196 -26.3285 -1.36266e-21)
(1.88947 -26.3516 -1.25343e-21)
(1.72539 -26.3871 1.14097e-21)
(1.46187 -26.117 -2.00982e-21)
(1.32759 -24.5232 -2.63955e-21)
(0.77021 -19.665 -1.28378e-21)
(0.254858 -10.312 -1.31263e-21)
(7.84106 -26.944 -3.52295e-21)
(7.4024 -26.4693 -1.17775e-20)
(6.54268 -26.4574 -8.58513e-21)
(6.0434 -26.2835 0)
(5.44958 -26.3804 0)
(4.97115 -26.1885 1.06549e-20)
(4.55548 -26.2332 -4.34644e-22)
(4.08828 -26.1649 -3.40871e-22)
(3.75038 -26.2603 -3.3547e-22)
(3.34387 -26.1825 -5.96005e-21)
(3.02057 -26.1733 0)
(2.71891 -26.213 0)
(2.43175 -26.255 0)
(2.18703 -26.2485 -4.7655e-21)
(1.92727 -26.2779 0)
(1.76185 -26.3245 -4.40142e-21)
(1.47863 -26.0628 3.65055e-21)
(1.34061 -24.4434 1.59435e-21)
(0.78734 -19.5575 2.59196e-21)
(0.257216 -10.1896 3.95729e-21)
(8.00012 -26.6888 2.05008e-20)
(7.56219 -26.2773 -4.02337e-20)
(6.61921 -26.257 4.61982e-22)
(6.10802 -26.0952 1.62966e-20)
(5.54189 -26.239 0)
(5.00469 -26.0915 1.30975e-20)
(4.53688 -26.117 -3.16766e-20)
(4.04527 -26.0336 1.83305e-20)
(3.71116 -26.1367 -1.15486e-20)
(3.30485 -26.0664 5.38875e-21)
(2.99095 -26.0734 -2.49161e-22)
(2.69706 -26.1315 -4.96147e-21)
(2.41716 -26.1859 4.98554e-21)
(2.17717 -26.1897 2.47413e-21)
(1.92612 -26.2303 2.30214e-21)
(1.76142 -26.2664 4.3996e-21)
(1.49299 -26.0091 -4.43067e-21)
(1.34437 -24.353 2.01804e-21)
(0.781733 -19.394 -9.98302e-22)
(0.261494 -10.0419 -3.95108e-21)
(8.14388 -26.4364 4.61082e-20)
(7.62431 -26.0488 9.53727e-21)
(6.65561 -26.0527 -1.57999e-20)
(6.16782 -25.9466 2.25423e-20)
(5.5435 -26.0718 0)
(5.02984 -25.9025 -6.18835e-21)
(4.60498 -25.9661 6.16526e-21)
(4.13026 -25.9251 0)
(3.79334 -26.0436 3.26008e-22)
(3.38362 -25.9769 0)
(3.06105 -25.993 -1.00716e-20)
(2.75599 -26.0476 0)
(2.46618 -26.1017 0)
(2.21994 -26.11 -8.71453e-21)
(1.96089 -26.1564 4.39753e-21)
(1.79487 -26.2036 -4.04995e-21)
(1.50653 -25.9564 0)
(1.35522 -24.2796 9.61307e-22)
(0.796691 -19.2967 -9.64487e-22)
(0.264661 -9.92065 0)
(8.30001 -26.1601 1.86042e-20)
(7.7696 -25.8325 -1.68868e-20)
(6.75692 -25.8551 3.50705e-20)
(6.22649 -25.7494 -3.59416e-20)
(5.62117 -25.9161 1.20183e-20)
(5.06246 -25.8027 6.20754e-21)
(4.58874 -25.8512 -1.08376e-20)
(4.08938 -25.7941 -1.0376e-20)
(3.75412 -25.9197 5.31214e-21)
(3.34463 -25.8618 9.65424e-21)
(3.02984 -25.8926 -4.79215e-21)
(2.73207 -25.9655 0)
(2.44951 -26.0323 0)
(2.20789 -26.0515 2.68259e-22)
(1.95724 -26.109 -4.19632e-21)
(1.79224 -26.1459 4.04663e-21)
(1.51825 -25.9045 0)
(1.35622 -24.1966 -7.34295e-21)
(0.791948 -19.1458 -6.81867e-21)
(0.269719 -9.77893 -4.58695e-22)
(8.45281 -25.8659 -5.00462e-20)
(7.83476 -25.5841 5.14996e-20)
(6.79412 -25.6314 -1.41554e-20)
(6.28588 -25.5943 0)
(5.6438 -25.7476 -1.20692e-20)
(5.09591 -25.6117 2.16783e-20)
(4.65661 -25.6965 -1.08816e-20)
(4.17399 -25.6846 1.04051e-20)
(3.83476 -25.8265 0)
(3.42219 -25.7727 0)
(3.09812 -25.8115 8.76522e-21)
(2.78899 -25.8806 -8.79659e-21)
(2.49612 -25.9476 0)
(2.24803 -25.9716 1.22221e-20)
(1.98906 -26.0351 -3.9907e-21)
(1.82216 -26.0833 -3.73288e-21)
(1.52914 -25.8535 3.034e-21)
(1.36525 -24.1311 9.11858e-21)
(0.804127 -19.0597 4.57856e-21)
(0.275189 -9.65968 8.85081e-22)
(8.59781 -25.5625 0)
(7.96617 -25.3422 -2.77446e-20)
(6.91464 -25.4297 2.78266e-20)
(6.34263 -25.3944 0)
(5.70895 -25.5818 0)
(5.12008 -25.5068 -2.01243e-20)
(4.63987 -25.5808 2.01842e-20)
(4.13486 -25.5533 0)
(3.79582 -25.7019 8.83888e-21)
(3.3832 -25.6589 -1.74052e-20)
(3.0658 -25.7106 8.56586e-21)
(2.76361 -25.798 8.00245e-21)
(2.47789 -25.8778 -8.02665e-21)
(2.23372 -25.9133 0)
(1.98302 -25.9876 0)
(1.81655 -26.0261 -3.5775e-21)
(1.53846 -25.8029 4.32514e-21)
(1.36415 -24.0565 -2.86136e-23)
(0.798603 -18.9229 -2.58183e-21)
(0.282178 -9.52364 8.54254e-22)
(8.74953 -25.2286 2.65053e-20)
(8.03753 -25.0824 -2.92071e-20)
(6.95239 -25.1871 -3.34244e-20)
(6.39271 -25.2275 4.3734e-20)
(5.75077 -25.4096 -4.0636e-20)
(5.16221 -25.3134 8.96452e-22)
(4.70948 -25.4249 1.86962e-20)
(4.21962 -25.4432 0)
(3.87477 -25.6085 0)
(3.45931 -25.5698 7.77108e-21)
(3.13195 -25.6285 0)
(2.81843 -25.7121 0)
(2.52204 -25.7923 0)
(2.27097 -25.8336 0)
(2.01154 -25.9134 0)
(1.84203 -25.9641 0)
(1.54645 -25.7537 -2.72111e-21)
(1.37154 -23.9993 3.3608e-21)
(0.807011 -18.8483 -8.23393e-22)
(0.289708 -9.40695 8.22698e-22)
(8.89255 -24.9186 -2.68906e-20)
(8.14456 -24.8157 -3.86536e-20)
(7.08096 -24.9847 -9.59761e-21)
(6.44726 -25.02 -8.35365e-21)
(5.80715 -25.24 1.00404e-20)
(5.17785 -25.2016 2.62107e-20)
(4.69096 -25.3065 7.95447e-21)
(4.18256 -25.3104 0)
(3.83621 -25.4829 -7.80912e-21)
(3.4208 -25.4574 1.47308e-20)
(3.09921 -25.5272 7.1108e-21)
(2.7923 -25.6292 6.83133e-21)
(2.50256 -25.7221 0)
(2.25452 -25.7751 6.5512e-21)
(2.00299 -25.8654 6.57748e-21)
(1.83318 -25.9074 0)
(1.55256 -25.7054 0)
(1.36839 -23.9334 0)
(0.79931 -18.7278 0)
(0.297032 -9.27682 0)
(9.07091 -24.5245 1.0444e-19)