/*--------------------------------*- C++ -*----------------------------------*\
  =========                 |
  \\      /  F ield         | OpenFOAM: The Open Source CFD Toolbox
   \\    /   O peration     | Website:  https://openfoam.org
    \\  /    A nd           | Version:  9
     \\/     M anipulation  |
\*---------------------------------------------------------------------------*/
FoamFile
{
    format      ascii;
    class       volScalarField;
    location    "8.3";
    object      nut;
}
// * * * * * * * * * * * * * * * * * * * * * * * * * * * * * * * * * * * * * //

dimensions      [0 2 -1 0 0 0 0];

internalField   nonuniform List<scalar> 
46400
(
0.0190699
0.00483581
0.00127371
0.00150497
0.00141884
0.0014465
0.00136534
0.00131602
0.00125498
0.00123256
0.0011832
0.00114118
0.00111963
0.00109322
0.0010499
0.00104495
0.00101424
0.000925843
0.00122159
0.00100473
0.018599
0.00433083
0.00126551
0.00155691
0.00144341
0.001442
0.00137618
0.00134385
0.00128851
0.00126536
0.0012161
0.00117255
0.00110505
0.00107972
0.00104584
0.000999134
0.000957753
0.000863978
0.00110538
0.000980192
0.0180432
0.00415773
0.00132388
0.00156547
0.00142396
0.00144134
0.00136704
0.00132537
0.0012642
0.00123976
0.00120174
0.00115578
0.00112598
0.0010797
0.00104809
0.00102224
0.000956412
0.000877654
0.00114047
0.000982178
0.0174017
0.0051014
0.00139836
0.00162166
0.00147486
0.00146249
0.00139882
0.00134956
0.00128668
0.00124899
0.00121656
0.00117769
0.00112503
0.00109188
0.00105629
0.00103335
0.000988777
0.000884507
0.0011544
0.00102403
0.0168424
0.00502439
0.00148608
0.00161743
0.00147702
0.00146086
0.00139558
0.00135663
0.00129327
0.00125361
0.00120432
0.00116168
0.00113499
0.00108299
0.00104751
0.00102114
0.00101236
0.00092236
0.00116809
0.00105009
0.0158854
0.0045056
0.00151037
0.00167
0.00149334
0.00145503
0.00139669
0.0013488
0.00130204
0.00124909
0.00123593
0.00117954
0.00116102
0.00114275
0.00110172
0.00105203
0.00101168
0.000948928
0.00118999
0.00107268
0.0144208
0.00365752
0.00148553
0.00160327
0.00149912
0.00143475
0.0013747
0.0013122
0.00127936
0.00122565
0.00119133
0.00115267
0.00110147
0.00108901
0.00108453
0.00105982
0.00102017
0.000922485
0.00117904
0.00109124
0.0115664
0.00283027
0.0015573
0.00157065
0.00152723
0.00145047
0.00140147
0.00133153
0.00127952
0.00122903
0.00120394
0.00116471
0.00112737
0.00106709
0.00107167
0.00104773
0.00103419
0.000928096
0.00111595
0.00109662
0.00952099
0.00234857
0.00151024
0.00148054
0.00145666
0.00143753
0.0013801
0.00131744
0.00128311
0.00120505
0.00116932
0.00112277
0.00110162
0.00104669
0.00101434
0.00101666
0.00100231
0.000948314
0.00106664
0.00103453
0.00780836
0.00208169
0.00158136
0.00149344
0.00143518
0.00140828
0.00141461
0.00132169
0.00132312
0.00128151
0.00123178
0.0011769
0.00112332
0.00107202
0.00100742
0.00097461
0.000953943
0.000912867
0.00104156
0.000998346
0.00636786
0.0018079
0.00158109
0.00149656
0.00142829
0.00134222
0.00137171
0.0012839
0.00121392
0.00120612
0.00118153
0.00116913
0.00114863
0.00112488
0.00107889
0.00102864
0.000976579
0.000917252
0.00102931
0.000997956
0.00526943
0.00169577
0.00165829
0.00156938
0.00148828
0.00135962
0.00138139
0.00139168
0.00130068
0.00122332
0.00117374
0.00111595
0.00108403
0.00106337
0.00104725
0.0010246
0.000995972
0.000919464
0.00100539
0.000978989
0.00423937
0.00151889
0.00159034
0.00156276
0.00155888
0.00136928
0.00127937
0.00128561
0.00129194
0.0012608
0.00123484
0.00119464
0.00113228
0.00108468
0.00105469
0.00101695
0.00100387
0.000945476
0.000997299
0.000973777
0.00396709
0.00151868
0.00154129
0.00149766
0.00164446
0.00158595
0.00142049
0.00129595
0.00124304
0.00119784
0.00117238
0.00115615
0.00114042
0.00108788
0.00106341
0.00102796
0.000999184
0.000961439
0.00100676
0.000964428
0.00430987
0.00165952
0.00146844
0.00124239
0.00129163
0.00140942
0.00145223
0.00140882
0.00134666
0.00127494
0.00120907
0.00115114
0.00112266
0.00109264
0.00104945
0.00102933
0.000993107
0.000945894
0.00101282
0.000963617
0.00450227
0.00181136
0.00171898
0.00154312
0.00130151
0.00128632
0.00125245
0.00126844
0.00125266
0.00123999
0.00120948
0.00117423
0.0011342
0.00110663
0.00107277
0.00103696
0.00100692
0.000936532
0.000982137
0.000916214
0.00349923
0.00156885
0.00146784
0.00167636
0.00155839
0.00145746
0.00138313
0.00130456
0.00127103
0.00121736
0.00119709
0.0011581
0.00113311
0.00109259
0.00106446
0.00103448
0.00100781
0.000940857
0.00099446
0.000922616
0.00243426
0.00176572
0.00152753
0.0015845
0.00154126
0.00145056
0.00141425
0.00135626
0.00131227
0.00125759
0.00121282
0.00117712
0.00113213
0.00109579
0.00105067
0.00102143
0.000992182
0.000927217
0.000977196
0.000893991
0.00132499
0.00172014
0.00179595
0.00148653
0.00148515
0.00141694
0.00136711
0.0013551
0.00129791
0.00124966
0.00121587
0.00117073
0.00114681
0.00110976
0.00109508
0.00104823
0.00103361
0.000956042
0.0010033
0.000922675
0.00178652
0.00173593
0.0017261
0.00149011
0.00153911
0.00146096
0.0014222
0.00136002
0.00129602
0.00127986
0.00121961
0.0011764
0.00112676
0.00109301
0.00105215
0.00103702
0.00100417
0.00095301
0.000970854
0.000932439
0.0048519
0.0111326
0.0116668
0.00620825
0.000872845
0.000155358
0.000500452
0.000621636
0.000686966
0.000618926
0.000581522
0.000607269
0.000548379
0.00055584
0.00058936
0.000627541
0.000619284
0.000701988
0.000790953
0.000720751
0.00669815
0.0120893
0.0106894
0.00415844
0.000188771
0.000372807
0.000687907
0.000788994
0.00065512
0.000631127
0.000661853
0.000602428
0.000600673
0.000644662
0.000638221
0.000630543
0.000641531
0.000787195
0.000831868
0.000717513
0.00881104
0.01284
0.00984683
0.0019269
0.000362976
0.000565719
0.000772022
0.000746992
0.000728669
0.000697504
0.000656491
0.000664212
0.000631711
0.000631345
0.000619808
0.000666871
0.00071644
0.000820904
0.000806476
0.000706621
0.0112149
0.0130122
0.00880643
0.000844659
0.000489404
0.000770423
0.000869143
0.000836852
0.000750483
0.000706949
0.000732543
0.000670068
0.000645466
0.000690484
0.000706394
0.000719056
0.000717527
0.000852747
0.000839931
0.000726224
0.0134448
0.0132262
0.00747102
0.000318655
0.00053762
0.000867282
0.000909852
0.000817538
0.000814705
0.000775406
0.00073405
0.00072277
0.000710376
0.00072146
0.000686443
0.000716063
0.000780274
0.000901759
0.000825996
0.00071361
0.0157722
0.0131367
0.00544276
0.000428537
0.000725575
0.000962673
0.000957766
0.000903136
0.000827213
0.000784908
0.000804235
0.000747942
0.000705369
0.000728129
0.000747853
0.000790319
0.000789751
0.000905896
0.000840667
0.000738978
0.0165681
0.0129826
0.00352842
0.000111903
0.000897068
0.00101897
0.000981171
0.00091445
0.000899682
0.000849162
0.000810865
0.000776022
0.000770391
0.000800288
0.000764713
0.000774917
0.000827979
0.000952801
0.000843682
0.0007378
0.0175194
0.0126941
0.00255675
0.000277354
0.00103112
0.00107862
0.00104535
0.000977228
0.000907138
0.000863513
0.000871347
0.000828762
0.000777061
0.000769457
0.000784418
0.000837576
0.000833727
0.000948831
0.00083579
0.000746309
0.018323
0.0123824
0.00156892
0.000488729
0.00108842
0.00110367
0.00105959
0.000995362
0.000976725
0.000913925
0.000883308
0.000830882
0.000820714
0.000857547
0.000823706
0.000817183
0.000854736
0.000993852
0.000850194
0.000743125
0.0188804
0.0120149
0.00122076
0.000655385
0.00118908
0.00114208
0.00113722
0.00103887
0.000984771
0.000942351
0.000931053
0.000903113
0.000851884
0.000829532
0.000834858
0.000878106
0.000864914
0.000989241
0.000851971
0.000767449
0.0195982
0.011649
0.000958985
0.000901362
0.00122273
0.00116158
0.00112782
0.00106492
0.00103469
0.000968589
0.000945797
0.000888323
0.000868844
0.000896783
0.000866339
0.000849831
0.000873216
0.00103279
0.000865294
0.000781959
0.0198911
0.0111969
0.00134656
0.000980081
0.00128946
0.00119237
0.0012085
0.00109655
0.00105379
0.00101171
0.000975071
0.000954225
0.000902872
0.000876607
0.000871892
0.000886344
0.000852601
0.000968973
0.000815885
0.000772902
0.0202794
0.0108414
0.00143326
0.00112583
0.00132203
0.00121823
0.00119772
0.00113454
0.00108707
0.00102709
0.00100819
0.000951474
0.000921164
0.000930375
0.000902762
0.000875294
0.000874276
0.00103017
0.000862002
0.000809347
0.020391
0.0105661
0.00202988
0.00117893
0.00138237
0.00124471
0.00125274
0.00115199
0.00111388
0.00106867
0.00101154
0.000995161
0.000939825
0.000909627
0.000902317
0.000896449
0.000843188
0.000947188
0.000782872
0.000791441
0.0205129
0.010354
0.00213188
0.00122718
0.00140434
0.00127223
0.0012591
0.00120364
0.00113792
0.00109525
0.00106988
0.00102104
0.000988609
0.000978882
0.000945936
0.000912024
0.000888982
0.00100063
0.000815325
0.000816887
0.02046
0.0100603
0.00193236
0.0012615
0.00145231
0.00131845
0.00128384
0.00121286
0.00117253
0.00112069
0.0010551
0.00103749
0.000982272
0.000950157
0.000946018
0.000929825
0.000873656
0.000943429
0.000755929
0.000821023
0.0203425
0.00909176
0.00172141
0.00131392
0.00142531
0.00134179
0.0013122
0.00126464
0.00119588
0.00117029
0.00113074
0.00108843
0.00105882
0.00103712
0.000990848
0.000959178
0.000935411
0.000975369
0.000737339
0.000821663
0.0201237
0.00814161
0.00173991
0.0013722
0.0014673
0.00137764
0.00130865
0.00126859
0.00122373
0.00117994
0.00111925
0.0011006
0.00104965
0.00102714
0.00101974
0.000992382
0.000968163
0.000986306
0.000719995
0.000846473
0.0198254
0.00698411
0.00159146
0.00141443
0.00143661
0.00141338
0.0013581
0.00131165
0.0012483
0.00122974
0.00118028
0.00114024
0.00112118
0.0011029
0.00105781
0.00103891
0.00105536
0.0010493
0.000749475
0.000852789
0.0194825
0.00615582
0.00172467
0.00148604
0.00146111
0.00141922
0.00133664
0.0013153
0.00126747
0.00124259
0.00119485
0.00117007
0.00112157
0.00111607
0.00110792
0.00110316
0.0011226
0.00111768
0.000961571
0.00102024
0.00484641
0.00260357
0.00215514
0.00173864
0.00147324
0.00120638
0.00101564
0.000781603
0.000648802
0.000564564
0.000561633
0.000484632
0.000429457
0.00036628
0.000319951
0.000329602
5.77431e-05
0.00570985
0.0101768
0.0148593
0.00487228
0.00277884
0.00220309
0.00179383
0.00151383
0.00122145
0.00103572
0.000795655
0.000669821
0.000618327
0.00059713
0.000480987
0.000418346
0.000363768
0.000304882
0.000340515
6.82247e-05
0.00571579
0.010158
0.0148168
0.00496744
0.0027971
0.00237356
0.00185211
0.00155086
0.00124167
0.00102277
0.000813061
0.000677892
0.000616273
0.000601865
0.00048076
0.000403741
0.000359135
0.000296126
0.000347159
0.000191288
0.0057558
0.0101538
0.0147563
0.0051301
0.0028413
0.00228118
0.00185953
0.00158965
0.0012578
0.00103975
0.000826534
0.00070335
0.000679419
0.000636602
0.000481146
0.000403333
0.000355701
0.000285713
0.000316789
0.000281659
0.00578878
0.0101351
0.0147501
0.00517788
0.00301794
0.00251969
0.00196306
0.00162485
0.00130234
0.00103412
0.000848925
0.0007105
0.000666396
0.000642962
0.000488392
0.000388803
0.000350188
0.000274124
0.000292021
0.000421162
0.00582217
0.0101359
0.014691
0.00521569
0.00289384
0.00241539
0.00192533
0.0016471
0.00131116
0.00106562
0.000861193
0.000744725
0.000729173
0.00067303
0.000498409
0.000398571
0.00035025
0.000235273
0.000230813
0.000495972
0.00584086
0.0101176
0.0147064
0.00538951
0.00307278
0.00257388
0.00198692
0.00166186
0.00134165
0.00104208
0.000876899
0.000746054
0.000705933
0.000680067
0.000516272
0.000392623
0.000346026
0.000214467
0.000213505
0.000543409
0.00586021
0.0101175
0.0146523
0.00538082
0.00303073
0.00255811
0.00200388
0.00167275
0.00137303
0.001078
0.000895211
0.000784529
0.000763089
0.000702105
0.000535243
0.000408581
0.000346703
0.000183237
0.000188168
0.000572499
0.00586109
0.0100987
0.0146614
0.00542937
0.00310108
0.00262839
0.00203573
0.00168784
0.00137908
0.00106333
0.000905288
0.000776586
0.000734534
0.00069549
0.00056011
0.000418369
0.000348274
0.000149692
0.000172584
0.000611667
0.00583999
0.0101078
0.0146207
0.00548795
0.00312548
0.00262385
0.00205737
0.00169604
0.00141155
0.00110597
0.000938175
0.000817083
0.000786298
0.000701177
0.000555872
0.000441723
0.000364211
0.00013341
0.00015584
0.000641236
0.00579028
0.0101027
0.0146327
0.00557514
0.00314954
0.0027017
0.0020888
0.00171328
0.00141191
0.00109325
0.000950642
0.000814703
0.000765042
0.000690963
0.000569844
0.00043765
0.000377772
8.10394e-05
0.000132075
0.000680906
0.0057454
0.0101216
0.0146274
0.0057398
0.00320824
0.0026636
0.00209612
0.00171825
0.00144289
0.00113758
0.000988955
0.00085352
0.000813912
0.000702327
0.000568213
0.000453589
0.000401375
7.8688e-05
0.000109518
0.000704602
0.00568816
0.0101314
0.014641
0.00563553
0.00322085
0.0027615
0.00211997
0.00172577
0.0014431
0.00112474
0.00100554
0.000856551
0.000797262
0.000684761
0.000578478
0.000452284
0.000422678
7.91528e-05
8.69988e-05
0.000735585
0.00564438
0.0101476
0.0146621
0.00589763
0.00325035
0.00269103
0.00211969
0.00171658
0.0014765
0.00117151
0.00104693
0.000892406
0.000846208
0.000695236
0.00056818
0.000458351
0.000446206
7.90469e-05
7.59172e-05
0.000741919
0.0055972
0.0101605
0.0146993
0.00574737
0.00324384
0.0027454
0.00212725
0.0017211
0.00147068
0.00116155
0.00106892
0.000895775
0.00084564
0.000701856
0.000577065
0.000451351
0.000461403
0.000101016
7.18066e-05
0.000742891
0.00554747
0.0101981
0.01473
0.0060078
0.00325301
0.00264582
0.00210826
0.00170406
0.00150409
0.00119538
0.0011132
0.000925898
0.000877935
0.000714649
0.000573676
0.00044903
0.000480942
8.73451e-05
0.000141401
0.000709417
0.00551424
0.0102338
0.0147913
0.00590173
0.00325775
0.00266645
0.00209425
0.00169524
0.00149195
0.00118803
0.00112979
0.000932511
0.000893233
0.000722569
0.000579385
0.000450107
0.000491067
0.000114501
9.70631e-05
0.000676944
0.00539894
0.0102396
0.014814
0.00606568
0.00322676
0.0025451
0.00207679
0.00169205
0.00153309
0.00121488
0.0011714
0.000951985
0.000915247
0.000758796
0.000603932
0.000443641
0.000505697
0.000108502
6.54992e-05
0.000637749
0.00541804
0.0102597
0.0147808
0.00578682
0.00320765
0.00251781
0.00204141
0.00166142
0.00150785
0.0012028
0.00117652
0.000953247
0.000926943
0.000750465
0.000614716
0.000501286
0.000495301
0.000207737
0.000199941
0.000605812
0.00535533
0.010397
0.015036
0.00613358
0.00335843
0.00249936
0.0020138
0.00167324
0.00154517
0.00122101
0.00120296
0.000963947
0.00093646
0.000779013
0.000624913
0.000484864
0.000513452
0.000324984
0.000318369
0.00052286
0.00493263
0.0101582
0.0144561
0.0174198
0.0307191
0.0209287
0.0226581
0.0189769
0.0171604
0.0137038
0.0133567
0.0107911
0.0103734
0.00829748
0.00744814
0.00586213
0.00519202
0.00474375
0.00437918
0.00549815
0.0474246
0.096841
0.132652
0.025534
0.0213309
0.0199504
0.0163969
0.0145474
0.0122891
0.0104231
0.00955015
0.00815562
0.00715417
0.00593383
0.00562382
0.00478229
0.0040368
0.00374281
0.00336262
0.0126995
0.0458431
0.0954667
0.132022
0.0150092
0.0149875
0.0136959
0.0111554
0.00988594
0.00864761
0.00804928
0.00723869
0.0065975
0.00613857
0.00548807
0.00518279
0.00489824
0.00446888
0.00420224
0.00367515
0.00527935
0.047917
0.094178
0.129058
0.0118846
0.0097324
0.00820601
0.00796805
0.00768556
0.00738602
0.00679333
0.00619591
0.00579971
0.00521195
0.00494711
0.00457307
0.00421125
0.00387128
0.00362677
0.00247817
0.0084664
0.044439
0.094099
0.125705
0.00434664
0.00712833
0.00724585
0.00645891
0.00578042
0.00544488
0.00517968
0.00480859
0.00458098
0.00447753
0.00411987
0.00388644
0.00363673
0.0035874
0.00348791
0.00266109
0.00544241
0.0406073
0.094327
0.12445
0.00540847
0.00538223
0.00417949
0.00374248
0.00402349
0.00445995
0.00439616
0.00429124
0.00396876
0.00378124
0.00373796
0.00367413
0.00372467
0.00347788
0.00336172
0.00215603
0.0040186
0.0367593
0.0945726
0.124263
0.00282608
0.00313676
0.00330639
0.00362283
0.00356739
0.00350142
0.00320743
0.00330091
0.00326619
0.00330304
0.00307692
0.00312235
0.00292688
0.00307287
0.00308551
0.00240557
0.00173866
0.0303617
0.0954691
0.127173
0.00235243
0.00248239
0.00243606
0.00216417
0.00196561
0.00245472
0.00270026
0.00255656
0.00254743
0.00271536
0.00282148
0.00299221
0.00307676
0.00312317
0.00303731
0.00239564
0.00212388
0.0242609
0.0950071
0.132279
0.00111218
0.00130531
0.00152273
0.00174552
0.00190409
0.00190216
0.00203284
0.00233524
0.00226986
0.00237869
0.00236251
0.00254189
0.00250031
0.00283862
0.00296612
0.0029468
0.00169876
0.0175663
0.0931356
0.14164
0.000938357
0.00101256
0.00109374
0.00117096
0.00114942
0.00141703
0.0014337
0.00146774
0.00168457
0.00200167
0.00213134
0.00242155
0.00253759
0.00291198
0.00296239
0.00312755
0.00258066
0.011825
0.0879011
0.152524
0.00035523
0.000458057
0.000596744
0.000783343
0.0008858
0.00101688
0.00125728
0.00150229
0.00150604
0.00166408
0.00177224
0.00198526
0.00215453
0.00249598
0.00280897
0.00360282
0.00310716
0.00816138
0.0663407
0.165998
0.0002192
0.000326068
0.000385986
0.000518909
0.000585215
0.00069188
0.000714204
0.000929734
0.00114812
0.00137029
0.00157491
0.00180249
0.00202884
0.00224809
0.00258217
0.00295885
0.00375941
0.00434978
0.0513097
0.185797
0.000267125
0.000248041
0.000258506
0.000453838
0.000524795
0.00063577
0.000722979
0.000773165
0.000895457
0.00107071
0.00123338
0.00144247
0.00167343
0.00201689
0.00242166
0.0026017
0.00370168
0.00870761
0.0262349
0.15395
0.000318082
0.000362918
0.00038985
0.000456454
0.000505875
0.000583043
0.000610187
0.00075692
0.000824362
0.00104725
0.00108844
0.00137682
0.00147134
0.00180861
0.00192478
0.00259917
0.00257662
0.00475647
0.0148006
0.107615
0.000457303
0.000448358
0.000459245
0.000487194
0.000536396
0.000606399
0.000664981
0.000747733
0.000802272
0.000870406
0.000963703
0.00108818
0.00125633
0.00146065
0.00169165
0.00212896
0.00253626
0.00308891
0.00383999
0.0627014
0.000426076
0.000435159
0.000440596
0.000463963
0.000489309
0.000559649
0.00059834
0.000667376
0.000722394
0.000796082
0.00085079
0.000949372
0.00097899
0.0010342
0.0011314
0.00117817
0.00117721
0.00211231
0.00360027
0.0354136
0.000414227
0.000417203
0.000421807
0.000455419
0.000489402
0.000497566
0.000517569
0.000541765
0.000576021
0.000623182
0.000677039
0.000711626
0.000827563
0.000824543
0.00083419
0.00116933
0.0013134
0.000887657
0.000682265
0.0179506
0.000294676
0.000350163
0.000380527
0.00042474
0.000445975
0.000467947
0.000509171
0.000545987
0.000560839
0.000596234
0.000594217
0.000651854
0.000660225
0.000756315
0.000795915
0.000650757
0.000972026
0.00129203
0.00151639
0.00301058
0.000274795
0.000303803
0.000251749
0.000253395
0.000281519
0.000321632
0.000360567
0.000398045
0.000459981
0.000413137
0.000476497
0.000399852
0.000489709
0.000497079
0.000462323
0.000806717
0.000500136
0.000527334
0.00083359
0.00183875
0.000136435
0.000155312
0.000170876
0.000190929
0.000223748
0.000240786
0.000262576
0.000284223
0.000316585
0.000319516
0.000365936
0.000398449
0.00041286
0.000399156
0.000382771
0.000216216
0.000315604
0.000354609
0.000179433
0.000168841
0.0139707
0.0140553
0.0139747
0.0140993
0.0137734
0.0138087
0.0135667
0.0135234
0.0132972
0.0131214
0.0127675
0.012311
0.0120625
0.0117579
0.010868
0.00992532
0.00948014
0.00950952
0.00953677
0.00909098
0.00687
0.00687236
0.00681508
0.00678811
0.0066498
0.00666566
0.00651494
0.00655535
0.0062759
0.00638165
0.00625016
0.00734106
0.00734185
0.00624591
0.00588298
0.00611232
0.00645831
0.00664564
0.00658545
0.00726567
0.00406961
0.00404679
0.00404374
0.00406244
0.00411937
0.0041851
0.00420298
0.004233
0.0042622
0.00434679
0.00423452
0.00403743
0.00372681
0.00416728
0.00380715
0.00377902
0.00334882
0.00364963
0.00329382
0.00363207
0.00260154
0.00258361
0.00258285
0.00257015
0.00253915
0.00250889
0.00246813
0.00245819
0.00238471
0.00240159
0.00231394
0.00233816
0.00251761
0.00256165
0.00252454
0.00243226
0.00226387
0.00256525
0.00230021
0.00278638
0.00160108
0.00159067
0.00159001
0.00158688
0.00158148
0.0015863
0.00157943
0.00160253
0.00167609
0.00166636
0.00163365
0.00173346
0.0015655
0.00161851
0.00162469
0.00170566
0.0015899
0.00153261
0.00146445
0.00149546
0.00113582
0.00112714
0.0011283
0.00112495
0.00112049
0.00111823
0.00110791
0.00111526
0.00110463
0.00107651
0.00109723
0.00107385
0.00103614
0.00102281
0.0010676
0.00119793
0.00107803
0.00117916
0.00109931
0.00112045
0.000683651
0.000679747
0.00067654
0.000673544
0.000667877
0.000661519
0.000655706
0.000656817
0.00065359
0.000660706
0.000704657
0.000744936
0.000734114
0.000762136
0.0006778
0.000635295
0.000655754
0.000659225
0.000633322
0.000680415
0.000505872
0.000502048
0.000500852
0.000499015
0.000496591
0.000490141
0.00048571
0.000482798
0.000477017
0.000484814
0.000475454
0.000454242
0.000440877
0.000441699
0.000439041
0.000487327
0.000478299
0.000530136
0.000531789
0.00051504
0.000292951
0.000288662
0.000285674
0.000287063
0.000288182
0.000289665
0.00028323
0.000276771
0.000272425
0.000269716
0.000263165
0.000267156
0.000272835
0.00027718
0.000268934
0.000262951
0.000256995
0.000302786
0.000301015
0.000248605
0.000195984
0.000194811
0.00018884
0.000191755
0.000180842
0.00018328
0.000180475
0.000186308
0.000183363
0.000172991
0.000173219
0.000166839
0.000163564
0.000155729
0.000155277
0.000158041
0.000170362
0.000193033
0.000181192
0.000177481
0.000146011
0.000142025
0.000136098
0.00010987
8.77395e-05
7.22885e-05
5.99194e-05
6.86757e-05
7.01641e-05
7.20217e-05
6.80283e-05
6.76882e-05
6.45908e-05
6.36717e-05
6.21288e-05
5.99e-05
6.27274e-05
6.49627e-05
7.86395e-05
9.59288e-05
0.000138173
0.000126466
0.000116505
0.00010331
9.29151e-05
8.71048e-05
8.32813e-05
7.54202e-05
7.29677e-05
7.09331e-05
6.51579e-05
4.8704e-05
3.87058e-05
2.46702e-05
2.14589e-05
1.08153e-05
1.35099e-05
3.62969e-05
4.73613e-05
5.14029e-05
0.000128107
0.000124348
0.000122409
0.000121225
0.000122255
0.000120048
0.000113365
0.000106174
0.000101674
9.55836e-05
9.39912e-05
9.08196e-05
9.18562e-05
8.719e-05
9.02154e-05
9.1987e-05
9.51606e-05
8.79565e-05
8.93444e-05
7.77061e-05
0.00014654
0.000145053
0.000142418
0.00013811
0.00013446
0.000130203
0.000121864
0.000114697
0.000112689
0.000109782
0.000107341
0.000102796
0.000100288
9.45218e-05
9.68099e-05
9.35215e-05
9.39005e-05
8.42309e-05
8.4516e-05
8.02492e-05
0.000129729
0.000124383
0.000119971
0.000118242
0.000115457
0.000110642
0.000108079
0.000106324
0.000105869
0.000107756
0.000110524
0.000110329
0.000111903
0.000109884
0.00010821
0.000101039
0.000102902
9.43408e-05
0.000102007
0.000108283
0.000111861
0.00011219
0.0001141
0.00011251
0.000111971
0.000112208
0.000120117
0.000125003
0.000121233
0.000113103
0.000111703
0.000109574
0.000110015
0.000107154
0.000102328
9.46987e-05
9.62764e-05
0.000101531
0.000106175
0.000100188
8.72511e-05
8.66876e-05
8.73685e-05
8.63462e-05
8.84503e-05
8.75185e-05
8.74122e-05
8.55082e-05
8.87941e-05
8.58562e-05
8.56438e-05
8.27753e-05
7.96065e-05
7.85002e-05
9.04998e-05
0.000109149
0.000113954
0.00010569
9.70588e-05
9.47636e-05
6.2349e-05
6.08277e-05
6.10456e-05
5.97662e-05
6.15131e-05
6.18568e-05
6.37714e-05
6.03132e-05
6.08037e-05
6.47898e-05
6.90701e-05
7.00239e-05
7.66646e-05
7.95924e-05
7.41929e-05
6.519e-05
6.26019e-05
6.57682e-05
6.61821e-05
6.94847e-05
3.27486e-05
3.64738e-05
3.87951e-05
4.16401e-05
4.16919e-05
4.40136e-05
4.68504e-05
4.86978e-05
4.83721e-05
4.65392e-05
4.68279e-05
4.92222e-05
4.96906e-05
5.00392e-05
5.2335e-05
5.49719e-05
5.72065e-05
5.82005e-05
6.04667e-05
6.35339e-05
1.29616e-05
1.41098e-05
1.5126e-05
1.59625e-05
1.66121e-05
1.70852e-05
1.38502e-05
1.02596e-05
1.0356e-05
1.41865e-05
1.63169e-05
1.7918e-05
2.01161e-05
2.20503e-05
2.40693e-05
2.45642e-05
2.53945e-05
2.47853e-05
2.69121e-05
2.99171e-05
0.0011454
0.00134104
0.00102483
0.00112
0.00113309
0.00115054
0.0011926
0.00121764
0.00126397
0.00129935
0.00135341
0.0013746
0.00144647
0.0014753
0.0015477
0.00161455
0.00160557
0.00240137
0.00833148
0.0213803
0.00104033
0.00114521
0.000935085
0.00104347
0.00110899
0.00115214
0.00118987
0.00121404
0.00125179
0.00130728
0.00136666
0.00141328
0.00147711
0.00150918
0.0015686
0.00158882
0.00159743
0.00194636
0.00715142
0.0209095
0.0011305
0.00127969
0.000991509
0.00108609
0.0011235
0.00114359
0.00117839
0.00120919
0.00126516
0.00130177
0.0013536
0.00137739
0.00144893
0.00147728
0.00156057
0.00160801
0.00170084
0.00150713
0.00639284
0.0204408
0.00114458
0.00125
0.000964201
0.00106521
0.00110678
0.00114225
0.00117405
0.00121276
0.00125438
0.00131096
0.00136676
0.00141064
0.00147812
0.00149829
0.00157505
0.00157048
0.00163464
0.00145105
0.00530678
0.0199324
0.00117767
0.00127984
0.00100141
0.00109523
0.00112515
0.00114869
0.00118674
0.00122898
0.00128009
0.00131989
0.00136023
0.00139587
0.0014579
0.00148727
0.00156936
0.00160414
0.00173066
0.00148803
0.00499112
0.0193121
0.00120646
0.00127042
0.000991346
0.00109447
0.00112527
0.00116542
0.0011989
0.00123752
0.00127057
0.00132042
0.00137087
0.0014175
0.00147734
0.00149546
0.001584
0.00157926
0.00166571
0.0015141
0.00487154
0.0186418
0.00116034
0.00122054
0.00100237
0.00109605
0.00115119
0.00117861
0.00121415
0.00125179
0.00129531
0.00134036
0.00137935
0.0014275
0.00147678
0.00152083
0.00160162
0.00162479
0.00174408
0.00158254
0.00537961
0.0178577
0.00114799
0.00121481
0.00102752
0.00112927
0.00117082
0.00118917
0.00121747
0.00125118
0.0012809
0.00133008
0.00137894
0.00141929
0.00147036
0.00150259
0.00158844
0.00160257
0.00174296
0.00165964
0.00506588
0.017073
0.00115727
0.00123026
0.00106856
0.00114703
0.00116664
0.001179
0.00121053
0.00124548
0.00128883
0.00134955
0.00137392
0.00142591
0.0014768
0.00153988
0.00161701
0.00163968
0.00176806
0.00161031
0.00443725
0.0159588
0.00116259
0.0012125
0.00105706
0.0011132
0.00112779
0.00115782
0.0011954
0.00123941
0.00129212
0.00132495
0.00134923
0.00141228
0.00145358
0.00151324
0.00155416
0.00161029
0.00173601
0.00168546
0.00353549
0.0143693
0.00109868
0.00114676
0.00101902
0.00108357
0.0011187
0.00116401
0.00120252
0.00125101
0.00127777
0.00129481
0.00134396
0.001412
0.00145852
0.00152052
0.00155538
0.00163205
0.00169179
0.00169092
0.00294337
0.0121233
0.0010776
0.00112074
0.00102122
0.00109121
0.00111504
0.00115457
0.001175
0.00120586
0.00122244
0.00127778
0.00135727
0.0014141
0.00144069
0.00147722
0.00152453
0.00161238
0.00164289
0.00166722
0.00245859
0.00977915
0.00103853
0.00108719
0.00101512
0.00107404
0.00109759
0.00113194
0.00114435
0.00118636
0.00123023
0.00130635
0.00134653
0.00136729
0.00137633
0.00146093
0.00151094
0.00157206
0.00162411
0.00169608
0.00211748
0.00797502
0.00101136
0.00105991
0.00101135
0.00105302
0.00108184
0.00111028
0.00114586
0.00120542
0.00125253
0.00130237
0.00132918
0.00135449
0.00141919
0.00150892
0.00152027
0.00159514
0.00157284
0.00165248
0.00191279
0.00651902
0.00101706
0.00108438
0.00102338
0.00107118
0.00110235
0.00114124
0.00118465
0.00122725
0.00125172
0.00128645
0.00129046
0.0013376
0.00139814
0.00142721
0.00143823
0.00152266
0.00157608
0.00166622
0.00175921
0.00547314
0.000990747
0.00103755
0.000984905
0.00104343
0.00107581
0.00110793
0.00113229
0.00116116
0.00119217
0.00122265
0.00125683
0.00132792
0.00138053
0.00140483
0.00150448
0.00160439
0.0015601
0.00170202
0.00176209
0.00484842
0.000967453
0.00101833
0.000988332
0.00105157
0.0010814
0.00110502
0.00113305
0.00117023
0.00121056
0.00125828
0.00132588
0.00139403
0.00142134
0.00146542
0.0015275
0.00150216
0.00147129
0.00166271
0.00170726
0.00437308
0.000966536
0.00102021
0.000993752
0.00104644
0.00107232
0.00109855
0.00114892
0.00118968
0.00122041
0.00126138
0.00128212
0.00130457
0.00131855
0.00136149
0.00139244
0.0014076
0.0016223
0.00173985
0.00164861
0.00382722
0.000946539
0.000989205
0.000967376
0.00101473
0.00105207
0.00108767
0.00113087
0.0011536
0.00118833
0.00122626
0.0012595
0.00132467
0.00136934
0.0014438
0.00147115
0.0015519
0.00169125
0.00153508
0.00148327
0.00395857
0.000941508
0.000999545
0.000970629
0.00102586
0.00106352
0.00108922
0.00112623
0.00115473
0.00120169
0.00122737
0.001273
0.00130888
0.00132814
0.00141394
0.00143874
0.00152162
0.00147805
0.00142847
0.00169443
0.00341709
0.000749746
0.000819706
0.00071468
0.000625464
0.000593415
0.00059401
0.000663646
0.000614848
0.00056317
0.000576067
0.000627458
0.000702059
0.000619459
0.000355346
0.000117463
0.00267527
0.00916146
0.0143128
0.0117016
0.00294359
0.000738517
0.000805959
0.000746153
0.000660897
0.000693771
0.000643063
0.000588872
0.000604813
0.000679564
0.000651777
0.000630453
0.000667346
0.000688729
0.000572568
0.00022346
0.00101355
0.00723716
0.0135493
0.0130052
0.00263614
0.0007622
0.000841653
0.000798373
0.000684686
0.000664474
0.000679974
0.000739141
0.000655528
0.000616961
0.000687218
0.000731158
0.000736637
0.000788841
0.000698923
0.00039119
0.000215925
0.00455187
0.0125434
0.0140405
0.00566689
0.000765148
0.00086233
0.000855091
0.000738108
0.000750048
0.000693477
0.00067368
0.000722225
0.000768026
0.000711321
0.000714377
0.000767298
0.000826935
0.000829073
0.000649861
0.000316298
0.00238374
0.0113171
0.0146966
0.00836595
0.000773551
0.0008493
0.000878389
0.000767263
0.000756996
0.000761542
0.00080538
0.000726006
0.000720514
0.000819487
0.000845377
0.000858964
0.000869075
0.000927425
0.000843349
0.000516085
0.000962011
0.010154
0.0149908
0.0110057
0.000808562
0.000904941
0.000935457
0.000797134
0.000806156
0.000768373
0.000773212
0.000829685
0.000852588
0.000796048
0.000835634
0.000905423
0.000956133
0.00101276
0.000977512
0.000610897
0.000416213
0.00882647
0.0150652
0.0133489
0.000798172
0.000867752
0.000949493
0.000843433
0.000838094
0.000822688
0.000863141
0.000810094
0.000828989
0.0009318
0.000943692
0.00096291
0.000990007
0.00105613
0.0010917
0.000863934
0.000465664
0.00667623
0.0148517
0.0164668
0.000847246
0.000921485
0.000991408
0.000844733
0.000854549
0.000848771
0.000867616
0.000917427
0.00093036
0.000889483
0.000946897
0.00102231
0.00106719
0.00109247
0.00115003
0.00103693
0.000238233
0.00450364
0.0148218
0.0179064
0.000830128
0.0008912
0.00101371
0.00089518
0.000898159
0.000873036
0.000912586
0.000893229
0.00092276
0.00101261
0.00102205
0.00105403
0.00108922
0.00115658
0.00122562
0.00115307
0.000359734
0.00340536
0.0143172
0.0193384
0.000872481
0.000924444
0.00102653
0.000877392
0.000902763
0.000925529
0.000950184
0.000987199
0.00100095
0.00098169
0.00104679
0.00111957
0.00115034
0.00119558
0.00124824
0.00123642
0.000522268
0.00220812
0.0141353
0.0199402
0.000865937
0.00089612
0.00104858
0.000928771
0.000942015
0.000922313
0.000962031
0.000971591
0.00100732
0.00108125
0.00109762
0.00113802
0.00118211
0.00126529
0.00130832
0.00135277
0.000674627