/*--------------------------------*- C++ -*----------------------------------*\
  =========                 |
  \\      /  F ield         | OpenFOAM: The Open Source CFD Toolbox
   \\    /   O peration     | Website:  https://openfoam.org
    \\  /    A nd           | Version:  9
     \\/     M anipulation  |
\*---------------------------------------------------------------------------*/
FoamFile
{
    format      ascii;
    class       volScalarField;
    location    "8.3";
    object      p;
}
// * * * * * * * * * * * * * * * * * * * * * * * * * * * * * * * * * * * * * //

dimensions      [0 2 -2 0 0 0 0];

internalField   nonuniform List<scalar> 
46400
(
-41.0488
-33.7833
-22.2257
-12.1429
-3.31058
4.98313
12.3073
19.0911
25.1979
30.8228
35.9431
40.6785
45.0258
49.1165
52.9344
56.5793
60.0038
63.5097
67.3557
68.3605
-9.9707
-3.78816
6.3095
15.5937
23.562
31.0757
37.6759
43.7094
49.1374
54.0817
58.5568
62.6253
66.3569
69.7617
72.9057
75.8006
78.4473
81.0265
83.5831
83.7582
19.7219
24.5348
33.8767
42.5522
49.768
56.5
62.3471
67.6583
72.3578
76.617
80.415
83.8378
86.8977
89.6859
92.1935
94.4511
96.4573
98.4035
100.128
99.5209
47.9568
53.1842
61.8446
69.7363
76.1716
82.0715
87.1237
91.6131
95.5695
99.0687
102.183
104.919
107.361
109.493
111.405
113.054
114.471
115.784
116.979
115.952
76.4789
82.0736
89.6414
96.3739
101.778
106.717
110.917
114.602
117.792
120.581
123.008
125.105
126.922
128.486
129.836
130.983
131.929
132.784
133.61
132.345
105.138
111.315
117.292
122.943
127.309
131.238
134.562
137.395
139.838
141.889
143.654
145.113
146.346
147.327
148.142
148.762
149.223
149.608
150.062
148.628
133.071
139.423
143.639
147.901
151.231
154.104
156.547
158.547
160.229
161.59
162.71
163.567
164.251
164.729
165.078
165.267
165.305
165.271
165.349
163.753
160.472
165.336
168.787
171.776
174.328
176.317
177.992
179.254
180.25
180.941
181.441
181.701
181.809
181.75
181.576
181.295
180.884
180.449
180.159
178.406
184.372
188.039
190.865
193.081
194.88
196.228
197.248
197.899
198.294
198.425
198.375
198.134
197.762
197.242
196.636
195.924
195.133
194.287
193.587
191.636
206.816
209.867
211.992
213.48
214.64
215.308
215.74
215.797
215.643
215.215
214.633
213.847
212.966
211.939
210.861
209.698
208.481
207.254
206.143
204.005
226.347
228.698
230.372
231.288
231.896
232.06
231.985
231.599
230.997
230.181
229.224
228.103
226.865
225.506
224.058
222.532
220.936
219.337
217.836
215.478
245.038
246.855
247.989
248.359
248.438
248.006
247.405
246.452
245.344
243.987
242.534
240.93
239.265
237.498
235.69
233.808
231.883
229.946
228.089
225.531
260.507
261.776
262.595
262.622
262.388
261.642
260.673
259.453
258.067
256.489
254.759
252.892
250.918
248.857
246.734
244.564
242.339
240.11
237.943
235.178
275.703
276.238
276.472
275.986
275.317
274.134
272.695
270.97
269.11
267.088
264.981
262.767
260.489
258.138
255.746
253.314
250.849
248.372
245.976
243.045
287.826
287.753
287.437
286.558
285.531
284.264
282.744
280.97
278.974
276.801
274.495
272.083
269.605
267.052
264.474
261.847
259.206
256.548
254.039
250.892
298.163
298.127
297.333
296.127
294.58
292.833
290.88
288.739
286.457
284.024
281.503
278.881
276.214
273.491
270.745
267.987
265.207
262.45
259.863
256.706
305.183
305.178
304.469
303.361
301.878
300.027
297.957
295.674
293.248
290.69
288.033
285.3
282.501
279.669
276.805
273.943
271.06
268.206
265.571
262.29
311.119
310.8
309.904
308.509
306.807
304.756
302.485
300.028
297.418
294.693
291.891
289.015
286.112
283.162
280.222
277.265
274.322
271.388
268.695
265.377
314.159
313.892
312.977
311.661
309.925
307.913
305.681
303.218
300.631
297.882
295.061
292.146
289.195
286.2
283.195
280.184
277.165
274.163
271.376
268
315.574
314.95
314.121
312.566
310.877
308.76
306.481
303.966
301.318
298.557
295.69
292.784
289.804
286.829
283.816
280.831
277.817
274.841
272.031
268.814
-330.306
-329.514
-327.768
-320.884
-312.606
-303.9
-294.376
-285.584
-276.822
-268.43
-260.274
-252.35
-244.75
-237.282
-230.204
-223.199
-216.592
-210.08
-203.873
-197.991
-334.954
-333.992
-330.825
-322.169
-311.581
-301.306
-291.347
-281.806
-272.651
-263.801
-255.312
-247.107
-239.257
-231.589
-224.322
-217.153
-210.438
-203.787
-197.554
-191.577
-339.519
-338.385
-332.327
-322.465
-310.496
-299.093
-288.392
-278.046
-268.242
-258.956
-249.998
-241.467
-233.316
-225.412
-217.965
-210.658
-203.856
-197.113
-190.874
-184.848
-344.537
-342.182
-332.13
-320.939
-307.917
-295.542
-284.147
-273.32
-263.035
-253.309
-244.061
-235.221
-226.827
-218.728
-211.1
-203.641
-196.72
-189.864
-183.614
-177.5
-344.362
-342.161
-330.113
-317.267
-303.814
-290.968
-278.822
-267.573
-256.838
-246.781
-237.169
-228.111
-219.495
-211.234
-203.477
-195.928
-188.97
-182.063
-175.837
-169.671
-341.052
-339.638
-327.07
-312.478
-298.404
-284.998
-272.418
-260.69
-249.636
-239.237
-229.416
-220.116
-211.328
-202.936
-195.066
-187.449
-180.431
-173.499
-167.312
-161.115
-338.054
-335.75
-323.114
-306.813
-291.711
-277.679
-264.542
-252.434
-241.016
-230.408
-220.348
-210.94
-202.048
-193.606
-185.69
-178.056
-171.1
-164.092
-158.049
-151.816
-331.551
-328.455
-314.258
-297.797
-282.325
-267.959
-254.696
-242.391
-230.857
-220.109
-210.009
-200.518
-191.596
-183.142
-175.24
-167.695
-160.747
-153.879
-147.964
-141.809
-322.287
-318.558
-303.807
-286.783
-271.188
-256.679
-243.163
-230.812
-219.169
-208.404
-198.265
-188.812
-179.935
-171.563
-163.733
-156.268
-149.444
-142.709
-136.959
-130.871
-310.921
-306.2
-290.502
-273.428
-257.598
-243.135
-229.632
-217.269
-205.7
-194.978
-184.948
-175.571
-166.791
-158.519
-150.802
-143.497
-136.767
-130.166
-124.583
-118.494
-295.723
-290.503
-274.506
-257.54
-241.953
-227.705
-214.337
-202.193
-190.794
-180.251
-170.397
-161.2
-152.611
-144.535
-136.977
-129.824
-123.236
-116.759
-111.252
-105.13
-278.729
-272.819
-256.452
-239.782
-224.233
-210.287
-197.15
-185.198
-174.069
-163.779
-154.199
-145.286
-136.979
-129.197
-121.958
-115.165
-108.896
-102.79
-97.6981
-91.8436
-258.56
-252.305
-235.98
-219.735
-204.617
-191.102
-178.37
-166.821
-156.056
-146.091
-136.855
-128.225
-120.222
-112.717
-105.717
-99.1558
-93.0922
-87.2277
-82.2788
-76.557
-236.59
-230.002
-213.63
-198.093
-183.28
-170.251
-157.972
-146.802
-136.494
-126.963
-118.146
-109.98
-102.407
-95.3591
-88.8174
-82.7332
-77.0986
-71.6775
-67.1875
-61.6898
-212.543
-205.86
-189.23
-174.614
-160.338
-147.841
-136.148
-125.488
-115.657
-106.562
-98.1983
-90.3912
-83.2139
-76.513
-70.3071
-64.5586
-59.2441
-54.2216
-50.0069
-44.8162
-187.264
-180.144
-163.239
-149.566
-136.068
-124.168
-113.146
-103.043
-93.8178
-85.2801
-77.4404
-70.2038
-63.522
-57.3457
-51.6391
-46.3821
-41.5042
-36.9366
-33.1636
-28.1673
-160.156
-152.672
-136.346
-123.31
-110.652
-99.3579
-88.9934
-79.474
-70.7726
-62.7448
-55.4112
-48.5956
-42.381
-36.6122
-31.3255
-26.4832
-22.0048
-17.9548
-14.5742
-9.98482
-131.611
-124.071
-108.573
-96.2802
-84.5211
-73.9253
-64.3012
-55.4271
-47.3922
-39.9476
-33.161
-26.9125
-21.1629
-15.8885
-11.0659
-6.66441
-2.57713
0.980211
3.93923
8.29495
-102.149
-94.7267
-80.1924
-68.5135
-57.6244
-47.6962
-38.7838
-30.5417
-23.0754
-16.2018
-9.94254
-4.15401
1.11557
6.00168
10.4337
14.5091
18.2674
21.3012
24.0352
28.5775
-71.9411
-64.3137
-51.1944
-40.3654
-30.5288
-21.3904
-13.2432
-5.70263
1.12676
7.45795
13.24
18.593
23.5718
28.2001
32.5251
36.6485
40.5044
44.0307
47.9822
52.6584
-168.855
-136.558
-103.644
-84.6299
-62.6458
-49.7844
-35.5041
-26.2012
-17.1364
-10.1836
-4.39202
0.62573
4.62366
7.87765
10.7507
12.5979
14.9943
15.6314
16.2042
16.7454
-162.447
-131.959
-99.6101
-81.4609
-59.9143
-47.648
-33.7196
-24.7311
-15.9123
-9.11591
-3.56406
1.36612
5.18694
8.36598
11.0555
12.923
15.0436
15.7523
16.1927
16.6738
-155.906
-126.993
-95.2795
-78.0933
-57.3372
-45.4827
-31.9566
-23.2483
-14.6931
-8.0696
-2.73116
2.14299
5.77301
8.89641
11.3926
13.3037
15.131
15.9229
16.1829
16.8539
-148.792
-121.905
-91.0763
-74.6512
-54.5347
-43.0133
-29.9908
-21.6149
-13.3459
-6.88145
-1.80858
2.95361
6.43041
9.46293
11.7472
13.6958
15.1694
16.1732
16.2555
16.8307
-141.414
-116.417
-86.4461
-70.9087
-51.6069
-40.6978
-28.0903
-19.9806
-12.0155
-5.71505
-0.846957
3.81958
7.09639
10.0428
12.1575
14.1264
15.2695
16.4877
16.3999
17.0709
-133.463
-110.798
-81.8589
-67.1651
-48.5866
-38.2366
-25.9747
-18.1954
-10.5495
-4.41511
0.202745
4.71324
7.8417
10.6324
12.612
14.5591
15.3828
16.786
16.5462
17.2033
-125.054
-104.671
-76.8366
-63.2834
-45.4038
-35.68
-23.924
-16.4102
-9.10933
-3.13417
1.29344
5.64149
8.71302
11.2851
13.1269
15.0634
15.5643
17.155
16.6965
17.38
-116.341
-98.3691
-71.8097
-59.2864
-42.1755
-33.0022
-21.6938
-14.4798
-7.53377
-1.73271
2.46901
6.53482
9.6259
11.9453
13.7018
15.5505
15.8147
17.4844
16.8902
17.599
-107.329
-91.6526
-66.5175
-55.1183
-38.8533
-30.2367
-19.5046
-12.5502
-5.98735
-0.342692
3.66324
7.46635
10.4677
12.6399
14.2918
16.0566
16.1458
17.8594
17.1307
17.8305
-96.2182
-84.4494
-61.0749
-50.8242
-35.4305
-27.3738
-17.1553
-10.4826
-4.31252
1.15717
4.92191
8.41276
11.3774
13.3643
14.8954
16.5831
16.4546
18.2398
17.3841
18.1157
-86.0574
-77.1845
-55.4559
-46.4098
-31.9561
-24.4313
-14.8398
-8.41577
-2.66418
2.65516
6.19609
9.47534
12.2587
14.1143
15.5173
17.1582
16.7825
18.6506
17.6529
18.4081
-75.1105
-69.3754
-49.7119
-41.8351
-28.3805
-21.3944
-12.3782
-6.22061
-0.899007
4.25249
7.54195
10.5721
13.2677
14.9108
16.1372
17.7201
17.0863
19.0633
17.9263
18.725
-63.7841
-61.5023
-43.7517
-37.1702
-24.7497
-18.3078
-9.94941
-4.02533
0.844429
5.85128
8.89358
11.7328
14.2582
15.7307
16.9179
18.3434
17.4051
19.4996
18.2024
19.0389
-51.5532
-53.161
-37.7465
-32.3394
-21.0406
-15.102
-7.39034
-1.71253
2.69274
7.54219
10.3219
12.9192
15.3819
16.5976
17.6624
19.0319
17.6959
19.9398
18.4772
19.355
-39.0122
-44.7774
-31.5418
-27.4547
-17.288
-11.8771
-4.8605
0.600987
4.52389
9.23425
11.7591
14.1546
16.4613
17.4848
18.5097
19.6911
18.0023
20.4002
18.7287
19.6626
-25.3878
-35.8474
-25.323
-22.4533
-13.515
-8.56441
-2.24771
2.99688
6.43222
10.9934
13.2472
15.4107
17.6832
18.409
19.3612
20.2975
18.2569
20.8025
18.9508
20.0221
-11.6723
-26.6388
-18.6973
-17.1927
-9.55953
-5.13181
0.428877
5.45371
8.37819
12.7923
14.7892
16.733
18.914
19.3902
20.3356
21.3607
18.5387
21.2171
19.1135
20.2374
1.65703
-18.3023
-12.5576
-12.0386
-5.63586
-1.60657
3.17699
7.99805
10.3976
14.6714
16.4224
18.0814
20.213
20.4206
21.3145
22.4133
18.8034
22.137
19.3858
20.8673
19.882
-8.86649
-6.55357
-7.96057
-2.51804
1.13484
5.3628
10.1226
12.0457
16.2358
17.7996
19.0985
21.3046
20.9794
22.0581
22.643
19.0271
22.1365
19.2402
20.8267
41.4434
7.925
2.60639
-0.408197
2.66945
5.64065
8.84009
13.0884
14.5261
18.3677
19.4607
20.8481
22.5166
22.6638
23.4117
24.071
20.6204
22.1507
17.7424
21.5827
79.9364
80.8287
56.8323
55.8553
43.1217
43.6682
36.9631
37.7957
35.1741
36.9103
35.0684
38.2883
36.0751
39.3604
37.0196
40.2914
37.7158
41.4982
23.1241
47.4392
120.082
110.073
88.4273
81.459
68.6182
64.2932
57.1225
55.0763
50.4824
49.3636
46.4036
46.221
43.9444
44.8376
42.8412
44.2847
42.2093
43.842
40.9401
43.6902
128.332
117.509
105.086
96.7905
87.7853
82.076
75.5774
71.9489
67.7903
65.6257
62.7454
61.5096
59.4195
58.9487
57.1482
57.3005
55.6667
55.6448
54.5847
55.2969
129.925
121.648
112.28
105.178
97.4375
91.9826
86.2918
82.0476
77.7181
74.4637
71.2657
68.9117
66.2578
64.5865
62.6277
61.4068
60.0224
59.4518
58.6022
58.7448
123.993
117.433
111.938
106.529
101.596
96.9585
92.7339
89.012
85.5227
82.6385
79.7166
77.482
75.1504
73.3369
71.3767
69.8297
68.1585
66.6805
65.8646
65.7862
121.547
117.863
113.739
109.104
105.235
101.236
97.5884
94.1406
90.8902
87.9438
85.1639
82.68
80.2133
78.0509
75.9736
73.9734
72.3099
70.7009
69.6075
69.286
117.416
113.946
111.217
108.386
105.471
102.719
99.9291
97.3813
94.7703
92.4959
90.0238
87.9551
85.7021
83.8005
81.667
79.7857
77.7615
75.8557
74.5576
73.9639
116.15
114.241
112.44
110.02
107.432
105.102
102.807
100.554
98.2902
96.162
93.9994
92.0583
89.8412
87.995
85.7491
83.8956
81.5671
79.5719
77.662
77.041
114.305
112.565
110.918
109.282
107.825
106.262
104.455
102.92
101.125
99.603
97.7229
96.2181
94.2961
92.7879
90.7115
89.072
86.6261
84.8231
82.4309
81.7691
113.981
113.106
112.144
111.082
109.764
108.349
106.951
105.563
104.196
102.907
101.485
100.259
98.6716
97.4447
95.5909
94.3106
91.8248
90.583
87.4286
87.126
114.05
113.313
112.464
111.64
110.754
110.003
109.119
108.289
107.222
106.418
105.347
104.563
103.47
102.697
101.487
100.701
98.9201
98.5409
94.6645
96.0822
114.372
113.972
113.435
113.025
112.462
111.904
111.202
110.739
110.096
109.696
109.134
108.805
108.301
108.071
107.639
107.601
107.156
107.525
107.817
109.77
115.311
115.058
114.671
114.378
113.992
113.736
113.388
113.16
112.905
112.76
112.668
112.681
112.862
113.038
113.633
113.919
115.232
115.516
118.066
119.309
116.027
115.909
115.679
115.579
115.372
115.334
115.198
115.281
115.233
115.479
115.588
116.061
116.406
117.2
117.943
119.157
120.539
122.261
125.27
126.124
116.93
116.906
116.813
116.825
116.788
116.882
116.924
117.148
117.304
117.724
118.053
118.745
119.332
120.478
121.36
123.037
124.438
126.889
129.464
133.117
117.65
117.691
117.678
117.781
117.829
118.027
118.162
118.489
118.751
119.253
119.666
120.401
120.983
121.943
122.763
124.148
125.209
127.062
127.825
138.85
118.316
118.386
118.458
118.594
118.738
118.966
119.193
119.568
119.913
120.438
120.888
121.588
122.187
123.186
123.921
125.385
126.013
128.067
128.702
131.54
118.823
118.954
119.041
119.209
119.359
119.628
119.875
120.23
120.551
121.041
121.467
122.134
122.626
123.433
123.982
124.918
125.475
126.688
127.141
134.527
119.198
119.241
119.376
119.582
119.797
120.072
120.344
120.711
121.084
121.542
121.966
122.52
123.034
123.726
124.254
125.031
125.58
126.365
126.638
127.331
119.36
119.495
119.61
119.777
119.965
120.223
120.497
120.846
121.176
121.625
122.057
122.608
123.073
123.669
124.161
124.787
125.236
125.893
126.108
129.345
230.312
229.751
228.307
226.443
223.748
220.631
216.55
212.088
206.586
200.91
194.201
187.385
179.657
170.75
162.377
152.182
141.083
130.952
120.404
109.157
200.926
200.512
199.814
198.829
197.455
195.897
193.855
191.779
189.049
186.517
183.06
180.017
175.127
170.247
166.518
162.503
157.866
153.266
148.215
142.86
163.281
163.035
162.7
162.24
161.625
160.953
160.069
159.192
158.064
157.003
155.623
154.351
152.661
151.216
149.112
147.366
145.047
143.109
140.411
138.507
151.348
151.174
150.915
150.62
150.23
149.807
149.263
148.69
147.971
147.245
146.339
145.479
144.403
143.431
142.201
141.129
139.728
138.595
136.987
135.846
134.717
134.593
134.478
134.297
134.084
133.846
133.536
133.249
132.844
132.513
132.032
131.642
131.131
130.725
130.122
129.661
128.949
128.453
127.601
127.123
129.323
129.242
129.133
129.007
128.854
128.683
128.488
128.271
128.035
127.773
127.47
127.184
126.769
126.424
125.947
125.568
125.031
124.632
124.014
123.621
122.676
122.616
122.533
122.44
122.316
122.187
122.024
121.86
121.658
121.46
121.228
120.998
120.744
120.503
120.225
119.977
119.625
119.367
118.96
118.684
120.233
120.174
120.108
120.025
119.935
119.827
119.711
119.579
119.439
119.287
119.119
118.95
118.742
118.545
118.294
118.074
117.819
117.596
117.31
117.096
117.734
117.694
117.637
117.576
117.496
117.413
117.308
117.201
117.075
116.944
116.796
116.641
116.473
116.302
116.112
115.922
115.692
115.487
115.232
115.012
116.708
116.646
116.577
116.495
116.406
116.31
116.223
116.134
116.037
115.934
115.821
115.703
115.569
115.427
115.264
115.099
114.918
114.761
114.591
114.438
116.364
116.312
116.256
116.195
116.132
116.065
115.975
115.882
115.782
115.686
115.579
115.476
115.363
115.25
115.128
115.007
114.883
114.752
114.612
114.473
116.327
116.288
116.248
116.2
116.149
116.09
116.028
115.956
115.878
115.792
115.703
115.61
115.509
115.405
115.293
115.178
115.051
114.922
114.793
114.671
116.56
116.54
116.515
116.487
116.455
116.419
116.381
116.338
116.293
116.243
116.191
116.133
116.074
116.008
115.942
115.869
115.795
115.713
115.633
115.54
116.995
116.97
116.943
116.913
116.882
116.849
116.814
116.776
116.737
116.695
116.653
116.607
116.561
116.511
116.462
116.408
116.356
116.297
116.243
116.179
117.535
117.516
117.496
117.475
117.453
117.43
117.407
117.381
117.357
117.33
117.303
117.274
117.246
117.215
117.185
117.151
117.121
117.084
117.053
117.013
118.067
118.044
118.022
118
117.979
117.956
117.936
117.915
117.895
117.874
117.855
117.835
117.816
117.797
117.779
117.76
117.743
117.723
117.707
117.687
118.519
118.503
118.488
118.472
118.458
118.443
118.431
118.417
118.406
118.393
118.384
118.373
118.365
118.356
118.349
118.341
118.335
118.329
118.325
118.319
118.911
118.884
118.86
118.836
118.816
118.796
118.78
118.763
118.754
118.751
118.752
118.75
118.752
118.75
118.75
118.751
118.757
118.766
118.776
118.786
119.213
119.201
119.191
119.184
119.179
119.176
119.175
119.173
119.167
119.153
119.143
119.138
119.138
119.14
119.149
119.157
119.163
119.168
119.175
119.182
119.366
119.34
119.317
119.295
119.275
119.258
119.244
119.235
119.229
119.225
119.223
119.224
119.227
119.234
119.242
119.253
119.266
119.28
119.298
119.317
55.2206
52.6743
47.0307
41.8866
36.7248
31.2216
25.4491
19.3033
12.7472
5.68167
-1.8984
-10.2029
-19.1414
-29.0371
-39.7494
-51.6037
-64.6655
-78.5999
-95.7081
-104.276
68.9402
67.5815
63.7195
59.7458
55.6285
51.1201
46.2431
40.9434
35.1859
28.9183
22.0778
14.5789
6.41197
-2.60888
-12.4045
-23.32
-35.1663
-48.2634
-63.9534
-72.5945
85.5909
85.215
82.1048
78.7973
75.2821
71.3715
67.1114
62.4473
57.3925
51.8591
45.8416
39.1896
31.9657
23.9112
15.1504
5.34438
-5.34234
-17.2644
-31.1958
-40.2381
102.2
102.074
99.4975
96.8375
94.0068
90.8328
87.3416
83.4876
79.2401
74.5343
69.3241
63.5382
57.1763
50.0399
42.2729
33.4733
23.9974
13.1905
0.816503
-6.9839
119.116
119.503
117.522
115.481
113.252
110.69
107.82
104.593
101.011
96.9946
92.5432
87.5448
82.0146
75.772
68.9061
61.1095
52.619
42.8736
31.8941
25.3072
136.224
136.733
134.991
133.415
131.669
129.67
127.398
124.856
121.971
118.71
115.022
110.84
106.159
100.788
94.8637
87.9805
80.4683
71.6214
61.4935
56.1277
152.337
153.116
151.975
150.951
149.805
148.412
146.767
144.852
142.623
140.049
137.086
133.673
129.764
125.235
120.131
114.128
107.474
99.5271
90.0828
84.8331
167.679
168.73
168.093
167.545
166.884
166.025
164.928
163.636
162.049
160.187
157.952
155.334
152.264
148.646
144.523
139.541
134.046
127.147
119.048
113.083
182.082
183.454
183.376
183.338
183.23
182.928
182.441
181.762
180.83
179.646
178.134
176.296
174.019
171.312
168.059
164.129
159.676
153.872
147.693
141.18
195.661
197.258
197.609
198.008
198.343
198.539
198.567
198.456
198.113
197.572
196.734
195.619
194.133
192.275
189.922
187.072
183.631
179.336
174.635
168.24
207.891
209.78
210.631
211.521
212.362
213.087
213.66
214.114
214.345
214.425
214.231
213.835
213.078
212.026
210.524
208.632
206.163
203.108
199.429
194.541
219.208
221.357
222.628
223.931
225.196
226.343
227.376
228.284
229.047
229.659
230.065
230.252
230.134
229.738
228.948
227.792
226.121
224.014
221.182
217.464
229.607
232.004
233.584
235.238
236.853
238.396
239.83
241.2
242.418
243.53
244.409
245.131
245.549
245.791
245.615
245.201
244.218
242.88
240.807
237.876
238.651
241.226
243.163
245.162
247.131
249.038
250.871
252.624
254.268
255.782
257.136
258.315
259.284
260.015
260.421
260.497
260.108
259.385
257.897
255.662
246.817
249.622
251.805
254.078
256.332
258.538
260.67
262.748
264.7
266.565
268.248
269.827
271.145
272.307
273.101
273.724
273.792
273.65
272.682
271.048
253.793
256.686
259.028
261.499
263.953
266.375
268.741
271.064
273.302
275.464
277.509
279.439
281.184
282.752
284.037
285.079
285.653
285.982
285.496
284.458
259.311
262.333
264.891
267.567
270.251
272.896
275.521
278.098
280.619
283.063
285.399
287.609
289.628
291.466
293.016
294.347
295.276
296.05
295.998
295.79
263.776
266.917
269.575
272.385
275.197
277.99
280.755
283.491
286.158
288.766
291.257
293.656
295.872
297.963
299.795
301.459
302.759
303.79
304.147
304.25
266.739
269.947
272.673
275.57
278.495
281.389
284.296
287.153
289.992
292.746
295.448
298.022
300.488
302.771
304.853
306.662
308.134
309.19
309.8
309.889
268.518
271.805
274.603
277.595
280.587
283.584
286.551
289.524
292.422
295.304
298.058
300.76
303.269
305.698
307.811
309.799
311.319
312.724
313.522
313.901
-177.837
-183.457
-189.385
-195.585
-201.835
-208.485
-215.162
-222.211
-229.297
-236.714
-244.293
-252.024
-260.011
-268.054
-276.34
-284.083
-290.656
-294.263
-294.859
-295.107
-174.018
-179.876
-185.985
-192.503
-199.028
-206.023
-213.053
-220.499
-228.107
-235.987
-244.093
-252.499
-261.171
-269.909
-279.126
-287.862
-296.186
-302.46
-302.817
-303.46
-169.754
-175.838
-182.144
-188.956
-195.78
-203.142
-210.601
-218.504
-226.604
-235.111
-243.935
-253.07
-262.554
-272.453
-282.629
-292.989
-303.332
-311.435
-313.508
-314.216
-165.21
-171.553
-178.042
-185.166
-192.299
-200.016
-207.886
-216.263
-224.952
-234.042
-243.573
-253.553
-264.059
-275.184
-286.532
-298.768
-311.437
-321.978
-327.541
-328.294
-160.018
-166.58
-173.23
-180.625
-188.035
-196.093
-204.37
-213.175
-222.37
-232.109
-242.359
-253.158
-264.679
-276.784
-289.743
-303.643
-318.465
-331.736
-341.258
-342.015
-154.157
-160.953
-167.74
-175.372
-183.052
-191.397
-200.025
-209.242
-218.929
-229.152
-240.021
-251.562
-263.854
-276.983
-291.14
-306.379
-322.723
-338.53
-351.668
-351.705
-147.553
-154.523
-161.371
-169.19
-177.065
-185.63
-194.528
-204.028
-214.069
-224.768
-236.137
-248.216
-261.208
-275.071
-290.107
-306.182
-323.536
-341.213
-356.609
-359.756
-140.013
-147.109
-153.933
-161.88
-169.872
-178.591
-187.686
-197.424
-207.757
-218.73
-230.48
-243.019
-256.489
-270.968
-286.523
-303.44
-321.72
-340.896
-356.361
-360.991
-131.514
-138.717
-145.547
-153.508
-161.535
-170.292
-179.52
-189.378
-199.865
-211.098
-223.08
-235.876
-249.706
-264.454
-280.437
-297.786
-316.253
-335.616
-354.009
-358.228
-121.763
-128.987
-135.751
-143.644
-151.708
-160.457
-169.71
-179.619
-190.197
-201.493
-213.644
-226.677
-240.752
-255.891
-272.383
-290.243
-309.411
-330.936
-348.44
-352.372
-111.09
-118.331
-124.919
-132.702
-140.662
-149.289
-158.473
-168.318
-178.845
-190.161
-202.278
-215.282
-229.382
-244.497
-261.01
-278.845
-298.449
-319.596
-339.095
-344.648
-99.0162
-106.176
-112.611
-120.192
-128.031
-136.509
-145.556
-155.254
-165.657
-176.822
-188.846
-201.8
-215.816
-230.897
-247.407
-265.196
-284.511
-305.815
-325.238
-331.015
-85.6676
-92.8507
-99.0479
-106.413
-114.049
-122.28
-131.109
-140.601
-150.784
-161.765
-173.551
-186.257
-200.037
-214.871
-231.13
-248.579
-267.91
-288.826
-308.943
-315.835
-71.1383
-78.177
-84.2161
-91.2856
-98.6979
-106.667
-115.225
-124.407
-134.284
-144.926
-156.39
-168.788
-182.215
-196.692
-212.589
-229.645
-248.465
-268.953
-288.828
-296.09
-55.9892
-62.8725
-68.4871
-75.1524
-82.2031
-89.7738
-97.9468
-106.774
-116.279
-126.555
-137.611
-149.591
-162.562
-176.614
-191.997
-208.48
-226.955
-246.731
-266.779
-274.471
-39.3036
-45.9779
-51.3439
-57.6174
-64.3708
-71.5914
-79.4052
-87.8308
-96.9069
-106.727
-117.317
-128.804
-141.25
-154.719
-169.488
-185.37
-203.153
-221.855
-242.05
-249.833
-22.1304
-28.632
-33.5692
-39.3546
-45.6933
-52.4593
-59.7996
-67.7678
-76.3667
-85.6885
-95.735
-106.676
-118.503
-131.4
-145.47
-160.678
-177.609
-195.471
-215.643
-223.589
-3.74996
-10.003
-14.5728
-19.85
-25.8441
-32.2247
-39.157
-46.6919
-54.819
-63.6399
-73.1679
-83.5258
-94.7508
-106.943
-120.292
-134.701
-150.773
-167.784
-187.256
-195.504
16.0072
9.32237
5.05949
0.252724
-5.37849
-11.4008
-17.8895
-24.9487
-32.5598
-40.8164
-49.704
-59.4287
-69.9176
-81.4518
-93.9926
-107.666
-122.876
-138.992
-157.851
-166.204
39.6111
32.8519
27.431
22.3379
16.7334
10.7601
4.4516
-2.30341
-9.53847
-17.3329
-25.7285
-34.851
-44.7144
-55.4812
-67.2005
-79.9853
-94.1938
-109.302
-127.39
-135.738
24.9713
24.9129
24.006
22.768
20.6732
17.7883
15.3055
11.4507
7.93125
2.92789
-2.32861
-8.77166
-16.9385
-25.3365
-38.159
-49.8037
-69.8136
-88.1212
-118.405
-150.029
25.2891
25.2994
24.4778
23.1486
21.235
18.4244
16.0833
12.35
9.01522
4.10841
-0.942948
-7.20612
-15.1084
-23.2108
-35.755
-46.889
-66.6523
-84.341
-114.602
-145.444
25.6447
25.7502
24.9979
23.6092
21.8004
19.0616
16.8915
13.2511
10.0478
5.29427
0.435676
-5.67072
-13.3383
-21.161
-33.4867
-44.0676
-63.6185
-80.2177
-110.618
-140.422
25.993
26.1606
25.4042
24.06
22.4073
19.7424
17.7128
14.1983
11.1872
6.53226
1.8838
-4.05212
-11.429
-18.9952
-30.9834
-41.0549
-60.4128
-76.3534
-106.526
-135.278
26.3615
26.615
25.8006
24.5213
23.0551
20.4026
18.567
15.1462
12.2756
7.77352
3.32905
-2.45944
-9.56296
-16.8974
-28.552
-38.1313
-57.1506
-71.8382
-102.134
-129.643
26.7063
27.0258
26.2106
24.9815
23.7562
21.1421
19.4332
16.1506
13.4692
9.06615
4.84164
-0.788754
-7.5748
-14.685
-25.9353
-35.0928
-53.7732
-67.7976
-97.8472
-123.538
27.0645
27.4287
26.631
25.4368
24.4314
21.8405
20.3396
17.1547
14.6163
10.3638
6.35104
0.862722
-5.61686
-12.5173
-23.3626
-32.0628
-50.2181
-63.0829
-92.8094
-117.039
27.3606
27.7952
27.0772
25.8905
25.2166
22.6132
21.2627
18.2138
15.8622
11.7121
7.92485
2.58705
-3.55151
-10.253
-20.6329
-28.943
-46.6512
-58.7713
-87.599
-110.099
27.6443
28.1085
27.5353
26.3359
25.947
23.3584
22.2065
19.2768
17.0679
13.0667
9.4936
4.29837
-1.50755
-8.01779
-17.9232
-25.8142
-42.8521
-53.8952
-81.9957
-102.546
27.8925
28.3959
27.9435
26.7964
26.6982
24.1613
23.189
20.3911
18.3642
14.4703
11.123
6.07766
0.630663
-5.69809
-15.074
-22.5968
-39.0502
-49.219
-76.5057
-94.5975
28.1237
28.6478
28.3295
27.2659
27.454
24.9495
24.1874
21.5086
19.6267
15.8809
12.7449
7.84933
2.75192
-3.39674
-12.2348
-19.3786
-35.0213
-44.1047
-70.153
-85.826
28.3248
28.8581
28.7225
27.7642
28.267
25.8143
25.2255
22.6738
20.9708
17.3377
14.4227
9.68424
4.95512
-1.01862
-9.26799
-16.0611
-30.9372
-39.0897
-63.8694
-76.255
28.5105
29.0422
29.1063
28.3231
29.0765
26.6438
26.2759
23.8426
22.2873
18.8012
16.0901
11.5155
7.14246
1.34889
-6.31072
-12.7589
-26.7094
-33.5117
-57.0008
-65.1531
28.6793
29.1917
29.5093
28.8986
29.9456
27.5691
27.366
25.0535
23.6769
20.308
17.809
13.4071
9.4024
3.79142
-3.23255
-9.34217
-22.3428
-27.2893
-50.0519
-54.5558
28.8405
29.3163
29.9302
29.4381
30.8268
28.4772
28.4668
26.2694
25.0453
21.8199
19.515
15.2972
11.644
6.2248
-0.177794
-5.99067
-17.8759
-21.0246
-42.6973
-42.6766
28.9963
29.4231
30.3189
29.9707
31.8005
29.4699
29.6004
27.5142
26.4694
23.3601
21.2538
17.2281
13.9287
8.70797
2.95115
-2.57743
-13.2831
-15.5333
-34.9655
-30.1017
29.152
29.4545
30.7086
30.5554
32.8568
30.4689
30.7548
28.771
27.8904
24.9314
23.0078
19.1961
16.2508
11.2677
6.16578
0.943861
-8.43499
-9.77039
-26.8409
-16.6595
29.3643
29.7091
31.7214
31.2159
33.8983
31.5781
31.9624
30.0874
29.3984
26.5457
24.8294
21.245
18.6425
13.8818
9.37321
4.40852
-3.74359
-4.35547
-19.1993
-3.71188
29.4406
29.5799
31.8831
31.8426
34.6711
32.5749
33.0198
31.2671
30.7393
27.9373
26.3659
22.9842
20.6127
15.9908
11.8813
7.08212
0.0831313
0.384087
-11.0895
14.7288
30.2744
28.1381
31.4595
32.6879
35.688
33.7223
34.2789
32.4738
32.1565
29.6679
28.1794
25.0445
23.1139
18.9563
15.9247
11.8003
7.20614
8.37399
3.19666
36.4144
51.4551
34.9372
46.442
41.6833
45.3787
43.1766
45.0895
44.0197
44.8312
44.4334
45.6756
45.1959
47.4377
47.4055
52.3645
52.9442
61.9787
62.8733
78.1893
70.2438
50.9357
48.0141
50.6419
48.9175
50.839
50.5573
51.7812
52.1839
53.6706
54.5983
56.8671
59.0607
63.1089
66.475
73.232
77.2326
89.234
94.7439
115.377
123.665
63.3858
62.8016
63.1861
63.1917
64.3354
64.823
66.2348
67.2851
69.0832
70.7355
73.4987
75.9471
79.6083
82.9504
88.2975
93.1405
101.278
108.156
120.335
128.517
67.6882
67.763
68.1112
68.874
69.968
71.0478
72.7043
74.4312
76.8477
79.3294
82.3886
85.3722
89.4622
93.3479
98.9036
103.6
111.283
116.132
126.288
130.586
74.8297
74.9721
75.5759
76.8958
77.8061
79.2917
80.717
82.4407
84.3289
86.4067
88.7664
91.491
94.4493
97.9024
101.487
105.737
109.935
114.802
119.553
125.588
78.8409
79.1668
79.7813
81.0296
82.3292
83.798
85.58
87.3318
89.5849
91.6666
94.3527
96.7754
99.9338
102.729
106.355
109.433
113.428
116.707
121.006
123.746
83.1129
83.431
84.2778
85.6829
86.9866
88.6001
90.1673
91.9195
93.6974
95.5809
97.5774
99.6912
101.89
104.244
106.603
109.158
111.621
114.257
116.25
118.978
85.4355
85.8687
87.041
88.4782
90.1973
91.737
93.6444
95.1661
97.1633
98.7914
100.892
102.6
104.777
106.556
108.75
110.563
112.623
114.477
116.491
118.04
87.9546
88.5785
90.0586
91.7448
93.6675
95.186
97.0053
98.4349
100.187
101.589
103.274
104.686
106.327
107.75
109.349
110.746
112.285
113.583
114.544
115.552
89.4891
90.1195
92.4675
94.228
96.5861
98.0731
100.043
101.316
103.043
104.209
105.775
106.878
108.322
109.367
110.691
111.654
112.825
113.653
114.768
115.52
93.3318
93.9438
96.7937
98.3604
100.862
102.116
103.919
104.919
106.36
107.232
108.451
109.253
110.333
111.082
112.06
112.744
113.619
114.214
114.796
115.125
97.9017
97.215
102.94
103.483
105.784
106.464
107.91
108.496
109.569
110.092
110.969
111.471
112.229
112.682
113.364
113.781
114.364
114.702
115.247
115.541
112.94
110.477
111.485
110.766
112.287
112.24
112.999
113.045
113.595
113.698
114.177
114.302
114.741
114.908
115.322
115.464
115.846
115.962
116.24
116.271
124.438
122.315
119.689
119.537
118.372
117.986
117.398
117.103
116.872
116.654
116.614
116.476
116.552
116.483
116.58
116.547
116.7
116.68
116.881
116.848
131.8
131.397
127.852
126.003
124.472
122.876
122.037
120.932
120.488
119.738
119.487
118.972
118.849
118.489
118.453
118.218
118.194
118.005
117.951
117.754
140.085
135.318
132.201
129.352
127.58
125.934
124.895
123.657
122.923
121.985
121.496
120.787
120.43
119.913
119.645
119.259
119.045
118.773
118.664
118.479
144.714
132.55
131.778
129.839
128.647
127.005
125.957
124.719
123.96
123.024
122.453
121.768
121.352
120.839
120.536
120.153
119.953
119.667
119.476
119.225
134.813
132.415
131.856
129.974
129.26
127.786
127.049
125.857
125.179
124.226
123.647
122.884
122.387
121.789
121.373
120.904
120.551
120.183
119.904
119.64
138.392
131.248
130.87
129.604
128.943
127.793
127.08
126.071
125.397
124.546
123.948
123.255
122.746
122.193
121.774
121.343
121.019