/*--------------------------------*- C++ -*----------------------------------*\
  =========                 |
  \\      /  F ield         | OpenFOAM: The Open Source CFD Toolbox
   \\    /   O peration     | Website:  https://openfoam.org
    \\  /    A nd           | Version:  9
     \\/     M anipulation  |
\*---------------------------------------------------------------------------*/
FoamFile
{
    format      ascii;
    class       surfaceScalarField;
    location    "8.3";
    object      phi;
}
// * * * * * * * * * * * * * * * * * * * * * * * * * * * * * * * * * * * * * //

dimensions      [0 3 -1 0 0 0 0];

internalField   nonuniform List<scalar> 
92080
(
-0.00551098
-0.468466
0.473977
-0.0320193
-0.909088
0.935597
-0.0744302
-0.969736
1.01215
-0.11827
-0.952585
0.996424
-0.161041
-0.937927
0.980698
-0.202864
-0.92268
0.964502
-0.24383
-0.908526
0.949491
-0.284704
-0.894467
0.935341
-0.32486
-0.883203
0.923359
-0.363787
-0.870837
0.909764
-0.40356
-0.859332
0.899106
-0.443105
-0.849029
0.888573
-0.482093
-0.840872
0.87986
-0.520712
-0.831895
0.870514
-0.559371
-0.822878
0.861536
-0.597186
-0.81559
0.853405
-0.633503
-0.807575
0.843892
-0.668977
-0.799428
0.834902
-0.70273
-0.790859
0.824612
-0.784546
0.815949
-0.734133
-0.00701165
-0.461455
-0.0379493
-0.878151
-0.0818023
-0.925883
-0.125503
-0.908884
-0.16889
-0.89454
-0.212458
-0.879112
-0.255867
-0.865116
-0.298486
-0.851849
-0.340722
-0.840967
-0.382827
-0.828732
-0.42357
-0.818589
-0.46474
-0.807859
-0.50529
-0.800322
-0.544237
-0.792948
-0.582664
-0.784451
-0.620729
-0.777524
-0.658026
-0.770278
-0.694117
-0.763338
-0.727966
-0.75701
-0.751494
-0.761017
-0.0062144
-0.45524
-0.0422577
-0.842107
-0.0879287
-0.880212
-0.134624
-0.862188
-0.179478
-0.849686
-0.222852
-0.835738
-0.266195
-0.821774
-0.309911
-0.808133
-0.352359
-0.798518
-0.394309
-0.786783
-0.436848
-0.77605
-0.478538
-0.766169
-0.520842
-0.758017
-0.562181
-0.75161
-0.602943
-0.743689
-0.642842
-0.737625
-0.681163
-0.731957
-0.719343
-0.725157
-0.757048
-0.719305
-0.714562
-0.793981
-0.00117459
-0.454066
-0.0420745
-0.801207
-0.0901588
-0.832127
-0.137999
-0.814348
-0.186262
-0.801423
-0.233326
-0.788674
-0.278944
-0.776156
-0.324258
-0.762819
-0.369323
-0.753452
-0.41269
-0.743416
-0.455469
-0.733271
-0.498807
-0.722831
-0.542001
-0.714824
-0.584483
-0.709127
-0.626205
-0.701966
-0.669085
-0.694746
-0.710794
-0.690248
-0.750253
-0.685698
-0.789411
-0.680147
-0.675303
-0.82867
0.00127656
-0.455342
-0.0416236
-0.758307
-0.0932738
-0.780477
-0.143948
-0.763674
-0.19302
-0.752351
-0.24093
-0.740763
-0.288117
-0.72897
-0.335094
-0.715842
-0.381438
-0.707107
-0.427172
-0.697682
-0.471397
-0.689047
-0.514738
-0.67949
-0.55931
-0.670251
-0.603267
-0.66517
-0.645301
-0.659933
-0.686883
-0.653164
-0.730721
-0.64641
-0.774027
-0.642392
-0.815339
-0.638835
-0.634132
-0.85651
0.0015932
-0.456935
-0.0442602
-0.712454
-0.0982379
-0.726499
-0.151094
-0.710818
-0.20308
-0.700364
-0.252837
-0.691007
-0.300421
-0.681386
-0.34781
-0.668453
-0.395323
-0.659594
-0.441394
-0.651611
-0.487618
-0.642823
-0.531985
-0.635123
-0.577169
-0.625067
-0.624039
-0.618301
-0.669958
-0.614013
-0.713639
-0.609484
-0.756038
-0.604011
-0.800604
-0.597826
-0.844577
-0.594862
-0.591529
-0.887181
0.000647013
-0.457582
-0.0484057
-0.663401
-0.103669
-0.671236
-0.156592
-0.657895
-0.209244
-0.647712
-0.260654
-0.639597
-0.309802
-0.632238
-0.357127
-0.621128
-0.405104
-0.611617
-0.45216
-0.604555
-0.498328
-0.596656
-0.543542
-0.589909
-0.586666
-0.581943
-0.631612
-0.573355
-0.677781
-0.567844
-0.723772
-0.563492
-0.768207
-0.559576
-0.811429
-0.554604
-0.85682
-0.54947
-0.547008
-0.901341
-0.00878782
-0.448795
-0.0601326
-0.612056
-0.115918
-0.61545
-0.169679
-0.604134
-0.223608
-0.593784
-0.27666
-0.586545
-0.327722
-0.581175
-0.376654
-0.572196
-0.424862
-0.56341
-0.472631
-0.556786
-0.520064
-0.549223
-0.567054
-0.542918
-0.612578
-0.536419
-0.656338
-0.529595
-0.70182
-0.522361
-0.747349
-0.517963
-0.793118
-0.513807
-0.837086
-0.510635
-0.880578
-0.505978
-0.501905
-0.925682
-0.0167809
-0.432014
-0.0678298
-0.561008
-0.121877
-0.561403
-0.173781
-0.55223
-0.225709
-0.541856
-0.279241
-0.533013
-0.331218
-0.529198
-0.381069
-0.522346
-0.430633
-0.513846
-0.478366
-0.509053
-0.525262
-0.502327
-0.571556
-0.496623
-0.617702
-0.490274
-0.662411
-0.484886
-0.706472
-0.478301
-0.751951
-0.472485
-0.797531
-0.468227
-0.843495
-0.46467
-0.8873
-0.462173
-0.458163
-0.931042
-0.0246633
-0.40735
-0.0792956
-0.506375
-0.135859
-0.50484
-0.189182
-0.498907
-0.240404
-0.490633
-0.293115
-0.480302
-0.346996
-0.475317
-0.397955
-0.471387
-0.449647
-0.462153
-0.50146
-0.45724
-0.551604
-0.452183
-0.600626
-0.447602
-0.648058
-0.442842
-0.694529
-0.438415
-0.738811
-0.434018
-0.782589
-0.428707
-0.826764
-0.424052
-0.871856
-0.419579
-0.916861
-0.417168
-0.414232
-0.960793
-0.0293863
-0.377964
-0.0833327
-0.452429
-0.140354
-0.447819
-0.195795
-0.443467
-0.247954
-0.438473
-0.298476
-0.42978
-0.351636
-0.422157
-0.402234
-0.420789
-0.450183
-0.414204
-0.499501
-0.407922
-0.548814
-0.402871
-0.598534
-0.397881
-0.648151
-0.393225
-0.697606
-0.38896
-0.74598
-0.385644
-0.792836
-0.381851
-0.838153
-0.378735
-0.883261
-0.37447
-0.928813
-0.371615
-0.369144
-0.9739
-0.0352108
-0.342753
-0.0912523
-0.396387
-0.150363
-0.388708
-0.208674
-0.385156
-0.264067
-0.38308
-0.31585
-0.377996
-0.369364
-0.368643
-0.425188
-0.364965
-0.477531
-0.361861
-0.527958
-0.357495
-0.577086
-0.353743
-0.624963
-0.350004
-0.672251
-0.345937
-0.71985
-0.341361
-0.767465
-0.338029
-0.815072
-0.334244
-0.862196
-0.331611
-0.90794
-0.328727
-0.95382
-0.325735
-0.323503
-0.999461
-0.0378892
-0.304864
-0.0909798
-0.343297
-0.148017
-0.33167
-0.20695
-0.326223
-0.265568
-0.324462
-0.318245
-0.32532
-0.36772
-0.319168
-0.419306
-0.313379
-0.472178
-0.308989
-0.524798
-0.304875
-0.577273
-0.301268
-0.628997
-0.29828
-0.678903
-0.296031
-0.727663
-0.292601
-0.776
-0.289693
-0.823442
-0.286802
-0.871169
-0.283883
-0.918164
-0.281732
-0.964442
-0.279458
-0.277187
-1.01076
-0.0446633
-0.260201
-0.0994293
-0.288531
-0.153736
-0.277364
-0.210134
-0.269825
-0.27238
-0.262216
-0.334211
-0.263489
-0.39017
-0.26321
-0.442523
-0.261025
-0.493493
-0.258019
-0.543837
-0.254531
-0.593987
-0.251117
-0.644587
-0.24768
-0.695344
-0.245274
-0.744823
-0.243122
-0.794063
-0.240452
-0.842582
-0.238283
-0.890591
-0.235875
-0.938645
-0.233677
-0.986154
-0.231949
-0.230127
-1.03321
-0.0553575
-0.204843
-0.115744
-0.228144
-0.169499
-0.223609
-0.216836
-0.222488
-0.266356
-0.212696
-0.321826
-0.208019
-0.379761
-0.205275
-0.436875
-0.203912
-0.492578
-0.202316
-0.546359
-0.20075
-0.598496
-0.198981
-0.649182
-0.196993
-0.699552
-0.194905
-0.749554
-0.19312
-0.798499
-0.191507
-0.847347
-0.189435
-0.895298
-0.187924
-0.943229
-0.185747
-0.990945
-0.184232
-0.182174
-1.0389
-0.0628159
-0.142027
-0.127798
-0.163162
-0.191847
-0.15956
-0.250263
-0.164072
-0.300825
-0.162134
-0.351418
-0.157425
-0.402118
-0.154575
-0.454366
-0.151664
-0.506869
-0.149812
-0.559739
-0.14788
-0.612209
-0.146511
-0.664149
-0.145053
-0.715274
-0.143781
-0.766057
-0.142336
-0.816322
-0.141242
-0.865718
-0.140039
-0.914612
-0.13903
-0.96246
-0.137899
-1.00981
-0.136881
-0.135699
-1.05629
-0.0507233
-0.0913041
-0.107337
-0.106548
-0.162225
-0.104673
-0.225553
-0.100744
-0.285492
-0.102196
-0.342884
-0.100033
-0.398511
-0.0989483
-0.452084
-0.0980906
-0.505362
-0.0965346
-0.55741
-0.095832
-0.609595
-0.094326
-0.66096
-0.0936883
-0.712265
-0.0924752
-0.762592
-0.09201
-0.812703
-0.0911306
-0.862117
-0.0906252
-0.911139
-0.0900077
-0.959512
-0.0895267
-1.00739
-0.0889985
-0.0884204
-1.05467
-0.051104
-0.0402001
-0.115037
-0.0426154
-0.171816
-0.0478937
-0.231668
-0.0408913
-0.291165
-0.0426986
-0.348429
-0.042769
-0.405388
-0.0419886
-0.461047
-0.0424319
-0.51606
-0.0415216
-0.569832
-0.0420599
-0.622754
-0.041404
-0.675117
-0.0413247
-0.726494
-0.0410988
-0.777284
-0.0412202
-0.827013
-0.0414013
-0.876289
-0.0413489
-0.924861
-0.0414359
-0.972982
-0.0414061
-1.02058
-0.0414026
-0.0416033
-1.06739
-0.0468629
0.00666277
-0.10896
0.0194818
-0.175777
0.0189235
-0.232239
0.0155701
-0.289958
0.0150209
-0.346091
0.0133641
-0.401291
0.0132107
-0.457083
0.0133602
-0.511481
0.012877
-0.565075
0.011534
-0.618101
0.0116224
-0.670281
0.0108546
-0.722236
0.0108559
-0.773499
0.0100435
-0.824901
0.0100005
-0.875102
0.00885172
-0.925257
0.00871949
-0.974358
0.00769521
-1.02307
0.00730689
0.00641565
-1.07109
-0.0533792
0.0600419
-0.117295
0.0833975
-0.180628
0.0822562
-0.237951
0.0728932
-0.297055
0.0741251
-0.355051
0.0713599
-0.412189
0.0703494
-0.468119
0.06929
-0.522513
0.0672706
-0.577008
0.0660294
-0.630348
0.064962
-0.68258
0.0630867
-0.734022
0.0622975
-0.784595
0.0606174
-0.834597
0.0600015
-0.884302
0.0585574
-0.933534
0.0579511
-0.982204
0.056365
-1.03048
0.0555863
-1.07813
0.0540667
0.0262285
-0.092673
0.0664445
0.136928
-0.415825
0.305125
0.263846
-0.900029
0.773111
0.34016
-1.19148
1.11517
0.371375
-1.286
1.25479
0.383554
-1.29969
1.28751
0.390774
-1.29535
1.28813
0.393096
-1.28326
1.28094
0.395428
-1.27204
1.26971
0.397453
-1.26289
1.26086
0.399245
-1.25454
1.25275
0.400235
-1.24567
1.24468
0.401237
-1.23875
1.23774
0.402027
-1.23117
1.23038
0.401769
-1.22373
1.22398
0.400572
-1.21445
1.21565
0.399237
-1.20754
1.20887
0.397103
-1.19694
1.19907
0.393635
-1.18514
1.18861
-1.17077
0.39032
1.17409
0.0312039
-0.123877
0.141222
-0.525844
0.244018
-1.00282
0.299207
-1.24667
0.318137
-1.30493
0.325694
-1.30725
0.328691
-1.29835
0.329819
-1.28439
0.331306
-1.27353
0.332569
-1.26415
0.332955
-1.25493
0.333338
-1.24605
0.33304
-1.23845
0.33204
-1.23017
0.33045
-1.22214
0.329255
-1.21325
0.327207
-1.20549
0.323653
-1.19338
0.319009
-1.1805
-1.16669
0.314925
0.0376996
-0.161576
0.135914
-0.624058
0.219739
-1.08665
0.257713
-1.28464
0.269259
-1.31648
0.274668
-1.31265
0.275275
-1.29895
0.276278
-1.28539
0.276687
-1.27393
0.276161
-1.26362
0.275309
-1.25408
0.27363
-1.24437
0.27171
-1.23653
0.269572
-1.22803
0.26706
-1.21962
0.263749
-1.20994
0.259614
-1.20135
0.254788
-1.18856
0.249639
-1.17535
-1.16175
0.244698
0.0451733
-0.20675
0.12996
-0.708845
0.193609
-1.1503
0.215817
-1.30685
0.221214
-1.32188
0.222005
-1.31344
0.22105
-1.298
0.220142
-1.28448
0.218496
-1.27229
0.21672
-1.26185
0.214225
-1.25158
0.211585
-1.24173
0.208496
-1.23344
0.204741
-1.22428
0.199982
-1.21486
0.195109
-1.20507
0.189636
-1.19588
0.183394
-1.18232
0.176444
-1.1684
-1.15504
0.169733
0.0446227
-0.251372
0.115076
-0.779298
0.166066
-1.20129
0.179843
-1.32063
0.181997
-1.32403
0.179903
-1.31135
0.1772
-1.2953
0.173987
-1.28127
0.170562
-1.26886
0.16634
-1.25763
0.161851
-1.24709
0.156697
-1.23658
0.151136
-1.22788
0.145392
-1.21854
0.139769
-1.20924
0.133827
-1.19913
0.127142
-1.1892
0.11982
-1.17499
0.11239
-1.16097
-1.14772
0.105077
0.0376665
-0.289039
0.0989107
-0.840542
0.134843
-1.23722
0.140251
-1.32604
0.138655
-1.32243
0.134211
-1.30691
0.129844
-1.29093
0.12513
-1.27656
0.119582
-1.26331
0.11386
-1.2519
0.107504
-1.24074
0.100862
-1.22993
0.0940275
-1.22104
0.0867942
-1.2113
0.078571
-1.20102
0.0699737
-1.19053
0.0609661
-1.18019
0.0517017
-1.16573
0.0421057
-1.15137
-1.13813
0.0325126
0.0337366
-0.322776
0.0831276
-0.889933
0.108799
-1.26289
0.110087
-1.32732
0.105003
-1.31735
0.0984929
-1.3004
0.0914728
-1.28391
0.0837871
-1.26887
0.0760796
-1.25561
0.0676855
-1.24351
0.0591131
-1.23216
0.0501668
-1.22099
0.0406771
-1.21155
0.0309932
-1.20162
0.0215806
-1.19161
0.0119432
-1.18089
0.00193549
-1.17018
-0.0084052
-1.15539
-0.0187987
-1.14098
-1.12779
-0.0291403
0.0318399
-0.354615
0.0743567
-0.93245
0.0877242
-1.27626
0.0824337
-1.32203
0.0731354
-1.30805
0.0636857
-1.29095
0.0538977
-1.27412
0.0440888
-1.25906
0.0334467
-1.24497
0.0228364
-1.2329
0.0117969
-1.22112
0.000376528
-1.20957
-0.0110034
-1.20017
-0.0226384
-1.18998
-0.0346681
-1.17958
-0.0467491
-1.16881
-0.059015
-1.15792
-0.0712222
-1.14318
-0.0836605
-1.12854
-1.11534
-0.0961139
0.0264612
-0.381077
0.05861
-0.964599
0.0643922
-1.28204
0.055043
-1.31268
0.0430732
-1.29608
0.0309412
-1.27881
0.0184767
-1.26166
0.00564655
-1.24623
-0.00685587
-1.23246
-0.0200289
-1.21973
-0.0332012
-1.20795
-0.0464579
-1.19631
-0.0602452
-1.18639
-0.0740932
-1.17614
-0.0880542
-1.16562
-0.102042
-1.15482
-0.116006
-1.14395
-0.12984
-1.12935
-0.143871
-1.11451
-1.10127
-0.157932
0.0233402
-0.404417
0.0488848
-0.990143
0.0475816
-1.28074
0.0347858
-1.29989
0.0196806
-1.28098
0.00455736
-1.26369
-0.0108395
-1.24626
-0.0262644
-1.23081
-0.0423405
-1.21639
-0.0580927
-1.20398
-0.0740746
-1.19197
-0.0903731
-1.18001
-0.106604
-1.17016
-0.123104
-1.15964
-0.139364
-1.14936
-0.155661
-1.13853
-0.171723
-1.12789
-0.187431
-1.11364
-0.203479
-1.09846
-1.08528
-0.21947
0.0193117
-0.423729
0.0373231
-1.00815
0.0289875
-1.2724
0.0114066
-1.28231
-0.00682017
-1.26275
-0.0249036
-1.24561
-0.0429703
-1.22819
-0.0610375
-1.21274
-0.0787315
-1.19869
-0.0970583
-1.18565
-0.115137
-1.17389
-0.133053
-1.1621
-0.151157
-1.15205
-0.169109
-1.14168
-0.187447
-1.13102
-0.205521
-1.12045
-0.223326
-1.11008
-0.240523
-1.09644
-0.257604
-1.08138
-1.06791
-0.274982
0.0162558
-0.439984
0.0270804
-1.01898
0.013816
-1.25914
-0.00607131
-1.26242
-0.0268103
-1.24201
-0.0475458
-1.22487
-0.0683553
-1.20738
-0.0893429
-1.19175
-0.110536
-1.1775
-0.131305
-1.16488
-0.152193
-1.153
-0.173199
-1.14109
-0.19408
-1.13117
-0.214952
-1.12081
-0.235252
-1.11072
-0.255565
-1.10014
-0.275121
-1.09053
-0.29362
-1.07794
-0.311735
-1.06327
-1.04989
-0.329754
0.0129761
-0.45296
0.0186462
-1.02465
0.000599059
-1.24109
-0.0231502
-1.23867
-0.047063
-1.2181
-0.0710405
-1.20089
-0.094792
-1.18363
-0.118167
-1.16838
-0.141366
-1.1543
-0.165025
-1.14122
-0.188258
-1.12977
-0.211283
-1.11806
-0.234282
-1.10817
-0.256875
-1.09822
-0.27963
-1.08796
-0.302282
-1.07749
-0.324914
-1.0679
-0.346623
-1.05623
-0.368096
-1.04179
-1.02827
-0.389717
0.0099424
-0.462903
0.00944987
-1.02416
-0.0135318
-1.21811
-0.0400137
-1.21219
-0.0665392
-1.19157
-0.092868
-1.17456
-0.119047
-1.15745
-0.145524
-1.1419
-0.171705
-1.12812
-0.197436
-1.11549
-0.223289
-1.10392
-0.248989
-1.09236
-0.274597
-1.08256
-0.300012
-1.0728
-0.324446
-1.06353
-0.348563
-1.05337
-0.371986
-1.04447
-0.39439
-1.03383
-0.415768
-1.02042
-1.00697
-0.437066
0.00729613
-0.470199
0.00295722
-1.01982
-0.0236767
-1.19148
-0.0529741
-1.18289
-0.0820415
-1.16251
-0.111291
-1.14532
-0.140279
-1.12846
-0.168782
-1.1134
-0.197471
-1.09943
-0.226469
-1.08649
-0.254699
-1.07569
-0.283009
-1.06405
-0.311389
-1.05418
-0.33965
-1.04454
-0.367852
-1.03533
-0.395728
-1.02549
-0.423305
-1.01689
-0.449341
-1.00779
-0.4746
-0.995159
-0.981654
-0.499914
0.00506636
-0.475265
-0.00414977
-1.0106
-0.0348213
-1.1608
-0.067691
-1.15002
-0.0997479
-1.13045
-0.131476
-1.11359
-0.162814
-1.09713
-0.194337
-1.08187
-0.22515
-1.06862
-0.255956
-1.05569
-0.286852
-1.04479
-0.316693
-1.03421
-0.34652
-1.02436
-0.376346
-1.01472
-0.405602
-1.00607
-0.434732
-0.996364
-0.463936
-0.987691
-0.492073
-0.979656
-0.517852
-0.969379
-0.956103
-0.543403
0.00262895
-0.477894
-0.0105479
-0.997425
-0.0433358
-1.12802
-0.0779923
-1.11537
-0.112165
-1.09628
-0.146559
-1.07919
-0.180549
-1.06314
-0.21402
-1.0484
-0.247823
-1.03481
-0.281686
-1.02182
-0.315401
-1.01108
-0.349418
-1.0002
-0.382756
-0.991019
-0.416041
-0.981433
-0.448938
-0.973174
-0.4813
-0.964002
-0.51383
-0.955161
-0.545694
-0.947791
-0.575959
-0.939115
-0.926923
-0.605139
0.000276648
-0.478171
-0.0174443
-0.979704
-0.054001
-1.09146
-0.0917155
-1.07765
-0.128006
-1.05999
-0.163934
-1.04326
-0.199772
-1.0273
-0.23565
-1.01253
-0.270449
-1.00001
-0.305641
-0.986631
-0.340927
-0.97579
-0.375643
-0.96548
-0.410633
-0.956029
-0.445735
-0.946331
-0.480737
-0.938173
-0.515064
-0.929675
-0.54979
-0.920435
-0.584549
-0.913032
-0.617635
-0.906029
-0.8957
-0.648858
-0.0011663
-0.477005
-0.0217879
-0.959083
-0.0595234
-1.05372
-0.09912
-1.03805
-0.138283
-1.02082
-0.177108
-1.00444
-0.215187
-0.989218
-0.253105
-0.974608
-0.291317
-0.961802
-0.328816
-0.949132
-0.366557
-0.938049
-0.404559
-0.927479
-0.44177
-0.918818
-0.479242
-0.908858
-0.517275
-0.90014
-0.55509
-0.891859
-0.592933
-0.882592
-0.631736
-0.87423
-0.671361
-0.866404
-0.858652
-0.708408
-0.00302733
-0.0265134
-0.068091
-0.109721
-0.149846
-0.189783
-0.22951
-0.268777
-0.30722
-0.346588
-0.385531
-0.424437
-0.463394
-0.501738
-0.540342
-0.578796
-0.617497
-0.656825
-0.698617
-0.74132
0.318764
-10.1535
10.2251
0.271636
-9.64511
9.69224
0.234445
-9.6361
9.67329
0.198706
-9.32357
9.35931
0.175554
-9.30085
9.324
0.152752
-9.09792
9.12072
0.135962
-9.05039
9.06718
0.123989
-8.94101
8.95299
0.112694
-8.8928
8.90409
0.10276
-8.83413
8.84406
0.0928104
-8.77155
8.7815
0.0819858
-8.66099
8.67182
0.0729322
-8.63594
8.64499
0.0639906
-8.56442
8.57336
0.0567408
-8.58185
8.5891
0.0483867
-8.52295
8.53131
0.0447209
-8.54955
8.55321
0.0273667
-7.57953
7.59689
0.0163681
-5.50028
5.51128
-2.26991
2.28628
0.240336
-10.0789
0.192603
-9.59738
0.159703
-9.6032
0.129128
-9.293
0.107708
-9.27943
0.0887257
-9.07894
0.0757248
-9.03739
0.0675824
-8.93287
0.0600897
-8.88531
0.0532607
-8.8273
0.0472459
-8.76554
0.0419583
-8.65571
0.0383659
-8.63235
0.0345584
-8.56061
0.0327205
-8.58001
0.0291795
-8.51941
0.0303716
-8.55074
0.0198601
-7.56902
0.0133659
-5.49379
-2.25655
0.172378
-10.0066
0.124997
-9.55
0.0886753
-9.56688
0.0578518
-9.26217
0.0391403
-9.26072
0.0230965
-9.06289
0.0139383
-9.02823
0.00931329
-8.92825
0.00622268
-8.88222
0.00390758
-8.82498
0.00265591
-8.76428
0.00270538
-8.65575
0.00436646
-8.63401
0.00568755
-8.56193
0.00901655
-8.58334
0.0102271
-8.52062
0.0155345
-8.55605
0.0116522
-7.56514
0.0115931
-5.49373
-2.24496
0.0918508
-9.92872
0.0442912
-9.50244
0.0123516
-9.53494
-0.0126143
-9.23721
-0.028364
-9.24497
-0.039954
-9.0513
-0.0459062
-9.02228
-0.0464795
-8.92767
-0.0457649
-8.88293
-0.0451432
-8.8256
-0.042277
-8.76715
-0.0370188
-8.66101
-0.030405
-8.64062
-0.0239433
-8.56839
-0.0151721
-8.59211
-0.00884002
-8.52695
0.00113591
-8.56602
0.003763
-7.56776
0.00800642
-5.49797
-2.23695
0.0269646
-9.85061
-0.0233498
-9.45212
-0.0577528
-9.50053
-0.0826157
-9.21235
-0.096839
-9.23075
-0.10599
-9.04215
-0.107404
-9.02086
-0.104486
-8.93059
-0.0993601
-8.88806
-0.0935909
-8.83137
-0.0861544
-8.77459
-0.0761151
-8.67105
-0.0643366
-8.6524
-0.052646
-8.58009
-0.0386651
-8.60609
-0.0275996
-8.53802
-0.0135429
-8.58008
-0.00473387
-7.57657
0.00541981
-5.50813
-2.23153
-0.0487469
-9.76935
-0.0981041
-9.40277
-0.129317
-9.46932
-0.151366
-9.1903
-0.162065
-9.22005
-0.167304
-9.03691
-0.166036
-9.02213
-0.159303
-8.93732
-0.150473
-8.89689
-0.141805
-8.84004
-0.130213
-8.78618
-0.11544
-8.68583
-0.0989917
-8.66885
-0.0822916
-8.59679
-0.062728
-8.62566
-0.0464307
-8.55432
-0.0278121
-8.5987
-0.0125209
-7.59186
0.00224963
-5.5229
-2.22928
-0.11547
-9.68302
-0.16997
-9.34827
-0.201627
-9.43766
-0.221755
-9.17017
-0.230794
-9.21101
-0.233338
-9.03437
-0.22717
-9.0283
-0.216477
-8.94802
-0.203065
-8.9103
-0.189019
-8.85409
-0.173022
-8.80218
-0.153875
-8.70497
-0.13214
-8.69058
-0.110505
-8.61842
-0.085969
-8.65019
-0.0649923
-8.57529
-0.0421074
-8.62158
-0.0204343
-7.61354
-7.41125e-05
-5.54326
-2.22935
-0.182426
-9.59671
-0.237376
-9.29332
-0.268821
-9.40622
-0.287907
-9.15108
-0.293763
-9.20515
-0.292726
-9.03541
-0.284135
-9.03689
-0.27002
-8.96213
-0.253246
-8.92707
-0.236214
-8.87112
-0.215786
-8.8226
-0.192266
-8.72849
-0.166203
-8.71665
-0.139781
-8.64484
-0.109836
-8.68014
-0.083826
-8.6013
-0.0562885
-8.64912
-0.0283439
-7.64148
-0.00289367
-5.56871
-2.23225
-0.251095
-9.50354
-0.308842
-9.23557
-0.340168
-9.37489
-0.35704
-9.13421
-0.361077
-9.20111
-0.357156
-9.03933
-0.344207
-9.04984
-0.326002
-8.98034
-0.304429
-8.94864
-0.281963
-8.89359
-0.257022
-8.84755
-0.22965
-8.75586
-0.19866
-8.74764
-0.167634
-8.67587
-0.133017
-8.71475
-0.102473
-8.63185
-0.0706226
-8.68097
-0.0362284
-7.67588
-0.0050621
-5.59987
-2.23731
-0.313252
-9.40976
-0.374516
-9.17431
-0.405458
-9.34395
-0.421293
-9.11838
-0.422181
-9.20023
-0.41479
-9.04672
-0.399435
-9.06519
-0.378105
-9.00167
-0.353537
-8.97321
-0.328111
-8.91901
-0.298524
-8.87713
-0.266428
-8.78796
-0.231499
-8.78257
-0.196368
-8.711
-0.156667
-8.75446
-0.121312
-8.6672
-0.0849266
-8.71736
-0.0441975
-7.71661
-0.00734938
-5.63672
-2.24466
-0.381956
-9.30279
-0.442118
-9.11415
-0.473824
-9.31224
-0.487923
-9.10428
-0.486955
-9.2012
-0.476477
-9.0572
-0.457191
-9.08448
-0.432097
-9.02676
-0.403123
-9.00218
-0.372642
-8.94949
-0.338574
-8.9112
-0.302546
-8.82399
-0.262873
-8.82224
-0.223666
-8.75021
-0.179631
-8.79849
-0.139592
-8.70724
-0.0990914
-8.75786
-0.0519905
-7.76371
-0.00915486
-5.67956
-2.25381
-0.43923
-9.19331
-0.506588
-9.04679
-0.537211
-9.28162
-0.549738
-9.09175
-0.54565
-9.20528
-0.532081
-9.07076
-0.510542
-9.10602
-0.482567
-9.05474
-0.450719
-9.03403
-0.417195
-8.98302
-0.378787
-8.94961
-0.338267
-8.86451
-0.294619
-8.86589
-0.251744
-8.79308
-0.203036
-8.8472
-0.15791
-8.75237
-0.112984
-8.80278
-0.0596113
-7.81708
-0.0109227
-5.72825
-2.26474
-0.504569
-9.07846
-0.569465
-8.98189
-0.602128
-9.24896
-0.612979
-9.0809
-0.607075
-9.21119
-0.590463
-9.08738
-0.565224
-9.13126
-0.533841
-9.08612
-0.498049
-9.06983
-0.45996
-9.02111
-0.417285
-8.99228
-0.372942
-8.90885
-0.324639
-8.91419
-0.278135
-8.83959
-0.225493
-8.89984
-0.175713
-8.80215
-0.126727
-8.85177
-0.0671582
-7.87665
-0.0125074
-5.7829
-2.27724
-0.560243
-8.95528
-0.631736
-8.9104
-0.662486
-9.21821
-0.671824
-9.07156
-0.662819
-9.22019
-0.643514
-9.10668
-0.616381
-9.15839
-0.582491
-9.12001
-0.543975
-9.10834
-0.502957
-9.06212
-0.45619
-9.03905
-0.407324
-8.95772
-0.354984
-8.96653
-0.305066
-8.8895
-0.248229
-8.95668
-0.193444
-8.85693
-0.139901
-8.90531
-0.0743016
-7.94225
-0.0138961
-5.8433
-2.29114
-0.622844
-8.83235
-0.691615
-8.84163
-0.723569
-9.18625
-0.731017
-9.06411
-0.720531
-9.23068
-0.698145
-9.12907
-0.667622
-9.18891
-0.630604
-9.15703
-0.588341
-9.1506
-0.543573
-9.10689
-0.493278
-9.08935
-0.440758
-9.01024
-0.383406
-9.02388
-0.329785
-8.94313
-0.269913
-9.01655
-0.210916
-8.91593
-0.152787
-8.96344
-0.0810028
-8.01403
-0.0147341
-5.90957
-2.30587
-0.677001
-8.69876
-0.751354
-8.76727
-0.780811
-9.1568
-0.786504
-9.05842
-0.773217
-9.24397
-0.748479
-9.15381
-0.715948
-9.22144
-0.676809
-9.19617
-0.631979
-9.19544
-0.583958
-9.15491
-0.530143
-9.14316
-0.473485
-9.06689
-0.412262
-9.08511
-0.355398
-8.99999
-0.292311
-9.07964
-0.228769
-8.97947
-0.165239
-9.02697
-0.0873499
-8.09192
-0.0151928
-5.98173
-2.32107
-0.735527
-8.56837
-0.80762
-8.69518
-0.837913
-9.1265
-0.841453
-9.05488
-0.826795
-9.25862
-0.799064
-9.18154
-0.763539
-9.25697
-0.721457
-9.23825
-0.673254
-9.24364
-0.622399
-9.20577
-0.565381
-9.20018
-0.50531
-9.12696
-0.439349
-9.15107
-0.378712
-9.06063
-0.313068
-9.14528
-0.245617
-9.04692
-0.177
-9.09559
-0.0930725
-8.17585
-0.0152094
-6.05959
-2.33628
-0.792177
-8.42505
-0.866454
-8.6209
-0.892183
-9.10077
-0.893401
-9.05366
-0.876291
-9.27573
-0.846517
-9.21131
-0.808872
-9.29462
-0.764679
-9.28244
-0.713726
-9.29459
-0.659365
-9.26013
-0.599664
-9.25988
-0.536537
-9.19009
-0.467039
-9.22056
-0.402859
-9.12481
-0.333776
-9.21436
-0.26213
-9.11857
-0.188588
-9.16913
-0.0986863
-8.26575
-0.0149813
-6.1433
-2.35126
-0.84162
-8.29184
-0.920613
-8.54191
-0.947923
-9.07346
-0.947307
-9.05428
-0.927946
-9.2951
-0.894845
-9.24441
-0.853924
-9.33554
-0.806564
-9.3298
-0.752383
-9.34877
-0.695352
-9.31716
-0.632089
-9.32314
-0.566138
-9.25604
-0.493089
-9.29361
-0.425046
-9.19285
-0.353553
-9.28586
-0.27885
-9.19327
-0.200229
-9.24775
-0.105606
-8.36037
-0.0160532
-6.23285
-2.36731
-0.884523
-8.14863
-0.96591
-8.46053
-0.993719
-9.04566
-0.991082
-9.05691
-0.971458
-9.31472
-0.937307
-9.27856
-0.895002
-9.37784
-0.845765
-9.37904
-0.78936
-9.40518
-0.729168
-9.37735
-0.663633
-9.38868
-0.594532
-9.32514
-0.518826
-9.36932
-0.447196
-9.26448
-0.373503
-9.35955
-0.295316
-9.27146
-0.210798
-9.33227
-0.111676
-8.45949
-0.0157947
-6.32873
-2.38311
6.73079
-7.61906
-7.26036
6.07625
-7.80598
5.30676
-8.27616
4.65896
-8.40912
4.01723
-8.67298
3.47097
-8.73231
2.98952
-8.89639
2.54144
-8.93096
2.14969
-9.01343
1.79906
-9.02672
1.48777
-9.07739
1.24471
-9.08209
1.01685
-9.14145
0.854652
-9.10228
0.667709
-9.17261
0.541897
-9.14565
0.375612
-9.16599
0.281203
-8.36509
0.184279
-6.23181
-2.19883
3.71386
-7.46304
-3.86989
3.53851
-7.63063
3.23815
-7.97581
2.97248
-8.14345
2.65124
-8.35174
2.37264
-8.45371
2.07427
-8.59802
1.81189
-8.66858
1.56286
-8.7644
1.34967
-8.81353
1.15541
-8.88313
0.988044
-8.91472
0.817661
-8.97107
0.696065
-8.98069
0.5599
-9.03644
0.454671
-9.04042
0.305269
-9.01658
0.214889
-8.27471
-0.0387018
-5.97821
-2.23753
2.42018
-7.52371
-2.35951
2.48551
-7.69596
2.41837
-7.90867
2.31927
-8.04434
2.15931
-8.19178
2.00264
-8.29704
1.81888
-8.41426
1.64619
-8.49589
1.46639
-8.58461
1.29855
-8.64569
1.12966
-8.71424
0.970258
-8.75532
0.807058
-8.80787
0.672247
-8.84588
0.528728
-8.89292
0.411067
-8.92275
0.305906
-8.91142
0.206711
-8.17551
0.0282766
-5.79978
-2.20925
1.3942
-7.66489
-1.25302
1.48139
-7.78315
1.4794
-7.90668
1.44828
-8.01323
1.37849
-8.12199
1.2975
-8.21605
1.19858
-8.31534
1.09595
-8.39326
0.98112
-8.46978
0.871438
-8.53601
0.755227
-8.59803
0.651168
-8.65126
0.548902
-8.70561
0.450496
-8.74747
0.356076
-8.7985
0.275934
-8.84261
0.169688
-8.80518
0.116519
-8.12234
0.0709674
-5.75423
-2.13828
0.782857
-7.78065
-0.667091
0.871198
-7.87149
0.931157
-7.96664
0.960924
-8.043
0.948562
-8.10963
0.918436
-8.18592
0.8642
-8.2611
0.804431
-8.33349
0.731893
-8.39724
0.6536
-8.45771
0.569678
-8.51411
0.485363
-8.56694
0.395661
-8.6159
0.313628
-8.66544
0.231356
-8.71623
0.14777
-8.75903
0.0662613
-8.72367
0.0430034
-8.09908
0.048268
-5.75949
-2.09002
0.36127
-7.89526
-0.246667
0.445333
-7.95555
0.487924
-8.00923
0.502576
-8.05765
0.49658
-8.10363
0.481742
-8.17108
0.451043
-8.2304
0.409929
-8.29237
0.36403
-8.35134
0.311659
-8.40534
0.254863
-8.45731
0.193744
-8.50583
0.133103
-8.55526
0.0730471
-8.60538
0.00682532
-8.65001
-0.0551242
-8.69708
-0.106427
-8.67236
-0.0813834
-8.12413
0.0205415
-5.86142
-2.06947
0.0606332
-7.96567
0.0097795
0.108125
-8.00305
0.138528
-8.03963
0.171026
-8.09015
0.195117
-8.12772
0.198574
-8.17454
0.19401
-8.22584
0.17406
-8.27242
0.141115
-8.31839
0.0999675
-8.36419
0.0532478
-8.41059
0.00128625
-8.45386
-0.0515197
-8.50245
-0.111804
-8.5451
-0.169582
-8.59223
-0.227708
-8.63895
-0.268073
-8.632
-0.213587
-8.17861
-0.0292734
-6.04573
-2.09875
-0.118169
-8.02523
0.177725
-0.071595
-8.04962
-0.0362565
-8.07497
-0.0182203
-8.10818
-0.00942986
-8.13651
-0.0185159
-8.16546
-0.0374472
-8.2069
-0.0618584
-8.24801
-0.091173
-8.28908
-0.129412
-8.32596
-0.172192
-8.36781
-0.218071
-8.40798
-0.267823
-8.4527
-0.319162
-8.49376
-0.370364
-8.54103
-0.42217
-8.58715
-0.458921
-8.59525
-0.397032
-8.2405
-0.124965
-6.3178
-2.22371
-0.242493
-8.05577
0.273033
-0.221167
-8.07095
-0.206703
-8.08944
-0.200594
-8.11429
-0.195627
-8.14148
-0.192705
-8.16838
-0.200318
-8.19929
-0.219459
-8.22887
-0.248104
-8.26043
-0.283564
-8.2905
-0.323615
-8.32776
-0.371492
-8.36011
-0.42458
-8.39961
-0.485
-8.43334
-0.546675
-8.47935
-0.613935
-8.51989
-0.666498
-8.54269
-0.619506
-8.28749
-0.27164
-6.66567
-2.49535
-0.312289
-8.07691
0.333436
-0.295712
-8.08752
-0.283634
-8.10151
-0.279381
-8.11855
-0.282941
-8.13792
-0.295511
-8.15581
-0.313534
-8.18127
-0.341875
-8.20053
-0.37723
-8.22508
-0.4183
-8.24943
-0.46549
-8.28057
-0.519178
-8.30642
-0.578555
-8.34024
-0.645637
-8.36626
-0.720693
-8.4043
-0.802125
-8.43845
-0.872686
-8.47212
-0.861745
-8.29843
-0.488939
-7.03847
-2.98429
-0.346637
-8.08255
0.352269
-0.344165
-8.08999
-0.345085
-8.10059
-0.351715
-8.11192
-0.36267
-8.12696
-0.378692
-8.13979
-0.404844
-8.15512
-0.435871
-8.1695
-0.469762
-8.19119
-0.508656
-8.21053
-0.556578
-8.23264
-0.6114
-8.2516
-0.678806
-8.27283
-0.754891
-8.29017
-0.843423
-8.31577
-0.95101
-8.33087
-1.06298
-8.36015
-1.08428
-8.27714
-0.761394
-7.36136
-3.74569
-0.358502
-8.08176
0.357714
-0.362178
-8.08632
-0.367982
-8.09479
-0.377311
-8.10259
-0.390544
-8.11373
-0.408088
-8.12224
-0.429931
-8.13327
-0.458455
-8.14098
-0.495307
-8.15434
-0.53882
-8.16702
-0.5917
-8.17976
-0.651713
-8.19159
-0.721395
-8.20315
-0.796562
-8.215
-0.888736
-8.22359
-0.991633
-8.22797
-1.12654
-8.22524
-1.2204
-8.18328
-0.988929
-7.59283
-4.73462
-0.341537
-8.07404
0.333821
-0.351302
-8.07655
-0.363596
-8.0825
-0.379102
-8.08708
-0.39773
-8.0951
-0.41942
-8.10055
-0.444581
-8.10811
-0.47073
-8.11483
-0.501725
-8.12334
-0.53934
-8.12941
-0.583069
-8.13604
-0.634504
-8.14015
-0.693238
-8.14442
-0.764286
-8.14396
-0.847463
-8.14042
-0.938258
-8.13717
-1.04705
-8.11646
-1.13956
-8.09076
-0.959995
-7.7724
-5.69461
-0.290337
-8.06449
0.280785
-0.300823
-8.06607
-0.313095
-8.07022
-0.327547
-8.07263
-0.344821
-8.07783
-0.363684
-8.08169
-0.384311
-8.08748
-0.409091
-8.09005
-0.437161
-8.09527
-0.471514
-8.09505
-0.508517
-8.09903
-0.553188
-8.09548
-0.601233
-8.09637
-0.657812
-8.08738
-0.715336
-8.08289
-0.788358
-8.06415
-0.865267
-8.03955
-0.934832
-8.0212
-0.818161
-7.88907
-6.51277
-0.23194
-8.05522
0.222671
-0.242754
-8.05525
-0.255899
-8.05708
-0.269899
-8.05863
-0.28699
-8.06074
-0.306605
-8.06207
-0.328653
-8.06544
-0.352501
-8.0662
-0.378454
-8.06932
-0.404861
-8.06865
-0.43312
-8.07077
-0.462598
-8.066
-0.495765
-8.0632
-0.529639
-8.0535
-0.565673
-8.04686
-0.600527
-8.0293
-0.627374
-8.0127
-0.66534
-7.98323
-0.616858
-7.93755
-7.12963
-0.177643
-8.04404
0.166458
-0.188107
-8.04479
-0.199371
-8.04581
-0.210954
-8.04705
-0.222771
-8.04892
-0.236613
-8.04823
-0.252602
-8.04945
-0.27027
-8.04854
-0.28963
-8.04996
-0.309787
-8.04849
-0.331075
-8.04949
-0.350944
-8.04613
-0.369645
-8.0445
-0.385158
-8.03799
-0.397423
-8.03459
-0.406596
-8.02012
-0.406302
-8.01299
-0.407716
-7.98182
-0.376959
-7.96831
-7.50659
-0.122548
-8.03376
0.112274
-0.132883
-8.03446
-0.143708
-8.03499
-0.156303
-8.03445
-0.169967
-8.03526
-0.182824
-8.03538
-0.19587
-8.0364
-0.208648
-8.03576
-0.222159
-8.03645
-0.235678
-8.03497
-0.250427
-8.03474
-0.264586