/*--------------------------------*- C++ -*----------------------------------*\
  =========                 |
  \\      /  F ield         | OpenFOAM: The Open Source CFD Toolbox
   \\    /   O peration     | Website:  https://openfoam.org
    \\  /    A nd           | Version:  9
     \\/     M anipulation  |
\*---------------------------------------------------------------------------*/
FoamFile
{
    format      ascii;
    class       volScalarField;
    location    "2.4";
    object      nut;
}
// * * * * * * * * * * * * * * * * * * * * * * * * * * * * * * * * * * * * * //

dimensions      [0 2 -1 0 0 0 0];

internalField   nonuniform List<scalar> 
46400
(
0.0179849
0.00683804
0.00201162
0.00127171
0.00132311
0.00127132
0.00117741
0.00117021
0.00109966
0.00107108
0.00102851
0.000990769
0.00095207
0.000933531
0.000911082
0.000899333
0.000858978
0.000804718
0.00114961
0.000940423
0.0176732
0.00562331
0.00139619
0.0013074
0.00125487
0.00124242
0.00119481
0.00119613
0.0011256
0.00108619
0.00105247
0.00101096
0.000974246
0.000939687
0.00090249
0.000880021
0.000811615
0.000727657
0.000992377
0.000910862
0.0173524
0.0048749
0.00125018
0.00139498
0.00132782
0.00131083
0.00120686
0.00120593
0.00114409
0.00110763
0.001067
0.00102937
0.000989616
0.000959762
0.000931937
0.000913591
0.000852721
0.000798111
0.00109272
0.000933451
0.0169434
0.00387181
0.00117117
0.00140526
0.0012744
0.00128619
0.00122385
0.00121642
0.00116056
0.00111248
0.00108177
0.00104383
0.00100692
0.000971785
0.000937976
0.000918115
0.000871719
0.000802562
0.00111842
0.00101505
0.0164368
0.00392718
0.00126563
0.00146838
0.00135926
0.00134163
0.0012442
0.00123493
0.00118609
0.00114367
0.00110059
0.00106691
0.00103216
0.000998151
0.000973775
0.000943351
0.000887554
0.000847201
0.00113872
0.00100557
0.0158425
0.00480824
0.00132518
0.00148145
0.00134078
0.00134321
0.00126758
0.00123881
0.00119857
0.00114648
0.001115
0.00107368
0.00104541
0.00101243
0.000989136
0.000980071
0.000917701
0.000851718
0.00117041
0.00107685
0.0153175
0.00440327
0.00141901
0.00153671
0.00141135
0.00137648
0.00129225
0.00125308
0.0012123
0.00117049
0.00112667
0.00109019
0.00105369
0.0010198
0.000991536
0.000973173
0.000937219
0.000848367
0.0011172
0.00105816
0.0142499
0.00393811
0.00140846
0.00151756
0.00139284
0.00137652
0.00130843
0.00125573
0.00121691
0.00116599
0.0011394
0.00109284
0.00107045
0.00103774
0.00101851
0.00100157
0.000961427
0.000906913
0.00111679
0.00106183
0.0130201
0.00320942
0.00146007
0.00153672
0.00143159
0.00137324
0.00132783
0.00126153
0.00121707
0.00117043
0.00113405
0.001092
0.00104297
0.00100888
0.000980178
0.000968916
0.000938352
0.000895254
0.001101
0.00102547
0.010409
0.00252708
0.00147072
0.00145999
0.00141639
0.00135539
0.00132136
0.00127471
0.00122301
0.00116535
0.00115285
0.00112577
0.00110061
0.00104742
0.00101194
0.000973799
0.000935548
0.000891797
0.00107075
0.00104941
0.00852015
0.00215588
0.00150202
0.00145338
0.00141647
0.00135114
0.00132004
0.00127356
0.00123693
0.00114516
0.00108961
0.00106953
0.00105633
0.00104721
0.00101842
0.000993202
0.000935724
0.000883205
0.00100158
0.000965049
0.00682137
0.00185229
0.00149762
0.00143478
0.00140237
0.00132845
0.00131016
0.00128752
0.0012867
0.00124016
0.00115119
0.00107696
0.00104095
0.00101085
0.00101255
0.00100202
0.000986325
0.000948479
0.00106516
0.00101251
0.00576314
0.00170099
0.00150606
0.00142872
0.00141821
0.00132828
0.00126647
0.00122092
0.00122895
0.00122519
0.00121064
0.00113292
0.00106588
0.00100041
0.000948583
0.000929947
0.000891974
0.00087245
0.000980664
0.000967735
0.00486393
0.00162044
0.00152026
0.00146172
0.0014356
0.00136341
0.0013206
0.00122239
0.00119858
0.0011867
0.00119368
0.00119666
0.00115586
0.00111821
0.00105414
0.00100197
0.000942265
0.000878315
0.000934669
0.000889065
0.00435326
0.00158704
0.00150179
0.00141243
0.00145608
0.00135757
0.00131405
0.00124815
0.00115729
0.00112222
0.00108712
0.0010884
0.00109262
0.00108194
0.00108466
0.0010549
0.00103419
0.000980446
0.00104347
0.000974599
0.00426267
0.0016426
0.00153196
0.00141301
0.0014432
0.00145629
0.00139376
0.0013544
0.00128233
0.00119716
0.00114093
0.00106766
0.00104434
0.000998648
0.000990056
0.000968208
0.000950248
0.000913847
0.000978503
0.000936399
0.00364792
0.00158287
0.00145646
0.00134067
0.00126214
0.00127732
0.00131397
0.00128078
0.00130334
0.0012503
0.00123437
0.00117793
0.00113966
0.00109378
0.00105254
0.00102321
0.000983092
0.000939451
0.000978622
0.000930627
0.00379392
0.00179158
0.00170556
0.00152672
0.00139469
0.00126455
0.00123898
0.00118625
0.00116781
0.00114202
0.00112227
0.0011022
0.00107847
0.00105378
0.00102689
0.00100466
0.00097298
0.000927022
0.000977432
0.000912708
0.00266439
0.0013475
0.00152449
0.00152062
0.00152803
0.00142329
0.00137
0.00130566
0.00125836
0.00120627
0.00116587
0.00112284
0.00109365
0.00105637
0.00103201
0.00100081
0.000972744
0.00091351
0.000955221
0.000896444
0.00070807
0.000602658
0.00126775
0.00121728
0.00137661
0.0012912
0.00131578
0.0012424
0.00124731
0.0011894
0.00117735
0.00112423
0.00110513
0.00105768
0.00103832
0.00100087
0.000977298
0.000915388
0.000964537
0.00088749
0.000860229
9.63362e-05
0.00358737
0.00794754
0.0106263
0.00835528
0.00421022
0.00153714
0.000446638
4.5987e-05
0.000113817
0.000203773
0.000280149
0.000117551
0.000117847
0.000196267
0.000213607
0.000202699
0.000169776
0.000233886
0.000154285
0.00156913
0.00617995
0.0102977
0.00942505
0.00536289
0.00211585
0.000554208
5.39341e-05
0.000116368
0.000205409
0.000288439
0.00020361
0.000161722
0.000212219
0.000228128
0.000184155
0.000199326
0.000209122
0.000264687
5.81013e-05
0.00389923
0.00879841
0.0107472
0.00720414
0.00302473
0.000800501
7.40251e-05
0.000135
0.000249955
0.0002924
0.000200968
0.000181605
0.000237969
0.000220857
0.000190124
0.000203228
0.000273227
0.000258701
0.000281957
0.000862917
0.00661628
0.0105484
0.00947796
0.00494452
0.00138013
0.000128842
9.36982e-05
0.00026867
0.000325765
0.000261955
0.000239834
0.000253084
0.000239304
0.000214609
0.00025317
0.000279036
0.00029491
0.000243222
0.000294579
0.00205157
0.00863093
0.0112335
0.00772525
0.0026623
0.000411168
0.000137176
0.000273032
0.000339598
0.000305814
0.000280049
0.000281403
0.000234778
0.000270987
0.000263983
0.00028663
0.000276439
0.000285772
0.000280575
0.000342415
0.00256237
0.00991965
0.0109328
0.00584261
0.00120804
0.000166119
0.00025304
0.000355891
0.000373741
0.000334438
0.000323692
0.000285755
0.000311955
0.000318542
0.000275482
0.000325127
0.000319294
0.000354288
0.000334215
0.00036433
0.00510202
0.0111221
0.00979067
0.0035953
0.000306138
0.000170928
0.000372878
0.000419913
0.00040808
0.000381878
0.00034763
0.000358038
0.000326263
0.000329574
0.000333208
0.000379168
0.000335498
0.000366158
0.000356447
0.000397907
0.00719329
0.0116725
0.00867635
0.00178884
0.000253708
0.00036305
0.000485409
0.000519729
0.000459824
0.00042467
0.000414679
0.000371711
0.000391382
0.000403281
0.000369408
0.000403774
0.000362653
0.000441409
0.000419933
0.000421594
0.00958179
0.0119399
0.00751322
0.000733141
0.000260566
0.000551663
0.000608342
0.000529504
0.000517428
0.000494496
0.000451346
0.000458749
0.000435889
0.000415434
0.000420573
0.000462932
0.000407325
0.000472944
0.0004252
0.000434967
0.0121213
0.0117705
0.00546551
0.000402326
0.00043706
0.000622745
0.000646056
0.000642565
0.000589795
0.000543101
0.000524919
0.000480376
0.000487147
0.000495556
0.000473655
0.000484693
0.000436499
0.000531719
0.0004771
0.000468653
0.01396
0.0117398
0.00386413
0.00022288
0.000661674
0.000777129
0.000747244
0.000673669
0.00063723
0.000611574
0.000564227
0.000566034
0.000545015
0.000512742
0.000515873
0.000540685
0.000493258
0.000558039
0.000483846
0.000495588
0.0153972
0.0112874
0.00237247
0.000239958
0.00074386
0.000783186
0.000770017
0.000760723
0.000710846
0.000663174
0.000637315
0.0005934
0.000589118
0.000592295
0.000574896
0.000564205
0.000531177
0.000605635
0.000509455
0.000530313
0.0160752
0.0109947
0.00166031
0.000428291
0.00089835
0.000895942
0.000884605
0.000800358
0.00075525
0.000727821
0.000676832
0.000673004
0.000649546
0.000614204
0.000614068
0.000623823
0.000591714
0.000630514
0.000506375
0.000552032
0.0167913
0.0105212
0.0010752
0.000565904
0.000984024
0.000880119
0.000902127
0.000879117
0.000822467
0.000779753
0.000746128
0.000702403
0.000691134
0.000688145
0.000666487
0.000645131
0.00062838
0.000671346
0.000524122
0.000587306
0.0174476
0.010175
0.00110583
0.000771309
0.00109726
0.00100236
0.000995495
0.000918117
0.000866375
0.000838847
0.000785605
0.000774949
0.000745917
0.00071245
0.000708245
0.000702152
0.000685024
0.00069037
0.000519275
0.00061574
0.0177078
0.00970829
0.0018594
0.000893605
0.00111846
0.000989607
0.0010148
0.000990367
0.000924036
0.000888713
0.000848683
0.000805448
0.000791035
0.000782007
0.000751593
0.000726051
0.000734993
0.000736126
0.000531698
0.000654163
0.0181435
0.00940578
0.00218675
0.00105458
0.00120564
0.00110896
0.00108338
0.00102397
0.000964257
0.000938865
0.000886401
0.000866916
0.000832933
0.000806532
0.000794405
0.000773254
0.000777716
0.000752893
0.000524694
0.000682342
0.0181365
0.00907224
0.00219802
0.00106299
0.00121487
0.00107741
0.00109853
0.00108462
0.00100971
0.000981709
0.000940217
0.000898286
0.000882306
0.000868454
0.000830899
0.000806793
0.000834247
0.000805633
0.000541194
0.000728198
0.0182877
0.0086346
0.00216292
0.00115278
0.00129449
0.00120176
0.00114109
0.00111324
0.00104553
0.00102186
0.000975287
0.00094665
0.000911714
0.000894968
0.000874477
0.000850343
0.000864704
0.000856221
0.000563144
0.000700905
0.0181044
0.00769953
0.00188809
0.00117514
0.00124992
0.00117092
0.00115805
0.00115779
0.00108281
0.00105577
0.00102056
0.000983754
0.000967798
0.000953176
0.000922773
0.000932122
0.000936307
0.000935343
0.000735033
0.000793423
0.00219681
0.00173635
0.00170062
0.00153864
0.00172098
0.0015249
0.00146419
0.0013894
0.00133274
0.00126965
0.00117293
0.00111298
0.00101047
0.000955226
0.000864365
0.000831901
0.000965393
0.00400014
0.00994448
0.0226722
0.00233149
0.00183704
0.00187646
0.00156456
0.00162937
0.00156348
0.00158909
0.00145797
0.00132913
0.0012487
0.00114972
0.00108896
0.000970301
0.00091632
0.000817986
0.000776824
0.000944843
0.00409502
0.00997773
0.0224093
0.00236035
0.00182833
0.00182202
0.00159247
0.0017388
0.001506
0.00144853
0.00138079
0.00131665
0.00125534
0.00115706
0.00109885
0.000993985
0.000941787
0.000847517
0.000821972
0.000963101
0.00412217
0.0100157
0.0222499
0.0025055
0.00194161
0.00198881
0.00161837
0.00165586
0.00154777
0.00156684
0.00145086
0.00131649
0.00123636
0.00113509
0.00107718
0.000957513
0.000904624
0.000802523
0.000768125
0.000941143
0.0041999
0.0100459
0.0220016
0.00245486
0.00191035
0.00196703
0.00166654
0.00173668
0.00149335
0.00143893
0.00138068
0.00130432
0.00124417
0.00114362
0.00108759
0.000981201
0.000931589
0.00083391
0.000814144
0.000961981
0.0042154
0.0100818
0.0218472
0.00267784
0.00205248
0.00212196
0.00166773
0.00166495
0.00154864
0.00155161
0.00144626
0.00130446
0.00122698
0.00112275
0.00106762
0.000947982
0.000896515
0.000790643
0.000761608
0.000939225
0.00427503
0.0101097
0.0216152
0.00267629
0.00202909
0.00212997
0.00171917
0.00172186
0.00150775
0.00143912
0.00138355
0.00129329
0.00123604
0.00113222
0.00107876
0.000972334
0.000925094
0.000823829
0.000807429
0.000963634
0.0042774
0.0101439
0.0214683
0.00303031
0.00221889
0.0022542
0.00169066
0.00168167
0.00157712
0.00154009
0.00143813
0.00129176
0.00122067
0.00111235
0.00106026
0.000942011
0.000892114
0.000782648
0.000756222
0.000940879
0.00431811
0.01017
0.0212536
0.00313703
0.00222119
0.00228671
0.0017448
0.00170897
0.00154299
0.00144751
0.00138535
0.00128261
0.00122959
0.00112226
0.00107218
0.000966968
0.000922129
0.000817377
0.00080118
0.000965021
0.00430499
0.0102026
0.0211168
0.00356342
0.0024309
0.00236112
0.00169693
0.00171884
0.00163139
0.00153265
0.00142374
0.00127854
0.00121501
0.0011038
0.00105439
0.000939156
0.000891463
0.000778959
0.000751407
0.000941768
0.00433053
0.0102232
0.0209209
0.00372666
0.00243658
0.00239913
0.00176583
0.00171826
0.00158652
0.00145411
0.00138327
0.00127319
0.00122234
0.00111377
0.00106639
0.000964547
0.000922844
0.000815468
0.000795008
0.000960687
0.00430137
0.0102607
0.0207946
0.00392379
0.00263095
0.00243081
0.00172926
0.00177055
0.00168456
0.00152961
0.00140812
0.00126538
0.00120713
0.0010969
0.00104959
0.00093898
0.000894573
0.000780508
0.000746522
0.000936975
0.00430357
0.0102722
0.02062
0.0040287
0.00260931
0.00244951
0.00180804
0.00175029
0.00162638
0.00145399
0.00137546
0.00126412
0.00121205
0.00110645
0.00106121
0.000964006
0.000926738
0.000818097
0.000788848
0.000954184
0.00426032
0.0103174
0.020503
0.00428135
0.00275214
0.00247224
0.00181218
0.00181673
0.00171629
0.0015297
0.00139842
0.00125436
0.00119643
0.00109106
0.00104552
0.000940593
0.000901086
0.000786887
0.000742834
0.000930128
0.00424796
0.0103214
0.0203521
0.00438743
0.00271504
0.00245936
0.00188078
0.00178501
0.00165277
0.00144918
0.00136278
0.00125273
0.00119851
0.00109927
0.00105622
0.00096436
0.000933212
0.000824997
0.000784975
0.000946698
0.00418879
0.0103601
0.0202625
0.00465297
0.00281535
0.00249498
0.00191812
0.00183035
0.00172439
0.00153068
0.00139206
0.00124385
0.00118211
0.00108446
0.00104078
0.00094238
0.000909691
0.000797504
0.000741871
0.000924423
0.00414071
0.0103492
0.0201277
0.0048434
0.0028054
0.00247783
0.00197538
0.00179859
0.00166547
0.00145106
0.00135484
0.00124252
0.00118472
0.00109282
0.00105208
0.000965754
0.00094231
0.000835732
0.000785529
0.00094169
0.00409784
0.0103969
0.0200101
0.00498495
0.00282942
0.00249527
0.00201217
0.00181205
0.00172795
0.00154395
0.00139655
0.00124068
0.00117269
0.00108218
0.00104162
0.000948877
0.000924542
0.000816117
0.000751655
0.000919177
0.00402877
0.0104247
0.0199991
0.00491149
0.00286345
0.00245369
0.00203024
0.00175688
0.00164286
0.00144771
0.00133375
0.00121378
0.00115513
0.00107571
0.00103957
0.000960431
0.000947134
0.000851276
0.000786435
0.000957344
0.00394742
0.0104166
0.0198319
0.00564276
0.0031007
0.00257181
0.00206571
0.00174632
0.00170498
0.00156739
0.00141679
0.00125481
0.00117925
0.00109241
0.00104867
0.00095774
0.000939407
0.000834345
0.00076047
0.000914316
0.003711
0.0101337
0.01927
0.0164759
0.0320973
0.015815
0.023512
0.020074
0.0181967
0.0157849
0.0142204
0.0128275
0.011937
0.0110432
0.0105768
0.0100228
0.0100371
0.00954018
0.00970663
0.0108238
0.0348499
0.0969524
0.170044
0.0323567
0.023228
0.0203062
0.0185469
0.0167825
0.0145608
0.0131907
0.012068
0.010932
0.00986814
0.00932638
0.00939702
0.00894235
0.00821287
0.00786858
0.00657942
0.0112142
0.0405024
0.0958231
0.156782
0.0156062
0.0149006
0.0155888
0.01319
0.0118893
0.011101
0.0106225
0.00982577
0.00899719
0.00849419
0.00812484
0.00779827
0.0073974
0.007263
0.00707365
0.00668283
0.0114335
0.0392489
0.0950012
0.153052
0.0131446
0.0117764
0.0100999
0.00971005
0.00961456
0.009067
0.00856614
0.00823683
0.00803233
0.00758454
0.00720421
0.0067128
0.00657171
0.00611168
0.00595386
0.00490519
0.00971916
0.0424459
0.0949165
0.141087
0.0066406
0.00723432
0.00842482
0.00823163
0.00741283
0.00707302
0.00681382
0.00649948
0.00605624
0.00591367
0.00583528
0.00585956
0.00562168
0.00553311
0.00547145
0.004388
0.0104591
0.0409046
0.0948086
0.138601
0.00577096
0.0064694
0.00600702
0.00548092
0.00535495
0.00545427
0.00545251
0.00556051
0.00571399
0.00555821
0.00529411
0.00503007
0.00496332
0.00475648
0.0045852
0.00352754
0.00641669
0.0406911
0.0956249
0.132852
0.00328545
0.00369163
0.00411936
0.00474796
0.00478429
0.00462219
0.00452229
0.00436196
0.00417201
0.00431622
0.00443035
0.00463924
0.00461856
0.00464903
0.00469153
0.00338203
0.00439061
0.0376822
0.096072
0.131323
0.00294054
0.00335168
0.00351584
0.00338292
0.00307463
0.00319134
0.00342184
0.00384018
0.00407424
0.00415118
0.00403811
0.00400252
0.00408819
0.0041781
0.00421034
0.00348441
0.00556107
0.0326079
0.0962367
0.131395
0.0016251
0.00207313
0.00224814
0.00259647
0.00287252
0.00308921
0.00308581
0.00307396
0.00305972
0.00336691
0.00360118
0.00396933
0.00400243
0.00436158
0.00446862
0.00369323
0.00261407
0.0262575
0.0964608
0.136861
0.00167399
0.00175389
0.00189809
0.00199146
0.00194333
0.00207592
0.00229
0.00264975
0.00291698
0.00317839
0.00321213
0.00341815
0.00354698
0.00389486
0.0041116
0.00442188
0.00388241
0.0180991
0.0940303
0.144568
0.000888032
0.00116859
0.00129857
0.00153509
0.00171561
0.00196032
0.00216956
0.00232673
0.00231311
0.00258127
0.00287219
0.00329002
0.00343638
0.00387856
0.00397931
0.00437303
0.00366415
0.012051
0.0882031
0.157352
0.000832248
0.00097872
0.0010777
0.00116821
0.0012273
0.00141688
0.00154196
0.00183987
0.00214486
0.00235017
0.00243802
0.0026855
0.00296841
0.00343212
0.00370227
0.00457467
0.00398306
0.00658523
0.0662922
0.171444
0.000575776
0.000705891
0.00085647
0.00102501
0.00115318
0.00128756
0.00145931
0.00157245
0.00167483
0.00189652
0.00227567
0.00246864
0.00274915
0.0028838
0.00337749
0.00365217
0.00464967
0.00485422
0.0483091
0.19367
0.000508456
0.000624275
0.000638343
0.000771401
0.000834279
0.00100096
0.001041
0.00122835
0.00136272
0.00159476
0.0016961
0.00194372
0.00218265
0.00250028
0.00297275
0.00315498
0.00398972
0.0078361
0.0229662
0.145659
0.000448952
0.000553843
0.000621544
0.000708725
0.000762567
0.000865715
0.00096334
0.0010717
0.00114627
0.00131996
0.00135838
0.0015323
0.00158068
0.00190825
0.00194817
0.00249104
0.00257724
0.00498603
0.0125854
0.098681
0.000313163
0.000411547
0.000449012
0.000519016
0.000553639
0.000633193
0.000698895
0.000808011
0.000843628
0.000930946
0.00105717
0.00126003
0.00135773
0.00154268
0.00165337
0.001898
0.00205572
0.00276484
0.00384161
0.0573067
0.000326605
0.000372161
0.000386793
0.000434412
0.000459173
0.000516322
0.000544793
0.000587236
0.000638059
0.000723307
0.000709891
0.000806684
0.000807214
0.000959002
0.000884375
0.00109637
0.00104353
0.001775
0.00267923
0.0342694
0.000234977
0.000263504
0.00028604
0.000319508
0.000361889
0.000404339
0.000469992
0.000539441
0.00053961
0.000586005
0.00065905
0.000731218
0.000711637
0.000838123
0.000813173
0.000895229
0.000799707
0.000779656
0.000781934
0.0191055
0.00018203
0.000218445
0.000224436
0.000267745
0.000275421
0.000325218
0.000290898
0.000332554
0.000389152
0.000443185
0.000442533
0.000501221
0.00052913
0.000533391
0.00047954
0.000433063
0.000624001
0.000757619
0.00083925
0.00723809
9.84896e-05
0.000139946
0.000134028
0.000187562
0.000183441
0.000274556
0.000292571
0.000367102
0.000370036
0.00044255
0.000449372
0.000529876
0.000531683
0.000611668
0.000635415
0.000735708
0.000735326
0.000516958
0.000629468
0.00446275
0.0138703
0.0138606
0.0138198
0.0137077
0.0137442
0.013617
0.0134522
0.0139544
0.013053
0.0132269
0.0125953
0.0122789
0.0123284
0.011052
0.0111924
0.00992237
0.00974911
0.00914525
0.0091622
0.00777818
0.00702045
0.00700916
0.00695334
0.00697401
0.00684939
0.00679927
0.00684706
0.00660222
0.00666979
0.00660674
0.0064556
0.00779203
0.00698341
0.00662234
0.00615017
0.00669825
0.00661259
0.00655629
0.00671131
0.00747583
0.00436155
0.00437275
0.00441096
0.00444039
0.00444398
0.0045755
0.00445222
0.0046037
0.00452834
0.00450699
0.00467871
0.00429374
0.00402585
0.00411289
0.00405517
0.00425643
0.00383239
0.00399571
0.00351512
0.00380421
0.0027811
0.00277421
0.00277324
0.00274444
0.00275222
0.0027122
0.00268214
0.00265429
0.00264947
0.00268075
0.00244708
0.00264189
0.00267321
0.00282122
0.00274955
0.00286271
0.00273967
0.00301535
0.00278779
0.00302463
0.00175421
0.00175086
0.00175881
0.00175271
0.00175902
0.00175748
0.00176103
0.00185144
0.00182702
0.00180332
0.00197314
0.00190848
0.00185353
0.00191989
0.00188453
0.00196805
0.00185068
0.0019413
0.00181862
0.00178613
0.00125984
0.00125746
0.00126349
0.00125683
0.00126338
0.00125563
0.00126518
0.00127194
0.00123166
0.00127445
0.00122997
0.00123885
0.00125758
0.00133003
0.00132086
0.0013565
0.00130688
0.00145407
0.00136881
0.00126816
0.00078223
0.000782451
0.000784597
0.000785439
0.000787272
0.00078992
0.000795276
0.000802652
0.00080193
0.000807617
0.000813861
0.000838157
0.000856914
0.000909925
0.000888824
0.000902141
0.000905262
0.000977945
0.000876613
0.000736385
0.000570951
0.000571993
0.000574127
0.000577022
0.000580815
0.000586459
0.000588446
0.000591639
0.000591443
0.000598405
0.000598344
0.000626682
0.000642
0.000675233
0.000637955
0.00064525
0.000648065
0.000703741
0.000609179
0.000537583
0.000320364
0.000321585
0.000323166
0.000325998
0.000330717
0.000335502
0.000334642
0.000336914
0.00033787
0.00034452
0.000350585
0.000396483
0.000412171
0.000449583
0.000403881
0.00043012
0.000435213
0.000509746
0.000410904
0.000282242
0.000215713
0.000218297
0.0002208
0.000227112
0.000232483
0.000237421
0.000233107
0.00023443
0.000234591
0.00023886
0.000243464
0.000269273
0.000273367
0.00028007
0.000233525
0.000235915
0.000233247
0.000197772
0.000297248
0.000382438
8.19752e-05
8.42618e-05
8.91481e-05
9.76476e-05
0.000109536
0.000116905
0.000114936
0.000118953
0.000124693
0.000134387
0.000148657
0.000184246
0.000194846
0.000208355
0.000147161
0.000161845
0.000176221
0.000232555
0.000159345
0.000136684
1.7207e-05
2.4974e-05
3.69928e-05
4.67172e-05
5.51026e-05
5.6259e-05
5.30448e-05
6.05489e-05
7.01997e-05
8.46384e-05
9.78975e-05
0.000102811
0.000104633
9.50316e-05
0.000101199
0.000128647
0.000148219
0.0001194
0.000181684
0.000238033
1.37655e-05
2.5795e-05
3.67643e-05
4.82659e-05
5.67001e-05
6.05998e-05
5.21361e-05
4.72463e-05
5.00006e-05
5.59073e-05
5.88541e-05
6.28605e-05
6.50098e-05
8.44656e-05
7.34084e-05
7.60494e-05
8.6123e-05
0.000100892
0.0001079
0.000100344
4.99785e-05
4.96314e-05
4.93849e-05
4.0144e-05
4.91184e-05
3.74229e-05
5.28352e-05
5.14612e-05
6.22842e-05
6.18582e-05
7.31916e-05
8.17507e-05
8.94799e-05
9.0966e-05
0.000108465
8.58726e-05
8.8815e-05
8.32106e-05
0.000102932
0.000100676
5.66236e-05
5.78365e-05
6.07582e-05
6.49062e-05
7.17385e-05
7.37327e-05
6.21592e-05
6.06773e-05
6.09319e-05
6.24974e-05
6.29485e-05
6.1152e-05
6.63312e-05
6.42814e-05
7.5259e-05
8.12757e-05
8.75451e-05
9.04813e-05
9.51377e-05
0.000103938
5.8084e-05
5.74884e-05
6.09884e-05
6.22653e-05
6.55301e-05
6.55736e-05
6.9797e-05
6.94549e-05
7.1943e-05
7.33187e-05
7.69302e-05
7.98282e-05
8.26381e-05
7.57705e-05
7.35372e-05
7.30185e-05
7.68833e-05
7.55569e-05
8.13669e-05
8.37133e-05
5.52098e-05
5.6282e-05
5.52394e-05
6.06175e-05
5.88433e-05
5.26323e-05
5.14512e-05
5.30668e-05
5.42445e-05
5.65938e-05
5.89245e-05
6.12296e-05
6.30746e-05
6.53664e-05
6.77418e-05
6.8531e-05
7.05644e-05
7.15776e-05
7.35743e-05
7.81878e-05
3.78606e-05
3.71676e-05
3.92753e-05
4.23398e-05
4.29022e-05
4.32255e-05
4.53649e-05
4.46975e-05
4.7811e-05
4.5735e-05
4.86748e-05
4.71992e-05
4.75944e-05
4.52756e-05
4.89159e-05
4.76477e-05
5.10259e-05
5.02666e-05
5.28885e-05
5.47632e-05
2.64038e-05
2.69118e-05
2.63067e-05
2.43827e-05
2.20864e-05
2.53556e-05
2.44754e-05
2.76491e-05
2.63665e-05
2.89943e-05
3.03788e-05
3.07076e-05
3.72456e-05
3.53005e-05
3.98271e-05
3.80937e-05
4.03501e-05
4.19111e-05
3.95122e-05
4.59796e-05
7.17289e-06
7.20254e-06
6.55567e-06
8.20798e-06
9.34743e-06
1.06876e-05
1.13765e-05
1.25321e-05
1.291e-05
1.47017e-05
1.46406e-05
1.65117e-05
1.72835e-05
1.83226e-05
1.94828e-05
2.00087e-05
2.09907e-05
2.18735e-05
2.16562e-05
2.63233e-05
0.000943481
0.00114673
0.000805519
0.000859149
0.000899759
0.000909605
0.000933141
0.000951026
0.000985037
0.00102157
0.00106379
0.00109518
0.00116961
0.00117402
0.00126239
0.00131814
0.00126948
0.0020015
0.00678679
0.0179363
0.000909241
0.000989397
0.000730726
0.000810508
0.000879802
0.000901821
0.000937172
0.000971312
0.00100665
0.00104873
0.00108134
0.00112096
0.00119353
0.00119258
0.0012349
0.00125279
0.00130806
0.00138632
0.0055949
0.0176259
0.000933716
0.00108559
0.000794408
0.000849585
0.000911695
0.000929551
0.000959059
0.000989242
0.00102479
0.00106183
0.00110244
0.00114225
0.00120775
0.00120457
0.00130314
0.00132789
0.00139518
0.00124972
0.00483188
0.0173036
0.00101258
0.00111275
0.00080635
0.000874153
0.000920849
0.000940063
0.000972558
0.00100501
0.00103983
0.00108034
0.00110971
0.00115761
0.0012121
0.00121838
0.00127836
0.00127347
0.00140366
0.00116934
0.00384886
0.0168941
0.00100231
0.00113109
0.000845561
0.000882539
0.000939242
0.000969033
0.000993938
0.00102884
0.00106324
0.00109678
0.00113852
0.00118499
0.00123623
0.00124284
0.00133669
0.001364
0.00147221
0.00127128
0.00394431
0.0163828
0.00107052
0.00116215
0.000855395
0.000919836
0.000984513
0.000994724
0.00101719
0.00104919
0.00107379
0.00111525
0.00114555
0.0011983
0.00123499
0.00126309
0.00133912
0.001343
0.00147895
0.00132009
0.00479922
0.0157886
0.00105646
0.00111398
0.000853523
0.000937724
0.000971572
0.000988305
0.00101455
0.00104802
0.0010826
0.00112191
0.00116613
0.00121271
0.00125165
0.00129215
0.00137376
0.00141766
0.00154186
0.0014208
0.00437331
0.0152617
0.00107067
0.0011205
0.00090604
0.000962309
0.00100202
0.00102109
0.0010422
0.00107714
0.00109937
0.0011488
0.00117248
0.00122054
0.0012549
0.00131149
0.00137788
0.00139853
0.00151188
0.00140241
0.0039062
0.0141794
0.00102524
0.00109173
0.000894691
0.000940318
0.000973557
0.000986587
0.00101499
0.00104672
0.00109144
0.00113141
0.00116332
0.00121359
0.00125881
0.00132995
0.0013702
0.00143614
0.00153319
0.00146241
0.00319258
0.0129631
0.00106007
0.00107854
0.000902501
0.000947594
0.000984166
0.00101977
0.00105094
0.00110101
0.00112502
0.00115464
0.00116956
0.00122812
0.00128422
0.00133206
0.0013579
0.00141752
0.00144723
0.0014691
0.00251487
0.0103488
0.0009798
0.00100181
0.000885306
0.0009362
0.000992041
0.00101433
0.00104401
0.00105492
0.00106986
0.00109263
0.00114453
0.00124179
0.00127826
0.00131456
0.00133862
0.00140663
0.001448
0.00151159
0.00216349
0.00852192
0.0010219
0.00105883
0.000948018
0.000989365
0.00100407
0.0010164
0.00101686
0.00104519
0.00108058
0.00115195
0.00124158
0.00129421
0.00128645
0.00130704
0.00131978
0.00139688
0.00143329
0.00149599
0.00184323
0.00682332
0.000983246
0.00096882
0.000875749
0.000890516
0.000925353
0.000944008
0.000991096
0.0010552
0.00112386
0.00120577
0.00122975
0.00123198
0.00121585
0.00125686
0.00131534
0.00142502
0.00143257
0.00151277
0.00171068
0.00584651
0.00089216
0.000914075
0.000873979
0.000929925
0.000995218
0.00104565
0.00111595
0.00116118
0.00120994
0.00121229
0.001202
0.00120271
0.00121501
0.00130828
0.00135894
0.00143711
0.00145523
0.00152497
0.00162202
0.00494428
0.000984557
0.00103452
0.000988372
0.0010416
0.00106767
0.00109635
0.00110338
0.00110937
0.00110396
0.00108996
0.00111532
0.00113868
0.0012303
0.00130975
0.00136705
0.00147274
0.00141925
0.00149112
0.00157062
0.00448783
0.000959419
0.000978519
0.0009293
0.000960053
0.000975333
0.000994522
0.00100084
0.00103564
0.00105485
0.0011204
0.00117984
0.00127004
0.00136373
0.00141066
0.00148777
0.00145478
0.00142212
0.00153943
0.00163708
0.00428666
0.000954503
0.000978024
0.000955285
0.000988063
0.00102778
0.00105182
0.00109244
0.00113502
0.00118054
0.0012403
0.00127278
0.00132655
0.00131547
0.00132794
0.00129128
0.00124467
0.00132817
0.00146334
0.00156447
0.00355216
0.000928919
0.000973486
0.000939015
0.000977366
0.00101327
0.00102893
0.0010661
0.00108299
0.00112219
0.00113054
0.00116265
0.0011662
0.00119744
0.00122879
0.0012773
0.00139458
0.0015744
0.00170726
0.00173801
0.00355952
0.00091457
0.000956647
0.000925166
0.000974776
0.00100706
0.0010329
0.00106571
0.00109421
0.00113253
0.00116056
0.001211
0.00125138
0.00132223
0.0013787
0.00147558
0.00155947
0.00164173
0.00154481
0.00146765
0.00224973
0.000912561
0.000954959
0.00092766
0.000976957
0.00100693
0.00103535
0.00106321
0.00110014
0.00112881
0.00117219
0.00120377
0.00125324
0.00128601
0.00133273
0.00136101
0.0013884
0.00139215
0.00142684
0.00168011
0.00207614
0.000248212
0.000172324
0.000205693
0.000209903
0.00018452
0.000110484
0.000107466
0.000270695
0.000191627
0.000110687
5.49161e-05
0.000463687
0.00161755
0.00425659
0.00837137
0.0105688
0.0078072
0.00348173
0.000126371
0.000853239
0.000274773
0.00021539
0.00020573
0.000202118
0.0002397
0.000203158
0.000144914
0.000189333
0.000281538
0.000210219
0.00011023
5.48935e-05
0.000567097
0.00212945
0.00543398
0.00946818
0.0102414
0.00610645
0.00142507
0.000185233
0.000289046
0.000259383
0.000267212
0.000198587
0.0001993
0.000233423
0.000240623
0.000177655
0.000207696
0.000254597
0.000243245
0.000139951
7.2782e-05
0.000813877
0.00307561
0.00723747
0.0107069
0.00872286
0.00382152
5.50978e-05
0.00029848
0.000255381
0.000304195
0.000278804
0.000247687
0.000213823
0.000237384
0.000248135
0.000242102
0.000251082
0.00031008
0.000262785
8.73763e-05
0.000140557
0.00141266
0.00501104
0.00950836
0.010463
0.00647086
0.000774317
0.000337907
0.000283045
0.000283533
0.000280628
0.000294894
0.000273624
0.000277769
0.000230501
0.000273866
0.000277846
0.00029905
0.000324352
0.000260997
0.000136728
0.000434009
0.00270924
0.00776736
0.0111981
0.00856513
0.00218174
0.000358667
0.000335076
0.000355612
0.000316016
0.00031942
0.000277635
0.000320098
0.000310129
0.000284981
0.000310692
0.000328566
0.000369694
0.000342536
0.00023983
0.000164761
0.00126992
0.00588278
0.0109242
0.00981642
0.00258401
0.00038251
0.000348588
0.00035951
0.00033257
0.000375684
0.000333645
0.000335466
0.00032208
0.000351145
0.000345041
0.000362083
0.000401134
0.000417946
0.000363801
0.000201092
0.000332114
0.00366579
0.00980199
0.0110616
0.00496564
0.000408336
0.000405738
0.000434228
0.000361349
0.000399319
0.000366686
0.000402114
0.000390578
0.000370363
0.000406004
0.000419878
0.000440533
0.000505867
0.000478794
0.000353314
0.000252594
0.0018488
0.00868913
0.0116045
0.00708597
0.000420177
0.000407105
0.000452055
0.000393711
0.000451003
0.000414925
0.000416963
0.00042847
0.000447603
0.000444497
0.000475493
0.000511373
0.000526666
0.000591068
0.000534566
0.000278742
0.000740943
0.00753435
0.011904
0.00948297
0.000459651
0.000462772
0.000519059
0.000434178
0.000479964
0.000466504
0.000491696
0.00048699
0.000479012
0.000517192
0.000534435
0.0005654
0.000630468
0.000644077
0.000611597
0.000414087
0.000413411
0.00550647
0.0117224
0.0120011
0.000485739
0.000465415
0.000531918
0.000471448
0.000523417
0.000505427
0.000508811
0.000533827
0.000551479
0.000554522
0.000594522