/*--------------------------------*- C++ -*----------------------------------*\
  =========                 |
  \\      /  F ield         | OpenFOAM: The Open Source CFD Toolbox
   \\    /   O peration     | Website:  https://openfoam.org
    \\  /    A nd           | Version:  9
     \\/     M anipulation  |
\*---------------------------------------------------------------------------*/
FoamFile
{
    format      ascii;
    class       volScalarField;
    location    "1.3";
    object      nut;
}
// * * * * * * * * * * * * * * * * * * * * * * * * * * * * * * * * * * * * * //

dimensions      [0 2 -1 0 0 0 0];

internalField   nonuniform List<scalar> 
46400
(
0.0182288
0.00651211
0.00186572
0.00127187
0.00127921
0.00127663
0.00120104
0.00116999
0.0011275
0.00110657
0.00105189
0.00102138
0.000996689
0.000965555
0.000932161
0.000945201
0.000906406
0.00083994
0.0011946
0.000975045
0.0179813
0.00593711
0.00173396
0.00138941
0.00134948
0.00131777
0.0012189
0.00119082
0.00116
0.00111609
0.00105913
0.00103125
0.0009905
0.000952663
0.000912567
0.000884626
0.000817393
0.000746137
0.000995967
0.000902645
0.0175785
0.00454059
0.00119906
0.00139016
0.00128617
0.00132528
0.00123945
0.00119866
0.00116096
0.00114591
0.00109144
0.00105624
0.00102945
0.000996398
0.000960345
0.000947276
0.000880586
0.000827368
0.00113525
0.000960072
0.0171605
0.00419784
0.0012409
0.0014848
0.00135731
0.00134434
0.00125934
0.00121634
0.00117514
0.00114056
0.00109098
0.00105235
0.00101668
0.000982955
0.000951608
0.000929793
0.000870753
0.000811547
0.00112569
0.00100376
0.0166441
0.00406906
0.00126433
0.00145723
0.00133028
0.00136449
0.00129017
0.0012404
0.00119505
0.00117503
0.00113027
0.0010905
0.00105953
0.00103133
0.000998373
0.000980901
0.000926986
0.000864757
0.0011708
0.00103674
0.0160311
0.00471854
0.00136777
0.00154758
0.0013981
0.00137548
0.00131094
0.00125793
0.00120832
0.00117218
0.00113149
0.00109233
0.00105349
0.00102004
0.00100683
0.000981872
0.000946628
0.000883575
0.00117872
0.00108099
0.0154559
0.00464084
0.00143105
0.00153166
0.00139616
0.00139184
0.00133275
0.00128038
0.00122782
0.00118989
0.00115532
0.00111689
0.00108523
0.00103202
0.00100001
0.000991392
0.00093907
0.000890158
0.00117266
0.00107555
0.0144119
0.00399684
0.00144174
0.00158142
0.00143391
0.00138266
0.00133596
0.00128442
0.0012417
0.00119041
0.00114625
0.00111789
0.00110815
0.00107593
0.00102525
0.00099406
0.000953285
0.000888227
0.00115009
0.00108756
0.0130474
0.00312816
0.00146105
0.00152984
0.00144518
0.00138098
0.00133449
0.00128791
0.00125003
0.00120475
0.00115161
0.00107911
0.00106203
0.00104812
0.00102989
0.000993949
0.00093955
0.000878132
0.00106272
0.00102895
0.0105395
0.00258806
0.00152317
0.00151183
0.0014583
0.0013807
0.00131994
0.00127093
0.00125274
0.00121887
0.00121125
0.00114396
0.00107294
0.00105329
0.0010395
0.00103239
0.000986576
0.000929723
0.00107567
0.00100522
0.00829428
0.00208533
0.00149147
0.00145874
0.0014405
0.00138203
0.0013204
0.00124688
0.00121918
0.00117147
0.00114653
0.00112351
0.00106577
0.00099939
0.000981968
0.00094919
0.000945248
0.000935782
0.0010936
0.0010519
0.0068281
0.0018745
0.00153782
0.00145557
0.00144638
0.00141145
0.0013539
0.00126232
0.00124916
0.00122643
0.00121423
0.0011837
0.00115812
0.00108424
0.00101151
0.000958078
0.000895796
0.000861332
0.000966664
0.000955482
0.00547583
0.00164832
0.0015038
0.00142186
0.00138853
0.00137905
0.00138082
0.00122337
0.00114795
0.00109793
0.00109414
0.00110775
0.00112154
0.00113701
0.00111589
0.00108155
0.00102627
0.000961776
0.00103082
0.00096671
0.00484663
0.00164188
0.00155253
0.00143915
0.00139216
0.00134722
0.00147939
0.00145522
0.00133121
0.00121146
0.00110509
0.00103946
0.00100677
0.000985095
0.000997884
0.000990435
0.000984275
0.000957173
0.00103933
0.000985268
0.00424312
0.00158271
0.00155863
0.00146301
0.00133647
0.00116111
0.00116923
0.00126037
0.00131821
0.00130317
0.00126951
0.00118918
0.00113903
0.00107355
0.00103394
0.00100849
0.000971289
0.000943014
0.00101883
0.000975116
0.00436546
0.00161284
0.0015398
0.00160092
0.00167976
0.00142475
0.00125835
0.00114907
0.00114151
0.00113453
0.00113624
0.00112558
0.001093
0.00107475
0.00102891
0.00101155
0.00096516
0.000925307
0.000979898
0.000922565
0.00378833
0.00161777
0.0013712
0.00123384
0.00140681
0.00147744
0.0014042
0.00134389
0.00124325
0.00121459
0.00115437
0.00114034
0.00109854
0.00107578
0.00104625
0.00101918
0.000988861
0.000931433
0.000995639
0.000921251
0.00375393
0.00176788
0.00172022
0.00147682
0.00130462
0.00134347
0.00131074
0.00129261
0.00124988
0.00119887
0.00116943
0.00111688
0.00109857
0.00104757
0.00103106
0.000989969
0.000967233
0.000905029
0.000951826
0.000897152
0.00265392
0.00144332
0.00151486
0.00152254
0.0014436
0.00134379
0.00133861
0.00127702
0.00126979
0.00121174
0.00119622
0.00114567
0.00112362
0.00108115
0.00105444
0.00102248
0.000990637
0.000936772
0.000974035
0.00091722
0.000565029
0.000369397
0.00147038
0.00132984
0.00147201
0.00134146
0.00135237
0.00126054
0.00125493
0.00118745
0.00116949
0.0011187
0.00109747
0.00105471
0.00103351
0.000999695
0.000973998
0.000914037
0.00096415
0.000888204
8.64198e-05
0.000932365
0.00474865
0.00945254
0.010585
0.00698558
0.00306298
0.000980758
0.000152586
9.67235e-05
0.000219683
0.000304447
0.0002371
0.000186232
0.000215574
0.000234111
0.000245004
0.000239015
0.000197135
0.000280804
0.000170488
0.00304286
0.00781642
0.0110898
0.00861661
0.00428334
0.00137418
0.00024668
0.000130436
0.000253172
0.000306472
0.000250962
0.000212293
0.000250613
0.000234613
0.000215542
0.000217615
0.000262271
0.000255663
0.000300465
0.000551111
0.005115
0.00995226
0.010569
0.00625518
0.00221917
0.000426912
0.00013064
0.000240729
0.000317096
0.000278876
0.00026257
0.000272643
0.000247021
0.000220895
0.000265302
0.000291762
0.000312387
0.000264599
0.00031189
0.00171642
0.00811294
0.0113041
0.00893975
0.00397772
0.000908347
0.000120376
0.000201291
0.000303618
0.000310403
0.00028344
0.000296847
0.000248691
0.000267297
0.00027727
0.000313228
0.000292264
0.000273793
0.000268408
0.000341004
0.00231303
0.00930104
0.0114223
0.00699547
0.00211614
0.000161633
0.000147019
0.000281585
0.000355145
0.000355065
0.000321149
0.00030099
0.00031053
0.000314584
0.000289392
0.000322662
0.000302681
0.00033963
0.000334815
0.000377289
0.00352445
0.0108271
0.0107324
0.00501507
0.000754781
0.000176318
0.000317889
0.000396123
0.000431092
0.000361231
0.000338007
0.000363834
0.000322101
0.000322773
0.00033986
0.000386812
0.00033813
0.000352688
0.00035051
0.000389562
0.0060313
0.0116347
0.00948358
0.00293268
0.000234346
0.000272197
0.000445767
0.00046985
0.000414936
0.000421105
0.000415628
0.000383506
0.000378049
0.00039831
0.000385487
0.000397758
0.000336952
0.000416009
0.000418207
0.000432244
0.00827411
0.0121328
0.008372
0.0011954
0.000277482
0.000491879
0.000537806
0.000510209
0.000543572
0.00048071
0.000438304
0.000455179
0.000422038
0.000412297
0.000421658
0.000456757
0.000399866
0.000467542
0.00043968
0.000442028
0.0105508
0.0121402
0.00709632
0.000578301
0.000290376
0.00060122
0.000649461
0.000596175
0.000552038
0.000523862
0.000525893
0.000488609
0.000468401
0.000490352
0.000485721
0.000475148
0.000406561
0.000507898
0.00047914
0.000485268
0.013278
0.012051
0.00493035
0.000399192
0.000578931
0.000734802
0.000688558
0.000635727
0.000663715
0.000603835
0.000552349
0.000557815
0.000528106
0.000511936
0.000510766
0.000525023
0.000478029
0.000553943
0.000493734
0.000498075
0.0148734
0.0118709
0.00334099
0.000501021
0.000684591
0.000794146
0.00076687
0.000732937
0.000682697
0.000636605
0.000637383
0.000598232
0.000567617
0.000585335
0.000582576
0.000557314
0.000499733
0.000588615
0.000529127
0.000544921
0.0160142
0.0114875
0.00208424
0.000294691
0.000875905
0.000886935
0.000817294
0.000761436
0.000780871
0.000720545
0.000665886
0.000665932
0.000634346
0.000613705
0.000610434
0.000607321
0.000574161
0.000638641
0.000534933
0.000561106
0.0166065
0.0110188
0.00148053
0.000468958
0.000911615
0.000903279
0.000896261
0.000852428
0.000802542
0.00075176
0.000743988
0.000705043
0.000667864
0.000680221
0.000674755
0.000639346
0.000597713
0.000664706
0.000553035
0.000596467
0.0175014
0.0106797
0.000934099
0.000718597
0.00108475
0.000980297
0.000942931
0.000878651
0.000888058
0.000827968
0.000772074
0.000770679
0.00073324
0.000708291
0.000706021
0.000693785
0.000668225
0.000696886
0.000550827
0.000622937
0.0178215
0.0102229
0.00157328
0.000798433
0.00109316
0.00099322
0.00100388
0.00096152
0.000909296
0.00086364
0.000843469
0.000806946
0.000767441
0.000770853
0.000758483
0.00072137
0.000699783
0.000728208
0.000554989
0.000648815
0.0183108
0.00988662
0.00156781
0.000997831
0.00122518
0.00109353
0.00104401
0.000990677
0.000986867
0.000926402
0.000869386
0.000866671
0.000823722
0.000795798
0.000793693
0.00077578
0.000763758
0.0007514
0.000553381
0.000682322
0.0184299
0.00946346
0.0023785
0.00105849
0.00119554
0.00110255
0.0010969
0.00105625
0.00100541
0.000968514
0.00093462
0.000901238
0.000863407
0.000855037
0.000831915
0.000801748
0.000808197
0.000788449
0.00055017
0.000715148
0.0186491
0.00929187
0.00234612
0.00114849
0.00131787
0.0011763
0.00111948
0.00108338
0.00106697
0.00101157
0.000955327
0.000950744
0.000908137
0.00088006
0.000871435
0.000851831
0.000855472
0.000820094
0.00056067
0.000749068
0.0185438
0.0086153
0.0019053
0.0011443
0.00127183
0.001205
0.00116067
0.00113204
0.00108419
0.00105621
0.0010114
0.000981005
0.00095039
0.000931941
0.000899883
0.000890465
0.000913422
0.000888022
0.000588755
0.000750564
0.0185085
0.00788079
0.00222844
0.00125687
0.0013443
0.00126058
0.00117541
0.00115225
0.00113179
0.0010842
0.0010317
0.00102517
0.000990343
0.000964879
0.000950531
0.000957801
0.000949343
0.000945323
0.000741305
0.000813402
0.00258208
0.00195744
0.00182312
0.00164675
0.00174254
0.0014569
0.00144722
0.00132499
0.00124941
0.00116706
0.0010604
0.000990644
0.000903462
0.000850563
0.000791391
0.000797542
0.00104201
0.00485923
0.0101043
0.020886
0.00237235
0.00199996
0.00196218
0.00166207
0.00177339
0.00156495
0.00153502
0.00132858
0.00122755
0.00114347
0.00103586
0.000964765
0.000874262
0.000819529
0.000762954
0.000755658
0.00102055
0.00498036
0.0101009
0.020683
0.00265676
0.0020522
0.00197832
0.00171138
0.00178932
0.00148501
0.00145057
0.00130743
0.00123678
0.00115388
0.00105039
0.00098565
0.000898902
0.000850243
0.000784432
0.00078011
0.00102313
0.00499157
0.0101423
0.0205752
0.0025157
0.00209449
0.00212174
0.0017489
0.00181102
0.00158032
0.00153561
0.00131897
0.00121797
0.00113143
0.00102917
0.000962051
0.000871743
0.000820377
0.000755977
0.000737913
0.000999302
0.00509107
0.0101382
0.0203907
0.00284293
0.00215591
0.00211915
0.00178433
0.00183052
0.00150827
0.00144745
0.00129644
0.00122673
0.0011423
0.00104396
0.000983015
0.000897346
0.000851874
0.000778142
0.000763392
0.00100432
0.00508743
0.0101791
0.0202843
0.00283857
0.00220278
0.00225859
0.00186328
0.0018472
0.00158025
0.00152612
0.00131592
0.00121005
0.00112101
0.00102524
0.000961123
0.000871945
0.000823283
0.000750087
0.000721094
0.00097875
0.00516177
0.0101745
0.0200934
0.00321875
0.00227515
0.00225635
0.00188389
0.00184636
0.00151768
0.00144605
0.00129624
0.00121759
0.00113266
0.00104033
0.000982291
0.000897846
0.000854854
0.000772803
0.000747206
0.000985628
0.00514333
0.010216
0.0199919
0.00320726
0.00227784
0.0023663
0.00199711
0.00185942
0.00156985
0.0015146
0.0013189
0.00120273
0.00111324
0.00102297
0.000962058
0.000873919
0.000827574
0.000745891
0.00070513
0.000957826
0.0051876
0.0102107
0.0198207
0.00370436
0.0023858
0.00237835
0.00200462
0.00182804
0.00151693
0.00144648
0.00130323
0.00120837
0.00112559
0.00103861
0.000983279
0.000899473
0.000858713
0.00076933
0.00073158
0.000965649
0.00516016
0.0102522
0.0197245
0.00379936
0.00240359
0.00247511
0.00211483
0.00183964
0.00156769
0.00150322
0.00132491
0.00119569
0.0011085
0.00102179
0.000964568
0.000877074
0.000833096
0.000744645
0.00069014
0.000935567
0.00518426
0.0102472
0.0195715
0.0040163
0.00253374
0.00250902
0.00211412
0.00178485
0.00152182
0.00144451
0.00131273
0.00120069
0.00112122
0.00103743
0.000985551
0.00090212
0.000863582
0.00076916
0.00071728
0.000945239
0.00513425
0.0102906
0.0194782
0.00407369
0.00254339
0.00259848
0.00219202
0.00179801
0.00158242
0.0014884
0.00133101
0.00119016
0.00110599
0.00102115
0.000968412
0.000881646
0.00084006
0.000746863
0.000677537
0.000913587
0.00512202
0.0102897
0.0193428
0.00432936
0.00267072
0.00264334
0.00217104
0.00173723
0.0015404
0.00143366
0.00132089
0.00119568
0.00111867
0.00103666
0.000988693
0.000906151
0.000869857
0.000772367
0.000706168
0.000927516
0.00506793
0.0103289
0.0192587
0.00437952
0.0026764
0.00272908
0.00221426
0.00175515
0.00161014
0.00147052
0.00133589
0.00118727
0.00110522
0.00102106
0.000973125
0.000887997
0.00084891
0.000753139
0.000669987
0.000897718
0.00501865
0.010327
0.0191435
0.00466475
0.00279333
0.00276319
0.00216734
0.00169766
0.00156736
0.00141853
0.00132442
0.00119291
0.00111722
0.00103581
0.00099211
0.000911634
0.000877833
0.00078009
0.000700938
0.000922392
0.00495469
0.0103686
0.0190718
0.00471364
0.00281468
0.00282709
0.00218501
0.00172202
0.00163573
0.0014515
0.00133391
0.00118493
0.00110461
0.0010204
0.000977281
0.000895297
0.000859286
0.000764181
0.000668978
0.000898387
0.00488133
0.0103728
0.0189651
0.00508921
0.00292721
0.00283264
0.00213279
0.00168077
0.00159707
0.00141025
0.00132383
0.00119279
0.00111781
0.00103551
0.000995847
0.000918498
0.000888043
0.000793525
0.000702391
0.000920615
0.00480815
0.0103937
0.0188858
0.00507169
0.00293119
0.00284351
0.00214807
0.00172534
0.00166524
0.00144594
0.00133515
0.00119001
0.00111088
0.0010245
0.000985324
0.000906678
0.000875585
0.000785825
0.000680006
0.000892514
0.00470514
0.0104238
0.0189174
0.00515271
0.00305527
0.00276208
0.00206837
0.00165511
0.00160079
0.00139031
0.00129897
0.00117646
0.00110853
0.00102749
0.000992196
0.000921264
0.00089695
0.000813705
0.000707583
0.000936745
0.00461136
0.0104364
0.0186753
0.00586296
0.00327565
0.00277828
0.0021057
0.00173987
0.00169052
0.00145555
0.00134535
0.00121259
0.00113021
0.00103636
0.0009948
0.000917892
0.000891401
0.000807751
0.000698882
0.000897024
0.00429816
0.0101904
0.0181902
0.0171634
0.0333824
0.0179491
0.0226614
0.0193511
0.0179607
0.01539
0.014095
0.0126351
0.0117389
0.0108335
0.0104532
0.00984125
0.00975454
0.00926302
0.0087754
0.0119433
0.0404018
0.0966711
0.162518
0.0323791
0.0231739
0.0198399
0.0180121
0.016542
0.0144083
0.0132264
0.0118813
0.0105784
0.00983309
0.00943352
0.00906202
0.0083608
0.0075569
0.00735468
0.00631046
0.0125358
0.0456746
0.0955917
0.150562
0.0158327
0.0149731
0.015623
0.0133001
0.0120464
0.0110301
0.0103036
0.00948443
0.00884466
0.0082521
0.00786833
0.00757846
0.0073542
0.00702049
0.00679022
0.00636805
0.0119336
0.0424562
0.0949884
0.147749
0.0131026
0.0117024
0.00981639
0.0093114
0.00925976
0.00877429
0.00849778
0.00825365
0.00797865
0.00738355
0.00701745
0.00657573
0.00638848
0.00590957
0.00578207
0.00472183
0.00941864
0.0451088
0.0948953
0.138053
0.00656428
0.00716171
0.00843769
0.00824404
0.00737892
0.00690461
0.00642011
0.00605094
0.00585786
0.00578646
0.00562998
0.00558706
0.00552276
0.00554118
0.00518692
0.00441513
0.0105756
0.0413515
0.0949691
0.136178
0.00578472
0.00642181
0.00559453
0.00500118
0.0050494
0.00530059
0.00543522
0.00545967
0.00546254
0.00527033
0.00499607
0.00483667
0.00472513
0.00464008
0.00475409
0.00355619
0.00671312
0.0395635
0.0957027
0.132116
0.00323282
0.00365234
0.00424164
0.00487095
0.00473951
0.00449637
0.00413026
0.00399392
0.00397683
0.00435867
0.00437883
0.00439418
0.00436168
0.00437782
0.00431466
0.00345488
0.00521359
0.035164
0.0962863
0.1313
0.0028794
0.00323068
0.00335335
0.0030767
0.00284772
0.0031292
0.00347476
0.00379053
0.00382563
0.00374689
0.00378765
0.00384907
0.00378751
0.00381093
0.00390387
0.003211
0.00624884
0.0296908
0.0963287
0.132938
0.00156125
0.00202576
0.00221195
0.0025829
0.00293387
0.00305773
0.0029145
0.00290841
0.00287086
0.00315598
0.00326968
0.00355822
0.00352773
0.00363434
0.0035323
0.00323194
0.00230815
0.0241156
0.0965904
0.13724
0.00156257
0.00170993
0.00185029
0.00186817
0.00165103
0.00181093
0.00223554
0.00260672
0.00275122
0.0027612
0.00284744
0.00301348
0.00310144
0.00340083
0.00334067
0.00341206
0.00350526
0.0167915
0.0942907
0.144375
0.000966715
0.00115246
0.00129219
0.00152722
0.00182211
0.00205192
0.00199267
0.0020333
0.00218768
0.00253491
0.00265042
0.00299404
0.00307487
0.00339987
0.00335138
0.00336156
0.00292503
0.0118799
0.0904927
0.154313
0.000801503
0.000992864
0.00105915
0.0011124
0.00112106
0.00130763
0.00158931
0.00184804
0.002016
0.00224622
0.00239875
0.00256839
0.00279938
0.00304291
0.00336813
0.00373217
0.00268129
0.00607268
0.0712493
0.165568
0.000581885
0.000768136
0.000896366
0.00109962
0.00128997
0.00148821
0.00147797
0.00161253
0.00173384
0.00194623
0.00213779
0.00241988
0.00257359
0.00280189
0.00302758
0.00347991
0.00347568
0.00444913
0.0581279
0.180709
0.000536865
0.000628451
0.000670418
0.000766659
0.000776462
0.000993539
0.00116613
0.00136218
0.00148899
0.0016564
0.00180005
0.00203961
0.00234599
0.00258113
0.00299639
0.00310811
0.00388323
0.00866339
0.0367188
0.18117
0.000506073
0.000611529
0.000669893
0.000795321
0.000866362
0.00092282
0.000942012
0.00111643
0.00113004
0.00142903
0.00144969
0.00170975
0.00172044
0.00214207
0.00214242
0.00267855
0.00294703
0.00673654
0.0207812
0.130911
0.000370211
0.000462413
0.000504194
0.000573681
0.000647482
0.000756717
0.00082278
0.000934156
0.000997464
0.00112334
0.00119307
0.00144969
0.00152997
0.00183573
0.00194049
0.00248044
0.00257273
0.00406776
0.00690268
0.0831547
0.000362689
0.000415943
0.000434229
0.00049087
0.00050738
0.000581092
0.000623646
0.000716188
0.000759558
0.000882118
0.000936543
0.00105899
0.00113941
0.00132753
0.00153601
0.0017619
0.00190669
0.00229707
0.00245093
0.0442057
0.000267714
0.00030342
0.000326
0.000376404
0.000448067
0.000514703
0.000546766
0.000612709
0.000669522
0.000748497
0.000795819
0.00090839
0.000931624
0.00109416
0.000978334
0.00111718
0.00100645
0.00125716
0.00170448
0.0218431
0.000211666
0.000236825
0.000244629
0.000280995
0.000280317
0.000320717
0.000362577
0.000423406
0.000455361
0.000526331
0.000550032
0.000634274
0.000649372
0.00080442
0.000817105
0.000780474
0.000887816
0.000911535
0.000952114
0.00843205
0.000108212
0.000169049
0.000182029
0.000241059
0.000252238
0.000332386
0.000333624
0.000416143
0.000424198
0.000503687
0.000511813
0.000592181
0.000607466
0.000678653
0.000708314
0.000843987
0.000800773
0.000795402
0.000857763
0.00183517
0.0139376
0.0139075
0.0138563
0.0139586
0.0137424
0.0138461
0.0134622
0.0135318
0.0132677
0.0131848
0.0121892
0.0124864
0.0124213
0.0112784
0.0111306
0.00986755
0.00948545
0.00933663
0.00928947
0.00827571
0.00699206
0.00697483
0.00694986
0.00690347
0.00681891
0.00678528
0.00666289
0.00666687
0.00672169
0.00651779
0.00638422
0.00772381
0.00728693
0.00666369
0.00599001
0.006651
0.00671052
0.00669932
0.00675654
0.00752579
0.00430626
0.00431646
0.0043373
0.00437112
0.00441314
0.00447978
0.0044881
0.00454762
0.00447658
0.00450535
0.00461386
0.00431817
0.00412188
0.00413193
0.00401359
0.00418265
0.00369605
0.00391803
0.0034435
0.00377671
0.00275611
0.00275237
0.00274404
0.00273507
0.00270699
0.00270065
0.00264657
0.00263425
0.00262532
0.00259258
0.00239996
0.00261815
0.00275546
0.00283106
0.0026769
0.00270365
0.00260802
0.00293705
0.00275895
0.00304387
0.00172467
0.0017243
0.00172692
0.0017262
0.00172831
0.00173422
0.00172816
0.00179233
0.00175554
0.00177536
0.00194117
0.00187604
0.00179653
0.00185725
0.00181861
0.00192171
0.00183348
0.00192852
0.00176731
0.00173996
0.00123673
0.00123755
0.00123906
0.00123859
0.00123887
0.00123937
0.00123399
0.00124369
0.00121047
0.00125976
0.00123045
0.00124232
0.00127389
0.00130207
0.00127854
0.00132635
0.00124351
0.00140238
0.00134697
0.00126437
0.000756527
0.000757912
0.000758459
0.000759938
0.000760582
0.000762934
0.000762059
0.000769815
0.000772014
0.00079089
0.000802532
0.000824281
0.000834023
0.000852095
0.000835116
0.000869155
0.00087722
0.000966359
0.000862254
0.000739709
0.000551175
0.000552828
0.000554181
0.000557022
0.000559698
0.000562965
0.000566058
0.000574443
0.000577542
0.000590139
0.00059177
0.000604249
0.000613947
0.000635346
0.000612184
0.000624382
0.000622674
0.000675254
0.000598257
0.000518776
0.000308738
0.000309358
0.00031139
0.00031302
0.000315128
0.000315514
0.000318904
0.000322161
0.000327583
0.000337906
0.000350114
0.000372542
0.000388376
0.000428409
0.000396035
0.000419856
0.00041895
0.00048532
0.000401236
0.000288204
0.000206066
0.000207132
0.000211776
0.000213044
0.000216704
0.00021683
0.000221324
0.000221588
0.000225488
0.000230074
0.000237482
0.000246254
0.000250219
0.000264905
0.000244897
0.000238581
0.000227281
0.000214364
0.000275721
0.000339982
7.56873e-05
8.04189e-05
8.32933e-05
8.86135e-05
9.27663e-05
9.95994e-05
0.000104292
0.000112138
0.000117781
0.000132961
0.000143562
0.000168832
0.000173321
0.000215494
0.000192801
0.000185935
0.000171927
0.000194157
0.000122864
7.24555e-05
7.875e-06
1.81484e-05
2.05215e-05
3.28209e-05
4.23705e-05
4.63164e-05
5.62771e-05
6.4485e-05
8.03391e-05
8.67844e-05
9.76332e-05
0.000109276
0.000102352
8.96787e-05
0.000125274
0.000162274
0.000163136
0.000185047
0.000161452
0.000174414
1.94367e-05
3.44996e-05
4.29558e-05
3.97931e-05
4.97519e-05
4.70942e-05
4.59011e-05
5.09586e-05
5.27761e-05
6.23537e-05
6.63164e-05
7.83872e-05
9.50383e-05
9.74813e-05
7.33929e-05
7.40179e-05
9.13679e-05
0.000104155
0.000119192
0.000125381
5.49715e-05
5.52822e-05
5.52461e-05
5.73455e-05
5.914e-05
6.7129e-05
7.53997e-05
7.68119e-05
8.20047e-05
8.22547e-05
8.93333e-05
8.50439e-05
8.69192e-05
9.68028e-05
0.000116599
0.00011625
0.000110054
0.000102469
0.000106349
0.000125853
7.18743e-05
7.61723e-05
7.63619e-05
7.55302e-05
7.46081e-05
7.30159e-05
7.33474e-05
7.46475e-05
7.65708e-05
7.7083e-05
7.81475e-05
7.9735e-05
8.50451e-05
8.40627e-05
8.65692e-05
8.84515e-05
9.89791e-05
0.00010024
0.000108246
0.000113874
7.11182e-05
7.13403e-05
7.14422e-05
6.92554e-05
7.12868e-05
7.21512e-05
7.59211e-05
7.38979e-05
7.83697e-05
7.82624e-05
8.24892e-05
7.96941e-05
7.83363e-05
7.88351e-05
8.77631e-05
8.52279e-05
8.52059e-05
8.56498e-05
9.13057e-05
9.56422e-05
6.4649e-05
6.77039e-05
6.63532e-05
6.19535e-05
6.09285e-05
5.96995e-05
6.46772e-05
6.36334e-05
6.67297e-05
6.51023e-05
6.86828e-05
6.84789e-05
7.43606e-05
7.28275e-05
7.49571e-05
7.80756e-05
7.88145e-05
8.1219e-05
8.2382e-05
8.86081e-05
4.25751e-05
4.61302e-05
4.85132e-05
4.98714e-05
5.19172e-05
5.07604e-05
5.25578e-05
5.14856e-05
5.30289e-05
5.07e-05
5.17389e-05
5.05079e-05
5.59893e-05
5.43923e-05
5.35755e-05
5.55203e-05
5.54901e-05
5.8755e-05
5.76854e-05
6.37005e-05
2.65197e-05
2.47842e-05
2.39667e-05
2.33805e-05
2.48819e-05
2.45139e-05
2.78895e-05
2.85732e-05
3.31951e-05
3.35823e-05
3.9149e-05
3.78483e-05
4.00406e-05
3.85161e-05
4.22097e-05
4.42253e-05
4.36233e-05
4.82295e-05
4.33992e-05
5.13817e-05
8.39906e-06
8.94675e-06
1.04229e-05
1.12433e-05
1.29304e-05
1.37653e-05
1.51145e-05
1.48717e-05
1.67048e-05
1.65467e-05
1.88511e-05
1.86196e-05
2.13061e-05
2.07981e-05
2.34412e-05
2.35091e-05
2.43065e-05
2.64176e-05
2.43833e-05
3.0875e-05
0.000979876
0.00119777
0.000845407
0.000908346
0.000947862
0.000934135
0.000964891
0.000995669
0.00101903
0.00104857
0.00110039
0.00111949
0.00116586
0.00120149
0.00127448
0.0012753
0.00126946
0.00186734
0.00649473
0.0182333
0.000900868
0.000988914
0.000743819
0.000814158
0.000881455
0.000909196
0.00094842
0.000987538
0.00102768
0.0010558
0.00110999
0.00115411
0.00119242
0.00122228
0.0013193
0.00135536
0.00139538
0.00174361
0.00596168
0.0179887
0.000958564
0.00113102
0.000829114
0.000879535
0.000947377
0.000960958
0.000996401
0.00103
0.00105536
0.00108919
0.00114069
0.00115713
0.00119831
0.00124059
0.00132381
0.00128339
0.00138568
0.00119891
0.0045324
0.0175818
0.00100007
0.00111624
0.000808338
0.000866107
0.000925453
0.000948015
0.000979026
0.00101331
0.00104835
0.00108734
0.00113664
0.00117513
0.00122116
0.00126388
0.00134537
0.00136356
0.00148962
0.00124766
0.00422878
0.0171615
0.00103043
0.00116322
0.000865926
0.000924414
0.000980546
0.0010005
0.00103302
0.00106272
0.00109347
0.00113329
0.00117604
0.00119721
0.00124245
0.00128977
0.00136168
0.00132699
0.00144917
0.00126264
0.0040506
0.0166481
0.00107438
0.00117141
0.000884636
0.000943265
0.000982919
0.00100797
0.0010202
0.00105434
0.00109243
0.0011308
0.00117043
0.00120981
0.00125876
0.00131118
0.00137426
0.00140118
0.00154854
0.00137356
0.00468801
0.0160271
0.00106804
0.00116905
0.000895569
0.000942016
0.000995563
0.0010042
0.00103529
0.00109049
0.00112124
0.00115927
0.00119334
0.00122971
0.00128167
0.00133336
0.00139131
0.00139489
0.00152734
0.00142544
0.00463743
0.0154362
0.00110433
0.00116606
0.000896578
0.000962449
0.00100105
0.00102999
0.00108144
0.00111544
0.00112204
0.00114999
0.00118981
0.00124214
0.00128363
0.00133519
0.00138103
0.00143752
0.00158378
0.00144612
0.00401826
0.0144222
0.00103586
0.00106255
0.00087995
0.000941012
0.000995036
0.00103352
0.00105408
0.00106658
0.00108066
0.00115093
0.00120182
0.00124804
0.0012866
0.00133541
0.00138286
0.00144836
0.00152701
0.00146611
0.00314466
0.0130807
0.00101848
0.00108299
0.00093601
0.000994675
0.00104208
0.00105073
0.00106285
0.0010793
0.00114537
0.00121158
0.00121754
0.00125437
0.00127266
0.00132494
0.0013843
0.00146413
0.00151678
0.00152625
0.00261517
0.0106642
0.0010629
0.00109358
0.000940095
0.000958497
0.000973796
0.000987361
0.00100118
0.00106351
0.00111951
0.00114182
0.00116718
0.00121994
0.00124958
0.00132717
0.0013847
0.00144473
0.00145802
0.00149714
0.00210003
0.00841289
0.00097308
0.00097695
0.00087403
0.000908561
0.000968532
0.00101706
0.0010856
0.00115757
0.00118245
0.00121466
0.00123161
0.0012598
0.00127195
0.00136249
0.00141272
0.00145048
0.00145358
0.00153646
0.00188656
0.00694599
0.000990842
0.00103147
0.000963842
0.00102522
0.00107721
0.00110719
0.00113073
0.00111509
0.00110557
0.0010969
0.00110331
0.001155
0.00122592
0.00137886
0.00137085
0.00138561
0.00141206
0.00150446
0.00165669
0.00559414
0.000991962
0.00101975
0.000953168
0.00097796
0.000986407
0.00099624
0.000989333
0.00101247
0.00105138
0.00111603
0.00122115
0.00133634
0.00145109
0.00146984
0.00133944
0.00139423
0.00143498
0.00155795
0.00165152
0.00497993
0.000991694
0.00101415
0.000952972
0.000976213
0.00101601
0.00104002
0.00108188
0.00114323
0.00119354
0.00126339
0.00129739
0.0013021
0.00124662
0.00116189
0.00115696
0.00134352
0.00145982
0.00156655
0.0015855
0.00437941
0.000937421
0.000970138
0.000930833
0.000964076
0.00101295
0.00102626
0.00107516
0.0010881
0.00112297
0.00112959
0.00113568
0.00113977
0.00116062
0.0012704
0.0014419
0.0016882
0.00159949
0.00155046
0.00160494
0.00448516
0.000936785
0.000990865
0.000943005
0.000993826
0.00102695
0.00104958
0.00108481
0.00110173
0.00115165
0.00116181
0.00123154
0.00125433
0.00136504
0.00140874
0.00149363
0.0014015
0.00124106
0.00138712
0.00159746
0.00368846
0.000916337
0.000947917
0.000916001
0.000970983
0.000995852
0.00103306
0.00105478
0.00110048
0.00112672
0.00117178
0.00121035
0.00125008
0.00130551
0.00130774
0.0013633
0.00130215
0.00151485
0.00171826
0.00174762
0.0035032
0.000937398
0.000977693
0.000952063
0.000996815
0.0010293
0.00105828
0.00108758
0.00112683
0.00115376
0.0012
0.00122468
0.00127594
0.00129922
0.00134799
0.0013845
0.00144962
0.0016166
0.00150485
0.00159627
0.00215723
0.000916727
0.000963536
0.000930316
0.000978354
0.0010081
0.00103375
0.00106235
0.0010961
0.00112822
0.00116887
0.00120333
0.00125557
0.00128849
0.00135487
0.00139722
0.00146816
0.00148608
0.00152429
0.00162009
0.00183821
0.000283969
0.000206205
0.000245268
0.000248929
0.000237266
0.000216553
0.000188308
0.000231814
0.000295402
0.000215908
9.32282e-05
0.000152892
0.000967821
0.00306041
0.00699972
0.0105812
0.00945786
0.0047875
0.00093925
4.38746e-05
0.000306804
0.000260885
0.00027019
0.000228168
0.000222105
0.000236502
0.000248055
0.000211781
0.000247293
0.000298493
0.000251696
0.000130432
0.000245329
0.00136308
0.00426528
0.00862426
0.0110973
0.00787263
0.00308138
0.000154082
0.00031858
0.000267656
0.000311818
0.00029853
0.000273689
0.000230065
0.000253008
0.000269598
0.000259532
0.000269797
0.000307372
0.000238062
0.000130739
0.000425319
0.00222684
0.0062301
0.0105506
0.00995662
0.00514505
0.000529526
0.000349985
0.00028017
0.000281809
0.000296829
0.000317073
0.000281229
0.00027097
0.000252628
0.000296159
0.000276588
0.000303903
0.000297591
0.000202143
0.000121021
0.000904879
0.00394379
0.00892609
0.0113071
0.00814647
0.00161751
0.000384047
0.000343124
0.000343706
0.000310789
0.000332091
0.000298939
0.000321582
0.000311238
0.000302825
0.000320774
0.000346974
0.000349349
0.000282848
0.000151222
0.000160344
0.00211465
0.00698411
0.0114215
0.009309
0.00239393
0.000400193
0.000365949
0.000358673
0.000340126
0.000389612
0.000346307
0.000331199
0.000328234
0.000365165
0.000335847
0.000355464
0.000420432
0.000391885
0.00031974
0.000176567
0.000752149
0.00500454
0.0107341
0.0108407
0.00352143
0.000440605
0.000434969
0.000426929
0.000347197
0.000406345
0.000391517
0.000405626
0.000382518
0.000387652
0.000418345
0.000417523
0.000407515
0.000466932
0.000447787
0.00027452
0.000233388
0.00291974
0.00948615
0.0116428
0.0060432
0.000450186
0.000455626
0.00047795
0.00040305
0.000461208
0.000431196
0.000422372
0.00042951
0.000458341
0.000438762
0.00047721
0.000532153
0.000501171
0.000537545
0.000493573
0.000277886
0.00119052
0.00837568
0.0121369
0.00829737
0.000489302
0.000494589
0.000523065
0.000418606
0.000481817
0.000488581
0.000497557
0.00047506
0.000493487
0.000528798
0.000522703
0.000544335
0.000589216
0.000648029
0.000600931
0.000292735
0.000574827
0.00706317
0.012142
0.010592
0.000502731
0.000507631
0.000566589
0.000483788
0.000530856
0.000521254
0.000521323
0.000535575
0.000562052
0.000554371
0.000602048
0.000652906
0.000625905
0.000686446
0.000735409
0.000577598
0.000398501
0.00493123
0.0120515
0.0133149
0.000546819
0.000540425
0.000601834
0.000510868
0.000563688
0.000584889
0.000592555
0.000575712
0.000603285
0.000638952