/*--------------------------------*- C++ -*----------------------------------*\
  =========                 |
  \\      /  F ield         | OpenFOAM: The Open Source CFD Toolbox
   \\    /   O peration     | Website:  https://openfoam.org
    \\  /    A nd           | Version:  9
     \\/     M anipulation  |
\*---------------------------------------------------------------------------*/
FoamFile
{
    format      ascii;
    class       surfaceScalarField;
    location    "1.3";
    object      phi;
}
// * * * * * * * * * * * * * * * * * * * * * * * * * * * * * * * * * * * * * //

dimensions      [0 3 -1 0 0 0 0];

internalField   nonuniform List<scalar> 
92080
(
0.00120155
-0.435807
0.434605
-0.0167145
-0.88717
0.905086
-0.0508847
-0.976497
1.01067
-0.0867816
-0.961212
0.997109
-0.122088
-0.94573
0.981037
-0.15724
-0.930677
0.965829
-0.192061
-0.917146
0.951966
-0.226594
-0.905079
0.939611
-0.260741
-0.893608
0.927755
-0.29459
-0.880939
0.914788
-0.328443
-0.871419
0.905272
-0.362215
-0.861679
0.895451
-0.395574
-0.853081
0.88644
-0.429138
-0.844406
0.87797
-0.462527
-0.837502
0.870891
-0.494832
-0.83049
0.862794
-0.526353
-0.823191
0.854712
-0.557919
-0.815185
0.846751
-0.588648
-0.807509
0.838237
-0.80246
0.830795
-0.616982
-0.00161789
-0.434189
-0.0229563
-0.865831
-0.0614539
-0.937999
-0.100366
-0.922301
-0.138372
-0.907724
-0.175941
-0.893107
-0.213239
-0.879848
-0.249983
-0.868335
-0.285695
-0.857895
-0.321487
-0.845147
-0.357036
-0.835869
-0.391866
-0.826848
-0.426579
-0.818368
-0.460849
-0.810136
-0.494862
-0.80349
-0.528393
-0.796958
-0.560886
-0.790698
-0.591672
-0.784399
-0.621203
-0.777978
-0.773401
-0.650263
-0.00389757
-0.430291
-0.0287383
-0.840991
-0.0680744
-0.898663
-0.108029
-0.882346
-0.147401
-0.868352
-0.186377
-0.854132
-0.224988
-0.841236
-0.263488
-0.829835
-0.301267
-0.820117
-0.338441
-0.807973
-0.376023
-0.798287
-0.413411
-0.789461
-0.450044
-0.781734
-0.486904
-0.773276
-0.523533
-0.76686
-0.559299
-0.761192
-0.59476
-0.755237
-0.629602
-0.749557
-0.663591
-0.743989
-0.739402
-0.697589
-0.00522688
-0.425064
-0.0356686
-0.810549
-0.0781742
-0.856158
-0.120393
-0.840126
-0.161861
-0.826884
-0.202869
-0.813124
-0.243667
-0.800439
-0.283944
-0.789558
-0.323103
-0.780958
-0.361831
-0.769245
-0.40023
-0.759888
-0.43842
-0.751271
-0.47634
-0.743815
-0.513612
-0.736004
-0.551609
-0.728863
-0.589509
-0.723292
-0.626553
-0.718194
-0.663023
-0.713086
-0.699156
-0.707856
-0.703515
-0.735042
-0.00499826
-0.420066
-0.0397679
-0.775779
-0.0829008
-0.813025
-0.126344
-0.796684
-0.169382
-0.783845
-0.211844
-0.770662
-0.254079
-0.758204
-0.296634
-0.747004
-0.338188
-0.739404
-0.378598
-0.728835
-0.419373
-0.719113
-0.459929
-0.710715
-0.499858
-0.703886
-0.539529
-0.696334
-0.57866
-0.689732
-0.618078
-0.683874
-0.657766
-0.678505
-0.696552
-0.674301
-0.73494
-0.669468
-0.664877
-0.773578
-0.0016062
-0.41846
-0.0412216
-0.736164
-0.0881475
-0.766099
-0.134287
-0.750545
-0.179546
-0.738585
-0.224074
-0.726134
-0.268167
-0.714111
-0.312124
-0.703046
-0.355422
-0.696106
-0.397542
-0.686715
-0.438854
-0.6778
-0.48054
-0.66903
-0.521846
-0.662579
-0.56242
-0.65576
-0.60384
-0.648312
-0.644582
-0.643132
-0.685639
-0.637448
-0.726917
-0.633024
-0.766786
-0.629599
-0.62482
-0.806843
0.000386319
-0.418846
-0.0401191
-0.695659
-0.0900534
-0.716164
-0.139005
-0.701593
-0.186745
-0.690846
-0.232931
-0.679948
-0.278382
-0.66866
-0.324343
-0.657084
-0.369524
-0.650925
-0.4133
-0.642939
-0.45664
-0.63446
-0.49957
-0.6261
-0.542481
-0.619668
-0.583625
-0.614616
-0.624117
-0.60782
-0.665583
-0.601667
-0.706376
-0.596655
-0.748294
-0.591105
-0.790201
-0.587692
-0.584188
-0.830833
0.000192574
-0.419039
-0.0441794
-0.651287
-0.0966272
-0.663717
-0.146935
-0.651285
-0.196369
-0.641412
-0.244412
-0.631905
-0.290885
-0.622187
-0.3375
-0.610469
-0.384373
-0.604052
-0.429692
-0.59762
-0.473404
-0.590747
-0.517514
-0.581991
-0.562804
-0.574379
-0.607806
-0.569614
-0.650839
-0.564787
-0.693026
-0.55948
-0.735157
-0.554523
-0.776582
-0.54968
-0.81929
-0.544984
-0.541599
-0.861879
0.000157391
-0.419196
-0.0467284
-0.604401
-0.100865
-0.60958
-0.153294
-0.598856
-0.204529
-0.590177
-0.254022
-0.582413
-0.301659
-0.57455
-0.349197
-0.56293
-0.397071
-0.556179
-0.444332
-0.550358
-0.489659
-0.545421
-0.531818
-0.539832
-0.574792
-0.531404
-0.619024
-0.525382
-0.663331
-0.520479
-0.706677
-0.516135
-0.749159
-0.512042
-0.791024
-0.507815
-0.832048
-0.503961
-0.4997
-0.873947
-0.00775972
-0.411436
-0.0578379
-0.554323
-0.112679
-0.554739
-0.165111
-0.546424
-0.217127
-0.53816
-0.268287
-0.531254
-0.316518
-0.526319
-0.363833
-0.515615
-0.412308
-0.507705
-0.460861
-0.501805
-0.510158
-0.496124
-0.557473
-0.492517
-0.60169
-0.487188
-0.646452
-0.480619
-0.691441
-0.47549
-0.736955
-0.47062
-0.781914
-0.467083
-0.826164
-0.463565
-0.869349
-0.460776
-0.457885
-0.911164
-0.0161994
-0.395237
-0.0657793
-0.504743
-0.119311
-0.501207
-0.172348
-0.493387
-0.224594
-0.485914
-0.276647
-0.4792
-0.326619
-0.476347
-0.3739
-0.468334
-0.421301
-0.460304
-0.468227
-0.454878
-0.514997
-0.449354
-0.562275
-0.44524
-0.607764
-0.441698
-0.651195
-0.437188
-0.694735
-0.43195
-0.738295
-0.42706
-0.783066
-0.422313
-0.82818
-0.41845
-0.874014
-0.414942
-0.412271
-0.919628
-0.0255449
-0.369692
-0.078128
-0.45216
-0.132497
-0.446838
-0.184904
-0.44098
-0.237635
-0.433183
-0.291498
-0.425338
-0.34354
-0.424304
-0.392831
-0.419044
-0.442247
-0.410887
-0.49225
-0.404876
-0.542399
-0.399205
-0.592366
-0.395273
-0.642039
-0.392025
-0.68967
-0.389557
-0.734845
-0.386775
-0.7786
-0.383305
-0.820938
-0.379975
-0.863298
-0.376091
-0.905347
-0.372893
-0.369432
-0.948186
-0.0315689
-0.338123
-0.0833963
-0.400332
-0.137565
-0.39267
-0.190845
-0.3877
-0.241544
-0.382484
-0.29451
-0.372372
-0.348396
-0.370419
-0.396901
-0.370539
-0.442629
-0.365159
-0.487755
-0.35975
-0.533645
-0.353315
-0.58126
-0.347658
-0.630038
-0.343248
-0.680324
-0.339271
-0.730314
-0.336785
-0.779548
-0.334071
-0.8277
-0.331824
-0.874372
-0.329419
-0.920222
-0.327042
-0.324642
-0.965012
-0.0399643
-0.298159
-0.0954041
-0.344892
-0.15036
-0.337714
-0.204205
-0.333855
-0.256107
-0.330582
-0.307618
-0.320861
-0.365439
-0.312597
-0.423755
-0.312223
-0.477727
-0.311187
-0.528181
-0.309297
-0.574891
-0.306604
-0.620157
-0.302392
-0.664876
-0.298529
-0.709663
-0.294483
-0.755638
-0.29081
-0.801883
-0.287826
-0.84885
-0.284856
-0.895789
-0.282479
-0.942765
-0.280067
-0.277977
-0.98943
-0.0423947
-0.255764
-0.0979817
-0.289305
-0.154502
-0.281193
-0.21041
-0.277947
-0.260655
-0.280336
-0.305448
-0.276069
-0.350951
-0.267094
-0.402173
-0.261001
-0.456097
-0.257262
-0.51042
-0.254974
-0.564101
-0.252924
-0.615459
-0.251033
-0.665654
-0.248334
-0.71405
-0.246087
-0.761631
-0.243229
-0.808752
-0.240706
-0.855405
-0.238203
-0.90221
-0.235674
-0.948728
-0.233549
-0.230962
-0.995743
-0.047883
-0.207881
-0.106616
-0.230572
-0.161236
-0.226573
-0.222161
-0.217022
-0.28581
-0.216687
-0.341737
-0.220142
-0.391917
-0.216914
-0.438886
-0.214033
-0.48665
-0.209498
-0.534973
-0.206651
-0.584194
-0.203703
-0.633714
-0.201513
-0.682647
-0.199401
-0.731653
-0.197081
-0.779479
-0.195403
-0.827223
-0.192962
-0.873997
-0.191429
-0.920629
-0.189042
-0.966618
-0.18756
-0.185296
-1.01228
-0.0517544
-0.156127
-0.110228
-0.172099
-0.160845
-0.175956
-0.206611
-0.171256
-0.260813
-0.162486
-0.318597
-0.162358
-0.374514
-0.160997
-0.4292
-0.159346
-0.480742
-0.157956
-0.532308
-0.155084
-0.58213
-0.153882
-0.632454
-0.151189
-0.681653
-0.150202
-0.730911
-0.147823
-0.779521
-0.146793
-0.827724
-0.144759
-0.875511
-0.143641
-0.92269
-0.141864
-0.969528
-0.140722
-0.139075
-1.01575
-0.0503836
-0.105743
-0.114167
-0.108316
-0.177446
-0.112676
-0.234113
-0.11459
-0.284091
-0.112507
-0.337542
-0.108908
-0.389998
-0.10854
-0.443248
-0.106096
-0.49535
-0.105855
-0.546632
-0.103801
-0.597447
-0.103066
-0.647107
-0.10153
-0.696779
-0.100529
-0.745205
-0.0993974
-0.793709
-0.0982885
-0.841093
-0.0973757
-0.888455
-0.096279
-0.934841
-0.0954777
-0.98112
-0.0944432
-0.093726
-1.02647
-0.0533429
-0.0524003
-0.10544
-0.0562183
-0.162193
-0.0559233
-0.219849
-0.0569345
-0.275975
-0.0563804
-0.329013
-0.0558708
-0.383088
-0.0544652
-0.435425
-0.0537589
-0.488583
-0.0526967
-0.540175
-0.0522094
-0.592105
-0.0511365
-0.642794
-0.0508413
-0.693409
-0.0499134
-0.743131
-0.0496756
-0.792485
-0.0489343
-0.841177
-0.0486846
-0.889386
-0.0480695
-0.93705
-0.047814
-0.984217
-0.0472755
-0.0469987
-1.03094
-0.068966
0.0165658
-0.119276
-0.00590823
-0.175557
0.00035798
-0.228583
-0.0039087
-0.284794
-0.000169768
-0.33858
-0.00208429
-0.392707
-0.000338863
-0.445098
-0.0013677
-0.497473
-0.000321488
-0.548683
-0.000999661
-0.599544
-0.000274818
-0.649612
-0.000773491
-0.699276
-0.00024984
-0.748279
-0.000672654
-0.796925
-0.000287671
-0.844935
-0.000675334
-0.892616
-0.000387802
-0.939676
-0.000754485
-0.9864
-0.000551392
-1.03243
-0.000965396
-0.00538747
0.0599563
-0.0545688
0.0206677
0.0258286
-0.0518838
0.10518
-0.092723
0.00821113
0.300828
-0.377058
0.18141
0.526678
-0.731764
0.505914
0.682666
-0.967417
0.811429
0.758173
-1.07348
0.997973
0.793292
-1.10985
1.07473
0.81184
-1.12022
1.10167
0.823875
-1.12161
1.10958
0.831879
-1.11893
1.11092
0.838132
-1.11447
1.10822
0.845172
-1.11246
1.10542
0.853105
-1.1103
1.10237
0.860018
-1.10965
1.10273
0.866193
-1.10719
1.10102
0.871929
-1.10714
1.10141
0.877647
-1.10439
1.09868
0.883747
-1.10446
1.09836
-1.10182
0.888625
1.09694
0.00822819
0.0517281
0.0541761
-0.0201193
0.176831
-0.215378
0.392722
-0.592948
0.56106
-0.900102
0.652603
-1.05896
0.692907
-1.11378
0.712113
-1.12905
0.723397
-1.1315
0.7304
-1.12861
0.735512
-1.12404
0.741842
-1.1208
0.748288
-1.11891
0.753873
-1.11589
0.759302
-1.11508
0.764996
-1.11289
0.770156
-1.1123
0.77461
-1.10885
0.778197
-1.10805
-1.1049
0.781273
0.0183719
0.0333562
0.0851967
-0.0869441
0.254028
-0.38421
0.43978
-0.7787
0.554707
-1.01503
0.604915
-1.10917
0.626631
-1.1355
0.637319
-1.13974
0.64379
-1.13797
0.647957
-1.13278
0.652887
-1.12897
0.657866
-1.12578
0.661962
-1.123
0.666492
-1.12042
0.670789
-1.11937
0.674236
-1.11633
0.676407
-1.11447
0.6784
-1.11084
0.680327
-1.10998
-1.10648
0.681908
0.032959
0.000397218
0.113385
-0.16737
0.291276
-0.562101
0.42966
-0.917084
0.501541
-1.08691
0.530337
-1.13797
0.542596
-1.14776
0.549564
-1.14671
0.554154
-1.14256
0.558223
-1.13685
0.562277
-1.13302
0.565764
-1.12927
0.56924
-1.12648
0.57237
-1.12355
0.574583
-1.12159
0.576243
-1.11799
0.577692
-1.11592
0.579431
-1.11258
0.580755
-1.1113
-1.10632
0.580601
0.0394045
-0.0390072
0.141263
-0.269229
0.299843
-0.720681
0.402022
-1.01926
0.444227
-1.12911
0.461431
-1.15517
0.469595
-1.15592
0.47504
-1.15215
0.47828
-1.1458
0.481161
-1.13973
0.483771
-1.13563
0.486099
-1.1316
0.487622
-1.128
0.488838
-1.12476
0.489529
-1.12228
0.489737
-1.1182
0.489338
-1.11552
0.488539
-1.11178
0.487082
-1.10985
-1.10384
0.484601
0.0363877
-0.0753949
0.158433
-0.391275
0.283227
-0.845474
0.349681
-1.08572
0.376008
-1.15544
0.386049
-1.16521
0.39192
-1.16179
0.394081
-1.15432
0.396022
-1.14774
0.397908
-1.14162
0.399329
-1.13705
0.399818
-1.13209
0.400056
-1.12824
0.399918
-1.12462
0.39881
-1.12117
0.397116
-1.11651
0.395107
-1.11351
0.393143
-1.10982
0.390451
-1.10716
-1.10003
0.386634
0.0372482
-0.112643
0.155399
-0.509426
0.253064
-0.943139
0.299542
-1.1322
0.315646
-1.17155
0.322369
-1.17193
0.324932
-1.16436
0.326819
-1.1562
0.328218
-1.14914
0.328512
-1.14191
0.328018
-1.13656
0.326987
-1.13105
0.325245
-1.1265
0.322767
-1.12215
0.319611
-1.11801
0.316121
-1.11302
0.312176
-1.10957
0.307764
-1.1054
0.302374
-1.10177
-1.09378
0.296128
0.0397224
-0.152366
0.140004
-0.609708
0.213878
-1.01701
0.24339
-1.16171
0.25248
-1.18064
0.25602
-1.17547
0.256569
-1.16491
0.256665
-1.1563
0.255356
-1.14784
0.25355
-1.1401
0.251194
-1.1342
0.247974
-1.12783
0.244338
-1.12286
0.240246
-1.11805
0.235397
-1.11316
0.230056
-1.10768
0.224238
-1.10375
0.218141
-1.09931
0.211286
-1.09491
-1.08632
0.203825
0.0462276
-0.198593
0.129351
-0.692831
0.184197
-1.07186
0.201563
-1.17907
0.205188
-1.18426
0.204536
-1.17482
0.202917
-1.16329
0.200508
-1.15389
0.197441
-1.14477
0.193534
-1.1362
0.18886
-1.12953
0.183573
-1.12255
0.177678
-1.11697
0.171035
-1.11141
0.163795
-1.10593
0.15624
-1.10012
0.148258
-1.09577
0.13989
-1.09094
0.130872
-1.08589
-1.07688
0.121436
0.0451914
-0.243785
0.11018
-0.757819
0.147613
-1.10929
0.154273
-1.18573
0.153411
-1.1834
0.149452
-1.17086
0.145155
-1.15899
0.140052
-1.14879
0.13396
-1.13868
0.127333
-1.12957
0.120176
-1.12237
0.112365
-1.11474
0.104144
-1.10875
0.0954934
-1.10276
0.0863222
-1.09675
0.0767559
-1.09055
0.0667625
-1.08577
0.0564961
-1.08067
0.0457186
-1.07511
-1.06584
0.0346741
0.0405832
-0.284368
0.0954011
-0.812637
0.119966
-1.13386
0.120391
-1.18616
0.115343
-1.17835
0.108696
-1.16421
0.101514
-1.15181
0.0936288
-1.1409
0.0851222
-1.13017
0.0759732
-1.12042
0.06627
-1.11267
0.0559873
-1.10445
0.0451791
-1.09794
0.0338195
-1.0914
0.022005
-1.08494
0.00980463
-1.07835
-0.00283287
-1.07314
-0.0157693
-1.06774
-0.0290077
-1.06188
-1.05247
-0.0423788
0.0334985
-0.317866
0.0743935
-0.853532
0.087192
-1.14666
0.0819379
-1.1809
0.0727534
-1.16917
0.063102
-1.15456
0.0527734
-1.14148
0.041849
-1.12998
0.0303063
-1.11863
0.0182655
-1.10838
0.00574717
-1.10015
-0.00722991
-1.09148
-0.0205623
-1.08461
-0.0342831
-1.07768
-0.0483731
-1.07085
-0.0627579
-1.06397
-0.0775208
-1.05837
-0.0925396
-1.05272
-0.107824
-1.04659
-1.03718
-0.123108
0.030006
-0.347872
0.0630219
-0.886548
0.0668447
-1.15048
0.0569953
-1.17105
0.0443743
-1.15655
0.0314925
-1.14168
0.0180455
-1.12803
0.00416194
-1.11609
-0.0102243
-1.10424
-0.025084
-1.09352
-0.0402036
-1.08503
-0.0558285
-1.07585
-0.0718753
-1.06856
-0.0881976
-1.06136
-0.104817
-1.05423
-0.121924
-1.04686
-0.139436
-1.04086
-0.156975
-1.03518
-0.174263
-1.0293
-1.01993
-0.191514
0.0231875
-0.37106
0.0441588
-0.907519
0.0403417
-1.14666
0.0255983
-1.15631
0.0093406
-1.14029
-0.00690912
-1.12543
-0.0235204
-1.11142
-0.040511
-1.0991
-0.0577531
-1.087
-0.0754445
-1.07583
-0.0935173
-1.06696
-0.111782
-1.05759
-0.130373
-1.04997
-0.149272
-1.04246
-0.168279
-1.03522
-0.187431
-1.02771
-0.206952
-1.02134
-0.226835
-1.0153
-0.246544
-1.0096
-1.00054
-0.265942
0.0193542
-0.390414
0.0337877
-0.921953
0.0234742
-1.13635
0.00606644
-1.1389
-0.0125666
-1.12165
-0.0315737
-1.10642
-0.0509296
-1.09207
-0.0705969
-1.07943
-0.0907062
-1.06689
-0.111194
-1.05534
-0.131777
-1.04638
-0.152812
-1.03655
-0.174125
-1.02866
-0.195548
-1.02104
-0.217138
-1.01363
-0.239122
-1.00573
-0.261357
-0.999105
-0.283524
-0.993129
-0.3051
-0.98802
-0.979196
-0.326439
0.0145797
-0.404994
0.0215476
-0.928921
0.00436347
-1.11916
-0.0179321
-1.11661
-0.0403752
-1.09921
-0.0630347
-1.08376
-0.0858143
-1.06929
-0.108746
-1.0565
-0.131581
-1.04405
-0.154818
-1.0321
-0.178301
-1.02289
-0.201707
-1.01315
-0.225457
-1.00491
-0.249439
-0.997054
-0.273286
-0.989786
-0.297176
-0.981837
-0.321556
-0.974725
-0.346494
-0.968191
-0.37101
-0.963503
-0.955524
-0.394681
0.0121919
-0.417186
0.0144811
-0.93121
-0.00581496
-1.09887
-0.0311558
-1.09127
-0.0565284
-1.07384
-0.0818571
-1.05844
-0.107185
-1.04396
-0.132594
-1.03109
-0.158276
-1.01837
-0.184172
-1.00621
-0.210114
-0.996951
-0.236383
-0.986876
-0.262717
-0.978571
-0.289123
-0.970648
-0.31557
-0.963339
-0.34214
-0.955267
-0.368762
-0.948103
-0.395513
-0.94144
-0.422323
-0.936694
-0.929648
-0.448199
0.00782456
-0.42501
0.0031974
-0.926583
-0.0230582
-1.07261
-0.0515647
-1.06276
-0.079945
-1.04546
-0.108338
-1.03004
-0.136624
-1.01567
-0.164861
-1.00286
-0.192732
-0.990501
-0.220981
-0.97796
-0.249405
-0.968527
-0.277669
-0.958612
-0.30634
-0.949901
-0.335228
-0.94176
-0.363899
-0.934668
-0.392509
-0.926657
-0.421574
-0.919039
-0.451263
-0.91175
-0.481257
-0.9067
-0.900455
-0.51045
0.00665475
-0.431665
-0.001223
-0.918705
-0.0301099
-1.04373
-0.0613932
-1.03148
-0.0922551
-1.0146
-0.123118
-0.99918
-0.153721
-0.985068
-0.184236
-0.972341
-0.214849
-0.959888
-0.24547
-0.947339
-0.276091
-0.937906
-0.306913
-0.92779
-0.337666
-0.919148
-0.368657
-0.910769
-0.399843
-0.903481
-0.431044
-0.895457
-0.462166
-0.887916
-0.493623
-0.880294
-0.526802
-0.87352
-0.868216
-0.559042
0.00294024
-0.010679
-0.043738
-0.0781058
-0.111665
-0.145016
-0.178118
-0.210848
-0.242981
-0.275532
-0.308167
-0.340506
-0.373214
-0.406012
-0.438602
-0.471265
-0.504469
-0.538012
-0.573295
-0.610716
0.804854
-9.72914
9.81291
0.738059
-9.57127
9.63806
0.674847
-9.57893
9.64214
0.613727
-9.57585
9.63697
0.553771
-9.55561
9.61557
0.500348
-9.55803
9.61146
0.450167
-9.56383
9.61401
0.40298
-9.55852
9.60571
0.359591
-9.57932
9.62271
0.319083
-9.57729
9.6178
0.282567
-9.5839
9.62042
0.248952
-9.58859
9.6222
0.218405
-9.58772
9.61827
0.190119
-9.58788
9.61617
0.164354
-9.58593
9.6117
0.139808
-9.55221
9.57675
0.119184
-9.47741
9.49804
0.0889261
-8.86577
8.89603
0.0432894
-6.97497
7.02061
-3.73599
3.77928
0.70477
-9.65264
0.641442
-9.50794
0.579636
-9.51712
0.52325
-9.51946
0.467948
-9.50031
0.416379
-9.50646
0.368989
-9.51644
0.327343
-9.51687
0.290356
-9.54233
0.256361
-9.5433
0.226324
-9.55386
0.199266
-9.56153
0.175368
-9.56383
0.153828
-9.56634
0.134724
-9.56683
0.117359
-9.53484
0.10327
-9.46332
0.0787364
-8.84123
0.0398336
-6.93607
-3.69616
0.605035
-9.57576
0.544173
-9.44708
0.487422
-9.46037
0.434891
-9.46693
0.385092
-9.45051
0.341732
-9.4631
0.302721
-9.47743
0.267354
-9.48151
0.235627
-9.5106
0.206908
-9.51458
0.181982
-9.52894
0.159874
-9.53942
0.140771
-9.54472
0.123843
-9.54941
0.10961
-9.55259
0.0968967
-9.52213
0.0878693
-9.45429
0.0704932
-8.82386
0.0379193
-6.9035
-3.65824
0.508155
-9.50332
0.450253
-9.38918
0.394639
-9.40476
0.345728
-9.41802
0.300494
-9.40528
0.259295
-9.4219
0.223089
-9.44122
0.192888
-9.45131
0.167328
-9.48504
0.144968
-9.49222
0.126303
-9.51027
0.110574
-9.52369
0.0979664
-9.53211
0.0876779
-9.53913
0.0800319
-9.54495
0.0744505
-9.51655
0.0720074
-9.45185
0.060592
-8.81244
0.0346635
-6.87757
-3.62357
0.41067
-9.42939
0.354595
-9.3331
0.304142
-9.3543
0.259392
-9.37327
0.219466
-9.36535
0.186047
-9.38849
0.157993
-9.41317
0.133908
-9.42722
0.113468
-9.4646
0.0962407
-9.47499
0.0825684
-9.4966
0.0716942
-9.51282
0.0637625
-9.52418
0.0579802
-9.53334
0.055094
-9.54206
0.0540742
-9.51553
0.0566717
-9.45445
0.0523858
-8.80816
0.0327732
-6.85795
-3.5908
0.317462
-9.36022
0.264101
-9.27974
0.214681
-9.30488
0.171887
-9.33047
0.136189
-9.32965
0.105507
-9.3578
0.0803015
-9.38796
0.060996
-9.40792
0.0464872
-9.45009
0.0354252
-9.46393
0.0277946
-9.48897
0.0231065
-9.50813
0.0214954
-9.52257
0.022204
-9.53405
0.0257832
-9.54564
0.031805
-9.52155
0.0409655
-9.46361
0.0427942
-8.80999
0.0297423
-6.8449
-3.56106
0.223881
-9.28797
0.171147
-9.22701
0.126208
-9.25994
0.0879477
-9.29221
0.0579896
-9.2997
0.0346355
-9.33445
0.0169161
-9.37024
0.00339498
-9.39439
-0.00616136
-9.44054
-0.0122671
-9.45782
-0.0150576
-9.48618
-0.0150272
-9.50816
-0.0120924
-9.52551
-0.00700392
-9.53914
0.00119607
-9.55384
0.0116618
-9.53202
0.0257975
-9.47774
0.0346811
-8.81887
0.0279164
-6.83814
-3.53314
0.132134
-9.21628
0.0834742
-9.17835
0.0400871
-9.21656
0.00310856
-9.25523
-0.0236182
-9.27297
-0.0438353
-9.31423
-0.0585298
-9.35555
-0.0675363
-9.38539
-0.0714184
-9.43665
-0.0716082
-9.45763
-0.0685701
-9.48922
-0.0625735
-9.51416
-0.0535188
-9.53456
-0.0421215
-9.55054
-0.0276422
-9.56832
-0.0102765
-9.54938
0.010342
-9.49836
0.0254288
-8.83396
0.0251169
-6.83783
-3.50802
0.0434238
-9.13827
-0.00481396
-9.13011
-0.0456283
-9.17574
-0.0786281
-9.22223
-0.098327
-9.25327
-0.111865
-9.30069
-0.119807
-9.34761
-0.123459
-9.38174
-0.122554
-9.43756
-0.117983
-9.4622
-0.110293
-9.49691
-0.099739
-9.52471
-0.0862826
-9.54802
-0.0706471
-9.56617
-0.0517308
-9.58724
-0.03007
-9.57104
-0.004564
-9.52387
0.0174442
-8.85596
0.0233628
-6.84374
-3.48466
-0.0437188
-9.05987
-0.090264
-9.08356
-0.128076
-9.13793
-0.160871
-9.18944
-0.177349
-9.23679
-0.187928
-9.29011
-0.1927
-9.34283
-0.191971
-9.38247
-0.185715
-9.44382
-0.175519
-9.4724
-0.162212
-9.51021
-0.145941
-9.54098
-0.126591
-9.56737
-0.10488
-9.58788
-0.0799238
-9.61219
-0.051575
-9.59939
-0.0196765
-9.55577
0.00848214
-8.88412
0.0207857
-6.85605
-3.46388
-0.125653
-8.9766
-0.17487
-9.03435
-0.210341
-9.10246
-0.238566
-9.16121
-0.248605
-9.22675
-0.25285
-9.28587
-0.251559
-9.34412
-0.245886
-9.38814
-0.235072
-9.45463
-0.220335
-9.48713
-0.202571
-9.52798
-0.181926
-9.56163
-0.158344
-9.59095
-0.132563
-9.61366
-0.103381
-9.64137
-0.0709516
-9.63182
-0.0342488
-9.59247
0.000556663
-8.91893
0.0191145
-6.87461
-3.44476
-0.208581
-8.89113
-0.255517
-8.98741
-0.289515
-9.06846
-0.316821
-9.13391
-0.324409
-9.21916
-0.326174
-9.2841
-0.321513
-9.34879
-0.311595
-9.39806
-0.295776
-9.47045
-0.275721
-9.50719
-0.252581
-9.55112
-0.226495
-9.58771
-0.19729
-9.62016
-0.165706
-9.64525
-0.130751
-9.67633
-0.0919241
-9.67065
-0.0489756
-9.63542
-0.00812299
-8.95978
0.0167108
-6.89944
-3.42805
-0.285229
-8.79741
-0.335309
-8.93733
-0.36782
-9.03595
-0.390391
-9.11134
-0.391985
-9.21757
-0.387903
-9.28819
-0.377682
-9.35901
-0.363194
-9.41255
-0.343096
-9.49055
-0.318739
-9.53155
-0.291354
-9.5785
-0.26109
-9.61798
-0.227855
-9.65339
-0.192397
-9.68071
-0.153453
-9.71527
-0.110811
-9.71329
-0.0632269
-9.683
-0.0158871
-9.00712
0.0150835
-6.93041
-3.41297
-0.363211
-8.70014
-0.411755
-8.88879
-0.44308
-9.00463
-0.464204
-9.09021
-0.46401
-9.21777
-0.457938
-9.29426
-0.444321
-9.37262
-0.425743
-9.43112
-0.401006
-9.51528
-0.371655
-9.5609
-0.339162
-9.611
-0.303753
-9.65339
-0.265204
-9.69194
-0.224259
-9.72165
-0.179854
-9.75968
-0.131174
-9.76197
-0.0776048
-9.73657
-0.0243766
-9.06035
0.0128524
-6.96764
-3.40011
-0.434405
-8.59217
-0.487207
-8.83599
-0.517259
-8.97457
-0.533508
-9.07396
-0.527896
-9.22338
-0.516416
-9.30574
-0.497691
-9.39135
-0.474808
-9.45401
-0.446071
-9.54402
-0.412669
-9.5943
-0.376148
-9.64752
-0.336767
-9.69277
-0.294408
-9.7343
-0.249815
-9.76624
-0.201693
-9.8078
-0.149504
-9.81416
-0.091562
-9.79451
-0.0321182
-9.11979
0.011381
-7.01114
-3.38873
-0.50593
-8.48093
-0.558621
-8.7833
-0.587818
-8.94538
-0.602546
-9.05923
-0.595813
-9.23011
-0.582647
-9.3189
-0.560691
-9.41331
-0.533859
-9.48084
-0.500846
-9.57703
-0.462801
-9.63235
-0.42147
-9.68885
-0.377262
-9.73697
-0.329922
-9.78164
-0.280202
-9.81597
-0.226979
-9.86102
-0.169144
-9.87199
-0.105521
-9.85814
-0.0403378
-9.18498
0.00947027
-7.06095
-3.37926
-0.573022
-8.3561
-0.629692
-8.72663
-0.657066
-8.918
-0.667175
-9.04913
-0.655631
-9.24165
-0.637455
-9.33708
-0.610973
-9.43979
-0.580075
-9.51174
-0.543338
-9.61377
-0.501524
-9.67416
-0.456403
-9.73397
-0.408445
-9.78493
-0.357538
-9.83255
-0.304428
-9.86907
-0.247832
-9.91762
-0.186786
-9.93304
-0.11911
-9.92581
-0.048138
-9.25595
0.00788284
-7.11697
-3.37138
-0.641476
-8.22508
-0.698012
-8.67009
-0.723541
-8.89247
-0.732349
-9.04032
-0.720203
-9.2538
-0.700293
-9.35699
-0.670582
-9.4695
-0.635763
-9.54656
-0.594976
-9.65456
-0.548805
-9.72033
-0.499145
-9.78363
-0.446643
-9.83743
-0.391065
-9.88812
-0.333191
-9.92695
-0.271876
-9.97894
-0.205634
-9.99928
-0.132597
-9.99885
-0.0559865
-9.33256
0.0061956
-7.17915
-3.36519
-0.696247
-8.08787
-0.763612
-8.60272
-0.787935
-8.86815
-0.79302
-9.03523
-0.776594
-9.27023
-0.75215
-9.38143
-0.71845
-9.5032
-0.679695
-9.58531
-0.635236
-9.69902
-0.585496
-9.77007
-0.532199
-9.83692
-0.476113
-9.89352
-0.417166
-9.94707
-0.356194
-9.98792
-0.291801
-10.0433
-0.222689
-10.0684
-0.146251
-10.0753
-0.0644423
-9.41437
0.00497196
-7.24856
-3.36021
-0.746439
-7.95215
-0.820986
-8.52818
-0.843457
-8.84568
-0.848169
-9.03052
-0.832867
-9.28553
-0.806862
-9.40744
-0.771082
-9.53898
-0.729063
-9.62733
-0.681485
-9.74659
-0.628086
-9.82347
-0.571074
-9.89394
-0.510891
-9.9537
-0.447966
-10.01
-0.382649
-10.0532
-0.314346
-10.1116
-0.240185
-10.1426
-0.159747
-10.1557
-0.0716114
-9.5025
0.00393766
-7.32411
-3.35628
7.93962
-7.54622
-8.34555
7.25706
-7.84562
6.63815
-8.22677
6.06758
-8.45994
5.50531
-8.72326
4.9896
-8.89173
4.51677
-9.06615
4.09242
-9.20297
3.69172
-9.3459
3.31414
-9.44589
2.95283
-9.53263
2.60527
-9.60614
2.2673
-9.67203
1.94278
-9.72872
1.61843
-9.78728
1.33422
-9.85835
1.01608
-9.83758
0.671383
-9.15781
0.302852
-6.95558
-3.05342
4.66953
-7.44522
-4.77052
4.50597
-7.68206
4.2681
-7.98891
4.02601
-8.21785
3.74802
-8.44527
3.47995
-8.62367
3.20394
-8.79014
2.93507
-8.9341
2.65409
-9.06492
2.3762
-9.168
2.10573
-9.26216
1.8506
-9.35101
1.61
-9.43143
1.39054
-9.50926
1.17845
-9.57519
0.970105
-9.65
0.746282
-9.61376
0.50359
-8.91512
0.161381
-6.61337
-2.89204
3.35149
-7.52425
-3.27247
3.38879
-7.71936
3.34724
-7.94735
3.26263
-8.13324
3.12189
-8.30453
2.96006
-8.46183
2.77582
-8.6059
2.58017
-8.73845
2.37217
-8.85692
2.1652
-8.96103
1.95589
-9.05286
1.74603
-9.14115
1.53272
-9.21812
1.32329
-9.29982
1.10891
-9.36081
0.889812
-9.4309
0.672887
-9.39683
0.457737
-8.69997
0.208091
-6.36373
-2.68395
2.15313
-7.68002
-1.99736
2.25126
-7.81749
2.26051
-7.95659
2.23537
-8.1081
2.1754
-8.24457
2.09196
-8.3784
1.98193
-8.49586
1.85188
-8.6084
1.70578
-8.71083
1.55432
-8.80957
1.39939
-8.89793
1.24208
-8.98384
1.08637
-9.0624
0.932888
-9.14634
0.786184
-9.21411
0.635939
-9.28066
0.486071
-9.24696
0.340197
-8.55409
0.156795
-6.18032
-2.52716
1.52213
-7.81271
-1.38944
1.60554
-7.90091
1.66235
-8.0134
1.68988
-8.13562
1.67927
-8.23396
1.63845
-8.33758
1.57569
-8.4331
1.49561
-8.52832
1.39859
-8.61381
1.29173
-8.70271
1.17673
-8.78292
1.0522
-8.85931
0.923872
-8.93408
0.781874
-9.00434
0.637788
-9.07002
0.486447
-9.12931
0.34144
-9.10196
0.238572
-8.45123
0.137235
-6.07899
-2.38992
1.01442
-7.92192
-0.905216
1.11034
-7.99683
1.16352
-8.06658
1.17646
-8.14856
1.16851
-8.22601
1.14013
-8.3092
1.09565
-8.38862
1.03404
-8.46671
0.96026
-8.54003
0.877143
-8.61959
0.791185
-8.69696
0.698182
-8.76631
0.599132
-8.83503
0.490642
-8.89585
0.380877
-8.96026
0.280971
-9.02941
0.188642
-9.00963
0.141269
-8.40385
0.103911
-6.04163
-2.28601
0.683124
-8.00037
-0.604672
0.736075
-8.04978
0.771141
-8.10164
0.799084
-8.17651
0.815561
-8.24249
0.81143
-8.30507
0.792082
-8.36927
0.754816
-8.42944
0.709233
-8.49444
0.645904
-8.55626
0.569465
-8.62052
0.483894
-8.68074
0.389715
-8.74085
0.29382
-8.79996
0.196238
-8.86268
0.0922774
-8.92545
-0.00542002
-8.91193
-0.0261048
-8.38317
0.0418705
-6.1096
-2.24414
0.464975
-8.05422
-0.411128
0.510647
-8.09545
0.544934
-8.13593
0.554988
-8.18656
0.545713
-8.23321
0.524747
-8.2841
0.494044
-8.33857
0.456184
-8.39158
0.411579
-8.44984
0.354253
-8.49894
0.285857
-8.55213
0.213999
-8.60888
0.140452
-8.6673
0.0668108
-8.72632
-0.0135318
-8.78233
-0.0984527
-8.84053
-0.169024
-8.84136
-0.154534
-8.39766
0.000414015
-6.26455
-2.24373
0.279223
-8.08767
-0.245773
0.301158
-8.11739
0.315352
-8.15013
0.317105
-8.18831
0.31236
-8.22847
0.297035
-8.26878
0.269129
-8.31067
0.233715
-8.35616
0.186809
-8.40293
0.132938
-8.44507
0.0767057
-8.4959
0.0142257
-8.5464
-0.0523247
-8.60075
-0.125965
-8.65268
-0.203382
-8.70492
-0.289394
-8.75452
-0.355798
-8.77495
-0.321722
-8.43173
-0.0904577
-6.49582
-2.33418
0.176376
-8.10614
-0.157899
0.189056
-8.13007
0.195361
-8.15643
0.192902
-8.18585
0.179768
-8.21533
0.15353
-8.24254
0.119783
-8.27692
0.0774734
-8.31385
0.0265703
-8.35203
-0.024153
-8.39434
-0.080733
-8.43932
-0.145408
-8.48172
-0.216632
-8.52953
-0.295578
-8.57373
-0.374844
-8.62565
-0.458322
-8.67104
-0.534004
-8.69927
-0.510911
-8.45483
-0.216021
-6.79071
-2.5502
0.0737249
-8.11043
-0.0694424
0.0723849
-8.12873
0.0654851
-8.14953
0.0498288
-8.1702
0.027102
-8.19261
0.00262266
-8.21806
-0.0253993
-8.2489
-0.0630805
-8.27617
-0.108295
-8.30681
-0.160744
-8.34189
-0.222776
-8.37728
-0.292727
-8.41177
-0.370145
-8.45211
-0.453008
-8.49087
-0.542948
-8.53571
-0.633075
-8.58091
-0.720119
-8.61223
-0.716347
-8.4586
-0.389208
-7.11785
-2.93941
0.0178318
-8.1076
-0.0206561
0.00960103
-8.1205
-0.00221225
-8.13772
-0.019043
-8.15337
-0.0406457
-8.171
-0.0682571
-8.19045
-0.105199
-8.21196
-0.147703
-8.23367
-0.194941
-8.25958
-0.25348
-8.28335
-0.320526
-8.31024
-0.392025
-8.34027
-0.473961
-8.37017
-0.560579
-8.40425
-0.66137
-8.43492
-0.766485
-8.4758
-0.868765
-8.50995
-0.895866
-8.4315
-0.601643
-7.41207
-3.54106
-0.0306921
-8.09663
0.0197192
-0.0463843
-8.10481
-0.0674145
-8.11669
-0.0938752
-8.12691
-0.124433
-8.14045
-0.160314
-8.15457
-0.199367
-8.1729
-0.243419
-8.18962
-0.295808
-8.20719
-0.353316
-8.22585
-0.416937
-8.24662
-0.489332
-8.26788
-0.569141
-8.29037
-0.657116
-8.31628
-0.756034
-8.336
-0.866937
-8.36489
-0.995139
-8.38175
-1.07583
-8.35081
-0.856398
-7.6315
-4.39745
-0.0591101
-8.08307
0.0455483
-0.0747579
-8.08916
-0.0936857
-8.09776
-0.11578
-8.10481
-0.140967
-8.11526
-0.17233
-8.12321
-0.21004
-8.13519
-0.254191
-8.14546
-0.303265
-8.15812
-0.358029
-8.17108
-0.420271
-8.18438
-0.491493
-8.19666
-0.572501
-8.20936
-0.66481
-8.22397
-0.76764
-8.23317
-0.88167
-8.25086
-1.01369
-8.24973
-1.12072
-8.24377
-0.94655
-7.80567
-5.34401
-0.0747908
-8.06585
0.0575708
-0.0944153
-8.06953
-0.117189
-8.07499
-0.142326
-8.07968
-0.170467
-8.08712
-0.199489
-8.09418
-0.232453
-8.10223
-0.269576
-8.10834
-0.310497
-8.11719
-0.359257
-8.12232
-0.411925
-8.13171
-0.470795
-8.13779
-0.533399
-8.14675
-0.60822
-8.14915
-0.683957
-8.15743
-0.778641
-8.15618
-0.873262
-8.15511
-0.97826
-8.13877
-0.856636
-7.92729
-6.20064
-0.0706972
-8.05142
0.0562735
-0.0865751
-8.05366
-0.104726
-8.05683
-0.124759
-8.05964
-0.148102
-8.06377
-0.174542
-8.06774
-0.204269
-8.0725
-0.236829
-8.07578
-0.272837
-8.08119
-0.311617
-8.08354
-0.354058
-8.08927
-0.402961
-8.08888
-0.455852
-8.09386
-0.516435
-8.08856
-0.580957
-8.09291
-0.658709
-8.07843
-0.736372
-8.07745
-0.821745
-8.0534
-0.751095
-7.99794
-6.95174
-0.0648353
-8.03821
0.0516196
-0.0792237
-8.03927
-0.0950211
-8.04104
-0.112001
-8.04266
-0.130473
-8.0453
-0.150578
-8.04764
-0.172939
-8.05014
-0.19707
-8.05165
-0.223828
-8.05443
-0.252477
-8.05489
-0.284423
-8.05732
-0.316839
-8.05647
-0.352525
-8.05818
-0.387616
-8.05347
-0.428833
-8.0517
-0.465518
-8.04174
-0.505167
-8.0378
-0.534021
-8.02455
-0.51687
-8.01509
-7.46861
-0.0485152
-8.0289