/*--------------------------------*- C++ -*----------------------------------*\
  =========                 |
  \\      /  F ield         | OpenFOAM: The Open Source CFD Toolbox
   \\    /   O peration     | Website:  https://openfoam.org
    \\  /    A nd           | Version:  9
     \\/     M anipulation  |
\*---------------------------------------------------------------------------*/
FoamFile
{
    format      ascii;
    class       volVectorField;
    location    "1.3";
    object      U;
}
// * * * * * * * * * * * * * * * * * * * * * * * * * * * * * * * * * * * * * //

dimensions      [0 1 -1 0 0 0 0];

internalField   nonuniform List<vector> 
46400
(
(7.77217 -7.60117 -1.48644e-19)
(16.2425 -15.4414 9.08265e-20)
(17.5919 -17.4892 -5.98549e-20)
(17.0384 -17.5576 -6.5831e-20)
(16.5422 -17.5725 -4.51806e-20)
(15.9867 -17.6179 1.41569e-19)
(15.5007 -17.6311 -1.06931e-19)
(15.0186 -17.6622 5.14473e-20)
(14.589 -17.7107 -5.76127e-20)
(14.1477 -17.7283 6.29563e-20)
(13.7389 -17.7612 -6.75434e-20)
(13.374 -17.8193 0)
(13.0125 -17.8745 4.65509e-19)
(12.6658 -17.9083 -5.32002e-19)
(12.3588 -17.9995 -6.7038e-19)
(12.0531 -18.0405 -1.12281e-19)
(11.7215 -18.0792 -2.87665e-20)
(11.4301 -18.0578 5.34303e-19)
(11.149 -18.052 7.28464e-19)
(10.726 -18.2463 -6.73046e-19)
(8.10576 -7.30565 0)
(16.4341 -14.5279 -2.94247e-20)
(17.6021 -16.3252 0)
(16.9778 -16.4196 1.59734e-19)
(16.4058 -16.4249 -1.41631e-19)
(15.8314 -16.4993 3.60988e-20)
(15.3321 -16.5582 0)
(14.8759 -16.657 -5.1445e-20)
(14.4208 -16.7242 5.761e-20)
(13.9629 -16.747 -6.29548e-20)
(13.5862 -16.8657 7.12165e-19)
(13.1986 -16.9079 3.62005e-20)
(12.8415 -16.9998 -5.84835e-19)
(12.5109 -17.0659 0)
(12.191 -17.1516 8.04756e-20)
(11.9124 -17.2358 8.27115e-20)
(11.6312 -17.3338 0)
(11.3848 -17.3683 -7.73235e-19)
(11.1343 -17.4062 -1.98967e-19)
(10.8129 -17.62 7.87697e-19)
(8.36046 -6.84561 6.7061e-20)
(16.4671 -13.6141 -1.78201e-19)
(17.3707 -14.9589 1.73266e-19)
(16.7214 -15.1374 2.62384e-19)
(16.2435 -15.2386 -2.57594e-19)
(15.6825 -15.3642 0)
(15.178 -15.4582 -7.87567e-19)
(14.7004 -15.5634 6.79652e-19)
(14.2836 -15.7102 -8.68714e-19)
(13.8282 -15.7744 8.59133e-19)
(13.4077 -15.8718 8.14251e-19)
(13.0536 -16.0005 -8.06876e-20)
(12.682 -16.1062 -7.05629e-19)
(12.3359 -16.1943 0)
(12.0247 -16.3319 8.68182e-19)
(11.7203 -16.4222 -8.55018e-19)
(11.4103 -16.5304 0)
(11.1524 -16.5958 -1.53634e-20)
(10.8753 -16.6776 1.00321e-19)
(10.5126 -16.9178 -9.18544e-19)
(8.56406 -6.41113 -1.97507e-19)
(16.3908 -12.6006 4.65932e-20)
(17.1499 -13.7998 3.47885e-19)
(16.4734 -13.9964 -3.43641e-19)
(15.9028 -14.0975 -2.95952e-19)
(15.3453 -14.2481 4.00881e-19)
(14.8396 -14.3968 5.44073e-19)
(14.3869 -14.5558 -1.36572e-18)
(13.9471 -14.7149 1.14231e-18)
(13.504 -14.8117 -1.0774e-19)
(13.1102 -14.9696 0)
(12.726 -15.0679 1.12318e-19)
(12.3901 -15.2388 -1.13893e-19)
(12.0515 -15.3402 0)
(11.7356 -15.4827 1.00474e-18)
(11.4819 -15.6456 -8.56188e-19)
(11.2058 -15.8011 0)
(10.967 -15.9077 1.16812e-19)
(10.724 -16.0303 1.29662e-19)
(10.3789 -16.3078 1.04176e-18)
(8.70984 -5.96903 0)
(16.1963 -11.5273 0)
(16.6902 -12.4825 -4.68933e-19)
(16.039 -12.7383 3.27733e-19)
(15.5628 -12.9448 -6.31939e-19)
(15.0146 -13.1379 5.1043e-19)
(14.4981 -13.3127 0)
(14.0298 -13.49 5.5971e-19)
(13.6402 -13.7363 -6.78278e-19)
(13.1935 -13.8654 -1.52275e-19)
(12.7731 -14.028 -1.52756e-19)
(12.4221 -14.2061 0)
(12.0537 -14.3681 1.15359e-18)
(11.7234 -14.5206 -1.13555e-18)
(11.3847 -14.6708 0)
(11.0787 -14.8031 -1.2737e-18)
(10.7945 -14.9856 1.12342e-18)
(10.5458 -15.1163 1.12426e-18)
(10.2835 -15.2503 -1.22568e-18)
(9.94179 -15.5519 0)
(8.89922 -5.50693 0)
(15.8341 -10.3485 0)
(16.2814 -11.3239 0)
(15.6032 -11.5893 -2.98609e-20)
(15.0275 -11.803 0)
(14.5033 -12.0319 0)
(13.9972 -12.2695 0)
(13.5397 -12.4751 -1.73856e-19)
(13.1339 -12.7389 0)
(12.733 -12.9296 1.52275e-19)
(12.3271 -13.1325 -2.06876e-20)
(11.951 -13.288 -1.48186e-18)
(11.6382 -13.5323 1.11719e-18)
(11.3114 -13.6841 -1.46333e-18)
(11.0124 -13.8932 1.10508e-18)
(10.7498 -14.0838 0)
(10.4639 -14.2684 -1.25854e-18)
(10.2452 -14.4564 1.077e-18)
(10.0119 -14.6217 0)
(9.66331 -14.9294 -1.69915e-19)
(9.12992 -5.11151 6.3586e-19)
(15.3557 -9.1966 1.83605e-19)
(15.5644 -10.0132 7.16591e-19)
(14.9514 -10.3673 -7.36213e-19)
(14.4867 -10.7088 -7.41683e-19)
(13.9731 -10.9807 1.47534e-18)
(13.4653 -11.2459 -1.68062e-18)
(13.0026 -11.4796 1.61096e-19)
(12.6388 -11.8054 5.3986e-19)
(12.2382 -12.0227 0)
(11.8483 -12.263 -2.0127e-20)
(11.4895 -12.4677 -1.91731e-20)
(11.1388 -12.689 1.7135e-19)
(10.8408 -12.9053 1.41667e-18)
(10.4846 -13.0539 -1.24368e-18)
(10.2089 -13.2475 -1.58211e-18)
(9.92815 -13.4463 1.3787e-18)
(9.67755 -13.603 -1.46249e-20)
(9.47827 -13.8191 -1.74854e-19)
(9.1613 -14.1425 -1.26297e-18)
(9.37408 -4.68258 -2.06511e-19)
(14.7658 -8.16537 3.23956e-20)
(14.8667 -8.90876 -2.21576e-19)
(14.2469 -9.26602 -8.75936e-19)
(13.7067 -9.62256 6.08806e-19)
(13.2622 -9.94914 0)
(12.7907 -10.2809 1.26408e-18)
(12.328 -10.5192 -6.10507e-19)
(11.9627 -10.8679 4.14167e-19)
(11.6266 -11.1509 2.1536e-19)
(11.2476 -11.4176 -4.09195e-19)
(10.8958 -11.6259 9.9405e-19)
(10.5929 -11.9133 2.07008e-19)
(10.3344 -12.1733 -1.17697e-18)
(10.0661 -12.4439 3.29076e-18)
(9.78028 -12.6227 -1.33974e-18)
(9.52644 -12.8642 1.69385e-18)
(9.27911 -13.0265 -1.10839e-18)
(9.05225 -13.2223 3.63013e-19)
(8.78807 -13.5718 1.75546e-18)
(9.58155 -4.28165 1.05768e-18)
(14.0022 -7.09552 -2.18629e-19)
(13.8893 -7.74624 -2.89542e-20)
(13.4118 -8.17781 4.73766e-19)
(12.9769 -8.64726 2.23381e-19)
(12.5428 -9.0001 2.46612e-19)
(12.108 -9.37667 -1.15726e-18)
(11.6548 -9.64405 6.99845e-19)
(11.2959 -10.0102 -2.17732e-19)
(10.9703 -10.3176 -2.15355e-19)
(10.6566 -10.6548 -2.12759e-19)
(10.3003 -10.8734 -2.27341e-19)
(9.9259 -11.0778 -4.30599e-19)
(9.65433 -11.3335 1.4914e-18)
(9.3836 -11.5895 -2.08598e-18)
(9.15108 -11.8444 -2.12019e-19)
(8.89185 -12.0658 1.37072e-20)
(8.67803 -12.2777 -1.56862e-18)
(8.44948 -12.4599 1.16952e-18)
(8.18904 -12.7725 -1.86397e-18)
(9.66313 -3.96903 9.44881e-19)
(13.1473 -6.14801 -2.38975e-18)
(12.9305 -6.82959 1.58197e-18)
(12.4407 -7.22809 -2.50361e-19)
(11.9669 -7.69811 -2.722e-19)
(11.6206 -8.11392 1.05787e-18)
(11.2498 -8.54945 -1.28266e-18)
(10.8141 -8.82442 0)
(10.4594 -9.2008 9.91888e-19)
(10.1677 -9.53781 -9.75332e-19)
(9.88291 -9.90942 -7.11173e-19)
(9.6655 -10.2685 9.27575e-19)
(9.35314 -10.5484 2.23561e-19)
(9.06668 -10.7855 -9.08305e-19)
(8.81597 -11.0752 2.18922e-19)
(8.57925 -11.3201 1.08971e-18)
(8.37319 -11.6189 -1.92329e-18)
(8.15935 -11.8298 1.26885e-18)
(7.97402 -12.0861 -1.16508e-20)
(7.72185 -12.3716 -1.77166e-18)
(9.48848 -3.58915 1.29881e-18)
(12.1544 -5.25165 -8.76299e-19)
(11.847 -5.8805 5.8514e-19)
(11.5208 -6.35284 7.55445e-21)
(11.1339 -6.87782 -1.15139e-18)
(10.7643 -7.28385 -1.09771e-18)
(10.4786 -7.78643 1.36359e-18)
(10.089 -8.10418 -8.02071e-19)
(9.71144 -8.46164 1.06309e-18)
(9.40821 -8.7893 0)
(9.09257 -9.12346 1.57427e-20)
(8.8339 -9.44 2.43503e-19)
(8.59827 -9.78492 2.53244e-19)
(8.32728 -10.0335 -2.48014e-19)
(8.07035 -10.2986 0)
(7.83937 -10.5443 2.37724e-19)
(7.62078 -10.8073 0)
(7.44755 -11.0689 4.44386e-19)
(7.26988 -11.3235 2.16879e-18)
(7.09677 -11.6871 -1.44096e-20)
(9.07956 -3.14062 7.15113e-19)
(11.1297 -4.48448 -1.51639e-19)
(10.7755 -5.1443 -2.20301e-18)
(10.3565 -5.56556 1.2329e-18)
(9.95752 -6.09171 2.93724e-19)
(9.65484 -6.54114 -2.89116e-19)
(9.4037 -7.08365 -1.1741e-18)
(9.10907 -7.46556 8.74645e-19)
(8.7792 -7.86675 0)
(8.53442 -8.24369 0)
(8.28516 -8.64711 -1.34679e-18)
(8.07493 -9.01305 1.06555e-18)
(7.85778 -9.39034 -2.53197e-19)
(7.6726 -9.73294 -7.67133e-19)
(7.44366 -10.0332 6.50118e-21)
(7.22939 -10.2937 1.71175e-18)
(7.00629 -10.5453 -9.56936e-19)
(6.80117 -10.7546 7.01778e-19)
(6.61199 -10.9885 -1.13895e-18)
(6.40709 -11.2645 0)
(8.49041 -2.66268 -6.19424e-19)
(10.0031 -3.72474 1.00436e-18)
(9.65036 -4.37128 1.71304e-19)
(9.45355 -4.89236 1.6831e-19)
(9.09408 -5.4339 0)
(8.71143 -5.81881 1.26272e-18)
(8.5378 -6.41068 -1.24055e-18)
(8.29272 -6.83379 1.55443e-19)
(7.94353 -7.19863 0)
(7.64408 -7.51608 1.16105e-18)
(7.35232 -7.85093 -9.96516e-19)
(7.12489 -8.18379 1.11071e-18)
(6.92449 -8.55358 -1.09294e-18)
(6.75113 -8.90455 1.06161e-18)
(6.60736 -9.29328 -9.12578e-19)
(6.44697 -9.61948 -1.01402e-18)
(6.29965 -9.9677 1.98997e-18)
(6.14275 -10.2435 -8.52736e-19)
(5.99419 -10.5344 1.20856e-19)
(5.82517 -10.8423 1.02093e-18)
(7.68354 -2.18248 -4.95454e-19)
(8.82735 -3.1199 5.36267e-19)
(8.41211 -3.79536 -1.71294e-19)
(8.07589 -4.25644 -1.68303e-19)
(7.84044 -4.87303 0)
(7.48104 -5.26079 0)
(7.23449 -5.80802 0)
(7.20222 -6.40197 -3.17164e-19)
(7.02551 -6.92797 -1.23999e-18)
(6.84109 -7.35177 2.43122e-18)
(6.59953 -7.74126 -1.3374e-18)
(6.35842 -8.04557 -1.47647e-19)
(6.1354 -8.37853 0)
(5.92671 -8.65908 0)
(5.74317 -8.97909 -2.70117e-19)
(5.58709 -9.27706 0)
(5.43128 -9.59011 1.02654e-18)
(5.30307 -9.88245 -1.26297e-18)
(5.16458 -10.1719 -1.09857e-18)
(5.0315 -10.5077 1.06866e-18)
(6.74818 -1.70111 5.153e-19)
(7.59864 -2.50786 9.3348e-19)
(7.30937 -3.21242 -6.86946e-23)
(7.19546 -3.78602 -1.31642e-21)
(6.96419 -4.3965 1.77299e-19)
(6.63741 -4.77699 -5.15589e-19)
(6.23106 -5.15488 0)
(5.99758 -5.55901 -4.95592e-19)
(5.85996 -6.08181 1.67442e-19)
(5.72675 -6.54139 6.31884e-19)
(5.61128 -7.03868 6.1287e-19)
(5.46034 -7.44892 -4.5544e-19)
(5.30523 -7.85661 1.16799e-18)
(5.15178 -8.21402 -1.00483e-18)
(4.98715 -8.55694 1.24998e-18)
(4.84158 -8.87621 -2.31953e-18)
(4.69332 -9.19388 1.06958e-18)
(4.55999 -9.4805 1.27897e-19)
(4.43358 -9.77416 1.00887e-18)
(4.29465 -10.0992 -1.10231e-18)
(5.64974 -1.26889 1.79407e-19)
(6.18608 -2.05585 -1.89911e-19)
(5.7922 -2.72713 7.61957e-19)
(5.52984 -3.24544 -7.47728e-19)
(5.60587 -4.06303 -3.64057e-19)
(5.52993 -4.65725 -8.86831e-19)
(5.31184 -5.17651 4.43115e-21)
(5.08406 -5.57646 6.82925e-19)
(4.85457 -5.98866 -1.63665e-19)
(4.70597 -6.38932 0)
(4.54094 -6.79707 0)
(4.43631 -7.19571 0)
(4.29565 -7.5859 0)
(4.19164 -7.94786 3.51866e-21)
(4.06907 -8.31503 0)
(3.95945 -8.63189 1.38049e-19)
(3.84807 -8.97692 5.42802e-19)
(3.74072 -9.25275 -1.59429e-18)
(3.63896 -9.56181 1.17527e-18)
(3.52503 -9.86297 -1.1173e-18)
(4.57349 -0.930871 0)
(4.94723 -1.68729 -1.00821e-19)
(4.91799 -2.40207 0)
(4.53972 -2.81412 2.8511e-19)
(4.22804 -3.31756 -1.89915e-19)
(4.26854 -3.95453 -7.28938e-19)
(4.13879 -4.52479 4.45751e-21)
(4.06449 -5.06079 6.99515e-19)
(3.91454 -5.55698 -6.77739e-19)
(3.78479 -5.98697 1.32755e-18)
(3.66045 -6.44772 -5.52817e-21)
(3.53179 -6.81886 -6.34321e-19)
(3.43331 -7.25789 6.13052e-19)
(3.31044 -7.58731 -7.51959e-19)
(3.2247 -7.99784 0)
(3.1133 -8.29745 -5.68476e-19)
(3.0325 -8.67708 5.59996e-19)
(2.93253 -8.94811 0)
(2.85791 -9.27908 -1.31264e-19)
(2.75771 -9.5819 0)
(3.06437 -0.571691 1.02964e-19)
(3.31262 -1.31581 1.00784e-19)
(3.35488 -2.15288 0)
(3.38274 -2.8095 3.88264e-19)
(3.13504 -3.37761 -4.78941e-19)
(2.97236 -3.84208 2.77794e-19)
(2.90135 -4.44706 -8.18925e-19)
(2.78514 -4.87434 3.56171e-19)
(2.74165 -5.44836 -8.70306e-20)
(2.63339 -5.82773 0)
(2.58346 -6.34414 -8.27231e-20)
(2.49228 -6.68999 -8.06379e-20)
(2.43542 -7.15135 -7.86036e-20)
(2.36102 -7.47398 0)
(2.29789 -7.88469 -5.91345e-19)
(2.23498 -8.18634 1.23175e-18)
(2.17039 -8.5566 -1.05919e-18)
(2.11519 -8.83409 5.53968e-19)
(2.05507 -9.15308 6.7565e-20)
(2.00168 -9.45204 5.78719e-19)
(2.2139 -0.548228 -1.57038e-19)
(1.97208 -1.02687 -2.06244e-19)
(2.02187 -1.80102 6.20078e-22)
(1.98091 -2.34159 5.4313e-19)
(2.01489 -3.09213 -1.46069e-19)
(1.91446 -3.54266 -9.42335e-20)
(1.86646 -4.17892 9.27888e-20)
(1.78631 -4.61114 1.80221e-19)
(1.72648 -5.1759 8.70279e-20)
(1.66639 -5.58918 -3.39894e-19)
(1.59864 -6.09014 3.75329e-19)
(1.55408 -6.47928 8.06323e-20)
(1.48914 -6.92692 3.93226e-19)
(1.45337 -7.28831 -3.07712e-21)
(1.39727 -7.69225 3.45868e-20)
(1.36564 -8.02407 -6.5846e-19)
(1.31785 -8.39413 1.80199e-19)
(1.28883 -8.69467 0)
(1.24789 -9.01864 -3.35316e-20)
(1.21782 -9.33354 -2.92231e-19)
(0.230405 -0.976953 0)
(0.757651 -0.910788 -1.01959e-19)
(0.598556 -1.98535 1.34082e-19)
(0.678105 -2.30076 -5.00692e-20)
(0.555347 -3.10761 -4.9018e-20)
(0.60221 -3.52112 0)
(0.528703 -4.19965 -9.22368e-20)
(0.544572 -4.60325 1.80575e-19)
(0.506116 -5.19036 -8.84008e-20)
(0.512512 -5.5736 8.54205e-20)
(0.48618 -6.09254 -4.23089e-20)
(0.487303 -6.44816 -8.11147e-20)
(0.469274 -6.91508 1.58871e-19)
(0.465775 -7.24275 -1.5484e-19)
(0.451449 -7.66626 3.8204e-20)
(0.444851 -7.96792 2.61307e-34)
(0.431105 -8.35645 -3.55732e-20)
(0.423376 -8.63084 2.09462e-19)
(0.409558 -8.96937 -1.03347e-19)
(0.401321 -9.26649 -7.42628e-20)
(-0.13628 1.53012 4.85869e-20)
(-0.0366284 1.09454 2.37367e-20)
(0.529877 -0.99998 0)
(2.14413 -6.42546 7.52173e-22)
(5.38922 -15.574 5.67031e-21)
(7.66052 -22.5255 2.15759e-20)
(8.79302 -25.959 0)
(9.21707 -27.2282 1.94549e-20)
(9.29127 -27.6322 0)
(9.30651 -27.7298 0)
(9.26833 -27.6991 -1.62288e-20)
(9.19533 -27.6032 6.37911e-22)
(9.0989 -27.5223 3.4847e-20)
(9.06627 -27.4872 0)
(8.98994 -27.4945 1.54174e-20)
(8.94 -27.4261 1.5278e-20)
(8.85274 -27.4276 1.48977e-20)
(8.79679 -27.3574 0)
(8.71156 -27.3805 -2.75731e-20)
(8.68107 -27.3336 2.55547e-20)
(-0.150879 1.45843 0)
(0.308533 0.218409 -1.18907e-19)
(1.15556 -3.5648 0)
(4.13512 -12.1178 -1.11576e-19)
(7.01897 -20.4857 1.09693e-19)
(8.68633 -25.2223 -1.9395e-19)
(9.28572 -27.0146 8.13903e-20)
(9.43536 -27.5566 5.72043e-20)
(9.47393 -27.6879 -2.49266e-19)
(9.43762 -27.6546 1.36256e-19)
(9.34423 -27.5566 -1.78747e-20)
(9.28008 -27.4422 1.38412e-19)
(9.21373 -27.429 -2.69329e-21)
(9.17132 -27.358 -1.31413e-19)
(9.07765 -27.3255 -1.5935e-20)
(9.04251 -27.2761 -1.51242e-20)
(8.95754 -27.2809 -1.45844e-20)
(8.92289 -27.2156 0)
(8.81232 -27.2021 -1.06242e-19)
(8.78306 -27.1192 1.85553e-21)
(-0.0542919 1.17307 -4.84966e-20)
(0.519136 -1.15177 0)
(2.34725 -6.94532 0)
(6.14154 -16.8615 -1.60022e-20)
(8.36295 -23.4551 4.40694e-20)
(9.43609 -26.4563 0)
(9.7018 -27.3511 -4.05574e-20)
(9.76177 -27.5594 1.08312e-19)
(9.72937 -27.5429 -1.04022e-19)
(9.64696 -27.4457 1.40567e-19)
(9.56547 -27.3284 -1.7865e-19)
(9.51095 -27.2878 0)
(9.42841 -27.218 -1.2974e-19)
(9.37504 -27.1456 -1.21962e-19)
(9.293 -27.1517 2.15909e-19)
(9.25624 -27.0959 -2.28328e-19)
(9.1472 -27.0758 1.97653e-19)
(9.09753 -26.9737 0)
(8.97462 -26.9649 -2.31161e-19)
(8.95314 -26.8946 3.79051e-19)
(0.30061 0.530896 2.34302e-19)
(0.841843 -3.07686 0)
(4.08781 -11.6136 4.04015e-20)
(7.40812 -20.695 1.33239e-19)
(9.24561 -25.563 -2.66186e-19)
(9.78318 -27.1121 8.33683e-20)
(9.93635 -27.5009 3.8536e-20)
(9.91313 -27.4951 3.88694e-19)
(9.86468 -27.4344 -5.81727e-19)
(9.77795 -27.2901 -6.40892e-20)
(9.72178 -27.2333 3.16636e-19)
(9.6485 -27.1303 6.57692e-20)
(9.57608 -27.0787 -3.15229e-19)
(9.52854 -27.0334 3.08557e-19)
(9.4345 -26.9963 8.76493e-20)
(9.38996 -26.9088 -5.53056e-20)
(9.26926 -26.8624 8.06801e-20)
(9.23592 -26.7943 0)
(9.12406 -26.7878 -2.22247e-20)
(9.10105 -26.6853 0)
(0.386291 -0.412489 0)
(1.57524 -5.03548 3.83459e-19)
(5.57545 -15.3942 -4.69085e-19)
(8.65125 -23.2323 4.54959e-19)
(9.86542 -26.4579 -3.53709e-19)
(10.2108 -27.3439 -8.50609e-20)
(10.2289 -27.4131 0)
(10.2098 -27.3736 2.11463e-19)
(10.1391 -27.2427 -2.95763e-19)
(10.0556 -27.1227 3.52605e-19)
(9.98188 -27.0047 -2.76137e-19)
(9.91116 -26.9394 -6.57677e-20)
(9.83679 -26.8725 3.07494e-19)
(9.76154 -26.7881 -5.34665e-19)
(9.6731 -26.7541 3.40196e-19)
(9.61734 -26.675 -1.11691e-19)
(9.4974 -26.6551 -2.57675e-19)
(9.45783 -26.5638 5.83658e-19)
(9.31275 -26.5461 -3.26238e-19)
(9.28266 -26.4065 -3.81534e-19)
(0.346226 -1.39078 4.05396e-19)
(2.61237 -7.82076 3.92842e-19)
(7.12816 -18.7918 -3.87124e-19)
(9.54311 -25.0725 -9.47639e-20)
(10.3362 -27.0634 8.78158e-20)
(10.5235 -27.42 3.21613e-19)
(10.506 -27.3885 -3.01225e-19)
(10.4397 -27.2546 0)
(10.3467 -27.0945 2.89547e-19)
(10.2573 -26.9411 -2.84711e-19)
(10.1963 -26.8777 -2.61478e-19)
(10.109 -26.7697 2.57232e-19)
(10.0242 -26.6856 0)
(9.95588 -26.6339 0)
(9.85971 -26.5785 4.84381e-19)
(9.78699 -26.4765 -4.75255e-19)
(9.65251 -26.4102 -3.89725e-19)
(9.61363 -26.3272 3.78518e-19)
(9.46206 -26.3052 -3.44659e-19)
(9.43419 -26.1497 4.1512e-19)
(0.472362 -2.3129 -3.11426e-19)
(3.90546 -10.748 1.08393e-19)
(8.25549 -21.0142 8.63958e-21)
(10.3605 -26.0227 4.82175e-19)
(10.8824 -27.2784 0)
(10.9287 -27.351 0)
(10.883 -27.2279 6.13485e-19)
(10.7758 -27.0177 -2.51141e-20)
(10.7046 -26.8792 -5.93321e-19)
(10.6124 -26.7583 5.38107e-19)
(10.5215 -26.6221 -5.29236e-19)
(10.4222 -26.5179 0)
(10.3367 -26.4436 4.55073e-19)
(10.2352 -26.3489 -4.47905e-19)
(10.1283 -26.2742 0)
(10.037 -26.1743 0)
(9.90824 -26.1494 0)
(9.86009 -26.0625 0)
(9.67491 -26.0284 0)
(9.63668 -25.8335 -4.01618e-20)
(0.802554 -3.22022 3.30944e-19)
(5.15804 -13.2055 -5.36824e-19)
(9.4512 -23.0032 0)
(11.0629 -26.7579 0)
(11.3521 -27.333 7.91298e-19)
(11.3354 -27.2663 4.92318e-20)
(11.2143 -27.0371 -7.33085e-19)
(11.1293 -26.8751 0)
(11.0116 -26.6978 7.03077e-20)
(10.8837 -26.505 -6.57597e-20)
(10.7921 -26.4142 0)
(10.6759 -26.2936 5.76809e-20)
(10.5646 -26.187 -4.8879e-19)
(10.4622 -26.1134 8.88019e-19)
(10.3489 -26.0357 -1.72889e-20)
(10.2406 -25.9332 -3.79853e-19)
(10.0955 -25.8559 -4.22088e-20)
(10.0312 -25.7573 3.95e-20)
(9.83052 -25.7105 0)
(9.79913 -25.5094 3.44267e-20)
(1.26204 -4.1187 2.21974e-19)
(6.50194 -15.0897 2.04957e-19)
(10.5279 -24.0044 -6.5644e-19)
(11.852 -26.8905 2.00169e-19)
(11.945 -27.1689 8.96785e-20)
(11.8628 -27.0022 7.35818e-19)
(11.7082 -26.7642 -1.04474e-18)
(11.57 -26.5475 7.59662e-19)
(11.4381 -26.3605 -6.10737e-19)
(11.3068 -26.2295 7.23484e-19)
(11.1786 -26.081 1.17464e-19)
(11.0369 -25.9493 4.90976e-19)
(10.9205 -25.8675 -2.7638e-19)
(10.7852 -25.7644 -5.30077e-19)
(10.6484 -25.6657 4.67013e-19)
(10.515 -25.5571 0)
(10.3762 -25.5195 1.19612e-19)
(10.2919 -25.4331 3.25505e-20)
(10.0783 -25.3832 -6.761e-20)
(10.0297 -25.1586 2.77321e-20)
(2.06593 -5.31583 0)
(7.71948 -16.582 3.76095e-19)
(11.6203 -24.9324 -7.26362e-22)
(12.5248 -26.9503 -3.90107e-19)
(12.4847 -26.9374 -3.53826e-19)
(12.3189 -26.6892 -1.68355e-19)
(12.1267 -26.4415 -5.07635e-21)
(11.9784 -26.2612 -1.466e-19)
(11.8075 -26.0742 0)
(11.6233 -25.8652 -1.26309e-19)
(11.4828 -25.7572 -1.17452e-19)
(11.3226 -25.629 -7.33278e-21)
(11.1708 -25.5128 3.74996e-19)
(11.0258 -25.4237 -1.94358e-19)
(10.8798 -25.3349 -4.19185e-19)
(10.7328 -25.2386 3.25543e-19)
(10.572 -25.1552 2.09204e-19)
(10.4604 -25.0573 -3.54579e-19)
(10.2401 -24.9985 6.78636e-20)
(10.1827 -24.7827 4.01508e-19)
(2.54082 -5.97058 -3.63161e-19)
(8.84315 -17.5665 9.02209e-19)
(12.5795 -25.0889 -1.24598e-18)
(13.2143 -26.5622 9.96695e-19)
(13.0998 -26.5127 8.55839e-19)
(12.8881 -26.2411 -6.76685e-19)
(12.67 -26.0165 -8.7887e-19)
(12.4611 -25.7934 3.82411e-20)
(12.2584 -25.5869 5.22749e-19)
(12.071 -25.456 -3.37154e-19)
(11.8911 -25.3073 8.53148e-19)
(11.6974 -25.1673 -5.07486e-19)
(11.5376 -25.0877 -9.42823e-20)
(11.3611 -24.9852 2.34382e-19)
(11.1847 -24.8818 -6.13023e-19)
(11.0079 -24.7756 2.91896e-19)
(10.8462 -24.7337 0)
(10.7114 -24.6565 -4.66252e-19)
(10.4832 -24.6013 4.5904e-19)
(10.3976 -24.3734 -3.52466e-19)
(3.23471 -6.94342 2.24759e-19)
(9.90639 -18.505 2.52115e-19)
(13.5331 -25.3043 1.06855e-18)
(13.8815 -26.2593 9.04094e-19)
(13.6291 -26.0477 -5.43823e-19)
(13.368 -25.7554 7.5035e-19)
(13.0989 -25.5203 -4.43588e-19)
(12.8753 -25.3408 4.95289e-19)
(12.6401 -25.1591 -9.37457e-19)
(12.3912 -24.9545 3.31917e-19)
(12.1952 -24.8492 0)
(11.9826 -24.7253 0)
(11.7814 -24.613 0)
(11.5902 -24.5254 -5.65433e-19)
(11.4023 -24.4412 5.56686e-19)
(11.211 -24.3553 0)
(11.0237 -24.2703 0)
(10.8573 -24.1892 -4.52522e-20)
(10.6234 -24.1329 0)
(10.5338 -23.9238 -3.71394e-19)
(3.77128 -7.38328 -4.37113e-19)
(10.9579 -18.7977 -1.08601e-18)
(14.3104 -24.8654 -7.44832e-19)
(14.5184 -25.5395 -1.18954e-19)
(14.2126 -25.3751 9.64577e-19)
(13.9341 -25.1242 -2.01483e-19)
(13.631 -24.9164 -4.58742e-20)
(13.3449 -24.7116 -6.02391e-19)
(13.0717 -24.5146 0)
(12.8205 -24.3987 -2.76356e-19)
(12.5834 -24.2635 4.38411e-19)
(12.335 -24.1342 0)
(12.1272 -24.0692 5.31032e-19)
(11.9069 -23.9774 -5.22685e-19)
(11.6865 -23.8862 4.27274e-19)
(11.469 -23.7934 -7.59235e-19)
(11.2778 -23.7575 3.7682e-19)
(11.094 -23.7002 4.52507e-20)
(10.8536 -23.6552 -2.99565e-20)
(10.7464 -23.4366 2.43965e-19)
(4.43658 -7.91225 -5.92223e-19)
(11.9837 -19.1229 4.35265e-20)
(15.0643 -24.587 6.3823e-20)
(15.1299 -24.9517 1.32442e-18)
(14.6881 -24.7087 9.63888e-20)
(14.3583 -24.452 -6.76251e-19)
(14.0087 -24.2449 -4.45972e-19)
(13.7085 -24.094 1.5247e-19)
(13.4089 -23.9344 4.74874e-19)
(13.0948 -23.7532 -4.75921e-19)
(12.8454 -23.6741 2.28042e-19)
(12.5794 -23.5669 -5.45726e-19)
(12.3272 -23.4717 4.30999e-19)
(12.0932 -23.4056 -3.7722e-19)
(11.8629 -23.3408 3.34465e-19)
(11.6288 -23.2648 2.42289e-19)
(11.4064 -23.1882 -2.82097e-19)
(11.1952 -23.1401 1.90428e-19)
(10.9598 -23.1144 -1.78405e-19)
(10.8432 -22.9209 -1.69865e-19)
(4.96844 -8.11076 -7.40189e-19)
(12.8345 -18.9044 -1.28709e-19)
(15.6716 -23.837 6.71786e-19)
(15.645 -24.0178 -5.67316e-19)
(15.198 -23.856 5.5694e-19)
(14.8468 -23.6547 1.236e-19)
(14.4788 -23.4781 0)
(14.1166 -23.3112 -7.99255e-20)
(13.7819 -23.1471 2.06687e-19)
(13.4688 -23.0567 -7.17911e-19)
(13.1753 -22.9485 4.97518e-19)
(12.8773 -22.8502 9.92869e-20)
(12.6216 -22.8099 4.97461e-20)
(12.3583 -22.7403 0)
(12.0979 -22.6817 1.41295e-20)
(11.845 -22.6154 1.8061e-19)
(11.6195 -22.5936 -3.40991e-20)
(11.3896 -22.5585 8.12155e-22)
(11.1461 -22.5447 -1.0922e-19)
(11.0247 -22.3529 1.52792e-20)
(5.56957 -8.29793 6.61583e-19)
(13.6976 -18.7852 -1.12722e-18)
(16.3029 -23.1193 6.14125e-19)
(16.1312 -23.2215 4.89132e-19)
(15.6002 -23.0064 -5.79982e-20)
(15.1738 -22.8107 -3.28206e-19)
(14.7629 -22.6461 7.3313e-20)
(14.3929 -22.544 7.99175e-20)
(14.032 -22.4212 0)
(13.6583 -22.2772 0)
(13.3614 -22.2408 -3.06601e-19)
(13.0462 -22.1601 4.81409e-19)
(12.7468 -22.0962 -2.43443e-19)
(12.4764 -22.0646 0)
(12.2069 -22.0319 1.52957e-20)
(11.9338 -21.9744 -6.87148e-20)
(11.6755 -21.9205 6.34151e-20)
(11.4254 -21.9163 -8.85728e-21)
(11.197 -21.9372 3.59368e-20)
(11.0614 -21.769 -1.61927e-20)
(6.07103 -8.29218 -5.76206e-19)
(14.3586 -18.264 7.187e-19)
(16.7522 -22.0449 0)
(16.4821 -22.0909 0)
(15.9798 -21.9829 7.91569e-20)
(15.5423 -21.8538 -3.68502e-19)
(15.1173 -21.73 2.39363e-20)
(14.6915 -21.6202 2.27971e-19)
(14.3061 -21.5137 -2.97207e-19)
(13.9371 -21.4583 5.19801e-19)
(13.5928 -21.3915 -2.23815e-19)
(13.2557 -21.3422 3.32382e-20)
(12.9556 -21.333 6.24284e-20)
(12.6535 -21.2953 -4.69014e-20)
(12.363 -21.286 -1.8053e-20)
(12.0827 -21.2543 2.73058e-21)
(11.8189 -21.2486 8.8892e-20)
(11.541 -21.2334 -8.57288e-20)
(11.3044 -21.2605 1.4493e-20)
(11.1771 -21.1252 -1.41255e-19)
(6.56844 -8.27811 0)
(15.0478 -17.8116 3.04336e-19)
(17.1442 -21.1721 -3.48849e-19)
(16.8123 -21.1349 0)
(16.223 -20.9909 -7.91376e-20)
(15.7242 -20.8789 1.91701e-19)
(15.2709 -20.7749 -2.40736e-19)
(14.8479 -20.7354 0)
(14.4375 -20.6622 1.36095e-19)
(14.0167 -20.5665 -1.33829e-19)
(13.6811 -20.5803 -4.902e-21)
(13.3258 -20.5362 -7.71244e-21)
(12.9883 -20.5191 -1.54331e-21)
(12.6877 -20.5285 3.95582e-21)
(12.3859 -20.5401 1.64031e-19)
(12.0848 -20.5175 -3.39151e-19)
(11.7939 -20.5047 3.96291e-19)
(11.5116 -20.5379 -4.42225e-19)
(11.2732 -20.5853 2.07561e-19)
(11.1436 -20.4845 -2.71294e-20)
(6.98754 -8.11112 0)
(15.5288 -17.0303 -3.24836e-19)
(17.3596 -19.8992 1.83005e-19)
(16.9647 -19.8976 1.56924e-19)
(16.4461 -19.8504 -5.20138e-20)
(15.9312 -19.8109 -4.57421e-20)
(15.4699 -19.7504 -9.39886e-20)
(15.0012 -19.7085 0)
(14.5813 -19.676 0)
(14.1682 -19.6598 0)
(13.7825 -19.6419 4.90146e-21)
(13.42 -19.6462 0)
(13.0808 -19.6698 2.67028e-19)
(12.7455 -19.6686 -2.27319e-19)
(12.4354 -19.7148 2.97481e-19)
(12.1349 -19.7257 -6.17859e-19)
(11.8283 -19.7501 3.20025e-19)
(11.5104 -19.7573 4.13185e-19)
(11.2457 -19.8177 -7.39049e-19)
(11.1216 -19.7138 3.95798e-19)
(7.4106 -7.95195 0)
(16.02 -16.3187 0)
(17.5805 -18.8346 5.74056e-20)
(17.0925 -18.8315 4.26575e-20)
(16.508 -18.7551 0)
(15.9529 -18.7396 -5.36847e-21)
(15.4712 -18.7124 5.27474e-21)
(15.02 -18.7394 0)
(14.5739 -18.7264 -2.13207e-19)
(14.1224 -18.6861 2.09655e-19)
(13.7583 -18.7536 0)
(13.3742 -18.7497 3.51226e-19)
(13.0103 -18.7841 5.18439e-21)
(12.682 -18.8253 -3.80858e-19)
(12.3516 -18.87 0)
(12.0301 -18.8819 0)
(11.7024 -18.9263 0)
(11.4041 -18.9614 4.61182e-19)
(11.0764 -18.966 -5.07168e-19)
(10.9157 -18.918 0)
(8.0528 -27.1379 0)
(7.66411 -26.6708 0)
(6.86724 -26.7093 -2.16391e-21)
(6.47785 -26.6965 -2.06653e-21)
(5.78849 -26.6128 0)
(5.3296 -26.6006 -3.84081e-24)
(4.8195 -26.6258 1.86996e-21)
(4.36328 -26.6176 0)
(3.93002 -26.6717 1.64056e-21)
(3.52088 -26.6621 0)
(3.13951 -26.6755 -1.53642e-21)
(2.79905 -26.6821 -7.48163e-22)
(2.46249 -26.6715 7.5233e-22)
(2.17908 -26.6675 1.39238e-21)
(1.87618 -26.6575 0)
(1.63657 -26.5627 -3.25955e-22)
(1.35602 -26.3519 1.26665e-21)
(1.17531 -24.6733 0)
(0.696693 -19.4564 0)
(0.207615 -10.4447 1.2047e-21)
(8.12551 -26.9264 1.15089e-20)
(7.77038 -26.5121 0)
(6.89756 -26.51 1.03403e-20)
(6.49172 -26.5065 -6.16198e-21)
(5.80431 -26.4744 0)
(5.32038 -26.4954 -8.82702e-21)
(4.76289 -26.5017 3.50637e-21)
(4.29554 -26.4821 0)
(3.86952 -26.5433 1.48708e-21)
(3.46604 -26.5405 -3.14329e-21)
(3.09274 -26.5629 4.47096e-21)
(2.75861 -26.5812 -5.79758e-21)
(2.43084 -26.5862 4.24023e-21)
(2.15604 -26.5904 -1.44268e-21)
(1.86344 -26.5886 -1.34331e-21)
(1.6304 -26.4958 1.25264e-21)
(1.36874 -26.2898 -2.01267e-21)
(1.17365 -24.5689 -2.97664e-21)
(0.683448 -19.2855 -1.44904e-21)
(0.215062 -10.3069 -1.50209e-21)
(8.23459 -26.6824 -3.03946e-21)
(7.83084 -26.2928 -1.03828e-20)
(6.94907 -26.3435 -7.57442e-21)
(6.53458 -26.3562 0)
(5.81965 -26.2786 0)
(5.34927 -26.2915 1.00268e-20)
(4.82828 -26.3365 -2.92627e-22)
(4.3781 -26.3528 -2.20143e-22)
(3.94869 -26.4291 -2.30535e-22)
(3.54223 -26.4346 -5.91448e-21)
(3.16425 -26.4684 0)
(2.82456 -26.4906 0)
(2.48764 -26.4962 0)
(2.20457 -26.504 -5.04245e-21)
(1.8985 -26.5069 0)
(1.6622 -26.4202 -4.7883e-21)
(1.38061 -26.2284 3.70507e-21)
(1.18061 -24.4979 1.79641e-21)
(0.700219 -19.2044 2.92617e-21)
(0.222485 -10.2023 4.47718e-21)
(8.33182 -26.4495 1.78839e-20)
(7.94427 -26.1215 -3.51006e-20)
(6.99722 -26.1335 3.14837e-22)
(6.54838 -26.1537 1.43879e-20)
(5.83588 -26.1338 0)
(5.34436 -26.1838 1.21832e-20)
(4.77918 -26.214 -2.96818e-20)
(4.31409 -26.2191 1.74802e-20)
(3.88888 -26.3012 -1.11544e-20)
(3.48826 -26.3142 5.38e-21)
(3.11686 -26.3568 -2.48711e-22)
(2.78263 -26.3896 -5.10356e-21)
(2.4539 -26.4107 5.12834e-21)
(2.17886 -26.4266 2.61941e-21)
(1.88304 -26.4384 2.43437e-21)
(1.6534 -26.3548 4.78542e-21)
(1.39083 -26.1676 -4.6044e-21)
(1.17813 -24.4015 2.23836e-21)
(0.688954 -19.053 -1.1142e-21)
(0.229682 -10.0699 -4.4701e-21)
(8.44788 -26.1928 4.00334e-20)
(7.99979 -25.8848 8.28562e-21)
(7.04833 -25.9503 -1.38634e-20)
(6.59492 -25.9978 1.96374e-20)
(5.85644 -25.939 0)
(5.37108 -25.977 -5.59931e-21)
(4.84378 -26.0467 5.73211e-21)
(4.39653 -26.0892 0)
(3.96793 -26.1876 3.79606e-22)
(3.56396 -26.2094 0)
(3.18721 -26.2621 -1.00039e-20)
(2.84743 -26.2995 0)
(2.50897 -26.3209 0)
(2.22526 -26.3403 -9.11554e-21)
(1.91579 -26.3573 4.61486e-21)
(1.68271 -26.2807 -4.34905e-21)
(1.40029 -26.1076 0)
(1.18409 -24.3374 1.06622e-21)
(0.703282 -18.98 -1.06767e-21)
(0.238049 -9.96633 0)
(8.57118 -25.9366 1.57458e-20)
(8.11487 -25.6978 -1.43284e-20)
(7.11896 -25.732 2.98043e-20)
(6.60766 -25.7815 -3.08833e-20)
(5.86698 -25.7866 1.03479e-20)
(5.36803 -25.8671 5.61666e-21)
(4.80229 -25.9263 -9.75611e-21)
(4.3357 -25.9573 -9.63207e-21)
(3.90886 -26.06 5.06553e-21)
(3.51086 -26.0899 9.43026e-21)
(3.13928 -26.1512 -4.62838e-21)
(2.80448 -26.1986 0)
(2.47359 -26.2353 0)
(2.19757 -26.2626 3.4556e-22)
(1.89803 -26.2891 -4.36957e-21)
(1.67183 -26.2167 4.3448e-21)
(1.4083 -26.0484 0)
(1.18111 -24.2499 -8.0309e-21)
(0.693531 -18.8486 -7.466e-21)
(0.245973 -9.83919 -5.07469e-22)
(8.69966 -25.631 -4.06358e-20)
(8.169 -25.4404 4.33963e-20)
(7.17126 -25.5321 -1.19103e-20)
(6.64876 -25.614 0)
(5.89659 -25.5935 -1.03918e-20)
(5.39974 -25.6602 1.92152e-20)
(4.86916 -25.7573 -9.49472e-21)
(4.41772 -25.826 9.65909e-21)
(3.98814 -25.9469 0)
(3.58613 -25.9862 0)
(3.20859 -26.0563 8.61395e-21)
(2.86796 -26.1085 -8.64486e-21)
(2.52683 -26.1455 0)
(2.24195 -26.1764 1.26292e-20)
(1.92864 -26.2087 -4.11841e-21)
(1.69884 -26.1443 -3.97111e-21)
(1.4156 -25.9903 3.19589e-21)
(1.18643 -24.194 9.96749e-21)
(0.705499 -18.7841 5.02786e-21)
(0.255892 -9.73695 9.69982e-22)
(8.80745 -25.3692 0)
(8.26796 -25.2363 -2.27802e-20)
(7.25756 -25.3051 2.2846e-20)
(6.65824 -25.3883 0)
(5.90115 -25.4342 0)
(5.39558 -25.548 -1.74713e-20)
(4.83299 -25.6372 1.7523e-20)
(4.35963 -25.6943 0)
(3.93075 -25.8193 8.22702e-21)
(3.53375 -25.8675 -1.63749e-20)
(3.16056 -25.9457 8.14771e-21)
(2.82457 -26.0078 7.91106e-21)
(2.49032 -26.0598 -7.93501e-21)
(2.21304 -26.0985 0)
(1.90909 -26.1409 0)
(1.68625 -26.082 -3.77462e-21)
(1.42158 -25.9332 4.53665e-21)
(1.18332 -24.1157 -8.49567e-24)
(0.697054 -18.6733 -2.78778e-21)
(0.264891 -9.61491 9.27431e-22)
(8.95677 -25.0455 2.32336e-20)
(8.32348 -24.9691 -2.36707e-20)
(7.31175 -25.0881 -2.64062e-20)
(6.68912 -25.205 3.50747e-20)
(5.94073 -25.2421 -3.30828e-20)
(5.43419 -25.3431 2.89376e-22)
(4.90289 -25.4679 1.58282e-20)
(4.44073 -25.5618 0)
(4.01012 -25.7066 0)
(3.60855 -25.7644 7.15323e-21)
(3.22873 -25.8508 0)
(2.88638 -25.9176 0)
(2.54157 -25.9699 0)
(2.25537 -26.0125 0)
(1.93767 -26.0609 0)
(1.71077 -26.0115 0)
(1.42687 -25.8773 -2.84985e-21)
(1.18834 -24.069 3.5546e-21)
(0.706491 -18.6174 -8.82637e-22)
(0.276547 -9.51437 8.83516e-22)
(9.07851 -24.7275 -2.31987e-20)
(8.41409 -24.7442 -3.02721e-20)
(7.39983 -24.8498 -7.33632e-21)
(6.69423 -24.9676 -6.56158e-21)
(5.94933 -25.0833 7.32e-21)
(5.42757 -25.2272 2.08807e-20)
(4.86995 -25.346 6.46528e-21)
(4.38534 -25.4288 0)
(3.95492 -25.5788 -7.1896e-21)
(3.5568 -25.6464 1.30176e-20)
(3.18096 -25.7403 6.51795e-21)
(2.84299 -25.8173 6.47504e-21)
(2.5044 -25.8843 0)
(2.22564 -25.9344 6.48912e-21)
(1.91664 -25.9934 6.55957e-21)
(1.69625 -25.9507 0)
(1.43095 -25.8225 0)
(1.18497 -24.001 0)
(0.698784 -18.5274 0)
(0.286838 -9.39727 0)