/*--------------------------------*- C++ -*----------------------------------*\
  =========                 |
  \\      /  F ield         | OpenFOAM: The Open Source CFD Toolbox
   \\    /   O peration     | Website:  https://openfoam.org
    \\  /    A nd           | Version:  9
     \\/     M anipulation  |
\*---------------------------------------------------------------------------*/
FoamFile
{
    format      ascii;
    class       volScalarField;
    location    "9.6";
    object      nut;
}
// * * * * * * * * * * * * * * * * * * * * * * * * * * * * * * * * * * * * * //

dimensions      [0 2 -1 0 0 0 0];

internalField   nonuniform List<scalar> 
46400
(
0.0221118
0.00745981
0.0021063
0.00170092
0.00166698
0.00165427
0.00156627
0.00155114
0.00147934
0.00141978
0.00136198
0.00131895
0.00126145
0.00123128
0.00122233
0.0012334
0.00116625
0.00115658
0.00150065
0.00114895
0.0216148
0.00617651
0.00156748
0.00177017
0.00167153
0.00167246
0.00155546
0.00152403
0.00144615
0.00140867
0.00135987
0.00131194
0.00128375
0.00124356
0.00120093
0.00114682
0.00104833
0.000972272
0.00130018
0.00112595
0.0210562
0.00534331
0.00144334
0.001719
0.00160249
0.00163433
0.00155096
0.00153027
0.00147326
0.00141871
0.00136873
0.00131904
0.00126644
0.00120579
0.00118864
0.00117464
0.00107809
0.00106369
0.00139721
0.00114355
0.0204287
0.00483159
0.00152795
0.00179723
0.00165315
0.00165443
0.00154889
0.00151185
0.00144559
0.00139462
0.00134184
0.00128858
0.00125356
0.00122423
0.00117953
0.00114576
0.00104624
0.00100388
0.00137188
0.00115347
0.0197098
0.00522468
0.00152374
0.00175124
0.00159658
0.00162509
0.00154226
0.001513
0.0014569
0.00141432
0.00137599
0.00133552
0.00129
0.00122706
0.00120676
0.00119052
0.00111416
0.0010593
0.00139779
0.00119166
0.0189506
0.0054204
0.00158833
0.00181059
0.00165088
0.00164938
0.00155836
0.00150756
0.00146134
0.00138926
0.00134173
0.00128335
0.0012496
0.00121404
0.00117787
0.00115164
0.00108905
0.00105411
0.00138275
0.00119591
0.0182065
0.00541955
0.00163531
0.00182926
0.00162917
0.00161656
0.00155209
0.00149332
0.00144882
0.00140144
0.00135881
0.00132351
0.00129154
0.0012442
0.00121496
0.00118756
0.00110631
0.00105957
0.00137261
0.00119141
0.0170607
0.00485777
0.00158868
0.00178088
0.00165196
0.00160345
0.0015476
0.00148194
0.00144472
0.00139545
0.00134678
0.00128625
0.00123771
0.00120174
0.00117681
0.001163
0.00111991
0.00105517
0.00136596
0.00122298
0.0155248
0.00378574
0.00166881
0.00175195
0.00164395
0.00157496
0.00152614
0.00146878
0.00141828
0.0013711
0.00134657
0.00131304
0.00129005
0.00123528
0.00118688
0.00115558
0.00109656
0.00102861
0.0012842
0.00117464
0.0129178
0.00310431
0.00169873
0.00168413
0.00161104
0.00154865
0.00149369
0.00141967
0.0013802
0.00132306
0.00128922
0.00124753
0.00121919
0.00120342
0.00118771
0.00115409
0.00110818
0.00105045
0.00126459
0.00117361
0.0103251
0.00255558
0.00169707
0.00167814
0.00162796
0.00155698
0.0015208
0.00145436
0.00141848
0.0013475
0.00130164
0.00124861
0.00120387
0.00115472
0.00113418
0.00112319
0.00107353
0.00101894
0.00118938
0.00110564
0.0085775
0.00215398
0.00166321
0.00163071
0.00157517
0.00150935
0.00149353
0.00142574
0.00139269
0.00134425
0.00130818
0.00127254
0.00124647
0.00119072
0.00115201
0.00112164
0.00108099
0.00103192
0.00116693
0.00111227
0.0070512
0.00195743
0.00166792
0.00161369
0.00161515
0.0015353
0.00149076
0.00142958
0.00139484
0.00133604
0.00129314
0.00122533
0.00120053
0.00115717
0.00111464
0.00109184
0.00105856
0.00102102
0.00112425
0.00105464
0.00595695
0.00180133
0.00161861
0.0015248
0.00153354
0.00142843
0.00142769
0.00137766
0.00135365
0.00131151
0.00129235
0.00125032
0.00122001
0.0012031
0.0011607
0.0011189
0.00107058
0.00103193
0.00111771
0.00106368
0.00518454
0.00178218
0.00170014
0.00157195
0.00152719
0.00146068
0.00141089
0.00134046
0.00131734
0.0012617
0.00124616
0.00119819
0.00115517
0.00112199
0.00110757
0.00108112
0.00104531
0.00100795
0.00107701
0.00104079
0.00456308
0.00172615
0.0017558
0.00157105
0.00156967
0.0015167
0.00146048
0.00141441
0.00133857
0.00128084
0.00122681
0.00119231
0.00115684
0.00110642
0.00108814
0.0010622
0.00103499
0.000997778
0.0010423
0.000998024
0.00421677
0.00159029
0.00164136
0.00153913
0.00153759
0.00144503
0.00140297
0.00136574
0.00133634
0.00131554
0.0012599
0.00123967
0.00120001
0.00117193
0.00111654
0.00109192
0.00104744
0.00100592
0.00105958
0.000985043
0.00399075
0.00156975
0.00158209
0.00154822
0.00147218
0.00145214
0.00139887
0.00135544
0.00131082
0.00129261
0.00124262
0.00120068
0.00113875
0.00112152
0.00107513
0.00105632
0.00101418
0.000969846
0.00101108
0.000955861
0.00453023
0.00175474
0.00153145
0.00149226
0.00146377
0.00140247
0.00137906
0.00133375
0.00127277
0.00124212
0.00120894
0.00119098
0.00116229
0.00112539
0.00109639
0.00106837
0.00103444
0.000985414
0.00101725
0.000952282
0.00281752
0.00176011
0.00157877
0.00159779
0.00148548
0.00145569
0.00137708
0.00135231
0.00131798
0.00126344
0.00120185
0.00116585
0.00113792
0.00109503
0.00107124
0.00103558
0.0010081
0.000954547
0.000988283
0.000935055
0.0161324
0.0157396
0.00989245
0.000136397
0.000842774
0.00133174
0.00135416
0.00126784
0.00127385
0.00119793
0.00110892
0.00113665
0.00114789
0.00115201
0.00121053
0.00133327
0.00133448
0.00127933
0.00117564
0.00107194
0.0182936
0.0159316
0.00874275
0.000642803
0.000972349
0.00142045
0.0013986
0.00134446
0.00123274
0.00120383
0.00122482
0.00116022
0.00114461
0.00118464
0.00119372
0.00125671
0.00130144
0.00131911
0.00122612
0.00108087
0.0197146
0.015726
0.00657629
0.000190044
0.00118572
0.00145257
0.00136586
0.00128753
0.00130424
0.00124967
0.00116338
0.00118581
0.00118337
0.00116531
0.00122213
0.00137051
0.0013914
0.00134444
0.00118457
0.00107169
0.0203239
0.0157636
0.00522467
0.000843186
0.0013671
0.00148369
0.00142555
0.00140227
0.00129656
0.00123598
0.0012345
0.00117621
0.00117152
0.00122331
0.00125311
0.00130888
0.00131016
0.00130496
0.00118256
0.00108079
0.0210937
0.0154557
0.00363755
0.000458062
0.00142256
0.00151292
0.00141613
0.00131867
0.00131989
0.00129112
0.00122767
0.00123404
0.00121663
0.00118741
0.00122714
0.00136983
0.00141299
0.00140439
0.00121591
0.00109817
0.0217658
0.0152685
0.00290012
0.000544248
0.00150352
0.00150774
0.00145758
0.00142736
0.00135494
0.00126991
0.00123221
0.00118954
0.00118928
0.00123011
0.00127495
0.00134444
0.00133174
0.00131188
0.00110734
0.00104873
0.0223265
0.014943
0.0018825
0.000781627
0.00155326
0.00154203
0.00146395
0.00135792
0.00132716
0.00131863
0.00128228
0.00126554
0.00123415
0.00120712
0.00122575
0.00133444
0.00139306
0.00141916
0.00121253
0.00109703
0.0229174
0.0146459
0.001531
0.000903607
0.0015671
0.00151431
0.00147899
0.00142984
0.0013935
0.00130094
0.00123259
0.00120899
0.00120262
0.00121369
0.00125891
0.00134314
0.00135199
0.00134727
0.00108332
0.0010326
0.0233659
0.0142862
0.00106072
0.00112936
0.00163776
0.00156151
0.0015031
0.00140129
0.00133414
0.00133331
0.00131332
0.00127494
0.00124127
0.00122476
0.00122388
0.00129406
0.00135955
0.00141426
0.00119
0.00109495
0.0236829
0.0138693
0.00145214
0.00116859
0.00160633
0.00152697
0.00149138
0.00142701
0.00141346
0.0013285
0.00124718
0.00123581
0.0012115
0.00118788
0.00121807
0.00129972
0.00135
0.00137599
0.00106673
0.0010233
0.024016
0.0135324
0.00123613
0.00137296
0.00168725
0.00158141
0.00153616
0.00144078
0.00134839
0.00134134
0.00131884
0.00127156
0.0012477
0.00123988
0.00121762
0.00125049
0.00132113
0.00140751
0.00116297
0.00108454
0.0240797
0.0129877
0.00236873
0.00132999
0.00166426
0.00153416
0.00150872
0.00143705
0.00142159
0.00135923
0.00128163
0.00126601
0.00122175
0.00117807
0.00118449
0.00123529
0.00131282
0.0013742
0.00105189
0.00103765
0.024288
0.0126903
0.00161853
0.00150233
0.00173867
0.00161356
0.00155238
0.0014771
0.00137184
0.00134426
0.0013103
0.00127141
0.00125234
0.00124361
0.00120545
0.00120396
0.00127421
0.00138141
0.00111006
0.00106085
0.0241714
0.0123032
0.00282707
0.0014144
0.0016885
0.0015619
0.00153657
0.00146205
0.00143353
0.00139705
0.00132672
0.00129589
0.00124695
0.00120063
0.00117928
0.00117448
0.00124734
0.00134124
0.00102998
0.00105314
0.0242065
0.0120831
0.00226858
0.00158168
0.0017463
0.0016419
0.00156364
0.00150801
0.00140041
0.00135297
0.00131027
0.00128306
0.0012549
0.00124163
0.00120746
0.00117768
0.00122022
0.00132224
0.0010516
0.00105419
0.0239244
0.011618
0.00229436
0.00152142
0.00169543
0.00159243
0.00156506
0.0014976
0.00145106
0.00143188
0.00136541
0.00132556
0.00128959
0.00124362
0.00119947
0.00115378
0.0011878
0.00126452
0.000976698
0.00107028
0.0237757
0.0113678
0.00273215
0.00162672
0.00174314
0.00165437
0.0015692
0.00153742
0.00143401
0.00138236
0.00133377
0.00130648
0.00127068
0.00125803
0.00123682
0.00119374
0.00120275
0.00124804
0.00097012
0.00106822
0.0233801
0.0098434
0.00191316
0.00161191
0.00169681
0.00163339
0.00157922
0.00152689
0.00146409
0.0014435
0.00138883
0.00134646
0.00132714
0.00128761
0.00124119
0.00119443
0.00119172
0.00120318
0.000877313
0.00107986
0.0230447
0.00964676
0.00273925
0.00166454
0.00172352
0.00165872
0.0015769
0.00156294
0.0014748
0.00142687
0.00137033
0.00133832
0.00129621
0.00128218
0.00126987
0.00124811
0.00125849
0.00124612
0.000889482
0.00104522
0.0225953
0.0079896
0.00180683
0.00169268
0.0016855
0.00166228
0.00156784
0.001535
0.00146129
0.00143912
0.0014043
0.00136395
0.00136162
0.0013375
0.00131494
0.00130813
0.00129504
0.00126044
0.0010318
0.00121128
0.00756928
0.00480555
0.00358969
0.00302535
0.00263691
0.00202742
0.00167632
0.00136297
0.00108345
0.000883935
0.000697881
0.000605115
0.00052861
0.00048777
0.000374798
0.000662475
0.00180971
0.00552588
0.0103191
0.0153712
0.00733188
0.00482093
0.00362303
0.00303943
0.00266722
0.00204308
0.00171458
0.0013882
0.00110389
0.000895594
0.000722248
0.000622305
0.000523244
0.000486417
0.000380052
0.000683193
0.00180613
0.00554992
0.0102942
0.0152913
0.00760101
0.00472965
0.00363629
0.00295075
0.00262629
0.00198601
0.00168048
0.00134628
0.00107236
0.000876788
0.000686642
0.000593821
0.00051071
0.000473099
0.000379075
0.000695075
0.00179547
0.00556748
0.0102884
0.0152506
0.00741388
0.00469835
0.00365914
0.00298478
0.00265056
0.00200465
0.00171551
0.00137398
0.00109163
0.000889668
0.000710952
0.000605898
0.000503568
0.000458928
0.000372104
0.000706101
0.00178156
0.00558541
0.0102109
0.0150849
0.00638876
0.00458917
0.0035597
0.00290526
0.00260764
0.0019462
0.00167799
0.00133575
0.00106197
0.000871204
0.000676613
0.000575986
0.000482854
0.000437897
0.000359747
0.000704394
0.00176628
0.00559903
0.0101883
0.0149571
0.00733674
0.00454371
0.00365258
0.0029593
0.00263618
0.0019698
0.00170608
0.00136665
0.00107734
0.00088749
0.000704663
0.000593536
0.000474354
0.000424069
0.000347357
0.000656628
0.00171573
0.00561575
0.0101696
0.0149088
0.00746624
0.00447902
0.0036283
0.00288057
0.00258833
0.001925
0.00166341
0.00133535
0.00105141
0.000870712
0.000674857
0.000572496
0.000457485
0.000388445
0.000328183
0.000623833
0.00160016
0.00555023
0.0102105
0.0148593
0.0075595
0.00445991
0.00364233
0.0029418
0.00260728
0.00195963
0.00168613
0.00136634
0.00106848
0.000893628
0.000703865
0.000592407
0.000449808
0.000378343
0.000299986
0.000621458
0.00157062
0.00549532
0.0102211
0.0148233
0.00749716
0.00441827
0.00359995
0.00287351
0.00255379
0.0019248
0.00164282
0.0013402
0.00104161
0.000877731
0.000683565
0.000579743
0.000436947
0.000358033
0.000282025
0.00057356
0.00150137
0.00547153
0.0102636
0.0147939
0.00752279
0.00446554
0.00360906
0.00292141
0.00256511
0.00196844
0.0016617
0.00136858
0.00106386
0.000903465
0.000708011
0.000600511
0.000432419
0.000345245
0.000258896
0.00054326
0.00140867
0.00546128
0.0102841
0.0147758
0.00734836
0.00438212
0.00359519
0.00285663
0.00249552
0.00194429
0.00162634
0.00134372
0.00103855
0.000888812
0.000692731
0.000591649
0.000427462
0.000322
0.000232435
0.000497282
0.00133585
0.00542577
0.0103078
0.014766
0.0074807
0.00435235
0.00358608
0.0029064
0.00248785
0.00197933
0.001644
0.0013751
0.00106407
0.00091189
0.000714309
0.000607279
0.000423092
0.000265408
0.000218172
0.000464133
0.00122216
0.00542155
0.0103404
0.0147581
0.007228
0.00426372
0.00357542
0.00283992
0.00242659
0.00195961
0.00160783
0.00135319
0.00104729
0.000902452
0.000700549
0.000597702
0.000389157
0.000311006
0.000194321
0.000413619
0.00112888
0.00536559
0.0103507
0.0147519
0.00738533
0.00421085
0.00358419
0.00288774
0.00239083
0.00199427
0.00162666
0.00138228
0.00107411
0.000927555
0.000729294
0.000620997
0.000392603
0.000343014
0.000168649
0.000356577
0.00100462
0.00536436
0.0103818
0.0147375
0.00717391
0.0040886
0.00353706
0.00285285
0.0023388
0.00196173
0.00159483
0.00136356
0.001061
0.000918416
0.000716525
0.000614212
0.000466469
0.000359137
0.000142911
0.000307286
0.000889524
0.00530884
0.0103968
0.0147334
0.00730517
0.00401902
0.00350002
0.0028637
0.00230686
0.00199235
0.00160529
0.00138414
0.00108672
0.000941784
0.000740785
0.000616159
0.000467165
0.000394049
8.43729e-05
0.00026861
0.000768203
0.00530024
0.0104121
0.014752
0.0072802
0.00392271
0.00344124
0.00283959
0.00225655
0.00195996
0.00158117
0.00136381
0.00107362
0.000932435
0.000733539
0.000627701
0.000464936
0.000405244
9.48278e-05
0.000219827
0.000637035
0.00523954
0.0104475
0.0147071
0.00733779
0.00383349
0.00333547
0.0028372
0.00226688
0.00200913
0.00161329
0.00140149
0.00111217
0.000966639
0.00075901
0.000639749
0.000486972
0.000421892
0.000108118
0.000190395
0.000510138
0.00528874
0.010498
0.014776
0.00733808
0.00386828
0.00319982
0.00276356
0.00220293
0.00196857
0.00159047
0.0013767
0.00109977
0.00095991
0.000756624
0.000647863
0.000484372
0.000431631
0.000106086
0.000162363
0.000338773
0.00522994
0.0105532
0.0148831
0.00785776
0.00389382
0.00304659
0.00269711
0.00215436
0.00193357
0.00155842
0.00133933
0.00107404
0.000936986
0.000744018
0.00063227
0.00049147
0.000419605
0.000150021
0.000133201
0.000180495
0.00498929
0.0103988
0.0145907
0.0147098
0.0400575
0.0311541
0.0288412
0.0233148
0.0210591
0.0170473
0.0146048
0.0116665
0.00993831
0.00796583
0.00687615
0.00536413
0.00515821
0.00286579
0.00172039
0
0.0486309
0.0993315
0.13499
0.0354087
0.024929
0.0211081
0.0189076
0.0155933
0.0138383
0.0116368
0.00979775
0.00812355
0.00674676
0.00560494
0.00472243
0.00423263
0.00376026
0.00368562
0.00323193
0.0111022
0.0505077
0.0971596
0.134575
0.0171534
0.0154799
0.0153706
0.0120433
0.0110029
0.00949589
0.00860413
0.00769764
0.00685163
0.00632693
0.0056068
0.00525509
0.00466185
0.00451382
0.00438938
0.00380236
0.00955268
0.050479
0.0947572
0.133709
0.0120978
0.0102782
0.00915999
0.00952467
0.00851368
0.00798073
0.00742728
0.00683183
0.00609719
0.00551992
0.0050952
0.00470091
0.00427099
0.00362338
0.00314917
0.00250026
0.00762447
0.0480792
0.0945011
0.130019
0.00625537
0.00831965
0.00839778
0.00655004
0.00587963
0.00543659
0.00530584
0.00525688
0.00481302
0.00459557
0.00428345
0.00398521
0.00388718
0.00375814
0.00340296
0.0024601
0.00547926
0.0438151
0.0948006
0.129109
0.00559069
0.00468533
0.00401899
0.00472286
0.00478023
0.00482397
0.00444878
0.00451099
0.00428537
0.00409542
0.00395714
0.00378697
0.00362633
0.00336336
0.00352724
0.00241973
0.00443304
0.0399898
0.0952009
0.129064
0.00232022
0.00378973
0.00446654
0.00436424
0.00375872
0.00339593
0.00346831
0.00345831
0.0034208
0.00353068
0.00340889
0.0034274
0.00327472
0.00340729
0.00311048
0.00230394
0.00369048
0.0322964
0.0960695
0.131528
0.00259557
0.00267228
0.00227725
0.00230761
0.00262521
0.003029
0.00294991
0.00313331
0.00308571
0.00317053
0.00322738
0.00335551
0.00327972
0.00335737
0.00336
0.00269016
0.00238435
0.0275024
0.0954705
0.136076
0.00157396
0.00183951
0.00216612
0.00240672
0.00243164
0.0023819
0.0022333
0.0023477
0.00266633
0.00287942
0.0027754
0.00294858
0.00299627
0.00339146
0.00335973
0.00330736
0.00249076
0.0198937
0.0938652
0.144651
0.00121083
0.00133266
0.00133327
0.00141698
0.00153494
0.00191171
0.00207198
0.00217218
0.00214948
0.00246077
0.00270811
0.00299143
0.00309303
0.00338781
0.0035435
0.00375012
0.0032227
0.0135967
0.0884773
0.155001
0.000723862
0.000909339
0.00108319
0.00130399
0.00142456
0.00146977
0.0015955
0.00188075
0.00202409
0.00218275
0.00230917
0.00268058
0.00287474
0.00332432
0.00355853
0.00433889
0.00386549
0.00874824
0.0681706
0.169199
0.000508981
0.000671659
0.000750998
0.00091248
0.00098642
0.00124528
0.00130586
0.00147535
0.00167163
0.00196754
0.00215395
0.00233838
0.00269378
0.00305646
0.00359204
0.00393706
0.00458559
0.00596477
0.0528271
0.189466
0.00052374
0.000616833
0.000682689
0.000843884
0.00091721
0.00108694
0.00126497
0.00147443
0.00157913
0.00178221
0.0019294
0.00226366
0.00251377
0.00278119
0.00312692
0.00345672
0.00449613
0.00901357
0.0259053
0.149741
0.000508945
0.000645283
0.000683156
0.000814142
0.000892894
0.00102982
0.00107161
0.00134144
0.00141072
0.0016077
0.00168578
0.00196052
0.00192628
0.00240071
0.00259033
0.0032615
0.00304568
0.00523252
0.0131592
0.101729
0.000560185
0.000646076
0.00069623
0.000794057
0.000848327
0.000920148
0.000960045
0.00100255
0.00100014
0.00117734
0.00126155
0.00147006
0.00170548
0.00194754
0.00184834
0.00213267
0.00258981
0.00306146
0.00305461
0.0586845
0.00044731
0.000495401
0.000505691
0.000581354
0.000619327
0.000749126
0.000747517
0.000866695
0.000902498
0.00101196
0.000935678
0.00113591
0.000949597
0.00122927
0.00119957
0.00175796
0.000933726
0.00117324
0.00375633
0.033365
0.000342081
0.000404972
0.000440447
0.000492756
0.00050736
0.000591406
0.000624068
0.000662503
0.000655116
0.000700999
0.000671877
0.000798574
0.000852673
0.00103082
0.000934056
0.00101804
0.000659451
0.00107279
0.000526764
0.0178047
0.000339826
0.000332017
0.000326072
0.000327456
0.000331276
0.000346176
0.000382719
0.000447613
0.000465998
0.000536141
0.000537432
0.000574049
0.000548983
0.000467134
0.000551826
0.000478485
0.000487886
0.000650793
0.00210757
0.00510044
0.00024239
0.000255257
0.000257831
0.000252838
0.000239092
0.000221164
0.000211318
0.000231274
0.000230119
0.00026705
0.00027611
0.000336613
0.000333704
0.000436989
0.000353728
0.000432022
0.000298706
0.000210529
0.000638148
0.00385896
0.000214037
0.000188485
0.000162803
0.000140929
0.000118199
9.85286e-05
0.000102578
0.00013559
0.000150991
0.000182595
0.000213338
0.00023898
0.000281722
0.000273568
0.000299024
0.000257328
0.00014042
0.000245459
0.000374839
0.00130881
0.0141632
0.0142471
0.0143069
0.0143444
0.0143763
0.0144202
0.0142119
0.0141511
0.0137876
0.0135442
0.0134347
0.0127054
0.0135115
0.0122698
0.0123992
0.0115768
0.0119197
0.0109184
0.0108925
0.0115472
0.00694984
0.00696752
0.00692922
0.00694676
0.00689541
0.00690069
0.0069647
0.00685904
0.00690933
0.00732011
0.00688935
0.00704079
0.00686737
0.00704682
0.00677036
0.00746716
0.007406
0.00671817
0.00668579
0.00805453
0.00413663
0.00417107
0.00419823
0.00427661
0.00429747
0.00443351
0.00441166
0.00458055
0.00459923
0.00450162
0.0042069
0.00444939
0.00443631
0.00429673
0.00393928
0.00387452
0.00350211
0.00424428
0.00468972
0.00476934
0.00263016
0.00263712
0.00263182
0.00263219
0.00260609
0.00261989
0.00256072
0.00257866
0.00250411
0.00250224
0.00274136
0.00283258
0.00275052
0.00281346
0.00267134
0.00294386
0.00270719
0.00312751
0.00249061
0.00263555
0.00156465
0.00156884
0.00156488
0.00156977
0.00156069
0.00159028
0.00156802
0.00167488
0.00176422
0.00177031
0.00166346
0.00172939
0.00195283
0.00193921
0.00171781
0.00165279
0.00137885
0.00119996
0.00120813
0.00134689
0.00110455
0.00111232
0.00111582
0.0011216
0.00112306
0.00114885
0.00114482
0.00118355
0.0011008
0.00113678
0.00099269
0.000994581
0.00100249
0.00116415
0.00111294
0.00148334
0.00132855
0.00123601
0.00101758
0.00115702
0.000632313
0.000635692
0.000642033
0.000647033
0.000659551
0.000662484
0.00067666
0.000676776
0.000650774
0.000678914
0.000739571
0.000932858
0.000877492
0.00088536
0.000795813
0.00074539
0.000699066
0.000743529
0.000474085
0.000469417
0.000441347
0.000446571
0.000452039
0.000458874
0.00047265
0.000489443
0.000480693
0.000461194
0.000457799
0.000465151
0.000475803
0.000493927
0.000422239
0.000466262
0.000454849
0.000537705
0.000527302
0.000607719
0.000546774
0.000670773
0.000223505
0.000227903
0.000232061
0.000236873
0.000251083
0.000248206
0.000234645
0.000244032
0.000263797
0.000268549
0.000276234
0.000269667
0.000316247
0.000360785
0.000337439
0.000339048
0.000308472
0.000264
0.000216025
0.00022628
0.000115888
0.000121024
0.000124508
0.000131278
0.000136528
0.000147953
0.00013892
0.000133749
0.000130761
0.000130061
0.000129793
0.000138333
0.000139649
0.000137451
0.000151471
0.000209593
0.000214773
0.000239487
0.000262566
0.000286852
3.16015e-05
2.23165e-05
1.75431e-05
1.57076e-05
1.83606e-05
2.13267e-05
2.24156e-05
1.71019e-05
4.61683e-05
7.20152e-05
9.21812e-05
9.71876e-05
9.20593e-05
9.9336e-05
8.91546e-05
0.000111554
0.00012117
0.000119952
0.000123308
0.000121355
5.90308e-05
5.31779e-05
5.32494e-05
4.9451e-05
4.542e-05
4.51026e-05
4.86307e-05
4.88031e-05
5.13759e-05
4.93066e-05
5.61377e-05
5.66494e-05
6.55874e-05
5.91613e-05
6.74343e-05
5.59748e-05
6.17118e-05
5.18727e-05
6.04427e-05
8.40135e-05
5.91812e-05
5.95462e-05
6.10688e-05
5.97841e-05
6.49266e-05
6.7959e-05
7.20459e-05
7.43567e-05
8.07121e-05
8.39869e-05
8.92354e-05
8.86761e-05
9.71805e-05
9.71408e-05
0.000109029
0.00010264
0.00011233
0.000103826
0.000116574
0.000122956
3.58717e-05
3.86523e-05
4.15466e-05
4.38403e-05
4.83931e-05
5.39694e-05
6.08413e-05
6.66155e-05
6.43376e-05
6.71988e-05
6.84639e-05
7.11792e-05
6.71988e-05
6.68447e-05
6.58167e-05
6.62677e-05
6.80382e-05
6.90392e-05
7.09123e-05
8.25602e-05
5.87806e-05
6.01574e-05
6.21836e-05
6.46626e-05
6.67821e-05
7.00398e-05
7.39111e-05
7.90954e-05
8.44208e-05
8.64997e-05
9.17622e-05
9.60634e-05
0.000102329
0.000104013
0.000110311
0.000109287
0.000116034
0.000113285
0.000124438
0.000131337
7.17323e-05
7.24675e-05
7.23099e-05
7.14923e-05
7.07498e-05
6.91686e-05
6.77787e-05
6.76987e-05
7.2999e-05
7.27717e-05
6.26326e-05
5.27902e-05
5.39851e-05
6.79117e-05
7.32788e-05
8.31988e-05
8.75689e-05
8.83672e-05
9.26729e-05
0.000101346
7.04129e-05
7.08707e-05
7.25244e-05
7.40944e-05
7.52143e-05
7.55693e-05
7.52338e-05
7.38582e-05
7.51132e-05
8.06469e-05
8.27705e-05
8.16436e-05
8.20133e-05
8.14308e-05
8.19376e-05
7.9912e-05
8.09511e-05
7.89173e-05
8.23091e-05
8.24169e-05
6.77844e-05
6.82824e-05
6.79164e-05
6.82761e-05
6.86204e-05
6.92787e-05
6.95992e-05
6.85095e-05
6.43413e-05
6.36742e-05
6.8048e-05
6.93968e-05
6.9851e-05
7.19208e-05
7.52118e-05
7.7587e-05
7.77111e-05
7.71463e-05
7.8753e-05
8.25828e-05
8.10805e-05
7.97075e-05
7.8698e-05
7.7024e-05
7.56214e-05
7.41976e-05
7.3475e-05
7.53895e-05
8.44557e-05
8.06767e-05
6.84548e-05
6.50542e-05
6.42288e-05
6.12558e-05
5.57937e-05
5.47092e-05
5.69616e-05
5.9897e-05
5.80728e-05
5.92643e-05
6.99712e-05
6.93105e-05
6.84936e-05
6.75661e-05
6.70866e-05
6.6181e-05
6.46262e-05
6.33707e-05
5.57275e-05
6.34633e-05
6.64973e-05
6.56055e-05
6.49445e-05
6.42902e-05
6.28836e-05
6.11884e-05
5.96756e-05
5.89616e-05
5.77257e-05
5.6856e-05
0.000986278
0.00115097
0.000855987
0.000913076
0.000955337
0.000961339
0.000987176
0.00103816
0.00108771
0.00111398
0.00115686
0.00120318
0.00129202
0.00131567
0.00138432
0.00138631
0.00146351
0.00163756
0.00603285
0.0184349
0.000896761
0.00106001
0.000846496
0.00092344
0.0010076
0.00104173
0.00108887
0.00111405
0.00113699
0.00119659
0.00124782
0.00126903
0.00130387
0.00133636
0.00140345
0.00139726
0.00149266
0.00129791
0.00502353
0.0180004
0.00100956
0.00116083
0.000862014
0.00091921
0.000972266
0.000979851
0.00100473
0.00104964
0.00110499
0.00113755
0.00117025
0.00120471
0.00128717
0.00131252
0.00137525
0.00138345
0.00152087
0.00130411
0.00437028
0.0175352
0.00103747
0.00116279
0.000903048
0.000986023
0.00102458
0.00105081
0.00109686
0.00114304
0.00115844
0.00120905
0.0012525
0.00128679
0.00132166
0.00134911
0.00141667
0.00141465
0.00153337
0.00132663
0.00405255
0.0169822
0.00104479
0.00117425
0.000897996
0.00094666
0.000993019
0.00102137
0.00106727
0.00108356
0.00111902
0.00115658
0.00118159
0.00121896
0.0012904
0.0013248
0.001385
0.00141122
0.00153683
0.00141213
0.00487209
0.0162752
0.00103404
0.00114709
0.00090506
0.00098578
0.00105517
0.00110476
0.0011028
0.00112584
0.00115403
0.00120758
0.00124714
0.00129639
0.0013328
0.00136919
0.00145339
0.00147652
0.00162072
0.00150385
0.00457977
0.0155818
0.00108433
0.00115096
0.000919839
0.000994148
0.00103175
0.00102072
0.00103666
0.00108732
0.00114618
0.00118079
0.001197
0.00124252
0.00129712
0.00136419
0.00142923
0.0014638
0.00158415
0.00145905
0.00442074
0.0146875
0.000992858
0.00105793
0.000889393
0.00096366
0.00100157
0.00104399
0.00111356
0.00116711
0.00117043
0.00118312
0.00122562
0.00129422
0.00134689
0.00141596
0.00146734
0.00152508
0.00165143
0.00157409
0.00353672
0.0135244
0.00108828
0.00113073
0.000972132
0.00102629
0.00105596
0.0010835
0.00108264
0.00108003
0.00109142
0.00115041
0.00121758
0.00128524
0.00132417
0.00138531
0.00141329
0.00147089
0.00149439
0.00151014
0.00274938
0.0111718
0.000964103
0.00100656
0.000889161
0.000941362
0.000969937
0.000986245
0.00100709
0.00106673
0.00113115
0.00122543
0.00127876
0.00130327
0.00134573
0.00140786
0.00143042
0.00149966
0.00156265
0.00161439
0.00234322
0.00916549
0.00102377
0.0010533
0.000958063
0.00100882
0.00103797
0.00107349
0.00110848
0.0011579
0.0011904
0.00123222
0.00122247
0.00127155
0.00131288
0.00134804
0.00134676
0.00140908
0.00144091
0.0015292
0.00195248
0.007163
0.000962606
0.000982661
0.000914161
0.000940386
0.00097826
0.00100789
0.001045
0.00109226
0.00112801
0.00117533
0.00122017
0.0013026
0.00132457
0.00136327
0.00137857
0.0015022
0.00154097
0.00161741
0.00182619
0.00603318
0.000977988
0.00102234
0.000959858
0.00101162
0.00105666
0.00109026
0.00113138
0.00116817
0.00120108
0.00123603
0.00124973
0.00127305
0.00126372
0.00129432
0.00135591
0.00147415
0.00146195
0.00158564
0.00167223
0.00486996
0.000970976
0.00100514
0.000957185
0.00100232
0.00103446
0.00106156
0.00108081
0.00110729
0.00111983
0.00114559
0.00117861
0.00123441
0.00127088
0.00136336
0.00147017
0.00150305
0.00150724
0.0016408
0.00163329
0.00435419
0.000950604
0.000995538
0.000956995
0.00100187
0.0010338
0.00105695
0.00108468
0.00112278
0.00115444
0.00121628
0.0012568
0.00130666
0.00135038
0.00144225
0.0014355
0.00141086
0.00146581
0.00162967
0.00159043
0.00399322
0.000954196
0.000984528
0.000956771
0.00100312
0.00103818
0.00106075
0.00110161
0.00113072
0.00117381
0.00121286
0.00124712
0.00129758
0.00133864
0.00137288
0.00136747
0.00149387
0.00161463
0.00159043
0.0015718
0.00401203
0.000952213
0.00099917
0.000973011
0.00102178
0.00105796
0.00108526
0.00112404
0.0011541
0.00119709
0.00122896
0.00127575
0.00132235
0.00136176
0.00143278
0.00149208
0.00158776
0.00154616
0.00136387
0.00138664
0.00357037
0.000933344
0.000982709
0.000958168
0.00100403
0.00104022
0.00106343
0.00109773
0.00113069
0.00116342
0.00120727
0.0012411
0.00128198
0.00132224
0.00135788
0.00141519
0.00142075
0.00140216
0.00148432
0.00195168
0.00264645
0.00093402
0.000980649
0.000958044
0.00101185
0.00104523
0.00106972
0.00110262
0.00113185
0.00116242
0.00120742
0.00121706
0.00125505
0.0012819
0.00133529
0.00131799
0.00144958
0.00147875
0.00180902
0.00183562
0.00157034
0.000905023
0.000978123
0.000935511
0.00100386
0.0010236
0.00106866
0.00109631
0.00114876
0.00119238
0.00123931
0.00128118
0.00134186
0.00139719
0.00146122
0.00153236
0.00154044
0.00162788
0.00163829
0.00142868
0.00178316
0.000467031
0.000303918
0.000239021
0.000283895
0.00042666
0.000420291
0.000381791
0.000378763
0.000430553
0.000458177
0.000440811
0.000335563
8.70306e-05
0.00037857
0.00278387
0.00715943
0.0117344
0.0102374
0.00486873
0.000606503
0.000502118
0.000365462
0.000343118
0.000308618
0.000331482
0.000388376
0.000432234
0.000407504
0.000404434
0.000397767
0.000446139
0.000440787
0.000310917
0.000141339
0.00113001
0.0048735
0.01002
0.0119509
0.00823773
0.00146276
0.000568152
0.000411096
0.000284179
0.000305324
0.000416111
0.000397917
0.00039412
0.000414107
0.000444887
0.000454866
0.000411642
0.0004371
0.000394871
0.000202302
0.00012521
0.00255124
0.00801473
0.0122942
0.00977403
0.00216298
0.000642653
0.000560278
0.000403872
0.000281326
0.00033917
0.00043422
0.000466726
0.000424846
0.000432592
0.000451567
0.000480683
0.000488316
0.00046724
0.00037908
0.000192801
0.000979075
0.00609517
0.0118219
0.0110719
0.0030785
0.00065423
0.00056536
0.000416604
0.000362071
0.00042239
0.000400188
0.000445276
0.000478294
0.000492005
0.000499422
0.000473751
0.000467594
0.000559379
0.000523451
0.000249629
0.000221691
0.00366227
0.0105079
0.012143
0.0059511
0.000699744
0.000671664
0.000511657
0.000327235
0.000400367
0.000489283
0.000512555
0.000478031
0.000497472
0.000543795
0.000578384
0.000563228
0.00056033
0.00060365
0.000500569
0.000287577
0.00160031
0.00940375
0.0126947
0.00802541
0.000669857
0.000647838
0.00056067
0.000423585
0.000462614
0.000449419
0.000513258
0.000563788
0.000565919
0.000568607
0.000579213
0.000609669
0.000653395
0.000728013
0.000650667
0.000240317
0.000693731
0.00813787
0.0128873
0.0105887
0.000708054
0.000710211
0.000599944
0.000407904
0.000477652
0.00055612
0.000573319
0.000547212
0.000585121
0.000650513
0.000686133
0.000671431
0.000674723
0.000769092
0.000782022
0.000561086
0.000371454
0.00608418
0.0127685
0.0131516
0.000692919
0.000687966
0.000646511
0.00049445
0.000536133
0.000534182
0.000588625
0.000652111
0.000648229
0.000650607
0.000693734
0.000742704
0.000780132
0.000837888
0.000866366
0.000719724
0.000252636
0.00405693
0.0126833
0.0150465
0.000730144
0.000730312
0.000688204
0.000502358
0.000561567
0.000640416
0.000650577
0.00063132
0.000682933
0.000757655
0.000787788
0.000781112
0.000800676
0.000881998
0.000953431
0.000899968
0.000304477
0.00271402
0.012271
0.0165786
0.000753872
0.000723896
0.00072103
0.000575718
0.000620501
0.000637716
0.000672292
0.000739594
0.00074291
0.00074498
0.000808456
0.00086666
0.000892122
0.00095852
0.000982264
0.000941032
0.000450506
0.00175637
0.0119387
0.0171429
0.000766586
0.000710081
0.00073547
0.000596702
0.00064701
0.000724514
0.000735814
0.000727482
0.000783215
0.000860931
0.000888878
0.000885893
0.000920143
0.00101335
0.00105847
0.00112217
0.000624645
0.00128889