/*--------------------------------*- C++ -*----------------------------------*\
  =========                 |
  \\      /  F ield         | OpenFOAM: The Open Source CFD Toolbox
   \\    /   O peration     | Website:  https://openfoam.org
    \\  /    A nd           | Version:  9
     \\/     M anipulation  |
\*---------------------------------------------------------------------------*/
FoamFile
{
    format      ascii;
    class       surfaceScalarField;
    location    "9.6";
    object      phi;
}
// * * * * * * * * * * * * * * * * * * * * * * * * * * * * * * * * * * * * * //

dimensions      [0 3 -1 0 0 0 0];

internalField   nonuniform List<scalar> 
92080
(
-0.00573791
-0.537693
0.543431
-0.0345746
-1.06124
1.09007
-0.0798685
-1.15765
1.20294
-0.126065
-1.13739
1.18359
-0.172088
-1.11821
1.16423
-0.217847
-1.09871
1.14447
-0.263124
-1.08099
1.12627
-0.307154
-1.06421
1.10824
-0.350905
-1.04742
1.09117
-0.394096
-1.0329
1.07609
-0.436511
-1.01903
1.06145
-0.478639
-1.00615
1.04828
-0.519386
-0.994738
1.03548
-0.559939
-0.982862
1.02342
-0.599248
-0.971677
1.01099
-0.637695
-0.959553
0.998
-0.67518
-0.948891
0.986376
-0.712113
-0.93679
0.973723
-0.748903
-0.924908
0.961697
-0.917846
0.95057
-0.781626
-0.00763682
-0.530057
-0.0390661
-1.02981
-0.0893361
-1.10738
-0.139618
-1.08711
-0.18785
-1.06998
-0.234829
-1.05174
-0.280997
-1.03482
-0.326265
-1.01895
-0.370454
-1.00323
-0.414424
-0.988929
-0.457664
-0.975792
-0.500898
-0.962914
-0.543751
-0.951885
-0.585491
-0.941122
-0.626356
-0.930812
-0.666056
-0.919853
-0.704818
-0.910129
-0.740822
-0.900785
-0.773773
-0.891957
-0.884483
-0.807136
-0.00931083
-0.520746
-0.043909
-0.995209
-0.0918561
-1.05943
-0.140313
-1.03866
-0.188778
-1.02151
-0.236859
-1.00365
-0.28452
-0.98716
-0.331258
-0.972207
-0.377342
-0.957144
-0.423113
-0.943159
-0.468039
-0.930866
-0.512238
-0.918715
-0.556229
-0.907893
-0.599298
-0.898053
-0.64125
-0.88886
-0.682067
-0.879036
-0.722546
-0.86965
-0.76378
-0.859551
-0.804329
-0.851408
-0.845258
-0.843554
-0.0100846
-0.510661
-0.0493921
-0.955902
-0.101268
-1.00755
-0.152768
-0.987156
-0.20276
-0.971522
-0.251673
-0.954742
-0.300353
-0.93848
-0.348481
-0.924079
-0.395237
-0.910388
-0.441521
-0.896875
-0.487191
-0.885196
-0.532192
-0.873714
-0.576715
-0.86337
-0.621578
-0.85319
-0.665691
-0.844747
-0.708999
-0.835728
-0.74987
-0.82878
-0.789278
-0.820143
-0.829326
-0.81136
-0.804482
-0.870102
-0.00871298
-0.501948
-0.0513692
-0.913245
-0.102157
-0.956766
-0.153589
-0.935724
-0.204923
-0.920187
-0.254953
-0.904712
-0.304037
-0.889396
-0.353112
-0.875004
-0.401258
-0.862243
-0.449141
-0.848991
-0.496774
-0.837563
-0.543933
-0.826554
-0.590431
-0.816872
-0.636024
-0.807597
-0.681576
-0.799195
-0.727461
-0.789843
-0.773855
-0.782386
-0.817968
-0.77603
-0.860468
-0.76886
-0.76199
-0.902959
-0.00606102
-0.495887
-0.0516337
-0.867673
-0.105424
-0.902976
-0.158251
-0.882896
-0.210872
-0.867567
-0.263032
-0.852552
-0.314154
-0.838274
-0.364678
-0.824479
-0.414576
-0.812345
-0.462842
-0.800725
-0.510704
-0.789702
-0.557987
-0.779271
-0.605055
-0.769805
-0.65174
-0.760912
-0.6971
-0.753835
-0.741356
-0.745586
-0.786556
-0.737186
-0.832296
-0.73029
-0.877085
-0.724071
-0.717669
-0.921406
-0.00183625
-0.494051
-0.0488498
-0.820659
-0.105962
-0.845863
-0.162156
-0.826702
-0.216647
-0.813077
-0.269526
-0.799673
-0.321397
-0.786403
-0.372344
-0.773531
-0.423098
-0.761591
-0.473373
-0.75045
-0.522535
-0.74054
-0.571285
-0.73052
-0.619813
-0.721277
-0.668684
-0.712041
-0.717734
-0.704786
-0.765389
-0.697931
-0.811583
-0.690993
-0.857815
-0.684058
-0.903779
-0.678107
-0.672142
-0.949307
-0.00114746
-0.492903
-0.0511907
-0.770616
-0.108839
-0.788215
-0.164094
-0.771447
-0.219823
-0.757347
-0.274132
-0.745364
-0.32736
-0.733175
-0.37938
-0.721512
-0.430623
-0.710348
-0.481738
-0.699334
-0.532223
-0.690056
-0.581525
-0.681218
-0.629511
-0.673291
-0.676724
-0.664828
-0.724241
-0.657268
-0.772154
-0.650019
-0.820202
-0.642945
-0.86758
-0.636679
-0.914938
-0.630749
-0.625029
-0.962051
-0.00193128
-0.490972
-0.054295
-0.718252
-0.115585
-0.726925
-0.173315
-0.713717
-0.229633
-0.70103
-0.284907
-0.69009
-0.338756
-0.679326
-0.391906
-0.668362
-0.443748
-0.658506
-0.494977
-0.648105
-0.546305
-0.638728
-0.597608
-0.629915
-0.648813
-0.622087
-0.699015
-0.614626
-0.748064
-0.60822
-0.795765
-0.602317
-0.842943
-0.595768
-0.890005
-0.589617
-0.936637
-0.584116
-0.578972
-0.982694
-0.00813876
-0.482833
-0.0633481
-0.663043
-0.124253
-0.666019
-0.182335
-0.655636
-0.238532
-0.644833
-0.294159
-0.634464
-0.34812
-0.625365
-0.400659
-0.615822
-0.452231
-0.606934
-0.502642
-0.597695
-0.55248
-0.58889
-0.601864
-0.580531
-0.651094
-0.572857
-0.70079
-0.564929
-0.751132
-0.557878
-0.800843
-0.552606
-0.849711
-0.546899
-0.89795
-0.541379
-0.946122
-0.535944
-0.531137
-0.993957
-0.0164855
-0.466348
-0.0718209
-0.607707
-0.132331
-0.60551
-0.191332
-0.596634
-0.248879
-0.587286
-0.30547
-0.577872
-0.361554
-0.569281
-0.416472
-0.560904
-0.47064
-0.552766
-0.523352
-0.544982
-0.575085
-0.537157
-0.626012
-0.529604
-0.675592
-0.523277
-0.724015
-0.516506
-0.772695
-0.509198
-0.821722
-0.503579
-0.870288
-0.498333
-0.918247
-0.49342
-0.965662
-0.488529
-0.484305
-1.01249
-0.0239891
-0.442359
-0.0787749
-0.552922
-0.137393
-0.546892
-0.196215
-0.537812
-0.252894
-0.530606
-0.308898
-0.521868
-0.364542
-0.513638
-0.419174
-0.506271
-0.4731
-0.498841
-0.526328
-0.491754
-0.578618
-0.484867
-0.630839
-0.477383
-0.683155
-0.470961
-0.733827
-0.465835
-0.783569
-0.459456
-0.833199
-0.45395
-0.882419
-0.449113
-0.931124
-0.444715
-0.979347
-0.440306
-0.436077
-1.02757
-0.0314848
-0.410874
-0.0889924
-0.495414
-0.14793
-0.487955
-0.206591
-0.479151
-0.265466
-0.471731
-0.322796
-0.464539
-0.379084
-0.45735
-0.434614
-0.450741
-0.489178
-0.444276
-0.542827
-0.438105
-0.595245
-0.432449
-0.645828
-0.4268
-0.696375
-0.420413
-0.746465
-0.415745
-0.795316
-0.410605
-0.843919
-0.405346
-0.892679
-0.400353
-0.941158
-0.396236
-0.989052
-0.392411
-0.388922
-1.03621
-0.037354
-0.37352
-0.0951757
-0.437593
-0.152583
-0.430547
-0.208492
-0.423242
-0.265072
-0.415151
-0.319514
-0.410097
-0.37422
-0.402644
-0.428183
-0.396778
-0.481953
-0.390505
-0.535217
-0.384842
-0.588562
-0.379103
-0.641152
-0.374211
-0.693175
-0.36839
-0.745457
-0.363463
-0.796641
-0.35942
-0.84682
-0.355167
-0.896191
-0.350982
-0.945516
-0.346912
-0.99476
-0.343167
-0.340042
-1.04364
-0.0417649
-0.331755
-0.102255
-0.377102
-0.163152
-0.36965
-0.222011
-0.364384
-0.279006
-0.358156
-0.335565
-0.353538
-0.390567
-0.347642
-0.444503
-0.342843
-0.498159
-0.336849
-0.55066
-0.332341
-0.603229
-0.326534
-0.654745
-0.322694
-0.705272
-0.317864
-0.755617
-0.313119
-0.806155
-0.308882
-0.856203
-0.305119
-0.905723
-0.301462
-0.954712
-0.297923
-1.00346
-0.294423
-0.290806
-1.05269
-0.0440137
-0.287741
-0.105519
-0.315596
-0.168088
-0.307082
-0.227205
-0.305266
-0.285878
-0.299483
-0.344614
-0.294802
-0.401616
-0.29064
-0.458031
-0.286427
-0.512341
-0.282539
-0.565614
-0.279068
-0.617746
-0.274402
-0.669611
-0.270829
-0.720705
-0.26677
-0.770354
-0.263469
-0.820087
-0.259149
-0.869469
-0.255738
-0.918831
-0.2521
-0.967892
-0.248862
-1.01639
-0.245925
-0.242736
-1.06446
-0.0449473
-0.242794
-0.103625
-0.256918
-0.162666
-0.248042
-0.22139
-0.246542
-0.279447
-0.241426
-0.335697
-0.238552
-0.391316
-0.235021
-0.446554
-0.231189
-0.501714
-0.227379
-0.556601
-0.224181
-0.610159
-0.220844
-0.663604
-0.217384
-0.716546
-0.213828
-0.769291
-0.210724
-0.820578
-0.207862
-0.871485
-0.204831
-0.92151
-0.202075
-0.971171
-0.199201
-1.0206
-0.196492
-0.19385
-1.06949
-0.062138
-0.180656
-0.119097
-0.199959
-0.17759
-0.189549
-0.235948
-0.188185
-0.292971
-0.184403
-0.350087
-0.181435
-0.406169
-0.178939
-0.461147
-0.176212
-0.515563
-0.172962
-0.570057
-0.169688
-0.623779
-0.167122
-0.676499
-0.164664
-0.727687
-0.16264
-0.778759
-0.159652
-0.828954
-0.157668
-0.878836
-0.154948
-0.928034
-0.152877
-0.97685
-0.150384
-1.02507
-0.148273
-0.145783
-1.07314
-0.0616521
-0.119004
-0.125311
-0.136301
-0.181382
-0.133478
-0.238865
-0.130701
-0.294984
-0.128284
-0.350459
-0.12596
-0.405858
-0.12354
-0.46076
-0.12131
-0.514062
-0.119659
-0.567018
-0.116731
-0.619515
-0.114626
-0.672115
-0.112063
-0.724395
-0.11036
-0.775968
-0.108079
-0.827142
-0.106494
-0.877719
-0.104371
-0.927794
-0.102802
-0.977362
-0.100816
-1.02639
-0.0992406
-0.0973455
-1.07483
-0.0571904
-0.0618135
-0.120882
-0.0726092
-0.179818
-0.0745419
-0.23987
-0.0706487
-0.297467
-0.0706878
-0.354865
-0.0685619
-0.410337
-0.0680681
-0.465734
-0.0659126
-0.520846
-0.0645478
-0.574745
-0.0628323
-0.6273
-0.0620707
-0.679134
-0.0602298
-0.730742
-0.058752
-0.781391
-0.0574301
-0.831883
-0.0560016
-0.881524
-0.0547303
-0.930859
-0.0534662
-0.979584
-0.0520916
-1.02795
-0.0508728
-1.07587
-0.0494253
0.037846
-0.30548
0.267634
0.0960678
-0.928919
0.870697
0.147565
-1.45971
1.40821
0.162975
-1.63379
1.61838
0.166363
-1.63746
1.63407
0.165479
-1.61733
1.61821
0.164691
-1.59374
1.59453
0.162879
-1.57268
1.57449
0.160046
-1.55281
1.55564
0.157257
-1.53487
1.53766
0.153983
-1.51774
1.52102
0.150677
-1.50155
1.50485
0.147344
-1.48539
1.48873
0.143438
-1.46872
1.47263
0.138775
-1.45144
1.4561
0.133524
-1.43187
1.43712
0.128149
-1.41045
1.41582
0.123184
-1.38778
1.39274
0.118362
-1.36914
1.37396
-1.34987
0.113252
1.35498
0.0370771
-0.342557
0.092529
-0.98437
0.129814
-1.49699
0.136187
-1.64016
0.134125
-1.6354
0.129128
-1.61233
0.124762
-1.58937
0.120763
-1.56868
0.117257
-1.5493
0.113456
-1.53107
0.109484
-1.51377
0.104996
-1.49706
0.100092
-1.48049
0.0952249
-1.46385
0.0903286
-1.44654
0.0854937
-1.42704
0.0798123
-1.40477
0.0735396
-1.38151
0.0666048
-1.3622
-1.34312
0.059856
0.0323269
-0.374884
0.0816673
-1.03371
0.110898
-1.52622
0.112912
-1.64218
0.109142
-1.63163
0.103945
-1.60713
0.0988227
-1.58425
0.093117
-1.56298
0.0865695
-1.54276
0.0794683
-1.52397
0.0723147
-1.50662
0.0654128
-1.49016
0.0585146
-1.47359
0.0513227
-1.45666
0.0438243
-1.43904
0.0355009
-1.41871
0.0269179
-1.39618
0.0184932
-1.37308
0.010728
-1.35444
-1.33553
0.00313411
0.0249692
-0.399853
0.0662147
-1.07496
0.0886074
-1.54862
0.0872267
-1.64079
0.0796929
-1.62409
0.0717767
-1.59922
0.0637056
-1.57618
0.055671
-1.55494
0.0478861
-1.53497
0.0404449
-1.51653
0.0324815
-1.49866
0.0238902
-1.48157
0.0150755
-1.46478
0.00626558
-1.44785
-0.00268312
-1.43009
-0.0111337
-1.41026
-0.0196871
-1.38763
-0.0283653
-1.3644
-0.0377008
-1.3451
-1.326
-0.0472256
0.0267523
-0.426605
0.0636605
-1.11186
0.0769111
-1.56187
0.0703972
-1.63428
0.0602604
-1.61396
0.0501565
-1.58911
0.0397975
-1.56582
0.0293371
-1.54448
0.018644
-1.52428
0.00707407
-1.50496
-0.00408684
-1.48749
-0.0148537
-1.4708
-0.0256832
-1.45395
-0.036521
-1.43701
-0.04716
-1.41945
-0.0582297
-1.39919
-0.0697073
-1.37615
-0.0813477
-1.35276
-0.0927364
-1.33371
-1.31554
-0.103199
0.0223588
-0.448964
0.0522754
-1.14178
0.0584997
-1.56809
0.0483441
-1.62413
0.0354599
-1.60107
0.0227653
-1.57642
0.0102566
-1.55331
-0.00223492
-1.53199
-0.0147779
-1.51174
-0.0265555
-1.49318
-0.0390571
-1.47499
-0.0519706
-1.45789
-0.0647277
-1.44119
-0.0774011
-1.42434
-0.0901334
-1.40672
-0.102201
-1.38712
-0.113749
-1.3646
-0.125051
-1.34146
-0.136505
-1.32226
-1.30397
-0.148078
0.0210963
-0.47006
0.0467216
-1.16741
0.0470585
-1.56843
0.0328776
-1.60994
0.016977
-1.58517
0.00143219
-1.56087
-0.0142922
-1.53759
-0.0297638
-1.51652
-0.044794
-1.49671
-0.0606011
-1.47737
-0.0756635
-1.45993
-0.0904899
-1.44306
-0.105523
-1.42616
-0.120303
-1.40956
-0.1345
-1.39252
-0.148459
-1.37316
-0.16253
-1.35053
-0.176892
-1.3271
-0.191658
-1.30749
-1.28952
-0.206111
0.0175899
-0.48765
0.0377121
-1.18753
0.0324408
-1.56316
0.0157295
-1.59323
-0.0021436
-1.5673
-0.0198136
-1.5432
-0.0371269
-1.52027
-0.0545251
-1.49912
-0.0721198
-1.47911
-0.088865
-1.46063
-0.106219
-1.44258
-0.123449
-1.42583
-0.140187
-1.40942
-0.156843
-1.3929
-0.173397
-1.37597
-0.18937
-1.35719
-0.204576
-1.33533
-0.219361
-1.31231
-0.234077
-1.29278
-1.27475
-0.248846
0.0158684
-0.503519
0.030734
-1.20239
0.0197002
-1.55212
-0.00118878
-1.57234
-0.0223768
-1.54611
-0.0433561
-1.52222
-0.0642661
-1.49936
-0.0845902
-1.4788
-0.104166
-1.45954
-0.124055
-1.44074
-0.1432
-1.42343
-0.162435
-1.4066
-0.181887
-1.38997
-0.200838
-1.37395
-0.219058
-1.35775
-0.236412
-1.33984
-0.253378
-1.31836
-0.270523
-1.29517
-0.288233
-1.27507
-1.25723
-0.30575
0.0134309
-0.51695
0.0243584
-1.21332
0.0101044
-1.53787
-0.0125257
-1.54971
-0.0354778
-1.52316
-0.0581834
-1.49952
-0.0806049
-1.47694
-0.103187
-1.45622
-0.125807
-1.43692
-0.147828
-1.41872
-0.169966
-1.40129
-0.191373
-1.38519
-0.212195
-1.36914
-0.233023
-1.35312
-0.253491
-1.33728
-0.273331
-1.32
-0.292153
-1.29954
-0.31049
-1.27683
-0.329092
-1.25646
-1.23878
-0.347538
0.011012
-0.527961
0.0157485
-1.21806
-0.00459988
-1.51752
-0.0312486
-1.52307
-0.0576564
-1.49675
-0.0838137
-1.47336
-0.109593
-1.45116
-0.134726
-1.43108
-0.159164
-1.41248
-0.183258
-1.39463
-0.207018
-1.37753
-0.231088
-1.36112
-0.25499
-1.34524
-0.27832
-1.32979
-0.301102
-1.3145
-0.322702
-1.2984
-0.343295
-1.27895
-0.363354
-1.25677
-0.383708
-1.23611
-1.2183
-0.404193
0.00965956
-0.537621
0.0111409
-1.21954
-0.0109438
-1.49544
-0.0384806
-1.49553
-0.0663409
-1.46889
-0.0940107
-1.44569
-0.121583
-1.42359
-0.149266
-1.4034
-0.176766
-1.38498
-0.204065
-1.36733
-0.230681
-1.35092
-0.256406
-1.33539
-0.281784
-1.31986
-0.306918
-1.30466
-0.331481
-1.28994
-0.355262
-1.27462
-0.377812
-1.2564
-0.399776
-1.23481
-0.421795
-1.21409
-1.19676
-0.443337
0.00671499
-0.544336
0.00299996
-1.21582
-0.0255797
-1.46686
-0.0575453
-1.46356
-0.0886743
-1.43776
-0.119573
-1.41479
-0.149789
-1.39338
-0.1796
-1.37359
-0.208947
-1.35563
-0.237481
-1.33879
-0.266263
-1.32214
-0.295036
-1.30662
-0.323195
-1.2917
-0.351058
-1.2768
-0.37864
-1.26235
-0.405082
-1.24817
-0.429794
-1.23168
-0.453222
-1.21138
-0.476871
-1.19044
-1.17314
-0.500487
0.00599426
-0.55033
-0.000585037
-1.20925
-0.0296789
-1.43776
-0.0624243
-1.43082
-0.0950921
-1.40509
-0.127611
-1.38227
-0.160296
-1.36069
-0.192767
-1.34112
-0.225001
-1.3234
-0.257284
-1.30651
-0.288269
-1.29115
-0.318887
-1.276
-0.349351
-1.26124
-0.378975
-1.24717
-0.408038
-1.23329
-0.43642
-1.21979
-0.463294
-1.20481
-0.488701
-1.18598
-0.513613
-1.16553
-1.14833
-0.53843
0.00270421
-0.553035
-0.00938949
-1.19715
-0.0433508
-1.4038
-0.0799536
-1.39421
-0.115294
-1.36975
-0.150326
-1.34724
-0.184523
-1.32649
-0.218831
-1.30681
-0.252742
-1.28948
-0.285905
-1.27335
-0.319518
-1.25754
-0.352243
-1.24328
-0.384572
-1.22891
-0.417104
-1.21464
-0.449369
-1.20103
-0.481089
-1.18807
-0.511093
-1.17481
-0.539047
-1.15802
-0.566124
-1.13845
-1.12138
-0.593067
0.00168077
-0.554715
-0.0131338
-1.18234
-0.0475222
-1.36941
-0.0850442
-1.35669
-0.122312
-1.33249
-0.159336
-1.31022
-0.196428
-1.2894
-0.233005
-1.27023
-0.26964
-1.25285
-0.306167
-1.23682
-0.341827
-1.22188
-0.377699
-1.20741
-0.4128
-1.19381
-0.44685
-1.18059
-0.480467
-1.16741
-0.513665
-1.15487
-0.54576
-1.14271
-0.575793
-1.12799
-0.604288
-1.10996
-1.09299
-0.632677
-0.000841631
-0.553874
-0.019846
-1.16333
-0.0586221
-1.33064
-0.0988943
-1.31642
-0.137778
-1.2936
-0.176304
-1.27169
-0.2143
-1.25141
-0.252582
-1.23195
-0.290515
-1.21492
-0.328159
-1.19918
-0.365642
-1.18439
-0.402265
-1.17078
-0.43936
-1.15672
-0.476543
-1.14341
-0.513298
-1.13065
-0.549963
-1.11821
-0.585747
-1.10693
-0.619287
-1.09445
-0.650285
-1.07896
-1.06248
-0.680793
-0.00203569
-0.551838
-0.0242721
-1.1411
-0.0639116
-1.291
-0.106254
-1.27408
-0.147782
-1.25207
-0.18869
-1.23078
-0.22903
-1.21107
-0.268885
-1.1921
-0.308952
-1.17485
-0.34871
-1.15942
-0.388695
-1.14441
-0.428144
-1.13133
-0.466527
-1.11833
-0.505062
-1.10487
-0.543464
-1.09225
-0.581681
-1.07999
-0.619876
-1.06873
-0.657185
-1.05714
-0.691741
-1.0444
-1.02917
-0.725055
-0.0030657
-0.548772
-0.027131
-1.11703
-0.069678
-1.24845
-0.113226
-1.23053
-0.155865
-1.20944
-0.198102
-1.18855
-0.239991
-1.16918
-0.281615
-1.15047
-0.323213
-1.13325
-0.36459
-1.11804
-0.405487
-1.10351
-0.446831
-1.08999
-0.487413
-1.07775
-0.527284
-1.065
-0.567591
-1.05195
-0.608197
-1.03939
-0.648897
-1.02803
-0.689555
-1.01648
-0.728533
-1.00542
-0.992693
-0.76501
-0.0053409
-0.0322985
-0.077809
-0.124748
-0.16995
-0.214023
-0.256933
-0.299162
-0.341246
-0.383195
-0.425261
-0.466974
-0.509241
-0.550828
-0.591787
-0.633174
-0.674831
-0.717589
-0.761317
-0.80344
0.0530037
-11.6163
11.6765
0.0195045
-10.8263
10.8598
-0.00346454
-10.5808
10.6038
-0.0117739
-10.223
10.2313
-0.0198203
-9.93243
9.94047
-0.0219491
-9.62636
9.62848
-0.0242187
-9.44702
9.44929
-0.0238654
-9.23056
9.2302
-0.0229231
-9.10075
9.09981
-0.0206641
-8.96987
8.96762
-0.017048
-8.89038
8.88676
-0.0136381
-8.79743
8.79402
-0.00878736
-8.73931
8.73446
-0.00224346
-8.64363
8.63708
0.00664491
-8.60519
8.5963
0.0131362
-8.54151
8.53502
0.018319
-8.32327
8.31808
0.0214518
-7.53297
7.52983
0.012097
-5.59136
5.60072
-2.27038
2.28248
0.000193145
-11.5566
-0.0329196
-10.7932
-0.0569783
-10.5567
-0.0696439
-10.2103
-0.0773049
-9.92477
-0.0772879
-9.62637
-0.0771456
-9.44716
-0.0737123
-9.23399
-0.0693561
-9.10511
-0.0638673
-8.97536
-0.0564378
-8.89781
-0.0490006
-8.80487
-0.0403864
-8.74793
-0.0294074
-8.65461
-0.0159752
-8.61863
-0.00452136
-8.55296
0.00690063
-8.33469
0.0159534
-7.54202
0.0108884
-5.5863
-2.2595
-0.0689007
-11.4846
-0.108022
-10.7541
-0.131164
-10.5336
-0.140932
-10.2005
-0.145127
-9.92057
-0.142047
-9.62945
-0.137897
-9.45131
-0.130104
-9.24178
-0.120948
-9.11426
-0.110542
-8.98577
-0.0987332
-8.90962
-0.0868574
-8.81675
-0.0730365
-8.76175
-0.0568663
-8.67078
-0.0385623
-8.63693
-0.0222076
-8.56932
-0.00489363
-8.352
0.00972773
-7.55664
0.0092477
-5.58582
-2.25025
-0.118509
-11.4133
-0.160657
-10.7119
-0.186147
-10.5081
-0.199609
-10.1871
-0.203113
-9.91707
-0.197541
-9.63502
-0.190875
-9.45798
-0.180034
-9.25262
-0.167414
-9.12688
-0.153761
-8.99942
-0.138198
-8.92518
-0.122307
-8.83264
-0.104525
-8.77953
-0.0840459
-8.69125
-0.0611099
-8.65987
-0.0398993
-8.59053
-0.0164707
-8.37543
0.00335552
-7.57647
0.00738118
-5.58984
-2.24287
-0.188336
-11.3282
-0.232722
-10.6675
-0.258495
-10.4823
-0.269542
-10.176
-0.270181
-9.91643
-0.26153
-9.64368
-0.250789
-9.46872
-0.235746
-9.26767
-0.218421
-9.14421
-0.199894
-9.01795
-0.180138
-8.94494
-0.159812
-8.85296
-0.136867
-8.80247
-0.111401
-8.71672
-0.0837045
-8.68756
-0.0575679
-8.61666
-0.0283047
-8.4047
-0.00295222
-7.60182
0.00614658
-5.59894
-2.23672
-0.238217
-11.238
-0.286982
-10.6188
-0.314194
-10.4551
-0.328479
-10.1617
-0.327989
-9.91692
-0.316939
-9.65473
-0.303478
-9.48218
-0.285348
-9.2858
-0.264615
-9.16494
-0.242913
-9.03965
-0.219573
-8.96828
-0.195353
-8.87718
-0.168417
-8.82941
-0.138583
-8.74656
-0.10636
-8.71979
-0.0751579
-8.64786
-0.0398583
-8.43999
-0.00937336
-7.6323
0.00464243
-5.61296
-2.23208
-0.305817
-11.1383
-0.356991
-10.5676
-0.38457
-10.4275
-0.396258
-10.1501
-0.39367
-9.91951
-0.379826
-9.66857
-0.362206
-9.4998
-0.340055
-9.30795
-0.314812
-9.19018
-0.2882
-9.06626
-0.260688
-8.99579
-0.23209
-8.90578
-0.20023
-8.86127
-0.165674
-8.78111
-0.129537
-8.75592
-0.093315
-8.68409
-0.0519435
-8.48137
-0.0160352
-7.66821
0.0031757
-5.63217
-2.2289
-0.355486
-11.0317
-0.411866
-10.5112
-0.441105
-10.3983
-0.454941
-10.1362
-0.450553
-9.92389
-0.434639
-9.68448
-0.414249
-9.52019
-0.388881
-9.33332
-0.360392
-9.21867
-0.330722
-9.09593
-0.299684
-9.02683
-0.267274
-8.93819
-0.23161
-8.89693
-0.192637
-8.82008
-0.152766
-8.79579
-0.112216
-8.72464
-0.064671
-8.52891
-0.0229619
-7.70992
0.00138355
-5.65651
-2.22752
-0.420333
-10.9171
-0.479348
-10.4522
-0.508592
-10.3691
-0.520129
-10.1247
-0.51435
-9.92967
-0.495893
-9.70294
-0.47145
-9.54463
-0.442186
-9.36258
-0.409335
-9.25152
-0.374829
-9.13044
-0.339632
-9.06202
-0.30291
-8.97491
-0.262838
-8.93701
-0.219739
-8.86318
-0.175583
-8.83995
-0.130915
-8.7693
-0.077848
-8.58198
-0.030187
-7.75758
-0.000480438
-5.68622
-2.228
-0.471085
-10.7935
-0.534904
-10.3884
-0.565739
-10.3382
-0.577913
-10.1125
-0.56984
-9.93775
-0.54963
-9.72315
-0.522433
-9.57183
-0.489975
-9.39504
-0.454115
-9.28738
-0.416452
-9.1681
-0.377668
-9.10081
-0.337305
-9.01528
-0.293681
-8.98063
-0.246418
-8.91045
-0.198063
-8.8883
-0.14901
-8.81836
-0.090444
-8.64055
-0.0378644
-7.81016
-0.00260152
-5.72148
-2.2306
-0.532455
-10.6653
-0.597455
-10.3234
-0.629815
-10.3059
-0.640462
-10.1019
-0.631191
-9.94702
-0.608666
-9.74567
-0.57778
-9.60272
-0.541476
-9.43134
-0.501304
-9.32756
-0.45913
-9.21027
-0.416269
-9.14367
-0.371634
-9.05991
-0.32418
-9.02808
-0.273225
-8.9614
-0.22051
-8.94102
-0.167558
-8.87131
-0.103481
-8.70462
-0.045487
-7.86816
-0.00485348
-5.76212
-2.23545
-0.583186
-10.5254
-0.652862
-10.2537
-0.68672
-10.272
-0.697314
-10.0913
-0.685189
-9.95914
-0.660704
-9.77016
-0.627224
-9.6362
-0.58798
-9.47059
-0.545046
-9.37049
-0.49959
-9.25573
-0.453041
-9.19022
-0.404887
-9.10806
-0.354203
-9.07877
-0.299525
-9.01608
-0.242518
-8.99803
-0.185273
-8.92855
-0.116177
-8.77372
-0.0535304
-7.9308
-0.00716836
-5.80848
-2.24262
-0.641559
-10.3844
-0.711851
-10.1834
-0.747135
-10.2367
-0.75695
-10.0814
-0.744006
-9.97209
-0.717142
-9.79702
-0.680206
-9.67313
-0.637227
-9.51357
-0.590145
-9.41757
-0.540582
-9.30529
-0.490197
-9.2406
-0.437797
-9.16046
-0.383572
-9.13299
-0.325491
-9.07416
-0.264224
-9.05929
-0.203039
-8.98974
-0.128717
-8.84804
-0.060832
-7.99869
-0.00926318
-5.86005
-2.25189
-0.691837
-10.231
-0.766394
-10.1089
-0.803277
-10.1998
-0.81237
-10.0724
-0.795918
-9.98854
-0.767156
-9.82579
-0.727825
-9.71246
-0.681966
-9.55943
-0.632329
-9.46721
-0.579646
-9.35798
-0.525618
-9.29463
-0.469722
-9.21636
-0.412234
-9.19048
-0.350908
-9.13549
-0.285695
-9.12451
-0.220395
-9.05504
-0.141436
-8.927
-0.0680845
-8.07204
-0.0109432
-5.91719
-2.26283
-0.747084
-10.0769
-0.821655
-10.0343
-0.859322
-10.1622
-0.869108
-10.0626
-0.85217
-10.0055
-0.820469
-9.85749
-0.778008
-9.75492
-0.728652
-9.60878
-0.675051
-9.52081
-0.618414
-9.41461
-0.560636
-9.35241
-0.500859
-9.27614
-0.439954
-9.25138
-0.37564
-9.1998
-0.306682
-9.19346
-0.237637
-9.12408
-0.153754
-9.01088
-0.0749464
-8.15085
-0.0127364
-5.9794
-2.27557
-0.798224
-9.91139
-0.87654
-9.95597
-0.914015
-10.1247
-0.921629
-10.055
-0.901779
-10.0253
-0.868454
-9.89081
-0.823561
-9.79982
-0.771383
-9.66096
-0.715375
-9.57682
-0.655832
-9.47416
-0.594631
-9.41361
-0.531185
-9.33958
-0.46692
-9.31565
-0.40007
-9.26665
-0.327583
-9.26595
-0.254618
-9.19705
-0.166432
-9.09907
-0.0819553
-8.23532
-0.0143704
-6.04698
-2.28994
-0.849648
-9.74253
-0.927401
-9.87822
-0.965193
-10.0869
-0.974199
-10.046
-0.953993
-10.0455
-0.917859
-9.92695
-0.870431
-9.84724
-0.815031
-9.71636
-0.755337
-9.63651
-0.692165
-9.53733
-0.62759
-9.47818
-0.560822
-9.40635
-0.492843
-9.38363
-0.423017
-9.33648
-0.347858
-9.34111
-0.271209
-9.2737
-0.178697
-9.19158
-0.0885728
-8.32545
-0.0158477
-6.11971
-2.30578
-0.906067
-9.56152
-0.985919
-9.79837
-1.01896
-10.0539
-1.02389
-10.041
-1.00138
-10.068
-0.963504
-9.96483
-0.91364
-9.89711
-0.855547
-9.77445
-0.793495
-9.69856
-0.727549
-9.60327
-0.659637
-9.5461
-0.58947
-9.47652
-0.518453
-9.45465
-0.445617
-9.40931
-0.367617
-9.41911
-0.287807
-9.35351
-0.191321
-9.28807
-0.0957841
-8.42098
-0.0178609
-6.19763
-2.32364
-0.946451
-9.38008
-1.03613
-9.70869
-1.07004
-10.0199
-1.07526
-10.0358
-1.05159
-10.0917
-1.01085
-10.0056
-0.958389
-9.94957
-0.896991
-9.83585
-0.831285
-9.76427
-0.7619
-9.67266
-0.690759
-9.61724
-0.617403
-9.54987
-0.542858
-9.52919
-0.466992
-9.48518
-0.386732
-9.49937
-0.303915
-9.43632
-0.203589
-9.38839
-0.103681
-8.52089
-0.0208859
-6.28043
-2.34453
-0.989669
-9.19385
-1.08212
-9.61624
-1.11277
-9.98929
-1.11486
-10.0337
-1.09222
-10.1143
-1.05074
-10.047
-0.997622
-10.0027
-0.934097
-9.89938
-0.866594
-9.83177
-0.794431
-9.74482
-0.72068
-9.69099
-0.644049
-9.6265
-0.566941
-9.6063
-0.48711
-9.56501
-0.405188
-9.58129
-0.319464
-9.52205
-0.216322
-9.49154
-0.110969
-8.62625
-0.0231567
-6.36824
-2.36769
7.98175
-8.35619
-8.81941
6.94995
-8.58444
5.91473
-8.95408
4.97986
-9.09884
4.14134
-9.27582
3.41678
-9.32248
2.79787
-9.38379
2.2909
-9.3924
1.87092
-9.41179
1.52793
-9.40184
1.24204
-9.4051
1.0099
-9.39436
0.810789
-9.40719
0.643809
-9.39803
0.494469
-9.43195
0.38198
-9.40956
0.29741
-9.40697
0.219914
-8.54875
0.0937332
-6.24206
-2.27395
4.60873
-8.0039
-4.96102
4.19532
-8.17103
3.73589
-8.49466
3.28397
-8.64692
2.82835
-8.8202
2.4201
-8.91423
2.04654
-9.01023
1.73084
-9.0767
1.45414
-9.13509
1.22424
-9.17194
1.02759
-9.20845
0.864594
-9.23136
0.714716
-9.25731
0.587786
-9.2711
0.452558
-9.29672
0.349638
-9.30664
0.209318
-9.26665
0.102585
-8.44202
-0.103625
-6.03585
-2.37758
3.26653
-7.90228
-3.36815
3.15937
-8.06387
2.93571
-8.271
2.70964
-8.42085
2.4508
-8.56136
2.20429
-8.66772
1.95767
-8.76361
1.72878
-8.84781
1.50989
-8.9162
1.30755
-8.9696
1.11939
-9.02029
0.944413
-9.05639
0.781694
-9.09459
0.62919
-9.1186
0.474623
-9.14215
0.341287
-9.17331
0.210306
-9.13566
0.122232
-8.35394
0.0124264
-5.92604
-2.36515
2.00643
-7.91376
-1.99495
1.98664
-8.04408
1.90573
-8.19009
1.80715
-8.32227
1.67342
-8.42762
1.52907
-8.52337
1.3711
-8.60564
1.21648
-8.6932
1.06477
-8.76449
0.92083
-8.82566
0.780383
-8.87984
0.651319
-8.92733
0.529436
-8.97271
0.425926
-9.01509
0.341546
-9.05777
0.254633
-9.08639
0.159787
-9.04082
0.11095
-8.3051
0.0726867
-5.88778
-2.29247
1.27544
-7.98301
-1.20619
1.31138
-8.08002
1.31478
-8.19349
1.27906
-8.28655
1.2156
-8.36416
1.14097
-8.44873
1.05065
-8.51532
0.948582
-8.59113
0.842033
-8.65794
0.73264
-8.71627
0.623149
-8.77035
0.517221
-8.8214
0.411506
-8.86699
0.31457
-8.91815
0.216851
-8.96006
0.132276
-9.00182
0.0518598
-8.9604
0.0329102
-8.28616
0.0465048
-5.90137
-2.24596
0.842955
-8.0496
-0.776366
0.887049
-8.12411
0.869665
-8.17611
0.837694
-8.25458
0.803622
-8.33009
0.749757
-8.39486
0.69203
-8.45759
0.618408
-8.51751
0.537598
-8.57713
0.451918
-8.63059
0.366112
-8.68454
0.28202
-8.7373
0.202361
-8.78733
0.118414
-8.8342
0.0374817
-8.87912
-0.0370981
-8.92724
-0.102645
-8.89485
-0.0797511
-8.30905
0.0271267
-6.00825
-2.21883
0.472925
-8.08841
-0.434116
0.489821
-8.14101
0.510419
-8.1967
0.514565
-8.25873
0.497808
-8.31334
0.46654
-8.3636
0.426832
-8.41788
0.37769
-8.46837
0.320116
-8.51956
0.255776
-8.56625
0.190103
-8.61887
0.120938
-8.66814
0.0482327
-8.71463
-0.0244596
-8.76151
-0.0937276
-8.80986
-0.163466
-8.8575
-0.221096
-8.83722
-0.184891
-8.34525
-0.013046
-6.1801
-2.23188
0.295064
-8.12427
-0.259203
0.316086
-8.16203
0.322584
-8.2032
0.306033
-8.24218
0.275161
-8.28246
0.244652
-8.33309
0.20553
-8.37876
0.154979
-8.41782
0.0965719
-8.46115
0.0373989
-8.50708
-0.0267614
-8.55471
-0.098855
-8.59605
-0.169541
-8.64394
-0.241511
-8.68954
-0.308765
-8.7426
-0.372398
-8.79386
-0.415362
-8.79426
-0.364538
-8.39608
-0.105691
-6.43894
-2.33757
0.126366
-8.13489
-0.115742
0.127749
-8.16341
0.123027
-8.19848
0.115031
-8.23418
0.104643
-8.27207
0.0794027
-8.30785
0.0442745
-8.34363
-0.000523063
-8.37302
-0.0531174
-8.40855
-0.111671
-8.44852
-0.176805
-8.48958
-0.242948
-8.5299
-0.312252
-8.57464
-0.386827
-8.61497
-0.463972
-8.66546
-0.55246
-8.70538
-0.623972
-8.72275
-0.585962
-8.43409
-0.251931
-6.77297
-2.5895
0.0600698
-8.14357
-0.0513917
0.0621291
-8.16547
0.0553937
-8.19175
0.0366525
-8.21544
0.00611476
-8.24154
-0.0364851
-8.26525
-0.0864824
-8.29364
-0.135378
-8.32413
-0.185103
-8.35883
-0.244611
-8.38902
-0.311262
-8.42293
-0.386411
-8.45475
-0.471063
-8.48999
-0.561935
-8.52409
-0.664046
-8.56335
-0.769673
-8.59975
-0.861409
-8.63101
-0.85625
-8.43925
-0.486434
-7.14279
-3.07594
0.0129084
-8.13711
-0.0193686
-0.000859605
-8.1517
-0.0219543
-8.17065
-0.0486395
-8.18875
-0.0802473
-8.20993
-0.114341
-8.23115
-0.153074
-8.2549
-0.200493
-8.27671
-0.257016
-8.30231
-0.320497
-8.32553
-0.394638
-8.34879
-0.48006
-8.36933
-0.573696
-8.39635
-0.677683
-8.42011
-0.79467
-8.44636
-0.930129
-8.46429
-1.07161
-8.48953
-1.10243
-8.40843
-0.780814
-7.46441
-3.85675
0.0048747
-8.12428
-0.0177066
-0.0121824
-8.13465
-0.0336338
-8.1492
-0.0597775
-8.16261
-0.0906678
-8.17904
-0.12818
-8.19364
-0.171337
-8.21175
-0.220119
-8.22793
-0.276881
-8.24554
-0.343047
-8.25937
-0.416554
-8.27528
-0.494805
-8.29108
-0.588296
-8.30286
-0.694708
-8.31369
-0.823026
-8.31804
-0.961571
-8.32575
-1.12512
-8.32598
-1.24453
-8.28901
-1.01804
-7.6909
-4.87479
0.025803
-8.10548
-0.044602
0.00543602
-8.11428
-0.0181458
-8.12562
-0.0455371
-8.13522
-0.076857
-8.14772
-0.113568
-8.15693
-0.15694
-8.16837
-0.206119
-8.17875
-0.262026
-8.18964
-0.32434
-8.19705
-0.393133
-8.20649
-0.473239
-8.21097
-0.561523
-8.21458
-0.659845
-8.21537
-0.767708
-8.21018
-0.892174
-8.20128
-1.03101
-8.18715
-1.15626
-8.16377
-0.982167
-7.86499
-5.85696
0.0584996
-8.08797
-0.0760141
0.0376374
-8.09342
0.0136157
-8.1016
-0.0139358
-8.10767
-0.0460637
-8.11559
-0.0814356
-8.12156
-0.120407
-8.1294
-0.166975
-8.13218
-0.218118
-8.13849
-0.273698
-8.14147
-0.33449
-8.14569
-0.401427
-8.14404
-0.470033
-8.14597
-0.548397
-8.13701
-0.628712
-8.12986
-0.72088
-8.10911
-0.81836
-8.08967
-0.909568
-8.07256
-0.809991
-7.96456
-6.66695
0.0604219
-8.06776
-0.0806336
0.0381999
-8.07119
0.0131952
-8.07659
-0.0143158
-8.08016
-0.0447728
-8.08513
-0.0768265
-8.0895
-0.111566
-8.09466
-0.146356
-8.09739
-0.182517
-8.10233
-0.222168
-8.10182
-0.265242
-8.10262
-0.310508
-8.09877
-0.361534
-8.09494
-0.413819
-8.08472
-0.464238
-8.07944
-0.510357
-8.06299
-0.554803
-8.04522
-0.598329
-8.02904
-0.57304
-7.98985
-7.23999
0.0712753
-8.05224
-0.0867861
0.0548547
-8.05477
0.0365667
-8.0583
0.0164167
-8.06001
-0.0060982
-8.06262
-0.0320335
-8.06357
-0.0588979
-8.0678
-0.0877994
-8.06849
-0.11934
-8.07079
-0.151215
-8.06995
-0.182493
-8.07134
-0.214743
-8.06652
-0.244213
-8.06547
-0.275547
-8.05339
-0.301639
-8.05335
-0.330964
-8.03367
-0.348219
-8.02797
-0.343904
-8.03335
-0.325133
-8.00862
-7.56512
0.0661925
-8.04019
-0.0782483
0.0523179
-8.0409
0.0365497
-8.04253
0.019446
-8.0429
0.00115115
-8.04432
-0.0194873
-8.04293
-0.0421846
-8.0451
-0.0648569
-8.04581
-0.0884791
-8.04717
-0.111281
-8.04714
-0.133557