/*--------------------------------*- C++ -*----------------------------------*\
  =========                 |
  \\      /  F ield         | OpenFOAM: The Open Source CFD Toolbox
   \\    /   O peration     | Website:  https://openfoam.org
    \\  /    A nd           | Version:  9
     \\/     M anipulation  |
\*---------------------------------------------------------------------------*/
FoamFile
{
    format      ascii;
    class       volScalarField;
    location    "2.2";
    object      nut;
}
// * * * * * * * * * * * * * * * * * * * * * * * * * * * * * * * * * * * * * //

dimensions      [0 2 -1 0 0 0 0];

internalField   nonuniform List<scalar> 
46400
(
0.0179668
0.00676031
0.00196736
0.00126618
0.0013006
0.00126252
0.00117353
0.00116303
0.00110125
0.00107426
0.00101608
0.000981609
0.000957977
0.000940184
0.000909225
0.000899379
0.000863479
0.000804788
0.0011557
0.000950533
0.0176722
0.00570693
0.00151415
0.00130745
0.00126971
0.00124954
0.00119172
0.00119566
0.00113752
0.00109673
0.00105427
0.00100736
0.000969515
0.000935338
0.000899002
0.000874771
0.000807405
0.000724839
0.000986819
0.000907556
0.0173439
0.00479842
0.00123938
0.00139549
0.00131549
0.001305
0.00120202
0.00119452
0.00114089
0.00111019
0.00105806
0.00102265
0.000992729
0.000965071
0.000933964
0.000915959
0.000852727
0.000796468
0.0010939
0.000936173
0.016935
0.00392481
0.00117091
0.00140246
0.00128078
0.00129499
0.00122863
0.0012164
0.00116569
0.00112579
0.00109086
0.00104083
0.00100287
0.000968041
0.000935189
0.000916773
0.000870567
0.000797804
0.00111265
0.00101116
0.0164315
0.00391731
0.00126739
0.00146902
0.00135209
0.00133604
0.00124034
0.00122731
0.0011826
0.00114453
0.00110036
0.00106794
0.00103476
0.0010039
0.000975474
0.00094477
0.000893605
0.000848287
0.00113796
0.00101034
0.0158395
0.00479594
0.00132441
0.00148426
0.00134278
0.00134639
0.00127248
0.00123445
0.00119339
0.00115193
0.00112157
0.00107653
0.0010481
0.00101076
0.000991925
0.000978324
0.000917137
0.000857758
0.0011715
0.00107627
0.0153079
0.00443027
0.00141227
0.00153059
0.00140912
0.00137601
0.00129434
0.00125708
0.00121047
0.00116421
0.0011216
0.00108591
0.00105921
0.00102883
0.0009905
0.000978372
0.000934465
0.000850172
0.0011287
0.00106311
0.0142493
0.00394535
0.00141765
0.0015304
0.00139269
0.0013715
0.00130773
0.00125251
0.00121877
0.00116885
0.00113883
0.00108842
0.00106041
0.00104335
0.00102461
0.000994735
0.000962145
0.000894447
0.00111213
0.00107335
0.0130097
0.00320271
0.00144881
0.00152663
0.00143745
0.00137747
0.00132811
0.00126326
0.00121897
0.0011746
0.00113131
0.00108996
0.00104122
0.00100577
0.000997589
0.000983454
0.000940427
0.000898486
0.0010742
0.00100632
0.0104241
0.00253963
0.00147975
0.0014641
0.0014166
0.00136035
0.00132283
0.0012746
0.00122241
0.00117002
0.00115253
0.00111227
0.00108261
0.00102988
0.000998274
0.000989891
0.000956369
0.000917256
0.00110094
0.00104902
0.00848562
0.00214512
0.00151185
0.00145694
0.00140565
0.00135075
0.00132176
0.0012722
0.00124559
0.00116549
0.00111164
0.00108493
0.00105269
0.00102659
0.000987277
0.000954987
0.000925459
0.000877702
0.00102388
0.000999398
0.00679395
0.00184109
0.00148668
0.00144585
0.00141191
0.00132809
0.00131209
0.00127539
0.00125859
0.00122958
0.00116531
0.0011019
0.00107604
0.00102984
0.00102044
0.000986257
0.000953133
0.00091637
0.00102631
0.000999933
0.00572885
0.00169949
0.00151786
0.00143576
0.00142474
0.00133395
0.00127711
0.00123603
0.0012259
0.00119677
0.00118678
0.00111586
0.00106697
0.0010197
0.000968581
0.000953141
0.000899356
0.000871484
0.000957232
0.000941877
0.00481236
0.00161488
0.00151443
0.00145039
0.00143768
0.0013634
0.0013168
0.00123515
0.00121731
0.00119821
0.00119324
0.00118967
0.00114193
0.00111067
0.00105867
0.00101189
0.000962755
0.000899145
0.000955863
0.000899157
0.00430548
0.00156608
0.00148987
0.00142012
0.0014591
0.00137083
0.0013218
0.00124436
0.00116307
0.001128
0.00109421
0.00109187
0.00109374
0.0010742
0.00107739
0.0010507
0.0010318
0.000984043
0.00105209
0.000981729
0.00429117
0.00165446
0.00153867
0.00139733
0.001423
0.00144045
0.00139366
0.001356
0.00128332
0.00119805
0.00114409
0.00107342
0.00104798
0.00100605
0.000988693
0.000970376
0.000949539
0.000915038
0.0009811
0.00093622
0.00370848
0.00160079
0.00146265
0.00134431
0.00125898
0.00126009
0.00129153
0.00127574
0.0012955
0.00125168
0.00122748
0.00117841
0.00113735
0.00109303
0.00105306
0.00101878
0.000980978
0.000932055
0.000976047
0.0009252
0.00379522
0.00178929
0.00170037
0.00153265
0.00140952
0.00128024
0.00124398
0.00118826
0.00117447
0.00114866
0.00113137
0.00110626
0.00108577
0.00105758
0.00103241
0.00100807
0.000974974
0.000927959
0.000972545
0.000913981
0.00254365
0.00138046
0.00154419
0.00151728
0.00151644
0.0014264
0.00137174
0.00130337
0.00125831
0.0012028
0.00116784
0.00112288
0.00109457
0.00105848
0.00103382
0.00100621
0.000977641
0.000923235
0.000966217
0.000902206
0.000703857
0.000640087
0.00129245
0.00124304
0.00139165
0.00129322
0.00132003
0.00123717
0.00123599
0.00117937
0.00116687
0.00111739
0.0011001
0.00105294
0.00103459
0.000996561
0.000972928
0.000909657
0.000961703
0.000883548
0.000638095
0.000220832
0.00350401
0.00789825
0.0106458
0.00833083
0.00421441
0.0015864
0.000424546
3.75302e-05
0.000111227
0.000192435
0.000257333
0.000109543
0.000115071
0.000187956
0.000209705
0.000188382
0.000155342
0.000242436
3.76226e-23
0.00164806
0.00625412
0.0103402
0.00950117
0.00541029
0.00209222
0.000541973
9.03843e-05
0.00012597
0.000227986
0.000279218
0.000192855
0.000171921
0.000211886
0.000226459
0.000184153
0.000197484
0.00021978
0.000277318
0.000308488
0.00387122
0.00880426
0.0107823
0.00724121
0.00307603
0.000814318
8.72623e-05
0.000133418
0.000254683
0.000295445
0.000222601
0.000189388
0.000238289
0.000216018
0.000188197
0.000199877
0.000274607
0.000257931
0.000276734
0.000823719
0.00657354
0.0105537
0.00955159
0.00503125
0.0014231
0.000118626
8.72066e-05
0.000263947
0.000318345
0.000257285
0.000235024
0.000247046
0.000240555
0.000214244
0.000248433
0.00027872
0.000292177
0.000241097
0.0002982
0.00241987
0.00862083
0.0112768
0.00778705
0.00274392
0.000427208
0.000134724
0.000261036
0.000334861
0.000307317
0.000272729
0.0002725
0.000245954
0.000275221
0.000254469
0.000284441
0.000273415
0.000285275
0.00028609
0.000337805
0.00248214
0.00991204
0.0109548
0.00587054
0.00124362
0.000158379
0.000241909
0.000351662
0.000376442
0.000330836
0.000312997
0.000289016
0.000311246
0.000308822
0.000270395
0.000325251
0.000319604
0.000350949
0.000327935
0.000358767
0.00494958
0.01111
0.0098411
0.00360298
0.000322186
0.000162775
0.000364305
0.000419522
0.000406728
0.000367844
0.000335158
0.000347718
0.000328307
0.000328072
0.000323786
0.000372952
0.000326343
0.000359498
0.000353475
0.00038743
0.00709686
0.0116722
0.00870113
0.00183313
0.000245349
0.000351155
0.000484754
0.000514829
0.000452688
0.000419004
0.000406025
0.000380137
0.000393887
0.000388943
0.000361903
0.000404764
0.000362542
0.00043771
0.000407326
0.000409446
0.00953314
0.0119322
0.00754486
0.000743037
0.000261373
0.000544295
0.00059701
0.000530583
0.000520388
0.000479742
0.00043795
0.000448747
0.000429589
0.000408657
0.00041289
0.000454297
0.000391123
0.000460451
0.000417633
0.000425902
0.012046
0.0117753
0.00547565
0.000404614
0.000430408
0.00061711
0.000649714
0.000642076
0.000579888
0.000531329
0.000516065
0.000489594
0.000490774
0.000481282
0.000465997
0.000485921
0.000435249
0.000531782
0.000467172
0.000454372
0.0139522
0.0117144
0.00385495
0.00022832
0.000649389
0.000768695
0.000737997
0.000671749
0.000640362
0.000599688
0.000552646
0.000558379
0.000535761
0.000503637
0.000510507
0.000530903
0.000475165
0.000555335
0.000490168
0.000492087
0.0153585
0.0112995
0.00240679
0.000242527
0.000749683
0.00078494
0.00077055
0.000765802
0.000704689
0.000648636
0.000627107
0.000601694
0.000593938
0.000580913
0.000569383
0.000565867
0.000535432
0.000604916
0.000505054
0.000530919
0.0160553
0.0110013
0.00163265
0.000422322
0.000871329
0.000883001
0.000876629
0.000796055
0.000756194
0.000717562
0.000667098
0.0006683
0.000641938
0.000606126
0.000609099
0.000614846
0.000574411
0.000624162
0.000504426
0.000545631
0.0167611
0.0105194
0.00105725
0.000565205
0.00100126
0.000887404
0.000903867
0.0008886
0.000824324
0.00076767
0.000734842
0.000709656
0.000698174
0.00068059
0.00066598
0.00065247
0.000637614
0.000675333
0.000528048
0.000592396
0.0174237
0.0101738
0.00112615
0.000763229
0.00106871
0.000984044
0.000987431
0.000913212
0.000864701
0.000829541
0.000777056
0.000771809
0.000742116
0.000707788
0.000703146
0.000693379
0.000670313
0.000683737
0.000512349
0.000607895
0.0176956
0.00971527
0.00178759
0.000892709
0.00114251
0.00100074
0.00101465
0.00100133
0.000933648
0.000880056
0.00083577
0.000810205
0.000797245
0.000775198
0.000752453
0.000735215
0.000743095
0.000740023
0.000537107
0.000654707
0.0181111
0.00939429
0.00227461
0.00104768
0.00117502
0.00109034
0.00107664
0.00101939
0.000962866
0.000932445
0.000878131
0.00086324
0.000834095
0.000806686
0.000790558
0.0007669
0.000770366
0.000747827
0.000518672
0.000680315
0.0181389
0.00909002
0.00225271
0.00106717
0.00123989
0.0010879
0.00109451
0.00109257
0.00102377
0.000976381
0.000926875
0.000899776
0.00088459
0.000860659
0.000830245
0.000814147
0.000839324
0.000809247
0.000546687
0.000727537
0.018257
0.00860915
0.00209143
0.00114627
0.00126716
0.00118718
0.00113657
0.00110866
0.00104693
0.00102125
0.000965722
0.00094084
0.000917535
0.000899456
0.000870993
0.000846669
0.000863854
0.000854748
0.000562816
0.000708773
0.0181089
0.00778671
0.00199776
0.00117651
0.00127447
0.0011795
0.00115173
0.00116038
0.00109697
0.00105622
0.00101148
0.000981848
0.000965475
0.000946284
0.000919493
0.000931536
0.000935007
0.000931939
0.000726936
0.000785493
0.00224589
0.00177282
0.00182551
0.0016254
0.00165426
0.00150441
0.00148635
0.00139681
0.00133291
0.00126475
0.00117051
0.00110341
0.00101055
0.000950483
0.000868515
0.000847541
0.00095015
0.00410078
0.00997834
0.0224174
0.00232551
0.00186889
0.00186345
0.00153493
0.00166909
0.00160716
0.00162142
0.00145717
0.00132442
0.00124568
0.00114721
0.00107968
0.000976061
0.000914494
0.000827675
0.000789599
0.000923254
0.00420502
0.0100069
0.0221672
0.00229826
0.001885
0.0019585
0.00162116
0.00169953
0.00154341
0.00148166
0.00137823
0.00131165
0.00125437
0.00115526
0.00109206
0.000997626
0.000939566
0.00085394
0.00083223
0.000952064
0.00422573
0.0100455
0.0220253
0.00234177
0.00200046
0.00200675
0.00153121
0.00172236
0.00164947
0.00160259
0.00143672
0.00130761
0.00123698
0.00113297
0.00107078
0.000965437
0.000904952
0.000813297
0.000774715
0.000925589
0.00431272
0.0100723
0.0217768
0.00239387
0.00200123
0.00207723
0.00162243
0.00175514
0.00159107
0.00147433
0.00136788
0.00129647
0.00124546
0.00114221
0.00108299
0.000987196
0.000931035
0.000841122
0.000818022
0.00095853
0.00432022
0.0101091
0.0216412
0.00252076
0.00213021
0.00211952
0.00156338
0.00180031
0.00168408
0.00157078
0.00141869
0.00129358
0.00122847
0.00112122
0.00106357
0.000957045
0.000897931
0.000801344
0.000761362
0.00093254
0.00438837
0.0101308
0.02141
0.00269327
0.00214044
0.00218022
0.00165431
0.00181475
0.00162897
0.00145854
0.00136266
0.00128593
0.00123637
0.0011315
0.00107577
0.000979304
0.000925237
0.000830719
0.000804784
0.000964112
0.00438135
0.0101722
0.0212792
0.00290924
0.00226768
0.00220718
0.00163394
0.0018731
0.00170402
0.00153867
0.00140796
0.00128252
0.00121961
0.00111198
0.00105769
0.000951105
0.000893884
0.000792635
0.000749449
0.000937481
0.00442854
0.0101842
0.0210687
0.00318967
0.00229619
0.00226772
0.00172606
0.00186839
0.00164929
0.00143999
0.00136044
0.00127699
0.0012265
0.0011229
0.00107012
0.000973751
0.000922383
0.00082361
0.000792714
0.000965603
0.00440609
0.0102286
0.0209435
0.00348412
0.00242665
0.00228037
0.00172083
0.00192603
0.00171465
0.00151589
0.00140203
0.00127353
0.00121025
0.00110484
0.00105297
0.000947648
0.000893208
0.000788256
0.000739304
0.000937675
0.00443445
0.0102344
0.0207534
0.00370838
0.00246419
0.00235019
0.00181349
0.00190487
0.00165897
0.00142847
0.00135851
0.00126863
0.00121563
0.00111566
0.00106542
0.000970303
0.000922654
0.000821114
0.000782242
0.000961691
0.00439332
0.0102806
0.0206345
0.00392536
0.00257905
0.00234301
0.00181479
0.00195944
0.00171863
0.00150243
0.00139426
0.00126518
0.00119988
0.00109902
0.00104915
0.000946347
0.00089595
0.000789277
0.000731329
0.000933443
0.00439538
0.0102847
0.0204643
0.0040302
0.00261128
0.00243194
0.00190794
0.0019205
0.00166339
0.00142777
0.00135505
0.00126118
0.00120364
0.00110915
0.00106127
0.000968543
0.000926067
0.000823551
0.000774161
0.000954976
0.00434778
0.0103298
0.020353
0.00425257
0.00269473
0.00240801
0.00191659
0.00197438
0.00171415
0.00149391
0.0013818
0.00125697
0.00118848
0.00109377
0.00104597
0.000946814
0.000902061
0.000795634
0.000727092
0.0009264
0.00432506
0.0103311
0.0202026
0.00438274
0.00271763
0.00250423
0.00200394
0.00191505
0.00165754
0.00143182
0.00134869
0.00125377
0.00119056
0.00110228
0.00105726
0.000968022
0.000932408
0.000830953
0.000770389
0.000947445
0.00426229
0.0103714
0.0201119
0.00460957
0.00278867
0.00246715
0.00202308
0.00196967
0.00169453
0.0014831
0.0013639
0.00124659
0.00117541
0.00108724
0.00104225
0.000947914
0.000910628
0.000806903
0.000727811
0.000920347
0.00420966
0.0103643
0.0199715
0.0048363
0.00282687
0.00255704
0.00209242
0.00189521
0.00164111
0.00143854
0.0013443
0.00124798
0.0011796
0.00109599
0.00105431
0.000969106
0.000941979
0.000842951
0.000772604
0.000940551
0.00415985
0.0104095
0.0198579
0.00497487
0.00286044
0.00248303
0.00211737
0.0019598
0.00167845
0.00148489
0.00135795
0.00124342
0.00117035
0.00108552
0.00104387
0.000954038
0.000926076
0.000826697
0.000740364
0.000913992
0.00408028
0.0104315
0.0198528
0.0049134
0.00292853
0.00249416
0.00213562
0.00184169
0.00158785
0.0014228
0.00131776
0.00122054
0.00115579
0.00107912
0.00104282
0.000964855
0.000948446
0.000860082
0.000775862
0.000956751
0.00399485
0.0104231
0.0196907
0.00575664
0.00321124
0.00254326
0.00214811
0.00190821
0.00166377
0.00150954
0.00137165
0.00125791
0.00118233
0.00109508
0.00105131
0.000963092
0.000942402
0.000846623
0.000753545
0.000909777
0.00375699
0.0101403
0.0191497
0.0165427
0.0320056
0.0157988
0.0241192
0.0196984
0.0175796
0.0156384
0.0142068
0.012967
0.0120607
0.0111175
0.0106772
0.0100976
0.0101376
0.00961735
0.00966574
0.0107493
0.0348236
0.0970337
0.169178
0.0323163
0.0231129
0.0204516
0.0183793
0.0164049
0.0145866
0.0134092
0.0122048
0.0109666
0.00992635
0.00939265
0.00945836
0.008932
0.00823521
0.00784486
0.00676749
0.0110319
0.0399119
0.0959932
0.156512
0.0156002
0.0149034
0.0155685
0.0133731
0.0120707
0.0111504
0.0105132
0.00966279
0.00899106
0.00853796
0.00816012
0.0078372
0.00745287
0.00734929
0.00715453
0.00679791
0.0109404
0.0375672
0.0951849
0.153096
0.013209
0.0117969
0.0100403
0.00948346
0.00957355
0.00904621
0.00860928
0.00827567
0.00800992
0.00756162
0.00717395
0.00673205
0.00655144
0.00610286
0.00599943
0.00513216
0.00948396
0.0397302
0.0952318
0.142062
0.00660158
0.00721272
0.00843225
0.00834526
0.00734138
0.00697751
0.00670088
0.00637013
0.00597665
0.00588084
0.00581129
0.00580942
0.00557156
0.00553991
0.00538223
0.00458677
0.00984645
0.0373136
0.0949965
0.140076
0.00588488
0.00645595
0.00583236
0.00530742
0.00537241
0.00548537
0.00544659
0.00546786
0.00555392
0.00537476
0.00512284
0.00488837
0.00476849
0.00451749
0.00440855
0.0036046
0.00681638
0.0360681
0.0958171
0.13497
0.00331328
0.00368366
0.0041358
0.00472733
0.00468089
0.00451892
0.00440564
0.00427429
0.00405782
0.00418669
0.00426738
0.00438949
0.00435274
0.00426195
0.00421335
0.00311634
0.0048967
0.0336754
0.0961827
0.133492
0.00295527
0.00329833
0.00346432
0.00335734
0.00306358
0.00315923
0.00335954
0.00364956
0.00387874
0.00392449
0.00381511
0.00373275
0.0037631
0.00378145
0.00376487
0.00305418
0.00518017
0.02996
0.0962365
0.133069
0.00166958
0.00205155
0.00226508
0.00251916
0.00278429
0.00304503
0.00308546
0.00304967
0.00294006
0.0032159
0.00340353
0.00371502
0.00370435
0.0039045
0.00386341
0.0029452
0.00205467
0.0256958
0.0966244
0.136136
0.00167597
0.00175884
0.00191606
0.00203314
0.00199996
0.00204862
0.00219872
0.00257629
0.00288847
0.00308223
0.00310583
0.00324564
0.00335362
0.00369645
0.00386843
0.00367542
0.0036373
0.019233
0.0947522
0.142249
0.000793656
0.00119941
0.00131094
0.00155127
0.00173243
0.00205254
0.0022855
0.00241702
0.0023614
0.00262
0.00285547
0.00336663
0.0034724
0.0038906
0.00394496
0.00410599
0.00248379
0.0143062
0.0915291
0.151579
0.000838734
0.0010066
0.00112
0.00122414
0.00126642
0.00140298
0.0015438
0.00190976
0.00224436
0.00247825
0.00253016
0.00278929
0.00310534
0.00365502
0.00402833
0.00470136
0.00347947
0.00753398
0.0738431
0.163892
0.000585726
0.000726513
0.000879661
0.00108776
0.00120878
0.00139727
0.00155075
0.00171224
0.00178269
0.00207986
0.00242742
0.00277065
0.00297066
0.00340576
0.00375841
0.004697
0.00482443
0.00550462
0.0610302
0.182906
0.000525881
0.00064398
0.000678628
0.000803749
0.000896017
0.0010435
0.00108343
0.00132685
0.00152323
0.00176199
0.00190137
0.00217075
0.0025476
0.0029452
0.00356672
0.00390251
0.00509097
0.00863757
0.0318689
0.158459
0.000474145
0.000581457
0.000644409
0.000762877
0.000797314
0.000961392
0.0010643
0.00114563
0.00122473
0.00154955
0.00149906
0.00179014
0.00156309
0.00227144
0.00232753
0.00306754
0.00343173
0.00625786
0.0139278
0.107217
0.000328313
0.000434979
0.000471897
0.000542258
0.000596102
0.000669241
0.000758647
0.000919454
0.000969504
0.00106472
0.00122621
0.0014528
0.00160236
0.00181289
0.00203607
0.00242048
0.00268496
0.00304657
0.00309749
0.0576238
0.000338458
0.000379314
0.000401523
0.00044072
0.000482744
0.000550168
0.000562741
0.000633021
0.000672677
0.000737437
0.000794243
0.000891052
0.000967763
0.00111463
0.00118192
0.00133779
0.00125453
0.00232786
0.00353553
0.0280769
0.000245835
0.000273463
0.000301702
0.000340511
0.000393155
0.000465329
0.00053029
0.000561485
0.000604222
0.000664533
0.000713764
0.000827212
0.000829878
0.000921629
0.00089244
0.0010185
0.000909788
0.000864738
0.000619441
0.0148037
0.000195298
0.000224564
0.000242434
0.000286106
0.000302374
0.00033406
0.000274571
0.000377385
0.000432682
0.000451112
0.00046469
0.000531841
0.000608757
0.000636698
0.000690084
0.00071488
0.000686491
0.000769805
0.00108423
0.00181681
0.000104568
0.000118792
0.000131403
0.000154808
0.000176905
0.000265156
0.000301622
0.000354955
0.000368453
0.000391057
0.000464232
0.000476799
0.000520825
0.000538123
0.000534187
0.000536374
0.000536818
0.000415631
0.000431715
0.00188287
0.0139037
0.0138553
0.0138006
0.0137323
0.0137443
0.0136254
0.0133834
0.0139161
0.0131702
0.0132757
0.0124864
0.0123279
0.0124304
0.0110868
0.0110922
0.00987166
0.00965574
0.00916215
0.00920229
0.00785195
0.00701159
0.00699281
0.00694021
0.00695727
0.00683932
0.00677694
0.00683878
0.00660852
0.00665016
0.00658319
0.00641215
0.00774257
0.00709957
0.00667416
0.00610825
0.0067229
0.00665872
0.00688721
0.00668898
0.00747401
0.00434893
0.0043636
0.00439907
0.00443416
0.00444704
0.00458166
0.00446629
0.00459923
0.00452486
0.00450674
0.0046732
0.00431407
0.00406774
0.00411445
0.00406163
0.00424396
0.00381428
0.00396248
0.00351131
0.0037843
0.0027824
0.00277623
0.0027761
0.00274713
0.00275327
0.00271982
0.00267376
0.00264197
0.00263863
0.00267366
0.0024335
0.00264363
0.00269693
0.00287159
0.00276766
0.00283578
0.00267265
0.00295814
0.0027669
0.00303514
0.00175356
0.00175016
0.00175764
0.00175214
0.00176552
0.00176093
0.00175862
0.00185211
0.00182745
0.00179538
0.00196858
0.00190915
0.00187688
0.00193863
0.00187796
0.00194383
0.00183466
0.00191921
0.00180953
0.00177286
0.00126219
0.00125974
0.00126592
0.00126112
0.00127185
0.00125941
0.00126577
0.00127224
0.00122711
0.0012733
0.0012277
0.00124202
0.00126808
0.00133488
0.00131202
0.00134464
0.00126003
0.00140839
0.00133411
0.00125769
0.00078397
0.000783866
0.000786182
0.000789688
0.00079243
0.000789664
0.00079249
0.000798948
0.000796319
0.000804149
0.000808735
0.000829792
0.000854674
0.000904717
0.000877575
0.000895162
0.0008831
0.000947378
0.000860047
0.000760291
0.000573609
0.00057467
0.000578009
0.000584
0.000584276
0.000584422
0.000586056
0.000589958
0.00059003
0.000599553
0.000595479
0.000606541
0.00062665
0.000671022
0.000647611
0.000661727
0.000637756
0.000678292
0.000611546
0.000546518
0.000324422
0.000325328
0.000328675
0.000332595
0.000330554
0.000330155
0.000331729
0.000336234
0.000339571
0.000347426
0.000346225
0.000366569
0.000397111
0.000449064
0.000431675
0.000451457
0.00042905
0.000474357
0.000402879
0.000300146
0.000217923
0.000220055
0.00022432
0.000228267
0.000224526
0.000226576
0.000229756
0.000234648
0.000238284
0.000242267
0.000238731
0.000244563
0.00024851
0.000279296
0.000260514
0.000263551
0.000235633
0.000216485
0.000306626
0.000345336
8.13564e-05
8.34747e-05
9.25776e-05
9.85965e-05
9.7322e-05
0.000102893
0.000113793
0.000121661
0.000132835
0.000138808
0.000140456
0.000149721
0.000157022
0.000215545
0.000196646
0.000217633
0.000177507
0.000227394
0.000178352
0.000134182
6.37458e-06
1.28678e-05
3.47398e-05
3.16627e-05
3.54169e-05
5.61246e-05
7.13269e-05
8.05253e-05
9.07118e-05
9.22383e-05
9.54457e-05
0.000100171
9.7372e-05
0.000101071
0.000108063
0.000110776
0.000155169
0.000160321
0.000196353
0.000243368
1.73995e-05
2.43018e-05
4.00246e-05
5.1746e-05
3.35669e-05
3.50564e-05
4.37283e-05
5.32517e-05
6.00682e-05
6.87245e-05
6.71307e-05
7.43286e-05
6.13835e-05
7.85948e-05
8.77608e-05
0.000106532
9.60788e-05
9.91692e-05
0.000123564
0.000101256
4.54793e-05
4.5999e-05
4.71038e-05
4.40197e-05
5.42441e-05
5.45052e-05
5.98569e-05
5.68714e-05
6.53495e-05
6.0955e-05
7.4784e-05
7.21835e-05
9.27817e-05
8.94136e-05
0.000108606
0.000100218
0.000103838
9.38977e-05
0.000103773
0.000113818
5.6231e-05
5.91419e-05
6.4667e-05
6.70579e-05
6.18293e-05
6.39132e-05
6.31255e-05
6.53339e-05
6.58195e-05
6.99241e-05
6.53202e-05
6.57716e-05
5.38206e-05
6.89614e-05
7.61899e-05
7.98728e-05
9.23737e-05
9.23763e-05
0.000101717
0.000106669
6.14147e-05
6.25493e-05
6.82421e-05
6.60882e-05
6.41316e-05
6.30831e-05
6.63532e-05
6.5229e-05
6.80305e-05
6.90966e-05
7.67713e-05
8.26921e-05
8.32819e-05
7.59804e-05
7.72388e-05
7.69475e-05
7.88025e-05
8.01142e-05
8.31155e-05
8.95704e-05
5.59876e-05
5.56514e-05
5.52678e-05
6.02156e-05
5.69766e-05
5.62343e-05
5.5854e-05
5.84433e-05
5.77423e-05
6.0208e-05
5.95625e-05
6.06242e-05
6.4589e-05
6.57324e-05
6.87111e-05
6.92591e-05
7.27706e-05
7.19678e-05
7.67781e-05
7.88106e-05
3.88103e-05
3.84493e-05
4.05422e-05
4.93624e-05
4.98058e-05
4.70557e-05
4.78392e-05
4.71905e-05
4.84439e-05
4.843e-05
4.8625e-05
4.6787e-05
4.66705e-05
4.76213e-05
4.9509e-05
4.9629e-05
5.22995e-05
5.18459e-05
5.55273e-05
5.63833e-05
2.72869e-05
2.7749e-05
2.74413e-05
2.58179e-05
2.18974e-05
2.343e-05
2.32977e-05
2.62894e-05
2.86609e-05
3.15191e-05
3.22737e-05
3.45619e-05
3.69779e-05
3.81557e-05
3.94054e-05
4.02217e-05
4.1773e-05
4.24668e-05
4.44618e-05
4.54852e-05
7.16636e-06
6.69375e-06
7.42014e-06
8.56759e-06
9.69623e-06
1.14181e-05
1.25449e-05
1.38275e-05
1.46777e-05
1.51399e-05
1.55188e-05
1.71524e-05
1.76032e-05
1.8838e-05
1.93597e-05
2.04385e-05
2.11257e-05
2.21068e-05
2.30249e-05
2.39457e-05
0.000952245
0.00115522
0.000806821
0.00086352
0.00089944
0.000905639
0.000933163
0.000956449
0.000985059
0.00101796
0.00106971
0.00110396
0.00116576
0.00116077
0.00125149
0.00130601
0.00127197
0.00196966
0.00676279
0.0179458
0.000903282
0.000980421
0.000725952
0.000806451
0.000873169
0.000898691
0.000939785
0.000974623
0.00100334
0.00104607
0.00109318
0.0011374
0.00119493
0.00118234
0.00123873
0.00126803
0.00130835
0.00146406
0.00565616
0.0176443
0.000936965
0.00109067
0.000798201
0.000853444
0.000917494
0.000935861
0.00096372
0.000993131
0.00102491
0.00106232
0.00111045
0.00114488
0.00119649
0.00119196
0.00129818
0.00132173
0.00139744
0.00124077
0.00480392
0.0173178
0.0010131
0.0011106
0.000801469
0.000872144
0.000917787
0.000934193
0.000969436
0.00100352
0.00103375
0.00108302
0.00112259
0.00116579
0.00120786
0.00121201
0.00128389
0.00128078
0.00139902
0.0011721
0.00390304
0.0169075
0.00100768
0.00112964
0.000848524
0.000891906
0.000943069
0.000975626
0.00100142
0.00103151
0.00106855
0.00110388
0.00114265
0.00117816
0.00122028
0.0012329
0.00133458
0.00136036
0.00147147
0.00127025
0.00391409
0.0163993
0.00107523
0.00117011
0.000866501
0.000919708
0.000980086
0.000989385
0.00100595
0.00104657
0.00107079
0.00111431
0.00114615
0.00119154
0.00122822
0.00126268
0.00134362
0.00134271
0.00147198
0.00131729
0.00478123
0.0158002
0.00105775
0.00112498
0.00085042
0.000925666
0.00096673
0.000978559
0.00102306
0.00105836
0.00108616
0.00112125
0.00115835
0.0012053
0.00124946
0.0012901
0.00137267
0.00141291
0.0015351
0.00142052
0.00440803
0.0152678
0.00109217
0.00112094
0.000888757
0.000960865
0.000992441
0.00103212
0.00105699
0.00107211
0.00108802
0.00113249
0.00116701
0.00122022
0.00125034
0.00130536
0.00137422
0.00139533
0.00151747
0.00141167
0.00392534
0.0142028
0.00100014
0.00104698
0.000887488
0.000934749
0.000988889
0.00100922
0.00100932
0.00103315
0.00107243
0.00112269
0.00116692
0.00121441
0.00126044
0.00133059
0.00137817
0.00144048
0.00152648
0.00145398
0.00321103
0.0129808
0.0010512
0.00111038
0.000938212
0.000981748
0.00101383
0.00100662
0.00102326
0.00106681
0.00110325
0.00115734
0.00117869
0.00124047
0.00128706
0.00133259
0.00136188
0.00141464
0.00146584
0.00148819
0.00253159
0.0104366
0.0010327
0.00103889
0.000886325
0.00092125
0.000931416
0.000953167
0.000993353
0.00103408
0.00108873
0.00112548
0.00118026
0.00126011
0.0012766
0.00132093
0.00134602
0.00141638
0.00144893
0.00149519
0.00215343
0.00856017
0.000980687
0.000977672
0.000879227
0.000910231
0.000953856
0.0010053
0.00103914
0.00110847
0.00114288
0.00119905
0.00125575
0.00127127
0.00127337
0.00130754
0.00132572
0.00140892
0.00144135
0.00150806
0.00185638
0.00688851
0.000937036
0.000948101
0.000883452
0.000918827
0.00098824
0.00101204
0.00107057
0.00110856
0.00113853
0.00119057
0.00118819
0.00121064
0.00122305
0.00127163
0.0013233
0.00142228
0.00143048
0.00151146
0.00169668
0.00580484
0.000917704
0.000974318
0.000922351
0.000987102
0.00103344
0.00107414
0.00112084
0.00113483
0.00117836
0.00117856
0.00119255
0.00121435
0.00123157
0.00130579
0.00135598
0.00145031
0.00145999
0.00152907
0.0016184
0.00492188
0.00101296
0.001059
0.0010016
0.00104716
0.00106141
0.00108769
0.00107621
0.00109217
0.00108935
0.00109165
0.00112114
0.00114638
0.00121994
0.00130328
0.00138468
0.00147256
0.0014239
0.00149793
0.00155921
0.00440501
0.000953572
0.000972923
0.000925422
0.000949307
0.000970308
0.000980566
0.000996135
0.00103438
0.00106335
0.00113036
0.00119227
0.00127626
0.00137334
0.00143768
0.00148432
0.00144373
0.00137935
0.0015069
0.00163498
0.0043717
0.000943692
0.000976192
0.000943538
0.000984338
0.00102236
0.00105165
0.00109954
0.00114268
0.00119491
0.00124501
0.00128027
0.00132146
0.00132001
0.00129723
0.00125483
0.00119966
0.00130084
0.00146077
0.00159387
0.00367866
0.000931546
0.000966172
0.000934936
0.000976663
0.00100987
0.00103334
0.00106319
0.00108595
0.00111353
0.00112491
0.0011503
0.00115797
0.00118177
0.00120826
0.0012833
0.00140638
0.00161576
0.00176671
0.00179117
0.00361887
0.00091743
0.000963886
0.000933313
0.000980859
0.00101419
0.00103875
0.00107054
0.00110063
0.00113752
0.00117344
0.00122324
0.0012698
0.00133516
0.00140206
0.00148729
0.00156814
0.00162701
0.00153054
0.00148131
0.00190139
0.000912155
0.000951443
0.000923664
0.000973745
0.00100369
0.00103121
0.00106033
0.00109632
0.00112759
0.00117026
0.00120437
0.00125362
0.00129068
0.00134339
0.00137154
0.00140461
0.00140908
0.00140651
0.00161631
0.00216612
0.000234641
0.000159347
0.000200154
0.000215159
0.000187694
0.000113121
0.000107093
0.000260472
0.000195459
0.000117771
3.61911e-05
0.00045015
0.00165487
0.00434012
0.00841988
0.0105944
0.00776376
0.00343413
0.000292688
0.000659646
0.000281275
0.000219872
0.000198783
0.000193256
0.000238101
0.000209996
0.000163932
0.000198785
0.000290944
0.00022909
0.000118671
6.51125e-05
0.000578999
0.00215343
0.00554877
0.00956313
0.0101889
0.00607774
0.00155973
5.2821e-23
0.000273899
0.000259427
0.000270078
0.000196877
0.000188634
0.000224128
0.000237022
0.000180778
0.000224218
0.000297572
0.000251747
0.000119727
6.41695e-05
0.000855196
0.00317743
0.00736557
0.0108141
0.00867965
0.00377958
0.000361187
0.00030037
0.000246993
0.00029951
0.000283351
0.000251769
0.000213701
0.000240158
0.000251218
0.000238484
0.000261704
0.000313434
0.000247228
7.56124e-05
0.000146717
0.00147848
0.00509545
0.00960725
0.0105027
0.00636618
0.000858093
0.000330797
0.000279848
0.000279824
0.00027342
0.000286013
0.000262086
0.000270911
0.000233902
0.000272054
0.000274612
0.000320501
0.000328183
0.000233943
0.000131104
0.000467374
0.0028256
0.00783591
0.0112233
0.00858506
0.0019789
0.000361584
0.000328882
0.000352836
0.00031897
0.000323362
0.000271562
0.000313007
0.000310365
0.000281601
0.000307253
0.00033406
0.000377177
0.000344182
0.000222392
0.000152886
0.00130036
0.0059316
0.0109714
0.00981329
0.002542
0.000383117
0.000348443
0.000355214
0.000327458
0.000373829
0.000329618
0.000328168
0.00032359
0.00034926
0.000335488
0.000364015
0.000410838
0.000414087
0.00034924
0.000177132
0.000346002
0.00364807
0.00986863
0.0110681
0.00487967
0.00041677
0.000408917
0.000435794
0.000361239
0.000402416
0.00036242
0.000393372
0.000392451
0.000375091
0.000404261
0.000419729
0.000450481
0.000511033
0.000468482
0.000330933
0.000235619
0.00194012
0.00871593
0.0116324
0.00705718
0.00042597
0.000417719
0.000457081
0.00039194
0.000454498
0.000416038
0.000409829
0.000425842
0.00044521
0.000433936
0.000474816
0.000524662
0.000531217
0.000579812
0.000529647
0.000295687
0.000727924
0.00757825
0.0119221
0.00946488
0.000465329
0.000473428
0.000531181
0.000435609
0.000485187
0.000467662
0.000487366
0.000493903
0.000491351
0.000518085
0.000530026
0.000574359
0.00064395
0.000636914
0.000592347
0.000400904
0.000417285
0.00545642
0.0117501
0.0119708
0.000490666
0.000485312
0.000549993
0.000476556
0.000531424
0.000511184
0.000503846
0.000530296