/*--------------------------------*- C++ -*----------------------------------*\
  =========                 |
  \\      /  F ield         | OpenFOAM: The Open Source CFD Toolbox
   \\    /   O peration     | Website:  https://openfoam.org
    \\  /    A nd           | Version:  9
     \\/     M anipulation  |
\*---------------------------------------------------------------------------*/
FoamFile
{
    format      ascii;
    class       volScalarField;
    location    "2.2";
    object      p;
}
// * * * * * * * * * * * * * * * * * * * * * * * * * * * * * * * * * * * * * //

dimensions      [0 2 -2 0 0 0 0];

internalField   nonuniform List<scalar> 
46400
(
-39.2214
-33.1889
-21.1243
-11.8098
-3.14081
4.76378
11.7662
18.2541
24.0237
29.3264
34.1381
38.5581
42.6379
46.4129
49.9545
53.2987
56.3995
59.623
63.0092
63.9715
-16.2546
-10.2858
0.573472
9.47094
17.3951
24.7055
31.163
37.0669
42.3597
47.151
51.471
55.3891
58.947
62.1838
65.1274
67.8154
70.236
72.6504
74.8914
75.2511
7.75291
13.7878
23.3627
31.5027
38.5765
45.1456
50.8953
56.179
60.8391
65.0764
68.8684
72.2868
75.3752
78.1573
80.6753
82.9214
84.8793
86.8012
88.3483
87.9037
32.1203
37.1839
45.4855
53.0847
59.4858
65.4279
70.5886
75.2528
79.381
83.0342
86.2846
89.1551
91.7092
93.9644
95.9654
97.7274
99.2375
100.711
101.961
101.304
55.7905
59.9561
67.6777
74.6744
80.4828
85.7756
90.3171
94.3765
97.8927
101.004
103.715
106.082
108.146
109.931
111.476
112.781
113.846
114.889
115.667
114.676
78.4141
82.8893
89.9676
96.3115
101.406
105.983
109.842
113.226
116.152
118.644
120.814
122.648
124.227
125.551
126.676
127.594
128.309
129.009
129.567
128.431
101.795
106.56
112.629
117.99
122.266
126.046
129.202
131.889
134.156
136.057
137.636
138.934
139.984
140.811
141.457
141.918
142.198
142.484
142.673
141.329
124.703
129.849
134.621
139.044
142.468
145.408
147.831
149.827
151.479
152.775
153.828
154.613
155.214
155.611
155.865
155.954
155.89
155.843
155.714
154.214
147.654
152.782
156.258
159.515
162.092
164.177
165.864
167.14
168.13
168.82
169.277
169.514
169.575
169.479
169.26
168.912
168.439
167.987
167.453
165.766
169.344
173.288
176.056
178.314
180.165
181.541
182.603
183.31
183.763
183.944
183.941
183.734
183.382
182.874
182.269
181.544
180.721
179.918
179.034
177.123
189.346
192.242
194.362
195.873
197.043
197.777
198.232
198.352
198.252
197.903
197.386
196.698
195.896
194.967
193.956
192.851
191.664
190.514
189.295
187.237
206.588
208.904
210.531
211.525
212.206
212.458
212.468
212.174
211.681
210.943
210.046
208.977
207.797
206.508
205.139
203.69
202.169
200.677
199.138
196.844
222.534
224.273
225.385
225.833
226.01
225.746
225.264
224.499
223.58
222.46
221.198
219.788
218.275
216.664
215.001
213.267
211.495
209.753
208.002
205.614
236.394
237.67
238.386
238.447
238.256
237.633
236.793
235.68
234.411
232.966
231.402
229.686
227.882
225.96
223.985
221.933
219.839
217.768
215.662
213.085
248.565
249.344
249.664
249.314
248.768
247.804
246.615
245.161
243.564
241.806
239.97
238.026
236.019
233.931
231.79
229.588
227.329
225.089
222.825
220.046
259.626
259.733
259.59
258.856
257.942
256.681
255.23
253.501
251.626
249.585
247.452
245.235
242.962
240.638
238.288
235.902
233.492
231.115
228.784
225.951
267.51
267.381
266.913
265.919
264.736
263.277
261.671
259.85
257.883
255.749
253.507
251.15
248.737
246.252
243.748
241.206
238.645
236.124
233.666
230.765
274.238
274.032
273.345
272.102
270.595
268.827
266.911
264.821
262.634
260.31
257.921
255.436
252.913
250.33
247.734
245.104
242.46
239.854
237.335
234.352
277.441
277.157
276.51
275.466
274.082
272.35
270.41
268.241
265.957
263.529
261.033
258.447
255.827
253.154
250.476
247.773
245.06
242.396
239.84
236.832
282.171
279.234
278.876
277.417
276.002
274.133
272.167
269.931
267.62
265.14
262.614
259.983
257.331
254.62
251.912
249.177
246.439
243.753
241.189
238.14
-136.573
-136.598
-136.393
-136.705
-136.224
-134.644
-133.178
-131.097
-129.164
-127.53
-126.025
-124.394
-122.647
-121.228
-119.78
-118.124
-116.614
-115.222
-113.836
-112.347
-137.409
-137.09
-137.604
-136.746
-136.554
-134.633
-132.385
-130.038
-127.949
-126.004
-123.931
-121.822
-119.955
-118.15
-116.335
-114.54
-112.866
-111.257
-109.713
-108.096
-137.905
-137.683
-138.177
-137.144
-135.146
-133.503
-131.176
-128.724
-126.418
-123.974
-121.659
-119.416
-117.297
-115.156
-113.12
-111.167
-109.273
-107.353
-105.533
-103.729
-138.207
-138.362
-138.027
-137.947
-135.087
-132.547
-129.868
-127.367
-124.592
-121.937
-119.345
-116.795
-114.379
-111.96
-109.697
-107.46
-105.315
-103.193
-101.232
-99.235
-139.914
-140.032
-138.706
-137.808
-135.53
-132.417
-129.422
-126.136
-123.081
-120.037
-117.107
-114.25
-111.522
-108.809
-106.304
-103.768
-101.424
-99.1355
-96.9945
-94.7784
-142.688
-142.265
-142.087
-139.391
-136.081
-132.47
-128.647
-125.039
-121.436
-117.994
-114.651
-111.417
-108.325
-105.311
-102.498
-99.6711
-97.1091
-94.5539
-92.2206
-89.8307
-147.382
-146.576
-145.708
-141.868
-137.479
-133.023
-128.48
-124.179
-119.986
-115.984
-112.171
-108.515
-105.036
-101.689
-98.5672
-95.4713
-92.6845
-89.8864
-87.4033
-84.803
-155.037
-154.093
-151.072
-145.727
-139.547
-133.637
-128.2
-122.985
-118.084
-113.475
-109.12
-105
-101.108
-97.4192
-93.9638
-90.5962
-87.5918
-84.5263
-81.8988
-79.1489
-161.49
-160.596
-154.763
-147.79
-140.35
-133.415
-126.992
-121.073
-115.51
-110.328
-105.487
-100.934
-96.6668
-92.6562
-88.9035
-85.3138
-82.0861
-78.8052
-76.0691
-73.1292
-167.579
-165.724
-157.257
-148.63
-139.971
-132.068
-124.705
-118.02
-111.831
-106.098
-100.78
-95.8133
-91.1889
-86.8752
-82.8395
-79.0351
-75.5974
-72.1284
-69.2809
-66.2015
-168.154
-165.689
-156.459
-146.497
-137.103
-128.499
-120.59
-113.384
-106.741
-100.616
-94.9519
-89.6816
-84.7946
-80.2505
-76.014
-72.0698
-68.4538
-64.8702
-62.0508
-58.5758
-165.76
-163.442
-152.971
-142.336
-132.481
-123.352
-114.93
-107.293
-100.24
-93.7444
-87.7671
-82.2145
-77.0913
-72.3458
-67.9345
-63.8556
-60.0911
-56.5084
-53.5206
-50.0427
-161.439
-158.904
-148.392
-136.283
-125.767
-116.236
-107.386
-99.4056
-92.0961
-85.3806
-79.2157
-73.5115
-68.2542
-63.3923
-58.8866
-54.7302
-50.8861
-47.2433
-44.1673
-40.6513
-154.94
-151.222
-139.576
-127.775
-116.665
-106.984
-97.9459
-89.7951
-82.3256
-75.4586
-69.1762
-63.3593
-58.0218
-53.0948
-48.5363
-44.355
-40.4608
-36.8544
-33.7526
-30.1658
-144.303
-140.085
-128.611
-116.931
-105.751
-95.9041
-86.7674
-78.5005
-70.9851
-64.0891
-57.791
-51.9864
-46.657
-41.7494
-37.2316
-33.0869
-29.2239
-25.7017
-22.6423
-19.031
-132.408
-127.491
-115.528
-103.867
-92.5589
-82.7492
-73.6606
-65.4629
-58.0092
-51.1662
-44.9378
-39.1889
-33.9329
-29.0938
-24.6471
-20.579
-16.7745
-13.3831
-10.3579
-6.72243
-116.992
-112.089
-99.7706
-88.1619
-77.3564
-67.7805
-58.9609
-50.9246
-43.6715
-37.0079
-30.9435
-25.3686
-20.2578
-15.5705
-11.2836
-7.35029
-3.67975
-0.493645
2.41319
6.02504
-100.346
-94.93
-82.4154
-71.3835
-60.6738
-51.399
-42.8439
-35.0746
-28.0528
-21.6065
-15.7582
-10.3774
-5.46618
-0.960931
3.14264
6.90399
10.39
13.3368
16.0534
19.4933
-81.3743
-75.7825
-62.8509
-52.4694
-42.4404
-33.5156
-25.4527
-18.0169
-11.3604
-5.23914
0.320646
5.42333
10.1044
14.3827
18.2905
21.9081
25.2146
27.9333
30.4808
34.3006
-61.2231
-55.3772
-42.8016
-32.8456
-23.3494
-14.8768
-7.22142
-0.215245
6.10803
11.9096
17.1865
22.0525
26.5302
30.6718
34.5085
38.122
41.4087
44.4531
47.7618
51.6819
-106.353
-97.6043
-90.9402
-89.0643
-85.715
-85.1658
-83.3529
-82.3894
-81.1097
-79.8064
-78.6727
-77.1639
-76.0441
-74.4478
-73.2509
-71.6559
-70.1918
-69.1829
-68.5513
-68.045
-101.303
-93.4721
-86.3507
-84.7965
-81.2596
-80.7986
-79.1531
-78.4697
-77.5093
-76.4438
-75.5628
-74.2771
-73.3932
-72.0049
-71.0316
-69.6363
-68.366
-67.4239
-66.9416
-66.4874
-96.3225
-89.2529
-81.5951
-80.2642
-76.8709
-76.6685
-75.3003
-74.732
-73.963
-73.0924
-72.4532
-71.3765
-70.7177
-69.5194
-68.7632
-67.5221
-66.4567
-65.7231
-65.3197
-64.862
-91.0376
-84.7693
-76.83
-75.9157
-72.453
-72.3617
-71.1893
-70.8877
-70.4499
-69.8067
-69.4135
-68.5491
-68.121
-67.1231
-66.5886
-65.541
-64.6746
-63.9938
-63.7475
-63.3366
-85.6694
-80.2136
-71.9342
-71.3483
-68.1
-68.2628
-67.4128
-67.2318
-66.9848
-66.5317
-66.3709
-65.7093
-65.4954
-64.6835
-64.364
-63.4656
-62.8161
-62.3169
-62.1752
-61.758
-80.0222
-75.3509
-67.0348
-66.8971
-63.7072
-63.999
-63.4045
-63.4717
-63.5491
-63.3175
-63.3954
-62.9376
-62.949
-62.3305
-62.2308
-61.521
-61.0838
-60.6168
-60.6529
-60.2759
-74.2278
-70.4085
-62.0128
-62.253
-59.3997
-59.9234
-59.6802
-59.8799
-60.1565
-60.1139
-60.4155
-60.1546
-60.3703
-59.9329
-60.0472
-59.4843
-59.2832
-58.9639
-59.1115
-58.7556
-68.1131
-65.1065
-57.0027
-57.6828
-55.0206
-55.6961
-55.7713
-56.206
-56.7935
-56.9709
-57.4978
-57.4337
-57.8681
-57.6191
-57.9517
-57.574
-57.6073
-57.2947
-57.6649
-57.3239
-61.8313
-59.7421
-51.7775
-52.9768
-50.7542
-51.6381
-52.0872
-52.673
-53.4666
-53.8354
-54.5753
-54.7051
-55.333
-55.2613
-55.8043
-55.5759
-55.8732
-55.6631
-56.1783
-55.8652
-55.0694
-54.102
-46.633
-48.2702
-46.4039
-47.433
-48.2464
-49.0797
-50.1692
-50.7577
-51.712
-52.0334
-52.8706
-52.9829
-53.7384
-53.6999
-54.2599
-54.0224
-54.8014
-54.4894
-48.1742
-48.2392
-41.3339
-43.3893
-42.1762
-43.388
-44.6025
-45.6104
-46.9041
-47.6904
-48.8462
-49.3553
-50.3765
-50.661
-51.6204
-51.7405
-52.5718
-52.4507
-53.3775
-53.0962
-40.8028
-41.9875
-36.0494
-38.5397
-37.8397
-39.2129
-40.814
-42.0968
-43.6683
-44.6759
-46.0359
-46.731
-47.9506
-48.4126
-49.5774
-49.8958
-50.9717
-50.9017
-52.0669
-51.7806
-33.1222
-35.6239
-30.5672
-33.5361
-33.6255
-35.1828
-37.1928
-38.6897
-40.4601
-41.6723
-43.224
-44.0998
-45.4938
-46.1208
-47.4815
-47.9701
-49.2966
-49.3779
-50.7156
-50.4551
-24.7309
-28.9712
-25.1069
-28.5585
-29.3006
-31.0498
-33.4481
-35.2594
-37.2887
-38.7223
-40.4682
-41.5224
-43.1029
-43.8983
-45.4548
-46.1516
-47.7087
-47.8942
-49.5138
-49.2051
-15.7673
-22.1666
-19.464
-23.4514
-25.1029
-27.0622
-29.8551
-31.931
-34.153
-35.7938
-37.7224
-38.9477
-40.6913
-41.6412
-43.3834
-44.2666
-46.0508
-46.441
-48.3117
-47.9383
-5.87029
-14.8981
-13.754
-18.2993
-20.7348
-22.9384
-26.1044
-28.548
-31.0208
-32.8849
-35.0041
-36.4033
-38.3234
-39.4316
-41.3636
-42.4652
-44.4686
-44.9673
-47.203
-46.7901
4.1512
-7.62296
-7.93124
-13.0447
-16.4555
-18.9118
-22.4409
-25.2091
-27.8872
-29.9633
-32.2634
-33.8296
-35.9041
-37.1546
-39.2602
-40.5435
-42.7889
-43.3862
-46.0092
-45.5274
14.347
-0.672612
-2.57164
-8.04351
-12.3728
-15.1289
-18.9644
-22.1222
-25.0112
-27.2724
-29.7303
-31.4354
-33.6561
-35.0338
-37.29
-38.8139
-41.1977
-41.9754
-45.0102
-44.2888
29.3202
7.9952
3.41008
-2.8674
-8.36851
-11.4891
-15.6107
-19.1632
-22.2307
-24.6825
-27.3072
-29.149
-31.5084
-33.0105
-35.4406
-37.2797
-39.7565
-40.8651
-44.4254
-43.6641
46.6149
19.651
11.3323
3.73656
-2.27145
-5.93262
-10.4908
-14.6305
-18.1734
-20.9878
-23.9263
-26.0626
-28.651
-30.3487
-33.071
-35.0264
-38.3476
-39.3509
-43.6168
-41.9811
69.6065
63.8642
49.1011
39.8368
30.6903
23.5155
16.6862
11.1143
5.32441
0.648676
-4.021
-7.61903
-11.0831
-13.4272
-16.6981
-17.3338
-22.4778
-23.2126
-28.9372
-23.2924
105.53
92.9807
73.8998
63.0061
50.588
41.24
32.6177
25.7316
19.7927
14.8765
10.4722
6.32033
2.36917
-1.25107
-4.59596
-8.13491
-10.6106
-13.406
-14.6904
-14.7775
106.276
93.7826
82.326
72.4511
63.7401
55.7435
48.5998
41.8827
35.7641
30.5642
25.983
22.2692
18.7726
16.0674
13.4382
11.4935
9.4168
7.79052
6.91838
6.65037
105.47
97.2019
88.9409
80.0645
72.3055
64.6574
58.0354
51.9963
46.6903
41.5597
36.9027
32.4779
28.6871
24.989
21.9553
18.9959
16.7247
14.5604
13.538
13.2516
96.7546
89.8628
83.7688
77.7006
72.4516
67.0122
62.0631
57.2723
52.8532
48.8331
45.0606
41.7378
38.587
35.8906
33.3703
31.1305
29.2839
27.435
26.2812
25.9875
93.0943
88.5865
85.2165
80.2796
75.8736
71.1771
66.8731
62.5814
58.5953
54.7337
51.1249
47.6972
44.5159
41.5502
38.8277
36.4419
34.1462
32.4444
31.0897
30.6676
86.5738
83.296
80.1632
76.7932
73.6187
70.4735
67.2732
64.2365
61.15
58.3182
55.4299
52.8265
50.2024
47.7991
45.4926
43.171
41.2542
39.0437
37.749
37.5837
84.8846
82.5914
80.856
78.2918
75.4165
72.6567
70.0406
67.3054
64.6164
61.9895
59.3271
56.8434
54.2676
51.9274
49.5083
47.3176
45.1079
43.0175
41.629
41.0708
81.1477
79.4509
77.6735
75.864
74.3544
72.4612
70.3994
68.4923
66.3396
64.4371
62.2345
60.3437
58.0944
56.1938
53.8794
51.8857
49.5261
47.3623
45.6008
44.8743
80.9106
79.8031
78.766
77.4058
75.8131
74.0964
72.4345
70.8438
69.0654
67.402
65.4957
63.8006
61.7236
59.9815
57.6645
55.7875
53.0819
50.9705
48.4533
47.7489
79.6234
78.5869
77.6998
76.8382
75.9603
75.0467
73.8146
72.6297
71.2714
70.0746
68.5789
67.3407
65.6471
64.3183
62.2709
60.7455
57.9463
56.2479
53.0333
52.5084
79.9993
79.6001
79.0045
78.2807
77.3886
76.5749
75.6751
74.885
73.9111
73.0742
72.0075
71.1354
69.9065
68.9961
67.5279
66.5164
64.4681
63.5035
58.4721
59.8158
80.0663
79.7244
79.3529
79.0424
78.5909
78.2329
77.6491
77.1962
76.6095
76.186
75.6236
75.2331
74.7101
74.3765
73.7358
73.541
72.2887
72.759
72.3522
74.3147
80.8733
80.7278
80.4121
80.2007
79.9061
79.7145
79.4739
79.3335
79.1318
79.1022
79.0116
79.0597
79.2052
79.3659
79.8972
80.1314
81.2896
81.2855
83.9372
85.6893
81.4918
81.4737
81.3731
81.3766
81.2698
81.3329
81.234
81.423
81.4197
81.7718
81.8217
82.4693
82.7626
83.8204
84.4923
86.0789
87.4481
89.4977
92.7963
93.3175
82.1996
82.2574
82.2621
82.3709
82.4529
82.6452
82.8248
83.1434
83.4234
83.8947
84.4085
85.1679
85.8407
86.9295
87.917
89.4543
91.032
93.668
96.4678
101.177
82.7975
82.9083
82.9981
83.1674
83.3263
83.5784
83.8255
84.2246
84.5614
85.1382
85.6088
86.403
87.082
88.2116
89.1187
90.7436
91.9171
93.8884
94.6943
105.154
83.3579
83.5211
83.6905
83.9361
84.1826
84.5213
84.8608
85.2754
85.712
86.3183
86.8763
87.6849
88.3284
89.3869
90.1271
91.4658
92.2259
93.9112
94.4875
96.9716
83.7164
83.8765
84.0633
84.298
84.5463
84.8764
85.2162
85.6783
86.1464
86.7285
87.3152
88.035
88.7415
89.6269
90.4119
91.4757
92.2461
93.5049
94.021
98.6264
83.8641
84.04
84.2565
84.5062
84.818
85.1654
85.5676
86.0207
86.5187
87.0938
87.6937
88.3969
89.0931
89.9191
90.6948
91.6181
92.4354
93.4108
94.1626
95.2553
202.83
202.299
200.988
199.32
196.75
193.915
190.089
185.942
181.066
175.726
169.687
163.163
156.075
147.501
139.921
130.926
121.332
112.197
103.063
93.4052
173.375
173.084
172.525
171.7
170.553
169.237
167.479
165.723
163.348
161.112
158.234
155.637
151.386
146.904
143.134
139.726
135.823
131.869
127.475
122.996
136.117
136.002
135.767
135.427
134.985
134.404
133.77
132.961
132.085
131.096
129.952
128.781
127.37
126.074
124.303
122.744
120.763
119.006
116.789
115.1
123.686
123.631
123.484
123.318
123.01
122.734
122.247
121.829
121.203
120.612
119.847
119.11
118.189
117.339
116.285
115.346
114.141
113.137
111.754
110.813
105.314
105.269
105.214
105.087
104.975
104.775
104.596
104.342
104.085
103.803
103.454
103.151
102.747
102.415
101.936
101.556
100.989
100.574
99.9012
99.5251
99.4145
99.3988
99.3462
99.2979
99.1938
99.1119
98.9574
98.8379
98.6385
98.4527
98.2239
97.9713
97.6679
97.3788
97.0034
96.6857
96.2355
95.8969
95.371
95.0612
90.8673
90.8449
90.8152
90.7558
90.6957
90.6042
90.5079
90.3927
90.251
90.117
89.935
89.7735
89.5608
89.3716
89.1245
88.9088
88.6188
88.3814
88.0446
87.8023
87.95
87.9398
87.9115
87.8818
87.8278
87.7773
87.6996
87.6272
87.5261
87.4308
87.306
87.1889
87.0378
86.901
86.7215
86.5645
86.3561
86.1796
85.9336
85.749
84.2854
84.2717
84.248
84.2108
84.1645
84.1053
84.0351
83.9569
83.8615
83.767
83.6465
83.5372
83.3932
83.2636
83.0853
82.924
82.7064
82.5007
82.2209
81.9294
82.8166
82.808
82.7894
82.7659
82.7305
82.6916
82.6414
82.5905
82.5249
82.4645
82.3811
82.3147
82.2129
82.1394
82.0146
81.9193
81.7799
81.6504
81.5005
81.3432
81.8823
81.8695
81.8483
81.8154
81.7748
81.7244
81.6686
81.6024
81.5312
81.451
81.3628
81.2735
81.1644
81.0727
80.9218
80.7905
80.5648
80.3912
80.1782
79.9966
81.3254
81.3053
81.2774
81.2432
81.2107
81.1768
81.1336
81.0857
81.0339
80.979
80.9229
80.8654
80.8085
80.7538
80.6858
80.6031
80.5218
80.4342
80.3286
80.243
81.3305
81.3182
81.3033
81.2877
81.2654
81.236
81.2013
81.1656
81.124
81.083
81.0345
80.9867
80.9274
80.8657
80.7806
80.6873
80.5816
80.477
80.3587
80.241
81.567
81.5639
81.5577
81.5479
81.5367
81.5214
81.5059
81.4848
81.4649
81.4384
81.414
81.3828
81.3533
81.3184
81.2822
81.244
81.1971
81.1524
81.1042
81.0435
81.8576
81.8554
81.8518
81.8468
81.8396
81.8317
81.821
81.8103
81.7964
81.7825
81.7658
81.7483
81.729
81.7081
81.687
81.6622
81.6409
81.6137
81.5904
81.5611
82.3321
82.3309
82.3296
82.3272
82.3254
82.3217
82.3194
82.3146
82.3115
82.3056
82.3015
82.2946
82.2891
82.2818
82.2746
82.266
82.2571
82.2472
82.2375
82.2264
82.6961
82.6964
82.6967
82.6989
82.7004
82.7038
82.7058
82.7099
82.7126
82.7173
82.7209
82.726
82.7311
82.736
82.7421
82.7473
82.7544
82.7597
82.7679
82.7733
83.0684
83.069
83.0714
83.0741
83.0786
83.0831
83.0898
83.0969
83.1059
83.1156
83.128
83.1413
83.1567
83.1728
83.1905
83.2084
83.2284
83.2481
83.2708
83.2922
83.3321
83.3338
83.3373
83.3433
83.351
83.3617
83.3733
83.3878
83.4028
83.42
83.4366
83.4545
83.4735
83.4935
83.5151
83.5374
83.5615
83.5862
83.6131
83.6401
83.4405
83.4433
83.4486
83.4553
83.4638
83.4739
83.4858
83.4988
83.5134
83.5297
83.5474
83.5671
83.5877
83.61
83.6337
83.6593
83.6864
83.7152
83.7457
83.7777
64.7326
63.7703
60.4076
57.1946
54.1091
50.7825
47.2605
43.508
39.444
35.0454
30.2578
24.9803
19.2398
12.7771
5.8092
-2.04507
-10.6645
-19.9337
-31.9456
-37.9687
75.9169
75.5608
73.3527
70.9544
68.5548
65.8885
62.9658
59.7515
56.2168
52.3207
48.0206
43.2573
37.99
32.107
25.6811
18.4212
10.534
1.66744
-9.13072
-15.0697
88.5662
89.0252
87.5073
85.6017
83.6615
81.4335
78.9346
76.1734
73.0999
69.7032
65.9382
61.7287
57.0951
51.8363
46.1248
39.6064
32.571
24.4797
14.9617
8.92286
101.927
102.584
101.354
99.8921
98.3963
96.6501
94.6666
92.4269
89.8919
87.0411
83.8065
80.1743
76.0661
71.4229
66.2986
60.4073
54.0465
46.5003
38.2545
33.2556
115.253
116.244
115.494
114.463
113.414
112.128
110.599
108.833
106.786
104.44
101.755
98.6731
95.1829
91.1576
86.6637
81.4245
75.6536
68.7094
61.0319
56.8861
128.943
130.089
129.572
128.888
128.189
127.289
126.182
124.874
123.314
121.498
119.345
116.871
113.965
110.606
106.778
102.239
97.1755
90.8774
83.8518
79.412
141.711
143.076
142.948
142.682
142.42
141.981
141.354
140.549
139.517
138.24
136.683
134.81
132.565
129.91
126.791
123.058
118.807
113.499
107.478
102.742
154.779
156.296
156.423
156.48
156.558
156.48
156.242
155.854
155.264
154.49
153.449
152.165
150.528
148.551
146.149
143.231
139.815
135.422
130.671
125.522
166.246
167.908
168.444
168.901
169.383
169.736
169.96
170.059
170.006
169.782
169.344
168.677
167.705
166.449
164.782
162.718
160.152
156.94
153.463
148.393
177.64
179.557
180.454
181.267
182.099
182.828
183.44
183.957
184.327
184.555
184.579
184.411
183.967
183.267
182.208
180.838
178.981
176.733
173.934
170.06
187.739
189.758
190.96
192.096
193.273
194.375
195.396
196.341
197.165
197.869
198.397
198.749
198.845
198.717
198.262
197.52
196.346
194.837
192.699
189.83
197.179
199.437
201
202.516
204.065
205.55
206.962
208.288
209.499
210.586
211.487
212.223
212.71
213.005
212.992
212.751
212.069
211.089
209.455
207.153
205.85
208.237
210.061
211.855
213.668
215.434
217.12
218.734
220.242
221.632
222.875
223.976
224.882
225.637
226.116
226.378
226.199
225.754
224.622
222.893
213.317
215.9
218.044
220.14
222.255
224.317
226.3
228.222
230.029
231.747
233.319
234.771
236.053
237.178
238.042
238.679
238.883
238.829
238.102
236.823
220.408
223.15
225.428
227.677
229.943
232.141
234.286
236.362
238.369
240.3
242.133
243.878
245.474
246.927
248.116
249.071
249.603
249.934
249.588
248.808
226.086
228.863
231.229
233.629
236.05
238.447
240.811
243.145
245.438
247.669
249.832
251.891
253.81
255.551
257.035
258.263
259.172
259.882
260.011
259.865
230.864
233.748
236.263
238.824
241.414
243.982
246.516
249.02
251.461
253.827
256.086
258.209
260.17
261.944
263.523
264.92
266.105
267.058
267.531
267.607
234.4
237.333
239.884
242.505
245.167
247.803
250.422
253.011
255.559
258.049
260.467
262.795
265.019
267.11
269.073
270.845
272.417
273.61
274.308
274.352
236.867
239.862
242.469
245.171
247.906
250.637
253.337
256.034
258.672
261.28
263.792
266.24
268.537
270.715
272.652
274.371
275.684
276.65
277.128
277.246
238.035
241.015
243.625
246.339
249.094
251.839
254.567
257.286
259.962
262.604
265.164
267.663
270.019
272.281
274.305
276.192
277.719
279.091
279.981
280.677
-111.235
-112.742
-114.161
-115.578
-117.085
-118.764
-120.243
-121.683
-123.428
-125.076
-126.688
-128.465
-130.366
-132.43
-134.042
-135.599
-136.027
-135.574
-135.704
-135.657
-106.859
-108.499
-110.067
-111.707
-113.407
-115.233
-117.059
-118.863
-120.751
-122.896
-124.984
-126.926
-129.042
-131.526
-133.748
-135.712
-135.877
-136.519
-136.013
-136.379
-102.621
-104.42
-106.236
-108.143
-110.032
-111.977
-114.014
-116.151
-118.26
-120.503
-122.804
-125.227
-127.482
-129.82
-132.118
-133.609
-135.369
-136.513
-136.098
-136.337
-97.9589
-99.971
-101.945
-104.081
-106.232
-108.48
-110.741
-113.164
-115.573
-118.112
-120.689
-123.302
-126.026
-128.525
-131.123
-133.491
-136.168
-136.16
-136.588
-136.476
-93.6075
-95.818
-97.9514
-100.224
-102.559
-105.083
-107.579
-110.276
-112.992
-115.835
-118.737
-121.778
-124.833
-128.058
-131.039
-134.109
-136.374
-137.303
-138.648
-138.619
-88.5616
-90.951
-93.2831
-95.8423
-98.4016
-101.224
-104.032
-107.039
-110.117
-113.33
-116.653
-120.091
-123.644
-127.237
-130.995
-134.593
-137.947
-140.557
-140.86
-141.23
-83.6083
-86.1985
-88.6731
-91.4585
-94.232
-97.3094
-100.416
-103.744
-107.204
-110.841
-114.636
-118.61
-122.777
-127.041
-131.577
-135.999
-140.292
-144.123
-144.975
-145.731
-77.9003
-80.6465
-83.2635
-86.3192
-89.3159
-92.6721
-96.1159
-99.7933
-103.669
-107.77
-112.1
-116.686
-121.551
-126.727
-132.116
-137.948
-144.107
-149.352
-152.269
-153.261
-71.9366
-74.8708
-77.5968
-80.8642
-84.0791
-87.6496
-91.3826
-95.3728
-99.6174
-104.144
-108.959
-114.107
-119.636
-125.518
-131.9
-138.787
-146.125
-153.02
-158.796
-159.662
-64.9789
-68.0662
-70.9039
-74.3522
-77.7785
-81.5674
-85.585
-89.8837
-94.489
-99.4349
-104.729
-110.439
-116.595
-123.256
-130.581
-138.416
-147.049
-155.596
-163.962
-165.813
-57.542
-60.9321
-63.7544
-67.3015
-70.8914
-74.8125
-79.023
-83.5431
-88.4056
-93.6487
-99.2862
-105.379
-111.987
-119.156
-127.012
-135.577
-144.862
-154.748
-163.985
-166.424
-48.9084
-52.3459
-55.3152
-58.8888
-62.6314
-66.6963
-71.0902
-75.8205
-80.9255
-86.4578
-92.4132
-98.8866
-105.911
-113.524
-121.92
-130.987
-140.804
-151.43
-161.865
-164.16
-39.5371
-43.0517
-46.1201
-49.7527
-53.5839
-57.7232
-62.2108
-67.0538
-72.291
-77.9735
-84.117
-90.807
-98.0823
-106.034
-114.843
-124.315
-134.774
-146.774
-157.226
-159.75
-29.0957
-32.663
-35.7425
-39.3359
-43.2079
-47.3745
-51.9156
-56.8275
-62.1474
-67.9455
-74.209
-81.0565
-88.5031
-96.6375
-105.655
-115.301
-126.394
-138.126
-149.701
-153.411
-17.9816
-21.584
-24.6353
-28.1533
-32.004
-36.133
-40.6358
-45.5266
-50.8362
-56.6219
-62.9008
-69.775
-77.2589
-85.5012
-94.6078
-104.41
-115.528
-127.139
-138.557
-142.757
-5.72302
-9.35774
-12.3607
-15.7426
-19.5294
-23.582
-28.0127
-32.8346
-38.0718
-43.802
-50.0108
-56.8319
-64.2596
-72.4379
-81.4999
-91.261
-102.527
-114.147
-126.089
-130.981
6.94083
3.33084
0.4467
-2.73075
-6.38321
-10.2958
-14.5634
-19.23
-24.3175
-29.8702
-35.9118
-42.5507
-49.7701
-57.78
-66.5675
-76.0944
-86.8399
-98.3884
-110.667
-115.553
20.3396
16.8763
14.2082
11.2882
7.82666
4.0896
0.00803445
-4.47122
-9.35756
-14.7167
-20.5423
-26.9623
-33.9566
-41.7056
-50.2317
-59.4593
-70.1313
-81.123
-93.6059
-99.0132
35.0548
31.2127
28.7185
26.0327
22.7543
19.1645
15.2833
11.0308
6.37317
1.29526
-4.2386
-10.3321
-16.9535
-24.3595
-32.3854
-41.2573
-51.2189
-61.5327
-74.428
-80.0281
52.4508
48.5071
45.2396
42.2198
38.9567
35.3656
31.5495
27.4344
22.9829
18.1394
12.8853
7.11212
0.814996
-6.17293
-13.8022
-22.2304
-31.69
-41.6298
-54.1509
-59.952
-67.824
-68.3121
-68.977
-69.9779
-71.4261
-73.0253
-74.178
-75.7684
-76.8259
-78.3089
-79.3666
-80.6128
-81.8006
-82.6436
-84.343
-84.83
-87.9012
-89.8887
-96.2552
-105.009
-66.2697
-66.703
-67.2186
-68.1442
-69.4026
-70.7978
-71.7294
-73.1075
-73.9304
-75.187
-75.9924
-76.992
-77.8767
-78.4608
-79.9964
-80.3077
-83.5987
-85.3918
-92.2695
-99.8353
-64.6383
-65.0627
-65.5183
-66.2231
-67.2859
-68.5244
-69.2369
-70.4262
-71.0216
-72.0659
-72.6316
-73.4251
-74.1148
-74.5371
-75.8516
-75.9535
-79.1201
-80.4825
-88.0604
-95.0733
-63.1156
-63.4947
-63.791
-64.436
-65.302
-66.3432
-66.8359
-67.8205
-68.1872
-69.0148
-69.3378
-69.8959
-70.2791
-70.4471
-71.5611
-71.4739
-74.789
-75.8132
-83.6429
-89.6957
-61.532
-61.9087
-62.1135
-62.5671
-63.2247
-64.1144
-64.3906
-65.1902
-65.341
-65.9627
-66.0555
-66.412
-66.598
-66.6099
-67.4584
-67.1515
-70.23
-70.7789
-79.0893
-84.4886
-60.0517
-60.3902
-60.4156
-60.8324
-61.2782
-61.9761
-62.0339
-62.6366
-62.5642
-62.9766
-62.8348
-62.9654
-62.8451
-62.6067
-63.2079
-62.7187
-65.8308
-65.9617
-74.2651
-78.7604
-58.5291
-58.8533
-58.761
-59.0235
-59.2401
-59.7892
-59.6316
-60.0533
-59.7752
-59.9885
-59.6244
-59.5572
-59.237
-58.842
-59.1287
-58.4215
-61.1604
-60.8377
-69.3282
-73.0745
-57.0975
-57.4024
-57.0933
-57.3463
-57.3282
-57.6902
-57.3148
-57.5465
-57.0511
-57.0632
-56.4762
-56.1832
-55.5583
-54.916
-54.9118
-54.0226
-56.6499
-55.8898
-64.0612
-66.8947
-55.6378
-55.9184
-55.459
-55.6064
-55.3291
-55.5403
-54.9532
-55.0064
-54.3168
-54.1335
-53.3336
-52.847
-52.0179
-51.2105
-50.8463
-49.743
-51.9092
-50.5935
-58.7056
-60.6966
-54.2592
-54.5426
-53.8181
-53.9931
-53.4519
-53.4722
-52.6726
-52.5408
-51.6427
-51.2645
-50.2515
-49.5402
-48.4108
-47.3531
-46.6465
-45.3862
-47.2567
-45.4895
-53.1174
-53.8669
-52.8637
-53.124
-52.2398
-52.3019
-51.4919
-51.3526
-50.3475
-50.0423
-48.96
-48.3935
-47.1765
-46.2715
-44.935
-43.693
-42.5893
-41.1274
-42.334
-40.1559
-47.2766
-47.0216
-51.541
-51.8135
-50.6898
-50.7016
-49.6465
-49.3087
-48.0978
-47.6145
-46.3339
-45.5791
-44.1577
-43.029
-41.3993
-39.8873
-38.4099
-36.7872
-37.5238
-34.9097
-41.0714
-39.6694
-50.2098
-50.4627
-49.1714
-49.0241
-47.7212
-47.212
-45.8036
-45.1539
-43.6995
-42.7637
-41.1475
-39.8223
-37.9824
-36.2546
-34.3617
-32.5295
-32.4826
-29.4231
-34.7475
-32.0275
-48.9469
-49.255
-47.6797
-47.4343
-45.9029
-45.1857
-43.5802
-42.7621
-41.121
-40.0052
-38.1937
-36.6468
-34.5206
-32.4901
-30.21
-28.1959
-27.5328
-24.0151
-28.1544
-23.6313
-47.6682
-48.0586
-46.2255
-45.7747
-44.0194
-43.1144
-41.3211
-40.3474
-38.5445
-37.2572
-35.2604
-33.5156
-31.1744
-28.886
-26.1937
-23.9476
-22.3983
-18.4045
-21.4057
-14.702
-46.4986
-46.9487
-44.7523
-44.1885
-42.22
-41.0961
-39.1114
-37.9797
-35.9998
-34.5376
-32.3499
-30.3824
-27.7526
-25.1164
-22.0417
-19.5699
-17.2629
-12.7702
-14.2009
-4.78356
-45.2193
-45.7399
-43.1703
-42.5077
-40.3028
-38.9951
-36.8345
-35.5593
-33.4266
-31.7983
-29.4306
-27.2578
-24.3914
-21.4564
-17.9871
-15.2363
-11.9677
-7.024
-6.9948
5.21635
-43.956
-44.7322
-41.7583
-40.9102
-38.5766
-37.0265
-34.7107
-33.3102
-31.032
-29.2637
-26.7402
-24.3748
-21.2417
-17.9363
-14.1238
-11.0849
-7.00064
-1.82324
-0.161116
15.3981
-43.2865
-44.1608
-40.6478
-39.466
-37.0483
-35.1779
-32.6797
-31.156
-28.7394
-26.8307
-24.1375
-21.573
-18.213
-14.5046
-10.3645
-6.97445
-1.86366
4.02947
8.54242
30.3119
-41.5987
-43.354
-39.1389
-38.0506
-34.8034
-32.8166
-30.0399
-28.3134
-25.6656
-23.4648
-20.4624
-17.5361
-13.6964
-9.48519
-4.94688
-1.15174
4.743
11.9314
20.4807
47.7031
-23.2052
-28.7289
-23.039
-22.2738
-17.1102
-16.4728
-13.2683
-10.8784
-7.44812
-3.83556
0.774625
5.46257
11.1977
16.2234
23.082
29.9536
40.3499
49.4707
65.1962
70.4794
-14.5302
-14.4287
-13.1052
-10.3386
-7.85115
-4.29978
-0.914158
2.70229
6.64467
10.8118
15.2106
20.1465
25.9614
33.0478
41.8344
51.2146
62.993
74.0386
92.8274
105.9
6.79328
7.09321
7.92442
9.58826
11.638
13.6043
16.2198
18.9325
22.4322
26.1624
30.747
35.9726
42.1066
48.771
55.91
63.8882
72.8079
82.5477
94.0567
106.56
13.4257
13.7155
14.7453
16.9244
19.214
22.1933
25.2308
28.9427
32.7344
37.163
41.8133
46.9327
52.2069
58.2972
64.9214
72.541
80.1589
89.1523
97.4242
105.61
26.1166
26.4126
27.5662
29.4125
31.2683
33.4883
36.0051
38.709
41.8598
45.1852
48.9586
52.9771
57.4012
62.184
67.1265
72.5551
77.8157
83.8574
89.8912
96.8515
30.8286
31.2552
32.6055
34.3197
36.6032
39.0025
41.7451
44.705
47.8917
51.3165
54.9286
58.782
62.7765
67.0511
71.3782
76.0319
80.4734
85.416
88.8031
93.2205
37.6914
37.8512
39.1496
41.3575
43.2692
45.6053
47.9025
50.3065
52.9233
55.5292
58.4052
61.2438
64.3086
67.3567
70.5245
73.6806
76.823
80.2004
83.349
86.6419
41.2161
41.7809
43.1619
45.2563
47.4741
49.6611
52.0771
54.42
56.9948
59.4762
62.1406
64.761
67.4528
70.1819
72.7903
75.5615
78.4399
80.9873
82.7144
84.9782
44.9696
45.6914
47.4544
49.6157
51.9729
53.963
56.2789
58.1771
60.4253
62.3175
64.5159
66.4232
68.5718
70.4839
72.5523
74.4415
75.9256
77.7273
79.5183
81.2288
47.8792
48.5862
51.0978
53.2074
55.9109
57.7859
60.1005
61.8412
63.9153
65.6095
67.5095
69.1756
70.9399
72.5421
74.1737
75.8914
77.4767
78.8411
79.859
80.9651
52.5829
53.1112
56.3193
58.0174
60.8135
62.3378
64.3858
65.7117
67.4092
68.6417
70.1455
71.3318
72.7041
73.8747
75.1225
76.0442
76.9091
77.7689
78.6429
79.6767
59.8912
58.5579
63.5888
64.5534
66.6061
67.6166
69.086
69.996
71.2186
72.0916
73.1499
73.9891
74.9543
75.7412
76.6288
77.4328
78.3226
79.0404
79.6297
80.0338
74.3343
72.366
72.7927
72.3212
73.5821
73.7761
74.4222
74.7525
75.2861
75.6696
76.2405
76.6553
77.2473
77.6936
78.2871
78.6464
79.0961
79.4031
79.7701
80.1058
85.741
83.9799
81.3347
81.3402
80.1926
79.9578
79.4234
79.2638
79.1166
79.0694
79.1544
79.1835
79.3807
79.5144
79.7576
79.9419
80.2337
80.4395
80.7509
80.8928
93.3424
92.8341
89.5214
87.4948
86.1222
84.5445
83.8708
82.8155
82.5176
81.8777
81.8208
81.4744
81.4737
81.2916
81.3604
81.315
81.4059
81.4088
81.5008
81.5184
101.239
96.5328
93.7316
91.091
89.5141
87.9695
86.9827
85.8925
85.2144
84.4544
83.9399
83.4683
83.1829
82.8738
82.7003
82.4911
82.4133
82.2917
82.2873
82.2214
105.287