/*--------------------------------*- C++ -*----------------------------------*\
  =========                 |
  \\      /  F ield         | OpenFOAM: The Open Source CFD Toolbox
   \\    /   O peration     | Website:  https://openfoam.org
    \\  /    A nd           | Version:  9
     \\/     M anipulation  |
\*---------------------------------------------------------------------------*/
FoamFile
{
    format      ascii;
    class       volScalarField;
    location    "9.2";
    object      p;
}
// * * * * * * * * * * * * * * * * * * * * * * * * * * * * * * * * * * * * * //

dimensions      [0 2 -2 0 0 0 0];

internalField   nonuniform List<scalar> 
46400
(
-79.7381
-71.6271
-54.6913
-40.4807
-27.2012
-15.23
-4.32312
5.69558
14.8447
23.3061
31.0469
38.2148
44.855
51.0688
56.9362
62.5304
67.7488
72.9416
78.696
81.532
-50.774
-42.8831
-26.9204
-13.4094
-1.08023
10.1361
20.2542
29.5201
37.9044
45.6095
52.6148
59.0538
64.9549
70.3593
75.3397
79.9617
84.1793
88.2239
92.2158
93.7739
-21.3592
-12.8244
1.89347
14.1311
25.2954
35.4074
44.49
52.7988
60.3204
67.2229
73.4857
79.2012
84.4249
89.2163
93.61
97.6453
101.253
104.676
107.852
108.519
9.19123
17.439
30.5702
41.7881
51.7415
60.9319
69.0907
76.5423
83.1902
89.247
94.6864
99.619
104.064
108.061
111.673
114.958
117.868
120.6
123.208
123.469
39.631
47.0277
58.7007
68.7815
77.6938
85.8061
93.0171
99.5595
105.422
110.731
115.492
119.752
123.587
127.017
130.083
132.818
135.198
137.409
139.518
139.361
69.8344
75.9303
86.215
95.3247
103.139
110.358
116.644
122.329
127.311
131.793
135.764
139.305
142.444
145.207
147.654
149.815
151.665
153.378
155.048
154.677
97.8109
102.944
112.543
120.756
127.799
134.094
139.57
144.441
148.702
152.464
155.765
158.633
161.16
163.351
165.253
166.898
168.26
169.501
170.758
170.127
124.489
129.62
138.407
145.719
151.743
157.172
161.714
165.723
169.127
172.084
174.64
176.82
178.691
180.251
181.578
182.675
183.55
184.323
185.116
184.285
150.701
156.415
163.882
170.171
175.212
179.651
183.338
186.486
189.134
191.336
193.189
194.687
195.926
196.9
197.651
198.201
198.543
198.814
199.089
197.966
176.391
182.556
188.102
193.323
197.268
200.73
203.524
205.812
207.668
209.105
210.256
211.097
211.716
212.108
212.341
212.4
212.303
212.137
211.985
210.647
201.471
207.424
211.642
215.462
218.494
220.899
222.861
224.326
225.461
226.213
226.696
226.897
226.899
226.697
226.348
225.854
225.23
224.562
223.899
222.261
224.847
229.343
232.599
235.236
237.355
238.917
240.111
240.87
241.353
241.493
241.429
241.103
240.609
239.926
239.125
238.188
237.14
236.055
234.963
233.04
246.01
249.324
251.778
253.504
254.822
255.611
256.084
256.179
256.04
255.633
255.024
254.214
253.23
252.087
250.815
249.43
247.931
246.406
244.861
242.597
263.557
266.179
267.98
269.034
269.8
269.98
269.927
269.463
268.807
267.883
266.845
265.621
264.306
262.836
261.292
259.625
257.873
256.078
254.331
251.804
279.423
281.347
282.518
282.964
283.117
282.8
282.199
281.302
280.178
278.821
277.3
275.644
273.891
272.054
270.15
268.198
266.178
264.158
262.226
259.63
292.623
293.906
294.636
294.524
294.26
293.433
292.474
291.124
289.692
287.99
286.206
284.234
282.208
280.065
277.893
275.657
273.39
271.116
268.954
266.235
303.929
304.505
304.776
304.216
303.527
302.384
301.021
299.378
297.537
295.545
293.406
291.169
288.84
286.449
284.006
281.535
279.026
276.532
274.166
271.282
313.027
312.894
312.681
311.754
310.643
309.161
307.52
305.625
303.57
301.363
299.032
296.612
294.105
291.555
288.951
286.336
283.675
281.041
278.534
275.589
318.893
318.802
318.253
317.174
315.802
314.097
312.173
310.045
307.761
305.33
302.806
300.178
297.503
294.759
292.008
289.224
286.44
283.657
281.032
278
322.258
322.374
321.787
320.606
319.107
317.255
315.181
312.915
310.488
307.943
305.292
302.563
299.776
296.938
294.075
291.2
288.308
285.441
282.723
279.598
-197.647
-197.344
-197.521
-198.43
-195.09
-190.686
-185.537
-180.551
-175.276
-169.913
-164.719
-159.546
-154.647
-149.652
-144.923
-140.108
-135.559
-131.007
-126.576
-122.42
-200.999
-201.039
-200.528
-200.415
-196.584
-191.442
-186.182
-180.428
-174.722
-168.948
-163.349
-157.856
-152.505
-147.158
-142.11
-136.975
-132.176
-127.356
-122.748
-118.369
-207.119
-206.815
-206.978
-204.391
-199.725
-193.608
-187.104
-180.861
-174.502
-168.331
-162.267
-156.276
-150.543
-144.819
-139.41
-133.949
-128.882
-123.75
-118.941
-114.324
-215.728
-214.824
-214.935
-209.85
-203.484
-196.743
-189.393
-182.24
-175.169
-168.296
-161.593
-155.113
-148.827
-142.663
-136.838
-130.999
-125.61
-120.159
-115.143
-110.273
-227.854
-227.125
-225.375
-218.442
-209.711
-200.892
-192.413
-184.045
-176.036
-168.333
-160.917
-153.74
-146.909
-140.243
-133.966
-127.753
-122.051
-116.278
-111.051
-105.908
-242.829
-242.013
-236.661
-227.044
-216.14
-205.464
-195.581
-185.986
-176.869
-168.274
-160.036
-152.24
-144.779
-137.628
-130.895
-124.293
-118.238
-112.151
-106.719
-101.319
-257.993
-257.223
-247.813
-235.169
-221.86
-209.339
-197.717
-186.953
-176.782
-167.265
-158.312
-149.814
-141.817
-134.163
-126.992
-120.038
-113.695
-107.332
-101.718
-96.0563
-267.903
-267.7
-255.12
-239.852
-224.895
-211.081
-198.224
-186.403
-175.369
-165.111
-155.45
-146.434
-137.912
-129.881
-122.35
-115.106
-108.489
-101.887
-96.1037
-90.2278
-275.762
-272.611
-258.242
-241.276
-225.132
-210.218
-196.493
-183.838
-172.085
-161.212
-151.073
-141.568
-132.692
-124.302
-116.466
-109.012
-102.227
-95.4361
-89.6518
-83.5472
-277.042
-272.244
-257.385
-239.235
-222.208
-206.528
-192.203
-179.036
-166.788
-155.502
-144.965
-135.175
-126
-117.437
-109.435
-101.885
-94.9549
-88.1328
-82.399
-76.279
-273.467
-269.202
-251.496
-233.314
-216.223
-200.157
-185.408
-171.884
-159.3
-147.714
-136.961
-126.937
-117.627
-108.896
-100.771
-93.1564
-86.1844
-79.3921
-73.6943
-67.5815
-267.223
-263.153
-245.96
-225.632
-207.948
-191.548
-176.34
-162.616
-149.803
-138.043
-127.131
-116.998
-107.565
-98.7954
-90.6165
-82.9865
-75.9541
-69.1457
-63.4636
-57.1579
-258.401
-252.694
-233.731
-213.929
-195.835
-179.642
-164.467
-150.671
-137.889
-126.104
-115.211
-105.092
-95.7051
-86.9208
-78.7417
-71.1095
-64.0264
-57.2124
-51.4429
-44.9113
-243.941
-237.703
-219.444
-200.176
-182.033
-165.882
-150.765
-136.984
-124.248
-112.551
-101.744
-91.7206
-82.4369
-73.8245
-65.8075
-58.3842
-51.4903
-44.9086
-39.3783
-32.8939
-227.972
-220.797
-202.315
-183.334
-165.31
-149.215
-134.351
-120.795
-108.302
-96.8199
-86.2475
-76.4591
-67.4056
-58.9725
-51.1415
-43.8861
-37.1376
-30.796
-25.4166
-19.075
-208.055
-200.95
-182.052
-163.28
-145.992
-130.483
-116.039
-102.889
-90.7468
-79.5923
-69.3291
-59.8141
-51.0359
-42.8979
-35.3559
-28.4128
-21.9324
-15.8864
-10.7809
-4.49202
-185.875
-178.452
-159.361
-141.727
-124.866
-109.871
-95.9921
-83.281
-71.6005
-60.8436
-50.9712
-41.8486
-33.43
-25.6184
-18.3817
-11.7107
-5.49646
0.180048
5.03538
11.1325
-161.748
-154.222
-134.928
-117.923
-101.953
-87.5772
-74.306
-62.1769
-51.0072
-40.7351
-31.303
-22.5661
-14.5141
-7.05482
-0.179951
6.15647
12.09
17.3851
21.9461
27.9533
-135.466
-127.628
-109.195
-93.0854
-77.9348
-64.3167
-51.7701
-40.2561
-29.6876
-19.9235
-10.9804
-2.70605
4.93416
12.0317
18.6192
24.752
30.477
35.4853
40.0547
46.5125
-108.459
-100.596
-82.6646
-67.2275
-52.8692
-39.9317
-28.0732
-17.2013
-7.23435
1.97462
10.4396
18.315
25.6358
32.4721
38.8849
45.0106
50.7828
56.0572
61.8543
68.7158
-101.477
-77.1575
-52.2527
-37.7695
-21.0371
-11.7793
-1.28835
5.65109
12.2101
17.6122
21.9324
26.2054
29.3088
32.6998
35.2329
37.9441
40.4485
42.1953
43.9682
43.5062
-96.6365
-73.0843
-48.1492
-34.5448
-18.0345
-9.12667
1.12044
7.8077
14.11
19.3417
23.458
27.582
30.5185
33.7806
36.1557
38.7585
41.0817
42.7883
44.4351
43.9731
-91.8205
-69.6203
-43.9628
-30.9931
-14.7764
-6.37593
3.5239
9.9731
15.997
21.0504
24.9587
28.9364
31.7121
34.8454
37.0693
39.5588
41.7589
43.4769
44.9174
44.4402
-86.8917
-65.0953
-40.0125
-27.763
-11.79
-3.68094
5.94461
12.1713
17.9133
22.8069
26.5039
30.3299
32.9395
35.9337
37.997
40.3733
42.3488
43.9869
45.3321
44.8772
-81.8175
-61.1143
-35.6053
-24.0902
-8.46556
-0.88072
8.35785
14.3756
19.8139
24.5382
28.0236
31.6985
34.1493
37.0066
38.9163
41.1799
43.0033
44.5839
45.7618
45.2973
-76.5905
-56.7804
-31.6495
-20.8899
-5.42389
1.90134
10.7815
16.6209
21.7509
26.3184
29.5912
33.1087
35.3968
38.1074
39.8548
42.0262
43.6512
45.0873
46.1597
45.6949
-70.9452
-52.2473
-27.0677
-17.0487
-2.14314
4.77275
13.2024
18.8625
23.6701
28.0717
31.1334
34.4929
36.6273
39.1913
40.7828
42.8342
44.2193
45.6167
46.5311
46.0783
-65.0633
-47.8185
-23.0726
-13.6402
0.919453
7.64845
15.6463
21.1502
25.633
29.8719
32.7257
35.9195
37.8981
40.3057
41.736
43.6829
44.8245
46.1545
46.885
46.4354
-58.6367
-42.6978
-18.4512
-9.6851
4.17195
10.5779
18.0814
23.4259
27.5768
31.6448
34.2936
37.3201
39.1531
41.404
42.6812
44.5007
45.3763
46.7011
47.2265
46.7838
-52.2263
-37.7278
-14.3212
-6.06721
7.29297
13.5411
20.5553
25.7506
29.5703
33.4606
35.9118
38.7631
40.4499
42.5349
43.6557
45.3501
45.9638
47.2528
47.5492
47.1025
-44.9144
-32.2874
-9.6565
-2.01944
10.5328
16.5258
23.0159
28.0568
31.5459
35.2498
37.5073
40.1808
41.7328
43.6513
44.6259
46.1784
46.5081
47.7557
47.858
47.4073
-35.1198
-26.6416
-4.92136
1.87092
13.7217
19.5622
25.5256
30.4109
33.5732
37.0768
39.1506
41.6393
43.0571
44.8019
45.6297
47.0447
47.0888
48.268
48.1371
47.6862
-25.2311
-20.3458
0.54547
6.03351
16.9708
22.5969
28.0235
32.7431
35.5864
38.8787
40.773
43.0742
44.3691
45.9405
46.6329
47.8936
47.6247
48.7623
48.3947
47.9497
-16.2364
-14.1484
5.83471
10.0577
20.1941
25.69
30.5791
35.1232
37.6535
40.7155
42.4403
44.5488
45.7215
47.116
47.6758
48.7896
48.1898
49.2745
48.6174
48.1918
-6.03228
-7.60137
11.4142
14.3445
23.4013
28.7454
33.1157
37.4735
39.7069
42.525
44.0849
45.9981
47.0592
48.2787
48.7234
49.6699
48.7199
49.7793
48.8191
48.4043
5.14046
-0.344809
16.0179
18.495
26.5773
31.8328
35.6978
39.8542
41.7983
44.3545
45.7584
47.4765
48.4254
49.4722
49.8122
50.5934
49.2903
50.2717
48.98
48.5915
16.9981
6.98671
20.9513
23.0376
29.9173
34.9968
38.357
42.274
43.9296
46.2111
47.4485
48.9727
49.8056
50.6943
50.9392
51.5468
49.8648
50.8166
49.1563
48.7701
28.8717
13.7627
25.029
27.0371
32.9939
38.0415
41.0165
44.7186
46.1182
48.084
49.1717
50.483
51.2145
51.9245
52.1187
52.5451
50.4045
51.6461
49.4718
48.9775
46.0786
21.6902
28.8197
30.2109
35.2833
40.3906
43.1945
46.7585
48.0006
49.6169
50.6111
51.7017
52.395
52.8874
53.1383
53.3165
50.762
51.8315
49.3709
49.0452
66.3
36.3052
37.109
36.9264
39.9625
44.2925
46.2469
49.3837
50.2265
51.686
52.4081
53.4679
53.9052
54.4668
54.4623
54.6571
51.9964
52.1606
48.3652
50.081
93.5249
102.651
91.8659
90.2362
81.1608
79.0164
73.9881
73.451
70.8186
71.1107
68.9825
69.5039
67.506
68.5186
65.9844
67.6264
64.0927
66.3875
56.2903
70.8777
146.275
138.796
119.786
113.787
102.938
98.7205
91.6974
87.8163
83.2536
80.8065
78.0623
76.7836
74.7436
74.1762
72.2075
72.3643
69.844
71.0843
68.0597
71.0078
147.444
140.825
129.213
123.515
115.585
111.27
106.093
102.899
99.1976
96.5747
93.7185
91.9298
89.9146
88.5672
87.0221
86.0185
84.9075
84.1117
83.8424
84.1551
149.388
145.611
136.851
132.067
125.012
120.4
115.076
111.144
107.152
104.053
100.847
98.1239
95.5944
93.6393
91.8372
90.4704
89.3135
88.4703
88.0281
87.8391
142.58
137.801
132.906
129.249
125.001
121.633
118.023
115.132
112.066
109.693
107.166
105.24
103.021
101.373
99.5577
98.0631
96.5786
95.1364
94.1038
93.9274
140.76
138.666
135.016
132.334
128.373
125.74
122.249
119.625
116.608
114.189
111.57
109.375
107.144
105.082
103.202
101.358
99.88
98.226
97.3277
96.974
134.617
132.627
130.423
128.651
126.631
124.548
122.497
120.512
118.469
116.622
114.633
112.91
110.974
109.34
107.426
105.724
103.904
101.991
100.847
100.06
134.129
133.206
131.521
129.944
127.94
126.614
124.603
123.103
121.11
119.55
117.567
115.984
113.996
112.369
110.323
108.613
106.452
104.532
102.71
101.957
130.237
129.604
128.866
128.443
127.428
126.302
125.131
123.983
122.672
121.504
120.059
118.845
117.219
115.913
114.001
112.492
110.103
108.332
105.839
105.099
130.518
130.394
129.499
128.855
128.043
127.482
126.486
125.779
124.657
123.831
122.583
121.649
120.216
119.184
117.445
116.275
113.786
112.536
109.318
108.848
129.428
129.571
129.403
129.337
128.907
128.519
127.986
127.551
126.936
126.458
125.754
125.227
124.373
123.745
122.582
121.844
119.994
119.464
115.042
116.126
130.174
130.059
129.847
129.716
129.409
129.408
129.086
129.011
128.653
128.521
128.165
128.027
127.708
127.607
127.228
127.212
126.599
126.919
126.981
128.656
130.536
130.94
130.948
131.216
131.122
131.235
131.246
131.376
131.432
131.62
131.749
131.997
132.294
132.567
133.285
133.468
134.871
134.805
137.446
138.425
130.831
131.138
131.276
131.569
131.551
131.727
131.94
132.282
132.492
133.089
133.352
134.175
134.559
135.668
136.252
137.767
138.908
140.821
143.725
144.477
131.756
132.138
132.404
132.789
133.201
133.702
134.065
134.537
135.02
135.554
136.155
136.941
137.763
138.784
139.988
141.585
143.094
145.455
147.361
151.03
132.214
132.6
132.862
133.263
133.575
134.092
134.532
135.116
135.615
136.304
136.856
137.783
138.378
139.633
140.317
141.916
142.823
145.053
146.034
157.026
132.8
133.256
133.653
134.172
134.596
135.208
135.594
136.211
136.708
137.456
138.078
139.027
139.733
140.901
141.651
143.234
143.826
146.145
146.792
149.703
133.116
133.506
133.86
134.371
134.785
135.364
135.849
136.508
137.056
137.778
138.356
139.165
139.757
140.789
141.377
142.658
143.219
145.286
144.769
152.789
133.585
134.033
134.388
134.823
135.243
135.756
136.243
136.819
137.366
138.018
138.634
139.376
140.035
140.864
141.486
142.403
142.872
143.789
144.012
145.324
133.565
133.952
134.364
134.828
135.293
135.815
136.331
136.917
137.481
138.128
138.733
139.44
140.067
140.838
141.445
142.273
142.786
143.668
143.952
150.152
242.386
242.186
241.275
239.791
237.614
234.818
231.303
227.164
222.2
216.773
210.601
202.78
194.757
185.973
176.245
165.819
155.362
144.558
133.475
122.519
213.96
214.146
214.022
213.58
212.86
211.89
210.46
209.068
207.014
205.023
202.836
198.838
194.28
190.999
187.559
184.06
180.446
176.438
171.499
165.961
176.167
176.49
176.569
176.67
176.506
176.319
175.943
175.504
174.898
174.199
173.091
172.195
170.973
169.742
168.167
167.023
164.639
162.204
158.963
156.87
164.385
164.726
165.055
165.259
165.43
165.503
165.499
165.373
165.161
164.947
164.632
164.239
163.707
163.21
162.375
161.917
161.006
159.58
157.705
156.136
147.813
148.062
148.202
148.367
148.433
148.516
148.503
148.527
148.444
148.396
148.244
148.121
147.857
147.643
147.286
146.966
146.455
146.041
145.614
145.167
142.488
142.727
142.96
143.164
143.354
143.515
143.661
143.75
143.82
143.871
143.809
143.815
143.668
143.575
143.315
143.103
142.833
142.697
142.334
142.263
135.64
135.827
135.967
136.123
136.225
136.335
136.4
136.442
136.501
136.457
136.47
136.424
136.406
136.387
136.383
136.458
136.341
136.27
136.107
135.777
133.327
133.52
133.711
133.878
134.031
134.181
134.308
134.45
134.534
134.67
134.732
134.754
134.756
134.73
134.694
134.689
134.645
134.66
134.608
134.633
130.338
130.475
130.618
130.733
130.861
130.978
131.092
131.169
131.243
131.297
131.326
131.421
131.446
131.562
131.616
131.643
131.514
131.323
130.995
130.743
129.562
129.729
129.881
130.029
130.17
130.279
130.39
130.491
130.587
130.67
130.753
130.817
130.888
130.93
130.982
131.039
131.055
131.067
130.988
130.938
128.794
128.921
129.043
129.164
129.283
129.394
129.502
129.6
129.683
129.757
129.811
129.836
129.798
129.74
129.663
129.584
129.506
129.46
129.416
129.412
128.895
128.999
129.099
129.196
129.288
129.377
129.46
129.544
129.617
129.695
129.759
129.831
129.902
129.969
130.036
130.127
130.183
130.238
130.233
130.212
129.053
129.156
129.255
129.35
129.441
129.528
129.61
129.687
129.76
129.829
129.894
129.955
130.02
130.088
130.154
130.231
130.295
130.355
130.399
130.464
129.822
129.915
130.005
130.093
130.178
130.246
130.3
130.353
130.4
130.444
130.483
130.521
130.556
130.591
130.624
130.657
130.689
130.721
130.748
130.778
130.043
130.133
130.222
130.309
130.395
130.487
130.583
130.677
130.769
130.861
130.95
131.037
131.118
131.198
131.271
131.345
131.409
131.478
131.538
131.605
130.791
130.866
130.938
131.007
131.071
131.135
131.201
131.268
131.335
131.402
131.468
131.535
131.6
131.666
131.73
131.797
131.861
131.927
131.989
132.056
130.974
131.06
131.14
131.219
131.297
131.373
131.451
131.53
131.611
131.694
131.779
131.866
131.955
132.044
132.133
132.222
132.309
132.399
132.485
132.577
131.668
131.739
131.808
131.88
131.954
132.027
132.1
132.17
132.236
132.297
132.354
132.412
132.47
132.529
132.591
132.652
132.718
132.784
132.851
132.927
131.824
131.896
131.968
132.041
132.115
132.189
132.264
132.341
132.419
132.499
132.58
132.662
132.748
132.832
132.924
133.012
133.106
133.199
133.296
133.396
131.994
132.052
132.112
132.173
132.237
132.302
132.369
132.436
132.504
132.573
132.644
132.716
132.791
132.867
132.945
133.024
133.104
133.185
133.268
133.352
71.8334
71.3993
67.9512
64.6175
61.4921
58.1371
54.6182
50.9161
46.9209
42.6129
37.9484
32.8063
27.2357
20.9946
14.2909
6.62708
-1.39432
-10.9117
-20.9657
-27.3114
88.0992
88.249
85.9927
83.6012
81.2697
78.6958
75.9223
72.896
69.5685
65.9457
61.9206
57.4579
52.5414
46.9973
40.9521
33.974
26.5284
17.6138
8.23597
3.33201
104.818
105.783
104.364
102.611
100.885
98.8973
96.6808
94.2493
91.5238
88.5188
85.1383
81.37
77.1619
72.3923
67.1149
60.986
54.3528
46.2144
37.5212
32.2228
121.933
123.201
122.256
121.08
119.912
118.508
116.926
115.099
113.027
110.684
107.995
104.961
101.512
97.5538
93.1256
87.8972
82.1942
75.1559
67.3508
61.7752
138.642
140.182
139.71
139.034
138.357
137.494
136.424
135.187
133.704
132.002
129.982
127.685
124.98
121.885
118.312
114.111
109.473
103.567
97.2676
91.1451
155.295
157.02
156.881
156.649
156.426
156.011
155.47
154.741
153.833
152.714
151.343
149.721
147.763
145.475
142.776
139.591
135.99
131.421
126.945
120.472
171.353
173.137
173.175
173.321
173.454
173.45
173.329
173.098
172.716
172.167
171.393
170.418
169.136
167.611
165.666
163.403
160.587
157.321
153.677
148.293
186.017
187.933
188.367
188.924
189.491
189.951
190.328
190.599
190.728
190.702
190.487
190.097
189.464
188.58
187.356
185.778
183.816
181.377
178.403
174.394
200.068
202.079
202.856
203.734
204.652
205.474
206.229
206.898
207.458
207.914
208.222
208.392
208.295
208.012
207.341
206.466
205.069
203.363
200.998
197.734
212.359
214.625
215.855
217.18
218.531
219.809
221.023
222.171
223.214
224.165
224.951
225.581
225.956
226.147
226.034
225.673
224.855
223.714
221.93
219.336
224.297
226.707
228.248
229.851
231.486
233.046
234.562
236.017
237.397
238.683
239.829
240.845
241.668
242.356
242.736
242.893
242.569
241.99
240.707
238.765
234.62
237.212
239.11
241.072
243.067
245.021
246.942
248.828
250.639
252.381
253.982
255.481
256.76
257.892
258.633
259.199
259.259
259.198
258.351
256.956
244.418
247.209
249.392
251.634
253.892
256.107
258.271
260.383
262.403
264.33
266.129
267.79
269.274
270.577
271.649
272.562
273.144
273.537
273.172
272.394
252.581
255.442
257.867
260.338
262.836
265.289
267.727
270.112
272.454
274.717
276.907
278.988
280.948
282.764
284.385
285.835
286.918
287.773
287.93
287.762
260.497
263.521
266.096
268.755
271.433
274.084
276.702
279.291
281.806
284.265
286.609
288.863
290.942
292.873
294.545
295.987
297.052
297.916
298.197
298.345
266.391
269.467
272.187
274.987
277.788
280.574
283.331
286.072
288.762
291.418
293.999
296.511
298.9
301.146
303.185
304.949
306.418
307.459
308.077
308.121
271.754
274.884
277.732
280.659
283.599
286.514
289.421
292.288
295.121
297.883
300.569
303.142
305.571
307.825
309.838
311.617
313.076
314.141
314.937
314.987
275.736
278.85
281.581
284.469
287.384
290.304
293.211
296.127
298.986
301.827
304.563
307.236
309.767
312.165
314.39
316.383
318.192
319.612
320.757
321.209
278.384
281.569
284.36
287.32
290.296
293.28
296.24
299.209
302.104
304.992
307.726
310.433
312.91
315.328
317.426
319.442
320.959
322.494
323.278
324.085
279.38
282.531
285.314
288.248
291.199
294.139
297.073
299.988
302.869
305.709
308.481
311.166
313.735
316.15
318.398
320.336
322.037
323.253
324.046
324.515
-220.015
-226.381
-233.084
-240.146
-247.353
-254.995
-262.784
-270.99
-279.415
-288.244
-297.349
-306.899
-316.798
-327.129
-337.943
-349.079
-360.478
-369.283
-373.379
-374.674
-212.31
-218.742
-225.42
-232.576
-239.834
-247.607
-255.539
-263.92
-272.559
-281.625
-291.089
-300.91
-311.239
-322.123
-333.331
-345.466
-357.765
-367.939
-375.583
-377.102
-204.226
-210.673
-217.317
-224.507
-231.817
-239.647
-247.695
-256.207
-265.03
-274.315
-284.008
-294.187
-304.942
-316.231
-328.114
-340.894
-354.156
-365.815
-375.622
-377.736
-195.465
-201.955
-208.549
-215.784
-223.128
-231.049
-239.201
-247.839
-256.836
-266.326
-276.279
-286.73
-297.776
-309.371
-321.797
-334.948
-348.365
-361.388
-373.748
-375.228
-185.962
-192.49
-199.05
-206.295
-213.652
-221.588
-229.811
-238.533
-247.65
-257.294
-267.474
-278.21
-289.644
-301.77
-314.834
-328.576
-343.203
-358.996
-369.974
-370.932
-175.924
-182.521
-188.916
-196.119
-203.419
-211.33
-219.55
-228.285
-237.466
-247.201
-257.468
-268.348
-279.93
-292.26
-305.511
-319.68
-335.129
-351.085
-364.263
-366.79
-165.233
-171.658
-177.867
-184.978
-192.198
-200.029
-208.212
-216.966
-226.128
-235.873
-246.218
-257.164
-268.907
-281.387
-294.816
-309.241
-324.531
-340.967
-354.445
-357.197
-153.368
-159.761
-165.829
-172.812
-179.94
-187.65
-195.745
-204.369
-213.488
-223.205
-233.494
-244.485
-256.249
-268.793
-282.433
-297.029
-312.92
-329.951
-344.688
-348.678
-140.826
-147.133
-152.974
-159.765
-166.729
-174.26
-182.212
-190.678
-199.642
-209.217
-219.404
-230.246
-241.914
-254.354
-267.896
-282.367
-298.029
-314.909
-330.321
-334.817
-127.089
-133.304
-138.956
-145.547
-152.34
-159.657
-167.403
-175.667
-184.444
-193.839
-203.818
-214.544
-226.049
-238.366
-251.854
-266.183
-281.914
-298.965
-314.818
-320.096
-112.817
-118.897
-124.258
-130.55
-137.075
-144.093
-151.559
-159.53
-168.008
-177.117
-186.813
-197.228
-208.434
-220.455
-233.656
-247.591
-263.167
-279.725
-295.994
-301.8
-97.3849
-103.261
-108.369
-114.362
-120.622
-127.334
-134.5
-142.166
-150.339
-159.119
-168.476
-178.591
-189.436
-201.163
-213.952
-227.559
-242.77
-259.015
-275.192
-281.475
-81.5746
-87.2452
-91.9859
-97.581
-103.474
-109.777
-116.538
-123.779
-131.515
-139.88
-148.791
-158.459
-168.85
-180.093
-192.454
-205.521
-220.377
-235.916
-252.351
-258.927
-64.4973
-69.9077
-74.3249
-79.5329
-85.0691
-90.9791
-97.3525
-104.199
-111.539
-119.456
-127.939
-137.162
-147.042
-157.866
-169.585
-182.162
-196.457
-211.019
-227.537
-234.423
-47.2254
-52.3842
-56.4045
-61.1394
-66.2425
-71.6781
-77.5667
-83.9057
-90.7167
-98.128
-106.046
-114.709
-124.014
-134.205
-145.296
-157.263
-170.812
-184.564
-201.406
-208.532
-28.807
-33.6198
-37.2355
-41.4929
-46.1661
-51.1426
-56.5799
-62.4587
-68.8111
-75.6961
-83.1242
-91.2458
-99.9616
-109.606
-119.971
-131.324
-143.989
-156.85
-173.356
-180.977
-10.1215
-14.6628
-17.8555
-21.5949
-25.8199
-30.3208
-35.2551
-40.613
-46.4206
-52.7796
-59.6123
-67.1424
-75.244
-84.2233
-93.8968
-104.604
-116.358
-128.836
-144.342
-151.839
9.35887
5.20993
2.48376
-0.668043
-4.44604
-8.49424
-12.9678
-17.8593
-23.2006
-29.0122
-35.3308
-42.2714
-49.7566
-58.0951
-67.0393
-77.0328
-87.9608
-99.6019
-114.226
-121.675
30.2411
25.933
23.4548
20.6858
17.2653
13.5356
9.46597
5.02489
0.167677
-5.14804
-10.8922
-17.2427
-24.0932
-31.7471
-39.9255
-49.193
-59.0518
-70.1069
-83.3409
-90.7254
54.3849
50.2011
46.7751
43.6729
40.3175
36.6493
32.7577
28.5851
24.0621
19.1986
13.9146
8.12708
1.86758
-5.09249
-12.5548
-21.0132
-29.9723
-40.1732
-51.877
-59.4309
15.7158
14.9523
14.0774
13.2
10.6108
8.22283
5.00932
0.839379
-3.67827
-8.94404
-16.0637
-23.4248
-33.7238
-44.1186
-59.55
-73.9316
-97.4868
-118.362
-153.692
-188.551
15.8445
15.1994
14.3415
13.3696
11.0164
8.55804
5.65849
1.54731
-2.90348
-8.04756
-14.9408
-22.1142
-32.1198
-42.2236
-57.1707
-71.0155
-93.933
-113.69
-148.376
-181.132
15.9942
15.4015
14.6728
13.5428
11.4541
8.92495
6.26735
2.25944
-2.08951
-7.11405
-13.7785
-20.8729
-30.4917
-40.3457
-54.8038
-68.0981
-90.251
-109.014
-142.783
-173.483
16.1313
15.658
14.9856
13.7079
11.9172
9.35327
6.87064
3.0078
-1.22767
-6.09928
-12.5218
-19.4439
-28.7236
-38.2888
-52.1947
-64.9982
-86.2826
-104.031
-136.948
-165.346
16.2824
15.9139
15.3165
13.8817
12.3831
9.78915
7.41432
3.78731
-0.311455
-5.05666
-11.2706
-18.0488
-26.9792
-36.2177
-49.6607
-61.7772
-82.3076
-98.9804
-130.812
-156.71
16.4439
16.1814
15.6637
14.0942
12.8764
10.1238
7.9874
4.58845
0.633713
-3.93469
-9.92476
-16.4847
-25.1028
-33.9756
-46.9099
-58.4407
-78.1703
-93.642
-124.323
-147.447
16.6069
16.5207
16.0993
14.3492
13.5604
10.5274
8.75373
5.42691
1.65498
-2.78661
-8.60005
-14.9279
-23.2299
-31.7149
-44.1833
-54.9501
-73.9092
-88.1953
-117.521
-137.864
16.7678
16.7553
16.4961
14.711
14.3016
11.1601
9.61961
6.28263
2.72588
-1.57038
-7.16722
-13.2329
-21.2183
-29.3349
-41.2386
-51.3995
-69.4965
-82.5312
-110.344
-127.838
16.9394
16.9911
16.8945
15.1122
15.0079
11.8072
10.4609
7.21465
3.81665
-0.316344
-5.75754
-11.5245
-19.1728
-26.9468
-38.2229
-47.76
-64.9049
-76.7433
-102.833
-117.264
17.1065
17.2381
17.2641
15.4705
15.7323
12.4769
11.3468
8.16607
4.94734
1.01158
-4.23741
-9.71537
-17.0121
-24.4505
-35.0761
-44.0408
-60.211
-70.7735
-94.9763
-106.021
17.2883
17.4656
17.6353
15.8219
16.3665
13.2686
12.2978
9.18131
6.14866
2.33933
-2.68319
-7.90012
-14.8029
-21.9518
-31.8504
-40.2272
-55.3253
-64.6606
-86.7833
-94.218
17.4924
17.6589
17.9983
16.1805
17.0161
14.1049
13.2883
10.2074
7.38733
3.73746
-1.02834
-6.02432
-12.5075
-19.3581
-28.516
-36.3448
-50.334
-58.4226
-78.3467
-82.3694
17.6913
17.8162
18.3561
16.5686
17.7259
14.9439
14.3178
11.291
8.69415
5.13084
0.677859
-4.13986
-10.1664
-16.7501
-25.1143
-32.3656
-45.1902
-52.0293
-69.5535
-69.4267
17.8633
17.9872
18.7414
16.956
18.4698
15.7687
15.375
12.4246
10.0313
6.58186
2.45639
-2.20792
-7.76518
-14.0446
-21.5894
-28.3284
-39.9247
-45.5326
-60.5937
-56.348
18.0738
18.1558
19.1676
17.3453
19.2687
16.6685
16.4481
13.643
11.4268
8.04211
4.25341
-0.233966
-5.31782
-11.3156
-18.0188
-24.2465
-34.5909
-38.9368
-51.337
-42.311
18.2559
18.2892
19.5197
17.7578
20.1012
17.6041
17.5466
14.8685
12.8174
9.53812
6.10245
1.75932
-2.85158
-8.52834
-14.365
-20.1562
-29.1776
-32.1527
-41.7832
-27.8149
18.4382
18.3666
19.9172
18.2168
20.9974
18.6238
18.72
16.1741
14.2951
11.0927
8.01075
3.84951
-0.256419
-5.59864
-10.5236
-15.8476
-23.5105
-25.0554
-31.7171
-12.7966
18.8722
18.4519
20.7871
18.6645
21.9348
19.7535
19.9388
17.5081
15.7618
12.6911
9.98015
5.96618
2.34941
-2.64544
-6.68682
-11.6655
-18.0671
-18.3289
-22.9216
1.49562
18.5854
18.257
20.8526
19.0302
22.6487
20.7109
21.0016
18.6958
17.0455
14.0767
11.6481
7.73936
4.52966
-0.181067
-3.60209
-8.41694
-13.6777
-11.751
-12.4409
20.1008
19.408
17.284
20.7889
20.0627
23.915
22.0046
22.3973
20.1716
18.6559
15.9074
13.9106
10.2641
7.68419
3.65233
1.41069
-2.70005
-5.69631
-1.92833
5.42797
42.4329
42.7726
22.2951
36.8171
32.4792
35.1971
33.2541
34.1313
32.5914
33.5102
31.6917
32.9228
31.987
35.0219
34.3441
40.5742
41.6183
55.0263
55.5767
83.5341
84.2847
40.8833
38.0253
40.1996
38.6364
40.4288
39.9366
41.2513
41.5457
43.2335
44.3105
46.9252
48.3655
52.2748
55.2727
62.6106
67.5385
81.3883
89.2024
112.871
123.976
54.2893
53.7031
54.416
54.8333
55.8728
56.5026
57.8907
59.0604
61.0296
62.6223
65.425
68.2668
72.836
77.3355
84.2168
90.9578
100.683
109.76
123.419
134.997
58.6491
58.6745
59.1664
60.0336
61.1431
62.7848
64.5476
66.6479
69.1319
72.0207
75.6042
79.1428
83.7414
88.4736
94.4651
100.782
108.905
117.218
127.16
136.678
66.5575
66.6136
67.5871
69.1046
71.1058
72.8865
75.0828
77.2806
79.7753
82.5867
85.563
89.0748
92.9261
97.209
101.922
107.243
112.752
119.005
125.274
132.49
72.0544
72.5824
73.3379
75.1924
76.6502
78.9159
80.9716
83.3419
85.9855
88.6374
91.7989
94.9903
98.5394
102.461
106.545
111.076
115.603
120.701
125.176
129.999
77.8112
78.2831
79.6844
81.522
83.6962
85.694
87.97
90.1833
92.531
95.0958
97.7359
100.521
103.462
106.494
109.63
113.028
116.319
119.916
123.246
127.009
82.7265
83.2716
84.9615
86.8912
89.0459
90.9701
93.249
95.1653
97.608
99.6235
102.049
104.374
106.884
109.53
112.238
115.149
118.122
120.822
123.124
125.73
87.6394
88.1884
90.5435
92.2051
94.7924
96.4484
98.7154
100.393
102.509
104.315
106.449
108.406
110.526
112.453
114.454
116.384
118.297
120.588
122.595
124.63
93.5505
93.8787
96.809
98.0446
100.67
101.975
104.062
105.384
107.272
108.622
110.338
111.736
113.361
114.972
116.716
118.394
120.027
121.55
122.98
124.369
100.99
100.317
104.278
105.278
107.179
108.224
109.658
110.648
111.956
112.974
114.288
115.395
116.746
117.939
119.147
120.299
121.409
122.472
123.587
124.644
114.543
112.521
113.823
112.921
114.468
114.455
115.468
115.737
116.652
117.112
118.019
118.608
119.531
120.227
121.201
121.974
122.865
123.688
124.612
125.387
127.575
125.44
123.248
122.856
121.882
121.647
121.268
121.231
121.257
121.406
121.702
122.012
122.49
122.925
123.489
123.993
124.613
125.147
125.775
126.264
134.031
133.328
129.947
128.809
127.366
126.306
125.764
125.098
124.973
124.636
124.747
124.662
124.931
125.039
125.413
125.663
126.098
126.434
126.914
127.28
141.356
138.536
136.3
133.171
132.115
130.45
129.766
128.628
128.205
127.61
127.453
127.148
127.17
127.087
127.232
127.303
127.536
127.706
128.001
128.221
149.118
137.47
136.603
135.026
133.978
132.473
131.726
130.769
130.302
129.592
129.311
128.91
128.801
128.61
128.631
128.601
128.724
128.811
129.011
129.17
141.562
138.707
138.028
136.069
135.329
133.956
133.31
132.282
131.835
131.098
130.775
130.254
130.078
129.819
129.748
129.632
129.652
129.648
129.743
129.831
141.451
138.316
137.936
136.221
135.661
134.429
133.923
133.025
132.577
131.956
131.618
131.232
130.969
130.688
130.558
130.429
130.417
130.43
130.504
130.536
137.95
137.377
136.841
136.029
135.513
134.772
134.235
133.569
133.094
132.56
132.187
131.783
131.537
131.254
131.087
130.906
130.812
130.725
130.745
130.81
139.706
136.685
136.491
135.795
135.352