/*--------------------------------*- C++ -*----------------------------------*\
  =========                 |
  \\      /  F ield         | OpenFOAM: The Open Source CFD Toolbox
   \\    /   O peration     | Website:  https://openfoam.org
    \\  /    A nd           | Version:  9
     \\/     M anipulation  |
\*---------------------------------------------------------------------------*/
FoamFile
{
    format      ascii;
    class       volScalarField;
    location    "5.9";
    object      nut;
}
// * * * * * * * * * * * * * * * * * * * * * * * * * * * * * * * * * * * * * //

dimensions      [0 2 -1 0 0 0 0];

internalField   nonuniform List<scalar> 
46400
(
0.0161999
0.00344738
0.00111773
0.00133497
0.00122822
0.00125754
0.00118035
0.0011496
0.00109826
0.00106444
0.00102767
0.00098808
0.000960038
0.00094161
0.000923742
0.000925364
0.000921632
0.000808209
0.00108334
0.000915089
0.0156803
0.00371241
0.00121291
0.00142997
0.00130041
0.00129048
0.00121375
0.001189
0.00114347
0.00110704
0.00106485
0.00102132
0.000991629
0.000965129
0.000923511
0.000889201
0.000879268
0.000823754
0.00101125
0.00090741
0.015075
0.00472696
0.00126801
0.00141259
0.00130226
0.00131408
0.00123763
0.00119842
0.00114823
0.00110627
0.00106881
0.00101934
0.000980341
0.000956774
0.000946473
0.000901652
0.000842166
0.000798122
0.00104032
0.000905186
0.0145656
0.00433255
0.00135712
0.00150872
0.00137517
0.00134837
0.00127791
0.00122802
0.00118907
0.00113577
0.00109988
0.00105284
0.000998765
0.000958306
0.000951882
0.000963234
0.000906148
0.000789106
0.00103793
0.000959053
0.0137251
0.00395192
0.00137449
0.00145106
0.00134204
0.00133038
0.00128134
0.00123818
0.00120108
0.00115428
0.00111878
0.00109746
0.00105252
0.000961951
0.000908177
0.000887999
0.000894493
0.000804783
0.00100731
0.000973358
0.0121662
0.00313619
0.00139066
0.00147554
0.00138317
0.00133208
0.00128629
0.0012203
0.00120418
0.00114752
0.00109955
0.0010762
0.00111525
0.00110284
0.00102279
0.00095985
0.000911084
0.00082427
0.000987135
0.000940224
0.00945943
0.00233082
0.00144927
0.00137023
0.00132206
0.00126046
0.00125234
0.00118111
0.00115732
0.00114465
0.00107989
0.000995683
0.000966798
0.000986966
0.00100659
0.000985759
0.000965488
0.000886821
0.00103039
0.000991425
0.00782448
0.00205961
0.00148928
0.0014171
0.00137567
0.00129606
0.00126857
0.00120439
0.00114996
0.00113797
0.0011725
0.00110446
0.00102417
0.000949531
0.000929471
0.00091375
0.000889089
0.000841153
0.000956221
0.000941652
0.00612057
0.00178295
0.00150674
0.00138542
0.00134105
0.00125532
0.00126266
0.00120787
0.0011234
0.00102953
0.00102758
0.00105206
0.00104568
0.00101766
0.000973301
0.0009497
0.00092001
0.000862433
0.000970862
0.000965181
0.00505502
0.00165405
0.00154189
0.00144925
0.00143398
0.00130242
0.00128112
0.00131571
0.00129331
0.00119583
0.00108614
0.00102886
0.000997472
0.000958599
0.000933022
0.000901554
0.000876266
0.000827646
0.000901619
0.000907135
0.00394558
0.00143376
0.0014699
0.00141743
0.00142423
0.00132189
0.00116435
0.0011023
0.00119619
0.00118984
0.00119169
0.00113469
0.00111165
0.00108134
0.00104557
0.0010167
0.000971142
0.000908717
0.000966283
0.000939133
0.0034582
0.0014308
0.00148851
0.00143284
0.00151438
0.00156548
0.00144772
0.00125103
0.0011852
0.00113072
0.00108781
0.00105519
0.00101427
0.000994689
0.000971514
0.000961028
0.000940642
0.000888596
0.000941737
0.000921936
0.00324415
0.00140317
0.00141088
0.0012856
0.00122831
0.0013001
0.00138981
0.00135654
0.00128419
0.00122896
0.0011934
0.00113589
0.00108968
0.00104936
0.00101382
0.000987406
0.000972445
0.000915261
0.000971204
0.00094645
0.00432806
0.00164611
0.00163249
0.00156985
0.00131544
0.00121685
0.0012258
0.00119428
0.00120316
0.00115158
0.00113398
0.00111549
0.00106669
0.00103297
0.00100058
0.000958876
0.00094491
0.000887186
0.000925641
0.000913782
0.00340956
0.00161823
0.00139818
0.0013792
0.00141224
0.00128874
0.0012784
0.00121027
0.00121257
0.00118086
0.00115371
0.00112479
0.00112403
0.00106577
0.00105893
0.00101191
0.000992419
0.000936617
0.00096601
0.000943898
0.00180676
0.00167811
0.00159259
0.00138086
0.00154626
0.00139906
0.00137476
0.0013106
0.00125346
0.00119749
0.00118158
0.00111295
0.0011147
0.00106537
0.00104887
0.00100851
0.000986646
0.000920501
0.000935818
0.000918491
0.000720685
0.00159347
0.00157451
0.00155996
0.0014513
0.00143891
0.00139504
0.00136616
0.00129981
0.00124736
0.00120169
0.00115295
0.00111941
0.00108214
0.00106099
0.00103229
0.00101823
0.000963157
0.000990447
0.000949943
0.00165205
0.0016751
0.0015721
0.00164396
0.00147552
0.00146376
0.00139815
0.00132146
0.00130955
0.00125071
0.00121489
0.00117934
0.00113365
0.00109727
0.00104955
0.00102288
0.000976348
0.000919936
0.000933078
0.000899527
0.00292312
0.0016916
0.00157585
0.00156882
0.00156527
0.00147278
0.0013456
0.00131302
0.00126206
0.00124747
0.00121002
0.00118809
0.00112262
0.00111467
0.0010639
0.001041
0.00101677
0.000959603
0.000996935
0.00094763
0.00327483
0.00171789
0.00164574
0.00150423
0.00138934
0.00136694
0.00136809
0.00137114
0.00129874
0.00127081
0.00120387
0.00114365
0.00114352
0.00111602
0.00109466
0.00108541
0.00106884
0.00102653
0.00104008
0.000999103
0.000143409
0.00364063
0.00848703
0.00979129
0.00643577
0.0027092
0.00070046
0.000105012
0.000151778
0.000256773
0.000298132
0.000248449
0.000211904
0.000230296
0.00023927
0.000199203
0.000149078
0.000186672
0.000213634
0.000311622
0.000234915
0.00595504
0.0097569
0.00851682
0.00429265
0.00113973
7.96192e-05
0.000109118
0.000229983
0.000310835
0.000299505
0.000261823
0.000237129
0.000223997
0.000207124
0.000216609
0.000226707
0.000225597
0.000235387
0.000337842
0.00153895
0.00841861
0.0102872
0.00685064
0.00221351
0.000262281
0.000150622
0.000243301
0.000333163
0.000346884
0.000314851
0.000278253
0.000233786
0.000260894
0.000267104
0.000252524
0.000194139
0.000208243
0.000312403
0.000422678
0.0037571
0.00936648
0.00998333
0.00511685
0.000875965
0.000167521
0.000278922
0.000337556
0.000370852
0.000373413
0.000338963
0.00029485
0.000299055
0.000304879
0.000251281
0.000231214
0.000234393
0.000326262
0.000444036
0.000468509
0.00597823
0.0104811
0.00891417
0.00319592
0.000192162
0.000208887
0.000364698
0.000408485
0.000422404
0.000413646
0.000378277
0.000355355
0.000314378
0.000317067
0.000295
0.00031986
0.000303767
0.000372943
0.000460375
0.000489678
0.00791036
0.0110506
0.00785317
0.00133044
0.000233267
0.000399516
0.000460007
0.000453856
0.000463205
0.000467025
0.000422177
0.000369846
0.00037799
0.000388516
0.000332021
0.000325765
0.000316564
0.000462393
0.00055503
0.000528902
0.0099518
0.011114
0.00663919
0.000494346
0.000245527
0.000529175
0.000540613
0.000496495
0.000549009
0.000507959
0.000460172
0.00044635
0.000415035
0.000393054
0.000359323
0.00039301
0.000404912
0.000521039
0.000529658
0.000507885
0.0119122
0.0111956
0.00446826
0.000302752
0.00049079
0.000628021
0.000607351
0.000579748
0.000574689
0.000564474
0.00052189
0.000465904
0.000461729
0.000467292
0.000423981
0.00041933
0.00040614
0.000546023
0.000594385
0.000578631
0.0139748
0.0108769
0.00285153
0.000147638
0.000648632
0.000725659
0.000644583
0.00061426
0.000656522
0.000609764
0.000552207
0.00053643
0.000511705
0.000480247
0.000438716
0.000471337
0.000488222
0.000600122
0.000573289
0.000550452
0.0147599
0.0105881
0.00175689
0.000212451
0.000797367
0.000781131
0.00072833
0.000701498
0.000683196
0.000658087
0.00061942
0.000562122
0.000546801
0.000545331
0.000520288
0.000508486
0.000485883
0.000621826
0.000616756
0.000605631
0.0155144
0.0101737
0.00115605
0.000420146
0.000868494
0.000836234
0.000767953
0.000722436
0.000751892
0.000705587
0.000642747
0.000623913
0.000602632
0.000576004
0.000540796
0.000553877
0.000559991
0.00067351
0.000604736
0.000586551
0.0162189
0.00978956
0.000807607
0.000654325
0.000968034
0.000888944
0.000853352
0.000799437
0.000776481
0.000748264
0.000710554
0.000655444
0.000632025
0.000627682
0.000615422
0.000590542
0.000553812
0.000667007
0.000612158
0.000624639
0.016658
0.0093128
0.00123136
0.000769525
0.00103474
0.000922656
0.000895777
0.000838522
0.000845514
0.000805643
0.000738998
0.000717752
0.000693757
0.000668073
0.000641888
0.000639201
0.000633061
0.000716692
0.000600159
0.000616503
0.0171131
0.00911705
0.00120616
0.000934732
0.00109657
0.00100061
0.000960041
0.000903395
0.000862115
0.000840305
0.000800044
0.000747706
0.000719064
0.000712015
0.000706258
0.000662649
0.000625684
0.000703783
0.000580519
0.00063954
0.0172197
0.00883707
0.00188541
0.0009664
0.00115359
0.00102178
0.000995934
0.000948715
0.000931968
0.000899332
0.000837407
0.000815548
0.000785438
0.000753943
0.000736514
0.000719815
0.000712846
0.000747065
0.000563726
0.000635197
0.017401
0.00853775
0.00177998
0.00104881
0.00118954
0.0011031
0.00104503
0.00100661
0.000949209
0.000933162
0.000889969
0.000841325
0.000814028
0.000803764
0.000792369
0.000737168
0.000730345
0.000766829
0.000562759
0.000667113
0.0172861
0.00720537
0.0013888
0.00108696
0.00119238
0.00112574
0.00106578
0.00103875
0.001006
0.000979518
0.000929406
0.000906044
0.000869311
0.000836607
0.000822808
0.000793743
0.000807432
0.000803017
0.000553407
0.0006777
0.0171816
0.00641105
0.0016975
0.00119373
0.00121991
0.00119436
0.00111217
0.00108925
0.00103092
0.00101644
0.000973982
0.000931256
0.000910398
0.000895472
0.000872108
0.000827666
0.000833848
0.000857351
0.000605175
0.000713106
0.016908
0.00513498
0.00135795
0.00124104
0.00120605
0.00120931
0.00112747
0.0011058
0.00106296
0.00103954
0.00100521
0.00098155
0.00094918
0.000927958
0.000918281
0.000891937
0.000894654
0.000919533
0.000662242
0.000725201
0.0165923
0.00443413
0.00123646
0.00134471
0.0012431
0.00124884
0.00116128
0.00114145
0.00109087
0.00106999
0.00103271
0.00100363
0.000998385
0.000987109
0.000972562
0.000976669
0.000971438
0.000981295
0.000857611
0.000854012
0.00331276
0.00222782
0.00144647
0.00118166
0.0012765
0.00118415
0.00105345
0.000928449
0.000896858
0.000718715
0.000694747
0.000658337
0.000580918
0.000641133
0.000477968
0.000760069
0.000587591
0.00572091
0.010093
0.0148871
0.0034448
0.00214919
0.00149166
0.00136142
0.00137375
0.00123905
0.00106578
0.000939782
0.000889649
0.000701737
0.000691682
0.000648179
0.000545474
0.000623487
0.000445395
0.000720368
0.000488588
0.00574747
0.0100379
0.0147905
0.00368835
0.00213698
0.00153289
0.00129854
0.00134129
0.00121066
0.00103654
0.00095036
0.000915943
0.000714667
0.000702887
0.00066441
0.000555318
0.000641202
0.000458178
0.000718309
0.000424472
0.00573141
0.0100834
0.0147168
0.00355299
0.00216082
0.00161951
0.00137714
0.00142476
0.00129225
0.00106052
0.000952826
0.000905861
0.000706019
0.000701938
0.000651219
0.00052659
0.000625429
0.000429379
0.000621229
0.000324744
0.00573905
0.0100324
0.0146363
0.00369834
0.0020743
0.00164246
0.0014234
0.00139435
0.00123664
0.0010283
0.00095789
0.000923113
0.000727132
0.000716512
0.000664475
0.000546724
0.000643186
0.000465896
0.000628198
0.000252935
0.00571421
0.0100718
0.014563
0.00374224
0.00215663
0.00179315
0.00141717
0.00144037
0.00130573
0.00105697
0.000953929
0.000902697
0.000723765
0.000718971
0.000649174
0.000528546
0.000613301
0.000440427
0.00059848
0.000166585
0.00571232
0.0100284
0.0144984
0.00400088
0.00213292
0.00177537
0.00146948
0.001394
0.00125972
0.00104573
0.000957665
0.000907562
0.00074665
0.000742755
0.000662661
0.000556345
0.000621051
0.000461952
0.000638107
9.33277e-05
0.00569003
0.01006
0.0144264
0.00405306
0.00217962
0.00195351
0.0015082
0.0014247
0.00132908
0.00106466
0.000942457
0.000881678
0.000744556
0.00075214
0.000650695
0.000541948
0.000600365
0.000417107
0.000605007
7.77436e-05
0.00567638
0.0100278
0.0143788
0.00427448
0.00223019
0.00192241
0.00154531
0.00136441
0.00127942
0.00104463
0.000945526
0.000891204
0.000767951
0.000778305
0.000672009
0.000571017
0.000624692
0.00044687
0.000619032
6.9873e-05
0.00567626
0.0100433
0.0143279
0.00430046
0.00227307
0.00203947
0.00160365
0.00138301
0.00135367
0.00106849
0.000927887
0.000874288
0.000765553
0.000784219
0.00066614
0.000554608
0.000606492
0.000421714
0.000580073
6.49393e-05
0.00566019
0.0100372
0.0142933
0.00446465
0.00233853
0.00203528
0.00164874
0.00134999
0.00129265
0.00102913
0.000930495
0.000889072
0.0007836
0.000804659
0.000693163
0.000580951
0.000625958
0.000462568
0.000595218
0.000139471
0.0056711
0.0100474
0.0142716
0.00456774
0.00237593
0.00209716
0.00170922
0.00133323
0.00135726
0.00106948
0.00092517
0.000878616
0.000774028
0.000801119
0.000686682
0.000569475
0.000618393
0.000443793
0.000552684
0.000256529
0.00568258
0.0100603
0.0142597
0.00467532
0.00243965
0.00208792
0.00175291
0.00133097
0.00128381
0.00102058
0.000930341
0.000888796
0.00078308
0.000820683
0.000715166
0.000602487
0.000645987
0.00047425
0.000558066
0.000386224
0.0056934
0.0100421
0.0142613
0.00486849
0.00246213
0.00211605
0.00183814
0.00132293
0.00133133
0.00105958
0.000938252
0.000868869
0.00077407
0.000815672
0.000704283
0.00059968
0.000637252
0.00045098
0.000516624
0.00049028
0.00569074
0.0100434
0.0142441
0.0049176
0.00253912
0.00208425
0.0018301
0.00132419
0.00126111
0.00102814
0.000947047
0.000867729
0.000791671
0.000834722
0.000720158
0.000635968
0.000657754
0.000483843
0.000523414
0.00051963
0.00569605
0.0100602
0.0142233
0.00510156
0.00252987
0.00207475
0.00191615
0.0013446
0.00128634
0.00104699
0.000952031
0.000842821
0.000791244
0.000811985
0.000705852
0.000643597
0.000644722
0.000471179
0.000498755
0.000552231
0.00573501
0.0100762
0.0142484
0.00521323
0.00262975
0.00208406
0.00187831
0.00135388
0.00123141
0.00103208
0.000964044
0.000845403
0.000815491
0.000824962
0.000716542
0.000673133
0.00066175
0.000515846
0.000513667
0.000554792
0.00571446
0.010135
0.0142195
0.00525531
0.00233436
0.00192761
0.00192145
0.00140327
0.00125043
0.00106711
0.00100807
0.000847777
0.000828645
0.000786493
0.000706704
0.000707246
0.000650965
0.000535428
0.000507632
0.000530738
0.00575763
0.0101312
0.0142264
0.00507067
0.00211307
0.0016562
0.001863
0.00137171
0.00119716
0.0010245
0.000976956
0.00081987
0.000823496
0.000765339
0.000707708
0.000717196
0.000652092
0.000591608
0.00050725
0.00051846
0.00574495
0.0102011
0.0145152
0.00521536
0.00235655
0.00150295
0.0019364
0.00146453
0.00122629
0.00108094
0.00102249
0.000850395
0.000842976
0.00074877
0.000731223
0.000740437
0.000662572
0.000587486
0.000498139
0.00050036
0.00533853
0.0100882
0.0139387
0.019615
0.0260346
0.0110041
0.0191984
0.0125594
0.0135394
0.0112843
0.0110526
0.00916087
0.00897887
0.00799066
0.00752725
0.00762219
0.00668788
0.00664508
0.0051732
0.00571886
0.0519171
0.095082
0.127893
0.0245184
0.0196469
0.0183219
0.0145589
0.0135146
0.0110166
0.0102208
0.00919092
0.00821978
0.00786428
0.00642656
0.00666759
0.00506048
0.0054031
0.00505995
0.00301397
0.0149231
0.0504643
0.0944701
0.125145
0.0104927
0.0139318
0.0133214
0.0116873
0.00930662
0.00816103
0.00792771
0.00715141
0.00690673
0.00634709
0.00603935
0.00581408
0.00537271
0.00523894
0.00474146
0.00450738
0.00682249
0.0524291
0.092776
0.122905
0.0111959
0.0104767
0.00843471
0.00797409
0.00765582
0.00662241
0.00620975
0.00601613
0.00577257
0.00544506
0.00522342
0.00485615
0.00464443
0.00426386
0.00405926
0.0026477
0.00965054
0.0508327
0.0928276
0.118524
0.00623647
0.00657992
0.00640201
0.00675184
0.0057962
0.00540997
0.00492557
0.00490634
0.00482954
0.00457433
0.00445491
0.00431404
0.00425414
0.00414209
0.00399398
0.00264256
0.00511418
0.0472014
0.0938194
0.116825
0.00522254
0.00509736
0.00492832
0.00469353
0.00399445
0.00404259
0.00390079
0.00368735
0.00388668
0.00390538
0.00390591
0.0039165
0.00388431
0.00374952
0.00361647
0.00214484
0.00358641
0.0413795
0.0948357
0.117085
0.00309647
0.00305828
0.00335872
0.00334004
0.0031276
0.0032813
0.00333755
0.0033386
0.00341502
0.0032722
0.00322942
0.00313375
0.00321831
0.00328506
0.00341401
0.00219239
0.00218789
0.0337479
0.0958065
0.11914
0.00246142
0.00245312
0.00266919
0.002568
0.00215063
0.00231742
0.00243387
0.00232339
0.00244012
0.00278332
0.0027982
0.00314839
0.00322678
0.00348473
0.00350882
0.00237237
0.00145407
0.027123
0.0953557
0.126284
0.00141899
0.0013557
0.00144788
0.00153244
0.00142453
0.00158767
0.00194917
0.00225981
0.00215293
0.00228362
0.00225407
0.00248129
0.0024811
0.00291168
0.00322127
0.00312466
0.0012881
0.0202
0.0933976
0.137501
0.000961868
0.000974485
0.00105565
0.00108236
0.00102829
0.00118815
0.00118466
0.00130336
0.00151139
0.00178067
0.00193787
0.0021982
0.00249844
0.002703
0.00301039
0.00326486
0.00276537
0.012221
0.0885975
0.148099
0.00045726
0.000408069
0.000463124
0.00054139
0.00057573
0.000780196
0.000979232
0.00123419
0.00109601
0.00148684
0.00156947
0.00182527
0.00197268
0.002564
0.00270184
0.00325541
0.00180849
0.00604218
0.0695527
0.163169
0.000215152
0.000153237
0.000195778
0.000342951
0.000305671
0.000366521
0.000476117
0.000742558
0.000814485
0.000889646
0.00123361
0.00150148
0.00173527
0.0020765
0.00256113
0.00284042
0.00361348
0.00355637
0.0518556
0.184261
0.000211578
0.000116863
4.43474e-05
0.000175928
0.000254264
0.000431014
0.000347093
0.000581724
0.000453358
0.000783506
0.000732647
0.00110126
0.00102102
0.00153992
0.00190259
0.00267101
0.00347654
0.00816238
0.0264235
0.152507
0.000395045
0.000336295
0.000310026
0.000333722
0.000331128
0.000401336
0.000453517
0.000469309
0.00059566
0.000750937
0.00080039
0.00103115
0.00108838
0.00142706
0.00159784
0.00232493
0.00213104
0.00444288
0.0144433
0.107119
0.000487031
0.000457429
0.000439662
0.000423518
0.00043676
0.000447166
0.000513448
0.000558234
0.00056016
0.000683263
0.000702586
0.00088272
0.000934923
0.00127555
0.00167765
0.00231783
0.00171997
0.0023244
0.00361403
0.0638913
0.000547678
0.000544189
0.00054965
0.00056606
0.000564817
0.000631914
0.000610923
0.000681362
0.000633511
0.000768162
0.000704554
0.000827425
0.00087423
0.00106927
0.00131485
0.000777143
0.000868446
0.000903777
0.00343297
0.0395491
0.00057326
0.000560641
0.000536612
0.000550481
0.000639556
0.000623566
0.000656419
0.000637011
0.000673228
0.000668163
0.000740863
0.000794273
0.000794829
0.000863486
0.000731904
0.00123224
0.00081436
0.0010059
0.00116659
0.0209914
0.000560583
0.000567275
0.000596364
0.000616764
0.000628967
0.000648759
0.000634648
0.000662633
0.000665132
0.000712518
0.000753769
0.000803278
0.000814133
0.000732764
0.000744119
0.000725365
0.000633052
0.000988501
0.00229641
0.00624835
0.000497509
0.000456338
0.000490214
0.00051907
0.000553479
0.000534038
0.000566471
0.000541385
0.000575408
0.000541505
0.000560883
0.000540689
0.000529358
0.000694582
0.000804762
0.000809444
0.000487968
0.000434345
0.00104824
0.00211816
0.000361044
0.000393485
0.000398763
0.000402474
0.000424478
0.000436972
0.000460437
0.000468222
0.000493776
0.000516824
0.000524807
0.000543626
0.00053947
0.00047488
0.000468904
0.000383416
0.000359582
0.000383175
0.000241587
0.000779731
0.0142025
0.0142304
0.0141082
0.0139487
0.0136956
0.0136321
0.013381
0.0132305
0.0129786
0.0125957
0.0124753
0.0120384
0.0109195
0.0106685
0.00989093
0.0101286
0.00948381
0.0090612
0.007724
0.00733192
0.00700162
0.00702925
0.00697184
0.00692373
0.00683624
0.00676988
0.00670449
0.00663628
0.00644105
0.00643793
0.00610692
0.00604538
0.00616647
0.00628771
0.00632655
0.00691937
0.00661105
0.00573474
0.00520552
0.00715159
0.00433818
0.00427472
0.00425105
0.00424305
0.00425107
0.00426117
0.00429628
0.00436552
0.00438158
0.00431064
0.00425336
0.00428985
0.00411842
0.00414674
0.00390185
0.00406173
0.00362161
0.00370288
0.0031725
0.00330937
0.00288687
0.00283156
0.00279409
0.00273931
0.00268445
0.00262828
0.0025636
0.00250395
0.00244559
0.00243381
0.00239479
0.00239016
0.00237121
0.00236672
0.00233816
0.00228872
0.00231046
0.00271135
0.00245983
0.00260709
0.00173185
0.00171947
0.00171227
0.00169729
0.00168721
0.00167534
0.0016618
0.00167161
0.00178207
0.00180475
0.00175319
0.00178407
0.00171097
0.00172378
0.00167557
0.00172498
0.00162219
0.0015258
0.00142511
0.00148546
0.00124506
0.00123568
0.00123153
0.00122042
0.00121078
0.00120152
0.00119024
0.00117324
0.00112803
0.00105992
0.00109577
0.00105799
0.00100821
0.0010104
0.000980919
0.00102889
0.00107976
0.0012019
0.00107777
0.00109549
0.000734438
0.000727241
0.000725396
0.000726225
0.000717124
0.000712659
0.000707618
0.000703714
0.000699315
0.000701844
0.000739015
0.000777757
0.00076351
0.000777755
0.000771604
0.000762568
0.000705569
0.00068218
0.000686523
0.000700831
0.000560474
0.00054971
0.000538696
0.000532352
0.000524112
0.000516771
0.000510844
0.000506764
0.000503524
0.00049655
0.000478148
0.000446607
0.000451546
0.000446858
0.000444547
0.000446626
0.000457455
0.000491594
0.000478891
0.00048445
0.000361681
0.000354382
0.000349281
0.000341514
0.000333185
0.000324782
0.000316769
0.000313595
0.000309965
0.000307928
0.000302384
0.000301338
0.000297335
0.000301201
0.000300304
0.000304294
0.000295615
0.00030241
0.000295641
0.000316213
0.000261807
0.000260188
0.000263902
0.000271525
0.000269176
0.000256312
0.000245535
0.000239551
0.000239514
0.000241709
0.000235389
0.000225058
0.000218837
0.000212219
0.000210562
0.000206547
0.000203738
0.000204567
0.000214558
0.000222254
0.000220952
0.000208203
0.000194155
0.000188848
0.000180633
0.000168848
0.00016097
0.00015605
0.000152819
0.000150736
0.00014608
0.000149065
0.000139431
0.00012911
0.000125853
0.000122737
0.000114413
0.00010579
0.000105841
0.00010223
0.000167222
0.000161102
0.000155416
0.000149495
0.000143579
0.000144203
0.000150002
0.000149254
0.000141291
0.000133171
0.000118308
8.25169e-05
6.48141e-05
6.46675e-05
6.85537e-05
7.6453e-05
7.35408e-05
6.08597e-05
5.26136e-05
5.594e-05
0.000176322
0.000174092
0.00016831
0.000156096
0.000146591
0.000142115
0.000132824
0.000122386
0.000118442
0.000112175
0.00010133
9.92028e-05
9.90874e-05
9.90938e-05
0.000101547
0.000102303
9.58044e-05
7.54256e-05
5.80645e-05
5.35299e-05
0.00017744
0.000171132
0.000164732
0.000158933
0.000155737
0.000151101
0.000148116
0.000148336
0.000145371
0.000141271
0.000141852
0.00014228
0.000135939
0.000125958
0.000120823
0.000113588
0.000109244
0.000104018
0.000104529
9.78836e-05
0.000150061
0.000144022
0.000145161
0.000156681
0.000161643
0.000154639
0.00014771
0.000140568
0.000136432
0.000135763
0.000137795
0.00013511
0.000130949
0.000126927
0.000123643
0.000112183
0.000114491
0.000118667
0.00013847
0.000136034
0.00016888
0.000178433
0.000177089
0.000156696
0.000143444
0.000147506
0.000150664
0.000151734
0.00015085
0.000143979
0.000128788
0.000119814
0.000128566
0.000135
0.000137369
0.000132276
0.000133491
0.000128611
0.000131831
0.000128648
0.000138623
0.000126032
0.00012244
0.000137822
0.000148644
0.000147204
0.000144857
0.000142639
0.000143221
0.000149862
0.000168537
0.000174615
0.000159603
0.000144472
0.000142188
0.000144614
0.000145858
0.00014476
0.00014297
0.00013525
0.000133908
0.000143731
0.000146287
0.000136265
0.000129869
0.000127041
0.000122831
0.000122241
0.000123614
0.000119588
0.000107148
0.000105977
0.000123223
0.000132399
0.000133469
0.000135439
0.000135648
0.0001337
0.000136554
0.000132098
9.54924e-05
9.14291e-05
9.14328e-05
9.73956e-05
0.000102642
0.000106328
0.000107912
0.00010856
0.000110628
0.000116974
0.000127294
0.00012494
0.000120664
0.000119678
0.000118361
0.000114893
0.000109126
0.000107482
0.00012275
0.000126769
7.01972e-05
7.13785e-05
7.29027e-05
7.43542e-05
7.51364e-05
7.59359e-05
7.67824e-05
7.80707e-05
7.8631e-05
7.93109e-05
7.16534e-05
6.93392e-05
7.32395e-05
7.79584e-05
8.11651e-05
8.33122e-05
8.64783e-05
8.56061e-05
8.68743e-05
7.36186e-05
0.00122989
0.00150834
0.001134
0.00122085
0.00128087
0.0012731
0.0012842
0.0013197
0.00139318
0.00143666
0.00149617
0.00153221
0.00160091
0.00163377
0.00168984
0.00177971
0.00175616
0.00291718
0.00981468
0.0236039
0.00120741
0.00131183
0.00101596
0.00113079
0.00119515
0.00123644
0.00130371
0.00134542
0.00137003
0.00140501
0.00145917
0.00150582
0.00157143
0.00161874
0.00168319
0.00173965
0.00169826
0.00270742
0.00884831
0.0230886
0.00119522
0.00139481
0.00105905
0.00114916
0.00123409
0.00124677
0.00126791
0.00130117
0.0013739
0.00142167
0.00147993
0.00151811
0.00159568
0.00162461
0.00169744
0.0017677
0.00180577
0.00220913
0.00820219
0.0226069
0.00125304
0.00138841
0.00105405
0.00114916
0.00119655
0.00122185
0.00128235
0.00133353
0.00135897
0.0013907
0.00144986
0.00150173
0.00156586
0.00159554
0.00167466
0.00170008
0.00172603
0.00161885
0.00695857
0.0220955
0.0012434
0.00140773
0.00108328
0.00115647
0.00122293
0.00124679
0.00127184
0.00129662
0.00136023
0.00142045
0.00147554
0.00151194
0.00157948
0.00160837
0.00169336
0.00173697
0.00182708
0.00160466
0.00634838
0.0215075
0.00123987
0.00138021
0.00108732
0.00115926
0.00120191
0.00122966
0.00127067
0.00133226
0.00137038
0.00139566
0.00144341
0.00149403
0.00155127
0.00157504
0.00166015
0.00166371
0.00174709
0.00154025
0.00523558
0.0208924
0.00128218
0.00141372
0.00110831
0.00118739
0.00124074
0.00125924
0.00128574
0.00132791
0.00136492
0.00142509
0.00147352
0.00150477
0.00156122
0.00159997
0.00168831
0.0017198
0.00183385
0.00159608
0.00502535
0.020186
0.0012874
0.00137011
0.0010834
0.00116902
0.00119851
0.00121896
0.00128014
0.00133312
0.00136464
0.0013911
0.0014188
0.0014821
0.00154657
0.00157992
0.00167126
0.00166878
0.00177194
0.00163687
0.00575361
0.0193798
0.00122874
0.00130169
0.00108249
0.00116354
0.00122316
0.00128624
0.00131524
0.00132581
0.00135384
0.00141138
0.0014671
0.00152332
0.00155939
0.00161134
0.00169847
0.00172046
0.00187395
0.00169102
0.00522841
0.0186262
0.00119904
0.00129312
0.00110899
0.00119087
0.00124157
0.00124073
0.00124654
0.00128509
0.00133871
0.00137481
0.00141498
0.00147175
0.0015245
0.00159137
0.00166046
0.00166847
0.00181873
0.00168089
0.00477344
0.01777
0.00122495
0.00130239
0.00111426
0.00116816
0.00117923
0.00120468
0.00124096
0.00130666
0.00135744
0.00140214
0.00146081
0.00151663
0.0015585
0.00161575
0.00165793
0.00171877
0.00187263
0.0017077
0.00399358
0.015975
0.00115328
0.00118734
0.00104287
0.00110066
0.00115511
0.00120107
0.00124308
0.0013065
0.00131662
0.00135766
0.00140967
0.00145786
0.00149813
0.00154128
0.00158942
0.00167537
0.00174844
0.00169668
0.00328767
0.0140996
0.00112942
0.001219
0.00111525
0.00118873
0.00123184
0.0012444
0.00128131
0.00130508
0.00132294
0.00141949
0.0014364
0.00144513
0.0014588
0.00152137
0.00160214
0.00167984
0.00174828
0.0017753
0.00283747
0.0116687
0.00116331
0.00122754
0.00109839
0.00114092
0.00108535
0.00115133
0.00117847
0.00119888
0.00125884
0.00127788
0.00125488
0.00133434
0.00143354
0.00153052
0.00157088
0.00163499
0.00166959
0.00169452
0.00232364
0.0093069
0.00102819
0.00105114
0.000999441
0.00104859
0.00110084
0.00117099
0.00120771
0.00126139
0.00130597
0.0013306
0.00140731
0.00151513
0.00152582
0.00153631
0.00157138
0.0016517
0.00165255
0.00172707
0.00206242
0.00767081
0.00109246
0.00115102
0.00107301
0.00112917
0.00116746
0.00118206
0.00119276
0.00123055
0.00125323
0.00128097
0.00133484
0.00135163
0.00135983
0.0014366
0.00150693
0.00153511
0.00152286
0.00166451
0.00184793
0.00622482
0.000998914
0.00103981
0.00100617
0.00105987
0.00109501
0.00111272
0.00116311
0.00121303
0.0012306
0.00128184
0.0013386
0.00137025
0.00144999
0.00155927
0.00152809
0.00153388
0.00158486
0.00175989
0.00181151
0.00540921
0.00101383
0.00107647
0.00103795
0.00109216
0.00111966
0.00114548
0.00119926
0.00120629
0.0012492
0.00131566
0.00134783
0.00138509
0.00141155
0.00137463
0.00133424
0.0014615
0.00159151
0.00167416
0.00166562
0.0042488
0.000982306
0.00101789
0.000987584
0.00103528
0.00105912
0.00110051
0.00112762
0.00115523
0.00123373
0.00126032
0.00126512
0.00129848
0.00133158
0.00141044
0.00155374
0.00173064
0.00163617
0.00161143
0.00162949
0.00375087
0.000969113
0.000990783
0.000987298
0.00103767
0.00109131
0.00112475
0.00115699
0.0012145
0.00124266
0.00123996
0.00128174
0.00134865
0.00138906
0.00147871
0.00150429
0.00147221
0.00147521
0.00152351
0.00164059
0.00353226
0.000943336
0.00113933
0.00114586
0.00101859
0.000927575
0.000850993
0.000851376
0.000849741
0.000870571
0.000851518
0.000864412
0.000890949
0.000948027
0.000835531
0.000425267
0.000385539
0.00602388
0.0140643
0.015255
0.00517005
0.000910567
0.00107506
0.00113182
0.00106329
0.00101077
0.000909788
0.000885093
0.000861537
0.000863679
0.000903072
0.000916471
0.000930291
0.000996231
0.000980021
0.000576418
0.00026227
0.00333797
0.0130531
0.0160345
0.00818233
0.00094244
0.00112367
0.00120759
0.00109184
0.00100818
0.000933249
0.000944912
0.00094585
0.000954605
0.00095316
0.000980254
0.00101741
0.00105497
0.00112152
0.000975269
0.00058429
0.00150388
0.0118678
0.0164435
0.0110257
0.000924738
0.0010813
0.00119402
0.00113438
0.00110632
0.000998881
0.00095308
0.000941507
0.000969075
0.00101381
0.00103187
0.00105681
0.00110005
0.0011851
0.0011305
0.000589288
0.000587541
0.0108408
0.0165367
0.013897
0.000952736
0.00111554
0.00126165
0.00115634
0.00108676
0.0010125
0.00102599
0.00102696
0.00102945
0.00104612
0.00108194
0.00112284
0.00116934
0.00125985
0.00125542
0.000906802
0.00044268
0.00974391
0.0165597
0.0171677
0.000957481
0.00109499
0.00124328
0.00117752
0.00116318
0.00107004
0.00101761
0.00101507
0.0010594
0.0011083
0.001126
0.00115584
0.00120614
0.00125486
0.00130886
0.00107359
0.000266739
0.00697776
0.0164769
0.0189196
0.000973755
0.0011191
0.00130911
0.00120705
0.0011505
0.00107704
0.00108844
0.00109527
0.00110056
0.00112775
0.00117016
0.00121934
0.00127207
0.00134723
0.00143702
0.00130046
0.000293821
0.00554616
0.0162652
0.0205069
0.000988087
0.00109808
0.00128474
0.00120166
0.00119034
0.00112313
0.00107534
0.00108028
0.0011325
0.00118545
0.001204
0.00124102
0.00129322
0.0013423
0.00141029
0.00131501
0.000459123
0.00375753
0.0159824
0.0213425
0.00100105
0.00113147
0.00134858
0.00123798
0.00119051
0.00112189
0.00113465
0.00115354
0.0011669
0.00119981
0.0012491
0.00130086
0.00135265
0.00144856
0.00150822
0.00149609
0.000496561
0.00299075
0.0156942
0.0221347
0.00102075
0.00109058
0.00130685
0.00120874
0.00119899
0.00115947
0.00112635
0.00113485
0.00119151
0.00125032
0.00126686
0.00131136
0.0013738
0.00142338
0.00148189
0.0015114
0.000806116
0.00200177
0.0152725
0.0228952
0.00102785
0.00113713
0.00138114
0.00125074
0.00120311
0.00114786
0.00116723
0.00120445
0.00122957
0.00125873
0.00131387
0.00137113
0.00142032