/*--------------------------------*- C++ -*----------------------------------*\
  =========                 |
  \\      /  F ield         | OpenFOAM: The Open Source CFD Toolbox
   \\    /   O peration     | Website:  https://openfoam.org
    \\  /    A nd           | Version:  9
     \\/     M anipulation  |
\*---------------------------------------------------------------------------*/
FoamFile
{
    format      ascii;
    class       surfaceScalarField;
    location    "5.9";
    object      phi;
}
// * * * * * * * * * * * * * * * * * * * * * * * * * * * * * * * * * * * * * //

dimensions      [0 3 -1 0 0 0 0];

internalField   nonuniform List<scalar> 
92080
(
-0.00585925
-0.401619
0.407479
-0.0340345
-0.763336
0.791511
-0.0735243
-0.803845
0.843335
-0.113529
-0.789204
0.829209
-0.153839
-0.77854
0.81885
-0.193435
-0.767045
0.806641
-0.231973
-0.756179
0.794717
-0.270068
-0.745808
0.783903
-0.307837
-0.736303
0.774072
-0.345046
-0.727364
0.764573
-0.381683
-0.718928
0.755565
-0.417686
-0.711206
0.747209
-0.454354
-0.703753
0.740421
-0.490944
-0.697046
0.733636
-0.525945
-0.692091
0.727092
-0.562434
-0.683787
0.720275
-0.600795
-0.678466
0.716827
-0.63501
-0.676657
0.710872
-0.665994
-0.67002
0.701004
-0.663625
0.694628
-0.696997
-0.00547151
-0.396148
-0.0398594
-0.728948
-0.0819959
-0.761708
-0.124712
-0.746488
-0.166487
-0.736766
-0.207706
-0.725825
-0.248505
-0.71538
-0.288777
-0.705535
-0.328636
-0.696445
-0.368114
-0.687886
-0.40719
-0.679851
-0.44567
-0.672726
-0.482793
-0.66663
-0.520995
-0.658844
-0.558399
-0.654686
-0.592992
-0.649194
-0.630449
-0.641009
-0.670099
-0.637007
-0.704823
-0.635296
-0.631098
-0.737351
-0.00137122
-0.394777
-0.0381012
-0.692218
-0.0817457
-0.718064
-0.12594
-0.702293
-0.170581
-0.692125
-0.214169
-0.682237
-0.25651
-0.673039
-0.298278
-0.663767
-0.339487
-0.655235
-0.379961
-0.647412
-0.419896
-0.639916
-0.459473
-0.633149
-0.498227
-0.627877
-0.536419
-0.620652
-0.575857
-0.615248
-0.612936
-0.612115
-0.646801
-0.607145
-0.683348
-0.60046
-0.721711
-0.596933
-0.594675
-0.758134
0.000693529
-0.39547
-0.038978
-0.652546
-0.0863545
-0.670687
-0.133119
-0.655529
-0.179319
-0.645924
-0.225438
-0.636118
-0.27071
-0.627768
-0.314545
-0.619932
-0.358
-0.611781
-0.400738
-0.604674
-0.442885
-0.597769
-0.484632
-0.591402
-0.524476
-0.588033
-0.563577
-0.581551
-0.604028
-0.574797
-0.646109
-0.570035
-0.686301
-0.566952
-0.723537
-0.563224
-0.761929
-0.558541
-0.55614
-0.800464
0.00222295
-0.397693
-0.0385026
-0.611821
-0.0879162
-0.621274
-0.135801
-0.607644
-0.183351
-0.598374
-0.229873
-0.589596
-0.27611
-0.581532
-0.321789
-0.574252
-0.3666
-0.56697
-0.410819
-0.560455
-0.454241
-0.554347
-0.498786
-0.546856
-0.542535
-0.544284
-0.581895
-0.54219
-0.619542
-0.537149
-0.657732
-0.531844
-0.697607
-0.527077
-0.73707
-0.523762
-0.775851
-0.519759
-0.516607
-0.815384
-0.00123833
-0.396455
-0.0470247
-0.566035
-0.0981483
-0.57015
-0.146901
-0.558892
-0.195341
-0.549934
-0.243408
-0.541529
-0.290534
-0.534406
-0.336277
-0.528508
-0.382067
-0.52118
-0.427003
-0.515519
-0.469998
-0.511352
-0.513258
-0.503597
-0.560136
-0.497407
-0.60757
-0.494756
-0.651855
-0.492864
-0.693878
-0.489821
-0.734544
-0.486412
-0.774702
-0.483604
-0.813961
-0.4805
-0.477714
-0.852854
-0.00842712
-0.388028
-0.0561583
-0.518303
-0.108324
-0.517984
-0.157478
-0.509738
-0.20538
-0.502032
-0.252157
-0.494752
-0.299579
-0.486984
-0.345473
-0.482614
-0.390559
-0.476095
-0.436968
-0.46911
-0.481158
-0.467162
-0.521867
-0.462887
-0.561969
-0.457305
-0.604696
-0.452029
-0.649288
-0.448272
-0.693462
-0.445646
-0.737479
-0.442395
-0.780848
-0.440235
-0.823424
-0.437924
-0.435699
-0.865439
-0.0195238
-0.368504
-0.0717221
-0.466105
-0.125301
-0.464405
-0.176203
-0.458837
-0.22635
-0.451884
-0.274939
-0.446164
-0.323157
-0.438765
-0.370732
-0.435039
-0.416039
-0.430788
-0.462429
-0.422721
-0.511337
-0.418254
-0.558498
-0.415726
-0.603008
-0.412795
-0.645135
-0.409902
-0.687069
-0.406338
-0.729104
-0.403611
-0.770684
-0.400816
-0.812689
-0.39823
-0.854135
-0.396478
-0.394513
-0.895321
-0.0252524
-0.343251
-0.0781543
-0.413203
-0.13288
-0.409679
-0.184475
-0.407242
-0.234417
-0.401942
-0.282635
-0.397945
-0.331494
-0.389907
-0.380052
-0.38648
-0.425397
-0.385444
-0.467633
-0.380485
-0.510744
-0.375143
-0.556134
-0.370336
-0.60186
-0.367069
-0.647498
-0.364265
-0.691914
-0.361922
-0.736027
-0.359498
-0.779514
-0.357329
-0.822678
-0.355066
-0.865859
-0.353297
-0.351464
-0.908908
-0.0335675
-0.309684
-0.0883535
-0.358417
-0.144068
-0.353965
-0.197945
-0.353364
-0.25137
-0.348517
-0.301106
-0.348209
-0.350186
-0.340827
-0.402884
-0.333782
-0.455361
-0.332967
-0.505095
-0.330752
-0.551387
-0.32885
-0.596102
-0.325621
-0.640471
-0.3227
-0.684193
-0.320543
-0.727671
-0.318443
-0.770524
-0.316646
-0.81302
-0.314832
-0.855292
-0.312795
-0.897257
-0.311332
-0.309478
-0.939243
-0.0340407
-0.275643
-0.0839762
-0.308482
-0.137212
-0.300729
-0.190699
-0.299878
-0.244391
-0.294825
-0.296216
-0.296385
-0.341205
-0.295837
-0.386843
-0.288144
-0.435761
-0.284049
-0.485683
-0.280829
-0.536177
-0.278356
-0.585364
-0.276434
-0.634205
-0.273858
-0.682805
-0.271943
-0.730597
-0.270652
-0.777971
-0.269272
-0.824137
-0.268665
-0.869701
-0.267232
-0.914379
-0.266653
-0.265302
-0.958555
-0.0404187
-0.235225
-0.0923664
-0.256534
-0.145849
-0.247246
-0.199947
-0.245779
-0.257185
-0.237588
-0.317915
-0.235654
-0.375129
-0.238624
-0.42575
-0.237523
-0.474831
-0.234968
-0.522911
-0.23275
-0.570082
-0.231185
-0.616981
-0.229535
-0.662889
-0.227951
-0.708839
-0.225993
-0.75455
-0.224941
-0.800422
-0.2234
-0.846061
-0.223025
-0.891247
-0.222046
-0.936245
-0.221655
-0.221138
-0.980409
-0.0501768
-0.185048
-0.101369
-0.205342
-0.153426
-0.19519
-0.202465
-0.19674
-0.249701
-0.190352
-0.301196
-0.184158
-0.356411
-0.183409
-0.411724
-0.18221
-0.464708
-0.181984
-0.516872
-0.180586
-0.568183
-0.179874
-0.61825
-0.179468
-0.667187
-0.179013
-0.715363
-0.177817
-0.762771
-0.177533
-0.809815
-0.176356
-0.856743
-0.176097
-0.903201
-0.175588
-0.949537
-0.175319
-0.175214
-0.995461
-0.0632715
-0.121776
-0.122653
-0.14596
-0.183271
-0.134571
-0.242972
-0.137039
-0.294265
-0.139059
-0.343031
-0.135392
-0.392675
-0.133765
-0.442332
-0.132553
-0.492836
-0.131481
-0.542424
-0.130997
-0.591869
-0.13043
-0.641598
-0.129739
-0.689951
-0.13066
-0.737963
-0.129805
-0.785202
-0.130294
-0.831622
-0.129936
-0.877853
-0.129867
-0.923543
-0.129899
-0.969042
-0.12982
-0.130073
-1.01418
-0.0644269
-0.0573495
-0.122791
-0.0875961
-0.175358
-0.082004
-0.228068
-0.0843297
-0.282972
-0.0841551
-0.334319
-0.0840457
-0.386098
-0.0819856
-0.436374
-0.0822765
-0.487316
-0.080538
-0.538075
-0.0802392
-0.588369
-0.0801355
-0.638484
-0.079624
-0.689047
-0.0800967
-0.73831
-0.0805411
-0.787785
-0.0808199
-0.836247
-0.0814728
-0.884311
-0.0818032
-0.931975
-0.0822347
-0.979101
-0.0826939
-0.0830388
-1.02614
-0.0540833
-0.00326625
-0.115997
-0.0256822
-0.173451
-0.0245506
-0.228341
-0.0294396
-0.286572
-0.0259235
-0.342702
-0.0279156
-0.397405
-0.0272833
-0.451711
-0.0279702
-0.504086
-0.0281628
-0.555705
-0.0286204
-0.607101
-0.0287397
-0.657016
-0.0297093
-0.707355
-0.029757
-0.75678
-0.0311166
-0.806021
-0.0315792
-0.85448
-0.0330129
-0.902517
-0.0337663
-0.949595
-0.0351566
-0.99634
-0.0359497
-0.0371832
-1.0422
-0.0421222
0.038856
-0.10166
0.0338561
-0.159353
0.0331416
-0.218872
0.0300799
-0.274892
0.0300967
-0.331701
0.0288931
-0.387655
0.0286708
-0.443563
0.0279379
-0.497792
0.0260666
-0.551046
0.0246328
-0.603251
0.0234653
-0.654546
0.0215862
-0.705143
0.02084
-0.755145
0.0188849
-0.80491
0.0181867
-0.854203
0.0162796
-0.903383
0.0154141
-0.952141
0.0136014
-1.0005
0.0124127
0.0108047
-1.04849
-0.0496709
0.0885269
-0.109994
0.0941789
-0.169003
0.0921511
-0.230614
0.0916905
-0.287737
0.0872202
-0.345341
0.0864968
-0.401619
0.084949
-0.455771
0.08209
-0.5104
0.0806952
-0.563596
0.0778283
-0.616344
0.0762134
-0.668379
0.0736218
-0.719614
0.0720746
-0.77001
0.0692812
-0.819488
0.0676644
-0.868386
0.0651776
-0.916167
0.0631953
-0.963492
0.060926
-1.00997
0.058895
0.0566273
-1.0558
-0.0511035
0.13963
-0.111663
0.154738
-0.170916
0.151404
-0.229646
0.150421
-0.290077
0.147651
-0.347616
0.144036
-0.401789
0.139122
-0.455515
0.135816
-0.508438
0.133619
-0.561449
0.130839
-0.613892
0.128657
-0.666347
0.126077
-0.716922
0.122649
-0.767962
0.120321
-0.817691
0.117394
-0.867073
0.114559
-0.915964
0.112087
-0.964338
0.1093
-1.01249
0.107047
0.104395
-1.06026
-0.0591426
0.198773
-0.121134
0.21673
-0.181872
0.212142
-0.238939
0.207488
-0.29287
0.201582
-0.346377
0.197543
-0.40109
0.193834
-0.456994
0.191721
-0.510907
0.187531
-0.564811
0.184743
-0.616925
0.18077
-0.667321
0.176473
-0.718533
0.173861
-0.769343
0.171131
-0.820043
0.168094
-0.870899
0.165415
-0.921825
0.163013
-0.972383
0.159857
-1.02275
0.157414
-1.07239
0.154035
-0.00437212
-0.00442165
0.00879377
0.0442369
-0.0918104
0.0432014
0.18053
-0.325988
0.189695
0.370469
-0.676651
0.486712
0.495819
-0.911982
0.786632
0.555497
-1.01421
0.954534
0.580714
-1.04541
1.02019
0.59239
-1.05228
1.04061
0.599506
-1.0519
1.04478
0.604663
-1.04892
1.04376
0.608234
-1.04398
1.04041
0.613003
-1.04024
1.03547
0.617657
-1.03857
1.03391
0.621801
-1.03656
1.03242
0.625474
-1.03557
1.0319
0.62988
-1.03381
1.02941
0.635142
-1.03392
1.02866
0.639531
-1.0329
1.02851
0.642926
-1.0328
1.02941
-1.02995
0.644884
1.02799
0.0145824
-0.019004
0.0797701
-0.156998
0.240614
-0.486832
0.383722
-0.819759
0.461736
-0.989996
0.494188
-1.04666
0.508515
-1.05973
0.51656
-1.06033
0.522528
-1.05786
0.526086
-1.05248
0.529842
-1.04774
0.533448
-1.04385
0.536827
-1.04195
0.540166
-1.0399
0.543248
-1.03866
0.546031
-1.0366
0.548234
-1.03612
0.550561
-1.03522
0.552519
-1.03476
-1.02991
0.55248
0.0282109
-0.0472149
0.110164
-0.238951
0.26119
-0.637858
0.363897
-0.922467
0.411558
-1.03766
0.430404
-1.06551
0.439114
-1.06844
0.44467
-1.06588
0.447697
-1.06089
0.450258
-1.05504
0.452482
-1.04996
0.454846
-1.04621
0.457104
-1.04421
0.458634
-1.04143
0.459519
-1.03954
0.460502
-1.03758
0.462103
-1.03772
0.463314
-1.03644
0.463132
-1.03458
-1.02636
0.459578
0.0304166
-0.0776314
0.134769
-0.343303
0.258502
-0.761591
0.328591
-0.992556
0.355765
-1.06483
0.36619
-1.07594
0.371551
-1.07381
0.374296
-1.06863
0.376356
-1.06295
0.377932
-1.05661
0.379189
-1.05122
0.380168
-1.04719
0.380287
-1.04432
0.380078
-1.04122
0.3798
-1.03926
0.37971
-1.03749
0.379115
-1.03713
0.376772
-1.03409
0.372918
-1.03072
-1.02103
0.367588
0.0301349
-0.107766
0.1436
-0.456768
0.239185
-0.857176
0.284576
-1.03795
0.299764
-1.08002
0.305174
-1.08135
0.307442
-1.07607
0.30848
-1.06966
0.309152
-1.06362
0.309046
-1.05651
0.308476
-1.05065
0.307466
-1.04618
0.306113
-1.04297
0.304237
-1.03935
0.301819
-1.03684
0.298889
-1.03456
0.295429
-1.03367
0.291267
-1.02993
0.285525
-1.02498
-1.01431
0.278807
0.0347856
-0.142552
0.13186
-0.553843
0.204887
-0.930203
0.235656
-1.06871
0.243988
-1.08835
0.247278
-1.08464
0.247269
-1.07606
0.247341
-1.06974
0.246212
-1.0625
0.244283
-1.05458
0.241837
-1.0482
0.239039
-1.04338
0.2354
-1.03933
0.231231
-1.03518
0.226727
-1.03234
0.222246
-1.03008
0.217136
-1.02856
0.210701
-1.02349
0.202777
-1.01706
-1.00637
0.194842
0.0407436
-0.183296
0.120376
-0.633475
0.174562
-0.98439
0.191487
-1.08564
0.194893
-1.09176
0.193969
-1.08371
0.192273
-1.07437
0.189615
-1.06708
0.186189
-1.05907
0.182241
-1.05063
0.177853
-1.04382
0.172767
-1.03829
0.167272
-1.03384
0.161428
-1.02933
0.155134
-1.02605
0.14825
-1.02319
0.140746
-1.02106
0.132564
-1.01531
0.123919
-1.00841
-0.997335
0.11488
0.043054
-0.22635
0.106889
-0.697311
0.143753
-1.02125
0.150663
-1.09255
0.150125
-1.09122
0.146161
-1.07975
0.141814
-1.07002
0.13693
-1.06219
0.131356
-1.05349
0.125198
-1.04447
0.118499
-1.03712
0.11149
-1.03129
0.103865
-1.02621
0.0956872
-1.02115
0.0870343
-1.01739
0.0782115
-1.01437
0.0688616
-1.01171
0.0590042
-1.00546
0.0484493
-0.997858
-0.986387
0.0375013
0.0366861
-0.263036
0.0888674
-0.749492
0.113473
-1.04586
0.114135
-1.09321
0.109453
-1.08654
0.103038
-1.07333
0.0961209
-1.0631
0.0884085
-1.05448
0.0801035
-1.04519
0.0714052
-1.03577
0.0623665
-1.02808
0.0527617
-1.02168
0.0428416
-1.01629
0.0325997
-1.01091
0.0219694
-1.00676
0.0108069
-1.00321
-0.000747271
-1.00015
-0.0126458
-0.993557
-0.0247888
-0.985715
-0.974169
-0.037006
0.0336281
-0.296664
0.0750691
-0.790933
0.087202
-1.05799
0.0821049
-1.08811
0.0730104
-1.07744
0.0635037
-1.06383
0.0533754
-1.05298
0.0427772
-1.04388
0.0318225
-1.03423
0.020582
-1.02453
0.00893481
-1.01643
-0.00291915
-1.00983
-0.0151125
-1.0041
-0.0277342
-0.99829
-0.0409811
-0.993517
-0.0546603
-0.989529
-0.0686659
-0.986146
-0.0827011
-0.979522
-0.0969026
-0.971514
-0.959755
-0.111317
0.0286512
-0.325315
0.0599725
-0.822254
0.0633879
-1.06141
0.0536524
-1.07838
0.0415777
-1.06537
0.0291076
-1.05136
0.0158799
-1.03975
0.00225689
-1.03026
-0.0115607
-1.02042
-0.0255337
-1.01056
-0.0397227
-1.00224
-0.0543065
-0.995243
-0.0691197
-0.989287
-0.0841953
-0.983215
-0.0996945
-0.978018
-0.115816
-0.973408
-0.132264
-0.969697
-0.148434
-0.963352
-0.164514
-0.955434
-0.943889
-0.18038
0.0233294
-0.348644
0.0444094
-0.843334
0.0395918
-1.05659
0.0256103
-1.0644
0.0100399
-1.0498
-0.00555527
-1.03576
-0.0215358
-1.02377
-0.037957
-1.01384
-0.0546269
-1.00375
-0.0714033
-0.993785
-0.0883766
-0.985268
-0.10548
-0.978139
-0.122732
-0.972036
-0.140226
-0.965721
-0.158149
-0.960095
-0.17651
-0.955046
-0.195095
-0.951112
-0.213452
-0.944995
-0.231303
-0.937583
-0.926176
-0.249015
0.0197117
-0.368356
0.0338079
-0.85743
0.0229569
-1.04574
0.00524152
-1.04668
-0.0133418
-1.03121
-0.0321559
-1.01695
-0.0516703
-1.00425
-0.0714313
-0.994079
-0.0910963
-0.984081
-0.110831
-0.97405
-0.130697
-0.965402
-0.15072
-0.958116
-0.170785
-0.951972
-0.190866
-0.94564
-0.2113
-0.939661
-0.232334
-0.934011
-0.253488
-0.929958
-0.274112
-0.924371
-0.294122
-0.917573
-0.906713
-0.313585
0.0150648
-0.383421
0.0213827
-0.863748
0.00421599
-1.02857
-0.0176557
-1.02481
-0.0395026
-1.00937
-0.0615358
-0.994914
-0.0835456
-0.982244
-0.106039
-0.971585
-0.128617
-0.961503
-0.151009
-0.951658
-0.173483
-0.942928
-0.196094
-0.935505
-0.218804
-0.929262
-0.241464
-0.92298
-0.263968
-0.917156
-0.286831
-0.911149
-0.310228
-0.906561
-0.333172
-0.901427
-0.354856
-0.895889
-0.885654
-0.375915
0.0120972
-0.395518
0.012636
-0.864287
-0.00871802
-1.00722
-0.0337453
-0.999783
-0.0587296
-0.984382
-0.0836746
-0.969969
-0.109032
-0.956886
-0.134437
-0.94618
-0.159878
-0.936062
-0.185376
-0.92616
-0.210867
-0.917437
-0.2364
-0.909973
-0.261919
-0.903742
-0.28746
-0.897439
-0.31312
-0.891496
-0.338781
-0.885488
-0.364463
-0.880878
-0.389953
-0.875938
-0.414518
-0.871325
-0.862144
-0.438027
0.00790084
-0.403419
0.0037758
-0.860162
-0.0230307
-0.980412
-0.0515659
-0.971248
-0.0794344
-0.956513
-0.107308
-0.942096
-0.135014
-0.92918
-0.163211
-0.917983
-0.191281
-0.907992
-0.219147
-0.898294
-0.247014
-0.88957
-0.274977
-0.88201
-0.303109
-0.87561
-0.330991
-0.869556
-0.358424
-0.864063
-0.386224
-0.857688
-0.414695
-0.852408
-0.442914
-0.847719
-0.46974
-0.844498
-0.836639
-0.495245
0.00469478
-0.408114
-0.00603695
-0.84943
-0.035421
-0.951028
-0.0667089
-0.93996
-0.0970199
-0.926202
-0.127256
-0.911859
-0.157519
-0.898917
-0.187712
-0.88779
-0.218242
-0.877463
-0.248827
-0.867709
-0.279482
-0.858915
-0.310045
-0.851447
-0.340557
-0.845099
-0.37144
-0.838673
-0.402172
-0.833331
-0.432024
-0.827836
-0.462009
-0.822423
-0.493037
-0.816691
-0.523587
-0.813948
-0.808094
-0.552131
0.00201339
-0.410127
-0.0126544
-0.834763
-0.0455755
-0.918106
-0.0799365
-0.905599
-0.113371
-0.892768
-0.146151
-0.879079
-0.178761
-0.866308
-0.211591
-0.854959
-0.244235
-0.844819
-0.276888
-0.835055
-0.309575
-0.826228
-0.342561
-0.818461
-0.375598
-0.812062
-0.408281
-0.80599
-0.441204
-0.800407
-0.474553
-0.794488
-0.507303
-0.789673
-0.540433
-0.78356
-0.574554
-0.779827
-0.775608
-0.607041
-0.000211367
-0.409916
-0.0197955
-0.815178
-0.0556806
-0.882221
-0.0922903
-0.868989
-0.127942
-0.857116
-0.16331
-0.843712
-0.198055
-0.831562
-0.232493
-0.820521
-0.267031
-0.810281
-0.301561
-0.800525
-0.336339
-0.79145
-0.371101
-0.783699
-0.406274
-0.776889
-0.442076
-0.770188
-0.477613
-0.76487
-0.512853
-0.759248
-0.548117
-0.754409
-0.584179
-0.747498
-0.622345
-0.741661
-0.738452
-0.659501
-0.00243698
-0.0261042
-0.0649909
-0.104771
-0.143037
-0.180108
-0.216953
-0.253572
-0.289781
-0.325733
-0.361618
-0.398109
-0.434577
-0.471129
-0.508908
-0.54788
-0.585462
-0.622088
-0.662745
-0.706569
0.553883
-8.97399
9.06499
0.47802
-8.61211
8.68797
0.433971
-8.7169
8.76095
0.390172
-8.62403
8.66783
0.349795
-8.69949
8.73987
0.307658
-8.5721
8.61424
0.272417
-8.64313
8.67837
0.239884
-8.58896
8.6215
0.209679
-8.65093
8.68114
0.185378
-8.62712
8.65142
0.162247
-8.69267
8.7158
0.140609
-8.65439
8.67603
0.121854
-8.72091
8.73966
0.101089
-8.65732
8.67808
0.0875535
-8.73313
8.74667
0.068428
-8.60799
8.62712
0.0613871
-8.54647
8.55351
0.0411212
-7.65354
7.6738
0.0215046
-5.47021
5.48983
-2.3349
2.35641
0.465177
-8.88669
0.398657
-8.54559
0.356795
-8.67504
0.311486
-8.57872
0.271853
-8.65986
0.23296
-8.53321
0.202245
-8.61241
0.174482
-8.5612
0.149489
-8.62594
0.130836
-8.60847
0.112864
-8.6747
0.0967041
-8.63823
0.0842847
-8.70849
0.0692859
-8.64232
0.061917
-8.72577
0.0495239
-8.5956
0.0481661
-8.54511
0.0332748
-7.63865
0.0190701
-5.45601
-2.31583
0.374467
-8.80158
0.311787
-8.48291
0.271648
-8.6349
0.233904
-8.54098
0.200768
-8.62672
0.1681
-8.50054
0.14308
-8.58739
0.11992
-8.53804
0.0989333
-8.60495
0.0848246
-8.59436
0.0715086
-8.66138
0.0599141
-8.62663
0.0522413
-8.70081
0.0417605
-8.63184
0.0389458
-8.72295
0.0314778
-8.58813
0.0351954
-8.54883
0.0263649
-7.62981
0.0175528
-5.4472
-2.29828
0.291642
-8.72563
0.23162
-8.42289
0.192727
-8.59601
0.156938
-8.50519
0.125221
-8.595
0.0948191
-8.47014
0.0738104
-8.56638
0.055638
-8.51987
0.039782
-8.5891
0.0308818
-8.58546
0.0225692
-8.65307
0.0165001
-8.62057
0.0148153
-8.69913
0.0100537
-8.62708
0.0131972
-8.72609
0.0126466
-8.58758
0.0220443
-8.55822
0.0186622
-7.62643
0.0151676
-5.4437
-2.28311
0.202454
-8.64928
0.148494
-8.36893
0.112896
-8.56041
0.0802843
-8.47258
0.0546409
-8.56936
0.0311467
-8.44665
0.0156431
-8.55088
0.0021906
-8.50642
-0.00954099
-8.57736
-0.0143187
-8.58068
-0.0181856
-8.6492
-0.019671
-8.61908
-0.0170733
-8.70173
-0.0172495
-8.6269
-0.0103805
-8.73296
-0.00597679
-8.59199
0.00897787
-8.57318
0.0116804
-7.62914
0.013541
-5.44556
-2.26957
0.122087
-8.57653
0.067545
-8.31439
0.0311884
-8.52405
0.00340136
-8.44479
-0.0198592
-8.5461
-0.0407064
-8.4258
-0.0524771
-8.53911
-0.0608532
-8.49804
-0.067232
-8.57099
-0.0672016
-8.58071
-0.0662961
-8.65011
-0.0623107
-8.62307
-0.0541677
-8.70987
-0.0481853
-8.63288
-0.0354039
-8.74574
-0.0251273
-8.60226
-0.00442832
-8.59388
0.00399584
-7.63756
0.0111528
-5.45272
-2.25842
0.0373072
-8.49895
-0.0127582
-8.26432
-0.0458009
-8.49101
-0.0712569
-8.41933
-0.087421
-8.52994
-0.102064
-8.41116
-0.109252
-8.53192
-0.113056
-8.49424
-0.114987
-8.56905
-0.111081
-8.58462
-0.106174
-8.65501
-0.0977539
-8.63149
-0.0856549
-8.72197
-0.0749206
-8.64362
-0.0581438
-8.76252
-0.0440891
-8.61632
-0.017805
-8.62016
-0.00318138
-7.65218
0.00936636
-5.46527
-2.24905
-0.0395056
-8.42195
-0.0896535
-8.21417
-0.12389
-8.45677
-0.146865
-8.39636
-0.160472
-8.51633
-0.17255
-8.39908
-0.175842
-8.52863
-0.174386
-8.49569
-0.170971
-8.57247
-0.162427
-8.59316
-0.153155
-8.66429
-0.13956
-8.64508
-0.122119
-8.73941
-0.105774
-8.65996
-0.0828661
-8.78543
-0.0631011
-8.63608
-0.031463
-8.6518
-0.010901
-7.67275
0.00692756
-5.4831
-2.24212
-0.11843
-8.34052
-0.168507
-8.1641
-0.199244
-8.42604
-0.219083
-8.37652
-0.225775
-8.50964
-0.231872
-8.39298
-0.23056
-8.52994
-0.224774
-8.50148
-0.217215
-8.58003
-0.204873
-8.6055
-0.191864
-8.67729
-0.174277
-8.66267
-0.153007
-8.76068
-0.132755
-8.68021
-0.106023
-8.81216
-0.0820487
-8.66006
-0.045096
-8.68875
-0.0183594
-7.69948
0.00499055
-5.50645
-2.23713
-0.191784
-8.26005
-0.242024
-8.11386
-0.273376
-8.39468
-0.291974
-8.35792
-0.296141
-8.50547
-0.299787
-8.38934
-0.294873
-8.53485
-0.283959
-8.51239
-0.271518
-8.59247
-0.254611
-8.62241
-0.237324
-8.69458
-0.214998
-8.685
-0.188406
-8.78727
-0.162924
-8.7057
-0.13053
-8.84456
-0.10099
-8.6896
-0.0588487
-8.73089
-0.0260792
-7.73225
0.00270073
-5.53523
-2.23443
-0.266243
-8.17419
-0.315913
-8.06419
-0.345168
-8.36543
-0.360925
-8.34217
-0.359644
-8.50675
-0.357421
-8.39156
-0.347679
-8.54459
-0.332643
-8.52743
-0.316347
-8.60877
-0.295551
-8.64321
-0.274509
-8.71562
-0.248715
-8.71079
-0.21834
-8.81765
-0.189006
-8.73503
-0.153236
-8.88033
-0.119761
-8.72307
-0.0723842
-8.77827
-0.0334655
-7.77117
0.000553344
-5.56925
-2.23388
-0.337143
-8.08606
-0.387712
-8.01362
-0.416235
-8.33691
-0.431573
-8.32683
-0.426633
-8.51169
-0.421793
-8.3964
-0.409158
-8.55723
-0.389632
-8.54696
-0.368827
-8.62957
-0.34348
-8.66855
-0.317975
-8.74113
-0.287787
-8.74098
-0.252409
-8.85302
-0.218366
-8.76907
-0.177279
-8.92141
-0.138232
-8.76212
-0.0856727
-8.83083
-0.0406279
-7.81621
-0.00180727
-5.60807
-2.23569
-0.40667
-7.99298
-0.456718
-7.96357
-0.483645
-8.30998
-0.497129
-8.31334
-0.488348
-8.52047
-0.47739
-8.40736
-0.459859
-8.57476
-0.436519
-8.5703
-0.411882
-8.65421
-0.382662
-8.69777
-0.353495
-8.7703
-0.320152
-8.77432
-0.281404
-8.89177
-0.24403
-8.80645
-0.199308
-8.96613
-0.156116
-8.80531
-0.0988592
-8.88809
-0.0480185
-7.86706
-0.00445936
-5.65163
-2.24015
-0.47462
-7.89427
-0.525346
-7.91284
-0.550103
-8.28522
-0.56424
-8.29921
-0.552396
-8.53232
-0.538772
-8.42098
-0.518434
-8.5951
-0.491128
-8.5976
-0.461931
-8.6834
-0.428386
-8.73132
-0.3948
-8.80388
-0.357293
-8.81183
-0.313977
-8.93509
-0.272208
-8.84822
-0.222198
-9.01614
-0.173788
-8.85372
-0.112088
-8.94979
-0.055457
-7.92369
-0.0069243
-5.70016
-2.24707
-0.539367
-7.79293
-0.591772
-7.86044
-0.614631
-8.26236
-0.6263
-8.28754
-0.611052
-8.54756
-0.591583
-8.44045
-0.567061
-8.61962
-0.536178
-8.62849
-0.502947
-8.71663
-0.465857
-8.76841
-0.428619
-8.84112
-0.38805
-8.8524
-0.341671
-8.98147
-0.296738
-8.89315
-0.243342
-9.06954
-0.191231
-8.90583
-0.125563
-9.01545
-0.0629763
-7.98627
-0.0089609
-5.75417
-2.25603
-0.602912
-7.68527
-0.655359
-7.80799
-0.67537
-8.24235
-0.689338
-8.27357
-0.672584
-8.56432
-0.650515
-8.46252
-0.622866
-8.64727
-0.588335
-8.66302
-0.550643
-8.75433
-0.509614
-8.80944
-0.467574
-8.88316
-0.422692
-8.89728
-0.372361
-9.0318
-0.323254
-8.94226
-0.265069
-9.12773
-0.208361
-8.96254
-0.138943
-9.08487
-0.0706348
-8.05458
-0.0105936
-5.81421
-2.26662
-0.663056
-7.57434
-0.720025
-7.75102
-0.735551
-8.22683
-0.746053
-8.26307
-0.72638
-8.58399
-0.699371
-8.48953
-0.668573
-8.67807
-0.630862
-8.70073
-0.589447
-8.79574
-0.545294
-8.85359
-0.499812
-8.92864
-0.451957
-8.94513
-0.39855
-9.0852
-0.346471
-8.99433
-0.285537
-9.18866
-0.225403
-9.02267
-0.15161
-9.15866
-0.0771729
-8.12902
-0.0112856
-5.8801
-2.27791
-0.723218
-7.45817
-0.781056
-7.69319
-0.795139
-8.21274
-0.806502
-8.2517
-0.785462
-8.60503
-0.75526
-8.51973
-0.720942
-8.71239
-0.680378
-8.74129
-0.63485
-8.84127
-0.586701
-8.90174
-0.535598
-8.97975
-0.483815
-8.99692
-0.427115
-9.1419
-0.371295
-9.05015
-0.306755
-9.2532
-0.242443
-9.08699
-0.163641
-9.23747
-0.0831394
-8.20952
-0.0118981
-5.95134
-2.28981
-0.774991
-7.34268
-0.839227
-7.62895
-0.848604
-8.20337
-0.859503
-8.24081
-0.836425
-8.62811
-0.803076
-8.55308
-0.765508
-8.74995
-0.721898
-8.7849
-0.672761
-8.89041
-0.621579
-8.95292
-0.566608
-9.03472
-0.51163
-9.05189
-0.451927
-9.20161
-0.393087
-9.10899
-0.326009
-9.32028
-0.258801
-9.15419
-0.175625
-9.32064
-0.0901353
-8.29501
-0.0136898
-6.02779
-2.3035
-0.817244
-7.232
-0.889211
-7.55698
-0.900253
-8.19233
-0.908919
-8.23214
-0.887758
-8.64927
-0.851478
-8.58936
-0.811229
-8.7902
-0.765098
-8.83103
-0.713055
-8.94245
-0.658135
-9.00784
-0.598947
-9.09391
-0.540091
-9.11075
-0.477748
-9.26395
-0.41505
-9.17169
-0.345252
-9.39008
-0.273727
-9.22572
-0.186796
-9.40757
-0.0966215
-8.38518
-0.0130651
-6.11135
-2.31656
5.46308
-6.99617
-5.69891
5.08862
-7.18253
4.60299
-7.70669
4.20254
-7.83169
3.72106
-8.16779
3.35416
-8.22246
3.00165
-8.43769
2.67816
-8.50754
2.39101
-8.6553
2.11588
-8.73272
1.85119
-8.82922
1.6292
-8.88876
1.35269
-8.98744
1.1717
-8.9907
0.899997
-9.11838
0.767033
-9.09275
0.530987
-9.17153
0.343798
-8.198
0.19685
-5.9644
-2.11971
2.81346
-7.04207
-2.76756
2.84732
-7.21639
2.69312
-7.55249
2.595
-7.73357
2.39704
-7.96984
2.2487
-8.07411
2.06197
-8.25096
1.89555
-8.34112
1.72391
-8.48366
1.55172
-8.56052
1.38579
-8.66329
1.22645
-8.72942
1.04975
-8.81074
0.919027
-8.85998
0.740806
-8.94016
0.623946
-8.97589
0.400004
-8.94759
0.27108
-8.06907
-0.0106779
-5.68264
-2.13039
1.67135
-7.21507
-1.49835
1.83428
-7.37932
1.86328
-7.58149
1.87752
-7.74781
1.82257
-7.91489
1.77338
-8.02493
1.66546
-8.14304
1.5652
-8.24086
1.42745
-8.34591
1.29452
-8.42759
1.1479
-8.51667
1.00695
-8.58847
0.862703
-8.66649
0.732504
-8.72978
0.591236
-8.79889
0.453275
-8.83793
0.32665
-8.82096
0.220476
-7.9629
0.0616559
-5.52382
-2.06873
0.759926
-7.44509
-0.529905
0.950492
-7.56989
1.04183
-7.67283
1.08356
-7.78954
1.07951
-7.91083
1.07173
-8.01715
1.03226
-8.10357
0.981992
-8.19059
0.916618
-8.28053
0.849587
-8.36056
0.773393
-8.44047
0.695992
-8.51107
0.609727
-8.58023
0.523426
-8.64348
0.42613
-8.70159
0.33977
-8.75157
0.221665
-8.70285
0.162774
-7.90401
0.106644
-5.46769
-1.96209
0.328335
-7.62643
-0.146991
0.468059
-7.70961
0.564278
-7.76905
0.651678
-7.87694
0.690953
-7.95011
0.703954
-8.03015
0.702676
-8.10229
0.677926
-8.16584
0.633015
-8.23562
0.577236
-8.30478
0.507307
-8.37054
0.430824
-8.43459
0.350562
-8.49997
0.26731
-8.56023
0.187358
-8.62164
0.111319
-8.67553
0.0364848
-8.62802
0.0439271
-7.91145
0.0596984
-5.48346
-1.90239
-0.0426614
-7.77823
0.194462
0.0804266
-7.8327
0.176645
-7.86527
0.244814
-7.94511
0.279225
-7.98452
0.290967
-8.04189
0.290323
-8.10165
0.279134
-8.15465
0.256133
-8.21262
0.226281
-8.27493
0.187291
-8.33155
0.143956
-8.39125
0.0902228
-8.44623
0.0331623
-8.50317
-0.0275055
-8.56097
-0.0908401
-8.6122
-0.144414
-8.57445
-0.0944146
-7.96145
0.0248339
-5.60271
-1.87756
-0.227242
-7.87795
0.326956
-0.148074
-7.91187
-0.0800459
-7.9333
-0.0326748
-7.99248
0.00869209
-8.02589
0.0280926
-8.06129
0.0399324
-8.11349
0.0416508
-8.15637
0.0319589
-8.20293
0.00916051
-8.25213
-0.0214125
-8.30098
-0.0648548
-8.34781
-0.112859
-8.39823
-0.166123
-8.4499
-0.221142
-8.50595
-0.272599
-8.56074
-0.314023
-8.53302
-0.246923
-8.02855
-0.0399578
-5.80967
-1.91752
-0.394097
-7.95251
0.468654
-0.331301
-7.97466
-0.272323
-7.99227
-0.236878
-8.02792
-0.205893
-8.05687
-0.191684
-8.0755
-0.193446
-8.11173
-0.197934
-8.15188
-0.214387
-8.18648
-0.238305
-8.22821
-0.270677
-8.26861
-0.309145
-8.30934
-0.351239
-8.35613
-0.401999
-8.39914
-0.454722
-8.45323
-0.505708
-8.50976
-0.536089
-8.50264
-0.462207
-8.10243
-0.155007
-6.11687
-2.07252
-0.470819
-7.9981
0.516408
-0.434144
-8.01134
-0.402885
-8.02353
-0.384398
-8.04641
-0.374635
-8.06663
-0.363548
-8.08659
-0.364105
-8.11117
-0.373477
-8.14251
-0.385715
-8.17424
-0.409226
-8.2047
-0.439635
-8.2382
-0.481027
-8.26795
-0.532016
-8.30515
-0.590464
-8.34069
-0.65902
-8.38467
-0.730021
-8.43876
-0.773331
-8.45933
-0.69757
-8.17819
-0.295307
-6.51914
-2.36783
-0.520881
-8.02872
0.551506
-0.495041
-8.03718
-0.473183
-8.04539
-0.459771
-8.05982
-0.453743
-8.07266
-0.453088
-8.08724
-0.456582
-8.10768
-0.472834
-8.12626
-0.498302
-8.14877
-0.533616
-8.16939
-0.576596
-8.19522
-0.624455
-8.22009
-0.680748
-8.24885
-0.740071
-8.28137
-0.809808
-8.31494
-0.891391
-8.35717
-0.966776
-8.38395
-0.92163
-8.22334
-0.506965
-6.9338
-2.8748
-0.540285
-8.04387
0.555438
-0.530216
-8.04725
-0.522774
-8.05283
-0.522286
-8.06031
-0.524184
-8.07076
-0.532079
-8.07935
-0.550426
-8.08933
-0.5708
-8.10588
-0.59919
-8.12038
-0.633127
-8.13545
-0.674504
-8.15384
-0.722949
-8.17164
-0.784148
-8.18765
-0.860551
-8.20497
-0.947437
-8.22805
-1.04531
-8.2593
-1.14273
-8.28653
-1.14914
-8.21693
-0.798239
-7.2847
-3.67303
-0.547843
-8.0513
0.555267
-0.544403
-8.05069
-0.543347
-8.05389
-0.5456
-8.05806
-0.55136
-8.065
-0.559145
-8.07156
-0.570513
-8.07796
-0.591821
-8.08458
-0.617626
-8.09457
-0.650274
-8.1028
-0.692012
-8.11211
-0.743328
-8.12033
-0.804527
-8.12645
-0.876525
-8.13297
-0.96568
-8.1389
-1.06193
-8.16305
-1.19081
-8.15765
-1.27433
-8.13342
-1.01826
-7.54076
-4.6913
-0.536214
-8.0505
0.535421
-0.538347
-8.04856
-0.541842
-8.05039
-0.547929
-8.05197
-0.558174
-8.05476
-0.572602
-8.05714
-0.587261
-8.0633
-0.606894
-8.06494
-0.628907
-8.07256
-0.655795
-8.07592
-0.687576
-8.08032
-0.725535
-8.08237
-0.768243
-8.08375
-0.819713
-8.0815
-0.884381
-8.07423
-0.97336
-8.07407
-1.07828
-8.05273
-1.16117
-8.05052
-0.967753
-7.73418
-5.65905
-0.4917
-8.0449
0.486098
-0.496679
-8.04358
-0.501991
-8.04508
-0.508393
-8.04557
-0.514748
-8.0484
-0.523411
-8.04847
-0.535152
-8.05156
-0.547821
-8.05227
-0.565389
-8.05499
-0.586914
-8.05439
-0.610872
-8.05637
-0.640066
-8.05318
-0.670712
-8.0531
-0.707768
-8.04444
-0.747095
-8.0349
-0.814523
-8.00664
-0.878989
-7.98826
-0.939292
-7.99022
-0.811006
-7.86247
-6.47006
-0.431477
-8.04052
0.427094
-0.435575
-8.03948
-0.441442
-8.03922
-0.448796
-8.03821
-0.45796
-8.03924
-0.466727
-8.03971
-0.476434
-8.04185
-0.487801
-8.04091
-0.500096
-8.0427
-0.514203
-8.04028
-0.529105
-8.04146
-0.546228
-8.03605
-0.56389
-8.03544
-0.584248
-8.02409
-0.603836
-8.01531
-0.630709
-7.97977
-0.653469
-7.9655
-0.670808
-7.97288
-0.605318
-7.92796
-7.07537
-0.356221
-8.03477
0.350477
-0.361463
-8.03424
-0.366175
-8.0345
-0.370452
-8.03394
-0.375441
-8.03425
-0.381716
-8.03343
-0.389356
-8.03421
-0.397606
-8.03266
-0.406574
-8.03373
-0.416046
-8.03081
-0.425399
-8.03211
-0.435043
-8.02641
-0.445116
-8.02537
-0.454557
-8.01465
-0.45778
-8.01209
-0.452956
-7.98459
-0.433224
-7.98524
-0.407387
-7.99871
-0.366304
-7.96904
-7.44168
-0.273992
-8.0284
0.267621
-0.280242
-8.02799
-0.286632
-8.02811
-0.292506
-8.02806
-0.297847
-8.02891
-0.303396
-8.02788
-0.309239
-8.02837
-0.315125
-8.02677
-0.321521
-8.02733