/*--------------------------------*- C++ -*----------------------------------*\
  =========                 |
  \\      /  F ield         | OpenFOAM: The Open Source CFD Toolbox
   \\    /   O peration     | Website:  https://openfoam.org
    \\  /    A nd           | Version:  9
     \\/     M anipulation  |
\*---------------------------------------------------------------------------*/
FoamFile
{
    format      ascii;
    class       volVectorField;
    location    "1.5";
    object      U;
}
// * * * * * * * * * * * * * * * * * * * * * * * * * * * * * * * * * * * * * //

dimensions      [0 1 -1 0 0 0 0];

internalField   nonuniform List<vector> 
46400
(
(7.72217 -7.58599 -1.81856e-19)
(16.181 -15.3541 1.30712e-19)
(17.5282 -17.4531 -5.91352e-20)
(16.969 -17.5091 -5.58459e-20)
(16.4476 -17.5114 -4.45063e-20)
(15.8779 -17.5488 8.18137e-20)
(15.3769 -17.5383 -7.28921e-20)
(14.8955 -17.575 4.26574e-20)
(14.4779 -17.6328 -4.88855e-20)
(14.0255 -17.6366 5.42887e-20)
(13.6321 -17.6808 -5.89378e-20)
(13.2766 -17.7485 0)
(12.9185 -17.7995 4.06393e-19)
(12.5719 -17.8226 -4.65475e-19)
(12.2719 -17.9141 -5.95293e-19)
(11.9768 -17.9636 -1.03403e-19)
(11.659 -18.0125 -2.81066e-20)
(11.3785 -18.0006 4.7742e-19)
(11.101 -17.9894 6.56644e-19)
(10.6918 -18.186 -6.0596e-19)
(8.04717 -7.23561 0)
(16.3473 -14.4566 -2.91858e-20)
(17.5061 -16.1991 0)
(16.9009 -16.3034 1.1257e-19)
(16.3619 -16.3204 -1.04185e-19)
(15.8188 -16.4126 2.71759e-20)
(15.3323 -16.4786 0)
(14.8573 -16.5456 -4.26554e-20)
(14.3897 -16.5951 4.8883e-20)
(13.9443 -16.6308 -5.42871e-20)
(13.573 -16.7559 6.33602e-19)
(13.1925 -16.8077 3.58299e-20)
(12.843 -16.9138 -5.25202e-19)
(12.521 -16.9918 0)
(12.1992 -17.0757 7.21359e-20)
(11.9136 -17.1492 7.444e-20)
(11.6249 -17.2395 0)
(11.3822 -17.2798 -7.07925e-19)
(11.1282 -17.3132 -1.82637e-19)
(10.8042 -17.5272 7.20516e-19)
(8.32608 -6.81892 3.96367e-20)
(16.3866 -13.5296 -1.46313e-19)
(17.3135 -14.9267 1.36763e-19)
(16.6578 -15.0962 2.24848e-19)
(16.1486 -15.1856 -2.20746e-19)
(15.574 -15.3011 0)
(15.0631 -15.3834 -7.03838e-19)
(14.5906 -15.4985 6.0669e-19)
(14.1771 -15.6416 -7.85916e-19)
(13.7014 -15.6819 7.77663e-19)
(13.2984 -15.7901 7.41762e-19)
(12.9513 -15.9218 -7.22524e-20)
(12.5831 -16.0219 -6.43797e-19)
(12.2458 -16.1127 0)
(11.9519 -16.2641 7.98215e-19)
(11.6615 -16.3667 -7.86109e-19)
(11.3595 -16.4773 0)
(11.1099 -16.5487 -1.52189e-20)
(10.8391 -16.6299 9.22195e-20)
(10.4822 -16.8689 -8.47893e-19)
(8.50875 -6.38552 -1.67909e-19)
(16.3263 -12.5506 3.80541e-20)
(17.0532 -13.6933 3.06907e-19)
(16.3948 -13.8938 -3.03094e-19)
(15.8657 -14.0107 -2.65802e-19)
(15.3427 -14.1838 3.61406e-19)
(14.8494 -14.3341 4.95583e-19)
(14.3714 -14.4578 -1.25056e-18)
(13.9254 -14.6081 1.04794e-18)
(13.4934 -14.7141 -9.85403e-20)
(13.0934 -14.8682 0)
(12.7226 -14.9823 1.03301e-19)
(12.3939 -15.1689 -1.04969e-19)
(12.0555 -15.2687 0)
(11.7289 -15.4001 9.34714e-19)
(11.4722 -15.5576 -7.9602e-19)
(11.1899 -15.7066 0)
(10.9565 -15.8214 1.08356e-19)
(10.7126 -15.9394 1.21388e-19)
(10.3635 -16.2157 9.72002e-19)
(8.65749 -5.93683 0)
(16.1321 -11.4791 0)
(16.6537 -12.4686 -4.28098e-19)
(15.9843 -12.709 2.97811e-19)
(15.469 -12.8939 -5.81507e-19)
(14.9103 -13.078 4.70785e-19)
(14.4037 -13.2568 0)
(13.9444 -13.4408 5.20487e-19)
(13.5445 -13.6687 -6.30153e-19)
(13.0711 -13.7662 -1.42576e-19)
(12.6649 -13.9358 -1.4318e-19)
(12.3108 -14.1044 0)
(11.9546 -14.2736 1.07932e-18)
(11.6506 -14.4517 -1.06245e-18)
(11.333 -14.617 0)
(11.0406 -14.7624 -1.19315e-18)
(10.7589 -14.9384 1.05273e-18)
(10.5153 -15.071 1.05423e-18)
(10.2676 -15.2149 -1.14995e-18)
(9.92614 -15.5063 0)
(8.85589 -5.47836 0)
(15.781 -10.2997 0)
(16.1961 -11.2273 0)
(15.5331 -11.5011 -2.95713e-20)
(15.0007 -11.735 0)
(14.5083 -11.9892 0)
(14.0151 -12.2297 0)
(13.5362 -12.4073 -1.63685e-19)
(13.1363 -12.6719 0)
(12.7404 -12.8611 1.42577e-19)
(12.3167 -13.0438 -2.0501e-20)
(11.9551 -13.2123 -1.39589e-18)
(11.6289 -13.4449 1.05156e-18)
(11.2987 -13.5936 -1.37983e-18)
(10.9931 -13.794 1.04134e-18)
(10.7384 -13.991 0)
(10.4545 -14.1784 -1.1875e-18)
(10.2299 -14.3556 1.01591e-18)
(10.0028 -14.5297 0)
(9.66434 -14.8458 -1.60444e-19)
(9.08823 -5.08752 5.93935e-19)
(15.3177 -9.18589 1.72173e-19)
(15.5367 -10.0153 6.72893e-19)
(14.8927 -10.34 -6.93192e-19)
(14.3773 -10.6509 -6.99189e-19)
(13.8562 -10.9166 1.39167e-18)
(13.382 -11.2109 -1.58742e-18)
(12.9341 -11.4527 1.51174e-19)
(12.5491 -11.7533 5.09829e-19)
(12.1298 -11.9479 0)
(11.7453 -12.1863 -1.99229e-20)
(11.377 -12.3717 -1.89804e-20)
(11.047 -12.6087 1.61854e-19)
(10.7782 -12.854 1.34087e-18)
(10.4411 -13.0198 -1.17816e-18)
(10.1712 -13.2161 -1.49872e-18)
(9.90643 -13.4266 1.30567e-18)
(9.65709 -13.5798 -1.45241e-20)
(9.45415 -13.7833 -1.65865e-19)
(9.14836 -14.1092 -1.19421e-18)
(9.33953 -4.6628 -1.95394e-19)
(14.7129 -8.11416 3.22365e-20)
(14.8085 -8.84133 -2.10338e-19)
(14.2096 -9.20694 -8.3052e-19)
(13.7025 -9.57295 5.75408e-19)
(13.2688 -9.90576 0)
(12.8073 -10.2443 1.19972e-18)
(12.3486 -10.4823 -5.7872e-19)
(12.0009 -10.8438 3.9351e-19)
(11.6606 -11.1151 2.05106e-19)
(11.2621 -11.3609 -3.88953e-19)
(10.9139 -11.5684 9.44589e-19)
(10.5588 -11.7955 1.97206e-19)
(10.2914 -12.0451 -1.11972e-18)
(10.0334 -12.3254 3.13082e-18)
(9.7567 -12.5171 -1.27497e-18)
(9.50825 -12.7675 1.61184e-18)
(9.27483 -12.9512 -1.05478e-18)
(9.04552 -13.1445 3.45189e-19)
(8.77842 -13.4964 1.66841e-18)
(9.54171 -4.26755 1.00233e-18)
(13.9699 -7.10229 -2.0717e-19)
(13.8564 -7.75979 -2.86869e-20)
(13.3363 -8.16304 4.51104e-19)
(12.8483 -8.60137 2.1234e-19)
(12.3976 -8.93852 2.35527e-19)
(12.0008 -9.34541 -1.10377e-18)
(11.5669 -9.62626 6.68381e-19)
(11.1975 -9.9799 -2.07325e-19)
(10.8769 -10.2898 -2.05098e-19)
(10.5606 -10.6173 -2.02648e-19)
(10.2292 -10.8554 -2.1727e-19)
(9.88579 -11.0851 -4.10887e-19)
(9.59067 -11.3054 1.42306e-18)
(9.32145 -11.558 -1.99007e-18)
(9.09396 -11.808 -2.02574e-19)
(8.84379 -12.0348 1.36236e-20)
(8.6388 -12.2501 -1.49517e-18)
(8.42634 -12.4469 1.11503e-18)
(8.16951 -12.7547 -1.7762e-18)
(9.61674 -3.9572 8.99748e-19)
(13.1 -6.11253 -2.28082e-18)
(12.9016 -6.7901 1.5105e-18)
(12.4568 -7.19683 -2.38929e-19)
(12.0116 -7.67372 -2.60783e-19)
(11.646 -8.06831 1.01235e-18)
(11.2641 -8.49559 -1.22702e-18)
(10.8561 -8.78961 0)
(10.5226 -9.18681 9.49069e-19)
(10.2236 -9.51081 -9.33259e-19)
(9.9045 -9.85274 -6.80308e-19)
(9.6558 -10.175 8.87135e-19)
(9.33681 -10.4533 2.1365e-19)
(9.06168 -10.6986 -8.69302e-19)
(8.79227 -10.9701 2.09224e-19)
(8.5556 -11.2154 1.04253e-18)
(8.34388 -11.5095 -1.83997e-18)
(8.13496 -11.7302 1.21429e-18)
(7.95145 -11.991 -1.15751e-20)
(7.71538 -12.3037 -1.69284e-18)
(9.42053 -3.57422 1.24691e-18)
(12.1163 -5.26751 -8.41675e-19)
(11.81 -5.91083 5.625e-19)
(11.4274 -6.35708 7.23685e-21)
(11.0013 -6.85108 -1.10626e-18)
(10.6161 -7.24085 -1.0533e-18)
(10.3413 -7.75035 1.30874e-18)
(9.95318 -8.06509 -7.69756e-19)
(9.59411 -8.43636 1.0205e-18)
(9.34456 -8.81019 0)
(9.05152 -9.16078 1.56899e-20)
(8.79884 -9.47592 2.33316e-19)
(8.5515 -9.80302 2.43178e-19)
(8.27887 -10.0427 -2.3811e-19)
(8.03058 -10.307 0)
(7.79297 -10.5348 2.28129e-19)
(7.57418 -10.7864 0)
(7.39746 -11.0333 4.25878e-19)
(7.21673 -11.273 2.07729e-18)
(7.04441 -11.6258 -1.42037e-20)
(8.99999 -3.11784 6.86931e-19)
(11.0756 -4.45886 -1.45642e-19)
(10.7748 -5.12132 -2.11608e-18)
(10.4402 -5.57608 1.18441e-18)
(10.078 -6.11095 2.82155e-19)
(9.72187 -6.50513 -2.77746e-19)
(9.44521 -7.02409 -1.12865e-18)
(9.16599 -7.41421 8.40921e-19)
(8.80524 -7.78817 0)
(8.54289 -8.14779 0)
(8.30427 -8.56645 -1.2947e-18)
(8.09014 -8.92797 1.02455e-18)
(7.87351 -9.31247 -2.43119e-19)
(7.67878 -9.64785 -7.3766e-19)
(7.4426 -9.95014 6.44648e-21)
(7.23874 -10.2242 1.64506e-18)
(7.00733 -10.4745 -9.19374e-19)
(6.81259 -10.6975 6.74141e-19)
(6.6186 -10.9302 -1.0934e-18)
(6.41622 -11.2106 0)
(8.38712 -2.63608 -5.97924e-19)
(9.95016 -3.73968 9.68015e-19)
(9.5914 -4.39449 1.65212e-19)
(9.31807 -4.88976 1.62333e-19)
(8.99422 -5.45706 0)
(8.6247 -5.8417 1.21707e-18)
(8.40235 -6.38765 -1.19568e-18)
(8.17008 -6.81717 1.49853e-19)
(7.86963 -7.21705 0)
(7.58328 -7.53936 1.11795e-18)
(7.30452 -7.87973 -9.59406e-19)
(7.09674 -8.22138 1.0689e-18)
(6.88846 -8.57241 -1.05184e-18)
(6.72309 -8.92062 1.02108e-18)
(6.56084 -9.27646 -8.77614e-19)
(6.40082 -9.59242 -9.74803e-19)
(6.25088 -9.92383 1.91276e-18)
(6.09058 -10.1869 -8.19426e-19)
(5.94919 -10.4758 1.16234e-19)
(5.7773 -10.7704 9.79833e-19)
(7.58209 -2.14223 -4.78409e-19)
(8.76206 -3.0833 5.17317e-19)
(8.44364 -3.76926 -1.65215e-19)
(8.17547 -4.26785 -1.62327e-19)
(7.96609 -4.9005 0)
(7.62775 -5.29841 0)
(7.33673 -5.79923 0)
(7.22235 -6.32268 -3.06134e-19)
(7.00965 -6.81513 -1.19637e-18)
(6.83461 -7.24891 2.34549e-18)
(6.59466 -7.64497 -1.29003e-18)
(6.3783 -7.98336 -1.42407e-19)
(6.16737 -8.33877 0)
(5.96898 -8.63956 0)
(5.78878 -8.97665 -2.60219e-19)
(5.62235 -9.26759 0)
(5.46533 -9.5895 9.88729e-19)
(5.3252 -9.8645 -1.21632e-18)
(5.18379 -10.1553 -1.05731e-18)
(5.04509 -10.4741 1.02825e-18)
(6.67662 -1.66932 4.98133e-19)
(7.54432 -2.48798 9.02009e-19)
(7.21654 -3.16511 -1.84574e-23)
(6.99082 -3.69297 -1.25755e-21)
(6.82554 -4.36411 1.71373e-19)
(6.59011 -4.82082 -4.98287e-19)
(6.24317 -5.24584 0)
(6.01344 -5.64973 -4.78862e-19)
(5.83118 -6.12297 1.62105e-19)
(5.66225 -6.54004 6.10041e-19)
(5.52545 -7.0001 5.91332e-19)
(5.36989 -7.38741 -4.39415e-19)
(5.22643 -7.79321 1.1264e-18)
(5.08394 -8.14794 -9.68894e-19)
(4.94163 -8.50707 1.20488e-18)
(4.80731 -8.83272 -2.23561e-18)
(4.67222 -9.16281 1.03068e-18)
(4.54972 -9.4603 1.23174e-19)
(4.42719 -9.75959 9.71163e-19)
(4.29795 -10.0947 -1.06122e-18)
(5.62144 -1.22863 1.73479e-19)
(6.18925 -2.00545 -1.83821e-19)
(5.93636 -2.70569 7.36799e-19)
(5.61976 -3.17475 -7.23097e-19)
(5.56883 -3.90315 -3.52172e-19)
(5.52868 -4.52405 -8.57911e-19)
(5.3503 -5.09238 4.29481e-21)
(5.17025 -5.55094 6.60643e-19)
(4.96128 -6.00279 -1.58138e-19)
(4.80242 -6.41185 0)
(4.61595 -6.81738 0)
(4.48183 -7.19747 0)
(4.3233 -7.57564 0)
(4.20051 -7.92137 3.52694e-21)
(4.06491 -8.27724 0)
(3.95049 -8.58871 1.3317e-19)
(3.82806 -8.92607 5.23827e-19)
(3.72014 -9.20136 -1.53829e-18)
(3.61225 -9.50825 1.13389e-18)
(3.49539 -9.8141 -1.07628e-18)
(4.63682 -0.919943 0)
(4.91049 -1.65504 -9.76614e-20)
(4.85324 -2.4339 0)
(4.52512 -2.85682 2.75837e-19)
(4.17783 -3.34466 -1.83867e-19)
(4.11758 -3.89626 -7.05276e-19)
(3.99789 -4.45922 4.35093e-21)
(3.93542 -4.98138 6.76624e-19)
(3.81891 -5.50164 -6.55386e-19)
(3.71921 -5.94691 1.28363e-18)
(3.61862 -6.42659 -5.49029e-21)
(3.50409 -6.80732 -6.13162e-19)
(3.41418 -7.24978 5.9231e-19)
(3.3028 -7.58407 -7.26499e-19)
(3.22034 -7.99144 0)
(3.11524 -8.28984 -5.48847e-19)
(3.0381 -8.6675 5.40664e-19)
(2.93707 -8.93042 0)
(2.86556 -9.26008 -1.26654e-19)
(2.7603 -9.55229 0)
(3.12883 -0.587537 9.96353e-20)
(3.17978 -1.27524 9.7629e-20)
(3.36597 -2.16223 0)
(3.44628 -2.86497 3.7614e-19)
(3.23484 -3.46338 -4.64056e-19)
(3.08778 -3.93087 2.69059e-19)
(2.9599 -4.49817 -7.93159e-19)
(2.83692 -4.91148 3.44925e-19)
(2.76543 -5.4548 -8.42621e-20)
(2.65714 -5.82965 0)
(2.59406 -6.33069 -8.0055e-20)
(2.50344 -6.67685 -7.8018e-20)
(2.4377 -7.1301 -7.6031e-20)
(2.35778 -7.4503 0)
(2.29397 -7.85946 -5.71587e-19)
(2.22388 -8.1568 1.19043e-18)
(2.16365 -8.52923 -1.02337e-18)
(2.10417 -8.80343 5.3516e-19)
(2.04787 -9.12385 6.52447e-20)
(1.99425 -9.42165 5.58296e-19)
(2.34397 -0.592673 -1.52262e-19)
(1.94877 -0.963347 -1.99749e-19)
(1.84285 -1.69794 5.70346e-22)
(1.85564 -2.23937 5.26068e-19)
(1.92493 -3.00135 -1.41457e-19)
(1.84444 -3.48014 -9.12521e-20)
(1.82862 -4.13202 8.98771e-20)
(1.75683 -4.57412 1.7452e-19)
(1.7079 -5.14661 8.42493e-20)
(1.65193 -5.56185 -3.28967e-19)
(1.597 -6.06845 3.6325e-19)
(1.55307 -6.45611 7.80097e-20)
(1.502 -6.90966 3.80322e-19)
(1.46473 -7.26813 -3.05515e-21)
(1.41554 -7.67535 3.3365e-20)
(1.38241 -8.00585 -6.3641e-19)
(1.33494 -8.3753 1.74151e-19)
(1.30511 -8.67751 0)
(1.26247 -8.9986 -3.2374e-20)
(1.23247 -9.31527 -2.82017e-19)
(0.292772 -1.10274 0)
(0.843109 -1.01478 -9.82161e-20)
(0.651172 -2.07915 1.06344e-19)
(0.713559 -2.36137 -4.85411e-20)
(0.580773 -3.13333 -4.75242e-20)
(0.626544 -3.53214 0)
(0.541635 -4.19061 -8.93483e-20)
(0.556783 -4.58967 1.74903e-19)
(0.511178 -5.16552 -8.56166e-20)
(0.517108 -5.5475 8.27009e-20)
(0.486959 -6.06056 -4.09711e-20)
(0.484922 -6.4187 -7.84985e-20)
(0.462027 -6.88023 1.53728e-19)
(0.456999 -7.21422 -1.49791e-19)
(0.438277 -7.63175 3.6965e-20)
(0.432865 -7.94109 2.52657e-34)
(0.416481 -8.32385 -3.43808e-20)
(0.41129 -8.6053 2.02393e-19)
(0.396719 -8.93957 -9.98595e-20)
(0.390801 -9.24184 -7.17107e-20)
(-0.135851 1.26191 2.8594e-20)
(-0.144967 1.08866 1.99934e-20)
(0.400779 -0.833737 0)
(1.84347 -5.85575 1.98426e-20)
(5.09194 -14.9103 1.47466e-20)
(7.43868 -21.9983 2.19181e-20)
(8.71716 -25.6681 0)
(9.14786 -26.9755 2.01607e-20)
(9.29925 -27.3999 0)
(9.32644 -27.5312 0)
(9.29578 -27.5037 -1.68326e-20)
(9.23628 -27.419 5.67531e-22)
(9.13582 -27.3295 3.60612e-20)
(9.11037 -27.301 0)
(9.04846 -27.3169 1.5714e-20)
(9.00517 -27.2675 1.58523e-20)
(8.92614 -27.2699 1.55455e-20)
(8.87338 -27.1988 0)
(8.7927 -27.22 -2.88424e-20)
(8.76317 -27.1739 2.67229e-20)
(-0.189577 1.33794 4.61604e-20)
(0.218023 0.32356 -1.21518e-19)
(0.986636 -3.20292 0)
(3.91844 -11.3369 -9.33973e-20)
(6.88581 -19.7723 1.12538e-19)
(8.67815 -24.6398 -1.97177e-19)
(9.36249 -26.6372 8.42286e-20)
(9.54407 -27.2497 6.08397e-20)
(9.57801 -27.4155 -2.54169e-19)
(9.55324 -27.3869 1.38837e-19)
(9.4726 -27.3103 -1.83231e-20)
(9.39832 -27.2015 1.42909e-19)
(9.33907 -27.2086 -2.50339e-21)
(9.29907 -27.1576 -1.35032e-19)
(9.19949 -27.1349 -1.65298e-20)
(9.15777 -27.0831 -1.57826e-20)
(9.0662 -27.0906 -1.52945e-20)
(9.02594 -27.034 0)
(8.91017 -27.0249 -1.11159e-19)
(8.87476 -26.9425 1.76002e-21)
(-0.151749 1.13876 -4.89692e-20)
(0.449074 -0.945525 0)
(2.10003 -6.44083 0)
(5.94542 -16.3902 -3.24181e-20)
(8.2182 -23.1092 4.51176e-20)
(9.33303 -26.2046 0)
(9.66347 -27.1388 -4.07939e-20)
(9.73809 -27.3802 1.12403e-19)
(9.71313 -27.3609 -1.07538e-19)
(9.64451 -27.2793 1.45727e-19)
(9.56237 -27.1593 -1.84512e-19)
(9.52294 -27.1266 0)
(9.44305 -27.0591 -1.34608e-19)
(9.39108 -26.9797 -1.27276e-19)
(9.31413 -26.9797 2.24805e-19)
(9.28342 -26.9334 -2.37523e-19)
(9.18441 -26.9183 2.04983e-19)
(9.14062 -26.8166 0)
(9.01996 -26.8003 -2.43484e-19)
(9.00197 -26.7331 3.98478e-19)
(0.214685 0.775419 2.50166e-19)
(0.814994 -2.76925 0)
(3.90103 -11.0467 6.77277e-20)
(7.4365 -20.1035 5.32987e-20)
(9.22654 -25.0813 -2.73252e-19)
(9.86856 -26.815 8.53436e-20)
(10.0142 -27.2545 3.92306e-20)
(10.0034 -27.2448 3.98955e-19)
(9.96176 -27.1973 -5.91191e-19)
(9.87302 -27.056 -6.57876e-20)
(9.81802 -27.0036 3.27346e-19)
(9.73946 -26.9044 6.81988e-20)
(9.66702 -26.8585 -3.27422e-19)
(9.62222 -26.8262 3.20617e-19)
(9.52709 -26.807 9.13896e-20)
(9.48298 -26.728 -5.78101e-20)
(9.35522 -26.6822 8.44573e-20)
(9.31314 -26.6083 0)
(9.1965 -26.6088 -2.34744e-20)
(9.16954 -26.5103 0)
(0.438707 -0.341258 0)
(1.51704 -4.78434 3.90939e-19)
(5.47691 -14.865 -4.78858e-19)
(8.5123 -22.8593 4.65513e-19)
(9.85736 -26.2478 -3.67129e-19)
(10.1735 -27.1362 -8.6047e-20)
(10.2291 -27.236 0)
(10.1947 -27.1967 2.15238e-19)
(10.1303 -27.0812 -3.00925e-19)
(10.036 -26.9459 3.64721e-19)
(9.96692 -26.839 -2.85704e-19)
(9.90404 -26.7858 -6.82006e-20)
(9.83523 -26.7271 3.20094e-19)
(9.76231 -26.6421 -5.57374e-19)
(9.67595 -26.6007 3.55647e-19)
(9.62341 -26.519 -1.16861e-19)
(9.50688 -26.4922 -2.70663e-19)
(9.47246 -26.4016 6.14135e-19)
(9.33412 -26.3819 -3.43623e-19)
(9.30534 -26.2436 -4.03523e-19)
(0.359502 -1.29983 4.13004e-19)
(2.50292 -7.34437 4.00292e-19)
(7.02242 -18.2978 -3.94251e-19)
(9.56674 -24.6261 -9.65227e-20)
(10.4072 -26.7755 9.17403e-20)
(10.6011 -27.1621 3.295e-19)
(10.578 -27.1466 -3.13046e-19)
(10.5109 -27.0077 0)
(10.4143 -26.8432 2.99096e-19)
(10.3279 -26.704 -2.94106e-19)
(10.272 -26.6601 -2.71213e-19)
(10.1815 -26.5554 2.66802e-19)
(10.0932 -26.4712 0)
(10.0241 -26.4256 0)
(9.92801 -26.387 5.06627e-19)
(9.85669 -26.2953 -4.972e-19)
(9.71655 -26.2333 -4.09417e-19)
(9.67137 -26.1464 3.97803e-19)
(9.51296 -26.1285 -3.64002e-19)
(9.4806 -25.9738 4.38028e-19)
(0.447917 -2.24312 -3.15517e-19)
(3.8025 -10.4714 1.09587e-19)
(8.17554 -20.6662 8.17198e-21)
(10.2938 -25.8053 4.95295e-19)
(10.842 -27.0711 0)
(10.8797 -27.1463 0)
(10.8419 -27.0353 6.30293e-19)
(10.7352 -26.8405 -2.41481e-20)
(10.6697 -26.7155 -6.11236e-19)
(10.5727 -26.589 5.57492e-19)
(10.4871 -26.4621 -5.48309e-19)
(10.3913 -26.366 0)
(10.3135 -26.301 4.75582e-19)
(10.2176 -26.2132 -4.68085e-19)
(10.115 -26.135 0)
(10.0259 -26.0267 0)
(9.89751 -25.9878 0)
(9.85437 -25.8975 0)
(9.67576 -25.86 0)
(9.64021 -25.6626 -4.25575e-20)
(0.769886 -3.09676 3.35576e-19)
(5.05268 -12.8 -5.43869e-19)
(9.36022 -22.5833 0)
(11.0978 -26.4403 0)
(11.3643 -27.058 8.07812e-19)
(11.377 -27.0167 5.21869e-20)
(11.2646 -26.8101 -7.46433e-19)
(11.1749 -26.6391 0)
(11.0508 -26.4503 7.26826e-20)
(10.9292 -26.2717 -6.82053e-20)
(10.8459 -26.2055 0)
(10.7301 -26.0902 6.02137e-20)
(10.6162 -25.9852 -5.11633e-19)
(10.5123 -25.9164 9.30944e-19)
(10.3984 -25.851 -1.69094e-20)
(10.2906 -25.7557 -3.99975e-19)
(10.1413 -25.6863 -4.48374e-20)
(10.074 -25.5871 4.21073e-20)
(9.86723 -25.5421 0)
(9.82876 -25.3397 3.70204e-20)
(1.22833 -4.03 2.23779e-19)
(6.4049 -14.8889 2.08817e-19)
(10.4652 -23.7938 -6.64609e-19)
(11.762 -26.7043 2.03988e-19)
(11.8841 -26.983 9.1876e-20)
(11.7945 -26.8277 7.54782e-19)
(11.6318 -26.5686 -1.07286e-18)
(11.5005 -26.3674 7.82306e-19)
(11.3775 -26.2016 -6.32716e-19)
(11.2459 -26.0725 7.50259e-19)
(11.1248 -25.933 1.22615e-19)
(10.9839 -25.8041 5.14643e-19)
(10.8752 -25.728 -2.8918e-19)
(10.7472 -25.635 -5.59519e-19)
(10.6165 -25.5348 4.93558e-19)
(10.4845 -25.4162 0)
(10.345 -25.3641 1.2763e-19)
(10.2647 -25.2704 3.5319e-20)
(10.0517 -25.2116 -7.30469e-20)
(10.0056 -24.9842 3.04644e-20)
(2.0144 -5.19731 0)
(7.61412 -16.275 3.79362e-19)
(11.5268 -24.6027 -6.30584e-23)
(12.5029 -26.6802 -3.97753e-19)
(12.4695 -26.6956 -3.60212e-19)
(12.3288 -26.4633 -1.71887e-19)
(12.1461 -26.2332 -4.79939e-21)
(11.9999 -26.0467 -1.51396e-19)
(11.8233 -25.8427 0)
(11.6466 -25.6452 -1.3137e-19)
(11.5156 -25.5594 -1.22604e-19)
(11.3585 -25.4375 -7.14731e-21)
(11.2065 -25.3267 3.96623e-19)
(11.0612 -25.244 -2.04667e-19)
(10.9144 -25.1639 -4.4606e-19)
(10.767 -25.0711 3.46734e-19)
(10.6032 -24.9974 2.25397e-19)
(10.4891 -24.8971 -3.8124e-19)
(10.2623 -24.8335 7.32696e-20)
(10.1995 -24.6166 4.38995e-19)
(2.50071 -5.86076 -3.48627e-19)
(8.74798 -17.405 9.34533e-19)
(12.5147 -24.9448 -1.27248e-18)
(13.1382 -26.4236 1.01775e-18)
(13.0289 -26.3624 8.7894e-19)
(12.803 -26.0826 -6.9509e-19)
(12.5789 -25.8366 -9.09131e-19)
(12.372 -25.6215 3.73231e-20)
(12.1806 -25.4387 5.43184e-19)
(11.9956 -25.3123 -3.53426e-19)
(11.8241 -25.1729 8.96709e-19)
(11.6296 -25.0323 -5.34668e-19)
(11.476 -24.953 -9.97367e-20)
(11.307 -24.8608 2.51718e-19)
(11.1378 -24.7563 -6.58396e-19)
(10.9611 -24.6405 3.14451e-19)
(10.7975 -24.5862 0)
(10.6652 -24.4988 -5.12123e-19)
(10.4385 -24.4318 5.04166e-19)
(10.3556 -24.2047 -3.9226e-19)
(3.16587 -6.81765 2.29143e-19)
(9.81908 -18.228 2.51146e-19)
(13.4354 -25.0158 1.09455e-18)
(13.8389 -26.0157 9.28753e-19)
(13.6006 -25.8269 -5.58325e-19)
(13.3579 -25.5485 7.77462e-19)
(13.1005 -25.3301 -4.59738e-19)
(12.8809 -25.1454 5.17812e-19)
(12.6384 -24.9452 -9.8238e-19)
(12.3978 -24.7515 3.48817e-19)
(12.2113 -24.6643 0)
(12.0032 -24.5468 0)
(11.804 -24.4435 0)
(11.6148 -24.3632 -6.11763e-19)
(11.4271 -24.2861 6.02294e-19)
(11.2352 -24.2026 0)
(11.0488 -24.1291 0)
(10.8805 -24.0435 -5.11226e-20)
(10.6387 -23.9807 0)
(10.5465 -23.7651 -4.23476e-19)
(3.73222 -7.29905 -4.46041e-19)
(10.8724 -18.6887 -1.10801e-18)
(14.2553 -24.7639 -7.65474e-19)
(14.4368 -25.4311 -1.25273e-19)
(14.1307 -25.247 9.95308e-19)
(13.836 -24.9846 -2.05756e-19)
(13.5249 -24.7544 -4.49074e-20)
(13.2399 -24.5525 -6.30713e-19)
(12.9797 -24.3795 0)
(12.7321 -24.2676 -2.94187e-19)
(12.5048 -24.1426 4.6806e-19)
(12.2549 -24.0112 0)
(12.0514 -23.9412 5.79887e-19)
(11.8385 -23.8604 -5.70773e-19)
(11.6247 -23.7693 4.7618e-19)
(11.405 -23.6657 -8.50032e-19)
(11.2134 -23.6163 4.24871e-19)
(11.0316 -23.554 5.11222e-20)
(10.7918 -23.4972 -3.59921e-20)
(10.6857 -23.2857 2.91512e-19)
(4.36568 -7.79563 -6.09386e-19)
(11.8864 -18.8824 4.26118e-20)
(14.9587 -24.3521 6.27235e-20)
(15.0731 -24.7388 1.37186e-18)
(14.647 -24.5139 1.02529e-19)
(14.3364 -24.2704 -7.0675e-19)
(14 -24.0766 -4.7104e-19)
(13.7052 -23.9182 1.57826e-19)
(13.3972 -23.7385 5.06032e-19)
(13.0919 -23.5684 -5.13762e-19)
(12.8518 -23.5022 2.46853e-19)
(12.5914 -23.4023 -6.02751e-19)
(12.3429 -23.318 4.74359e-19)
(12.1122 -23.2557 -4.27598e-19)
(11.8838 -23.1999 3.77662e-19)
(11.6519 -23.1294 2.8626e-19)
(11.4316 -23.0664 -3.31454e-19)
(11.2203 -23.0111 2.33932e-19)
(10.9763 -22.9758 -2.21027e-19)
(10.8611 -22.7721 -2.25494e-19)
(4.934 -8.04372 -7.61487e-19)
(12.7604 -18.8336 -1.35785e-19)
(15.6113 -23.7304 6.9974e-19)
(15.5649 -23.9355 -5.91742e-19)
(15.1137 -23.7482 5.80812e-19)
(14.7431 -23.5333 1.29759e-19)
(14.3621 -23.332 0)
(13.9992 -23.1674 -8.65674e-20)
(13.6787 -23.0257 2.26466e-19)
(13.3689 -22.9387 -7.89919e-19)
(13.0864 -22.8418 5.49353e-19)
(12.7862 -22.7377 1.12441e-19)
(12.5341 -22.6915 5.61747e-20)
(12.2788 -22.6337 0)
(12.0233 -22.5715 1.38523e-20)
(11.7659 -22.4914 2.33056e-19)
(11.5415 -22.4593 -3.36768e-20)
(11.3165 -22.43 1.39918e-20)
(11.0768 -22.4135 -1.59859e-19)
(10.9543 -22.2283 2.81103e-20)
(5.50428 -8.1994 6.87595e-19)
(13.5929 -18.5899 -1.17386e-18)
(16.2114 -22.9146 6.44135e-19)
(16.0615 -23.0268 5.16653e-19)
(15.5504 -22.832 -5.72053e-20)
(15.1485 -22.6477 -3.4838e-19)
(14.7501 -22.4978 8.02931e-20)
(14.3825 -22.3853 8.65581e-20)
(14.012 -22.2415 0)
(13.6482 -22.1092 0)
(13.3618 -22.0844 -3.62198e-19)
(13.0534 -22.0143 5.77714e-19)
(12.7573 -21.9578 -2.97946e-19)
(12.4909 -21.9272 0)
(12.2276 -21.9101 1.50082e-20)
(11.9599 -21.8615 -1.3002e-19)
(11.7024 -21.8132 1.23868e-19)
(11.4516 -21.7944 -1.54152e-20)
(11.2148 -21.808 -2.41437e-20)
(11.0833 -21.6336 2.37296e-20)
(6.03364 -8.24562 -6.01099e-19)
(14.298 -18.2089 7.5092e-19)
(16.6815 -21.9818 0)
(16.3999 -22.0289 0)
(15.887 -21.8968 8.64584e-20)
(15.432 -21.7532 -4.03787e-19)
(14.9932 -21.6028 2.36112e-20)
(14.5671 -21.496 2.56068e-19)
(14.1965 -21.4068 -3.55128e-19)
(13.8297 -21.3525 6.34885e-19)
(13.4971 -21.2951 -2.80986e-19)
(13.1582 -21.237 4.76442e-20)
(12.863 -21.2276 1.27684e-19)
(12.5683 -21.1983 -3.8949e-20)
(12.2788 -21.1778 -6.06097e-20)
(11.9949 -21.1376 9.65513e-21)
(11.7373 -21.1337 2.54569e-20)
(11.4678 -21.1313 -3.02407e-20)
(11.2373 -21.1597 1.42542e-20)
(11.1104 -21.0285 -8.49366e-20)
(6.50362 -8.19704 0)
(14.936 -17.6397 3.28232e-19)
(17.0469 -20.9872 -3.71559e-19)
(16.7361 -20.9662 0)
(16.17 -20.8428 -8.64497e-20)
(15.6972 -20.7415 2.22652e-19)
(15.2554 -20.6497 -2.78498e-19)
(14.8312 -20.5961 0)
(14.4092 -20.5019 1.97521e-19)
(13.999 -20.4174 -1.94237e-19)
(13.6768 -20.4473 2.81815e-21)
(13.328 -20.4118 -1.50744e-20)
(12.9918 -20.3937 -8.87823e-21)
(12.6987 -20.4101 -3.34235e-21)
(12.4072 -20.4398 9.75024e-20)
(12.1095 -20.4173 -2.21922e-19)
(11.8164 -20.4001 2.79939e-19)
(11.5304 -20.4202 -3.27318e-19)
(11.2913 -20.4677 1.57756e-19)
(11.1616 -20.3654 -1.99477e-20)
(6.94861 -8.07176 0)
(15.4699 -16.9827 -3.53426e-19)
(17.2938 -19.8587 1.96679e-19)
(16.8865 -19.8482 1.80044e-19)
(16.3498 -19.7815 -5.12206e-20)
(15.8206 -19.7289 -4.50603e-20)
(15.344 -19.6412 -1.25157e-19)
(14.8756 -19.6035 0)
(14.4704 -19.5839 0)
(14.0543 -19.562 0)
(13.6811 -19.552 -2.81782e-21)
(13.3209 -19.5548 0)
(12.9871 -19.581 1.96187e-19)
(12.6557 -19.5796 -1.654e-19)
(12.3467 -19.6184 2.3528e-19)
(12.049 -19.6304 -4.94774e-19)
(11.7531 -19.6625 2.59124e-19)
(11.4456 -19.6793 3.45038e-19)
(11.1853 -19.7378 -6.18926e-19)
(11.0697 -19.6454 3.33936e-19)
(7.34932 -7.86424 0)
(15.8977 -16.197 0)
(17.4808 -18.686 6.56701e-20)
(17.0176 -18.6937 5.09131e-20)
(16.4584 -18.6349 0)
(15.9308 -18.631 2.89147e-20)
(15.4603 -18.6115 -2.84085e-20)
(15.0005 -18.6181 0)
(14.5417 -18.5853 -1.46332e-19)
(14.1018 -18.5566 1.43897e-19)
(13.7512 -18.6393 0)
(13.3719 -18.639 2.85989e-19)
(13.0088 -18.6707 1.26466e-20)
(12.6911 -18.7253 -3.17195e-19)
(12.3693 -18.7836 0)
(12.0461 -18.7905 0)
(11.713 -18.8291 0)
(11.4131 -18.8571 4.07294e-19)
(11.0813 -18.8596 -4.46525e-19)
(10.9174 -18.8145 0)
(8.15668 -27.0084 0)
(7.7638 -26.5837 0)
(6.95917 -26.5889 -2.33236e-21)
(6.5383 -26.5086 -2.24524e-21)
(5.89211 -26.5586 0)
(5.45112 -26.5213 -1.176e-23)
(4.94951 -26.5504 2.0767e-21)
(4.51616 -26.5911 0)
(4.0615 -26.6645 1.87711e-21)
(3.65346 -26.6766 0)
(3.24843 -26.6872 -1.7919e-21)
(2.90343 -26.6882 -8.81747e-22)
(2.54238 -26.6885 8.86572e-22)
(2.25826 -26.681 1.66855e-21)
(1.92623 -26.6699 0)
(1.6991 -26.5922 -3.98536e-22)
(1.40458 -26.4316 1.55971e-21)
(1.22541 -24.9042 0)
(0.740166 -20.0523 0)
(0.245022 -10.8209 1.4939e-21)
(8.19766 -26.7889 1.20663e-20)
(7.82398 -26.4016 0)
(7.00952 -26.4017 1.12087e-20)
(6.52781 -26.3117 -6.68019e-21)
(5.90459 -26.4192 0)
(5.4384 -26.421 -9.83285e-21)
(4.90085 -26.435 3.92013e-21)
(4.44677 -26.4602 0)
(3.99686 -26.5343 1.7282e-21)
(3.59343 -26.5541 -3.62336e-21)
(3.19609 -26.5723 5.24029e-21)
(2.85757 -26.5834 -6.84475e-21)
(2.50531 -26.5974 5.04621e-21)
(2.23463 -26.6004 -1.71394e-21)
(1.91002 -26.5978 -1.62399e-21)
(1.69871 -26.5246 1.54057e-21)
(1.418 -26.3674 -2.47854e-21)
(1.22974 -24.8035 -3.69309e-21)
(0.724792 -19.8802 -1.80963e-21)
(0.256002 -10.6709 -1.86323e-21)
(8.32111 -26.5523 -2.97073e-21)
(7.91383 -26.2114 -1.10155e-20)
(7.00436 -26.2133 -8.26061e-21)
(6.56745 -26.1694 0)
(5.92518 -26.2456 0)
(5.46177 -26.2246 1.1248e-20)
(4.96664 -26.2689 -2.51783e-22)
(4.524 -26.3245 -1.87017e-22)
(4.07713 -26.4145 -1.92383e-22)
(3.6683 -26.4429 -6.87164e-21)
(3.26765 -26.4716 0)
(2.92404 -26.4893 0)
(2.56478 -26.5062 0)
(2.28312 -26.5105 -6.13079e-21)
(1.95114 -26.5148 0)
(1.72857 -26.4505 -5.91161e-21)
(1.43043 -26.3036 4.63028e-21)
(1.23764 -24.7268 2.22622e-21)
(0.745315 -19.7964 3.64422e-21)
(0.263491 -10.5559 5.61684e-21)
(8.36965 -26.3099 1.91168e-20)
(7.96684 -26.0104 -3.76334e-20)
(7.06655 -26.0175 2.81217e-22)
(6.55999 -25.9701 1.58091e-20)
(5.93905 -26.0983 0)
(5.45109 -26.1224 1.3837e-20)
(4.92449 -26.1546 -3.39519e-20)
(4.4571 -26.1937 2.0132e-20)
(4.01462 -26.284 -1.29986e-20)
(3.60902 -26.3208 6.3658e-21)
(3.21552 -26.3576 -2.28301e-22)
(2.87738 -26.3847 -6.15367e-21)
(2.52623 -26.4153 6.18357e-21)
(2.25745 -26.4305 3.15721e-21)
(1.93242 -26.4434 2.98753e-21)
(1.72525 -26.3841 5.90806e-21)
(1.44092 -26.2405 -5.75716e-21)
(1.24031 -24.633 2.80757e-21)
(0.732078 -19.6418 -1.39846e-21)
(0.273143 -10.4111 -5.60803e-21)
(8.50845 -26.0536 4.23679e-20)
(8.06216 -25.8062 8.92459e-21)
(7.06432 -25.8125 -1.52728e-20)
(6.60817 -25.8202 2.17883e-20)
(5.97349 -25.9265 0)
(5.4745 -25.9253 -6.38298e-21)
(4.99034 -25.9865 6.6034e-21)
(4.53446 -26.0569 0)
(4.09556 -26.1651 3.81408e-22)
(3.68355 -26.2105 0)
(3.28619 -26.2575 -1.20138e-20)
(2.9427 -26.2914 0)
(2.58423 -26.3249 0)
(2.30426 -26.3414 -1.12828e-20)
(1.9714 -26.3614 5.7132e-21)
(1.75277 -26.3109 -5.45567e-21)
(1.45047 -26.178 0)
(1.24652 -24.5632 1.34793e-21)
(0.749458 -19.5658 -1.34996e-21)
(0.281076 -10.2965 0)
(8.57283 -25.7853 1.66802e-20)
(8.10494 -25.5794 -1.56308e-20)
(7.14372 -25.6102 3.34118e-20)
(6.60656 -25.6249 -3.45078e-20)
(5.99378 -25.7717 1.19797e-20)
(5.47012 -25.8192 6.40275e-21)
(4.95587 -25.8736 -1.15088e-20)
(4.47067 -25.9259 -1.13642e-20)
(4.03478 -26.0347 6.00398e-21)
(3.62464 -26.0887 1.13864e-20)
(3.23403 -26.1443 -5.58215e-21)
(2.89522 -26.1874 0)
(2.54428 -26.2345 0)
(2.27664 -26.2618 3.72461e-22)
(1.9505 -26.2906 -5.46079e-21)
(1.74683 -26.2455 5.45034e-21)
(1.45824 -26.1165 0)
(1.24824 -24.4775 -1.02537e-20)
(0.738031 -19.4301 -9.57491e-21)
(0.289582 -10.157 -6.47747e-22)
(8.71891 -25.5012 -4.70585e-20)
(8.20575 -25.3653 4.73276e-20)
(7.15818 -25.3926 -1.3343e-20)
(6.65503 -25.4612 0)
(6.02902 -25.5996 -1.20304e-20)
(5.48823 -25.6215 2.25304e-20)
(5.01844 -25.7034 -1.10633e-20)
(4.54616 -25.788 1.13961e-20)
(4.11561 -25.916 0)
(3.69864 -25.9789 0)
(3.30369 -26.0446 1.06254e-20)
(2.95916 -26.0944 -1.06645e-20)
(2.60053 -26.1447 0)
(2.32137 -26.1731 1.58423e-20)
(1.98717 -26.2099 -5.20223e-21)
(1.77173 -26.1733 -5.07852e-21)
(1.46512 -26.0558 4.08493e-21)
(1.25325 -24.4156 1.27426e-20)
(0.752424 -19.3618 6.43506e-21)
(0.29792 -10.0439 1.2487e-21)
(8.81008 -25.1895 0)
(8.24866 -25.1082 -2.55572e-20)
(7.24499 -25.1826 2.56315e-20)
(6.66173 -25.2688 0)
(6.06295 -25.4366 0)
(5.49288 -25.5113 -2.07828e-20)
(4.99085 -25.592 2.08447e-20)
(4.48584 -25.6567 0)
(4.05617 -25.7861 1.01084e-20)
(3.63993 -25.8574 -2.02027e-20)
(3.25125 -25.9322 1.00937e-20)
(2.91119 -25.9911 9.97265e-21)
(2.55956 -26.0549 -1.00029e-20)
(2.29193 -26.094 0)
(1.96412 -26.1397 0)
(1.76329 -26.1089 -4.87393e-21)
(1.47041 -25.9962 5.86179e-21)
(1.25428 -24.3388 -9.42143e-24)
(0.742176 -19.2454 -3.61772e-21)
(0.305666 -9.90994 1.20423e-21)
(8.9475 -24.9071 2.6259e-20)
(8.35056 -24.8906 -2.63621e-20)
(7.27813 -24.9468 -3.0813e-20)
(6.70596 -25.0918 4.11564e-20)
(6.09254 -25.2627 -3.94643e-20)
(5.50644 -25.3118 2.06773e-22)
(5.04907 -25.4197 1.91566e-20)
(4.55879 -25.5181 0)
(4.13603 -25.6671 0)
(3.71304 -25.7479 9.03808e-21)
(3.31964 -25.8328 0)
(2.97346 -25.8983 0)
(2.61375 -25.9653 0)
(2.33425 -26.0062 0)
(1.99806 -26.0595 0)
(1.78504 -26.0378 0)
(1.47487 -25.9379 -3.7293e-21)
(1.25815 -24.285 4.65421e-21)
(0.753241 -19.1848 -1.15788e-21)
(0.314492 -9.79924 1.1584e-21)
(9.08169 -24.5394 -2.41663e-20)
(8.40259 -24.6099 -3.43226e-20)
(7.36393 -24.7261 -8.81506e-21)
(6.72135 -24.8936 -8.23688e-21)
(6.14056 -25.0942 8.9745e-21)
(5.51692 -25.1976 2.56707e-20)
(5.0238 -25.3086 8.24309e-21)
(4.50131 -25.3867 0)
(4.07788 -25.5378 -9.07444e-21)
(3.65519 -25.6268 1.67819e-20)
(3.26724 -25.721 8.50407e-21)
(2.92536 -25.7956 8.48181e-21)
(2.57204 -25.876 0)
(2.30331 -25.9275 8.57762e-21)
(1.97308 -25.9895 8.71642e-21)
(1.7737 -25.9744 0)
(1.47797 -25.8805 0)
(1.25818 -24.2182 0)
(0.743188 -19.0879 0)
(0.322048 -9.67122 0)