/*--------------------------------*- C++ -*----------------------------------*\
  =========                 |
  \\      /  F ield         | OpenFOAM: The Open Source CFD Toolbox
   \\    /   O peration     | Website:  https://openfoam.org
    \\  /    A nd           | Version:  9
     \\/     M anipulation  |
\*---------------------------------------------------------------------------*/
FoamFile
{
    format      ascii;
    class       volScalarField;
    location    "20";
    object      nut;
}
// * * * * * * * * * * * * * * * * * * * * * * * * * * * * * * * * * * * * * //

dimensions      [0 2 -1 0 0 0 0];

internalField   nonuniform List<scalar> 
46400
(
0.017304
0.00515128
0.0014538
0.0013652
0.00127883
0.0012843
0.00119881
0.00116713
0.00112091
0.00109384
0.00104146
0.00101486
0.000984673
0.000954041
0.000920064
0.000908098
0.00086702
0.000804974
0.00109667
0.00093818
0.0169143
0.00412295
0.00120913
0.00142013
0.00129436
0.00130233
0.00122588
0.00121304
0.00115967
0.00112921
0.0010888
0.0010526
0.00102065
0.000980474
0.000957153
0.000915063
0.000864353
0.000794036
0.00101107
0.000877872
0.0164686
0.00368107
0.00119743
0.00141777
0.00130957
0.00132061
0.00124309
0.00120252
0.00115529
0.00112045
0.00107289
0.00103829
0.00101864
0.000985658
0.00096684
0.000953857
0.000882139
0.000824021
0.00112688
0.00100674
0.0158391
0.00448459
0.00133438
0.00147353
0.00135318
0.00135298
0.00129008
0.00125905
0.00119491
0.00115216
0.00110625
0.00105965
0.00102092
0.000978618
0.000949296
0.000958879
0.000944225
0.000823366
0.00108592
0.000988178
0.0151935
0.00463955
0.00138958
0.00149505
0.00136989
0.00136675
0.00129667
0.00126732
0.00122007
0.0011659
0.00111254
0.00106328
0.00104448
0.00100312
0.000963973
0.000931711
0.000920496
0.000868793
0.00112293
0.00104842
0.014477
0.00437475
0.00146524
0.0015631
0.00141579
0.00138668
0.00132792
0.0012906
0.001257
0.00121094
0.00117033
0.00109954
0.00105485
0.00103439
0.00100791
0.000955136
0.000895083
0.000837182
0.00107711
0.00101009
0.0134235
0.00357972
0.00144814
0.00152869
0.00140641
0.00135769
0.00129739
0.00125352
0.00123667
0.0011978
0.00117536
0.00112838
0.00105852
0.00100564
0.000994206
0.00097852
0.000933492
0.000864626
0.00107236
0.00101537
0.0111688
0.00273711
0.00152128
0.00152204
0.00145
0.00137359
0.00132459
0.00125427
0.00122732
0.00118353
0.00118009
0.00118463
0.00116292
0.00107462
0.00101777
0.000985924
0.000934223
0.000872136
0.00104725
0.00100585
0.0088337
0.00221905
0.00150824
0.00146188
0.00142035
0.00134077
0.00129625
0.00122246
0.0011985
0.0011293
0.00105862
0.00104297
0.00107254
0.00107129
0.00103437
0.00100633
0.000960775
0.000889213
0.00103269
0.000993765
0.00707984
0.00193114
0.00152222
0.00147197
0.00147624
0.00139848
0.00134756
0.00125107
0.0012243
0.00122186
0.00116456
0.00107399
0.00103792
0.00102555
0.00101515
0.000982931
0.000948667
0.000882917
0.0009861
0.000969344
0.00572314
0.00172257
0.00151913
0.00140765
0.00141521
0.00139453
0.00138213
0.00127111
0.00118574
0.00113272
0.00113244
0.00108575
0.00105051
0.00101995
0.0010328
0.00102338
0.000994901
0.000940605
0.00101773
0.00098501
0.00474715
0.00161679
0.00152448
0.00140546
0.00139058
0.0013544
0.00142996
0.00142095
0.00134017
0.00123597
0.00117705
0.00110814
0.00105234
0.000977021
0.00094222
0.000946579
0.000933563
0.000907473
0.000966566
0.000950132
0.00407746
0.00149727
0.00149394
0.00144117
0.00139948
0.00124458
0.00122595
0.00125821
0.00129548
0.00126924
0.00126691
0.0012233
0.00117732
0.00112524
0.00104399
0.00100122
0.000976161
0.000939869
0.00101048
0.000962953
0.00414933
0.00164643
0.00166434
0.00157081
0.00157964
0.00144523
0.00129038
0.00119772
0.00115761
0.00110791
0.00108461
0.00110093
0.00108249
0.00106606
0.00104011
0.000984555
0.000957121
0.000909587
0.000979864
0.0009657
0.00414967
0.00157086
0.00144505
0.00133419
0.00136095
0.0013878
0.00138316
0.00133362
0.00129524
0.00125313
0.00117375
0.00112491
0.00112251
0.0010856
0.00107628
0.00104097
0.000993644
0.000935029
0.000972026
0.000945527
0.00372703
0.0017115
0.00154661
0.00146587
0.00138727
0.00139004
0.00137612
0.00133423
0.00127705
0.00125475
0.00122357
0.00115465
0.00111163
0.00108665
0.00105649
0.00104088
0.00100442
0.000946609
0.000958811
0.000918715
0.00257307
0.00160661
0.00166461
0.0016125
0.0014927
0.0014286
0.00131238
0.00130495
0.0012487
0.00121152
0.00118057
0.00115549
0.00110546
0.00107047
0.00104652
0.00101943
0.00100869
0.000953634
0.000987456
0.000944463
0.00147563
0.00159835
0.00175109
0.00154927
0.00152747
0.00142966
0.00138231
0.00131938
0.00127671
0.00123439
0.00120685
0.00116838
0.00114329
0.00109511
0.00106135
0.00102637
0.000996155
0.000949287
0.00097173
0.000944805
0.00137461
0.00169738
0.00147581
0.00151976
0.00150726
0.00143365
0.00140749
0.00134403
0.00130679
0.00124433
0.00121502
0.00117366
0.00114979
0.00111971
0.00108376
0.00105779
0.00101753
0.000969624
0.000981593
0.000951725
0.00219843
0.00165641
0.00153434
0.0016272
0.00150223
0.00144743
0.00141923
0.0013501
0.00133425
0.00127265
0.00122154
0.00118101
0.00114221
0.00110475
0.00107522
0.00105356
0.00102219
0.000978014
0.000996302
0.000958936
0.000674536
0.00053271
0.0061321
0.0100688
0.00903887
0.00487049
0.00173072
0.000398574
0.000132824
0.000225661
0.000309517
0.0002655
0.000219918
0.000313157
0.000325387
0.000301976
0.000203991
0.00015717
0.000173053
0.000231689
6.89559e-25
0.00399804
0.00893245
0.0102656
0.00658247
0.00259787
0.00058342
0.000130726
0.000209951
0.000297757
0.000288866
0.000279766
0.000335489
0.000341539
0.000257178
0.000233814
0.000239224
0.000234976
0.00017527
0.00025785
0.000294808
0.00631288
0.0103524
0.00892137
0.00444413
0.00111903
0.000139908
0.000203353
0.00029603
0.000322501
0.000331242
0.000346481
0.000301155
0.000282572
0.000281782
0.000336148
0.000228877
0.000148651
0.000143169
0.000302661
0.00169406
0.0088226
0.0108893
0.00712123
0.00224246
0.000169898
0.000113729
0.00031391
0.000356848
0.000359405
0.000358493
0.000316293
0.000328303
0.000373976
0.000350006
0.000262395
0.000150394
0.000213985
0.000246585
0.000374013
0.00430682
0.00989589
0.0104314
0.00538032
0.000843586
0.000180866
0.000344174
0.000394378
0.000388097
0.000377753
0.000372958
0.000387141
0.00039
0.000354331
0.000284861
0.000286596
0.000225986
0.000241585
0.000260611
0.000404096
0.00642953
0.0110605
0.00930239
0.00304849
0.000205102
0.000259015
0.000428562
0.00046688
0.000418597
0.000435653
0.000446086
0.000403851
0.000376136
0.000394742
0.000393128
0.000306802
0.000179575
0.000263198
0.000360391
0.000483851
0.00831286
0.0115278
0.00821011
0.00141008
0.000192432
0.000436845
0.000542683
0.000510866
0.000482804
0.000484895
0.000456683
0.000443859
0.000463223
0.000438449
0.000336427
0.000301408
0.000259277
0.000363717
0.000439155
0.000507711
0.0105773
0.0117047
0.00689613
0.000521806
0.000292039
0.000612985
0.000621307
0.000542525
0.000541648
0.000523737
0.000529296
0.000497398
0.000451447
0.000440111
0.00043988
0.000386987
0.000280849
0.000400107
0.000491419
0.000540819
0.0124937
0.0116647
0.0048992
0.000303574
0.000481498
0.00067094
0.000681005
0.000627324
0.00059353
0.000595621
0.000556181
0.000520748
0.00053948
0.0005241
0.000436471
0.000393004
0.000351187
0.000506326
0.000531012
0.000537975
0.0146401
0.0114235
0.00314462
0.000168442
0.000703304
0.000810237
0.000737531
0.000673868
0.000661265
0.000624243
0.000621164
0.000595634
0.000541473
0.000518505
0.000533449
0.000489075
0.000395398
0.000505364
0.000510186
0.000557924
0.0153209
0.0110181
0.00207552
0.000263754
0.000807366
0.000827854
0.000808066
0.000753999
0.000707944
0.000699457
0.000656931
0.000612063
0.000620675
0.000612156
0.000546337
0.000483066
0.000447484
0.000557297
0.000499711
0.000549399
0.0162621
0.0107069
0.00126566
0.000475086
0.000919513
0.000917614
0.000857216
0.000786088
0.000770183
0.000725546
0.000714256
0.000692422
0.000633476
0.000606165
0.000633163
0.000579838
0.000504699
0.000567541
0.000491014
0.000587618
0.0168538
0.0102009
0.00114927
0.000654049
0.000973607
0.000928016
0.000933729
0.000864418
0.000813363
0.000798237
0.000752837
0.00071041
0.000705224
0.000692342
0.000643782
0.000576706
0.000566671
0.000606457
0.000463131
0.000597023
0.0173706
0.00985022
0.0010697
0.000810842
0.00108609
0.001
0.000975378
0.000904487
0.000875327
0.00083083
0.000810111
0.000787669
0.00072555
0.000698009
0.000724231
0.000667102
0.00062543
0.000641769
0.000479659
0.000645122
0.017768
0.00944136
0.00175814
0.000963817
0.0011055
0.00103207
0.00102983
0.000965892
0.000906532
0.000889205
0.000840442
0.00080703
0.000790525
0.000763726
0.000723339
0.000678911
0.000694845
0.000687153
0.000474983
0.000662048
0.0179045
0.00916022
0.00208476
0.00101973
0.00119339
0.00108364
0.00107049
0.00101732
0.000974752
0.000931318
0.000902319
0.000874535
0.000818699
0.000795886
0.000803933
0.000755787
0.000750192
0.000734181
0.000497357
0.00068791
0.0180825
0.00897134
0.00202335
0.00110156
0.00122309
0.00112514
0.00110448
0.00105782
0.000993184
0.000976076
0.000924
0.000901163
0.000878929
0.00084739
0.000816955
0.000789473
0.000810657
0.000776211
0.000515859
0.000678466
0.017975
0.00812644
0.00168359
0.00112934
0.00125264
0.00117658
0.00113486
0.00111822
0.00106694
0.00102832
0.000994822
0.000963735
0.000923065
0.000902853
0.000889869
0.000857158
0.000877658
0.000845014
0.000568058
0.000747662
0.0178932
0.00718074
0.00198927
0.00123159
0.00126434
0.00121901
0.00116243
0.00113199
0.00107663
0.00105967
0.00100982
0.000991913
0.000965575
0.000938203
0.000913542
0.00089596
0.000940053
0.000926469
0.000632324
0.000766289
0.0176154
0.00598717
0.00164463
0.0012844
0.00127433
0.0012539
0.00118437
0.00118749
0.00113627
0.00110514
0.00107283
0.00104483
0.00102433
0.00100625
0.000994888
0.00100617
0.00103094
0.000994841
0.00087989
0.00095619
0.00280974
0.00242911
0.00205408
0.00162131
0.00159835
0.00146624
0.00135532
0.00125163
0.00108533
0.000926182
0.000833937
0.000704913
0.000650848
0.000626716
0.000522236
0.000667917
0.000386664
0.00574007
0.0106113
0.0159945
0.00305687
0.00235751
0.00206475
0.00158989
0.00166422
0.00159748
0.00144398
0.00131173
0.00108721
0.000911308
0.000796706
0.000680642
0.00063645
0.000597315
0.00049227
0.000617886
0.000304187
0.00576662
0.0105517
0.0159125
0.00343916
0.00239237
0.00206303
0.00166747
0.00169413
0.00152806
0.00134672
0.00127001
0.00107235
0.000917522
0.0008189
0.000704565
0.000668646
0.000618874
0.000502198
0.000624057
0.000249023
0.00573341
0.0106254
0.0158233
0.00367469
0.00231135
0.00210007
0.00169663
0.00175193
0.00164422
0.00142381
0.00131257
0.00106209
0.000902427
0.000781445
0.00068514
0.000664645
0.000608664
0.00048153
0.000597184
0.000140761
0.00572916
0.0105529
0.0157344
0.00389675
0.00234718
0.00215511
0.00180125
0.00178916
0.00156785
0.00131974
0.00126726
0.00104538
0.000907615
0.000805021
0.000714617
0.000696114
0.000636245
0.000503798
0.000623346
9.79446e-05
0.005713
0.0106232
0.0156415
0.00402383
0.00232391
0.00224255
0.00186853
0.00180876
0.00164765
0.00139301
0.00129251
0.00102602
0.000891308
0.000770042
0.000697189
0.000694449
0.000629453
0.000484629
0.000599418
9.2485e-05
0.00568906
0.010568
0.0155691
0.00401343
0.00247169
0.00226717
0.00192624
0.00188354
0.00157966
0.00130013
0.00124049
0.00100453
0.000892583
0.000793882
0.000731193
0.00072193
0.000660834
0.00050692
0.000612885
8.42833e-05
0.00568399
0.0106057
0.0155233
0.00393968
0.00250844
0.00249206
0.00202721
0.00187318
0.00160081
0.0013551
0.00125113
0.000983445
0.000877344
0.000760617
0.000713142
0.000716763
0.000653971
0.000499896
0.000588688
9.24214e-05
0.00566617
0.0105666
0.0154931
0.00403253
0.00275802
0.00246898
0.00191392
0.00195316
0.00156223
0.00129695
0.00120429
0.000959826
0.000876616
0.000786894
0.000748331
0.000742419
0.000686489
0.000524015
0.000600863
8.34351e-05
0.00564793
0.0105779
0.015474
0.00412067
0.00279134
0.00269572
0.00204924
0.00193258
0.00154001
0.0013102
0.00119393
0.000942685
0.00086196
0.000756126
0.000730984
0.000733421
0.000679999
0.000526865
0.000581283
9.0457e-05
0.00562381
0.0105597
0.0154405
0.00430152
0.00308636
0.00261981
0.00191651
0.00195446
0.00151362
0.00129764
0.00116677
0.000922622
0.000866957
0.000786029
0.000764329
0.000757428
0.000710941
0.000551023
0.00059269
9.2865e-05
0.00561334
0.0105606
0.0154078
0.0044795
0.00312623
0.0026814
0.00201715
0.0019667
0.00148811
0.00127654
0.0011438
0.000911748
0.000850348
0.000756749
0.000749644
0.000747
0.000705496
0.000557415
0.000576696
0.00015558
0.0056007
0.0105627
0.0153744
0.00470098
0.00330643
0.00262953
0.00195353
0.00190272
0.00145393
0.00127929
0.00113278
0.000899329
0.000863088
0.000790153
0.000781299
0.000769178
0.000732335
0.000582545
0.000587156
0.000209147
0.00558239
0.0105594
0.0153562
0.00498635
0.00331595
0.00251998
0.00199283
0.00192681
0.00145896
0.00125518
0.00111598
0.000897068
0.000844776
0.000763024
0.000770132
0.000757931
0.000729054
0.000590285
0.000577304
0.000270658
0.00556315
0.0105927
0.0153365
0.00511208
0.00331651
0.00249274
0.00202867
0.00183204
0.00141857
0.00125171
0.00111507
0.000892933
0.000862074
0.000795683
0.000797884
0.000777259
0.000753987
0.000615979
0.000590617
0.000346433
0.0055573
0.0105835
0.0153534
0.00536851
0.00336842
0.0023566
0.00201204
0.0018314
0.00143859
0.00123923
0.00110513
0.000890525
0.000839769
0.000772415
0.000788319
0.00076408
0.000747039
0.00062674
0.000585788
0.000397885
0.00552494
0.0105761
0.0153987
0.00550476
0.0032999
0.00230275
0.0020927
0.0017701
0.00141651
0.00123875
0.00110297
0.000890449
0.000863377
0.000805625
0.000811611
0.000779909
0.000768951
0.000648016
0.000601596
0.000437577
0.00543188
0.0105789
0.0153746
0.00557316
0.0034075
0.00220093
0.00208071
0.00178479
0.00144462
0.00124423
0.00111292
0.000907467
0.000860629
0.000799117
0.000808504
0.000768562
0.000778029
0.000663043
0.00064371
0.000485422
0.00546321
0.0106455
0.0153698
0.00552811
0.00318454
0.00204931
0.00212954
0.00169045
0.00140433
0.00121248
0.00108072
0.000889101
0.000867929
0.000812914
0.00081283
0.000772345
0.00076406
0.000662068
0.000633962
0.000526613
0.00544128
0.0106849
0.0155798
0.005736
0.00324956
0.00230219
0.0021156
0.00170314
0.00145449
0.00124951
0.00111015
0.000935227
0.000897142
0.000830374
0.000825226
0.000770314
0.000771351
0.000704392
0.00066384
0.000521012
0.00506803
0.0105536
0.0150694
0.0213187
0.0292615
0.0138751
0.0214634
0.017566
0.0155168
0.0134806
0.0120839
0.0102488
0.00986198
0.00906942
0.00879617
0.00803574
0.00774255
0.00713667
0.00728085
0.0129316
0.0482585
0.0998185
0.13878
0.0299055
0.0208298
0.0182328
0.0154301
0.0141605
0.012266
0.0112433
0.00990874
0.00876447
0.00848944
0.00751654
0.00733582
0.00667978
0.0064257
0.00608946
0.00527398
0.0130401
0.0480821
0.0989631
0.13613
0.0128715
0.0147178
0.0134719
0.0105451
0.0100879
0.00920321
0.00872117
0.00819133
0.00773144
0.0071449
0.00679974
0.00642356
0.00614393
0.00601085
0.00587893
0.00561534
0.0101589
0.0455411
0.0963776
0.133525
0.0122489
0.0109595
0.00932342
0.0075315
0.0075071
0.00730997
0.00712271
0.00650921
0.00636666
0.00608421
0.00578872
0.00546399
0.00511362
0.00491183
0.0049056
0.00385311
0.0106474
0.0402561
0.0963935
0.128961
0.00544185
0.00709154
0.00716558
0.00570736
0.00548627
0.00544184
0.00548865
0.00553894
0.00522018
0.00498382
0.0048088
0.00466988
0.0045378
0.00461646
0.00448042
0.00424057
0.00518683
0.0384259
0.0964378
0.127022
0.00554939
0.00589947
0.00511036
0.00420697
0.00395132
0.00399985
0.00406563
0.00409978
0.00429354
0.00433438
0.00430595
0.00415962
0.00396301
0.00394279
0.00401837
0.00303013
0.00783358
0.0315777
0.0967537
0.126422
0.00276193
0.00317956
0.00344965
0.0031809
0.00313242
0.00324816
0.00359521
0.00384949
0.00360638
0.00364314
0.00352845
0.00346811
0.00329379
0.00343682
0.00357817
0.00359013
0.00278987
0.0280689
0.0969547
0.128715
0.00252121
0.00299087
0.00278838
0.00244856
0.00250007
0.00241331
0.00246066
0.00287913
0.00304202
0.00316164
0.00321754
0.00333954
0.00328945
0.00355976
0.00352765
0.00283501
0.00427572
0.0200693
0.0963285
0.132496
0.00130567
0.0014859
0.00156006
0.00151714
0.00195814
0.00225588
0.00236875
0.00274623
0.00263926
0.00269022
0.00276114
0.00288559
0.00272312
0.00307537
0.00340316
0.00383498
0.00189625
0.0161718
0.0939577
0.141611
0.00105615
0.00130907
0.00150709
0.00130918
0.00131707
0.00163253
0.00152523
0.00194781
0.00214721
0.0021794
0.00238412
0.00264591
0.00273878
0.0030038
0.0033351
0.00342085
0.00221343
0.00825089
0.0894128
0.151426
0.000377878
0.000835323
0.000781955
0.000867953
0.000954205
0.00118469
0.00130392
0.00177186
0.00188966
0.00189924
0.00202596
0.00226851
0.00242535
0.0025953
0.00313048
0.00400514
0.00282323
0.00540196
0.0715349
0.163914
0.00043793
0.000581019
0.000590661
0.000719249
0.000698132
0.00087418
0.000679842
0.00101129
0.00142356
0.00165824
0.00168384
0.0020427
0.00221037
0.00260201
0.00265818
0.00344156
0.00385465
0.00348674
0.0585811
0.181439
0.000167192
0.000332831
0.000376759
0.0005588
0.000515383
0.000855191
0.000678968
0.00078032
0.00105443
0.00125446
0.00132104
0.00150358
0.00170689
0.00207069
0.00252752
0.0026368
0.003308
0.00825522
0.0343413
0.165222
0.000147121
0.000286922
7.93008e-05
0.000420153
0.000122768
0.000438192
0.000588214
0.000632373
0.000647311
0.000911889
0.000931829
0.00131344
0.0012657
0.00181429
0.0015648
0.00217185
0.00215181
0.00527
0.0208516
0.118812
0.000139214
0.000327732
9.95793e-05
0.000373895
0.00030984
0.000480629
0.000186733
0.000579003
0.000195194
0.000678225
0.000607869
0.000962436
0.000994473
0.00136076
0.00118148
0.00174912
0.00117716
0.00352467
0.00855223
0.0728333
0.000353256
0.000325772
0.000363734
0.000363017
0.000409476
0.000462276
0.000524512
0.000556661
0.000582541
0.000680152
0.00068653
0.000817104
0.000874593
0.00106111
0.00110175
0.00123881
0.000147759
0.00169889
0.00671158
0.044922
0.000455421
0.000445252
0.000442655
0.000444438
0.000460714
0.000483896
0.000499481
0.000519464
0.000568041
0.000563848
0.000601258
0.000599901
0.000596957
0.000709342
0.000468071
0.000929456
0.000437789
0.00142472
0.00241981
0.0226476
0.000497568
0.00051801
0.000543777
0.000565885
0.000560497
0.000593048
0.000582912
0.00061406
0.000586346
0.000626326
0.000598206
0.000639311
0.000619085
0.000728543
0.000793739
0.000708129
0.000503669
0.00120026
0.00345176
0.0064911
0.000478357
0.000469764
0.000476611
0.000524516
0.000557247
0.000548805
0.000572097
0.000564018
0.000586288
0.000569373
0.000588113
0.000582135
0.000574957
0.000601355
0.000524798
0.000830662
0.000481249
0.000220352
0.00182062
0.00627574
0.000359074
0.000376818
0.00038559
0.000395719
0.000407895
0.00041727
0.000430918
0.000440017
0.000456928
0.000458631
0.000480655
0.000487171
0.000498587
0.000475177
0.000615258
0.00043096
0.000333446
3.72226e-05
0.0005875
0.00399211
0.0141407
0.0140578
0.0139251
0.0138873
0.0136822
0.0136879
0.0133821
0.013234
0.0132051
0.0128891
0.0122332
0.012172
0.0117662
0.0111095
0.0108223
0.0105281
0.00980842
0.00917917
0.00743653
0.00881515
0.00696093
0.00693534
0.00688688
0.00687202
0.00676819
0.00672236
0.00663455
0.00661068
0.00630041
0.00636275
0.00618258
0.00625805
0.00628294
0.00682997
0.00780756
0.00688266
0.00565452
0.00649703
0.00629914
0.00711079
0.00418032
0.00415963
0.00415336
0.00418413
0.00420111
0.00425187
0.00430709
0.00434929
0.00445062
0.00444481
0.00437143
0.00435383
0.00420213
0.00430731
0.00358029
0.00354936
0.00344137
0.00355074
0.0032946
0.00336227
0.00269977
0.00268238
0.002652
0.00261929
0.00258501
0.00253058
0.00247002
0.00243736
0.00230906
0.00228412
0.00224686
0.00218372
0.00215142
0.00216053
0.00237193
0.00244028
0.00226356
0.00254212
0.00212859
0.00255087
0.00159001
0.00158513
0.00157907
0.00157652
0.00156904
0.00156752
0.00155736
0.00156532
0.00162177
0.00165646
0.00162003
0.00175855
0.00165185
0.00164134
0.0015188
0.00154614
0.00155355
0.00169458
0.00171544
0.00159095
0.00112567
0.00111745
0.00111007
0.00110284
0.00109588
0.00109322
0.00108652
0.00109112
0.00108035
0.00103696
0.001057
0.00100631
0.00097492
0.00101332
0.00106696
0.00109314
0.000989349
0.00103363
0.000929542
0.00103603
0.000655333
0.000650286
0.000647702
0.000642907
0.000639786
0.000635211
0.00063853
0.000644247
0.000655529
0.000674937
0.000682753
0.00069371
0.000694628
0.000742671
0.000745514
0.000728265
0.00077858
0.000848511
0.000725239
0.000730115
0.000474782
0.000466086
0.00046001
0.000455257
0.00045203
0.000453413
0.000454511
0.000460468
0.000471821
0.000482481
0.000494834
0.000515219
0.000518717
0.000520605
0.000501227
0.00052447
0.000454931
0.000428682
0.000493443
0.00053984
0.000260991
0.000253518
0.000249794
0.000253958
0.000258639
0.000261528
0.00026404
0.000271082
0.000275025
0.000278647
0.000287073
0.0003128
0.000303947
0.000290419
0.000261423
0.000335963
0.000421907
0.000316477
0.000236428
0.00024327
0.000143557
0.000141623
0.000143462
0.000150182
0.000162426
0.000176392
0.000186757
0.000189582
0.000187544
0.000181621
0.000182566
0.000192105
0.000189179
0.000180176
0.000168526
0.000133935
0.00013089
0.000258679
0.00018524
0.000153468
7.35789e-05
6.20244e-05
5.52116e-05
5.48269e-05
6.17015e-05
6.75974e-05
6.34813e-05
5.89866e-05
5.42366e-05
5.16346e-05
5.51034e-05
6.94679e-05
7.16342e-05
7.34572e-05
0.000103273
0.000133788
7.44977e-05
6.11152e-05
3.2712e-05
8.84648e-05
6.69724e-05
5.55947e-05
4.78209e-05
3.36699e-05
2.3805e-05
1.69715e-05
1.03389e-05
1.07828e-05
2.17627e-05
2.75482e-05
2.57253e-05
1.85211e-05
1.43733e-05
7.88226e-06
1.79215e-05
4.57144e-05
8.57622e-05
8.37177e-05
7.52497e-05
0.000105369
7.12581e-05
6.68892e-05
6.1064e-05
4.93729e-05
4.18537e-05
4.94788e-05
4.69383e-05
3.0787e-05
3.135e-05
2.87447e-05
1.79491e-05
1.42033e-05
1.55306e-05
1.66889e-05
2.21866e-05
3.13018e-05
9.42702e-06
2.79974e-05
2.60445e-05
4.51171e-05
8.66583e-05
8.3022e-05
7.80108e-05
7.1857e-05
6.91817e-05
6.83696e-05
6.60891e-05
5.95558e-05
5.7545e-05
5.24783e-05
4.70459e-05
4.28083e-05
3.12231e-05
5.58259e-05
3.345e-05
6.10484e-05
3.21191e-05
5.0958e-05
5.20303e-05
5.89145e-05
0.000110732
0.000104905
9.68375e-05
9.36155e-05
9.43071e-05
9.16087e-05
8.68629e-05
8.59647e-05
8.14059e-05
7.49379e-05
7.01373e-05
7.08375e-05
7.4494e-05
7.50831e-05
7.37037e-05
7.31983e-05
6.79395e-05
6.99419e-05
6.22896e-05
7.54381e-05
0.000105714
0.000103764
0.000104044
0.000106542
0.000107561
0.000106296
0.000104961
0.00010208
9.85031e-05
9.58645e-05
9.36896e-05
9.06331e-05
8.77459e-05
8.66333e-05
8.48583e-05
8.30828e-05
8.21069e-05
8.13107e-05
7.83151e-05
7.71222e-05
0.000116731
0.000118939
0.000120082
0.000119144
0.000116563
0.000115282
0.000113573
0.000111937
0.00011125
0.000111543
0.00011115
0.000110075
0.000109492
0.000108075
0.000112433
0.000111677
0.000116407
0.000111347
0.000111626
0.000103523
0.00011037
0.000109836
0.000109716
0.000111831
0.000114229
0.000115112
0.000116192
0.000117237
0.000118288
0.000118229
0.00011925
0.000119757
0.00012052
0.000118018
0.000116374
0.000115828
0.000116241
0.000115506
0.000123017
0.000125341
0.00011481
0.000115824
0.000116542
0.000116896
0.000116882
0.000116785
0.000116727
0.00011626
0.000115536
0.000114775
0.000114411
0.000113735
0.000113847
0.000112966
0.000113645
0.000112132
0.000113695
0.000113368
0.000118079
0.000117718
6.5949e-05
6.68979e-05
6.76917e-05
6.83056e-05
6.86939e-05
6.90108e-05
6.96773e-05
7.08727e-05
7.22456e-05
7.30841e-05
7.42126e-05
7.50644e-05
7.64945e-05
7.82758e-05
7.97376e-05
8.09644e-05
8.2131e-05
8.3328e-05
8.48202e-05
8.44807e-05
0.00117685
0.0015311
0.00116784
0.001186
0.00126259
0.00126889
0.00131309
0.00135488
0.00139036
0.00142585
0.00147045
0.00150628
0.00159643
0.00162391
0.00168771
0.00175141
0.00175364
0.00246981
0.00857347
0.0228934
0.00118845
0.00135066
0.00103025
0.00110943
0.00120002
0.00122982
0.00125604
0.00130137
0.00135844
0.00140603
0.00146959
0.00151087
0.00156995
0.00159956
0.00170087
0.00171116
0.00174387
0.00171701
0.00728673
0.0223988
0.00115643
0.00143865
0.00108634
0.00109941
0.00120321
0.00123223
0.00128402
0.00133192
0.00136738
0.0014033
0.00144837
0.00149726
0.0015843
0.00159962
0.00168431
0.00169645
0.0017673
0.00156548
0.00642636
0.0218528
0.00121189
0.00141226
0.00105232
0.0010958
0.00118133
0.00121137
0.00123612
0.00128751
0.00133721
0.0013867
0.00144553
0.00148685
0.00153789
0.00157122
0.00168106
0.00166964
0.00179771
0.00155834
0.00545671
0.0212652
0.00122973
0.00144886
0.00109002
0.00114019
0.00121081
0.00123329
0.00127318
0.00131633
0.00134609
0.00138864
0.00144067
0.0014996
0.00157059
0.00159068
0.00167436
0.00165561
0.00178
0.00150958
0.00463653
0.0206328
0.00123487
0.00141854
0.00107176
0.00110489
0.0011752
0.00120816
0.00124011
0.00129363
0.00133998
0.00139788
0.00144426
0.00147622
0.00153092
0.00157146
0.00166595
0.00166578
0.00181426
0.00162246
0.00557747
0.0198324
0.00121468
0.00140962
0.00109142
0.00113804
0.00122787
0.00126945
0.00128478
0.00131584
0.00134763
0.0013918
0.00143296
0.00150385
0.00155802
0.00158183
0.00168217
0.00167162
0.00183859
0.00165658
0.00546551
0.0190708
0.00124664
0.00139661
0.00108685
0.00115155
0.00120719
0.0012077
0.00122999
0.00129136
0.00133294
0.00138047
0.0014239
0.00147564
0.00152205
0.00160589
0.00167909
0.0016908
0.00185129
0.00163101
0.00558711
0.0182695
0.00123317
0.00135867
0.00108779
0.00115429
0.00119177
0.00122934
0.00128888
0.00133535
0.00134807
0.00138954
0.0014487
0.00150864
0.0015459
0.00159185
0.00163974
0.00168323
0.00183326
0.00168945
0.00459439
0.0169499
0.00122333
0.00132069
0.00109581
0.00114593
0.00119501
0.00123123
0.00125215
0.00127005
0.00129782
0.00135894
0.00140056
0.00144218
0.00149782
0.00157079
0.00160431
0.00168172
0.00172602
0.00160988
0.00368301
0.0153195
0.00115151
0.00123697
0.00105262
0.00110217
0.00116048
0.00119363
0.00121401
0.00126113
0.0013374
0.00138457
0.00140725
0.0014435
0.00147626
0.00151907
0.00158003
0.00165217
0.00172518
0.0017579
0.00309338
0.0129188
0.00115362
0.0012279
0.00107434
0.00112755
0.00117723
0.00118918
0.00122844
0.00126737
0.00128571
0.00129129
0.00131155
0.00137948
0.00143068
0.00150081
0.00153222
0.0016069
0.00166092
0.00171952
0.00256342
0.0103583
0.00107873
0.00113758
0.00103192
0.00107784
0.00112778
0.00115743
0.00119456
0.00122008
0.00125325
0.00130542
0.00138014
0.00143742
0.00145916
0.00152551
0.00156379
0.00166038
0.00166984
0.00169177
0.00219276
0.00858932
0.00109651
0.00115412
0.00104431
0.00107695
0.00111142
0.0011258
0.00116491
0.00119705
0.00124288
0.00128707
0.00131571
0.0013495
0.00138292
0.00146324
0.00152219
0.00159556
0.00161601
0.00173991
0.00195418
0.006948
0.00102925
0.00107772
0.00101788
0.00105249
0.00109015
0.00111665
0.00115545
0.00118954
0.00123577
0.00129109
0.00134473
0.00141251
0.00147636
0.00153168
0.00153576
0.00157567
0.0015633
0.00170484
0.00178795
0.00581353
0.00104342
0.0010939
0.00103383
0.00107281
0.00111535
0.00115978
0.00119421
0.00123219
0.00127024
0.0013
0.00132805
0.00135505
0.0013868
0.00141194
0.00141591
0.00150846
0.00153863
0.00168579
0.0017108
0.0049965
0.000998866
0.00104869
0.00100374
0.00104193
0.00108442
0.00110422
0.00112589
0.00115956
0.00120311
0.00122517
0.00127573
0.00131697
0.00135272
0.00143139
0.00150604
0.00161594
0.00162035
0.00173487
0.001711
0.00474845
0.000992849
0.00103905
0.00100865
0.00105518
0.00110174
0.00111656
0.00116172
0.00119842
0.00122899
0.00126819
0.00131429
0.00135248
0.00139194
0.0014337
0.00146112
0.00152261
0.00150406
0.0015731
0.00163442
0.00422687
0.000977508
0.00101042
0.000986038
0.00102557
0.00105818
0.00108389
0.00113233
0.00116533
0.00119663
0.00124537
0.00126734
0.00129841
0.00135646
0.00137817
0.00140878
0.00146336
0.0014998
0.00162116
0.00179129
0.0039685
0.000979091
0.0010075
0.000992343
0.00103476
0.0010716
0.00109985
0.00113506
0.00116194
0.00121496
0.00124942
0.00129344
0.00133833
0.0013741
0.0014305
0.00148063
0.00148705
0.00153182
0.00160552
0.00171457
0.00377776
0.00104811
0.00118997
0.00127816
0.00130022
0.0012962
0.00120173
0.00116804
0.00116445
0.00116914
0.00115856
0.00120039
0.00124573
0.00128626
0.00137093
0.00132781
0.000763345
0.000172714
0.0105961
0.0163953
0.0153824
0.00101248
0.00116706
0.00131894
0.00132979
0.0013096
0.00120969
0.00117084
0.0011686
0.00119073
0.00122814
0.00121552
0.00124431
0.00130982
0.0013845
0.00141937
0.000946263
0.000645961
0.00933128
0.0164861
0.0178928
0.00104443
0.00115265
0.00130506
0.00133673
0.00134397
0.0012603
0.00121931
0.00120579
0.00121059
0.00121923
0.00126196
0.0013059
0.00134457
0.0014114
0.00149172
0.00126182
0.00057661
0.00751271
0.0164612
0.0193344
0.00104393
0.00117663
0.00134044
0.0013362
0.00132051
0.00122916
0.0011995
0.00121106
0.00123807
0.00126536
0.00125709
0.00130014
0.0013722
0.00142536
0.00151863
0.00136377
0.000466607
0.0058141
0.0162248
0.0210654
0.0010468
0.00113193
0.00134315
0.00136574
0.00137477
0.00129541
0.00124922
0.00123615
0.00124397
0.0012669
0.00131121
0.0013519
0.00138212
0.00146722
0.00155241
0.00144086
0.000357027
0.00442313
0.0161552
0.0214354
0.00106194
0.0011652
0.00135317
0.00132697
0.00131141
0.00123598
0.00121682
0.001239
0.00126957
0.00129158
0.00128937
0.00134534
0.00142555
0.00148064
0.0015572
0.00154339
0.000533857
0.00317491
0.015895
0.0221399
0.00105393
0.00113146
0.00137663
0.00138154
0.00137631
0.00130043
0.00126057
0.00125359
0.00127087
0.00130387
0.00135142
0.00139363
0.00141963
0.00152395
0.00159993
0.00159247
0.000674253
0.00246102
0.0155488
0.0227183
0.00107497
0.00114531
0.00136503
0.00131971
0.00129147
0.00123492
0.00122723
0.00125876
0.00128934
0.00130744
0.00131387
0.00137737
0.00146123
0.00152286
0.00158254
0.00163514
0.000918466
0.00175084
0.0152892
0.0234032
0.00107204
0.00114477
0.00140619
0.00137601
0.0013468
0.00128415
0.0012607
0.00126198
0.00128994
0.00132996
0.00137945
0.00142187
0.00144854
0.00155991
0.00162205
0.00166125
0.00105208
0.00137072
0.0148939
0.0238413
0.00108255
0.00111074
0.00136971
0.00131217
0.00127169
0.00123341
0.0012349
0.00127325
0.00130371
0.0013202
0.00133764
0.00140608
0.00148974
0.00156387
0.00160435
0.00167888
0.00118075
0.00133636
0.0145187
0.0242425
0.00107771
0.00113749
0.00142376
0.00134888
0.00129086
0.00125395
0.00125854
0.0012691
0.0013055
0.00135024
0.00139984
0.00143941
0.00147558
0.00158139
0.00162892
0.00169805
0.00133261
0.0013764
0.0141466
0.0245708
0.00108727
0.0010755
0.00135358
0.00128544