/*--------------------------------*- C++ -*----------------------------------*\
  =========                 |
  \\      /  F ield         | OpenFOAM: The Open Source CFD Toolbox
   \\    /   O peration     | Website:  https://openfoam.org
    \\  /    A nd           | Version:  9
     \\/     M anipulation  |
\*---------------------------------------------------------------------------*/
FoamFile
{
    format      ascii;
    class       volScalarField;
    location    "20";
    object      p;
}
// * * * * * * * * * * * * * * * * * * * * * * * * * * * * * * * * * * * * * //

dimensions      [0 2 -2 0 0 0 0];

internalField   nonuniform List<scalar> 
46400
(
157.192
163.143
172.974
181.24
188.452
195.156
201.047
206.459
211.289
215.689
219.674
223.318
226.665
229.761
232.67
235.437
238.03
240.81
243.806
244.597
181.951
187.74
196.009
203.582
209.989
216.017
221.261
226.068
230.342
234.216
237.68
240.814
243.642
246.181
248.488
250.547
252.38
254.195
255.758
255.484
206.693
210.877
218.278
225.171
230.973
236.307
240.937
245.105
248.768
252.04
254.955
257.556
259.899
261.99
263.888
265.585
267.063
268.509
269.765
269.029
229.518
233.237
240.423
246.739
251.951
256.692
260.685
264.232
267.293
269.964
272.28
274.291
276.052
277.559
278.889
280.015
280.945
281.849
282.657
281.734
251.682
255.861
262.374
267.984
272.43
276.425
279.759
282.627
285.067
287.133
288.894
290.367
291.625
292.661
293.537
294.259
294.797
295.332
295.813
294.614
274.529
279.36
284.634
289.317
292.916
296.073
298.662
300.822
302.616
304.05
305.206
306.095
306.8
307.298
307.659
307.871
307.95
308.032
308.174
306.809
297.11
302.257
305.952
309.51
312.198
314.461
316.314
317.759
318.924
319.783
320.413
320.789
320.994
321.019
320.935
320.73
320.384
320.053
319.722
318.099
319.364
323.606
326.455
328.862
330.804
332.232
333.364
334.13
334.664
334.926
335.01
334.88
334.596
334.143
333.584
332.92
332.16
331.429
330.698
328.834
339.351
342.359
344.506
346.102
347.322
348.106
348.613
348.786
348.767
348.512
348.107
347.53
346.858
346.047
345.141
344.116
342.995
341.878
340.757
338.68
357.51
359.82
361.406
362.353
363.024
363.212
363.161
362.775
362.221
361.425
360.5
359.421
358.261
357.002
355.677
354.28
352.803
351.357
349.911
347.666
372.688
374.399
375.497
375.966
376.21
376.01
375.599
374.834
373.906
372.769
371.526
370.132
368.653
367.078
365.454
363.761
362
360.25
358.516
356.07
387.349
388.52
389.19
389.127
388.887
388.195
387.329
386.135
384.745
383.135
381.419
379.585
377.683
375.723
373.737
371.719
369.669
367.642
365.63
363.088
398.463
399.047
399.415
399.044
398.505
397.522
396.383
395.019
393.505
391.791
389.938
387.938
385.83
383.62
381.361
379.045
376.702
374.37
372.058
369.26
410.382
410.394
410.206
409.32
408.206
406.671
404.978
403.082
401.083
398.949
396.752
394.458
392.125
389.718
387.283
384.813
382.315
379.851
377.46
374.574
416.713
416.715
416.332
415.445
414.318
412.903
411.231
409.325
407.237
404.993
402.628
400.167
397.645
395.069
392.459
389.815
387.149
384.514
381.993
378.978
423.678
423.625
422.883
421.657
420.098
418.289
416.231
414.016
411.621
409.132
406.53
403.874
401.166
398.428
395.68
392.914
390.136
387.393
384.757
381.743
426.563
426.552
425.791
424.656
423.095
421.261
419.181
416.908
414.487
411.934
409.287
406.546
403.758
400.925
398.076
395.22
392.341
389.508
386.776
383.682
429.435
428.678
427.947
426.479
424.776
422.711
420.458
418.019
415.454
412.768
410.009
407.177
404.315
401.416
398.51
395.591
392.668
389.773
387.006
383.879
428.877
428.038
427.086
425.692
424.105
422.121
419.958
417.549
415.011
412.332
409.576
406.745
403.862
400.935
397.998
395.052
392.097
389.188
386.407
383.264
424.742
424.647
423.771
422.649
421.06
419.196
417.068
414.74
412.25
409.631
406.913
404.131
401.291
398.426
395.531
392.641
389.72
386.855
384.094
380.977
-6.0062
-5.9352
-6.12954
-4.32016
-2.94951
0.191018
3.70199
7.30056
10.7371
14.3098
17.8904
21.2616
24.593
27.9573
31.1383
34.3871
37.4937
40.5732
43.6652
46.6163
-5.81728
-5.74803
-5.65124
-4.41987
-1.05359
2.41298
6.37266
10.1794
14.0882
18.0078
21.682
25.3681
28.9368
32.4375
35.8545
39.226
42.4954
45.7334
48.8878
52.018
-5.41956
-6.37586
-4.61185
-3.65601
0.535061
4.74447
9.02509
13.233
17.4715
21.5366
25.5479
29.4067
33.1396
36.8574
40.38
43.93
47.2443
50.6347
53.9044
57.1585
-5.93715
-5.83918
-3.84976
-1.50732
2.38586
6.94007
11.4238
16.2012
20.7532
25.1811
29.4076
33.533
37.5301
41.3939
45.1424
48.7667
52.2452
55.7862
59.0305
62.4419
-6.47251
-5.84968
-5.06758
-0.673491
4.14345
9.09486
14.4019
19.2946
24.1844
28.8562
33.4014
37.7789
41.9745
46.0806
49.9533
53.7825
57.3951
60.9735
64.3649
67.8506
-9.63154
-8.50717
-6.60819
-1.35856
4.74168
10.7445
16.5233
22.1863
27.5189
32.6791
37.6024
42.2942
46.8023
51.0919
55.1955
59.1232
62.8478
66.5848
69.9654
73.5175
-13.5601
-12.4729
-8.082
-1.59316
5.76486
12.811
19.3284
25.5745
31.4851
37.0392
42.3199
47.3328
52.0729
56.6141
60.8715
65.0203
68.8631
72.6852
76.1507
79.7279
-17.6225
-15.7006
-8.45363
-0.600933
7.75046
15.6337
22.9428
29.6994
36.1057
42.109
47.7564
53.0628
58.0957
62.8216
67.2959
71.5698
75.5386
79.5271
83.0079
86.7155
-17.8011
-16.0094
-6.98058
2.34071
11.3719
19.7932
27.738
35.0124
41.8223
48.1824
54.1256
59.7029
64.9269
69.8513
74.4861
78.8915
82.9597
87.0697
90.5968
94.4051
-14.0399
-13.1432
-4.37659
6.30221
16.235
25.3514
33.7612
41.4995
48.6942
55.3546
61.56
67.3346
72.748
77.7969
82.5496
87.0045
91.1745
95.3406
98.8486
102.847
-10.9808
-8.52296
1.64565
12.8595
23.3839
32.9221
41.6843
49.6649
57.0787
63.9282
70.2675
76.1733
81.6478
86.762
91.5615
96.0078
100.179
104.249
107.688
111.676
-3.01487
-0.169477
10.4978
21.9651
32.5759
42.2794
51.2259
59.36
66.899
73.8417
80.2573
86.1999
91.7194
96.8468
101.632
106.047
110.25
114.228
117.637
121.722
5.6895
9.40095
20.891
32.7788
43.6638
53.4081
62.4874
70.6673
78.2247
85.1756
91.5599
97.4748
102.913
107.966
112.673
116.97
121.067
124.826
128.066
132.181
18.2919
22.6649
34.3005
45.8083
56.8209
66.48
75.4871
83.6266
91.0798
97.9437
104.23
110.027
115.369
120.305
124.863
129.031
133.042
136.563
139.675
143.775
32.7005
37.3452
49.3841
60.9709
71.7255
81.2407
90.0375
98.0064
105.283
111.964
118.061
123.68
128.809
133.555
137.923
141.9
145.7
148.933
151.862
155.891
49.5089
54.645
66.8084
77.8415
88.4464
97.6508
106.189
113.908
120.915
127.356
133.211
138.585
143.504
148.007
152.124
155.885
159.455
162.389
165.08
168.963
68.1988
73.6047
86.1507
96.4759
106.572
115.409
123.485
130.875
137.533
143.648
149.194
154.278
158.892
163.128
166.971
170.459
173.717
176.318
178.715
182.336
88.313
93.9156
106.545
116.384
125.915
134.388
142.032
149.022
155.308
161.07
166.281
171.038
175.366
179.284
182.833
186.048
188.985
191.273
193.342
196.544
110.299
116.173
128.169
137.459
146.23
154.154
161.243
167.777
173.63
178.994
183.847
188.281
192.304
195.974
199.278
202.296
205.027
207.044
209.026
212.559
133.339
139.135
150.239
159.112
167.16
174.587
181.138
187.184
192.608
197.595
202.126
206.303
210.159
213.721
217.066
220.241
223.155
225.866
229.208
232.664
60.4568
79.2109
98.3579
109.165
122.306
129.822
138.238
143.963
149.288
153.602
157.041
160.398
162.559
165.338
166.394
169.294
170.267
172.194
171.823
172.144
65.5208
83.2112
102.069
112.095
124.867
132.013
140.118
145.552
150.58
154.709
157.991
161.223
163.26
165.92
166.802
169.817
170.463
172.497
171.863
172.22
71.0516
87.531
105.755
115.037
127.417
134.004
141.783
147
151.872
155.863
158.995
162.1
164.022
166.624
167.379
170.596
170.727
172.854
172.001
172.33
76.7593
91.6935
109.642
118.078
130.047
136.25
143.694
148.626
153.197
157.016
159.974
162.955
164.771
167.292
167.958
171.201
170.963
173.232
172.025
172.408
82.6259
96.1438
113.506
121.102
132.674
138.305
145.4
150.118
154.523
158.192
161.013
163.86
165.576
168.054
168.592
171.774
171.176
173.676
172.157
172.539
88.7405
100.566
117.463
124.247
135.369
140.556
147.323
151.773
155.881
159.375
162.017
164.738
166.373
168.717
169.197
172.236
171.37
174.143
172.164
172.63
94.7611
105.297
121.55
127.306
138.076
142.694
149.08
153.314
157.244
160.582
163.09
165.668
167.205
169.417
169.811
172.754
171.644
174.575
172.247
172.789
101.703
110.021
126.403
130.625
140.816
145.005
150.996
154.991
158.635
161.794
164.125
166.568
168.023
170.115
170.406
173.252
171.886
174.955
172.376
172.912
109.653
115.262
130.997
133.851
143.549
147.21
152.805
156.579
160.034
163.033
165.223
167.523
168.878
170.844
171.014
173.795
172.19
175.389
172.511
173.074
116.779
120.47
135.258
137.249
146.296
149.575
154.736
158.271
161.457
164.277
166.305
168.445
169.713
171.558
171.606
174.305
172.453
175.755
172.612
173.221
124.18
126.115
139.639
140.61
149.043
151.835
156.568
159.904
162.885
165.552
167.428
169.42
170.584
172.3
172.205
174.846
172.769
176.2
172.816
173.411
132.294
131.78
144.188
144.096
151.799
154.248
158.515
161.6
164.345
166.821
168.538
170.362
171.432
173.016
172.79
175.356
173.037
176.615
173.06
173.594
140.774
137.776
148.771
147.618
154.55
156.558
160.365
163.276
165.816
168.135
169.697
171.356
172.316
173.761
173.43
175.889
173.357
176.985
173.305
173.816
149.988
143.835
153.611
151.216
157.314
159.018
162.329
164.977
167.321
169.454
170.845
172.324
173.176
174.484
174.105
176.419
173.656
177.332
173.477
174.022
159.638
150.165
158.378
154.856
160.015
161.34
164.172
166.631
168.782
170.772
172.01
173.315
174.053
175.217
174.813
176.911
174.032
177.735
173.506
174.237
170.255
156.917
163.456
158.615
162.772
163.814
166.129
168.302
170.286
172.103
173.171
174.287
174.905
175.946
175.538
177.352
174.382
178.078
173.443
174.46
180.932
163.81
168.486
162.657
165.668
166.339
168.148
170.24
172.035
173.684
174.563
175.421
175.847
176.867
176.392
178.255
174.799
178.46
173.297
174.73
191.275
169.677
173.584
166.139
168.16
168.636
169.961
171.714
173.424
174.947
175.683
176.38
176.658
177.482
177.141
178.989
175.22
179.279
173.207
175.188
206.071
176.856
180.675
169.287
169.929
170.123
171.127
172.449
174.196
175.697
176.378
176.981
177.162
177.678
177.598
179.001
175.567
179.49
172.87
174.935
223.98
190.932
189.394
177.17
175.591
174.881
174.877
175.76
177.001
178.297
178.593
179.138
179.064
179.53
179.234
180.395
176.098
179.621
171.914
175.977
251.024
250.55
226.279
229.484
219.43
216.243
209.856
208.332
203.714
202.945
200.597
200.736
198.789
198.324
195.127
195.567
188.995
193.415
176.064
199.664
277.433
266.749
250.065
243.43
233.244
227.6
221.05
217.128
212.637
210.053
206.824
205.178
202.773
201.508
199.17
198.42
195.61
196.066
193.908
196.137
272.338
262.51
253.736
246.848
240.9
235.629
231.04
227.169
223.523
220.59
218.004
215.729
213.569
211.836
209.75
208.789
206.549
206.166
204.412
205.409
266.409
260.88
255.895
249.658
244.622
239.359
235.116
230.955
227.606
224.453
221.502
218.991
216.671
214.649
212.81
211.161
209.727
208.673
207.858
207.688
256.371
251.764
248.467
244.238
241.345
237.963
235.138
232.275
229.652
227.226
224.927
222.713
220.695
218.752
216.9
215.14
213.475
211.715
210.757
210.701
250.223
247.897
246.716
243.864
241.794
238.825
236.503
233.824
231.515
229.126
226.917
224.844
222.733
220.823
218.971
217.13
215.549
213.814
212.718
212.384
243.59
241.979
240.761
238.889
237.453
235.758
234.158
232.568
230.82
229.268
227.474
225.917
224.116
222.511
220.698
218.973
217.169
215.285
214.064
213.449
240.543
239.817
239.885
238.688
237.757
236.343
235.012
233.644
232.167
230.733
229.112
227.672
225.913
224.412
222.511
220.876
218.737
216.89
215.029
214.449
236.785
236.621
236.085
235.476
234.579
234.139
233.302
232.635
231.572
230.76
229.526
228.566
227.079
225.977
224.2
222.831
220.545
218.918
216.515
216.015
235.784
235.902
235.947
235.874
235.376
235.028
234.236
233.723
232.99
232.389
231.407
230.702
229.495
228.64
227.088
226.055
223.822
222.685
219.923
219.616
233.931
234.11
233.862
233.955
234.11
234.209
234.222
234.142
233.728
233.543
233.002
232.697
231.986
231.541
230.602
229.885
228.409
227.597
224.034
224.675
233.84
234.424
234.632
235.121
235.343
235.384
235.382
235.401
235.189
235.342
235.063
235.222
234.852
235.068
234.528
234.916
233.996
234.653
234.284
235.972
233.795
234.343
234.687
235.153
235.593
236.046
236.24
236.776
236.966
237.385
237.617
238.13
238.51
239.097
239.761
240.389
241.516
242.069
244.34
246.044
234.082
234.708
235.172
235.788
236.065
236.699
237.034
237.678
238.032
238.831
239.186
240.159
240.594
241.807
242.457
244.014
245.35
247.055
250.227
251.155
234.59
235.231
235.717
236.37
236.857
237.545
238.015
238.813
239.307
240.237
240.772
241.996
242.631
244.304
245.171
247.622
248.606
251.714
253.392
256.618
234.88
235.496
236.057
236.709
237.29
237.998
238.595
239.399
240.018
240.986
241.643
242.844
243.536
245.112
245.793
248.004
248.895
252.179
252.986
264.703
235.434
236.049
236.626
237.298
237.887
238.625
239.23
240.058
240.68
241.633
242.259
243.389
243.994
245.347
245.885
249.967
250.401
254.358
255.275
258.256
235.654
236.251
236.851
237.496
238.13
238.838
239.5
240.289
240.965
241.867
242.532
243.578
244.187
245.415
245.893
247.308
247.564
254.647
254.397
258.128
235.951
236.541
237.154
237.817
238.465
239.168
239.834
240.605
241.294
242.147
242.821
243.802
244.438
245.586
246.069
247.987
248.358
250.039
250.612
250.815
236.048
236.648
237.249
237.88
238.516
239.214
239.9
240.652
241.368
242.185
242.929
243.814
244.522
245.513
246.153
247.253
247.608
254.774
252.583
257.209
343.91
345.764
346.915
347.501
347.298
346.705
345.184
343.386
340.477
337.416
333.35
329.073
323.839
317.565
311.994
305.08
298.065
289.865
279.592
271.962
314.38
315.658
316.593
317.257
317.602
317.654
317.423
316.95
316.136
315.201
313.823
312.476
310.673
308.891
306.449
302.564
298.709
296.357
292.85
290.046
277.916
278.982
279.952
280.821
281.527
282.191
282.636
283.098
283.281
283.519
283.444
283.457
283.121
282.904
282.306
281.864
281.026
280.313
278.983
278.406
265.42
266.236
266.989
267.677
268.3
268.852
269.334
269.735
270.051
270.308
270.445
270.586
270.546
270.587
270.371
270.319
269.935
269.839
269.344
269.305
249.92
250.572
251.196
251.785
252.328
252.859
253.324
253.809
254.196
254.65
254.985
255.392
255.669
256.031
256.22
256.537
256.615
256.904
256.861
257.193
244.328
244.855
245.362
245.846
246.316
246.759
247.191
247.592
247.983
248.339
248.653
248.974
249.207
249.48
249.653
249.9
250.019
250.272
250.285
250.57
237.315
237.781
238.219
238.649
239.051
239.448
239.811
240.178
240.505
240.835
241.131
241.433
241.695
241.978
242.205
242.488
242.669
242.962
243.105
243.41
234.903
235.289
235.663
236.026
236.378
236.719
237.05
237.368
237.673
237.978
238.255
238.551
238.799
239.085
239.3
239.562
239.748
239.981
240.085
240.324
231.824
232.182
232.523
232.848
233.158
233.46
233.748
234.027
234.298
234.556
234.808
235.047
235.273
235.49
235.68
235.878
236.041
236.262
236.404
236.605
230.961
231.276
231.584
231.886
232.178
232.465
232.739
233.009
233.262
233.513
233.744
233.971
234.18
234.394
234.587
234.802
234.958
235.134
235.256
235.446
230.055
230.269
230.49
230.715
230.94
231.169
231.394
231.617
231.837
232.049
232.257
232.458
232.651
232.846
233.036
233.22
233.386
233.531
233.632
233.774
230.141
230.355
230.566
230.773
230.976
231.177
231.375
231.57
231.762
231.956
232.14
232.318
232.492
232.655
232.804
232.955
233.099
233.252
233.387
233.537
230.587
230.77
230.951
231.128
231.302
231.472
231.64
231.806
231.967
232.122
232.28
232.443
232.601
232.761
232.921
233.068
233.188
233.312
233.426
233.543
230.933
231.099
231.262
231.423
231.582
231.739
231.893
232.044
232.193
232.339
232.482
232.623
232.769
232.925
233.071
233.225
233.367
233.494
233.624
233.752
231.62
231.768
231.917
232.064
232.211
232.357
232.502
232.647
232.79
232.933
233.074
233.215
233.354
233.491
233.626
233.761
233.892
234.024
234.152
234.281
232.007
232.143
232.279
232.416
232.552
232.688
232.824
232.96
233.095
233.23
233.365
233.499
233.632
233.766
233.898
234.031
234.161
234.292
234.421
234.548
232.598
232.725
232.852
232.98
233.109
233.238
233.368
233.499
233.63
233.761
233.893
234.025
234.157
234.289
234.423
234.554
234.688
234.818
234.953
235.082
232.874
232.994
233.114
233.236
233.358
233.482
233.607
233.733
233.859
233.987
234.115
234.245
234.375
234.505
234.637
234.769
234.902
235.034
235.169
235.302
233.202
233.316
233.431
233.548
233.667
233.787
233.908
234.03
234.155
234.281
234.408
234.537
234.666
234.797
234.929
235.061
235.195
235.329
235.465
235.599
233.3
233.412
233.526
233.641
233.758
233.877
233.998
234.12
234.243
234.367
234.492
234.619
234.748
234.877
235.009
235.142
235.276
235.412
235.549
235.688
96.8431
94.0738
87.5137
80.6576
74.2542
67.4653
60.3234
52.8047
44.8405
36.3053
27.1725
17.2909
6.64792
-4.97529
-17.4868
-31.2573
-46.2711
-62.4503
-81.582
-92.3997
114.659
112.909
108.195
102.911
97.6543
92.0023
85.9158
79.3898
72.3503
64.757
56.5519
47.6477
38.0433
27.4921
16.1221
3.50287
-10.0723
-25.0646
-42.5822
-53.0885
134.138
133.626
130.194
125.752
121.357
116.53
111.252
105.576
99.4361
92.7703
85.55
77.6691
69.1069
59.6785
49.4915
38.1237
25.9072
12.3011
-3.56305
-13.5447
154.577
154.407
151.537
147.909
144.288
140.295
135.906
131.121
125.866
120.115
113.818
106.908
99.3594
90.9896
81.9321
71.7689
60.9525
48.5967
34.7966
26.0288
175.376
175.742
173.486
170.569
167.654
164.37
160.676
156.645
152.175
147.267
141.846
135.85
129.239
121.869
113.814
104.666
94.8477
83.4933
71.0684
64.3006
195.966
196.509
194.654
192.275
189.923
187.283
184.33
181.058
177.397
173.326
168.764
163.681
157.986
151.576
144.488
136.371
127.592
117.236
105.563
99.3819
215.723
216.669
215.488
213.805
212.146
210.214
207.946
205.375
202.427
199.112
195.356
191.114
186.331
180.915
174.845
167.778
160.094
150.665
140.082
133.641
235.309
236.465
235.627
234.422
233.216
231.779
230.095
228.177
225.974
223.453
220.542
217.214
213.361
208.948
203.871
197.997
191.453
183.327
174.454
167.183
253.771
255.141
254.73
254.096
253.503
252.718
251.709
250.488
248.969
247.149
244.975
242.429
239.449
235.982
231.944
227.25
221.89
215.359
208.474
200.596
271.415
272.948
272.946
272.781
272.637
272.325
271.806
271.113
270.219
269.101
267.7
265.988
263.864
261.341
258.289
254.726
250.471
245.44
239.867
232.675
287.182
288.945
289.451
289.803
290.193
290.444
290.547
290.503
290.26
289.792
289.043
288.008
286.643
284.94
282.799
280.218
277.091
273.387
269.016
263.416
302.428
304.416
305.332
306.12
306.932
307.628
308.18
308.594
308.834
308.908
308.775
308.444
307.795
306.893
305.542
303.873
301.602
298.877
295.367
290.943
315.849
318.029
319.351
320.564
321.813
322.96
324.013
324.954
325.771
326.44
326.918
327.19
327.181
326.908
326.246
325.255
323.697
321.758
319.007
315.395
328.659
331.065
332.698
334.251
335.849
337.362
338.793
340.127
341.346
342.432
343.346
344.092
344.589
344.876
344.793
344.431
343.528
342.299
340.241
337.427
339.628
342.18
344.153
346.068
348.023
349.908
351.739
353.496
355.168
356.731
358.151
359.416
360.449
361.264
361.705
361.901
361.554
360.975
359.517
357.368
349.95
352.721
354.944
357.143
359.381
361.552
363.668
365.708
367.66
369.494
371.186
372.726
374.047
375.188
376.009
376.654
376.774
376.74
375.785
374.32
358.734
361.567
363.929
366.314
368.749
371.131
373.487
375.785
378.029
380.184
382.246
384.184
385.968
387.592
388.951
390.115
390.778
391.259
390.833
390.101
366.48
369.446
371.975
374.561
377.201
379.798
382.38
384.911
387.394
389.786
392.082
394.244
396.249
398.072
399.646
401.012
401.974
402.805
402.914
402.917
372.555
375.56
378.195
380.902
383.662
386.382
389.097
391.769
394.4
396.96
399.431
401.802
404.02
406.101
407.948
409.606
410.942
412.044
412.629
412.83
377.47
380.564
383.315
386.157
389.046
391.912
394.772
397.609
400.406
403.143
405.801
408.344
410.759
412.984
415.018
416.758
418.276
419.326
420.058
420.003
-228.433
-238.996
-250.03
-261.976
-274.44
-287.84
-301.867
-316.734
-332.364
-348.886
-366.352
-384.811
-404.36
-425.085
-447.256
-470.935
-495.744
-518.921
-539.051
-541.131
-223.268
-233.998
-245.098
-257.193
-269.81
-283.359
-297.628
-312.7
-328.65
-345.499
-363.346
-382.255
-402.358
-423.793
-446.684
-471.17
-497.192
-523.434
-544.116
-547.426
-216.769
-227.587
-238.702
-250.9
-263.634
-277.333
-291.74
-307.029
-323.17
-340.292
-358.44
-377.682
-398.142
-419.927
-443.197
-468.302
-495.214
-522.576
-544.177
-550.079
-209.458
-220.374
-231.386
-243.646
-256.381
-270.1
-284.607
-299.964
-316.26
-333.518
-351.84
-371.287
-392.007
-414.06
-437.618
-463
-489.554
-517.459
-541.207
-546.354
-200.581
-211.504
-222.508
-234.721
-247.463
-261.167
-275.672
-291.058
-307.352
-324.682
-343.094
-362.666
-383.527
-405.797
-429.666
-455.325
-482.663
-512.185
-535.434
-540.667
-190.995
-201.908
-212.688
-224.743
-237.374
-250.942
-265.362
-280.663
-296.919
-314.183
-332.557
-352.106
-373.015
-395.299
-419.238
-445.097
-472.663
-502.775
-526.814
-532.204
-179.651
-190.48
-201.109
-213.008
-225.52
-238.919
-253.16
-268.282
-284.345
-301.461
-319.678
-339.096
-359.836
-382.027
-405.939
-431.634
-459.352
-489.412
-514.434
-520.944
-167.425
-178.146
-188.46
-200.078
-212.33
-225.464
-239.458
-254.34
-270.169
-287.022
-304.987
-324.145
-344.666
-366.556
-390.138
-415.574
-442.77
-472.486
-497.955
-504.991
-153.43
-163.99
-174.095
-185.438
-197.46
-210.283
-223.949
-238.48
-253.942
-270.448
-288.036
-306.827
-326.914
-348.45
-371.727
-396.676
-423.654
-453.067
-478.888
-486.928
-138.533
-148.898
-158.6
-169.551
-181.191
-193.619
-206.881
-221.015
-236.068
-252.127
-269.277
-287.603
-307.255
-328.265
-350.963
-375.366
-401.628
-430.3
-456.333
-464.911
-122.094
-132.197
-141.605
-152.142
-163.416
-175.408
-188.216
-201.862
-216.403
-231.957
-248.544
-266.301
-285.297
-305.708
-327.801
-351.397
-377.034
-405.373
-431.115
-440.365
-104.678
-114.486
-123.429
-133.483
-144.275
-155.757
-168.024
-181.131
-195.121
-210.078
-226.087
-243.238
-261.647
-281.405
-302.745
-325.593
-350.711
-377.841
-403.501
-413.104
-85.8761
-95.3588
-103.934
-113.466
-123.769
-134.721
-146.441
-158.973
-172.344
-186.686
-201.996
-218.421
-236.027
-254.991
-275.487
-297.551
-321.723
-347.474
-373.335
-383.046
-66.1111
-75.2256
-83.3239
-92.2982
-102.053
-112.415
-123.502
-135.381
-148.103
-161.735
-176.355
-192.077
-208.966
-227.146
-246.815
-267.941
-291.13
-315.72
-341.464
-351.387
-45.0316
-53.7871
-61.4835
-69.8947
-79.0799
-88.8688
-99.3603
-110.635
-122.681
-135.642
-149.499
-164.402
-180.395
-197.67
-216.33
-236.498
-258.488
-281.91
-307.112
-317.122
-23.0219
-31.4092
-38.6603
-46.4901
-55.1077
-64.291
-74.1313
-84.6991
-96.0596
-108.26
-121.364
-135.509
-150.715
-167.146
-184.944
-204.08
-225.055
-247.509
-271.946
-282.152
-0.212403
-8.12205
-14.9178
-22.1712
-30.193
-38.804
-48.0366
-58.0057
-68.6842
-80.1943
-92.5291
-105.837
-120.124
-135.61
-152.315
-170.423
-190.209
-211.346
-234.764
-245.111
23.2067
15.6719
9.3987
2.77562
-4.66409
-12.6825
-21.2781
-30.5348
-40.5146
-51.2559
-62.8052
-75.3029
-88.7475
-103.356
-119.175
-136.291
-155.065
-175.292
-197.745
-207.894
49.2619
41.4233
35.2437
29.0483
22.0708
14.447
6.3233
-2.41844
-11.7908
-21.8853
-32.7051
-44.401
-56.9593
-70.6068
-85.2937
-101.297
-118.816
-137.473
-158.921
-169.452
78.4385
70.7342
63.2161
56.4852
49.5352
42.0302
34.1506
25.8446
16.9974
7.55946
-2.53475
-13.4079
-25.064
-37.7723
-51.4798
-66.47
-82.7917
-100.482
-120.77
-131.128
94.5454
94.2714
93.1168
91.2015
89.0089
85.2326
82.1843
76.9361
72.3306
65.2218
58.1257
48.353
37.3007
23.715
6.00934
-13.6242
-43.0025
-73.3638
-122.775
-177.627
94.8018
94.5126
93.5269
91.548
89.4821
85.7362
82.8165
77.6481
73.1572
66.1651
59.2191
49.5949
38.7677
25.4138
8.02297
-11.1155
-40.1205
-69.5877
-118.761
-172.393
95.0712
94.7166
93.9232
91.8863
89.959
86.2428
83.4504
78.3765
73.9961
67.1251
60.3358
50.8655
40.279
27.1488
10.1199
-8.63909
-37.1466
-65.6718
-114.23
-165.931
95.3158
94.9027
94.3416
92.2071
90.4795
86.8165
84.1527
79.1823
74.9178
68.1763
61.5537
52.2343
41.9135
29.0083
12.38
-5.90972
-33.8364
-61.448
-109.192
-159.276
95.5994
95.132
94.8409
92.5472
91.0183
87.3981
84.8592
80.0075
75.8549
69.2471
62.7938
53.6359
43.5911
30.9037
14.7251
-3.18826
-30.4397
-57.0384
-103.669
-151.388
95.9231
95.3563
95.3698
92.9691
91.5976
88.0485
85.6304
80.9087
76.8724
70.4064
64.1324
55.1345
45.3873
32.9262
17.2277
-0.228913
-26.7073
-52.3005
-97.6415
-143.103
96.2787
95.6242
95.8414
93.4304
92.171
88.6989
86.4163
81.8332
77.9077
71.5887
65.493
56.6681
47.2252
34.9852
19.8131
2.73809
-22.8853
-47.3855
-91.109
-133.721
96.6345
95.9218
96.3379
93.9192
92.7968
89.4018
87.2843
82.8293
79.0207
72.8555
66.9469
58.2977
49.174
37.1715
22.5494
5.92824
-18.7289
-42.1226
-84.0826
-123.884
97.033
96.2638
96.8243
94.4739
93.6334
90.1257
88.1607
83.8518
80.1519
74.148
68.4231
59.963
51.1629
39.3958
25.3618
9.13749
-14.4859
-36.7017
-76.5756
-113.072
97.496
96.6464
97.3595
95.0822
94.5011
90.9492
89.1025
84.951
81.3581
75.5204
69.9865
61.7227
53.2532
41.7454
28.3154
12.5535
-9.91414
-30.9252
-68.615
-101.63
97.9829
97.0694
97.8938
95.7089
95.3237
91.7875
90.0446
86.0787
82.5819
76.9189
71.5725
63.5175
55.3809
44.1344
31.3343
15.9989
-5.26487
-25.0244
-60.228
-89.2807
98.5097
97.5682
98.468
96.3273
96.1811
92.6939
91.0542
87.2812
83.8771
78.3918
73.2381
65.4028
57.5986
46.6426
34.479
19.6305
-0.299551
-18.7853
-51.4158
-76.1994
99.0961
98.1251
99.0661
96.9871
96.9827
93.6133
92.0703
88.5041
85.1886
79.8897
74.9278
67.324
59.8536
49.1965
37.6838
23.3155
4.74405
-12.4575
-42.2333
-62.2344
99.7244
98.7481
99.6809
97.6146
97.8471
94.6872
93.164
89.7962
86.5697
81.4583
76.6926
69.3328
62.1909
51.8622
40.9942
27.1587
10.0591
-5.87701
-32.6903
-47.4886
100.387
99.3934
100.318
98.2741
98.7669
95.7764
94.2957
91.0972
87.9587
83.0416
78.4719
71.3611
64.5414
54.5445
44.3137
31.0235
15.3705
0.690113
-22.7686
-31.6924
101.095
100.025
100.936
99.0116
99.665
96.7617
95.5071
92.4296
89.4066
84.6856
80.3148
73.468
66.9657
57.3413
47.7526
35.0894
21.0152
7.62537
-12.2031
-14.9044
101.767
100.587
101.575
99.8125
100.633
97.8304
96.7351
93.7817
90.9018
86.3915
82.2359
75.6786
69.5219
60.3096
51.393
39.4366
26.9051
14.6952
-1.45137
2.2315
102.537
101.209
102.4
100.615
101.624
99.0259
98.0262
95.1882
92.4425
88.1344
84.1902
77.8956
72.0345
63.1735
54.7965
43.4364
32.2046
20.9103
8.74066
20.0316
103.107
101.491
102.73
101.352
102.52
100.067
99.1895
96.4303
93.7838
89.6375
85.8423
79.7239
74.011
65.3803
57.3848
46.617
36.4319
26.405
20.7299
43.5566
103.822
101.153
102.402
102.235
103.592
101.405
100.561
97.987
95.4574
91.5625
87.9836
82.329
77.0507
69.2043
62.2934
52.9565
45.2381
37.6711
39.1324
68.0428
116.405
111.672
113.396
112.515
112.92
111.986
111.47
110.346
109.66
108.416
107.819
106.622
107.331
106.66
109.685
109.525
116.69
121.054
133.573
120.523
120.943
120.125
120.698
120.916
121.19
121.112
121.383
121.416
121.849
122.281
123.668
125.235
128.187
131.034
136.809
141.835
152.957
160.496
183.366
192.831
137.16
137.133
136.824
137.746
137.948
138.878
139.722
140.876
142.557
144.316
146.889
149.302
152.996
156.833
162.69
168.92
177.848
187.201
200.565
212.82
143.48
143.726
144.138
145.112
146.229
147.664
149.403
151.505
153.92
156.563
159.797
163.368
167.936
172.754
179.034
185.352
194.105
202.298
214.221
223.677
153.537
153.725
154.625
156.137
157.645
159.465
161.355
163.421
165.769
168.344
171.452
174.77
178.709
183.004
187.93
193.455
199.404
206.059
212.981
220.684
160.222
160.705
161.626
163.456
165.058
167.231
169.408
171.802
174.526
177.327
180.571
183.888
187.847
191.746
196.483
200.954
206.409
211.426
218.06
223.523
167.227
167.958
169.316
171.414
173.584
175.619
177.98
180.14
182.739
185.157
188.056
190.882
194.108
197.399
200.975
204.67
208.634
212.524
215.97
219.586
172.631
173.362
175.326
177.592
179.938
182.105
184.485
186.663
189.186
191.486
194.227
196.699
199.706
202.354
205.586
208.477
211.935
215.08
218.835
221.813
179.979
180.782
183.193
185.01
187.705
189.479
191.866
193.591
195.909
197.749
200.092
202.115
204.548
206.742
209.37
211.705
214.293
216.551
218.74
220.824
186.883
187.374
190.429
191.982
194.403
195.982
197.943
199.489
201.406
202.983
204.949
206.618
208.678
210.422
212.542
214.274
216.458
218.338
220.678
222.307
197.177
196.474
200.288
200.697
202.752
203.634
205.194
206.173
207.643
208.707
210.213
211.389
212.937
214.228
215.872
217.275
218.997
220.342
221.907
223.189
210.819
209.582
209.671
209.53
210.345
210.592
211.349
211.792
212.699
213.308
214.366
215.128
216.32
217.222
218.487
219.464
220.78
221.791
223.163
224.186
222.841
221.804
219.479
219.446
218.411
218.291
218.109
218.071
218.361
218.486
219.083
219.387
220.174
220.709
221.618
222.256
223.23
223.952
224.967
225.709
229.592
229.135
226.444
225.104
224.157
223.01
222.789
222.033
222.197
221.801
222.205
222.156
222.725
222.998
223.682
224.084
224.833
225.356
226.172
226.752
236.997
234.847
232.928
230.427
229.57
227.775
227.388
226.221
226.204
225.51
225.663
225.339
225.674
225.633
226.079
226.276
226.788
227.14
227.73
228.164
239.812
236.897
235.693
232.624
231.965
229.892
229.646
228.088
228.27
227.347
227.556
227.077
227.321
227.17
227.492
227.584
227.979
228.221
228.691
229.037
241.51
238.25
237.766
234.487
234.147
232.057
231.841
230.137
230.245
229.311
229.325
228.873
228.899
228.74
228.89
228.915
229.192
229.386
229.741
230.033
242.507
238.111
239.651
233.396
233.222
232.177
231.889
231.096
230.874
230.279
230.154
229.77
229.766
229.635
229.69
229.785
230.032
230.145
230.394
230.627
236.978
236.194
236.079
234.495
234.186
233.102
232.852
232.015
231.826
231.141
231.106
230.674
230.721
230.44
230.527
230.462
230.518
230.634
230.871
231.117
242.279
237.992
240.322
234.053
233.875
233.105
232.842
232.193
231.944
231.458
231.281
230.943
230.879
230.692
230.742
230.647
230.759
230.887
231.081
231.289
158.964
174.205
188.993
204.023
217.735
231.357
243.841
256.119
267.182
277.726
287.391
296.7
304.726
312.134
318.784
324.734
329.932
334.439
338.268
341.439
221.214
230.74
239.005
246.745
252.87
258.217
263.852
268.803
274.188
278.553
283.671
289.193
293.31
296.906
300.435
303.484
306.301
308.795
310.951
312.842
225.209
228.546
232.379
235.528
238.761
241.997
245.674
249.498
253.759
257.026
259.782
262.297
264.686
266.832
268.83
270.674