/*--------------------------------*- C++ -*----------------------------------*\
  =========                 |
  \\      /  F ield         | OpenFOAM: The Open Source CFD Toolbox
   \\    /   O peration     | Website:  https://openfoam.org
    \\  /    A nd           | Version:  9
     \\/     M anipulation  |
\*---------------------------------------------------------------------------*/
FoamFile
{
    format      ascii;
    class       surfaceScalarField;
    location    "20";
    object      phi;
}
// * * * * * * * * * * * * * * * * * * * * * * * * * * * * * * * * * * * * * //

dimensions      [0 3 -1 0 0 0 0];

internalField   nonuniform List<scalar> 
92080
(
-0.00205184
-0.422355
0.424407
-0.0244714
-0.829754
0.852173
-0.0628481
-0.892774
0.93115
-0.102183
-0.877203
0.916538
-0.14101
-0.864131
0.902957
-0.179307
-0.851299
0.889596
-0.216748
-0.840069
0.87751
-0.253716
-0.828294
0.865262
-0.290082
-0.817231
0.853596
-0.326113
-0.8062
0.842232
-0.362219
-0.796648
0.832754
-0.397893
-0.788144
0.823819
-0.433723
-0.779971
0.815801
-0.469227
-0.772885
0.808389
-0.503554
-0.766415
0.800742
-0.538326
-0.759666
0.794438
-0.572237
-0.75436
0.788272
-0.603642
-0.747721
0.779126
-0.633761
-0.741115
0.771234
-0.735732
0.764468
-0.662497
-0.00489925
-0.417456
-0.0321518
-0.802501
-0.0741074
-0.850818
-0.115627
-0.835683
-0.156318
-0.82344
-0.197133
-0.810485
-0.237386
-0.799815
-0.276281
-0.7894
-0.314705
-0.778807
-0.35302
-0.767885
-0.39113
-0.758538
-0.429187
-0.750088
-0.466828
-0.742329
-0.504468
-0.735246
-0.542208
-0.728675
-0.578522
-0.723351
-0.614756
-0.718126
-0.650875
-0.711602
-0.684996
-0.706995
-0.703829
-0.716899
-0.00684448
-0.410612
-0.0398355
-0.76951
-0.081481
-0.809173
-0.123706
-0.793457
-0.165627
-0.781519
-0.207229
-0.768883
-0.248996
-0.758048
-0.290193
-0.748203
-0.329861
-0.739139
-0.368817
-0.728928
-0.407766
-0.719589
-0.446243
-0.711611
-0.485011
-0.703561
-0.523071
-0.697186
-0.561396
-0.69035
-0.600394
-0.684354
-0.636592
-0.681928
-0.671859
-0.676336
-0.708575
-0.670278
-0.66642
-0.745984
-0.00572136
-0.40489
-0.0434808
-0.731751
-0.0888176
-0.763836
-0.133625
-0.74865
-0.177859
-0.737285
-0.222074
-0.724668
-0.266204
-0.713918
-0.309716
-0.70469
-0.352346
-0.696509
-0.393653
-0.687622
-0.434281
-0.67896
-0.47438
-0.671513
-0.513899
-0.664041
-0.553391
-0.657694
-0.591872
-0.651869
-0.632578
-0.643648
-0.674818
-0.639688
-0.713626
-0.637528
-0.751005
-0.632899
-0.628924
-0.7885
-0.00223304
-0.402657
-0.042524
-0.69146
-0.0901356
-0.716224
-0.137437
-0.701348
-0.183489
-0.691233
-0.228348
-0.67981
-0.273681
-0.668585
-0.319472
-0.658899
-0.364087
-0.651894
-0.407424
-0.644285
-0.449875
-0.636509
-0.491443
-0.629944
-0.532928
-0.622557
-0.573792
-0.616829
-0.612788
-0.612874
-0.650014
-0.606422
-0.690163
-0.599538
-0.731718
-0.595973
-0.771956
-0.592661
-0.588645
-0.812236
0.000267831
-0.402925
-0.0423958
-0.648796
-0.0944428
-0.664177
-0.144768
-0.651023
-0.19408
-0.641921
-0.241711
-0.632179
-0.287844
-0.622453
-0.334386
-0.612357
-0.381577
-0.604704
-0.427571
-0.598291
-0.47271
-0.591369
-0.516176
-0.586479
-0.558634
-0.580099
-0.602568
-0.572895
-0.646284
-0.569158
-0.687625
-0.565081
-0.727163
-0.56
-0.767724
-0.555412
-0.807902
-0.552482
-0.549072
-0.847475
0.000957103
-0.403882
-0.0451339
-0.602705
-0.0988062
-0.610505
-0.150224
-0.599605
-0.200215
-0.59193
-0.248547
-0.583847
-0.295676
-0.575324
-0.342065
-0.565967
-0.388748
-0.558021
-0.435494
-0.551545
-0.482399
-0.544464
-0.528673
-0.540204
-0.571606
-0.537166
-0.613089
-0.531413
-0.655838
-0.526408
-0.698585
-0.522334
-0.740794
-0.517792
-0.782814
-0.513391
-0.82505
-0.510247
-0.50768
-0.866442
-0.00455548
-0.399327
-0.054253
-0.553007
-0.109659
-0.555099
-0.162976
-0.546288
-0.215158
-0.539748
-0.265715
-0.53329
-0.313978
-0.527061
-0.361072
-0.518874
-0.408298
-0.510795
-0.454584
-0.505258
-0.501382
-0.497666
-0.550446
-0.49114
-0.599579
-0.488033
-0.645872
-0.48512
-0.690368
-0.481913
-0.733994
-0.478708
-0.776306
-0.47548
-0.818339
-0.471358
-0.860568
-0.468017
-0.465604
-0.902644
-0.0131416
-0.386185
-0.0634545
-0.502694
-0.117662
-0.500891
-0.170568
-0.493382
-0.222596
-0.48772
-0.273269
-0.482617
-0.322853
-0.477476
-0.370036
-0.471691
-0.417015
-0.463816
-0.462824
-0.45945
-0.505741
-0.454749
-0.549199
-0.447682
-0.594858
-0.442374
-0.641631
-0.438347
-0.687649
-0.435894
-0.733196
-0.433161
-0.777806
-0.43087
-0.821188
-0.427977
-0.864471
-0.424734
-0.422379
-0.907696
-0.0237792
-0.362406
-0.07666
-0.449814
-0.131118
-0.446433
-0.184966
-0.439534
-0.239442
-0.433244
-0.292759
-0.429299
-0.344269
-0.425967
-0.393626
-0.422334
-0.442492
-0.414949
-0.492873
-0.409069
-0.541455
-0.406168
-0.587213
-0.401923
-0.632351
-0.397237
-0.678112
-0.392586
-0.724222
-0.389784
-0.769562
-0.387821
-0.814542
-0.38589
-0.858445
-0.384074
-0.90163
-0.381549
-0.37921
-0.9448
-0.0301451
-0.332261
-0.0830762
-0.396883
-0.137625
-0.391885
-0.189731
-0.387429
-0.242074
-0.380901
-0.296045
-0.375328
-0.349944
-0.372068
-0.40049
-0.371788
-0.44742
-0.36802
-0.494293
-0.362196
-0.542235
-0.358226
-0.589292
-0.354866
-0.635197
-0.351332
-0.680845
-0.346938
-0.727845
-0.342785
-0.775172
-0.340493
-0.822213
-0.338849
-0.868643
-0.337644
-0.913933
-0.336259
-0.334422
-0.958721
-0.0385946
-0.293666
-0.0931789
-0.342298
-0.147758
-0.337306
-0.200584
-0.334602
-0.251976
-0.329509
-0.303918
-0.323386
-0.359469
-0.316517
-0.416524
-0.314733
-0.470855
-0.313689
-0.522068
-0.310982
-0.571712
-0.308582
-0.619971
-0.306606
-0.666863
-0.304441
-0.711519
-0.302281
-0.755507
-0.298797
-0.80046
-0.29554
-0.845797
-0.293512
-0.891416
-0.292025
-0.93657
-0.291104
-0.290029
-0.980963
-0.040745
-0.252921
-0.0927283
-0.290315
-0.146675
-0.28336
-0.201756
-0.279521
-0.254743
-0.276523
-0.303814
-0.274314
-0.352484
-0.267848
-0.403671
-0.263546
-0.456855
-0.260505
-0.510132
-0.257705
-0.563966
-0.254748
-0.616952
-0.25362
-0.668849
-0.252543
-0.719626
-0.251504
-0.767813
-0.250611
-0.815041
-0.248312
-0.862125
-0.246428
-0.909156
-0.244995
-0.956409
-0.243851
-0.243556
-1.00288
-0.0510645
-0.201857
-0.110755
-0.230625
-0.170592
-0.223522
-0.230288
-0.219824
-0.290371
-0.216439
-0.347324
-0.217362
-0.398913
-0.216258
-0.448476
-0.213984
-0.497088
-0.211893
-0.544663
-0.210129
-0.591987
-0.207424
-0.640992
-0.204616
-0.689805
-0.203731
-0.738815
-0.202494
-0.787421
-0.202004
-0.834434
-0.201299
-0.881109
-0.199753
-0.927393
-0.198711
-0.97403
-0.197214
-0.19668
-1.02091
-0.0545415
-0.147315
-0.111164
-0.174002
-0.164204
-0.170483
-0.214864
-0.169164
-0.26709
-0.164214
-0.32171
-0.162742
-0.376954
-0.161014
-0.431087
-0.159851
-0.484795
-0.158184
-0.537861
-0.157064
-0.588668
-0.156617
-0.638378
-0.154906
-0.688813
-0.153296
-0.738587
-0.152721
-0.788655
-0.151937
-0.83799
-0.151964
-0.886194
-0.151549
-0.93378
-0.151125
-0.980483
-0.15051
-0.149694
-1.02747
-0.0522193
-0.0950959
-0.113132
-0.113089
-0.170676
-0.112938
-0.226463
-0.113378
-0.280335
-0.110342
-0.335029
-0.108047
-0.390402
-0.105642
-0.444938
-0.105315
-0.498478
-0.104644
-0.55176
-0.103782
-0.604879
-0.103497
-0.656095
-0.103689
-0.706473
-0.102918
-0.756601
-0.102592
-0.806224
-0.102313
-0.855814
-0.102374
-0.904699
-0.102663
-0.952812
-0.103012
-0.999995
-0.103328
-0.103607
-1.04608
-0.0498301
-0.0452658
-0.107345
-0.0555748
-0.16966
-0.0506231
-0.230474
-0.0525635
-0.288335
-0.0524807
-0.344761
-0.0516206
-0.397999
-0.0524045
-0.451794
-0.0515199
-0.50435
-0.0520875
-0.556365
-0.0517675
-0.607919
-0.0519427
-0.659363
-0.0522455
-0.709617
-0.0526647
-0.759274
-0.0529347
-0.808711
-0.0528764
-0.857588
-0.0534977
-0.906773
-0.0534778
-0.955197
-0.0545879
-1.00366
-0.0548614
-0.0561612
-1.05111
-0.0488828
0.00361696
-0.109363
0.00490578
-0.17297
0.0129835
-0.232375
0.00684186
-0.291129
0.00627289
-0.347866
0.00511703
-0.403594
0.00332328
-0.458028
0.00291374
-0.51164
0.00152413
-0.564583
0.00117595
-0.617152
0.000626075
-0.669152
-0.000245584
-0.720832
-0.000984497
-0.771493
-0.00227403
-0.821508
-0.00286129
-0.870807
-0.00419855
-0.919536
-0.00474802
-0.967964
-0.0061604
-1.01598
-0.00684126
-0.00832073
-1.06382
-0.053289
0.056906
-0.116054
0.0676708
-0.170956
0.0678851
-0.229285
0.0651709
-0.287216
0.0642045
-0.344157
0.0620578
-0.400562
0.0597281
-0.455895
0.0582469
-0.510503
0.0561319
-0.563841
0.0545144
-0.61677
0.0535544
-0.668932
0.0519166
-0.720845
0.0509288
-0.772383
0.0492634
-0.823206
0.0479626
-0.873588
0.046183
-0.923134
0.0447978
-0.972297
0.0430024
-1.02072
0.0415819
0.0398536
-1.06889
-0.0545412
0.111447
-0.113919
0.127049
-0.171902
0.125867
-0.233007
0.126276
-0.29115
0.122347
-0.34797
0.118878
-0.40495
0.116708
-0.460235
0.113532
-0.51576
0.111657
-0.569899
0.108653
-0.622972
0.106628
-0.675235
0.104179
-0.726884
0.102578
-0.777705
0.100085
-0.828211
0.0984686
-0.878261
0.096233
-0.927951
0.0944878
-0.977202
0.0922532
-1.02604
0.0904198
-1.07433
0.0881472
-0.0158525
-0.00540588
0.0212584
0.0155444
-0.0454124
0.0140155
0.116067
-0.206431
0.105908
0.322306
-0.53164
0.325401
0.512735
-0.846418
0.655989
0.619477
-1.0176
0.910857
0.666256
-1.08293
1.03616
0.687454
-1.1021
1.08091
0.697877
-1.10554
1.09512
0.703626
-1.10405
1.0983
0.707382
-1.10039
1.09663
0.711849
-1.09705
1.09258
0.716744
-1.09546
1.09057
0.719782
-1.09209
1.08906
0.721632
-1.08894
1.08709
0.724057
-1.08721
1.08478
0.728042
-1.08702
1.08304
0.733051
-1.08797
1.08296
0.737806
-1.0901
1.08534
-1.09192
0.741242
1.08848
-0.00334763
-0.00205824
0.051508
-0.100268
0.196109
-0.351032
0.389935
-0.725465
0.514897
-0.97138
0.573876
-1.07658
0.598539
-1.1076
0.609264
-1.11283
0.615154
-1.11143
0.619021
-1.10792
0.622583
-1.10395
0.625979
-1.10045
0.627669
-1.09715
0.629075
-1.0935
0.631586
-1.09145
0.634258
-1.08988
0.636161
-1.08893
0.638119
-1.08993
0.640925
-1.0929
-1.09391
0.642918
0.0178951
-0.0199534
0.0875546
-0.169928
0.257867
-0.521345
0.404514
-0.872112
0.482715
-1.04958
0.513524
-1.10739
0.525468
-1.11954
0.531241
-1.1186
0.534625
-1.11481
0.537011
-1.11031
0.539016
-1.10595
0.540203
-1.10163
0.541743
-1.09869
0.543627
-1.09538
0.544636
-1.09246
0.544501
-1.08975
0.545143
-1.08957
0.548352
-1.09314
0.550871
-1.09542
-1.09423
0.551193
0.0336883
-0.0536417
0.120937
-0.257176
0.277417
-0.677824
0.381279
-0.975974
0.427963
-1.09626
0.444948
-1.12437
0.451791
-1.12639
0.455178
-1.12199
0.456796
-1.11643
0.458251
-1.11176
0.459035
-1.10674
0.459983
-1.10258
0.460236
-1.09895
0.459394
-1.09454
0.458254
-1.09132
0.458133
-1.08962
0.459072
-1.09051
0.459624
-1.09369
0.458608
-1.09441
-1.09166
0.456033
0.0309217
-0.0845635
0.142735
-0.36899
0.270683
-0.805772
0.341972
-1.04726
0.368184
-1.12248
0.376751
-1.13294
0.380547
-1.13018
0.381378
-1.12282
0.382267
-1.11732
0.382598
-1.11209
0.382537
-1.10668
0.381601
-1.10164
0.380096
-1.09744
0.37881
-1.09326
0.377608
-1.09012
0.375868
-1.08788
0.374313
-1.08895
0.372758
-1.09214
0.370667
-1.09231
-1.08717
0.366181
0.0298806
-0.114444
0.146126
-0.485235
0.243339
-0.902984
0.291022
-1.09495
0.305834
-1.13729
0.31123
-1.13833
0.312668
-1.13162
0.313004
-1.12315
0.312846
-1.11716
0.311779
-1.11103
0.309803
-1.1047
0.307578
-1.09942
0.30515
-1.09501
0.301995
-1.0901
0.298185
-1.08631
0.294735
-1.08443
0.292282
-1.0865
0.289134
-1.08899
0.284547
-1.08773
-1.07977
0.277143
0.0372899
-0.151734
0.137995
-0.585941
0.213889
-0.978878
0.243476
-1.12453
0.250871
-1.14468
0.253097
-1.14056
0.251541
-1.13006
0.250215
-1.12183
0.247883
-1.11483
0.244875
-1.10802
0.241557
-1.10138
0.237588
-1.09545
0.232943
-1.09037
0.228163
-1.08532
0.223489
-1.08164
0.21848
-1.07943
0.212968
-1.08099
0.206587
-1.08261
0.198928
-1.08007
-1.07068
0.18984
0.0421978
-0.193932
0.123741
-0.667485
0.178779
-1.03392
0.194699
-1.14045
0.197599
-1.14758
0.19584
-1.1388
0.193376
-1.1276
0.190151
-1.1186
0.186167
-1.11085
0.181513
-1.10336
0.176074
-1.09594
0.17017
-1.08955
0.164082
-1.08428
0.157532
-1.07877
0.150228
-1.07433
0.142572
-1.07177
0.13454
-1.07296
0.125831
-1.0739
0.115755
-1.06999
-1.06003
0.105102
0.0445068
-0.238438
0.109054
-0.732032
0.146494
-1.07136
0.153144
-1.1471
0.151821
-1.14626
0.147344
-1.13432
0.142375
-1.12263
0.136664
-1.11289
0.130181
-1.10436
0.12308
-1.09626
0.115659
-1.08852
0.107693
-1.08158
0.0991541
-1.07574
0.0902768
-1.0699
0.0810651
-1.06512
0.0710935
-1.0618
0.0603129
-1.06217
0.0488804
-1.06247
0.0369541
-1.05807
-1.04843
0.025358
0.0368838
-0.275322
0.0885685
-0.783717
0.113353
-1.09614
0.113939
-1.14769
0.108742
-1.14106
0.101958
-1.12754
0.094587
-1.11526
0.0863257
-1.10463
0.0773414
-1.09538
0.067906
-1.08683
0.0579376
-1.07855
0.0475103
-1.07115
0.036854
-1.06508
0.0258417
-1.05888
0.0141266
-1.05341
0.00171406
-1.04939
-0.0115406
-1.04892
-0.024933
-1.04907
-0.0380283
-1.04497
-1.03561
-0.050854
0.0354333
-0.310756
0.0774905
-0.825774
0.0897086
-1.10836
0.0837056
-1.14169
0.0736768
-1.13104
0.0632629
-1.11713
0.0522784
-1.10427
0.0408882
-1.09324
0.0290263
-1.08352
0.0167334
-1.07454
0.00424293
-1.06606
-0.00865166
-1.05826
-0.0218871
-1.05185
-0.0353369
-1.04543
-0.0491375
-1.03961
-0.0637774
-1.03475
-0.0790583
-1.03364
-0.0943283
-1.0338
-0.109016
-1.03028
-1.02146
-0.123157
0.0284487
-0.339204
0.059828
-0.857153
0.0627701
-1.1113
0.0521277
-1.13104
0.0393877
-1.1183
0.0264462
-1.10419
0.0128691
-1.0907
-0.00131384
-1.07906
-0.0159397
-1.06889
-0.0308833
-1.05959
-0.0460967
-1.05085
-0.0616207
-1.04273
-0.0774479
-1.03602
-0.0934131
-1.02947
-0.109651
-1.02337
-0.126577
-1.01782
-0.14471
-1.01551
-0.162855
-1.01566
-0.180095
-1.01304
-1.00483
-0.196727
0.0237634
-0.362968
0.0452515
-0.878641
0.0405298
-1.10658
0.0258205
-1.11634
0.00948707
-1.10196
-0.0068008
-1.0879
-0.0234398
-1.07406
-0.0404786
-1.06202
-0.0579528
-1.05142
-0.0757315
-1.04181
-0.0936728
-1.03291
-0.111914
-1.02449
-0.130289
-1.01765
-0.148693
-1.01106
-0.167243
-1.00482
-0.1864
-0.998664
-0.206405
-0.995501
-0.226487
-0.995577
-0.2457
-0.99383
-0.98645
-0.264082
0.0190084
-0.381976
0.0331362
-0.892769
0.0223373
-1.09578
0.00409149
-1.09809
-0.0152292
-1.08264
-0.0347374
-1.06839
-0.0546487
-1.05415
-0.074964
-1.0417
-0.0953923
-1.03099
-0.116097
-1.02111
-0.136845
-1.01216
-0.157748
-1.00359
-0.179053
-0.996341
-0.200408
-0.989709
-0.22143
-0.983795
-0.242685
-0.977409
-0.265548
-0.972638
-0.289121
-0.972005
-0.311852
-0.9711
-0.964688
-0.333614
0.0150472
-0.397023
0.0215937
-0.899316
0.00421639
-1.0784
-0.0186006
-1.07527
-0.0412983
-1.05994
-0.0638322
-1.04586
-0.0862044
-1.03177
-0.108915
-1.01899
-0.132058
-1.00785
-0.155324
-0.997843
-0.178733
-0.98875
-0.202317
-0.980007
-0.225831
-0.972827
-0.249387
-0.966152
-0.273259
-0.959922
-0.297107
-0.953562
-0.321375
-0.948369
-0.347115
-0.946265
-0.372552
-0.945662
-0.940483
-0.396757
0.0116341
-0.408657
0.0122306
-0.899912
-0.0086661
-1.05751
-0.0339675
-1.04997
-0.0597574
-1.03415
-0.0855218
-1.02009
-0.111432
-1.00586
-0.137522
-0.992902
-0.163592
-0.981776
-0.189976
-0.971459
-0.216171
-0.962555
-0.242411
-0.953767
-0.269269
-0.945969
-0.296041
-0.93938
-0.322222
-0.933741
-0.348785
-0.926999
-0.376448
-0.920706
-0.405044
-0.917668
-0.433459
-0.917247
-0.913347
-0.460594
0.0081439
-0.416801
0.00377139
-0.89554
-0.0235103
-1.03022
-0.0528608
-1.02062
-0.0817558
-1.00526
-0.110355
-0.991491
-0.138301
-0.977918
-0.166495
-0.964709
-0.195105
-0.953166
-0.223769
-0.942795
-0.25267
-0.933654
-0.281411
-0.925026
-0.310037
-0.917344
-0.339421
-0.909996
-0.369244
-0.903919
-0.398175
-0.898068
-0.427054
-0.891827
-0.457786
-0.886936
-0.489287
-0.885747
-0.88302
-0.519615
0.00535551
-0.422157
-0.00452476
-0.885659
-0.0340635
-1.00069
-0.0659444
-0.988739
-0.0974595
-0.973744
-0.128967
-0.959984
-0.160321
-0.946565
-0.191482
-0.933548
-0.222698
-0.921949
-0.2544
-0.911094
-0.285984
-0.90207
-0.31775
-0.89326
-0.349767
-0.885327
-0.381425
-0.878338
-0.413303
-0.87204
-0.446083
-0.865288
-0.478999
-0.858911
-0.51207
-0.853865
-0.546695
-0.851122
-0.84839
-0.581324
0.00233791
-0.424495
-0.0116838
-0.871638
-0.0451453
-0.967224
-0.0800579
-0.953827
-0.11438
-0.939422
-0.148317
-0.926047
-0.181368
-0.913514
-0.214432
-0.900484
-0.247659
-0.888722
-0.281018
-0.877735
-0.314767
-0.86832
-0.348316
-0.859711
-0.381941
-0.851702
-0.416333
-0.843946
-0.450712
-0.83766
-0.484344
-0.831657
-0.519393
-0.823861
-0.556476
-0.816783
-0.594813
-0.812784
-0.809691
-0.633513
-8.76534e-05
-0.0195522
-0.0556255
-0.0929146
-0.129379
-0.165831
-0.201834
-0.237056
-0.272181
-0.307685
-0.343251
-0.379143
-0.415044
-0.450602
-0.48752
-0.52474
-0.560329
-0.597986
-0.639536
-0.684759
0.653812
-9.66659
9.75402
0.573
-9.36068
9.44149
0.506581
-9.35671
9.42313
0.449716
-9.2526
9.30946
0.398575
-9.28081
9.33195
0.347687
-9.17573
9.22662
0.302841
-9.15857
9.20342
0.260403
-9.08981
9.13225
0.223862
-9.05943
9.09597
0.192793
-9.04992
9.08099
0.16483
-9.06439
9.09235
0.142119
-9.04815
9.07086
0.120705
-9.09466
9.11607
0.1021
-9.04554
9.06414
0.0865768
-9.07298
9.0885
0.0698744
-8.98961
9.00631
0.0606185
-8.95677
8.96602
0.0404017
-8.08065
8.10087
0.0223109
-5.8707
5.88879
-2.50731
2.52963
0.553668
-9.57734
0.482296
-9.28931
0.42229
-9.2967
0.371098
-9.20141
0.322708
-9.23242
0.272878
-9.1259
0.230812
-9.11651
0.192313
-9.05132
0.16119
-9.02831
0.135886
-9.02461
0.11455
-9.04305
0.0979861
-9.03158
0.082383
-9.07905
0.0699902
-9.03315
0.0604082
-9.0634
0.0501777
-8.97937
0.0466789
-8.95327
0.0319779
-8.06595
0.0198146
-5.85854
-2.4875
0.458186
-9.48433
0.390116
-9.22124
0.335445
-9.24203
0.286958
-9.15292
0.243275
-9.18874
0.201134
-9.08376
0.167343
-9.08271
0.135109
-9.01908
0.109634
-9.00283
0.0894132
-9.00439
0.0725717
-9.02621
0.0603763
-9.01939
0.0488883
-9.06757
0.0409967
-9.02525
0.0359867
-9.05839
0.0307477
-8.97414
0.0329156
-8.95544
0.0247122
-8.05775
0.0184533
-5.85228
-2.46905
0.361971
-9.39027
0.303572
-9.16284
0.253783
-9.19225
0.208498
-9.10763
0.167461
-9.1477
0.126767
-9.04307
0.0959615
-9.05191
0.0681578
-8.99128
0.0482775
-8.98295
0.0336504
-8.98976
0.0232755
-9.01584
0.0169422
-9.01306
0.0108598
-9.06148
0.00843267
-9.02283
0.00942745
-9.05938
0.0102803
-8.97499
0.0185186
-8.96367
0.0161922
-8.05542
0.015806
-5.85189
-2.45324
0.274651
-9.29874
0.217597
-9.10578
0.169972
-9.14462
0.126304
-9.06396
0.0895054
-9.1109
0.0565499
-9.01011
0.0338924
-9.02925
0.0123192
-8.96971
-0.00205665
-8.96858
-0.011724
-8.9801
-0.0177961
-9.00977
-0.0200564
-9.0108
-0.0220513
-9.05949
-0.0201126
-9.02477
-0.0147435
-9.06475
-0.00941318
-8.98032
0.00424986
-8.97734
0.00891347
-8.06008
0.0143835
-5.85736
-2.43886
0.186915
-9.20851
0.134427
-9.0533
0.0886498
-9.09884
0.0467181
-9.02203
0.013578
-9.07776
-0.0167253
-8.97981
-0.0364073
-9.00957
-0.0531147
-8.953
-0.0618399
-8.95985
-0.0660577
-8.97588
-0.0659244
-9.0099
-0.0625098
-9.01421
-0.0593238
-9.06268
-0.0521044
-9.03199
-0.0410621
-9.0758
-0.0297288
-8.99165
-0.0103268
-8.99674
-2.78471e-05
-8.07038
0.0114668
-5.86886
-2.42739
0.104994
-9.12366
0.0497825
-8.99808
0.00620629
-9.05527
-0.0317506
-8.98408
-0.0618014
-9.04771
-0.0851781
-8.95643
-0.0973705
-8.99738
-0.107826
-8.94254
-0.111038
-8.95664
-0.1103
-8.97662
-0.106029
-9.01417
-0.0988199
-9.02142
-0.0914237
-9.07007
-0.0802162
-9.04319
-0.0648028
-9.09121
-0.0490175
-9.00744
-0.0248273
-9.02093
-0.00672215
-8.08849
0.00965597
-5.88523
-2.41773
0.0249908
-9.04355
-0.0287567
-8.94434
-0.0738643
-9.01016
-0.113077
-8.94486
-0.138415
-9.02237
-0.157522
-8.93732
-0.166191
-8.98871
-0.171386
-8.93735
-0.169113
-8.95891
-0.163153
-8.98258
-0.152883
-9.02444
-0.14011
-9.03419
-0.127586
-9.0826
-0.111228
-9.05955
-0.0906446
-9.11179
-0.0691946
-9.02889
-0.0393165
-9.05081
-0.0146968
-8.11311
0.00683424
-5.90677
-2.4109
-0.0547707
-8.96342
-0.117854
-8.88125
-0.156626
-8.97139
-0.186799
-8.91469
-0.209374
-8.9998
-0.222709
-8.92399
-0.225387
-8.98603
-0.224786
-8.93795
-0.217058
-8.96664
-0.206213
-8.99342
-0.192055
-9.0386
-0.175637
-9.05061
-0.158987
-9.09924
-0.138821
-9.07972
-0.114105
-9.13651
-0.0881534
-9.05484
-0.0534838
-9.08548
-0.0222235
-8.14437
0.00418105
-5.93317
-2.40672
-0.13255
-8.88173
-0.19349
-8.82031
-0.236188
-8.92869
-0.268048
-8.88283
-0.286147
-8.9817
-0.294233
-8.9159
-0.292288
-8.98797
-0.28594
-8.9443
-0.273132
-8.97945
-0.257286
-9.00927
-0.237331
-9.05855
-0.215542
-9.0724
-0.19379
-9.121
-0.168637
-9.10487
-0.13927
-9.16588
-0.107932
-9.08618
-0.0676433
-9.12577
-0.0299685
-8.18204
0.00140919
-5.96455
-2.40531
-0.208667
-8.79622
-0.278061
-8.75092
-0.313888
-8.89286
-0.336906
-8.85981
-0.351342
-8.96726
-0.354496
-8.91275
-0.348542
-8.99393
-0.337342
-8.9555
-0.319339
-8.99745
-0.298982
-9.02963
-0.27546
-9.08207
-0.250094
-9.09777
-0.224324
-9.14677
-0.195478
-9.13372
-0.162169
-9.19918
-0.126406
-9.12194
-0.0814231
-9.17075
-0.0375156
-8.22595
-0.00112458
-6.00094
-2.40643
-0.286966
-8.70598
-0.355079
-8.68281
-0.391543
-8.8564
-0.414618
-8.83674
-0.425827
-8.95605
-0.423932
-8.91464
-0.412559
-9.0053
-0.395649
-8.9724
-0.373094
-9.02001
-0.347885
-9.05484
-0.318785
-9.11118
-0.288348
-9.1282
-0.257611
-9.1775
-0.224006
-9.16732
-0.186373
-9.23682
-0.145508
-9.16281
-0.0950129
-9.22124
-0.0454183
-8.27554
-0.00383003
-6.04253
-2.41026
-0.360147
-8.60991
-0.431182
-8.61177
-0.462675
-8.82491
-0.480016
-8.8194
-0.486178
-8.94989
-0.479881
-8.92094
-0.465544
-9.01964
-0.444516
-8.99343
-0.417151
-9.04737
-0.38793
-9.08406
-0.355591
-9.14351
-0.321686
-9.16211
-0.287052
-9.21214
-0.24986
-9.20451
-0.208501
-9.27818
-0.163422
-9.20789
-0.108391
-9.27627
-0.0531889
-8.33075
-0.00622018
-6.0895
-2.41648
-0.438056
-8.50547
-0.508564
-8.54126
-0.536543
-8.79693
-0.552193
-8.80375
-0.555649
-8.94643
-0.545203
-8.93139
-0.525664
-9.03918
-0.499702
-9.0194
-0.46832
-9.07876
-0.434309
-9.11807
-0.396651
-9.18117
-0.358019
-9.20074
-0.318597
-9.25156
-0.276983
-9.24613
-0.231499
-9.32366
-0.181701
-9.25768
-0.121686
-9.33629
-0.0600041
-8.39243
-0.00784253
-6.14166
-2.42433
-0.50601
-8.39622
-0.575954
-8.47132
-0.601107
-8.77177
-0.614165
-8.79069
-0.612528
-8.94807
-0.598254
-8.94566
-0.575854
-9.06158
-0.546206
-9.04904
-0.51046
-9.1145
-0.472835
-9.15569
-0.432084
-9.22192
-0.389994
-9.24283
-0.346775
-9.29478
-0.301756
-9.29115
-0.252743
-9.37267
-0.199037
-9.31139
-0.134973
-9.40035
-0.0672159
-8.46019
-0.00992896
-6.19894
-2.43426
-0.578621
-8.27819
-0.649131
-8.40081
-0.670478
-8.75043
-0.68129
-8.77988
-0.676666
-8.9527
-0.658811
-8.96352
-0.631996
-9.08839
-0.598253
-9.08279
-0.558801
-9.15396
-0.516485
-9.19801
-0.470802
-9.26761
-0.424309
-9.28932
-0.376487
-9.3426
-0.32721
-9.34042
-0.274386
-9.4255
-0.216606
-9.36917
-0.147696
-9.46926
-0.0747094
-8.53317
-0.0120034
-6.26165
-2.44626
-0.642271
-8.15554
-0.711386
-8.33169
-0.728908
-8.73291
-0.737971
-8.77081
-0.729612
-8.96105
-0.708916
-8.98421
-0.679432
-9.11788
-0.64194
-9.12028
-0.598573
-9.19732
-0.553133
-9.24345
-0.504553
-9.31619
-0.454659
-9.33922
-0.403227
-9.39403
-0.350522
-9.39313
-0.294357
-9.48166
-0.232982
-9.43055
-0.159908
-9.54234
-0.0817595
-8.61132
-0.0130351
-6.33037
-2.45929
-0.711718
-8.02514
-0.782199
-8.26121
-0.7955
-8.7196
-0.802078
-8.76423
-0.790181
-8.97295
-0.765309
-9.00908
-0.731914
-9.15127
-0.691005
-9.16119
-0.644127
-9.2442
-0.594234
-9.29334
-0.541102
-9.36932
-0.486905
-9.39341
-0.431
-9.44994
-0.374193
-9.44994
-0.31438
-9.54147
-0.249472
-9.49545
-0.172182
-9.61963
-0.0879807
-8.69552
-0.013731
-6.40462
-2.47303
-0.766864
-7.89179
-0.842084
-8.18599
-0.850406
-8.71128
-0.857046
-8.75759
-0.842126
-8.98787
-0.815009
-9.0362
-0.77827
-9.18801
-0.733545
-9.20591
-0.682899
-9.29485
-0.630088
-9.34615
-0.573955
-9.42545
-0.516228
-9.45114
-0.456497
-9.50967
-0.396334
-9.5101
-0.332665
-9.60514
-0.264682
-9.56344
-0.184116
-9.70019
-0.0962494
-8.78339
-0.0167219
-6.48415
-2.48975
-0.814234
-7.76232
-0.897616
-8.10261
-0.908494
-8.7004
-0.909768
-8.75632
-0.892294
-9.00535
-0.862407
-9.06609
-0.823339
-9.22708
-0.775718
-9.25353
-0.722746
-9.34782
-0.666377
-9.40252
-0.606847
-9.48498
-0.545242
-9.51275
-0.481486
-9.57343
-0.417404
-9.57418
-0.35187
-9.67068
-0.279965
-9.63534
-0.196098
-9.78406
-0.103226
-8.87626
-0.016984
-6.57039
-2.50673
6.54598
-7.36372
-6.94457
6.0566
-7.61323
5.43301
-8.07682
4.89165
-8.21496
4.36816
-8.48185
3.91636
-8.61429
3.47799
-8.78871
3.10484
-8.88038
2.76406
-9.00704
2.45037
-9.08883
2.13812
-9.17273
1.85245
-9.22707
1.57216
-9.29314
1.32692
-9.32894
1.06533
-9.40908
0.854507
-9.42452
0.528891
-9.45844
0.317839
-8.66521
0.179449
-6.432
-2.32728
3.68165
-7.31662
-3.72876
3.62131
-7.55289
3.40995
-7.86545
3.22611
-8.03113
2.98197
-8.23771
2.75118
-8.38349
2.50052
-8.53805
2.27636
-8.65622
2.04953
-8.7802
1.82987
-8.86918
1.607
-8.94986
1.39838
-9.01846
1.19162
-9.08638
1.00245
-9.13977
0.803643
-9.21027
0.629062
-9.24994
0.418913
-9.24829
0.262438
-8.50873
-0.0163119
-6.15325
-2.34359
2.49928
-7.43101
-2.38489
2.56735
-7.62096
2.57288
-7.87098
2.5428
-8.00105
2.4426
-8.13751
2.32099
-8.26188
2.17177
-8.38883
2.00964
-8.49409
1.82697
-8.59753
1.63728
-8.67949
1.44662
-8.75919
1.26269
-8.83453
1.07842
-8.90211
0.900166
-8.96151
0.711904
-9.02201
0.535055
-9.07309
0.358709
-9.07195
0.241432
-8.39146
0.0618302
-5.97365
-2.28176
1.47634
-7.6179
-1.28945
1.59076
-7.73538
1.63746
-7.91768
1.64701
-8.0106
1.61401
-8.10451
1.55367
-8.20154
1.4671
-8.30226
1.36924
-8.39623
1.25811
-8.4864
1.14383
-8.56521
1.03171
-8.64708
0.912275
-8.71509
0.788889
-8.77873
0.657824
-8.83045
0.521547
-8.88573
0.391976
-8.94352
0.259787
-8.93976
0.176768
-8.30844
0.0993356
-5.89622
-2.18243
0.986594
-7.75395
-0.850542
1.08319
-7.83197
1.13677
-7.97127
1.17911
-8.05293
1.19359
-8.119
1.18133
-8.18929
1.13878
-8.25971
1.07645
-8.3339
0.996726
-8.40667
0.908058
-8.47654
0.80484
-8.54386
0.693277
-8.60353
0.575869
-8.66132
0.453298
-8.70788
0.337849
-8.77028
0.220711
-8.82638
0.115943
-8.83499
0.0765825
-8.26908
0.0607174
-5.88035
-2.12171
0.576294
-7.87512
-0.45513
0.674347
-7.93002
0.718725
-8.01564
0.739018
-8.07323
0.746036
-8.12601
0.728407
-8.17166
0.697649
-8.22895
0.651649
-8.2879
0.596075
-8.3511
0.53072
-8.41119
0.460233
-8.47337
0.38682
-8.53012
0.307502
-8.582
0.224002
-8.62438
0.136846
-8.68313
0.0448718
-8.73441
-0.0421451
-8.74797
-0.0496679
-8.26155
0.0318299
-5.96185
-2.08988
0.351601
-7.95634
-0.270374
0.411965
-7.99039
0.445088
-8.04877
0.460025
-8.08816
0.466245
-8.13223
0.4624
-8.16781
0.442491
-8.20904
0.411291
-8.2567
0.374392
-8.3142
0.324007
-8.3608
0.266419
-8.41578
0.196748
-8.46045
0.122792
-8.50805
0.0449431
-8.54653
-0.0338539
-8.60433
-0.119179
-8.64908
-0.190057
-8.6771
-0.173916
-8.2777
-0.0181159
-6.11765
-2.108
0.132818
-8.01188
-0.077285
0.178654
-8.03622
0.2061
-8.07621
0.212647
-8.09471
0.204581
-8.12417
0.192924
-8.15615
0.172276
-8.18839
0.139248
-8.22368
0.101742
-8.2767
0.0535896
-8.31265
0.000889205
-8.36308
-0.0583306
-8.40123
-0.117251
-8.44913
-0.183344
-8.48044
-0.250401
-8.53727
-0.317422
-8.58206
-0.375863
-8.61866
-0.344182
-8.30938
-0.11682
-6.34502
-2.22482
-0.00835162
-8.04523
0.0417089
0.0111158
-8.05569
0.0146594
-8.07976
0.0160041
-8.09606
0.0036114
-8.11178
-0.0131663
-8.13938
-0.0305156
-8.17104
-0.0576283
-8.19656
-0.0868539
-8.24747
-0.127861
-8.27164
-0.175838
-8.31511
-0.234265
-8.3428
-0.298206
-8.38519
-0.370086
-8.40856
-0.448723
-8.45864
-0.527098
-8.50369
-0.588229
-8.55752
-0.555639
-8.34197
-0.25284
-6.64781
-2.47766
-0.148908
-8.05666
0.16033
-0.138321
-8.06628
-0.136872
-8.08121
-0.136378
-8.09655
-0.139414
-8.10874
-0.15532
-8.12347
-0.176509
-8.14985
-0.210801
-8.16227
-0.251752
-8.20652
-0.298212
-8.22518
-0.355002
-8.25832
-0.417102
-8.2807
-0.485295
-8.31699
-0.553345
-8.3405
-0.637366
-8.37462
-0.717397
-8.42366
-0.798628
-8.47629
-0.788366
-8.35223
-0.437056
-6.99912
-2.91471
-0.241168
-8.06145
0.245959
-0.239604
-8.06784
-0.240231
-8.08058
-0.249469
-8.08731
-0.256768
-8.10144
-0.272436
-8.1078
-0.292577
-8.12971
-0.324846
-8.13
-0.36599
-8.16537
-0.410816
-8.18036
-0.465925
-8.20321
-0.527191
-8.21943
-0.6012
-8.24298
-0.681335
-8.26037
-0.775143
-8.28081
-0.881727
-8.31707
-0.986754
-8.37127
-1.00102
-8.33796
-0.678261
-7.32188
-3.59297
-0.300639
-8.06363
0.302825
-0.301587
-8.06689
-0.307371
-8.0748
-0.315147
-8.07954
-0.325806
-8.09078
-0.339866
-8.09374
-0.355567
-8.11401
-0.381618
-8.10395
-0.422967
-8.12403
-0.472413
-8.13091
-0.529013
-8.14661
-0.593769
-8.15468
-0.670508
-8.16624
-0.753553
-8.17733
-0.847695
-8.18667
-0.955496
-8.20927
-1.09145
-8.23531
-1.16978
-8.25963
-0.93565
-7.55602
-4.52862
-0.32517
-8.05983
0.321371
-0.332615
-8.05945
-0.342742
-8.06467
-0.357747
-8.06453
-0.374135
-8.07439
-0.396095
-8.07178
-0.425521
-8.08459
-0.449109
-8.08036
-0.483993
-8.08914
-0.524598
-8.09031
-0.570372
-8.10083
-0.622466
-8.10258
-0.683485
-8.10523
-0.756641
-8.10417
-0.845587
-8.09772
-0.941005
-8.11385
-1.05454
-8.12178
-1.14504
-8.16912
-0.956721
-7.74434
-5.48535
-0.342378
-8.05282
0.335361
-0.351163
-8.05066
-0.361004
-8.05483
-0.373092
-8.05244
-0.387828
-8.05966
-0.40192
-8.05769
-0.424137
-8.06237
-0.445053
-8.05945
-0.469864
-8.06433
-0.499925
-8.06025
-0.53521
-8.06555
-0.577398
-8.06039
-0.622149
-8.06048
-0.677188
-8.04913
-0.731035
-8.04387
-0.801416
-8.04347
-0.875964
-8.04723
-0.950155
-8.09493
-0.821057
-7.87344
-6.3064
-0.337683
-8.0434
0.328262
-0.347938
-8.04041
-0.360068
-8.0427
-0.372171
-8.04034
-0.389611
-8.04222
-0.405511
-8.04179
-0.422101
-8.04578
-0.439506
-8.04204
-0.458295
-8.04554
-0.477033
-8.04151
-0.499342
-8.04324
-0.522996
-8.03674
-0.547701
-8.03577
-0.573919
-8.02291
-0.599854
-8.01794
-0.635707
-8.00762
-0.667858
-8.01508
-0.71521
-8.04758
-0.650839
-7.93781
-6.95724
-0.309111
-8.03611
0.301828
-0.315529
-8.03399
-0.322986
-8.03524
-0.329088
-8.03424
-0.336188
-8.03512
-0.344828
-8.03315
-0.355551
-8.03505
-0.364723
-8.03287
-0.375376
-8.03489
-0.385102
-8.03178
-0.395102
-8.03324
-0.404933
-8.02691
-0.411564
-8.02914
-0.414575
-8.0199
-0.414589
-8.01792
-0.432468
-7.98974
-0.444592
-8.00295
-0.459739
-8.03244
-0.42732
-7.97023
-7.38456
-0.257048
-8.02874
0.249669
-0.263022
-8.02801
-0.270301
-8.02796
-0.277277
-8.02726
-0.283891
-8.0285
-0.289601
-8.02744
-0.296004
-8.02865
-0.301318
-8.02756
-0.307262
-8.02894
-0.312259
-8.02679
-0.316935
-8.02856
-0.319586
-8.02426
-0.321493