/*--------------------------------*- C++ -*----------------------------------*\
  =========                 |
  \\      /  F ield         | OpenFOAM: The Open Source CFD Toolbox
   \\    /   O peration     | Website:  https://openfoam.org
    \\  /    A nd           | Version:  9
     \\/     M anipulation  |
\*---------------------------------------------------------------------------*/
FoamFile
{
    format      ascii;
    class       volVectorField;
    location    "20";
    object      U;
}
// * * * * * * * * * * * * * * * * * * * * * * * * * * * * * * * * * * * * * //

dimensions      [0 1 -1 0 0 0 0];

internalField   nonuniform List<vector> 
46400
(
(7.63876 -7.36016 7.45588e-19)
(15.1601 -14.5961 -8.97686e-19)
(16.1236 -16.2036 -4.37643e-20)
(15.4628 -16.2791 -2.66368e-19)
(14.9685 -16.342 -3.25912e-20)
(14.4144 -16.429 1.55692e-18)
(13.9278 -16.4899 -8.95185e-19)
(13.4515 -16.5492 2.40112e-19)
(13.0211 -16.6369 -2.41007e-19)
(12.58 -16.6642 2.41426e-19)
(12.1852 -16.7512 -2.41398e-19)
(11.8245 -16.8248 0)
(11.4563 -16.8976 1.62561e-18)
(11.1452 -16.9969 -1.83674e-18)
(10.814 -17.0694 -2.09302e-18)
(10.5165 -17.1233 -2.57956e-19)
(10.239 -17.2535 -2.06513e-20)
(9.95732 -17.2535 1.57889e-18)
(9.66621 -17.2178 2.01887e-18)
(9.25814 -17.3625 -1.86858e-18)
(7.88795 -6.93539 0)
(15.1796 -13.6757 -2.48535e-20)
(15.88 -14.9122 0)
(15.2342 -15.1056 1.2158e-18)
(14.7136 -15.1809 -9.68364e-19)
(14.1801 -15.3246 2.36396e-19)
(13.7118 -15.4701 0)
(13.238 -15.5708 -2.40094e-19)
(12.759 -15.6509 2.4099e-19)
(12.3399 -15.7398 -2.41409e-19)
(11.9126 -15.8382 2.26164e-18)
(11.5421 -15.9288 2.47676e-20)
(11.1742 -16.0512 -1.7401e-18)
(10.8373 -16.1341 0)
(10.5301 -16.281 2.38298e-19)
(10.2339 -16.3811 2.37041e-19)
(9.94266 -16.4867 0)
(9.69822 -16.5883 -1.94432e-18)
(9.48356 -16.7104 -4.76333e-19)
(9.17306 -16.9439 1.97629e-18)
(8.0413 -6.52432 6.84691e-19)
(15.0945 -12.6665 -9.47735e-19)
(15.6164 -13.7202 1.03657e-18)
(14.9597 -13.8882 1.08788e-18)
(14.4659 -14.0546 -1.06803e-18)
(13.912 -14.1886 0)
(13.4192 -14.3458 -2.47953e-18)
(12.979 -14.5141 2.15836e-18)
(12.5497 -14.683 -2.46786e-18)
(12.1069 -14.7636 2.42989e-18)
(11.7099 -14.9102 2.16397e-18)
(11.3475 -15.0265 -2.55632e-19)
(10.9858 -15.159 -1.84149e-18)
(10.6668 -15.2948 0)
(10.3254 -15.3964 2.09773e-18)
(10.0476 -15.5503 -2.06589e-18)
(9.76756 -15.7029 0)
(9.46569 -15.728 -1.30898e-20)
(9.19361 -15.806 2.41964e-19)
(8.84559 -16.0835 -2.09679e-18)
(8.16707 -6.09333 -8.12081e-19)
(14.8518 -11.5059 2.53551e-19)
(15.2265 -12.5009 1.1754e-18)
(14.5701 -12.7248 -1.16167e-18)
(14.0325 -12.8993 -8.83914e-19)
(13.5093 -13.1069 1.16956e-18)
(13.0207 -13.3199 1.46912e-18)
(12.5575 -13.5013 -3.52548e-18)
(12.1141 -13.7073 2.90313e-18)
(11.7147 -13.8707 -2.80085e-19)
(11.2849 -14.0205 0)
(10.9316 -14.1698 2.76164e-19)
(10.5605 -14.3198 -2.73876e-19)
(10.2538 -14.4669 0)
(9.94992 -14.6361 2.21443e-18)
(9.64666 -14.741 -1.90062e-18)
(9.43773 -15.0181 0)
(9.2283 -15.1951 2.60505e-19)
(8.97607 -15.2965 2.67561e-19)
(8.64214 -15.5703 2.21287e-18)
(8.35358 -5.62883 0)
(14.5031 -10.3431 0)
(14.7415 -11.2315 -1.28089e-18)
(14.0986 -11.5028 9.32363e-19)
(13.6071 -11.7799 -1.59186e-18)
(13.0572 -11.9775 1.26199e-18)
(12.5565 -12.2106 0)
(12.1394 -12.4562 1.26032e-18)
(11.7281 -12.7307 -1.54035e-18)
(11.3239 -12.9167 -3.17193e-19)
(10.9433 -13.1438 -3.13541e-19)
(10.5986 -13.3201 0)
(10.2542 -13.5171 2.38852e-18)
(9.9361 -13.687 -2.35117e-18)
(9.6266 -13.8639 0)
(9.28211 -13.947 -2.57855e-18)
(8.96058 -14.0597 2.26408e-18)
(8.751 -14.272 2.23837e-18)
(8.5301 -14.4265 -2.46426e-18)
(8.19817 -14.7296 0)
(8.59305 -5.22412 0)
(13.9994 -9.19509 0)
(14.1138 -10.0097 0)
(13.4678 -10.3299 -2.47508e-20)
(12.9492 -10.6553 0)
(12.4796 -10.957 0)
(11.9709 -11.2271 0)
(11.5016 -11.4373 -3.43308e-19)
(11.1003 -11.7499 0)
(10.7456 -12.0167 3.17163e-19)
(10.3457 -12.2606 -1.66329e-20)
(10.0214 -12.4971 -2.87126e-18)
(9.66197 -12.6907 2.1846e-18)
(9.37888 -12.9076 -2.7905e-18)
(9.14723 -13.1871 2.12505e-18)
(8.90605 -13.4034 0)
(8.62477 -13.5753 -2.3677e-18)
(8.38139 -13.7221 2.03532e-18)
(8.17797 -13.9026 0)
(7.87199 -14.1873 -3.10311e-19)
(8.876 -4.82157 1.40479e-18)
(13.399 -8.15498 3.83831e-19)
(13.2988 -8.81166 1.49364e-18)
(12.7485 -9.18943 -1.49096e-18)
(12.2834 -9.60347 -1.46702e-18)
(11.8178 -9.89821 2.89128e-18)
(11.3759 -10.249 -3.22431e-18)
(10.9665 -10.5077 3.37538e-19)
(10.5445 -10.8058 1.03291e-18)
(10.1925 -11.0769 0)
(9.84839 -11.3827 -1.57273e-20)
(9.56376 -11.6706 -1.49445e-20)
(9.25971 -11.9483 3.20785e-19)
(8.90007 -12.0894 2.5697e-18)
(8.60508 -12.3099 -2.23206e-18)
(8.34594 -12.5174 -2.82025e-18)
(8.08648 -12.7412 2.46415e-18)
(7.85878 -12.9235 -1.1075e-20)
(7.65806 -13.126 -3.03313e-19)
(7.39838 -13.4405 -2.22119e-18)
(9.0156 -4.51945 -3.73137e-19)
(12.5843 -7.09328 2.46393e-20)
(12.3703 -7.78098 -4.07237e-19)
(11.8729 -8.16797 -1.59455e-18)
(11.404 -8.63381 1.14735e-18)
(11.03 -9.01477 0)
(10.5796 -9.38774 2.25995e-18)
(10.1585 -9.65637 -1.10289e-18)
(9.7741 -9.98752 7.29515e-19)
(9.44111 -10.2796 3.66678e-19)
(9.05881 -10.5486 -7.0764e-19)
(8.76939 -10.8513 1.73143e-18)
(8.53874 -11.2196 3.48142e-19)
(8.31561 -11.5332 -2.01497e-18)
(8.05811 -11.7905 5.62193e-18)
(7.83048 -12.0382 -2.2817e-18)
(7.58049 -12.2603 2.87492e-18)
(7.34857 -12.4485 -1.88578e-18)
(7.14574 -12.6439 6.16466e-19)
(6.90597 -12.9558 2.95876e-18)
(8.96279 -4.18258 1.8825e-18)
(11.7152 -6.15169 -4.09582e-19)
(11.3733 -6.78546 -2.12202e-20)
(10.9657 -7.19884 8.24663e-19)
(10.5678 -7.717 3.96893e-19)
(10.1944 -8.08747 4.08909e-19)
(9.86862 -8.55068 -1.96074e-18)
(9.52579 -8.87804 1.16938e-18)
(9.12437 -9.19781 -3.72931e-19)
(8.83282 -9.51911 -3.66732e-19)
(8.50393 -9.80758 -3.60563e-19)
(8.16603 -10.0148 -3.67105e-19)
(7.88386 -10.3063 -7.08501e-19)
(7.63805 -10.5876 2.43895e-18)
(7.4206 -10.9051 -3.42133e-18)
(7.20895 -11.1642 -3.40598e-19)
(7.01367 -11.4596 9.91694e-21)
(6.80921 -11.6747 -2.57547e-18)
(6.61102 -11.8997 1.91162e-18)
(6.39888 -12.2081 -3.03767e-18)
(8.63329 -3.74448 1.61449e-18)
(10.6644 -5.29177 -3.99115e-18)
(10.315 -5.93985 2.62788e-18)
(9.92353 -6.36381 -4.22304e-19)
(9.52293 -6.90067 -4.32621e-19)
(9.23358 -7.36344 1.6861e-18)
(8.85634 -7.81511 -2.05807e-18)
(8.55369 -8.20129 0)
(8.20906 -8.56346 1.5794e-18)
(7.94537 -8.93122 -1.553e-18)
(7.70109 -9.33083 -1.1334e-18)
(7.42207 -9.62416 1.48357e-18)
(7.14764 -9.91294 3.60326e-19)
(6.91637 -10.1909 -1.43392e-18)
(6.71321 -10.4976 3.52462e-19)
(6.52608 -10.7793 1.72565e-18)
(6.3329 -11.0545 -3.04075e-18)
(6.162 -11.3072 2.00157e-18)
(5.97654 -11.5268 -8.28336e-21)
(5.77758 -11.8285 -2.78451e-18)
(8.10531 -3.25043 2.12979e-18)
(9.66546 -4.47016 -1.38706e-18)
(9.28797 -5.13482 9.13557e-19)
(8.94855 -5.56578 1.70333e-21)
(8.56643 -6.09016 -1.77611e-18)
(8.26659 -6.52438 -1.71376e-18)
(8.04034 -7.08499 2.11495e-18)
(7.804 -7.5181 -1.23993e-18)
(7.4413 -7.89112 1.63428e-18)
(7.11145 -8.1785 0)
(6.87118 -8.55984 1.10407e-20)
(6.65732 -8.89351 3.78823e-19)
(6.41923 -9.22279 3.81383e-19)
(6.16937 -9.49384 -3.73631e-19)
(5.96406 -9.80286 0)
(5.79848 -10.1141 3.58679e-19)
(5.6427 -10.4276 0)
(5.49281 -10.7127 6.81323e-19)
(5.3412 -10.977 3.33428e-18)
(5.15761 -11.2882 -1.68988e-20)
(7.36495 -2.73193 1.12032e-18)
(8.41983 -3.73083 -2.37862e-19)
(8.04302 -4.39072 -3.31578e-18)
(7.80918 -4.88095 1.85606e-18)
(7.45654 -5.4151 4.47839e-19)
(7.14887 -5.83405 -4.39295e-19)
(6.81823 -6.3224 -1.74697e-18)
(6.68361 -6.86506 1.29447e-18)
(6.51813 -7.39337 0)
(6.28479 -7.80685 0)
(6.03558 -8.19366 -2.00372e-18)
(5.81962 -8.55153 1.58056e-18)
(5.62456 -8.89515 -3.81388e-19)
(5.42792 -9.20527 -1.13442e-18)
(5.20342 -9.46548 7.93376e-21)
(5.02818 -9.74829 2.54223e-18)
(4.87525 -10.0337 -1.42484e-18)
(4.75009 -10.3183 1.04385e-18)
(4.63033 -10.5888 -1.70584e-18)
(4.48685 -10.8965 0)
(6.50642 -2.21895 -9.33817e-19)
(7.42383 -3.05433 1.47462e-18)
(7.10482 -3.71463 2.4588e-19)
(6.86641 -4.22202 2.40954e-19)
(6.57648 -4.82268 0)
(6.28138 -5.25008 1.82589e-18)
(5.94723 -5.67867 -1.79383e-18)
(5.67437 -6.07912 2.21493e-19)
(5.44995 -6.55722 0)
(5.25593 -6.99737 1.6774e-18)
(5.09752 -7.45851 -1.44228e-18)
(4.94761 -7.89383 1.60666e-18)
(4.78255 -8.30077 -1.58118e-18)
(4.63865 -8.68714 1.53887e-18)
(4.48027 -9.04229 -1.32497e-18)
(4.29682 -9.34034 -1.47434e-18)
(4.14937 -9.65612 2.89564e-18)
(4.0127 -9.94307 -1.24351e-18)
(3.90315 -10.2367 1.74786e-19)
(3.78535 -10.5676 1.48519e-18)
(5.44908 -1.74237 -7.33121e-19)
(6.0006 -2.56294 7.62861e-19)
(5.5846 -3.25593 -2.458e-19)
(5.32474 -3.84308 -2.40878e-19)
(5.11687 -4.49328 0)
(5.01463 -5.10858 0)
(4.76187 -5.60644 0)
(4.58431 -6.04719 -4.47025e-19)
(4.40385 -6.47511 -1.74644e-18)
(4.22461 -6.86737 3.42536e-18)
(4.00233 -7.22613 -1.88756e-18)
(3.86763 -7.60147 -2.06307e-19)
(3.75211 -7.99273 0)
(3.63312 -8.34591 0)
(3.53888 -8.71832 -3.83397e-19)
(3.42573 -9.04239 0)
(3.29727 -9.35242 1.46472e-18)
(3.19276 -9.64953 -1.80253e-18)
(3.08071 -9.92176 -1.57788e-18)
(2.99143 -10.2611 1.51874e-18)
(4.26898 -1.28779 7.61188e-19)
(4.80861 -2.09082 1.28784e-18)
(4.52937 -2.74388 -1.54143e-21)
(4.32644 -3.24612 -2.40089e-21)
(4.06317 -3.78216 2.41243e-19)
(3.92565 -4.30376 -7.12134e-19)
(3.84885 -4.89368 0)
(3.67705 -5.38205 -6.80914e-19)
(3.51873 -5.88884 2.28098e-19)
(3.39917 -6.34374 8.71504e-19)
(3.28162 -6.81111 8.47301e-19)
(3.09397 -7.17085 -6.27355e-19)
(2.97058 -7.58463 1.62015e-18)
(2.85372 -7.94884 -1.39522e-18)
(2.74351 -8.32552 1.74254e-18)
(2.65867 -8.67896 -3.23246e-18)
(2.55236 -9.01935 1.49303e-18)
(2.45932 -9.3267 1.809e-19)
(2.35976 -9.61832 1.41977e-18)
(2.26162 -9.93825 -1.53654e-18)
(2.7819 -0.742529 2.62207e-19)
(3.26178 -1.65046 -2.59725e-19)
(3.10692 -2.3098 1.02576e-18)
(3.02362 -2.95771 -1.00692e-18)
(2.82703 -3.51675 -4.90968e-19)
(2.68747 -4.06366 -1.19833e-18)
(2.46132 -4.59929 4.82614e-21)
(2.37822 -5.12597 9.2154e-19)
(2.25619 -5.62873 -2.23375e-19)
(2.14052 -6.08618 0)
(2.05063 -6.56042 0)
(1.99541 -6.98989 0)
(1.87548 -7.39115 0)
(1.81479 -7.77438 1.47268e-21)
(1.73485 -8.15189 0)
(1.68058 -8.50286 1.90859e-19)
(1.62593 -8.86222 7.47049e-19)
(1.57294 -9.17747 -2.198e-18)
(1.52127 -9.48783 1.62061e-18)
(1.45328 -9.79804 -1.53836e-18)
(1.87994 -0.514229 0)
(2.0379 -1.26899 -1.32267e-19)
(1.96881 -1.95086 0)
(1.84388 -2.69331 3.78406e-19)
(1.69696 -3.28927 -2.49379e-19)
(1.53043 -3.89951 -9.66164e-19)
(1.45979 -4.43162 4.91543e-21)
(1.35887 -4.93715 9.28106e-19)
(1.28269 -5.44393 -9.01826e-19)
(1.20871 -5.89202 1.768e-18)
(1.13332 -6.35368 -5.68593e-21)
(1.06425 -6.7641 -8.47158e-19)
(1.01237 -7.19584 8.22318e-19)
(0.938746 -7.55553 -1.01049e-18)
(0.882731 -7.94862 0)
(0.831691 -8.28293 -7.68182e-19)
(0.786927 -8.64709 7.56693e-19)
(0.75737 -8.96658 0)
(0.725962 -9.28519 -1.7993e-19)
(0.703582 -9.61744 0)
(0.225071 -0.397756 0)
(0.475144 -0.935267 1.32338e-19)
(0.109099 -1.79923 0)
(0.18005 -2.42055 5.07149e-19)
(0.174195 -3.12063 -6.22313e-19)
(0.163465 -3.69232 3.63229e-19)
(0.144691 -4.28872 -1.06829e-18)
(0.0844365 -4.79696 4.65348e-19)
(0.0698163 -5.32438 -1.13274e-19)
(0.0224992 -5.7831 0)
(-0.00263858 -6.26023 -1.08122e-19)
(-0.0163733 -6.68574 -1.05641e-19)
(-0.0454247 -7.11903 -1.03229e-19)
(-0.0475331 -7.51369 0)
(-0.0867862 -7.89809 -7.86482e-19)
(-0.0865814 -8.25728 1.63981e-18)
(-0.127632 -8.60543 -1.41491e-18)
(-0.118848 -8.93427 7.40714e-19)
(-0.148167 -9.24189 9.01864e-20)
(-0.136302 -9.57562 7.74554e-19)
(-0.457831 -0.251636 -9.60205e-20)
(-0.869104 -1.04013 -2.19977e-19)
(-1.02563 -1.70269 6.47935e-22)
(-0.892295 -2.3128 6.97611e-19)
(-0.970714 -2.9914 -1.8628e-19)
(-0.994849 -3.56177 -1.20603e-19)
(-0.983218 -4.16175 1.19931e-19)
(-0.985143 -4.69136 2.3239e-19)
(-0.984217 -5.22084 1.13266e-19)
(-0.993272 -5.70333 -4.40937e-19)
(-1.01371 -6.16707 4.87972e-19)
(-1.02456 -6.61207 1.05639e-19)
(-1.02758 -7.03094 5.14408e-19)
(-1.02518 -7.44536 -2.94914e-21)
(-1.01674 -7.82987 4.62037e-20)
(-1.00761 -8.20675 -8.66998e-19)
(-0.993848 -8.56154 2.36943e-19)
(-0.984202 -8.8999 0)
(-0.969376 -9.21263 -4.52619e-20)
(-0.962473 -9.54797 -3.86766e-19)
(-2.34529 -0.211859 6.69379e-20)
(-2.57231 -1.04048 -1.31239e-19)
(-2.48399 -1.66582 2.57306e-19)
(-2.54239 -2.36374 -6.36015e-20)
(-2.46696 -3.04083 -6.16068e-20)
(-2.38079 -3.60851 0)
(-2.32227 -4.2169 -1.17423e-19)
(-2.28825 -4.7436 2.30134e-19)
(-2.22518 -5.27669 -1.12787e-19)
(-2.17418 -5.77287 1.09509e-19)
(-2.14263 -6.24179 -5.38622e-20)
(-2.08536 -6.68351 -1.04536e-19)
(-2.06683 -7.10763 2.05025e-19)
(-2.01924 -7.50768 -2.00378e-19)
(-1.99372 -7.89176 4.91714e-20)
(-1.9442 -8.25889 3.38574e-34)
(-1.91738 -8.6162 -4.63173e-20)
(-1.86445 -8.95105 2.74337e-19)
(-1.83345 -9.26824 -1.35502e-19)
(-1.77933 -9.60451 -9.69817e-20)
(-0.255761 -0.32402 0)
(-0.116157 -0.499882 9.01623e-22)
(0.564495 -3.62884 0)
(2.59996 -10.5113 6.3773e-22)
(5.54542 -19.1213 2.87591e-22)
(7.2208 -24.3206 -1.85209e-22)
(7.87941 -26.527 0)
(8.07389 -27.2102 -1.19956e-21)
(8.09217 -27.4013 0)
(8.05353 -27.3802 0)
(7.96259 -27.3156 2.51699e-21)
(7.87572 -27.2102 8.7123e-22)
(7.81644 -27.1911 -5.8639e-21)
(7.74809 -27.1589 0)
(7.636 -27.0582 -4.1363e-21)
(7.572 -26.9795 -4.492e-21)
(7.45855 -26.9679 -4.73189e-21)
(7.44176 -27.0221 0)
(7.35606 -27.0939 1.0438e-20)
(7.32987 -27.1309 -9.7302e-21)
(-0.360207 0.0313593 2.72059e-21)
(0.379148 -1.75273 -3.91201e-21)
(1.35442 -6.62052 0)
(4.67651 -15.8287 -2.2388e-21)
(6.86819 -22.734 8.29929e-22)
(7.94761 -26.0018 3.06732e-21)
(8.26959 -27.0287 -2.44343e-21)
(8.32475 -27.2961 -5.16101e-21)
(8.29778 -27.2746 2.62416e-20)
(8.22413 -27.2264 -1.69877e-20)
(8.1376 -27.1194 2.61425e-21)
(8.08244 -27.0587 -2.82285e-20)
(7.98566 -27.0034 -3.61665e-21)
(7.90288 -26.8752 3.08983e-20)
(7.80309 -26.8234 4.15164e-21)
(7.75836 -26.8203 4.47351e-21)
(7.66384 -26.829 4.78835e-21)
(7.61484 -26.8245 0)
(7.52194 -26.8664 4.66887e-20)
(7.50893 -26.9206 2.53144e-21)
(0.0226858 -0.152332 0)
(0.690811 -3.21623 0)
(2.92632 -10.6395 0)
(6.2336 -19.6952 -5.58941e-22)
(7.84607 -24.8349 7.48162e-23)
(8.46435 -26.7006 0)
(8.58542 -27.1941 2.722e-21)
(8.56832 -27.1854 -1.18749e-20)
(8.50859 -27.1453 1.20521e-20)
(8.42092 -27.0346 -2.52127e-20)
(8.35255 -26.9509 3.21376e-20)
(8.25424 -26.8505 0)
(8.17372 -26.7564 3.58056e-20)
(8.10201 -26.712 4.25366e-20)
(8.02162 -26.6776 -6.5975e-20)
(7.95655 -26.6088 8.90156e-20)
(7.83192 -26.5712 -7.17647e-20)
(7.82452 -26.6303 0)
(7.7502 -26.7494 1.15426e-19)
(7.74562 -26.7475 -1.99674e-19)
(0.43419 -0.81198 9.18666e-21)
(1.19557 -5.09841 0)
(4.57475 -14.7063 2.64207e-21)
(7.29079 -22.5774 -3.91403e-22)
(8.54127 -26.068 2.39205e-21)
(8.82391 -27.0115 -4.52318e-21)
(8.87257 -27.1165 -2.74605e-21)
(8.82633 -27.0796 -5.14988e-20)
(8.73583 -26.9472 8.91713e-20)
(8.66266 -26.8462 2.38198e-20)
(8.56665 -26.7324 -6.49459e-20)
(8.49197 -26.6346 -1.8538e-20)
(8.41087 -26.5981 1.01081e-19)
(8.32583 -26.4962 -1.01492e-19)
(8.22086 -26.4031 -3.41712e-20)
(8.14179 -26.3545 2.48071e-20)
(8.07561 -26.4048 -3.78877e-20)
(8.06384 -26.5268 0)
(7.95677 -26.5463 1.49908e-20)
(7.93942 -26.4901 0)
(0.396039 -1.76021 0)
(2.03822 -7.38702 1.32337e-20)
(5.96834 -17.9581 -1.56515e-20)
(8.27549 -24.365 -3.43244e-21)
(9.03709 -26.6338 4.72189e-21)
(9.20924 -27.0479 4.41667e-21)
(9.17107 -27.0345 0)
(9.08757 -26.8796 -3.73823e-20)
(9.00518 -26.7585 4.75076e-20)
(8.91465 -26.6527 -8.1411e-20)
(8.83659 -26.5391 6.57883e-20)
(8.74164 -26.454 1.85365e-20)
(8.64713 -26.3361 -1.10416e-19)
(8.55231 -26.242 2.07399e-19)
(8.46705 -26.2043 -1.48432e-19)
(8.40959 -26.1863 4.86931e-20)
(8.31038 -26.207 1.40224e-19)
(8.28983 -26.2533 -3.45067e-19)
(8.18082 -26.301 1.95526e-19)
(8.16168 -26.2246 2.69623e-19)
(0.318182 -2.4453 2.37293e-20)
(3.27374 -10.3854 1.82736e-20)
(7.12189 -20.5202 -1.80398e-20)
(9.04939 -25.6008 -8.74244e-22)
(9.52864 -26.9156 -2.6031e-21)
(9.55522 -26.9858 -3.02605e-20)
(9.51061 -26.8808 2.97359e-20)
(9.40367 -26.6909 0)
(9.31656 -26.5657 -6.57763e-20)
(9.23043 -26.4364 6.46716e-20)
(9.11999 -26.3104 8.44236e-20)
(9.01899 -26.1773 -8.3057e-20)
(8.92558 -26.1162 0)
(8.83309 -26.0355 0)
(8.72646 -25.9497 -2.52736e-19)
(8.62977 -25.8864 2.47127e-19)
(8.5626 -25.9536 2.45405e-19)
(8.55035 -26.0742 -2.40872e-19)
(8.4257 -26.0842 2.58035e-19)
(8.3743 -25.9124 -3.18719e-19)
(0.618713 -3.2206 -2.23426e-20)
(4.46595 -12.731 1.51076e-20)
(8.19126 -22.2472 1.30022e-20)
(9.79509 -26.1862 1.23994e-20)
(10.0178 -26.877 0)
(10.0137 -26.853 0)
(9.89359 -26.6505 -9.91339e-20)
(9.77826 -26.4598 -2.70333e-20)
(9.67584 -26.3199 1.24675e-19)
(9.55536 -26.1849 -1.70511e-19)
(9.4462 -26.0386 1.67702e-19)
(9.33466 -25.9509 0)
(9.22288 -25.8361 -2.22356e-19)
(9.0998 -25.7146 2.18873e-19)
(8.9951 -25.6575 0)
(8.92849 -25.6615 0)
(8.83543 -25.7389 0)
(8.79636 -25.7598 0)
(8.63384 -25.7525 0)
(8.5624 -25.5457 3.44532e-20)
(1.16017 -4.24271 5.23649e-21)
(5.73211 -14.8649 -4.07827e-20)
(9.27357 -23.6911 0)
(10.4611 -26.5301 0)
(10.5436 -26.7984 -5.89821e-20)
(10.4532 -26.6338 -4.41412e-20)
(10.2835 -26.3704 1.01559e-19)
(10.1762 -26.1965 0)
(10.0376 -26.0406 -2.12886e-20)
(9.9161 -25.8883 2.42524e-20)
(9.77922 -25.7582 0)
(9.64465 -25.6073 -2.93074e-20)
(9.52145 -25.5226 2.78846e-19)
(9.40779 -25.4496 -5.38929e-19)
(9.28707 -25.3775 -1.73479e-20)
(9.16978 -25.3115 2.71166e-19)
(9.07217 -25.3687 3.81132e-20)
(9.03172 -25.4531 -3.91211e-20)
(8.84843 -25.4271 0)
(8.76088 -25.1897 -4.11919e-20)
(1.67989 -5.02784 0)
(6.84119 -16.1388 -5.59667e-21)
(10.2401 -24.3165 -4.8457e-20)
(11.0981 -26.4107 -5.15341e-21)
(11.087 -26.5003 -1.03895e-20)
(10.94 -26.2853 -1.22938e-19)
(10.7711 -26.0696 2.00257e-19)
(10.6018 -25.8596 -1.81969e-19)
(10.4569 -25.7006 2.17925e-19)
(10.2926 -25.5529 -2.73209e-19)
(10.1386 -25.3877 -6.1118e-20)
(9.99381 -25.2926 -2.95805e-19)
(9.85346 -25.1871 1.53067e-19)
(9.6938 -25.0585 3.98364e-19)
(9.56009 -24.98 -3.64017e-19)
(9.45174 -24.9837 0)
(9.34443 -25.0557 -1.21846e-19)
(9.26506 -25.0598 -4.68725e-20)
(9.0465 -25.0101 8.8273e-20)
(8.96528 -24.7795 -4.89945e-20)
(2.29232 -6.11828 -3.1253e-20)
(7.79261 -17.4449 3.50416e-20)
(11.2373 -24.8808 -5.19342e-21)
(11.7873 -26.2967 1.63613e-20)
(11.6556 -26.2085 3.87747e-20)
(11.4505 -25.9127 2.59197e-20)
(11.2247 -25.6513 -7.88578e-21)
(11.0524 -25.4664 4.2517e-20)
(10.8542 -25.2958 0)
(10.6786 -25.1367 5.56098e-20)
(10.4991 -25.0113 6.11115e-20)
(10.3187 -24.8566 -8.5598e-21)
(10.1525 -24.7627 -3.16508e-19)
(10.0048 -24.6933 1.45953e-19)
(9.85175 -24.623 4.13964e-19)
(9.6901 -24.5422 -3.31037e-19)
(9.56478 -24.575 -2.74983e-19)
(9.48065 -24.6461 4.39765e-19)
(9.27397 -24.6184 -8.83715e-20)
(9.19407 -24.3921 -6.78182e-19)
(2.81763 -6.72445 -6.19574e-20)
(8.89626 -18.077 6.03692e-20)
(12.069 -24.7765 4.06508e-20)
(12.4425 -25.7753 -4.55226e-20)
(12.2176 -25.6512 -1.53605e-19)
(11.9736 -25.4014 1.29552e-19)
(11.7301 -25.192 3.01714e-19)
(11.486 -24.9761 3.42178e-20)
(11.2762 -24.8161 -2.33157e-19)
(11.0572 -24.6762 2.14249e-19)
(10.848 -24.5157 -5.92877e-19)
(10.6574 -24.4235 3.78952e-19)
(10.4762 -24.3342 7.89555e-20)
(10.2765 -24.212 -2.76186e-19)
(10.101 -24.1222 7.25328e-19)
(9.94801 -24.1162 -3.66208e-19)
(9.82368 -24.1629 0)
(9.70061 -24.1877 8.02913e-19)
(9.49243 -24.1661 -7.90697e-19)
(9.41182 -23.955 7.29629e-19)
(3.4555 -7.44246 5.19822e-21)
(9.91193 -18.6832 2.7087e-20)
(12.9159 -24.7091 -3.22513e-20)
(13.0666 -25.3094 -1.61826e-19)
(12.7561 -25.103 8.25663e-20)
(12.4762 -24.8302 -2.70213e-19)
(12.1667 -24.5885 1.58853e-19)
(11.922 -24.4223 -2.80532e-19)
(11.6617 -24.2636 5.83173e-19)
(11.4242 -24.1197 -2.28286e-19)
(11.1955 -24.0152 0)
(10.9636 -23.873 0)
(10.7496 -23.7905 0)
(10.5637 -23.737 7.99179e-19)
(10.3703 -23.676 -7.86815e-19)
(10.161 -23.581 0)
(10.0104 -23.5985 0)
(9.8834 -23.6969 1.1299e-19)
(9.68881 -23.7088 0)
(9.59154 -23.5142 1.02264e-18)
(4.01985 -7.81756 7.09909e-21)
(10.8405 -18.8716 4.2145e-20)
(13.578 -24.1696 1.28732e-19)
(13.6169 -24.5685 8.67955e-20)
(13.2543 -24.3981 -3.02029e-19)
(12.9496 -24.1767 1.17277e-20)
(12.6251 -23.9828 -3.90287e-20)
(12.3074 -23.7828 3.81516e-19)
(12.0359 -23.6419 0)
(11.7588 -23.5262 2.81222e-19)
(11.496 -23.3912 -4.76714e-19)
(11.2557 -23.3185 0)
(11.0288 -23.2503 -8.62529e-19)
(10.7892 -23.1535 8.49001e-19)
(10.5726 -23.0811 -9.1033e-19)
(10.3772 -23.0719 1.70582e-18)
(10.2205 -23.0829 -9.15398e-19)
(10.0475 -23.1469 -1.12553e-19)
(9.86918 -23.1803 1.24244e-19)
(9.76998 -23.0148 -9.96032e-19)
(4.57418 -8.13999 8.35707e-20)
(11.7152 -18.8149 3.87633e-20)
(14.2533 -23.6366 5.55595e-20)
(14.1969 -23.8236 -4.35884e-19)
(13.7439 -23.6247 -1.07258e-19)
(13.3969 -23.4058 3.68638e-19)
(13.0143 -23.2038 3.59651e-19)
(12.6908 -23.0727 -5.10513e-20)
(12.3688 -22.9393 -4.88732e-19)
(12.0704 -22.8271 6.45153e-19)
(11.7896 -22.7561 -3.23616e-19)
(11.507 -22.6401 1.05815e-18)
(11.2463 -22.5879 -7.97016e-19)
(11.0244 -22.5658 9.87022e-19)
(10.7889 -22.534 -8.41551e-19)
(10.5375 -22.4404 -9.02977e-19)
(10.3505 -22.4393 1.00772e-18)
(10.1798 -22.572 -9.02791e-19)
(10.0042 -22.6359 8.98066e-19)
(9.88637 -22.4996 1.22565e-18)
(5.14469 -8.30759 1.67302e-19)
(12.5295 -18.6934 9.61714e-20)
(14.8142 -22.814 -2.09598e-19)
(14.5927 -22.9173 3.16386e-19)
(14.1456 -22.7691 -3.10823e-19)
(13.7522 -22.6048 -8.4973e-20)
(13.3669 -22.4435 0)
(12.9761 -22.2836 1.1769e-19)
(12.6503 -22.1857 -3.67183e-19)
(12.3189 -22.105 1.3416e-18)
(12.0081 -22.0144 -9.71605e-19)
(11.7234 -21.9757 -2.57655e-19)
(11.4484 -21.9325 -1.2483e-19)
(11.1731 -21.8707 0)
(10.9254 -21.8518 1.35067e-20)
(10.698 -21.8648 -1.12263e-18)
(10.4819 -21.8343 -2.70495e-20)
(10.259 -21.906 -3.01201e-19)
(10.0909 -21.9997 1.10584e-18)
(9.9757 -21.9031 -2.94184e-19)
(5.62815 -8.35791 -2.48711e-19)
(13.1854 -18.1866 4.91295e-19)
(15.2651 -21.9258 -2.93588e-19)
(15.0372 -21.9416 -3.96582e-19)
(14.5098 -21.8132 -4.64162e-20)
(14.0925 -21.6739 3.05532e-19)
(13.6575 -21.5348 -1.29778e-19)
(13.2648 -21.4499 -1.17677e-19)
(12.8824 -21.3514 0)
(12.532 -21.286 0)
(12.2024 -21.2578 1.14793e-18)
(11.8749 -21.1805 -2.0132e-18)
(11.5757 -21.1747 1.15355e-18)
(11.3178 -21.192 0)
(11.0396 -21.1883 1.43906e-20)
(10.7578 -21.133 1.38995e-18)
(10.524 -21.1513 -1.3724e-18)
(10.2982 -21.2534 1.44951e-19)
(10.115 -21.3585 1.38444e-18)
(10.0051 -21.2924 -9.43895e-19)
(6.11827 -8.35488 3.3849e-19)
(13.8723 -17.764 -4.40775e-19)
(15.6481 -20.9547 0)
(15.283 -20.909 0)
(14.7719 -20.8195 -1.3614e-19)
(14.2982 -20.7381 6.72036e-19)
(13.868 -20.63 1.47058e-20)
(13.4153 -20.5285 -5.64898e-19)
(13.0438 -20.488 1.2278e-18)
(12.6636 -20.4475 -2.4647e-18)
(12.3132 -20.4201 1.23675e-18)
(11.9919 -20.426 -3.21084e-19)
(11.6656 -20.4059 -1.48758e-18)
(11.3585 -20.3916 -2.04803e-19)
(11.085 -20.4477 9.7679e-19)
(10.8223 -20.4828 -1.59204e-19)
(10.5414 -20.4504 1.50566e-18)
(10.2767 -20.5176 -1.30196e-18)
(10.0947 -20.6524 1.29555e-20)
(9.9931 -20.6309 -1.37102e-18)
(6.54458 -8.20109 0)
(14.3141 -17.0361 -3.723e-19)
(15.8704 -19.7892 3.42891e-19)
(15.4952 -19.8023 0)
(14.9631 -19.7345 1.3613e-19)
(14.4718 -19.6978 -6.35771e-19)
(14.0133 -19.6405 7.74617e-19)
(13.5673 -19.61 0)
(13.1294 -19.5536 -1.38131e-18)
(12.7384 -19.5418 1.35827e-18)
(12.3633 -19.5594 -1.8482e-19)
(12.0029 -19.5425 1.68949e-19)
(11.6709 -19.5924 1.70834e-19)
(11.3655 -19.6234 1.72259e-19)
(11.0457 -19.6493 1.63491e-18)
(10.7543 -19.6797 -2.90284e-18)
(10.4835 -19.7514 2.903e-18)
(10.1931 -19.8114 -2.85796e-18)
(9.97 -19.9236 1.24553e-18)
(9.87429 -19.9379 -1.79947e-19)
(6.94638 -8.01953 0)
(14.7739 -16.3353 5.55537e-19)
(16.1029 -18.6855 -2.80454e-19)
(15.5715 -18.664 -4.9965e-19)
(15.0618 -18.6394 -3.91062e-20)
(14.5299 -18.6491 -3.4537e-20)
(14.0637 -18.6162 7.12656e-19)
(13.5788 -18.5864 0)
(13.1673 -18.6069 0)
(12.7454 -18.6002 0)
(12.3626 -18.6374 1.84812e-19)
(12.011 -18.6841 0)
(11.6457 -18.7104 1.79305e-18)
(11.3219 -18.7582 -1.56251e-18)
(11.0169 -18.8549 1.59109e-18)
(10.7133 -18.8922 -3.15614e-18)
(10.3913 -18.911 1.56535e-18)
(10.0949 -19.0305 1.75452e-18)
(9.84659 -19.1546 -3.08179e-18)
(9.72398 -19.1381 1.61615e-18)
(7.30378 -7.70379 0)
(15.002 -15.4893 0)
(16.1013 -17.4018 -1.68247e-19)
(15.5574 -17.5 -1.76828e-19)
(15.0395 -17.4915 0)
(14.5064 -17.5517 -8.18094e-19)
(14.0394 -17.5921 8.03738e-19)
(13.5648 -17.6204 0)
(13.0887 -17.6174 -1.70341e-18)
(12.6704 -17.6498 1.67498e-18)
(12.2578 -17.7036 0)
(11.8793 -17.7414 1.72994e-18)
(11.5201 -17.8335 -1.75326e-19)
(11.1702 -17.8744 -1.70555e-18)
(10.825 -17.9414 0)
(10.5243 -18.0428 0)
(10.1777 -18.1012 0)
(9.81567 -18.0917 1.51798e-18)
(9.52015 -18.161 -1.69372e-18)
(9.30039 -18.2344 0)
(6.7892 -26.9724 0)
(6.14453 -26.0976 0)
(5.3422 -26.0896 2.57579e-21)
(4.86502 -25.7762 2.8583e-21)
(4.33298 -25.828 0)
(3.8623 -25.5329 8.13264e-23)
(3.3914 -25.4818 -3.51656e-21)
(2.9831 -25.3006 0)
(2.57314 -25.2241 -3.97498e-21)
(2.26067 -25.1867 0)
(1.94958 -25.2158 4.21065e-21)
(1.69725 -25.1673 2.17468e-21)
(1.46942 -25.2944 -2.18608e-21)
(1.25581 -25.1549 -4.50846e-21)
(1.05036 -25.2238 0)
(0.928537 -24.9957 1.16705e-21)
(0.659588 -24.8896 -4.86664e-21)
(0.705283 -22.4809 0)
(0.179221 -16.3383 0)
(0.297029 -6.99743 -4.52492e-21)
(6.84515 -26.7419 -5.39868e-21)
(6.23852 -25.9157 0)
(5.44284 -25.8914 -1.35956e-20)
(4.95777 -25.6267 8.21411e-21)
(4.43486 -25.7291 0)
(3.89612 -25.436 1.74729e-20)
(3.39943 -25.3901 -7.13665e-21)
(2.95811 -25.1894 0)
(2.54325 -25.0985 -4.12008e-21)
(2.23265 -25.083 8.13607e-21)
(1.92644 -25.1334 -1.2744e-20)
(1.69219 -25.091 1.73394e-20)
(1.46132 -25.2216 -1.32431e-20)
(1.258 -25.0883 4.43587e-21)
(1.05673 -25.1705 4.12726e-21)
(0.94332 -24.9343 -3.96886e-21)
(0.679793 -24.8577 7.52183e-21)
(0.712853 -22.3996 1.19665e-20)
(0.166975 -16.2685 3.42811e-21)
(0.309763 -6.92918 6.01322e-21)
(6.98753 -26.4418 -4.20973e-21)
(6.29987 -25.6637 7.07385e-21)
(5.52972 -25.7309 1.10991e-20)
(5.00694 -25.4622 0)
(4.46112 -25.5286 0)
(3.91687 -25.2309 -2.13767e-20)
(3.45943 -25.2217 -6.82236e-22)
(3.02924 -25.0567 -5.32798e-22)
(2.61639 -25.0147 -4.70364e-22)
(2.30875 -25.007 1.64117e-20)
(1.99421 -25.0567 0)
(1.75196 -25.0341 0)
(1.51139 -25.1654 0)
(1.29413 -25.0406 1.63365e-20)
(1.08902 -25.1227 0)
(0.964428 -24.8874 1.34015e-20)
(0.698128 -24.825 -7.32513e-21)
(0.727406 -22.3617 -7.17174e-21)
(0.172354 -16.2382 -1.18411e-20)
(0.327518 -6.87484 -1.82297e-20)
(7.04812 -26.1706 -1.71614e-20)
(6.41239 -25.4886 3.61968e-20)
(5.65798 -25.5241 8.72508e-22)
(5.09014 -25.295 -2.36381e-20)
(4.55217 -25.4223 0)
(3.94277 -25.1299 -2.93139e-20)
(3.46426 -25.129 7.53702e-20)
(3.00028 -24.9388 -4.68799e-20)
(2.59183 -24.8897 3.23899e-20)
(2.28316 -24.9037 -1.6898e-20)
(1.97616 -24.9727 -2.14013e-22)
(1.74879 -24.9552 1.76673e-20)
(1.50443 -25.0886 -1.77525e-20)
(1.29082 -24.9757 -8.64421e-21)
(1.0853 -25.0701 -6.2574e-21)
(0.970366 -24.8384 -1.39197e-20)
(0.706457 -24.7969 9.10374e-21)
(0.734693 -22.2903 -9.53173e-21)
(0.155302 -16.1893 5.67251e-22)
(0.339663 -6.8088 1.92147e-20)
(7.21834 -25.8342 -2.83915e-20)
(6.53691 -25.2465 -9.69394e-21)
(5.76219 -25.3687 2.39143e-20)
(5.14684 -25.1232 -3.72006e-20)
(4.57116 -25.2103 0)
(3.96016 -24.9201 1.46362e-20)
(3.52305 -24.9647 -1.52313e-20)
(3.07349 -24.8131 0)
(2.66869 -24.8088 1.42879e-22)
(2.36252 -24.8285 0)
(2.04735 -24.8992 3.45218e-20)
(1.80995 -24.8987 0)
(1.55375 -25.0302 0)
(1.32879 -24.9233 3.21812e-20)
(1.1142 -25.0242 -1.2569e-20)
(0.990373 -24.7903 1.33252e-20)
(0.713285 -24.7695 0)
(0.742734 -22.2571 -4.76599e-21)
(0.164703 -16.1639 2.18352e-21)
(0.351406 -6.7583 0)
(7.35547 -25.5441 -1.89015e-20)
(6.67441 -25.0631 2.13481e-20)
(5.88344 -25.1419 -6.31856e-20)
(5.19884 -24.9308 6.33513e-20)
(4.63343 -25.0954 -2.86948e-20)
(3.98422 -24.8185 -1.46822e-20)
(3.52267 -24.8723 3.13331e-20)
(3.04266 -24.6899 3.24034e-20)
(2.64725 -24.6847 -1.65513e-20)
(2.34004 -24.7245 -3.43606e-20)
(2.0332 -24.8137 1.71496e-20)
(1.80774 -24.8164 0)
(1.54884 -24.9494 0)
(1.32435 -24.8608 8.5108e-23)
(1.11046 -24.9704 1.27135e-20)
(0.993845 -24.7428 -1.7911e-20)
(0.719316 -24.7423 0)
(0.746539 -22.1992 3.83784e-20)
(0.151121 -16.1381 6.59321e-22)
(0.353484 -6.69622 2.3906e-21)
(7.56002 -25.2042 6.05233e-20)
(6.80365 -24.8071 -6.31918e-20)
(5.95514 -24.974 2.50116e-20)
(5.279 -24.7489 0)
(4.65099 -24.8777 2.88165e-20)
(4.00201 -24.6078 -6.16805e-20)
(3.57441 -24.7106 3.04547e-20)
(3.11254 -24.5734 -3.24951e-20)
(2.72395 -24.6075 0)
(2.41991 -24.6504 0)
(2.10608 -24.7422 -3.53127e-20)
(1.86845 -24.7597 3.55204e-20)
(1.59624 -24.8889 0)
(1.36401 -24.8052 -5.52026e-20)
(1.13392 -24.9259 1.3629e-20)
(1.01567 -24.6953 1.8861e-20)
(0.724351 -24.7164 -9.45187e-21)
(0.749264 -22.1719 -4.7759e-20)
(0.163313 -16.12 -4.22837e-21)
(0.353785 -6.65032 -4.32193e-21)
(7.73607 -24.8886 0)
(6.98715 -24.5955 4.96349e-20)
(6.05566 -24.7013 -4.43691e-20)
(5.29583 -24.5391 0)
(4.66745 -24.7498 0)
(4.01509 -24.5054 6.28873e-20)
(3.56729 -24.6189 -6.30768e-20)
(3.08187 -24.4475 0)
(2.70402 -24.4855 -3.43156e-20)
(2.39886 -24.5468 6.94258e-20)
(2.09299 -24.6556 -3.51444e-20)
(1.86646 -24.6734 -3.61874e-20)
(1.59249 -24.8051 3.62954e-20)
(1.3623 -24.7373 0)
(1.13191 -24.8691 0)
(1.01428 -24.6454 1.88694e-20)
(0.73092 -24.6898 -1.33833e-20)
(0.746411 -22.1325 -1.33469e-23)
(0.162195 -16.1046 3.41356e-21)
(0.344835 -6.59502 -4.7547e-21)
(7.92429 -24.5292 -4.10028e-20)
(7.07379 -24.3038 4.75791e-20)
(6.02616 -24.5251 7.73367e-20)
(5.39079 -24.3366 -1.15256e-19)
(4.70194 -24.5333 1.21038e-19)
(4.04938 -24.3029 1.97671e-21)
(3.61872 -24.4603 -6.42189e-20)
(3.14952 -24.3414 0)
(2.77859 -24.4118 0)
(2.47833 -24.4731 -3.52458e-20)
(2.1644 -24.5856 0)
(1.92452 -24.6163 0)
(1.63703 -24.7431 0)
(1.39986 -24.6807 0)
(1.15155 -24.824 0)
(1.03239 -24.5982 0)
(0.736609 -24.665 1.20406e-20)
(0.747116 -22.1125 -1.88272e-20)
(0.167094 -16.0978 9.81339e-22)
(0.332532 -6.55483 -4.73854e-21)
(8.0641 -24.2618 1.26626e-20)
(7.24017 -24.0361 7.69371e-20)
(6.11179 -24.2748 2.97862e-20)
(5.38235 -24.1401 3.21105e-20)
(4.68206 -24.3924 -2.90238e-20)
(4.04182 -24.1947 -9.59227e-20)
(3.60122 -24.3651 -3.3488e-20)
(3.12268 -24.2136 0)
(2.761 -24.2925 3.52826e-20)
(2.4583 -24.3705 -7.06331e-20)
(2.15305 -24.4967 -3.61299e-20)
(1.92226 -24.5266 -3.66345e-20)
(1.63432 -24.6571 0)
(1.40072 -24.6084 -3.73293e-20)
(1.15099 -24.7638 -3.22452e-20)