/*--------------------------------*- C++ -*----------------------------------*\
  =========                 |
  \\      /  F ield         | OpenFOAM: The Open Source CFD Toolbox
   \\    /   O peration     | Website:  https://openfoam.org
    \\  /    A nd           | Version:  9
     \\/     M anipulation  |
\*---------------------------------------------------------------------------*/
FoamFile
{
    format      ascii;
    class       volScalarField;
    location    "5.6";
    object      nut;
}
// * * * * * * * * * * * * * * * * * * * * * * * * * * * * * * * * * * * * * //

dimensions      [0 2 -1 0 0 0 0];

internalField   nonuniform List<scalar> 
46400
(
0.0217728
0.00793995
0.00230218
0.00164663
0.00164312
0.00161803
0.00153638
0.00149849
0.00142925
0.00139653
0.00134417
0.00129967
0.00125476
0.00123137
0.001207
0.00120204
0.0011548
0.00106352
0.00140257
0.00114944
0.0212981
0.00709629
0.00196841
0.00169011
0.0016498
0.00161839
0.00152703
0.00149773
0.00143003
0.00138751
0.0013322
0.00129552
0.00125552
0.00120455
0.00115939
0.00112562
0.00106176
0.000971001
0.00120242
0.00108062
0.02079
0.00606175
0.00152121
0.00171116
0.00161393
0.00161762
0.00152829
0.00149431
0.00142109
0.00139065
0.00133732
0.00128099
0.00124135
0.00120419
0.00117704
0.00114957
0.00108117
0.00101207
0.00131675
0.00111734
0.0202129
0.00521879
0.00147574
0.0017243
0.00161854
0.00161497
0.00152135
0.00148922
0.0014272
0.00137748
0.00133929
0.00129936
0.00126012
0.00120789
0.00116291
0.00113789
0.00107574
0.000997087
0.00130598
0.00116895
0.0195762
0.00463434
0.00147678
0.00173858
0.00160627
0.0016129
0.00153278
0.00149741
0.00142912
0.00139074
0.00133763
0.00128336
0.00124733
0.00121749
0.00118673
0.00116418
0.00111392
0.00102682
0.00133488
0.00117238
0.0188375
0.00533512
0.0015695
0.00173899
0.00161775
0.00161146
0.00152245
0.00148549
0.00143596
0.00138042
0.00134778
0.00130596
0.00126737
0.00121874
0.00118046
0.0011429
0.00110106
0.00102717
0.00130919
0.00119654
0.0180737
0.00530804
0.001606
0.00176974
0.0016288
0.00162556
0.00155061
0.00149736
0.00143951
0.001402
0.00134564
0.00129306
0.0012526
0.0012268
0.0012082
0.00118289
0.00113173
0.00104269
0.00133138
0.00120115
0.0172674
0.00523149
0.00165288
0.00179156
0.001629
0.00160791
0.00154188
0.00149815
0.00144425
0.00138597
0.00136362
0.00132219
0.0012792
0.00121378
0.00118682
0.00116491
0.00112846
0.00105156
0.00128741
0.0012073
0.015984
0.00433477
0.00163823
0.00178121
0.00164076
0.00158825
0.00152368
0.00146849
0.00143323
0.00138084
0.00133102
0.00129191
0.0012775
0.00123337
0.00118774
0.00116737
0.00111826
0.00105385
0.0012568
0.00117323
0.0143756
0.00348908
0.00167654
0.00174378
0.00164393
0.0015806
0.00153722
0.00146738
0.0014284
0.00137575
0.00132328
0.0012626
0.00123557
0.00121111
0.00117315
0.00114722
0.00111506
0.00104024
0.00121889
0.0011596
0.0118849
0.00287223
0.00173511
0.00169479
0.00162307
0.00153557
0.0014788
0.00141705
0.001368
0.00135008
0.00135064
0.00127854
0.00122417
0.00119063
0.00116182
0.00112573
0.00109538
0.00103286
0.00115942
0.00111274
0.00949405
0.0024151
0.00167128
0.00165907
0.00162547
0.00155129
0.00152854
0.00146478
0.00139883
0.00128464
0.00126957
0.00125885
0.00121256
0.00117084
0.00114668
0.00111067
0.00108158
0.00103252
0.00113416
0.00108575
0.00781354
0.00211011
0.00170948
0.00158085
0.00158666
0.00150463
0.00144752
0.0014062
0.0014231
0.00136202
0.00127398
0.00123962
0.00121478
0.00116549
0.00114214
0.00110981
0.00106576
0.00102292
0.0011026
0.00105232
0.00621023
0.00188276
0.00169399
0.00158119
0.00158967
0.00154982
0.00148871
0.00135669
0.00133356
0.00132991
0.00128694
0.00123568
0.00120841
0.00116746
0.00112944
0.00110617
0.00107082
0.0010207
0.00109894
0.00105092
0.00521277
0.00167589
0.0016454
0.00156297
0.0015089
0.00148301
0.00155118
0.0014886
0.00139623
0.00133306
0.00131033
0.00124261
0.00120272
0.00116806
0.00113133
0.00110158
0.00107122
0.00101531
0.00107142
0.00102256
0.00459533
0.00170097
0.00173133
0.00163511
0.00154432
0.00135939
0.00134984
0.00136741
0.00135458
0.00129797
0.00127085
0.00124069
0.00120337
0.001169
0.00114246
0.00110798
0.00107513
0.00102564
0.00106317
0.00101713
0.00451858
0.00168627
0.00168661
0.00159677
0.00165922
0.00155208
0.00142218
0.00133222
0.00129771
0.00125233
0.00122586
0.00119612
0.00117186
0.00113364
0.0011002
0.00108271
0.00104533
0.00100565
0.00103666
0.000992735
0.0040662
0.00169376
0.00148968
0.00143387
0.00142916
0.00146291
0.00144168
0.0014011
0.00134886
0.0013052
0.00126326
0.00121342
0.0011801
0.00114636
0.00111145
0.00108432
0.0010547
0.0010009
0.00103219
0.000989578
0.00428624
0.00180347
0.00162577
0.00154736
0.00144003
0.00141664
0.00138082
0.00135287
0.00132712
0.00127979
0.00123111
0.00119337
0.00116014
0.00112473
0.00109693
0.00106251
0.00104448
0.000990849
0.00101681
0.000985943
0.00265451
0.00180393
0.00161885
0.00159538
0.00150966
0.00144864
0.00140774
0.00135721
0.00130726
0.00128564
0.00123848
0.00120713
0.0011689
0.00113146
0.00110283
0.00106569
0.00103899
0.000980111
0.00100249
0.000962141
0.00657196
0.0150329
0.0125382
0.00353735
0.000147706
0.000482931
0.000868958
0.00090629
0.000865522
0.000845855
0.00084299
0.00084516
0.000824159
0.000822661
0.00082865
0.000914731
0.000975655
0.00103231
0.000988472
0.000860446
0.00949101
0.015498
0.0114411
0.00174715
0.000460136
0.00083158
0.00100381
0.000965499
0.000908947
0.000883695
0.000874578
0.000851298
0.000848651
0.000868982
0.000861847
0.000924312
0.000985204
0.00105571
0.000982892
0.000855768
0.012177
0.0156952
0.0103701
0.000602313
0.000620677
0.00100764
0.00106156
0.000999157
0.000986699
0.000958776
0.000932163
0.000923198
0.000898712
0.000889975
0.000896986
0.000982354
0.00102728
0.00107806
0.000983973
0.000864746
0.0147627
0.0156566
0.00923067
0.000338892
0.00077693
0.00113362
0.00114867
0.00107124
0.00101163
0.0009807
0.000978398
0.000951856
0.000942144
0.000945768
0.000929091
0.000990683
0.00103642
0.00110318
0.000988111
0.000876222
0.0174145
0.0155454
0.00700876
0.000545107
0.00100535
0.00121464
0.00115575
0.00111736
0.00108693
0.00104805
0.00100717
0.000988864
0.000965183
0.000959463
0.000968727
0.0010383
0.00106467
0.0011188
0.000993034
0.000891242
0.0186288
0.0154527
0.00514465
0.000119104
0.00115591
0.00128442
0.00121703
0.00115882
0.00110353
0.00106819
0.00106674
0.00103814
0.00101731
0.000997998
0.000974958
0.00103794
0.00107787
0.00113925
0.000983798
0.00089738
0.0202604
0.0150454
0.00372698
0.000279992
0.00127205
0.00132498
0.00123995
0.0012009
0.00116155
0.00111376
0.00106926
0.00104931
0.00103314
0.00102608
0.0010229
0.00106387
0.00108482
0.00117082
0.00101151
0.000918152
0.0205601
0.0148477
0.00270404
0.000481925
0.00133276
0.00135749
0.00130065
0.00122764
0.00118238
0.00114285
0.00113266
0.00109981
0.00106762
0.00103901
0.00101787
0.00106552
0.00108259
0.00115613
0.000981771
0.00091429
0.0213756
0.0144802
0.00186956
0.00069075
0.00143755
0.00138741
0.00132563
0.00127374
0.00122301
0.00117329
0.00113148
0.0011114
0.0010938
0.00107801
0.00105632
0.00107885
0.00111052
0.0012143
0.00102851
0.000945474
0.0220191
0.014056
0.00147066
0.000903377
0.00147601
0.0014143
0.00136792
0.00128747
0.00124632
0.0011969
0.00117707
0.00114671
0.00111178
0.00108065
0.00105546
0.0010672
0.00106424
0.00116998
0.000987354
0.000940045
0.0224765
0.0136873
0.00125064
0.00106461
0.00153081
0.00144157
0.0013948
0.00133129
0.00127827
0.00123272
0.00118439
0.00116067
0.00114183
0.00111935
0.00108697
0.00109481
0.00111888
0.0012213
0.00101749
0.000964535
0.0228873
0.0132341
0.00159475
0.00119381
0.00155993
0.00145837
0.00142324
0.00134158
0.00129231
0.00123909
0.00121749
0.00118679
0.00114772
0.00111973
0.00108507
0.00106418
0.0010568
0.00117976
0.000977616
0.000960333
0.0230895
0.0127968
0.00183945
0.0012995
0.00159644
0.00148625
0.00144502
0.00137914
0.0013283
0.0012808
0.00122323
0.00120272
0.00118252
0.00115635
0.00111999
0.00110345
0.00110364
0.00120011
0.000990024
0.000981555
0.0232795
0.0123458
0.00216927
0.00137013
0.00163556
0.00149665
0.00146619
0.00139273
0.00133224
0.00128396
0.00125599
0.00121669
0.00117775
0.00115922
0.00112189
0.001079
0.00105875
0.00116208
0.000946153
0.000983206
0.0232938
0.0119902
0.00276476
0.00140795
0.00164439
0.00153847
0.00148438
0.00142222
0.00137167
0.00131979
0.00126132
0.00124631
0.0012158
0.00118615
0.00115388
0.00112269
0.00110323
0.00116665
0.000942655
0.0010023
0.0232882
0.0117024
0.00265854
0.00148656
0.00165763
0.00153644
0.00149977
0.00143799
0.00137353
0.00133062
0.00128762
0.00124447
0.00121364
0.00120061
0.00116052
0.00110663
0.00108184
0.00113736
0.000896265
0.00101386
0.023094
0.0112697
0.00232605
0.00150864
0.00165836
0.00157667
0.00151791
0.00145963
0.0014069
0.00135997
0.001305
0.00128679
0.0012411
0.00121655
0.0011982
0.00116224
0.00113569
0.00114488
0.000873973
0.00102902
0.0229083
0.0108901
0.00254148
0.00158073
0.00167524
0.00156925
0.00152376
0.00147634
0.0014092
0.00137087
0.00131723
0.00127825
0.00125459
0.00123204
0.00119244
0.00115112
0.00114229
0.00114541
0.000833448
0.00104757
0.022554
0.00984931
0.0022329
0.00158023
0.00167271
0.00160771
0.00154038
0.00149257
0.00143381
0.0013967
0.00134599
0.0013166
0.00127104
0.00125655
0.00123967
0.00120956
0.00120889
0.0011812
0.000829838
0.00102697
0.0222237
0.00916273
0.00264628
0.0016334
0.00167726
0.00160339
0.00153398
0.00150078
0.00143377
0.00139936
0.00134672
0.00131707
0.00129829
0.00127093
0.00124724
0.00125229
0.00126553
0.00124069
0.00101342
0.00117267
0.00613876
0.00460757
0.00309177
0.00275343
0.00248764
0.00208091
0.0017612
0.00145779
0.00120729
0.00100961
0.000809908
0.000655149
0.000521145
0.000461583
0.000461969
0.000890804
0.00221808
0.00636336
0.0105811
0.0145318
0.00608773
0.00454678
0.0035649
0.00271929
0.00252904
0.00210897
0.0017903
0.00147212
0.0012128
0.00101474
0.000807771
0.000657847
0.000525072
0.000458001
0.000456736
0.000890437
0.00219846
0.00633293
0.0104613
0.0144786
0.00554922
0.00460083
0.0033996
0.0026927
0.0024924
0.0020332
0.00174074
0.00143617
0.00118576
0.000996233
0.000788311
0.000634975
0.000496101
0.000433304
0.000426409
0.000872689
0.00218522
0.00633208
0.0104972
0.0144481
0.00627709
0.00458518
0.00359556
0.00267811
0.00253861
0.00206446
0.00177042
0.00145539
0.00119499
0.00100554
0.000790835
0.000640311
0.000502689
0.000430956
0.000395045
0.000868329
0.00217067
0.0063156
0.0104928
0.0144215
0.00651214
0.00461344
0.00362013
0.00264671
0.00248823
0.00199557
0.00172191
0.00142153
0.0011687
0.000987023
0.000770956
0.000618406
0.000478246
0.000406853
0.000364355
0.000828594
0.00216068
0.00630025
0.0104796
0.0144047
0.00645956
0.00457336
0.00362891
0.00265844
0.00253242
0.00203214
0.00174853
0.00144533
0.00118148
0.000999744
0.000778349
0.000629103
0.000488889
0.000405452
0.000336348
0.000810252
0.00209393
0.00626028
0.0104721
0.0143937
0.00673482
0.00460973
0.00363707
0.00262157
0.00247439
0.00197267
0.00170131
0.00141424
0.00115727
0.000981377
0.000761154
0.00061215
0.00043483
0.000380597
0.000319201
0.000794951
0.00208836
0.00624232
0.0104592
0.0144098
0.00660877
0.00457316
0.00365633
0.00265263
0.00251319
0.00201185
0.00172541
0.00144063
0.00117223
0.000996072
0.0007729
0.000629136
0.000486202
0.000369976
0.000295818
0.000775223
0.00202893
0.00621397
0.0104406
0.0144113
0.00682764
0.00460677
0.0036475
0.0026099
0.00244854
0.00196064
0.00168073
0.00141243
0.0011501
0.000979251
0.000758061
0.000616372
0.000475379
0.000351234
0.000280385
0.000751128
0.00199618
0.00619911
0.0104609
0.0144242
0.00670684
0.00456566
0.00367488
0.00264894
0.0024822
0.00199877
0.00170425
0.00143856
0.0011663
0.000995398
0.000773753
0.000636849
0.000498274
0.000362851
0.000264498
0.000685685
0.00186893
0.00615284
0.010443
0.0144454
0.00687529
0.00458151
0.00365454
0.00260418
0.00240952
0.00195582
0.00166294
0.00141255
0.00114606
0.000980256
0.000760309
0.00062612
0.000488856
0.000361754
0.000203234
0.000631409
0.00186613
0.00613567
0.0104548
0.014466
0.00677879
0.00452817
0.00368115
0.00264767
0.00243426
0.00198916
0.00168617
0.00143742
0.00116292
0.000997935
0.000778247
0.000648776
0.000506957
0.000401549
0.000138311
0.000587873
0.00173572
0.00610156
0.0104836
0.0145043
0.00690709
0.00451365
0.00365064
0.00260376
0.00236281
0.00195501
0.0016478
0.00141461
0.0011454
0.000984765
0.000766709
0.000641198
0.000496319
0.000394542
0.000174021
0.000531764
0.00169181
0.00607472
0.010504
0.0145624
0.00684132
0.00443604
0.00366549
0.00264633
0.00237299
0.00198557
0.00166924
0.00143706
0.00116309
0.0010032
0.000786514
0.000664964
0.000517879
0.000416076
0.000191442
0.000466454
0.00158846
0.00604558
0.0105214
0.0146779
0.00695637
0.00438145
0.00361153
0.00260792
0.00230752
0.00195611
0.0016356
0.00141699
0.00114926
0.000992036
0.000779145
0.000659273
0.000513577
0.000408822
0.000165885
0.000425178
0.00150951
0.00601784
0.0104841
0.0147727
0.00693957
0.0042799
0.00359277
0.00264351
0.00230342
0.00198357
0.00165279
0.00143472
0.00116603
0.00100961
0.000798711
0.00068189
0.000533131
0.000426345
0.000196095
0.000419333
0.00140797
0.00598324
0.0104525
0.0147746
0.00711081
0.00420236
0.00349904
0.0026109
0.00224103
0.00195269
0.00162324
0.00141435
0.00115352
0.000998779
0.00079404
0.000677606
0.000531388
0.000417881
0.000237135
0.000415495
0.0013164
0.00586047
0.0104653
0.014764
0.0070968
0.00409392
0.00345705
0.00265315
0.0022502
0.0019902
0.00164945
0.00143917
0.0011765
0.00102143
0.000815824
0.000701385
0.000553961
0.000461568
0.000250762
0.000393753
0.00121397
0.00594587
0.0105024
0.0148034
0.00716211
0.00407162
0.00328001
0.00259905
0.00218117
0.0019484
0.00162252
0.00142013
0.00116738
0.00101414
0.000814746
0.000698303
0.000547145
0.000454973
0.000329945
0.000430344
0.00111942
0.00593754
0.0105932
0.0148448
0.00760551
0.00402551
0.00316913
0.00261868
0.00217451
0.00194729
0.0016134
0.00140684
0.00116212
0.00100908
0.000817055
0.000706857
0.000567176
0.000482116
0.00037952
0.000390952
0.000996432
0.00554562
0.0104437
0.0145399
0.0143065
0.0420167
0.0311464
0.0286331
0.0237217
0.0212079
0.0174962
0.0151745
0.012413
0.010789
0.00863003
0.00723343
0.00597518
0.00536159
0.00479106
0.00452897
0.00333028
0.0538289
0.0993101
0.134228
0.0354971
0.0252012
0.0218113
0.0196367
0.0157989
0.0143834
0.0119398
0.0102651
0.00846674
0.00717771
0.00615549
0.0055455
0.00497867
0.00458489
0.00421309
0.00419052
0.010873
0.056284
0.0974567
0.13128
0.0163295
0.0161178
0.0156542
0.0126451
0.0118842
0.0103961
0.00934142
0.00846963
0.0077021
0.00704061
0.00651541
0.00612531
0.00576568
0.00543385
0.00499025
0.00440819
0.0106297
0.0557347
0.095054
0.131423
0.0117803
0.0109517
0.00969079
0.00967301
0.00896497
0.00844639
0.00773005
0.00721297
0.00665387
0.00622975
0.00572233
0.00519113
0.00460068
0.00433808
0.0040161
0.00316687
0.00880875
0.0545696
0.0948956
0.127951
0.0058297
0.00790766
0.00840903
0.00705579
0.00646117
0.00605237
0.00569501
0.00544848
0.00524997
0.00501983
0.00481892
0.00460056
0.00456957
0.00419482
0.00417705
0.00342577
0.00668153
0.0529114
0.095389
0.127336
0.00521956
0.005037
0.00431361
0.00513421
0.00514596
0.00505565
0.00490191
0.00476308
0.00463691
0.00454242
0.00436201
0.00420261
0.00408185
0.00399519
0.00382875
0.00275209
0.00609836
0.0474368
0.0961634
0.127294
0.00313355
0.00405734
0.00463619
0.00407476
0.00382438
0.0037434
0.00375838
0.00388186
0.0038056
0.00384406
0.00374471
0.00374833
0.00362947
0.00354554
0.00336053
0.00247814
0.00487043
0.0399649
0.0969608
0.129311
0.00262405
0.00263725
0.00226993
0.00265956
0.00291297
0.00325084
0.00317505
0.0033678
0.00342043
0.00348697
0.00348108
0.00353732
0.00347137
0.00364107
0.00339566
0.00268318
0.00384587
0.033995
0.0971225
0.132536
0.00176715
0.00199151
0.00243159
0.00258294
0.0024659
0.00250774
0.00272814
0.00286527
0.00290702
0.00319951
0.00315281
0.00344806
0.00337914
0.00374008
0.00370685
0.00304573
0.00242254
0.0247714
0.0962857
0.139156
0.00134972
0.00148273
0.00140057
0.001593
0.00191947
0.002221
0.00228749
0.00264609
0.0026892
0.00299396
0.00315943
0.00352068
0.00362842
0.00403359
0.00427696
0.00437822
0.00391345
0.0185528
0.093072
0.148745
0.0011057
0.00128335
0.00148361
0.00171229
0.00177899
0.00198688
0.00204144
0.00227737
0.00253242
0.00280465
0.00295
0.00330765
0.00340814
0.00408873
0.00431029
0.00532801
0.00370771
0.0108771
0.0803716
0.163277
0.000924729
0.00101589
0.0010911
0.00126281
0.00144583
0.00177672
0.0019667
0.00215084
0.00227022
0.00255123
0.00280731
0.00311764
0.00339533
0.00373699
0.00413328
0.00499761
0.00539354
0.00627894
0.0637257
0.180592
0.000843662
0.00106503
0.00116546
0.00136806
0.00143573
0.00153135
0.00164391
0.00187381
0.00203787
0.00216835
0.00244253
0.00272808
0.00317415
0.00316577
0.0038853
0.00378503
0.00578117
0.00799834
0.0312066
0.167731
0.000801177
0.000884537
0.000915738
0.00105986
0.00116441
0.00134311
0.00140342
0.00150935
0.00161128
0.00185356
0.00190987
0.00218463
0.00229075
0.00298733
0.00299549
0.00385045
0.00370477
0.00609851
0.0139915
0.117531
0.00071296
0.000791364
0.000831234
0.00090911
0.000945174
0.00108164
0.00112061
0.00122235
0.00123482
0.00139618
0.00142513
0.00164522
0.00182574
0.00205255
0.00225258
0.00250426
0.00265086
0.00372337
0.00571991
0.0688439
0.000621747
0.00066775
0.000691767
0.000712513
0.000710611
0.000814358
0.000854251
0.000975289
0.000989348
0.00109509
0.00111246
0.00123641
0.00113246
0.00129805
0.00124604
0.00157175
0.0016133
0.00230629
0.00373202
0.0369668
0.000561372
0.000579128
0.000588953
0.000621023
0.000575512
0.000550897
0.000614317
0.000635739
0.000671399
0.000726858
0.000762368
0.000816225
0.000942629
0.00101397
0.00101047
0.00121686
0.0011513
0.00124417
0.00076545
0.0185694
0.000342459
0.000319321
0.000297489
0.000327218
0.00036524
0.000375515
0.000398579
0.000475359
0.000481697
0.000546196
0.000543746
0.000644331
0.000589391
0.000635977
0.000672782
0.000819507
0.000981192
0.000588953
0.00168792
0.00500068
0.00011062
0.000178529
0.00016486
0.000196279
0.00021738
0.000240464
0.000232226
0.000256459
0.000268221
0.000307491
0.000320849
0.000332652
0.000428168
0.000360778
0.000423208
0.000434438
0.000293727
0.000622199
0.000522039
0.00345119
7.88753e-05
7.19646e-05
9.79326e-05
6.32265e-05
0.000152867
0.00017207
0.000199122
0.000240461
0.000262146
0.000291707
0.000313428
0.000362394
0.000405751
0.000400893
0.000406871
0.000375859
0.000330715
0.000278353
0.000258861
0.000650164
0.0140912
0.0141144
0.0142204
0.0142293
0.0143236
0.0143437
0.0144087
0.0145429
0.0141535
0.0142885
0.0146464
0.0134154
0.0128372
0.0117693
0.012316
0.0119726
0.0117524
0.0110325
0.0105634
0.0106217
0.00692494
0.00693346
0.006927
0.00688193
0.00689081
0.00680644
0.00684149
0.00663162
0.00689839
0.0083653
0.00781275
0.00635303
0.00628823
0.00710764
0.00707071
0.00716657
0.00755001
0.00658405
0.00622105
0.00787415
0.00410579
0.00413849
0.00417542
0.0042438
0.00427605
0.00442755
0.0044418
0.00461603
0.00470553
0.00417356
0.00402284
0.00460575
0.00458741
0.0056373
0.00466355
0.00420769
0.00319858
0.00293001
0.00324834
0.00371685
0.00258691
0.00259765
0.0025806
0.00258169
0.00257888
0.00262954
0.00257975
0.00250078
0.00248134
0.0025728
0.00242614
0.00255106
0.00245152
0.0029517
0.00346466
0.00362233
0.00308572
0.00281891
0.00222631
0.00229211
0.00155085
0.00156262
0.00156204
0.00160126
0.0016385
0.00168756
0.00166308
0.00169822
0.00170697
0.00187046
0.0018563
0.00194535
0.00196304
0.00200301
0.00179286
0.00206025
0.00153527
0.00126625
0.00089137
0.000953686
0.00110169
0.00111392
0.00112996
0.00116999
0.00118817
0.0011927
0.00116399
0.00116831
0.00112727
0.00108405
0.00102076
0.00106482
0.000906944
0.00114938
0.0012344
0.00159372
0.00165154
0.00143304
0.00090442
0.00118054
0.000644552
0.000652676
0.00067049
0.000687079
0.000687431
0.000684475
0.000683692
0.000659806
0.000650369
0.000701812
0.000734339
0.000818034
0.000928707
0.00103191
0.000883985
0.000873604
0.000590603
0.000599465
0.000416695
0.000227788
0.000471594
0.000476023
0.0004819
0.000479163
0.000469615
0.000460728
0.000459867
0.000450845
0.000457171
0.000460428
0.000471587
0.000480771
0.000455976
0.000473678
0.000516722
0.00062097
0.000493693
0.000543081
0.000511219
0.000643679
0.000227596
0.00023056
0.000232653
0.000234463
0.000235594
0.000228264
0.000223623
0.000241781
0.000277581
0.000298408
0.00031598
0.00032795
0.000348184
0.000366744
0.000359157
0.000354121
0.000306726
0.00035452
0.000229552
9.6209e-05
0.000133335
0.000133752
0.000133305
0.00013543
0.00014325
0.000142291
0.000144152
0.000151762
0.000176972
0.000184004
0.000210077
0.00023119
0.000239947
0.000251598
0.000261196
0.000269029
0.000273903
0.000286811
0.000256139
0.000297981
5.2118e-05
5.99895e-05
6.89466e-05
8.55554e-05
0.000101654
0.000116099
0.000123443
0.000132116
0.000148582
0.000153462
0.00015241
0.000145773
0.000150626
0.000154532
0.000156214
0.000164116
0.000159645
0.000175817
0.000198641
0.000220106
4.47045e-05
4.61004e-05
5.4138e-05
6.71051e-05
7.95037e-05
8.64692e-05
8.2732e-05
8.43296e-05
0.000104397
0.000112405
0.000120634
0.000128087
0.000137377
0.00015084
0.000149909
0.000169509
0.000155005
0.000166993
0.000214598
0.000229039
8.39885e-05
8.46533e-05
8.21318e-05
8.06821e-05
7.47739e-05
7.48753e-05
8.89014e-05
0.000111548
0.000125999
0.000126846
0.000133713
0.000139244
0.000142095
0.000138226
0.000148501
0.000152927
0.000170249
0.000179991
0.000178708
0.000188519
0.000111737
0.000114484
0.000115791
0.00011852
0.000125599
0.000128529
0.000128336
0.000126936
0.000129014
0.000132251
0.000138612
0.000143687
0.000151901
0.000154735
0.000155603
0.000157169
0.000156531
0.000157256
0.000167116
0.000182946
0.000126392
0.00012981
0.000134171
0.000135305
0.000134785
0.000135802
0.000136584
0.000137052
0.000134534
0.000134504
0.00013663
0.000137216
0.000141617
0.000147873
0.00015485
0.000156572
0.000161467
0.000162017
0.000162469
0.000169425
0.000110537
0.000110737
0.00011127
0.000115517
0.000121179
0.000128298
0.000136672
0.000138163
0.000139085
0.000138209
0.00013587
0.000133723
0.00012703
0.000123499
0.000126125
0.000129645
0.00013093
0.000134282
0.000133355
0.00014303
0.000115154
0.000114781
0.000114072
0.000111504
0.000108057
0.000104642
0.000100797
0.00010244
0.000106852
0.00011295
0.000119311
0.000126422
0.000138738
0.00014375
0.00013646
0.000134507
0.0001344
0.000134755
0.000134821
0.000139848
8.29627e-05
8.37662e-05
8.37086e-05
8.40437e-05
8.35091e-05
8.52615e-05
8.98038e-05
8.94179e-05
8.47921e-05
7.86714e-05
7.25098e-05
6.81246e-05
6.38407e-05
6.47747e-05
6.87968e-05
7.01138e-05
7.0989e-05
7.43522e-05
7.60898e-05
7.86946e-05
6.03278e-05
5.71294e-05
5.51651e-05
5.31327e-05
5.12387e-05
4.81374e-05
4.95528e-05
4.99624e-05
4.9924e-05
5.032e-05
5.07922e-05
5.08583e-05
4.81958e-05
4.87904e-05
4.44879e-05
4.11624e-05
3.66262e-05
3.41612e-05
3.23048e-05
3.25596e-05
2.43415e-05
2.31213e-05
2.19297e-05
2.10836e-05
1.99725e-05
1.78973e-05
1.38303e-05
1.75672e-05
1.69265e-05
1.80011e-05
1.48011e-05
1.72598e-05
1.7236e-05
1.69864e-05
1.71417e-05
1.77143e-05
1.88448e-05
1.87693e-05
1.87897e-05
2.1441e-05
0.00102115
0.00124111
0.000909621
0.000976114
0.00103069
0.00105041
0.00106417
0.0010947
0.00113716
0.00117622
0.00121575
0.00124658
0.00132219
0.00134817
0.00142614
0.0014088
0.00150504
0.0013015
0.005063
0.0189337
0.000953265
0.00108029
0.000844752
0.000936993
0.000986351
0.00101834
0.00106662
0.00111556
0.00115254
0.00118725
0.00122799
0.00126338
0.00133411
0.00135492
0.00142215
0.00141921
0.00154748
0.00126421
0.00447633
0.0184857
0.000998685
0.00115753
0.000890926
0.000970804
0.00103175
0.00106185
0.00107418
0.00110063
0.00113721
0.0011817
0.00122185
0.00126136
0.00132811
0.00134578
0.00142375
0.00141333
0.00155522
0.00131792
0.0038843
0.0179639
0.00105583
0.00118277
0.000902708
0.000983815
0.00100662
0.00101478
0.00104379
0.00110235
0.00114585
0.00119113
0.00123718
0.00128007
0.00134049
0.00137076
0.00144302
0.00144778
0.0015726
0.00136554
0.00491737
0.0172619
0.00103536
0.00117708
0.000903909
0.000943851
0.000994528
0.00103875
0.00110195
0.00115575
0.00118216
0.00122849
0.00124773
0.00128198
0.00133882
0.00136802
0.00144655
0.00146864
0.00163534
0.00147496
0.00491466
0.0166368
0.00108565
0.00118134
0.000912884
0.00100765
0.00105536
0.00110544
0.00113861
0.00114685
0.00117635
0.0012093
0.00123465
0.00129312
0.00134496
0.00139339
0.00146786
0.00149067
0.00160863
0.00148138
0.00487221
0.0158178
0.00109065
0.0011414
0.000911483
0.00100642
0.00105588
0.00108503
0.00106699
0.00109406
0.00112529
0.00115878
0.00119605
0.00125586
0.00130774
0.00137215
0.00143117
0.00148272
0.00163861
0.00151988
0.00399706
0.0147722
0.00103351
0.00110874
0.000935599
0.00101505
0.00105695
0.00105058
0.00109029
0.00115957
0.00118722
0.0012179
0.00124482
0.00130967
0.00135392
0.00140684
0.00145549
0.00152377
0.00156188
0.00153504
0.00297873
0.012302
0.00109693
0.00113306
0.000960602
0.00102813
0.00102515
0.00104436
0.00106518
0.00107295
0.0010836
0.00112312
0.00119234
0.00127443
0.00129807
0.00137538
0.00142676
0.00146613
0.00153528
0.0015764
0.00253252
0.0101899
0.000993485
0.00101155
0.000899069
0.000938487
0.000980767
0.0010245
0.00105236
0.00112139
0.00117135
0.00124743
0.00131415
0.00131977
0.00135042
0.00143168
0.00142895
0.00148722
0.00152185
0.00158453
0.00207764
0.00802746
0.00103662
0.00108961
0.000977346
0.00102909
0.00107157
0.00107245
0.00111727
0.00115106
0.00116325
0.00121125
0.00119538
0.00122887
0.00131507
0.00135784
0.0013589
0.00143631
0.00148498
0.0015638
0.00187602
0.00680064
0.00100369
0.00100142
0.000893082
0.000944279
0.000949713
0.000989425
0.00103561
0.00105229
0.00110595
0.00114579
0.00119848
0.00132305
0.00137805
0.00136784
0.0013771
0.0014883
0.00156327
0.00167445
0.00172193
0.00537629
0.00095939
0.000957691
0.000922119
0.000974346
0.00103411
0.00109803
0.00112574
0.00117819
0.00122561
0.00125747
0.0013226
0.00132039
0.00126256
0.00127029
0.00136404
0.00158109
0.00156589
0.00156732
0.00154615
0.00463638
0.000949876
0.00100763
0.000972772
0.00102717
0.00108348
0.00108311
0.00110777
0.00113114
0.00114175
0.00118015
0.00119188
0.0011949
0.00126924
0.00141167
0.00161121
0.00159819
0.00142867
0.00152514
0.00154992
0.00419599
0.000973985
0.00102197
0.000971648
0.00102428
0.00103442
0.00104046
0.00108339
0.00109783
0.00116078
0.00119334
0.00123299
0.00130589
0.00140435
0.00148661
0.0014376
0.00132576
0.00134262
0.00151737
0.00164438
0.00449754
0.000986845
0.00100263
0.000958757
0.00100566
0.00101715
0.00106325
0.00109196
0.00114006
0.00118162
0.00119586
0.00124902
0.00127282
0.00129507
0.00126351
0.00125138
0.00130619
0.00155625
0.00166871
0.00183763
0.00451702
0.000963102
0.00098578
0.000961103
0.00100859
0.00105715
0.00109381
0.00113092
0.00117326
0.0011848
0.00122726
0.00124704
0.00127464
0.00129599
0.00133516
0.00139312
0.00148554
0.00152388
0.00146471
0.00180321
0.0035301
0.000942111
0.000973008
0.000960549
0.00101207
0.00104872
0.00106884
0.00110363
0.00112829
0.00116488
0.00121142
0.00124998
0.00130709
0.00135622
0.00142004
0.00148509
0.00153352
0.0015879
0.00164205
0.00172017
0.00228115
0.000925614
0.000992087
0.000948117
0.00102076
0.00103653
0.00107529
0.00109563
0.00115029
0.00117183
0.00123652
0.0012577
0.00134334
0.00136558
0.00145605
0.0014886
0.00160318
0.00153002
0.00176002
0.000504305
0.000543764
0.000916706
0.000978344
0.00094849
0.00101334
0.00104961
0.00108514
0.00112563
0.00116092
0.00120563
0.00124273
0.00128241
0.00132565
0.00138168
0.00142824
0.00149565
0.00156317
0.00162373
0.00164585
0.00154471
0.00195112
0.000639681
0.000646601
0.00054381
0.000490053
0.000522525
0.000517352
0.000552859
0.000516937
0.000483823
0.000555335
0.000573559
0.000610789
0.000581052
0.00031372
0.000166456
0.00236
0.00768986
0.0117843
0.00981996
0.00270679
0.00061497
0.000608771
0.000547799
0.000552797
0.000579854
0.000518344
0.000531602
0.000551068
0.000580848
0.000530804
0.000577692
0.000680417
0.000636059
0.000493448
0.000213509
0.000755454
0.00610968
0.0114551
0.0109596
0.00490302
0.000705955
0.000711111
0.000573208
0.00049013
0.000571016
0.000584558
0.00059145
0.000549615
0.000561771
0.000618006
0.000607536
0.000624386
0.000743248
0.000670803
0.000376363
0.00019217
0.00383597
0.0104947
0.0120621
0.00719009
0.000676455
0.000739996
0.000689755
0.000588648
0.000581085
0.000542833
0.000600447
0.000620996
0.000609722
0.000594787
0.000653125
0.000717647
0.000737655
0.000739423
0.000614774
0.000361766
0.00175991
0.00957672
0.0127008
0.00896688
0.000743056
0.000775602
0.000680235
0.00057194
0.000642459
0.000631332
0.000623215
0.000616104
0.000652979
0.000681805
0.00067425
0.000708747
0.000784076
0.000846211
0.000735506
0.000287934
0.000745497
0.00847993
0.0129147
0.011323
0.000737311
0.000856269
0.00082886
0.000640081
0.00061913
0.000612261
0.000679118
0.00068465
0.000667229
0.000682323
0.000736635
0.000804184
0.000816338
0.000867518
0.000868448
0.000573627
0.00032947
0.00711218
0.0131006
0.0134335
0.000758038
0.000825974
0.000824521
0.000692527
0.000714583
0.000676473
0.000681611
0.000709432
0.000739128
0.000748157
0.000763083
0.000800312
0.000869917
0.000939617
0.00092393
0.000730208
0.000215756
0.00470879
0.0129413
0.0157741
0.000773178
0.000900772
0.000925656
0.000710365
0.000692932
0.000710189
0.000760681
0.000754187
0.000754153
0.000784425
0.000819147
0.000889191
0.00092026
0.000939237
0.00101754
0.000939509
7.6361e-05
0.00333458
0.0127151
0.0166176
0.000769349
0.000856838
0.000931191
0.000786646
0.000780936
0.000732741
0.000755347
0.000804012
0.000815203
0.00081627
0.000859068
0.000903783
0.000951003
0.00102435
0.00104023
0.00100622
0.000333034
0.00209884
0.012425
0.0175095
0.000787884
0.000903836
0.000975388
0.000765951
0.000758334
0.00079065
0.000826761
0.000814056
0.000833498
0.000869887
0.000892341
0.000961597
0.00100673
0.0010443
0.00109744
0.00111522
0.000528191
0.00151192
0.0120625
0.018287
0.000775053
0.000851608
0.000977266
0.000841499
0.000835124
0.000799326
0.000828004
0.000879307
0.000881393
0.0008838
0.000949291
0.000993957
0.00101931
0.0011008
0.0011167
0.00117699
0.00076417
0.00105095
0.0116969
0.0188908
0.000783917
0.000863365
0.000987871
0.000809631
0.000816927
0.000858638
0.000883379
0.000863596
0.000892135
0.000932178
0.000956355
0.00101906
0.00108002
0.00113062
0.00115024
0.00122142
0.00092037