/*--------------------------------*- C++ -*----------------------------------*\
  =========                 |
  \\      /  F ield         | OpenFOAM: The Open Source CFD Toolbox
   \\    /   O peration     | Website:  https://openfoam.org
    \\  /    A nd           | Version:  9
     \\/     M anipulation  |
\*---------------------------------------------------------------------------*/
FoamFile
{
    format      ascii;
    class       volScalarField;
    location    "5.6";
    object      p;
}
// * * * * * * * * * * * * * * * * * * * * * * * * * * * * * * * * * * * * * //

dimensions      [0 2 -2 0 0 0 0];

internalField   nonuniform List<scalar> 
46400
(
-116.806
-107.475
-90.1146
-75.5467
-62.1794
-49.8866
-38.8272
-28.5568
-19.2413
-10.5855
-2.65055
4.7351
11.6006
18.0137
24.0896
29.8658
35.2846
40.8606
46.7478
49.2526
-82.4312
-72.8972
-57.0244
-43.6658
-31.5402
-20.3731
-10.3479
-1.10629
7.28554
15.0135
22.1047
28.6235
34.6505
40.2086
45.357
50.1178
54.4709
58.7764
62.7513
64.1536
-47.3351
-38.3285
-24.1973
-11.9913
-1.18149
8.90834
17.8504
26.1319
33.5761
40.4178
46.6322
52.3357
57.5574
62.3399
66.746
70.772
74.394
77.9262
80.9463
81.2109
-12.2631
-4.41652
8.04305
19.0664
28.6936
37.6567
45.5995
52.8638
59.3899
65.3342
70.7127
75.5719
79.9966
83.9915
87.6317
90.9154
93.8404
96.6677
99.2017
99.1587
21.5381
27.8154
38.9013
49.005
57.6677
65.6931
72.7069
79.102
84.764
89.8678
94.4487
98.5632
102.263
105.562
108.532
111.172
113.466
115.678
117.61
117.124
53.13
58.653
69.1246
78.2318
85.9421
93.0034
99.0991
104.578
109.395
113.676
117.462
120.79
123.762
126.368
128.682
130.704
132.431
134.088
135.537
134.764
83.4733
89.0498
98.6333
106.817
113.514
119.62
124.799
129.378
133.364
136.829
139.892
142.531
144.838
146.816
148.532
149.99
151.185
152.305
153.408
152.361
113.26
119.578
127.618
134.702
140.294
145.334
149.594
153.253
156.407
159.071
161.348
163.253
164.877
166.227
167.363
168.288
168.998
169.676
170.327
169.206
142.715
149.794
155.827
161.514
165.99
169.868
173.144
175.871
178.185
180.068
181.649
182.898
183.883
184.608
185.137
185.466
185.615
185.733
185.817
184.366
171.323
177.797
182.502
186.764
190.234
193.073
195.45
197.306
198.822
199.939
200.789
201.355
201.743
201.907
201.936
201.782
201.484
201.167
200.826
199.162
198.725
203.518
207.176
210.147
212.56
214.434
215.928
216.999
217.78
218.246
218.483
218.462
218.24
217.843
217.311
216.653
215.861
215.07
214.25
212.365
222.545
226.314
229.148
231.241
232.949
234.051
234.849
235.196
235.303
235.113
234.75
234.18
233.475
232.595
231.614
230.508
229.295
228.072
226.823
224.664
243.705
246.675
248.733
250.086
251.055
251.545
251.729
251.555
251.138
250.442
249.548
248.468
247.255
245.916
244.477
242.95
241.334
239.716
238.088
235.717
262.429
264.686
266.199
266.911
267.35
267.217
266.844
266.096
265.185
264.027
262.733
261.254
259.67
257.963
256.179
254.312
252.363
250.414
248.472
245.867
278.541
280.221
281.252
281.458
281.428
280.873
280.138
278.998
277.663
276.069
274.35
272.474
270.511
268.448
266.333
264.157
261.931
259.715
257.554
254.803
292.747
293.812
294.366
294.065
293.49
292.457
291.224
289.747
288.088
286.237
284.245
282.124
279.904
277.603
275.235
272.829
270.359
267.911
265.526
262.617
305.378
305.465
305.525
304.733
303.789
302.353
300.719
298.818
296.782
294.579
292.284
289.878
287.41
284.87
282.298
279.687
277.048
274.421
271.895
268.903
314.699
314.538
313.983
312.996
311.719
310.173
308.346
306.303
304.065
301.668
299.155
296.542
293.865
291.124
288.358
285.561
282.742
279.938
277.249
274.126
320.694
320.753
320.001
318.815
317.285
315.481
313.443
311.197
308.785
306.234
303.572
300.826
298.022
295.17
292.293
289.397
286.48
283.575
280.786
277.631
325.6
325.503
324.698
323.428
321.779
319.844
317.66
315.261
312.71
310.008
307.217
304.331
301.4
298.419
295.426
292.417
289.401
286.408
283.569
280.312
-391.795
-391.586
-387.469
-376.584
-362.952
-349.536
-336.9
-324.538
-312.76
-301.477
-290.642
-280.229
-270.256
-260.62
-251.47
-242.543
-234.177
-226.01
-218.414
-211.149
-408.706
-408.072
-400.192
-386.569
-370.505
-355.268
-341.074
-327.507
-314.582
-302.348
-290.696
-279.598
-269.04
-258.917
-249.342
-240.043
-231.401
-222.946
-215.189
-207.687
-423.279
-422.918
-411.003
-394.603
-376.572
-359.635
-343.9
-329.18
-315.32
-302.225
-289.841
-278.106
-266.975
-256.366
-246.351
-236.701
-227.728
-218.986
-211.014
-203.267
-434.1
-433.946
-418.457
-399.504
-380.097
-361.96
-345.035
-329.35
-314.608
-300.794
-287.767
-275.481
-263.886
-252.879
-242.518
-232.572
-223.376
-214.413
-206.338
-198.391
-443.349
-439.873
-421.859
-400.987
-380.662
-361.698
-344.037
-327.572
-312.223
-297.824
-284.295
-271.566
-259.572
-248.238
-237.575
-227.388
-217.938
-208.763
-200.55
-192.39
-445.012
-439.886
-422.259
-399.865
-378.505
-358.72
-340.471
-323.495
-307.615
-292.835
-278.965
-265.943
-253.702
-242.168
-231.346
-221.043
-211.556
-202.154
-194.039
-185.758
-442.859
-437.977
-417.207
-394.753
-373.388
-353.232
-334.664
-317.402
-301.258
-286.165
-272.035
-258.781
-246.352
-234.666
-223.686
-213.299
-203.677
-194.339
-186.147
-177.783
-437.339
-432.385
-412.265
-387.962
-365.985
-345.476
-326.439
-308.883
-292.507
-277.305
-263.084
-249.782
-237.338
-225.648
-214.698
-204.36
-194.774
-185.513
-177.438
-169.041
-428.697
-423.058
-401.856
-377.548
-355.242
-334.676
-315.651
-298.082
-281.696
-266.441
-252.204
-238.892
-226.455
-214.805
-203.886
-193.629
-184.096
-174.938
-166.942
-158.551
-416.393
-410.141
-388.456
-364.075
-341.85
-321.442
-302.416
-284.954
-268.688
-253.596
-239.535
-226.402
-214.148
-202.674
-191.95
-181.878
-172.51
-163.535
-155.765
-147.426
-400.695
-393.536
-371.454
-347.488
-325.482
-305.352
-286.635
-269.394
-253.376
-238.487
-224.636
-211.717
-199.69
-188.453
-177.957
-168.147
-158.99
-150.277
-142.691
-134.481
-381.53
-373.86
-351.736
-328.192
-306.676
-287.042
-268.715
-251.915
-236.295
-221.809
-208.349
-195.789
-184.099
-173.181
-163.007
-153.501
-144.638
-136.238
-128.961
-120.887
-359.709
-351.541
-329.378
-306.509
-285.389
-266.294
-248.494
-232.109
-216.955
-202.877
-189.823
-177.674
-166.396
-155.877
-146.088
-136.977
-128.447
-120.437
-113.438
-105.602
-334.874
-326.44
-304.347
-282.559
-262.121
-243.71
-226.576
-210.837
-196.25
-182.739
-170.214
-158.542
-147.717
-137.636
-128.279
-119.576
-111.449
-103.856
-97.2128
-89.5859
-308.112
-299.622
-277.313
-256.529
-236.865
-219.126
-202.683
-187.546
-173.597
-160.645
-148.682
-137.561
-127.259
-117.664
-108.776
-100.537
-92.825
-85.7029
-79.3997
-72.0755
-279.087
-270.366
-248.521
-228.702
-210.09
-193.209
-177.587
-163.214
-149.939
-137.652
-126.291
-115.728
-105.966
-96.8938
-88.4978
-80.7181
-73.4509
-66.7886
-60.8552
-53.75
-248.76
-239.898
-218.713
-199.764
-182
-165.94
-151.097
-137.428
-124.886
-113.236
-102.518
-92.5527
-83.3397
-74.7815
-66.895
-59.6032
-52.7884
-46.6457
-41.0964
-34.3593
-216.888
-207.891
-187.605
-169.73
-152.969
-137.809
-123.863
-111.007
-99.2021
-88.2784
-78.2109
-68.8744
-60.256
-52.2537
-44.8679
-38.0389
-31.6726
-26.0368
-20.9223
-14.4746
-184.423
-175.432
-155.768
-138.899
-123.1
-108.806
-95.7339
-83.649
-72.6212
-62.366
-52.9542
-44.1978
-36.1031
-28.6061
-21.6851
-15.2362
-9.25323
-4.11698
0.786675
7.67815
-150.813
-141.513
-122.851
-107.29
-92.7019
-79.4336
-67.3493
-56.1675
-45.9325
-36.4387
-27.6644
-19.4922
-11.8611
-4.70754
2.02926
8.43482
14.387
19.9288
26.0656
33.054
-175.835
-136.902
-101.342
-79.4218
-57.2985
-42.8074
-29.3507
-19.0741
-10.771
-3.18764
2.03542
7.72842
11.0357
15.41
17.5854
20.8681
22.727
24.3375
25.3295
25.4807
-171.817
-133.48
-97.8831
-76.6087
-54.7066
-40.7299
-27.5292
-17.5092
-9.42342
-2.00589
3.05846
8.63137
11.8143
16.0911
18.1075
21.3585
22.9971
24.6653
25.5201
25.6778
-166.615
-129.319
-94.1457
-73.7787
-52.1947
-38.6284
-25.7262
-15.9373
-8.07694
-0.819801
4.08503
9.52772
12.5729
16.7524
18.6168
21.8469
23.2892
25.07
25.7353
25.9096
-161.557
-125.441
-90.3311
-70.6904
-49.4961
-36.3588
-23.8102
-14.2576
-6.64378
0.448272
5.18545
10.4999
13.4192
17.4793
19.1877
22.3482
23.6248
25.4809
25.8734
26.1142
-155.288
-120.759
-86.3295
-67.5715
-46.8498
-34.0954
-21.9087
-12.5729
-5.21238
1.71976
6.289
11.4651
14.2495
18.1877
19.7385
22.8417
23.9633
25.9467
26.0295
26.3505
-149.15
-116.103
-82.1712
-64.1812
-44.0101
-31.6569
-19.8939
-10.7812
-3.6924
3.07199
7.46724
12.5081
15.1688
18.9689
20.3547
23.5508
24.3292
26.4228
26.2734
26.5908
-141.728
-110.693
-77.8408
-60.7637
-41.2169
-29.2274
-17.889
-8.9874
-2.17266
4.42691
8.65015
13.5446
16.0713
19.7197
20.9857
24.2792
24.8197
26.8509
26.5154
26.8879
-134.364
-105.225
-73.2976
-57.0708
-38.2298
-26.6254
-15.7727
-7.09025
-0.564972
5.85908
9.90662
14.6599
17.0708
20.5616
21.6734
25.0179
25.3083
27.2305
26.7644
27.1645
-125.76
-99.0535
-68.5985
-53.3449
-35.2842
-24.0294
-13.6598
-5.19319
1.045
7.29392
11.1692
15.7693
18.0669
21.4454
22.435
25.7507
25.7424
27.6162
27.0689
27.4689
-117.001
-92.7797
-63.6547
-49.3496
-32.1507
-21.2735
-11.4394
-3.20004
2.73993
8.80046
12.5019
16.9535
19.1701
22.4594
23.3108
26.4301
26.2076
28.02
27.384
27.7908
-107.07
-85.8866
-58.5743
-45.3142
-29.0505
-18.5179
-9.21447
-1.20765
4.44029
10.3103
13.8403
18.126
20.2629
23.3616
24.1692
27.1192
26.6676
28.4494
27.7485
28.1592
-96.7726
-78.8543
-53.2476
-41.0256
-25.7776
-15.6243
-6.88891
0.870222
6.21977
11.8852
15.2432
19.3695
21.4262
24.3292
25.0978
27.8235
27.1476
28.8779
28.1406
28.561
-85.364
-71.2855
-47.8072
-36.6825
-22.5223
-12.7233
-4.55
2.9479
8.00775
13.4644
16.6505
20.6024
22.5576
25.3103
25.9218
28.5791
27.6567
29.3197
28.5635
28.9715
-73.4463
-63.5746
-42.1577
-32.1068
-19.1063
-9.70442
-2.11238
5.10401
9.87048
15.1046
18.119
21.9075
23.7571
26.3845
26.8616
29.3882
28.1938
29.7703
29.0205
29.4146
-60.3648
-55.4201
-36.4986
-27.5219
-15.7272
-6.69904
0.329367
7.2512
11.7379
16.746
19.5887
23.1998
24.9495
27.4215
27.7171
30.1938
28.7284
30.2337
29.4645
29.8629
-46.4042
-46.8542
-30.6111
-22.7143
-12.2036
-3.61188
2.8496
9.45218
13.6589
18.4321
21.1043
24.5481
26.1855
28.5189
28.5693
31.0262
29.3025
30.6139
29.8637
30.3076
-31.8207
-37.8419
-24.5235
-17.6538
-8.48878
-0.376716
5.49395
11.7316
15.6451
20.163
22.6528
25.9128
27.4515
29.6038
29.5473
31.9206
29.885
31.0228
30.1649
30.711
-17.2807
-29.4787
-19.0009
-12.9206
-4.91527
2.76785
8.13863
14.0327
17.6751
21.9431
24.2548
27.3422
28.7651
30.7755
30.6256
32.8344
30.4017
32.0625
30.5787
31.2066
3.1241
-19.8734
-14.3423
-9.18416
-2.18557
5.18386
10.2313
15.8701
19.3642
23.4501
25.6349
28.5856
29.9328
31.8102
31.5788
33.6746
30.8134
32.1032
30.6582
31.4376
26.1851
-4.48135
-4.96162
-1.56522
3.13909
9.42076
13.5419
18.5425
21.6177
25.3669
27.3197
30.046
31.3091
33.0461
32.7984
34.6164
31.4635
31.2868
30.0836
32.0641
66.1046
74.1796
61.6645
57.1854
49.5074
48.1277
44.5073
44.2501
42.5136
42.9316
42.3421
42.8138
42.4664
43.1696
42.7625
43.6125
42.2997
43.8801
39.7435
46.734
125.243
115.458
93.2747
86.6424
75.2959
70.4636
64.0129
60.8457
57.1667
55.0592
53.007
52.1092
50.961
50.6006
49.5449
49.7117
48.386
48.5393
46.5051
48.6497
132.128
122.734
110.523
102.63
94.4621
88.855
83.4033
79.673
76.0267
73.5377
70.8046
68.9549
67.1822
66.005
64.9277
64.0293
63.5481
63.006
62.8875
63.6375
137.178
130.113
120.494
113.459
106.059
100.431
94.8744
90.5154
86.3178
82.9766
79.9
77.3393
74.8346
72.8627
71.1585
69.9455
68.7095
67.8376
67.7013
67.6135
131.561
124.347
119.331
114.097
109.364
104.908
100.835
97.2246
93.8934
90.9928
88.3087
86.0156
83.9575
81.878
80.1149
78.3946
76.9783
75.4004
74.7219
74.6809
130.617
127.631
122.497
118.615
114.265
110.631
106.733
103.493
100.132
97.3256
94.5182
92.0417
89.7135
87.6511
85.7753
83.6545
82.443
80.8666
80.0547
79.7331
126.057
122.975
120.733
117.745
114.903
112.058
109.297
106.714
104.109
101.799
99.384
97.3172
95.0584
93.1316
91.1818
89.2797
87.591
86.0379
84.9911
84.4088
126.057
124.387
121.791
119.479
117.125
114.936
112.494
110.401
107.987
106.009
103.677
101.803
99.5805
97.7356
95.5526
93.7047
91.5328
89.822
88.193
87.7032
124.34
122.96
121.719
120.235
118.278
116.643
114.706
113.102
111.163
109.594
107.63
106.086
104.024
102.462
100.2
98.4688
95.8665
93.8261
91.4173
90.8188
124.758
123.831
122.35
121.179
119.792
118.584
117.046
115.789
114.225
112.918
111.3
109.963
108.213
106.755
104.725
103.002
100.32
98.2504
95.4887
94.8457
125.089
124.4
123.586
122.744
121.635
120.782
119.669
118.808
117.677
116.833
115.661
114.82
113.542
112.659
111.158
110.107
107.891
106.985
101.906
102.886
125.319
124.811
124.164
123.668
122.942
122.405
121.643
121.094
120.332
119.81
119.076
118.631
117.885
117.552
116.589
116.539
114.855
115.588
114.333
116.58
126.603
126.372
125.885
125.616
125.146
124.891
124.483
124.286
123.989
123.858
123.735
123.666
123.808
123.781
124.394
124.366
125.623
125.653
127.691
129.89
127.203
127.062
126.746
126.627
126.339
126.274
126.048
126.077
125.957
126.163
126.187
126.629
126.899
127.699
128.449
129.739
131.245
133.076
136.328
136.59
128.394
128.373
128.205
128.232
128.144
128.278
128.274
128.566
128.676
129.171
129.455
130.245
130.787
131.972
133.131
134.673
136.288
138.846
141.445
145.581
129.021
129.071
129.027
129.083
129.079
129.248
129.345
129.684
129.872
130.376
130.678
131.45
131.889
133.139
133.711
135.523
136.278
138.598
139.493
152.404
129.881
129.925
129.981
130.162
130.289
130.535
130.716
131.044
131.385
131.925
132.43
133.237
133.937
134.978
135.731
137.242
138.119
140.453
141.234
144.406
130.225
130.292
130.38
130.526
130.726
130.998
131.288
131.696
132.035
132.559
132.946
133.603
133.971
134.895
135.319
136.469
136.892
138.297
138.693
149.072
130.852
130.992
131.053
131.258
131.418
131.645
131.87
132.201
132.518
132.983
133.394
133.999
134.487
135.229
135.691
136.555
136.798
138.234
138.354
139.203
130.99
131.097
131.18
131.352
131.52
131.763
132.041
132.381
132.739
133.176
133.608
134.146
134.633
135.279
135.787
136.518
137.005
137.8
138.059
145.87
242.102
240.912
239.045
236.482
233.249
229.331
224.636
219.374
213.141
206.515
198.79
189.69
180.785
170.403
159.421
148.33
136.641
124.332
111.757
98.8982
213.109
212.531
211.64
210.435
208.92
207.105
204.936
202.626
199.601
197.061
192.935
187.997
183.894
179.942
176.046
171.518
166.987
161.922
155.691
148.818
175.287
174.978
174.476
173.904
173.176
172.32
171.364
170.233
168.971
167.656
165.894
164.486
162.349
160.751
157.898
154.41
151.103
148.118
145.017
142.866
163.243
163.067
162.808
162.527
162.109
161.715
161.103
160.575
159.77
159.094
158.086
157.327
156.153
155.284
154.042
152.09
149.772
147.833
145.898
144.18
147.07
146.911
146.663
146.436
146.103
145.792
145.379
144.975
144.49
143.998
143.423
142.889
142.154
141.584
140.505
139.875
138.549
137.232
135.422
134.021
141.632
141.504
141.369
141.196
141.009
140.798
140.554
140.316
139.985
139.709
139.281
138.948
138.425
138.109
137.472
137.069
136.545
135.735
134.733
133.741
134.668
134.548
134.41
134.253
134.076
133.876
133.654
133.403
133.122
132.837
132.476
132.165
131.724
131.328
130.837
130.575
129.857
129.103
128.116
127.303
132.405
132.292
132.179
132.045
131.913
131.753
131.591
131.381
131.165
130.899
130.641
130.338
130.058
129.729
129.342
129.011
128.649
128.32
127.839
127.439
129.172
129.078
128.961
128.828
128.675
128.506
128.319
128.117
127.931
127.748
127.574
127.388
127.208
127.027
126.786
126.479
126.098
125.763
125.332
125.018
128.151
128.067
127.978
127.882
127.781
127.664
127.552
127.418
127.265
127.095
126.936
126.784
126.632
126.476
126.314
126.147
125.972
125.801
125.614
125.435
127.667
127.595
127.526
127.457
127.389
127.317
127.244
127.157
127.069
126.967
126.852
126.722
126.589
126.448
126.297
126.148
125.981
125.828
125.647
125.497
127.725
127.667
127.612
127.556
127.499
127.432
127.364
127.288
127.206
127.112
127.011
126.906
126.792
126.671
126.524
126.384
126.199
126.03
125.826
125.626
128.195
128.154
128.11
128.063
128.012
127.96
127.905
127.849
127.789
127.727
127.663
127.594
127.525
127.448
127.373
127.285
127.203
127.106
127.011
126.908
128.523
128.482
128.44
128.395
128.349
128.3
128.25
128.196
128.142
128.084
128.025
127.964
127.901
127.836
127.769
127.701
127.63
127.559
127.485
127.411
129.24
129.211
129.179
129.148
129.115
129.082
129.048
129.013
128.977
128.941
128.903
128.865
128.826
128.785
128.744
128.701
128.659
128.613
128.569
128.522
129.659
129.626
129.594
129.561
129.529
129.497
129.466
129.435
129.404
129.374
129.344
129.315
129.286
129.257
129.228
129.201
129.172
129.146
129.118
129.093
130.273
130.247
130.222
130.197
130.173
130.151
130.129
130.108
130.087
130.068
130.05
130.033
130.016
130.001
129.986
129.973
129.961
129.951
129.94
129.927
130.561
130.527
130.495
130.467
130.441
130.417
130.395
130.373
130.355
130.338
130.324
130.311
130.299
130.289
130.279
130.268
130.255
130.242
130.23
130.224
131.036
131.006
130.977
130.951
130.926
130.903
130.885
130.867
130.85
130.835
130.821
130.808
130.793
130.781
130.772
130.771
130.775
130.785
130.797
130.813
131.108
131.082
131.056
131.033
131.011
130.99
130.971
130.952
130.935
130.92
130.907
130.896
130.889
130.885
130.886
130.892
130.905
130.922
130.94
130.96
92.8127
91.7542
87.9467
84.3736
80.9518
77.3192
73.519
69.4835
65.1549
60.4779
55.4034
49.8497
43.8295
37.1267
29.8918
21.6616
12.9581
2.91736
-8.56028
-16.1747
107.021
106.813
104.426
101.821
99.2363
96.4096
93.3002
89.9369
86.2526
82.2137
77.7823
72.8844
67.5429
61.5609
55.0521
47.6839
39.8477
30.7873
20.8345
14.2817
122.355
123.03
121.416
119.471
117.479
115.207
112.685
109.914
106.835
103.434
99.66
95.4694
90.8363
85.5915
79.8517
73.2349
66.1955
57.7535
48.7732
44.0245
138.549
139.472
138.143
136.738
135.273
133.586
131.655
129.513
127.074
124.339
121.237
117.734
113.792
109.28
104.246
98.3921
91.9949
84.2819
75.5985
71.1171
154.076
155.212
154.464
153.52
152.58
151.418
150.06
148.505
146.67
144.559
142.111
139.317
136.106
132.397
128.194
123.229
117.792
110.938
103.288
98.1498
169.378
170.845
170.513
170.109
169.675
169.055
168.237
167.229
165.958
164.463
162.671
160.574
158.102
155.195
151.821
147.806
143.286
137.566
131.16
125.396
184.465
185.986
185.802
185.747
185.664
185.404
185.01
184.481
183.76
182.863
181.704
180.319
178.583
176.521
174.01
171.014
167.556
163.111
158.546
152.533
198.008
199.727
200.093
200.506
200.933
201.232
201.411
201.466
201.356
201.071
200.57
199.844
198.822
197.493
195.764
193.655
190.999
187.764
184.118
178.895
210.931
212.891
213.621
214.403
215.181
215.847
216.405
216.87
217.189
217.396
217.408
217.245
216.806
216.124
215.081
213.709
211.873
209.648
206.802
203.056
222.496
224.621
225.766
226.964
228.19
229.336
230.425
231.432
232.342
233.136
233.749
234.192
234.365
234.302
233.896
233.181
232.013
230.436
228.212
225.122
233.393
235.797
237.349
238.944
240.534
242.057
243.49
244.842
246.071
247.176
248.115
248.919
249.49
249.861
249.901
249.724
249.064
248.147
246.488
244.129
243.075
245.602
247.443
249.325
251.234
253.086
254.888
256.645
258.315
259.913
261.386
262.732
263.874
264.817
265.46
265.891
265.864
265.492
264.376
262.557
251.746
254.502
256.703
258.951
261.216
263.421
265.58
267.657
269.647
271.52
273.246
274.803
276.173
277.379
278.353
279.082
279.295
279.305
278.503
277.287
259.756
262.672
265.013
267.432
269.864
272.249
274.597
276.898
279.147
281.322
283.408
285.407
287.267
289.022
290.492
291.691
292.427
292.946
292.771
292.302
266.346
269.357
271.937
274.585
277.246
279.869
282.46
285.012
287.503
289.907
292.222
294.392
296.425
298.215
299.75
301.027
302.037
302.919
303.177
303.254
271.793
274.892
277.559
280.32
283.119
285.874
288.635
291.349
294.029
296.643
299.175
301.613
303.916
306.074
308.049
309.837
311.437
312.714
313.576
313.652
276.486
279.704
282.428
285.32
288.223
291.131
293.999
296.863
299.649
302.396
305.02
307.572
309.94
312.199
314.209
316.061
317.559
318.828
319.592
319.756
279.066
282.244
285.057
288.008
290.992
293.959
296.926
299.872
302.794
305.662
308.488
311.199
313.842
316.282
318.603
320.598
322.347
323.625
324.56
324.777
281.22
284.519
287.323
290.31
293.34
296.363
299.382
302.401
305.366
308.318
311.147
313.947
316.53
319.05
321.225
323.28
324.772
326.2
326.74
327.838
281.255
284.522
287.283
290.254
293.247
296.255
299.243
302.242
305.193
308.111
310.955
313.713
316.356
318.844
321.14
323.195
324.894
326.304
327.029
327.781
-156.577
-162.173
-168.058
-174.183
-180.337
-186.908
-193.471
-200.421
-207.464
-214.787
-222.339
-230.166
-238.152
-246.504
-255.248
-263.775
-271.363
-277.192
-278.945
-278.734
-150.868
-156.573
-162.487
-168.727
-174.997
-181.686
-188.444
-195.579
-202.876
-210.482
-218.342
-226.452
-234.99
-243.613
-252.947
-261.828
-270.321
-277.929
-279.793
-280.357
-144.94
-150.703
-156.652
-163.008
-169.386
-176.238
-183.167
-190.504
-198.053
-205.951
-214.139
-222.695
-231.574
-240.854
-250.492
-260.491
-270.728
-278.876
-281.925
-283.08
-138.444
-144.289
-150.257
-156.735
-163.198
-170.176
-177.287
-184.822
-192.631
-200.809
-209.393
-218.331
-227.768
-237.735
-248.061
-259.188
-270.585
-280.39
-286.598
-287.552
-131.402
-137.3
-143.262
-149.822
-156.408
-163.496
-170.773
-178.48
-186.525
-194.99
-203.857
-213.201
-223.103
-233.518
-244.604
-256.507
-269.03
-280.301
-289.656
-292.086
-123.703
-129.656
-135.59
-142.206
-148.824
-155.996
-163.39
-171.242
-179.474
-188.151
-197.33
-206.998
-217.274
-228.125
-239.831
-252.257
-265.236
-277.958
-289.773
-291.851
-115.398
-121.302
-127.13
-133.741
-140.409
-147.586
-155.072
-163.022
-171.409
-180.284
-189.673
-199.635
-210.26
-221.583
-233.78
-246.715
-260.519
-275.171
-286.574
-287.337
-106.084
-112.027
-117.743
-124.332
-130.95
-138.158
-145.656
-153.644
-162.1
-171.077
-180.625
-190.775
-201.65
-213.273
-225.795
-239.289
-253.865
-269.357
-282.008
-284.543
-95.86
-101.778
-107.387
-113.885
-120.487
-127.599
-135.098
-143.068
-151.539
-160.554
-170.158
-180.394
-191.402
-203.161
-215.884
-229.63
-244.442
-260.301
-274.086
-277.207
-84.9333
-90.7804
-96.2103
-102.535
-109.014
-116.008
-123.391
-131.269
-139.659
-148.635
-158.195
-168.447
-179.486
-191.293
-204.177
-218.02
-233.031
-249.34
-263.797
-267.803
-72.8303
-78.609
-83.8465
-89.9914
-96.3258
-103.12
-110.366
-118.102
-126.361
-135.193
-144.648
-154.782
-165.717
-177.457
-190.284
-204.021
-219.117
-235.377
-250.648
-255.437
-60.1582
-65.8068
-70.814
-76.6745
-82.7716
-89.3381
-96.3374
-103.838
-111.862
-120.497
-129.71
-139.665
-150.403
-161.943
-174.599
-188.116
-203.011
-219.197
-234.697
-240.056
-46.3062
-51.782
-56.5154
-62.0789
-67.9186
-74.1708
-80.9005
-88.1271
-95.8723
-104.197
-113.147
-122.805
-133.237
-144.517
-156.904
-170.077
-184.879
-200.663
-216.5
-222.449
-31.9804
-37.2726
-41.6762
-46.8465
-52.333
-58.2398
-64.6057
-71.467
-78.8419
-86.8286
-95.3797
-104.691
-114.74
-125.639
-137.556
-150.325
-164.663
-179.91
-195.664
-201.909
-16.52
-21.5376
-25.605
-30.3707
-35.5094
-41.017
-47.0012
-53.4794
-60.4597
-68.0115
-76.1714
-85.0443
-94.6351
-105.092
-116.566
-128.829
-142.831
-157.329
-173.308
-179.847
-0.322859
-5.11235
-8.82433
-13.1428
-17.8885
-22.9935
-28.559
-34.5979
-41.1288
-48.247
-55.9123
-64.3186
-73.3866
-83.3396
-94.1324
-105.865
-119.115
-132.663
-148.912
-155.71
16.7559
12.3006
8.96307
5.09868
0.736941
-3.95451
-9.08975
-14.7084
-20.8002
-27.4372
-34.6432
-42.5285
-51.0577
-60.4235
-70.6279
-81.7681
-94.2467
-107.159
-123.129
-130.208
34.5753
30.3957
27.4025
24.0309
20.0387
15.7322
10.9971
5.8205
0.184564
-5.97705
-12.6512
-19.9992
-27.9219
-36.6983
-46.1694
-56.6479
-68.2738
-80.3997
-95.7476
-103.116
54.2432
49.759
46.9524
43.99
40.2857
36.257
31.8928
27.09
21.8698
16.1747
9.98042
3.18567
-4.16376
-12.2927
-21.0831
-30.9155
-41.6153
-53.1625
-67.536
-74.7504
77.4151
72.9722
68.9665
65.4647
61.6931
57.6231
53.3255
48.7537
43.8433
38.5434
32.828
26.5703
19.8374
12.3579
4.29411
-4.77113
-14.5657
-25.3593
-38.5765
-45.8149
44.6843
44.1294
43.9356
41.9909
40.3588
37.699
35.75
32.3785
29.1812
24.7394
19.5774
13.5457
5.2856
-2.90479
-16.0898
-27.5895
-47.9971
-65.9531
-97.2855
-128.639
44.692
44.1725
44.2119
42.0386
40.6075
37.9472
36.1721
32.8838
29.8362
25.4924
20.506
14.6522
6.60543
-1.36848
-14.252
-25.3201
-45.5508
-62.457
-93.3221
-123.03
44.8016
44.2239
44.5431
42.058
40.8842
38.2288
36.6381
33.4121
30.5096
26.2433
21.424
15.6486
7.84456
0.0801005
-12.3477
-23.0875
-42.6961
-58.7598
-89.1016
-117.195
44.8435
44.2433
44.8925
42.0561
41.1443
38.4989
37.1043
33.9806
31.2348
27.0807
22.4682
16.8667
9.33305
1.76954
-10.2864
-20.6814
-39.6749
-54.9695
-84.5742
-110.95
44.9732
44.3381
45.3461
42.0719
41.4574
38.8255
37.615
34.5806
31.9784
27.9108
23.4828
17.9643
10.7336
3.43483
-8.163
-18.2261
-36.5398
-50.8363
-79.854
-104.376
45.0318
44.3895
45.7664
42.1732
41.8741
39.1637
38.1227
35.2194
32.7746
28.8323
24.63
19.2885
12.3597
5.24817
-5.90864
-15.5945
-33.2316
-46.6741
-74.8837
-97.2258
45.1641
44.4671
46.2055
42.3365
42.3737
39.578
38.6712
35.8934
33.5909
29.7426
25.7391
20.4878
13.9275
7.06939
-3.60009
-12.9144
-29.7239
-42.2225
-69.6304
-89.5639
45.2681
44.5599
46.5807
42.5185
42.7853
40.064
39.2749
36.6041
34.4607
30.7458
26.979
21.9155
15.6776
9.01861
-1.19055
-10.0515
-26.1259
-37.7705
-63.9669
-81.6152
45.4067
44.6643
47.0331
42.7272
43.2983
40.6747
40.0154
37.3642
35.3516
31.7363
28.1822
23.2129
17.3996
10.9843
1.30351
-7.13736
-22.3068
-32.9662
-57.9731
-73.2043
45.5445
44.7931
47.3737
42.8863
43.664
41.2975
40.7041
38.1624
36.2923
32.8179
29.4933
24.7502
19.279
13.0683
3.88648
-4.07007
-18.4349
-28.1655
-51.6407
-64.2706
45.7063
44.9399
47.7307
43.1027
44.0819
41.901
41.4313
38.9939
37.2508
33.8844
30.7832
26.1576
21.1375
15.1591
6.56955
-0.937731
-14.3687
-23.004
-44.9388
-54.5163
45.8729
45.1006
48.0338
43.2217
44.5396
42.4941
42.1162
39.8554
38.2524
35.038
32.1739
27.7849
23.1497
17.3722
9.33782
2.30862
-10.2387
-17.8148
-38.0394
-44.365
46.0696
45.2698
48.4441
43.386
45.0298
43.1161
42.8352
40.744
39.2745
36.1764
33.5427
29.3041
25.1322
19.572
12.2035
5.62434
-5.92311
-12.3692
-30.8329
-33.9855
46.2758
45.4447
48.7879
43.4687
45.5806
43.7813
43.6029
41.6646
40.3521
37.4011
35.0207
31.012
27.2753
21.9112
15.1725
9.0305
-1.50629
-6.86097
-23.4868
-22.5824
46.494
45.5926
49.1162
43.5756
46.1177
44.5014
44.376
42.6057
41.4287
38.6092
36.4615
32.6309
29.3724
24.2078
18.1991
12.4732
3.05694
-1.33845
-15.9365
-10.908
46.7874
45.7372
49.5152
43.5683
46.5804
45.2324
45.0511
43.5526
42.4832
39.8704
37.9718
34.4169
31.6173
26.6429
21.3163
15.9773
7.71498
4.32801
-8.03291
1.97273
46.9844
45.8369
49.813
43.6105
47.569
46.1306
46.1557
44.5974
43.7682
41.1983
39.542
36.1893
33.8818
29.1151
24.5973
19.7034
12.7378
10.0733
0.18296
14.9027
47.5338
45.9574
50.0788
43.5832
48.555
47.0107
47.1695
45.6313
45.0906
42.5553
41.1386
38.107
36.2591
31.6757
27.8947
23.3729
17.4122
15.1511
7.33559
27.735
47.4587
45.7638
49.7084
43.6906
48.5981
47.5396
47.4441
46.2222
45.8178
43.4913
42.2958
39.6252
38.1759
33.7205
30.5564
26.3798
21.1212
19.8087
16.0023
45.5704
48.3094
44.8199
49.7345
45.3632
50.0977
49.2416
49.1713
47.8818
47.4936
45.2428
44.3129
41.9445
41.073
37.1093
34.9687
31.3851
28.3378
28.4794
32.4865
66.6059
72.6162
50.8145
67.7459
65.2644
67.7452
65.5068
66.962
65.3972
65.8426
64.1668
65.1686
63.0751
65.3629
63.767
69.9569
68.8031
81.0318
84.2329
107.721
104.931
69.6869
66.58
69.7498
68.4273
70.5666
69.9813
71.3412
71.1544
72.5944
72.857
75.3419
76.4309
80.4524
82.8247
89.0927
93.6366
105.042
112.344
132.828
142.46
82.0216
81.7378
82.2938
82.6658
83.9405
83.8167
85.0143
85.6058
86.9421
88.2258
90.3747
92.4904
95.9268
99.136
104.852
110.308
118.462
126.4
137.681
148.088
85.2288
85.2809
85.4146
86.2983
86.9837
87.9971
89.2278
90.7109
92.7122
94.9012
97.6254
100.516
104.202
108.362
113.263
118.448
125.061
132.019
140.295
147.734
91.1673
91.299
91.8402
93.0601
93.995
95.2287
96.5937
98.1957
99.9408
101.998
104.28
106.886
109.848
113.166
116.834
121.001
125.357
130.239
135.047
141.06
93.0386
93.1835
94.0567
95.0843
96.3115
98.0135
99.6838
101.558
103.661
105.838
108.257
110.903
113.668
116.834
119.896
123.589
126.796
130.985
133.947
137.474
95.5129
95.6461
96.6939
98.196
99.9828
101.706
103.559
105.316
107.272
109.123
111.233
113.254
115.517
117.75
120.134
122.568
124.976
127.554
130.071
132.717
96.3955
97.0443
98.2362
100.457
102.337
104.364
106.305
108.148
110.142
111.964
113.985
115.884
117.913
119.908
121.909
123.961
125.961
128.029
129.23
131.054
96.8278
98.0937
99.6894
102.481
104.798
106.892
108.998
110.628
112.548
113.982
115.743
117.106
118.715
120.024
121.417
122.782
124.151
125.494
126.977
127.971
100.911
101.338
103.946
106.293
108.881
110.594
112.685
114.031
115.794
117.008
118.559
119.695
121.109
122.149
123.614
124.75
125.727
126.596
127.158
127.837
106.934
107.018
110.108
111.006
113.654
114.722
116.498
117.389
118.818
119.615
120.806
121.568
122.595
123.35
124.122
124.566
125.174
125.735
126.377
126.993
116.516
114.792
118.433
118.033
119.887
120.158
121.289
121.683
122.551
122.997
123.732
124.221
124.842
125.333
125.935
126.465
127.051
127.291
127.62
127.719
128.921
126.962
126.298
126.063
125.94
125.986
125.986
126.069
126.215
126.313
126.573
126.685
127.037
127.198
127.492
127.602
127.794
127.897
128.112
128.185
137.627
136.58
133.655
133.293
131.885
131.273
130.658
130.133
129.852
129.472
129.346
129.086
129.042
128.881
128.889
128.812
128.877
128.853
128.868
128.772
144.202
143.098
140.205
137.756
136.589
134.892
134.233
133.037
132.593
131.838
131.55
131.053
130.876
130.529
130.415
130.154
130.076
129.86
129.821
129.651
149.407
145.795
144.521
141.437
140.549
137.551
137.34
135.667
135.06
134.098
133.535
132.89
132.445
131.984
131.646
131.306
131.052
130.795
130.595
130.382
154.64
144.375
143.464
141.613
140.639
139.183
138.251
137.102
136.34
135.418
134.823
134.099
133.625
133.064
132.694
132.252
131.952
131.609
131.37
131.101
148.154
145.952
144.96
142.982
142
140.398
139.489
138.284
137.448
136.535
135.805
135.092
134.49
133.917
133.423
132.973
132.583
132.231
131.928
131.658
146.136
144.851
143.778
142.662
141.657
140.573
139.66
138.683
137.874
137.028
136.335
135.618
135.05
134.444
133.966
133.474
133.045
132.644
132.294
131.991
145.541
144.605
143.796
142.735
141.834