/*--------------------------------*- C++ -*----------------------------------*\
  =========                 |
  \\      /  F ield         | OpenFOAM: The Open Source CFD Toolbox
   \\    /   O peration     | Website:  https://openfoam.org
    \\  /    A nd           | Version:  9
     \\/     M anipulation  |
\*---------------------------------------------------------------------------*/
FoamFile
{
    format      ascii;
    class       surfaceScalarField;
    location    "5.6";
    object      phi;
}
// * * * * * * * * * * * * * * * * * * * * * * * * * * * * * * * * * * * * * //

dimensions      [0 3 -1 0 0 0 0];

internalField   nonuniform List<scalar> 
92080
(
-0.00464913
-0.522757
0.527407
-0.0317717
-1.05075
1.07787
-0.0768022
-1.15951
1.20454
-0.122743
-1.14088
1.18682
-0.167138
-1.12215
1.16655
-0.210973
-1.10303
1.14686
-0.254208
-1.08512
1.12836
-0.296506
-1.06845
1.11075
-0.338577
-1.05272
1.09479
-0.380227
-1.03802
1.07967
-0.421617
-1.02407
1.06546
-0.46282
-1.01149
1.0527
-0.503164
-0.999774
1.04012
-0.542326
-0.988473
1.02763
-0.580848
-0.977189
1.01571
-0.618608
-0.965785
1.00354
-0.65502
-0.954821
0.991233
-0.691431
-0.942825
0.979236
-0.726665
-0.932231
0.967465
-0.92477
0.956161
-0.758055
-0.00561827
-0.517139
-0.0350893
-1.02128
-0.0816064
-1.11299
-0.129253
-1.09323
-0.175981
-1.07542
-0.22159
-1.05742
-0.266421
-1.04029
-0.310977
-1.02389
-0.354575
-1.00912
-0.397466
-0.995125
-0.439872
-0.981664
-0.48213
-0.969237
-0.523962
-0.957941
-0.565375
-0.94706
-0.605365
-0.937198
-0.644252
-0.926899
-0.681931
-0.917142
-0.717652
-0.907104
-0.752123
-0.89776
-0.891445
-0.785448
-0.00759543
-0.509544
-0.0395746
-0.9893
-0.0887464
-1.06382
-0.137757
-1.04422
-0.185611
-1.02757
-0.232731
-1.0103
-0.278695
-0.99433
-0.323928
-0.978661
-0.369031
-0.964021
-0.413568
-0.950589
-0.457202
-0.93803
-0.500212
-0.926227
-0.542879
-0.915274
-0.584942
-0.904998
-0.626988
-0.895152
-0.667866
-0.886022
-0.708096
-0.876912
-0.747609
-0.867591
-0.786932
-0.858437
-0.851934
-0.826443
-0.00970381
-0.49984
-0.0450878
-0.953916
-0.0948296
-1.01408
-0.145141
-0.993908
-0.194639
-0.978072
-0.243333
-0.961607
-0.291327
-0.946336
-0.338191
-0.931797
-0.384143
-0.918068
-0.429796
-0.904936
-0.475606
-0.89222
-0.520813
-0.88102
-0.565561
-0.870526
-0.609683
-0.860875
-0.652967
-0.851868
-0.696231
-0.842757
-0.738024
-0.835119
-0.778545
-0.82707
-0.818424
-0.818558
-0.811425
-0.858933
-0.0101835
-0.489657
-0.0506802
-0.913419
-0.101294
-0.963461
-0.151892
-0.94331
-0.202219
-0.927745
-0.25193
-0.911896
-0.300937
-0.897329
-0.349549
-0.883185
-0.39738
-0.870237
-0.443803
-0.858513
-0.489363
-0.84666
-0.534948
-0.835435
-0.580286
-0.825188
-0.625662
-0.8155
-0.670436
-0.807094
-0.714907
-0.798286
-0.760098
-0.789928
-0.803966
-0.783203
-0.846923
-0.775601
-0.768719
-0.889629
-0.00891977
-0.480737
-0.0526085
-0.86973
-0.105435
-0.910635
-0.157883
-0.890863
-0.209491
-0.876137
-0.260585
-0.860802
-0.311014
-0.846899
-0.360305
-0.833894
-0.409757
-0.820785
-0.458826
-0.809443
-0.507217
-0.798269
-0.554628
-0.788024
-0.601504
-0.778312
-0.648157
-0.768847
-0.69444
-0.760811
-0.739308
-0.753418
-0.784096
-0.74514
-0.82915
-0.738149
-0.873108
-0.731643
-0.724445
-0.917381
-0.00760871
-0.473128
-0.053554
-0.823785
-0.107495
-0.856694
-0.161649
-0.836708
-0.215241
-0.822545
-0.267732
-0.808311
-0.319981
-0.79465
-0.37099
-0.782885
-0.420743
-0.771032
-0.470072
-0.760115
-0.518546
-0.749795
-0.567054
-0.739515
-0.614608
-0.730758
-0.66219
-0.721266
-0.710458
-0.712542
-0.75822
-0.705657
-0.80503
-0.69833
-0.851809
-0.69137
-0.89777
-0.685681
-0.679189
-0.943027
-0.00439631
-0.468732
-0.0518834
-0.776298
-0.109553
-0.799025
-0.165177
-0.781084
-0.219978
-0.767744
-0.273515
-0.754775
-0.326696
-0.741468
-0.379622
-0.72996
-0.431543
-0.719111
-0.482943
-0.708715
-0.533681
-0.699058
-0.58356
-0.689636
-0.632727
-0.681591
-0.679906
-0.674087
-0.727378
-0.665071
-0.77517
-0.657865
-0.822399
-0.6511
-0.869797
-0.643972
-0.916892
-0.638586
-0.632952
-0.963128
-0.00234742
-0.466384
-0.0533504
-0.725295
-0.112843
-0.739532
-0.170372
-0.723555
-0.226793
-0.711323
-0.281153
-0.700415
-0.334097
-0.688524
-0.386623
-0.677433
-0.438562
-0.667172
-0.489431
-0.657846
-0.539771
-0.648718
-0.590432
-0.638975
-0.641716
-0.630307
-0.69181
-0.623993
-0.740159
-0.616722
-0.788744
-0.60928
-0.836515
-0.603329
-0.884115
-0.596372
-0.932002
-0.590699
-0.585796
-0.979159
-0.00352549
-0.462859
-0.0567783
-0.672042
-0.117972
-0.678339
-0.176316
-0.665211
-0.233902
-0.653736
-0.290542
-0.643776
-0.345876
-0.63319
-0.400017
-0.623293
-0.453682
-0.613506
-0.507016
-0.604512
-0.557906
-0.597828
-0.606603
-0.590278
-0.655835
-0.581074
-0.706016
-0.573812
-0.755044
-0.567694
-0.803773
-0.560551
-0.85221
-0.554892
-0.899679
-0.548903
-0.947448
-0.54293
-0.538097
-0.995146
-0.0104582
-0.452401
-0.0662477
-0.616253
-0.128051
-0.616536
-0.187287
-0.605974
-0.244763
-0.59626
-0.300148
-0.588391
-0.354126
-0.579212
-0.407101
-0.570318
-0.458576
-0.562031
-0.511123
-0.551966
-0.565555
-0.543396
-0.617774
-0.538059
-0.667726
-0.531122
-0.717662
-0.523876
-0.767209
-0.518147
-0.815885
-0.511875
-0.864729
-0.506048
-0.912653
-0.500979
-0.960097
-0.495487
-0.490586
-1.00761
-0.019002
-0.433399
-0.0755762
-0.559679
-0.135146
-0.556966
-0.194337
-0.546784
-0.253226
-0.537371
-0.3114
-0.530216
-0.368438
-0.522174
-0.42476
-0.513996
-0.478793
-0.507997
-0.528801
-0.501958
-0.579205
-0.492992
-0.631237
-0.486027
-0.681951
-0.480407
-0.731977
-0.473849
-0.781844
-0.46828
-0.830792
-0.462927
-0.879573
-0.457267
-0.928219
-0.452332
-0.97611
-0.447596
-0.442875
-1.02382
-0.0270108
-0.406388
-0.0856236
-0.501066
-0.14642
-0.49617
-0.203256
-0.489948
-0.260692
-0.479935
-0.316797
-0.474112
-0.371385
-0.467586
-0.426093
-0.459288
-0.482722
-0.451368
-0.537934
-0.446747
-0.589804
-0.441122
-0.64148
-0.434351
-0.693011
-0.428877
-0.74346
-0.4234
-0.793825
-0.417916
-0.843558
-0.413195
-0.892455
-0.408369
-0.941219
-0.403569
-0.989515
-0.3993
-0.395005
-1.03738
-0.0339691
-0.372419
-0.0930303
-0.442005
-0.153905
-0.435295
-0.212255
-0.431597
-0.270631
-0.421559
-0.330147
-0.414596
-0.38698
-0.410753
-0.43951
-0.406757
-0.491855
-0.399023
-0.546196
-0.392406
-0.599493
-0.387825
-0.651696
-0.382148
-0.703665
-0.376908
-0.754897
-0.372168
-0.805397
-0.367416
-0.855709
-0.362882
-0.90543
-0.358648
-0.954673
-0.354325
-1.00382
-0.350158
-0.346113
-1.05271
-0.0393893
-0.333029
-0.0956595
-0.385734
-0.154283
-0.376672
-0.212385
-0.373495
-0.267145
-0.366799
-0.323939
-0.357801
-0.384318
-0.350375
-0.443854
-0.347222
-0.499679
-0.343198
-0.554377
-0.337707
-0.608974
-0.333229
-0.662004
-0.329117
-0.714153
-0.324758
-0.765986
-0.320336
-0.816999
-0.316402
-0.867513
-0.312369
-0.917655
-0.308506
-0.96707
-0.30491
-1.01602
-0.301204
-0.297515
-1.06462
-0.0444796
-0.28855
-0.104114
-0.3261
-0.166555
-0.314231
-0.228536
-0.311514
-0.286928
-0.308407
-0.33949
-0.305238
-0.392067
-0.297799
-0.447249
-0.292039
-0.502762
-0.287686
-0.556975
-0.283494
-0.61091
-0.279294
-0.664546
-0.275482
-0.717353
-0.271951
-0.769529
-0.26816
-0.821523
-0.264409
-0.872714
-0.261178
-0.923466
-0.257754
-0.973772
-0.254604
-1.02329
-0.251682
-0.248428
-1.07238
-0.048417
-0.240133
-0.110335
-0.264182
-0.170066
-0.2545
-0.230972
-0.250609
-0.29373
-0.245649
-0.3546
-0.244368
-0.410846
-0.241553
-0.464857
-0.238027
-0.518288
-0.234255
-0.571206
-0.230577
-0.623712
-0.226788
-0.676067
-0.223127
-0.728175
-0.219842
-0.779623
-0.216712
-0.8304
-0.213632
-0.881167
-0.21041
-0.931104
-0.207817
-0.981018
-0.20469
-1.03038
-0.202323
-0.199663
-1.07914
-0.0609244
-0.179208
-0.122566
-0.20254
-0.177675
-0.199391
-0.231915
-0.196369
-0.28682
-0.190744
-0.344019
-0.187169
-0.401515
-0.184056
-0.458387
-0.181155
-0.514151
-0.178491
-0.569038
-0.17569
-0.623178
-0.172648
-0.676298
-0.170007
-0.728853
-0.167288
-0.780978
-0.164587
-0.832392
-0.162218
-0.883432
-0.15937
-0.933966
-0.157284
-0.983975
-0.154681
-1.03364
-0.152655
-0.150427
-1.08288
-0.0595219
-0.119686
-0.123755
-0.138307
-0.184398
-0.138748
-0.243032
-0.137735
-0.298731
-0.135045
-0.354545
-0.131355
-0.409962
-0.12864
-0.46527
-0.125848
-0.520559
-0.123202
-0.574948
-0.121301
-0.628356
-0.119239
-0.681138
-0.117226
-0.733369
-0.115056
-0.784982
-0.112974
-0.836218
-0.110982
-0.886752
-0.108836
-0.937179
-0.106857
-0.986996
-0.104865
-1.03668
-0.102975
-0.101096
-1.08601
-0.0502702
-0.0694163
-0.11528
-0.0732974
-0.175598
-0.0784302
-0.235932
-0.0774012
-0.294323
-0.0766538
-0.351303
-0.0743746
-0.407837
-0.0721056
-0.463479
-0.0702056
-0.5181
-0.0685807
-0.572849
-0.0665515
-0.62658
-0.0655078
-0.679933
-0.063873
-0.73257
-0.0624189
-0.784577
-0.060968
-0.836168
-0.0593913
-0.886947
-0.0580564
-0.937297
-0.0565067
-0.986967
-0.0551942
-1.03609
-0.053854
-1.08487
-0.0523154
0.0491317
-0.130501
0.0813692
0.165906
-0.639328
0.522554
0.268848
-1.20769
1.10474
0.319527
-1.48626
1.43558
0.335951
-1.54059
1.52417
0.343328
-1.53902
1.53164
0.345204
-1.52433
1.52246
0.346761
-1.50866
1.50711
0.347637
-1.49497
1.4941
0.348129
-1.4824
1.48191
0.348034
-1.47006
1.47016
0.347124
-1.45798
1.45889
0.345693
-1.44652
1.44795
0.343538
-1.43489
1.43704
0.340692
-1.42362
1.42647
0.337051
-1.41113
1.41477
0.332528
-1.39733
1.40185
0.327607
-1.37982
1.38474
0.322643
-1.36451
1.36947
-1.34883
0.318262
1.35321
0.046289
-0.17679
0.150751
-0.74379
0.234824
-1.29176
0.270235
-1.52167
0.281419
-1.55177
0.286079
-1.54368
0.287601
-1.52586
0.288958
-1.51002
0.289296
-1.49531
0.288493
-1.4816
0.286851
-1.46842
0.284688
-1.45582
0.28188
-1.44371
0.278722
-1.43173
0.274936
-1.41984
0.270651
-1.40684
0.26558
-1.39226
0.260169
-1.37441
0.254445
-1.35878
-1.34354
0.24915
0.0469085
-0.223698
0.134799
-0.831681
0.201237
-1.3582
0.224496
-1.54493
0.230692
-1.55797
0.231228
-1.54422
0.230499
-1.52513
0.229216
-1.50874
0.227362
-1.49346
0.225077
-1.47932
0.222158
-1.4655
0.218443
-1.4521
0.213995
-1.43926
0.208831
-1.42656
0.203315
-1.41432
0.19744
-1.40097
0.191117
-1.38594
0.184545
-1.36784
0.177806
-1.35204
-1.33696
0.171225
0.048291
-0.271989
0.119946
-0.903336
0.17181
-1.41006
0.186218
-1.55933
0.189006
-1.56076
0.187101
-1.54231
0.185177
-1.5232
0.182197
-1.50576
0.178288
-1.48955
0.173618
-1.47465
0.168404
-1.46029
0.162826
-1.44652
0.156915
-1.43335
0.150603
-1.42025
0.143593
-1.40731
0.136094
-1.39347
0.128265
-1.37811
0.120427
-1.36
0.11249
-1.34411
-1.32923
0.104763
0.0478047
-0.319794
0.107959
-0.963489
0.144732
-1.44683
0.15002
-1.56462
0.14726
-1.558
0.14214
-1.53719
0.136955
-1.51802
0.131529
-1.50033
0.125747
-1.48376
0.119472
-1.46837
0.112605
-1.45342
0.105089
-1.43901
0.0969137
-1.42518
0.0884172
-1.41176
0.0798307
-1.39873
0.071031
-1.38467
0.0617555
-1.36883
0.0522428
-1.35049
0.0425077
-1.33437
-1.31961
0.0328882
0.0395624
-0.359357
0.0908634
-1.01479
0.119154
-1.47513
0.120044
-1.56551
0.114094
-1.55205
0.106886
-1.52998
0.0992092
-1.51034
0.0907218
-1.49184
0.081667
-1.47471
0.0723879
-1.45909
0.0629267
-1.44396
0.053263
-1.42934
0.0433835
-1.4153
0.0330268
-1.4014
0.0223271
-1.38803
0.0117069
-1.37405
0.00148553
-1.35861
-0.00880622
-1.3402
-0.0193521
-1.32383
-1.30897
-0.0299949
0.0338536
-0.39321
0.0801368
-1.06107
0.0946928
-1.48968
0.0888835
-1.5597
0.0790464
-1.54221
0.0692002
-1.52014
0.0590749
-1.50022
0.0489747
-1.48174
0.0385429
-1.46428
0.0275366
-1.44809
0.0160993
-1.43252
0.00427004
-1.41752
-0.0079297
-1.4031
-0.0202846
-1.38904
-0.0328985
-1.37541
-0.0458238
-1.36112
-0.0590172
-1.34542
-0.07173
-1.32749
-0.0845085
-1.31105
-1.29614
-0.0973367
0.0262597
-0.41947
0.0618878
-1.0967
0.0723594
-1.50015
0.0634356
-1.55078
0.0510884
-1.52986
0.0384264
-1.50748
0.0251492
-1.48694
0.0113103
-1.4679
-0.00269866
-1.45027
-0.0166274
-1.43416
-0.0306393
-1.41851
-0.0447737
-1.40338
-0.0590026
-1.38887
-0.0734323
-1.37461
-0.0877022
-1.36114
-0.101504
-1.34732
-0.115036
-1.33188
-0.12874
-1.31378
-0.142777
-1.29701
-1.28196
-0.15696
0.0245582
-0.444028
0.053033
-1.12518
0.0535974
-1.50072
0.0403987
-1.53758
0.024904
-1.51437
0.00939461
-1.49197
-0.00610738
-1.47144
-0.0216368
-1.45238
-0.0375439
-1.43436
-0.0538384
-1.41786
-0.0702394
-1.40211
-0.0868303
-1.38679
-0.103718
-1.37198
-0.120798
-1.35753
-0.138189
-1.34375
-0.155556
-1.32995
-0.1722
-1.31524
-0.188032
-1.29795
-0.20421
-1.28083
-1.26563
-0.220534
0.0208621
-0.46489
0.0420416
-1.14636
0.0362834
-1.49496
0.0185589
-1.51986
-0.000213081
-1.4956
-0.0188672
-1.47331
-0.0378634
-1.45244
-0.0568588
-1.43338
-0.0756627
-1.41556
-0.0944107
-1.39911
-0.113158
-1.38336
-0.131747
-1.3682
-0.150181
-1.35354
-0.168684
-1.33903
-0.186992
-1.32544
-0.20518
-1.31176
-0.223336
-1.29708
-0.241045
-1.28024
-0.258617
-1.26326
-1.24803
-0.276219
0.0179061
-0.482796
0.0332011
-1.16165
0.02189
-1.48365
0.00140006
-1.49937
-0.0197488
-1.47445
-0.0410489
-1.45201
-0.0622352
-1.43125
-0.0836653
-1.41195
-0.105306
-1.39392
-0.126945
-1.37748
-0.148574
-1.36174
-0.170403
-1.34637
-0.192209
-1.33174
-0.213925
-1.31732
-0.235648
-1.30372
-0.256758
-1.29065
-0.277008
-1.27683
-0.296683
-1.26057
-0.31655
-1.24339
-1.22825
-0.336329
0.0145025
-0.497299
0.023602
-1.17075
0.00663625
-1.46668
-0.0180147
-1.47472
-0.0426171
-1.44985
-0.0669527
-1.42768
-0.0913647
-1.40684
-0.115308
-1.38801
-0.139025
-1.3702
-0.162727
-1.35377
-0.18607
-1.33839
-0.209097
-1.32335
-0.232192
-1.30864
-0.255419
-1.29409
-0.278708
-1.28043
-0.302053
-1.26731
-0.324752
-1.25413
-0.346328
-1.23899
-0.367566
-1.22216
-1.20708
-0.388742
0.0119861
-0.509285
0.0158829
-1.17465
-0.00462388
-1.44618
-0.031273
-1.44807
-0.0582065
-1.42291
-0.0852034
-1.40068
-0.111997
-1.38005
-0.139124
-1.36088
-0.166135
-1.34319
-0.192996
-1.32691
-0.219955
-1.31143
-0.246665
-1.29663
-0.27276
-1.28255
-0.298537
-1.26831
-0.324216
-1.25475
-0.349592
-1.24193
-0.374557
-1.22917
-0.398536
-1.21501
-0.422086
-1.1986
-1.18362
-0.445547
0.00894052
-0.518225
0.00760011
-1.17331
-0.0185651
-1.42001
-0.0488319
-1.4178
-0.0785831
-1.39316
-0.107951
-1.37131
-0.137304
-1.3507
-0.166081
-1.3321
-0.194793
-1.31448
-0.223316
-1.29839
-0.251325
-1.28342
-0.279479
-1.26848
-0.307821
-1.25421
-0.335985
-1.24015
-0.36398
-1.22676
-0.391786
-1.21413
-0.41897
-1.20199
-0.444968
-1.18901
-0.470012
-1.17356
-1.15864
-0.494984
0.00692032
-0.525146
0.00169175
-1.16808
-0.0265592
-1.39176
-0.0591821
-1.38518
-0.0915854
-1.36076
-0.123967
-1.33893
-0.155998
-1.31866
-0.188233
-1.29987
-0.22013
-1.28258
-0.252003
-1.26652
-0.28368
-1.25175
-0.314443
-1.23772
-0.34465
-1.224
-0.374765
-1.21003
-0.405012
-1.19651
-0.435144
-1.18399
-0.464976
-1.17215
-0.493711
-1.16028
-0.521238
-1.14603
-1.13129
-0.548592
0.00403884
-0.529185
-0.00666638
-1.15737
-0.0393852
-1.35904
-0.0747265
-1.34984
-0.109152
-1.32633
-0.143169
-1.30491
-0.177079
-1.28475
-0.210512
-1.26644
-0.24398
-1.24911
-0.277207
-1.23329
-0.310356
-1.2186
-0.343806
-1.20427
-0.376852
-1.19095
-0.409121
-1.17776
-0.441074
-1.16456
-0.473137
-1.15193
-0.505131
-1.14016
-0.536175
-1.12924
-0.565616
-1.11659
-1.10222
-0.594683
0.00215238
-0.531337
-0.0121177
-1.1431
-0.0463745
-1.32478
-0.0839942
-1.31222
-0.121104
-1.28922
-0.157933
-1.26808
-0.194467
-1.24822
-0.230934
-1.22997
-0.266963
-1.21308
-0.303006
-1.19725
-0.338564
-1.18304
-0.373405
-1.16943
-0.408363
-1.156
-0.44329
-1.14284
-0.477941
-1.12991
-0.512115
-1.11776
-0.546454
-1.10582
-0.580436
-1.09525
-0.612549
-1.08448
-1.07073
-0.644037
-0.000392297
-0.530945
-0.0193498
-1.12415
-0.0569857
-1.28715
-0.0963993
-1.2728
-0.135064
-1.25056
-0.173393
-1.22975
-0.211311
-1.2103
-0.249049
-1.19223
-0.286766
-1.17536
-0.324325
-1.15969
-0.362104
-1.14526
-0.399693
-1.13184
-0.436453
-1.11924
-0.472514
-1.10678
-0.508789
-1.09363
-0.545309
-1.08124
-0.581577
-1.06955
-0.6183
-1.05853
-0.653789
-1.04899
-1.03662
-0.687905
-0.000978501
-0.529966
-0.0228625
-1.10226
-0.0628541
-1.24716
-0.10495
-1.23071
-0.14601
-1.2095
-0.186646
-1.18912
-0.227079
-1.16987
-0.266943
-1.15237
-0.30635
-1.13596
-0.345667
-1.12037
-0.384776
-1.10615
-0.423822
-1.09279
-0.463379
-1.07968
-0.502381
-1.06777
-0.540341
-1.05567
-0.578584
-1.043
-0.617143
-1.03099
-0.655986
-1.01969
-0.695632
-1.00935
-0.999055
-0.733195
-0.00255947
-0.0269484
-0.0695684
-0.113457
-0.156409
-0.198662
-0.240171
-0.28179
-0.322955
-0.363662
-0.404354
-0.444448
-0.48401
-0.52415
-0.564109
-0.60356
-0.643321
-0.683772
-0.725652
-0.768546
0.236822
-11.7302
11.8116
0.174347
-11.0741
11.1366
0.121221
-10.7483
10.8015
0.0874843
-10.461
10.4947
0.0562413
-10.2382
10.2695
0.0348772
-9.97524
9.9966
0.018545
-9.77105
9.78738
0.00695426
-9.58134
9.59293
-0.00103537
-9.43464
9.44263
-0.00642976
-9.3021
9.30749
-0.00919816
-9.2009
9.20367
-0.00908525
-9.10915
9.10903
-0.00714578
-9.05894
9.057
-0.00438217
-8.98723
8.98447
0.000976046
-8.95256
8.9472
0.00548829
-8.85609
8.85158
0.0109339
-8.593
8.58755
0.0107503
-7.56478
7.56497
0.00792509
-5.37134
5.37417
-2.17439
2.18231
0.173687
-11.6547
0.113824
-11.0143
0.0606352
-10.6951
0.0270459
-10.4274
-0.00296331
-10.2082
-0.0216562
-9.95654
-0.0348936
-9.75781
-0.0432096
-9.57302
-0.0477182
-9.43013
-0.0494538
-9.30036
-0.0482997
-9.20206
-0.0440316
-9.11342
-0.0382975
-9.06468
-0.0313083
-8.99422
-0.021614
-8.96225
-0.0120346
-8.86567
-0.0014767
-8.60356
0.00409906
-7.57036
0.00628959
-5.37353
-2.1681
0.0853036
-11.5688
0.024951
-10.9539
-0.0242273
-10.646
-0.0530209
-10.3986
-0.0775797
-10.1837
-0.0914482
-9.94268
-0.0995481
-9.74971
-0.102642
-9.56993
-0.101995
-9.43078
-0.0986312
-9.30373
-0.0923537
-9.20833
-0.0831203
-9.12265
-0.0723459
-9.07545
-0.060004
-9.00657
-0.0451158
-8.97714
-0.0301315
-8.88066
-0.0141445
-8.61954
-0.00229151
-7.58221
0.00478588
-5.38061
-2.16331
0.0223565
-11.4864
-0.0352114
-10.8964
-0.084313
-10.5969
-0.113698
-10.3692
-0.13666
-10.1607
-0.148044
-9.93129
-0.152911
-9.74484
-0.152776
-9.57006
-0.148609
-9.43495
-0.141598
-9.31074
-0.131423
-9.21851
-0.118234
-9.13584
-0.103695
-9.08999
-0.087289
-9.02297
-0.0679417
-8.99649
-0.0479733
-8.90062
-0.026695
-8.64082
-0.00863405
-7.60027
0.00308077
-5.39233
-2.16023
-0.0614435
-11.3921
-0.122015
-10.8358
-0.167339
-10.5515
-0.192316
-10.3442
-0.210267
-10.1428
-0.216933
-9.92463
-0.216816
-9.74496
-0.211618
-9.57526
-0.202383
-9.44418
-0.190287
-9.32283
-0.175137
-9.23366
-0.157164
-9.15381
-0.137648
-9.10951
-0.115946
-9.04467
-0.0915219
-9.02091
-0.0661153
-8.92603
-0.03929
-8.66765
-0.0150111
-7.62455
0.00132307
-5.40866
-2.15891
-0.121765
-11.3003
-0.180919
-10.7766
-0.227157
-10.5053
-0.252817
-10.3186
-0.269132
-10.1265
-0.273178
-9.92058
-0.26978
-9.74836
-0.261413
-9.58363
-0.248651
-9.45694
-0.232915
-9.33857
-0.213985
-9.25259
-0.192164
-9.17563
-0.168906
-9.13276
-0.143193
-9.07039
-0.114573
-9.04953
-0.0840013
-8.9566
-0.051862
-8.69979
-0.0215597
-7.65486
-0.000710414
-5.42951
-2.15962
-0.202234
-11.1954
-0.265055
-10.7138
-0.30793
-10.4624
-0.329356
-10.2972
-0.340949
-10.1149
-0.340648
-9.92088
-0.332477
-9.75653
-0.319184
-9.59692
-0.301484
-9.47464
-0.280759
-9.35929
-0.257049
-9.2763
-0.230622
-9.20206
-0.202558
-9.16083
-0.171649
-9.1013
-0.138487
-9.0827
-0.102705
-8.99238
-0.0648388
-8.73765
-0.0284622
-7.69123
-0.00317801
-5.45479
-2.1628
-0.260579
-11.0918
-0.322595
-10.6518
-0.367019
-10.418
-0.389294
-10.2749
-0.399076
-10.1051
-0.396094
-9.92386
-0.384736
-9.76789
-0.368291
-9.61336
-0.347093
-9.49584
-0.322771
-9.38362
-0.295348
-9.30372
-0.265154
-9.23225
-0.233462
-9.19252
-0.198618
-9.13614
-0.161217
-9.1201
-0.120818
-9.03278
-0.0777452
-8.78073
-0.0358086
-7.73317
-0.00605715
-5.48455
-2.16886
-0.337397
-10.9749
-0.403356
-10.5858
-0.444785
-10.3766
-0.463186
-10.2565
-0.468628
-10.0996
-0.461642
-9.93085
-0.445779
-9.78375
-0.424545
-9.6346
-0.398601
-9.52179
-0.369454
-9.41276
-0.337419
-9.33576
-0.30276
-9.26691
-0.266584
-9.22869
-0.226805
-9.17592
-0.184728
-9.16217
-0.139203
-9.07831
-0.0905316
-8.8294
-0.042861
-7.78084
-0.00863949
-5.51877
-2.1775
-0.393871
-10.8573
-0.45972
-10.52
-0.503029
-10.3333
-0.522172
-10.2373
-0.525545
-10.0963
-0.515898
-9.94049
-0.497009
-9.80264
-0.472618
-9.65899
-0.443243
-9.55116
-0.410571
-9.44543
-0.374857
-9.37147
-0.33647
-9.3053
-0.296785
-9.26838
-0.253288
-9.21941
-0.207229
-9.20823
-0.157754
-9.12778
-0.103511
-8.88364
-0.0501094
-7.83424
-0.011704
-5.55717
-2.1892
-0.466911
-10.7267
-0.53634
-10.4506
-0.577041
-10.2926
-0.592864
-10.2215
-0.592332
-10.0968
-0.579058
-9.95377
-0.555942
-9.82576
-0.526968
-9.68796
-0.493074
-9.58506
-0.455771
-9.48274
-0.415628
-9.41161
-0.372897
-9.34803
-0.32888
-9.3124
-0.281061
-9.26723
-0.230138
-9.25916
-0.175644
-9.18227
-0.116189
-8.9431
-0.0574214
-7.89301
-0.0145366
-5.60006
-2.20374
-0.521576
-10.5938
-0.591569
-10.3806
-0.634217
-10.2499
-0.650572
-10.2052
-0.647738
-10.0996
-0.631784
-9.96972
-0.605822
-9.85172
-0.573703
-9.72008
-0.536469
-9.62229
-0.495726
-9.52348
-0.451936
-9.4554
-0.40558
-9.39439
-0.35792
-9.36006
-0.307428
-9.31773
-0.252885
-9.3137
-0.193827
-9.24133
-0.128992
-9.00793
-0.0642546
-7.95775
-0.0172394
-5.64707
-2.22098
-0.59065
-10.4487
-0.663533
-10.3077
-0.703786
-10.2097
-0.717468
-10.1915
-0.71135
-10.1057
-0.692131
-9.98894
-0.662188
-9.88166
-0.625786
-9.75648
-0.584274
-9.6638
-0.539126
-9.56863
-0.491143
-9.50339
-0.440716
-9.44482
-0.388709
-9.41206
-0.333795
-9.37264
-0.275069
-9.37243
-0.21147
-9.30493
-0.141515
-9.07789
-0.0713774
-8.02788
-0.0202309
-5.69822
-2.24121
-0.643668
-10.3
-0.717483
-10.2339
-0.759366
-10.1678
-0.773309
-10.1775
-0.764754
-10.1143
-0.742971
-10.0107
-0.710357
-9.91428
-0.670845
-9.796
-0.62611
-9.70854
-0.577623
-9.61711
-0.526083
-9.55493
-0.472221
-9.49868
-0.416684
-9.4676
-0.358493
-9.43083
-0.296571
-9.43435
-0.229085
-9.37242
-0.154046
-9.15292
-0.0780524
-8.10388
-0.0224214
-5.75385
-2.26363
-0.70895
-10.1397
-0.784942
-10.1579
-0.824193
-10.1285
-0.836167
-10.1656
-0.824974
-10.1255
-0.800105
-10.0356
-0.763786
-9.95059
-0.720311
-9.83947
-0.671553
-9.75729
-0.618936
-9.66973
-0.563521
-9.61034
-0.505739
-9.55646
-0.446001
-9.52734
-0.383512
-9.49332
-0.317811
-9.50005
-0.246339
-9.44389
-0.166334
-9.23293
-0.0847168
-8.18549
-0.0237214
-5.81485
-2.28735
-0.759865
-9.97451
-0.837315
-10.0804
-0.877547
-10.0883
-0.889469
-10.1536
-0.875938
-10.139
-0.848783
-10.0627
-0.809923
-9.98946
-0.763413
-9.88598
-0.711559
-9.80915
-0.655709
-9.72558
-0.596827
-9.66922
-0.535721
-9.61756
-0.472608
-9.59045
-0.406709
-9.55922
-0.338149
-9.56861
-0.263305
-9.51873
-0.178628
-9.31761
-0.0913231
-8.2728
-0.0240866
-5.88208
-2.31144
-0.821585
-9.79696
-0.900067
-10.0019
-0.936906
-10.0515
-0.947565
-10.143
-0.9321
-10.1545
-0.902049
-10.0928
-0.859955
-10.0315
-0.809861
-9.93608
-0.75429
-9.86472
-0.694649
-9.78522
-0.632215
-9.73166
-0.567359
-9.68242
-0.5003
-9.65751
-0.430176
-9.62934
-0.357945
-9.64084
-0.279948
-9.59673
-0.190835
-9.40672
-0.0977675
-8.36587
-0.024511
-5.95534
-2.33595
-0.873538
-9.61133
-0.952722
-9.92277
-0.988335
-10.0158
-0.998082
-10.1332
-0.980408
-10.1722
-0.948235
-10.125
-0.903644
-10.0761
-0.850644
-9.98908
-0.792123
-9.92324
-0.729356
-9.84799
-0.663535
-9.79748
-0.595475
-9.75048
-0.525271
-9.72772
-0.452758
-9.70185
-0.377924
-9.71567
-0.296465
-9.67819
-0.202865
-9.50032
-0.103834
-8.4649
-0.024972
-6.0342
-2.36092
-0.924868
-9.41966
-1.01363
-9.834
-1.04614
-9.98333
-1.05419
-10.1252
-1.03436
-10.192
-0.998934
-10.1604
-0.951136
-10.1239
-0.894638
-10.0456
-0.83246
-9.98542
-0.766116
-9.91433
-0.696911
-9.86669
-0.625173
-9.82222
-0.550997
-9.80189
-0.474674
-9.77818
-0.396876
-9.79347
-0.312548
-9.76252
-0.214894
-9.59797
-0.111043
-8.56875
-0.0257923
-6.11945
-2.38671
-0.962306
-9.2259
-1.05624
-9.74007
-1.08754
-9.95203
-1.09557
-10.1172
-1.07664
-10.2109
-1.04014
-10.1969
-0.991075
-10.173
-0.932112
-10.1045
-0.867651
-10.0499
-0.798225
-9.98376
-0.726065
-9.93885
-0.651267
-9.89702
-0.574589
-9.87857
-0.495667
-9.8571
-0.415773
-9.87337
-0.328404
-9.84989
-0.225988
-9.70039
-0.117348
-8.67739
-0.0263174
-6.21048
-2.41303
8.26439
-8.37317
-9.11712
7.1262
-8.60188
6.14941
-8.97525
5.22969
-9.19743
4.40321
-9.38443
3.67439
-9.46809
3.04556
-9.54418
2.5158
-9.57477
2.06837
-9.60245
1.69156
-9.60695
1.38172
-9.62901
1.12932
-9.64461
0.913769
-9.66302
0.728284
-9.67162
0.552488
-9.69757
0.404118
-9.70152
0.321564
-9.61783
0.220559
-8.57638
0.0947153
-6.08464
-2.31831
4.80654
-8.00567
-5.17404
4.39808
-8.19342
3.96997
-8.54714
3.50932
-8.73679
3.05354
-8.92864
2.63889
-9.05344
2.26357
-9.16885
1.93616
-9.24736
1.65104
-9.31733
1.41166
-9.36756
1.20132
-9.41868
1.01335
-9.45664
0.838048
-9.48772
0.683061
-9.51663
0.532124
-9.54663
0.396154
-9.56555
0.252907
-9.47459
0.125233
-8.44871
-0.0484563
-5.91095
-2.36677
3.44327
-7.93154
-3.51741
3.37252
-8.12266
3.18142
-8.35604
2.95304
-8.50841
2.68967
-8.66527
2.43199
-8.79576
2.17134
-8.9082
1.92195
-8.99797
1.68192
-9.07731
1.45912
-9.14476
1.24323
-9.20279
1.03873
-9.25214
0.843584
-9.29257
0.66025
-9.33329
0.490433
-9.37682
0.333662
-9.40877
0.188968
-9.32989
0.108214
-8.36796
0.0192643
-5.822
-2.3475
2.16789
-7.97836
-2.12106
2.16513
-8.1199
2.08309
-8.27401
1.9868
-8.41211
1.85811
-8.53659
1.7092
-8.64685
1.54722
-8.74622
1.37978
-8.83054
1.21175
-8.90927
1.04672
-8.97973
0.890046
-9.04612
0.744835
-9.10692
0.61201
-9.15975
0.490493
-9.21178
0.373363
-9.25969
0.261674
-9.29709
0.151518
-9.21974
0.109382
-8.32582
0.0703824
-5.783
-2.27712
1.51586
-8.04754
-1.44668
1.54298
-8.14702
1.5315
-8.26253
1.48588
-8.36649
1.42016
-8.47086
1.33207
-8.55876
1.23087
-8.64501
1.11832
-8.71799
0.998975
-8.78993
0.877836
-8.85859
0.753564
-8.92184
0.628759
-8.98212
0.501311
-9.0323
0.380011
-9.09048
0.251857
-9.13153
0.130272
-9.1755
0.0335883
-9.12305
0.0256249
-8.31786
0.0442111
-5.80158
-2.23291
1.04799
-8.1108
-0.984737
1.08668
-8.18571
1.08533
-8.26118
1.05953
-8.3407
1.01021
-8.42154
0.946151
-8.4947
0.865144
-8.56401
0.779339
-8.63219
0.687049
-8.69764
0.591135
-8.76268
0.491559
-8.82227
0.388598
-8.87916
0.286345
-8.93005
0.181931
-8.98606
0.0831012
-9.0327
-0.0102837
-9.08212
-0.0936082
-9.03973
-0.0727246
-8.33874
0.0327613
-5.90707
-2.20015
0.725372
-8.14449
-0.691683
0.739274
-8.19961
0.748569
-8.27048
0.740296
-8.33242
0.7094
-8.39064
0.666462
-8.45176
0.610974
-8.50852
0.545876
-8.56709
0.475102
-8.62687
0.396189
-8.68377
0.312643
-8.73872
0.224792
-8.79131
0.139295
-8.84455
0.0511405
-8.89791
-0.0320871
-8.94947
-0.116081
-8.99812
-0.187774
-8.96804
-0.156221
-8.3703
0.00622818
-6.06952
-2.19392
0.560136
-8.17513
-0.529487
0.578187
-8.21766
0.569645
-8.26194
0.543779
-8.30656
0.511924
-8.35879
0.46341
-8.40325
0.411257
-8.45637
0.349735
-8.50556
0.280494
-8.55763
0.205769
-8.60904
0.126342
-8.65929
0.0458881
-8.71085
-0.0334606
-8.7652
-0.11748
-8.81389
-0.19153
-8.87542
-0.266908
-8.92274
-0.322317
-8.91263
-0.266017
-8.4266
-0.0511777
-6.28436
-2.2451
0.403485
-8.1791
-0.399522
0.396895
-8.21107
0.38522
-8.25026
0.365608
-8.28694
0.33295
-8.32613
0.292914
-8.36321
0.244333
-8.40779
0.188053
-8.44928
0.126664
-8.49624
0.0542842
-8.53666
-0.0186283
-8.58638
-0.0975882
-8.63189
-0.179284
-8.68351
-0.265528
-8.72764
-0.352325
-8.78863
-0.434709
-8.84036
-0.495013
-8.85232
-0.440626
-8.48098
-0.157317
-6.56767
-2.40242
0.344219
-8.17466
-0.348658
0.333055
-8.19991
0.312193
-8.2294
0.278102
-8.25285
0.235645
-8.28367
0.191179
-8.31875
0.13889
-8.3555
0.0756488
-8.38604
0.00639303
-8.42698
-0.0718349
-8.45843
-0.15583
-8.50239
-0.251765
-8.53596
-0.353765
-8.58151
-0.462223
-8.61919
-0.576733
-8.67412
-0.695007
-8.72209
-0.788485
-8.75885
-0.766967
-8.5025
-0.369242
-6.96539
-2.77166
0.270939
-8.15783
-0.287767
0.247597
-8.17657
0.217762
-8.19956
0.185161
-8.22025
0.150234
-8.24875
0.103156
-8.27167
0.0487248
-8.30107
-0.0134218
-8.3239
-0.0871611
-8.35324
-0.167958
-8.37764
-0.26003
-8.41031
-0.359763
-8.43622
-0.46692
-8.47435
-0.591562
-8.49454
-0.729026
-8.53665
-0.898678
-8.55243
-1.05583
-8.6017
-1.07827
-8.48005
-0.687239
-7.35643
-3.4589
0.241319
-8.14099
-0.258162
0.218843
-8.15409
0.190241
-8.17096
0.1554
-8.18541
0.110997
-8.20434
0.0577365
-8.21841
-0.00381936
-8.23951
-0.0706841
-8.25703
-0.1453
-8.27863
-0.227759
-8.29518
-0.321069
-8.317
-0.422511
-8.33478
-0.540929
-8.35593
-0.66686
-8.36861
-0.816651
-8.38686
-0.982873
-8.38621
-1.18269
-8.40188
-1.31796
-8.34478
-1.04698
-7.62741
-4.50588
0.204993
-8.11662
-0.229361
0.17545
-8.12455
0.141347
-8.13686
0.102267
-8.14633
0.0585627
-8.16064
0.0111101
-8.17096
-0.0425173
-8.18588
-0.104134
-8.19541
-0.173425
-8.20934
-0.248053
-8.22055
-0.333679
-8.23138
-0.430884
-8.23758
-0.542156
-8.24466
-0.656647
-8.25412
-0.791163
-8.25235
-0.925142
-8.25223
-1.11106
-8.21596
-1.27776
-8.17809
-1.07162
-7.83355
-5.57749
0.167622
-8.09487
-0.189375
0.143013
-8.09994
0.114352
-8.1082
0.0807881
-8.11277
0.0412833
-8.12113
-0.00301723
-8.12666
-0.0519178
-8.13698
-0.103866
-8.14347
-0.161485
-8.15172
-0.22614
-8.1559
-0.295174
-8.16234
-0.371164
-8.16159
-0.453156
-8.16267
-0.554752
-8.15253
-0.656815
-8.15028
-0.775438
-8.13361
-0.882693
-8.1087
-0.982615
-8.07817
-0.873323
-7.94284
-6.45082
0.118353
-8.07287
-0.140354
0.094564
-8.07615
0.0677955
-8.08143
0.0391436
-8.08412
0.00731576
-8.08931
-0.0288188
-8.09052
-0.0679185
-8.09788
-0.109421
-8.10196
-0.15434
-8.1068
-0.202576
-8.10766
-0.254083
-8.11084
-0.308652
-8.10702
-0.367185
-8.10413
-0.430533
-8.08918
-0.496896
-8.08392
-0.563392
-8.06711
-0.618899
-8.05319
-0.674831
-8.02224
-0.654079
-7.96359
-7.1049
0.0931206
-8.05454
-0.111446
0.0730356
-8.05606
0.0502716
-8.05866
0.0268484
-8.06069
0.00173636
-8.06419
-0.0259432
-8.06284
-0.0566236
-8.0672
-0.0904104
-8.06818
-0.126504
-8.0707
-0.16405
-8.07011
-0.203738
-8.07115
-0.24368
-8.06708
-0.281354
-8.06646
-0.314687
-8.05585
-0.348386
-8.05022
-0.378144
-8.03736
-0.404645
-8.02669
-0.4199
-8.00698
-0.39814
-7.98535
-7.50304
0.0441128
-8.03684
-0.0618174
0.0256129
-8.03756
0.00622054
-8.03927
-0.0136078
-8.04086
-0.0335753
-8.04423
-0.0525091
-8.04391
-0.0744809
-8.04523
-0.0966879
-8.04597
-0.120661
-8.04673
-0.145216
-8.04556
-0.170734
-8.04563
-0.195635
-8.04218
-0.221333
-8.04076
-0.246073
-8.03111
-0.266276
-8.03002
-0.287728
-8.0159
-0.301776
-8.01265