/*--------------------------------*- C++ -*----------------------------------*\
  =========                 |
  \\      /  F ield         | OpenFOAM: The Open Source CFD Toolbox
   \\    /   O peration     | Website:  https://openfoam.org
    \\  /    A nd           | Version:  9
     \\/     M anipulation  |
\*---------------------------------------------------------------------------*/
FoamFile
{
    format      ascii;
    class       volVectorField;
    location    "5.6";
    object      U;
}
// * * * * * * * * * * * * * * * * * * * * * * * * * * * * * * * * * * * * * //

dimensions      [0 1 -1 0 0 0 0];

internalField   nonuniform List<vector> 
46400
(
(9.38457 -9.19542 -4.83998e-19)
(19.211 -18.4356 4.89098e-19)
(20.8308 -20.9454 -6.7309e-20)
(20.1353 -21.0507 3.88095e-21)
(19.4667 -21.0485 -5.24907e-20)
(18.7655 -21.0781 -3.68164e-19)
(18.1341 -21.0715 1.75141e-19)
(17.5178 -21.0836 -1.43828e-20)
(16.9474 -21.0963 5.69879e-21)
(16.4097 -21.114 2.07542e-21)
(15.8923 -21.1458 -8.9688e-21)
(15.4161 -21.1693 0)
(14.9659 -21.2333 8.50469e-20)
(14.5344 -21.2446 -1.04037e-19)
(14.0927 -21.2519 -2.1672e-19)
(13.6875 -21.2441 -7.22329e-20)
(13.2617 -21.2416 -3.69124e-20)
(12.8899 -21.1796 2.10612e-19)
(12.5434 -21.1345 3.49863e-19)
(12.0535 -21.3194 -3.19931e-19)
(9.6811 -8.69269 0)
(19.3491 -17.2428 -3.37256e-20)
(20.7974 -19.4222 0)
(20.0359 -19.5248 -2.1881e-19)
(19.3749 -19.5852 1.53893e-19)
(18.67 -19.6712 -3.52828e-20)
(18.0496 -19.7125 0)
(17.4467 -19.7936 1.4383e-20)
(16.8804 -19.8518 -5.69887e-21)
(16.3448 -19.9138 -2.07547e-21)
(15.8322 -19.9684 1.96003e-19)
(15.3641 -20.0419 4.55314e-20)
(14.9019 -20.1028 -2.05254e-19)
(14.4833 -20.1809 0)
(14.085 -20.2565 3.00459e-20)
(13.6934 -20.294 3.40802e-20)
(13.3264 -20.3564 0)
(12.9705 -20.3425 -4.17354e-19)
(12.6572 -20.3467 -1.19436e-19)
(12.2503 -20.5532 4.28806e-19)
(9.91177 -8.17339 -1.55764e-19)
(19.3672 -16.0466 8.60237e-20)
(20.554 -17.8449 -1.31995e-19)
(19.7724 -18.0266 -2.75134e-20)
(19.1302 -18.1243 2.7011e-20)
(18.4523 -18.2699 0)
(17.8292 -18.368 -2.04813e-19)
(17.2166 -18.4456 1.70517e-19)
(16.6601 -18.5656 -3.26407e-19)
(16.1417 -18.6592 3.26958e-19)
(15.6268 -18.7724 3.64967e-19)
(15.1563 -18.84 -1.83683e-20)
(14.7144 -18.9677 -3.30997e-19)
(14.2919 -19.0355 0)
(13.8824 -19.1437 4.75933e-19)
(13.4985 -19.2175 -4.68713e-19)
(13.1029 -19.2929 0)
(12.768 -19.3375 -1.56684e-20)
(12.419 -19.3843 5.76405e-20)
(12.0066 -19.6577 -5.63797e-19)
(10.0665 -7.62409 1.82855e-20)
(19.264 -14.8385 -1.99761e-20)
(20.2246 -16.3332 5.71073e-20)
(19.4429 -16.5566 -5.64074e-20)
(18.8188 -16.7219 -9.14937e-20)
(18.1428 -16.9029 1.33228e-19)
(17.5449 -17.0636 2.2559e-19)
(16.9713 -17.2282 -6.26309e-19)
(16.4022 -17.3539 5.41029e-19)
(15.886 -17.4888 -4.95694e-20)
(15.3966 -17.6351 0)
(14.9434 -17.7878 5.80187e-20)
(14.4909 -17.9108 -6.14032e-20)
(14.087 -18.0627 0)
(13.6923 -18.181 6.17963e-19)
(13.3293 -18.3184 -5.22483e-19)
(12.9799 -18.4525 0)
(12.6314 -18.5221 7.21986e-20)
(12.3078 -18.5818 8.73517e-20)
(11.8665 -18.8514 6.87525e-19)
(10.161 -7.04427 0)
(19.035 -13.5962 0)
(19.7869 -14.8724 -1.85281e-19)
(18.9845 -15.1081 1.16805e-19)
(18.3606 -15.3097 -2.96427e-19)
(17.7197 -15.537 2.47757e-19)
(17.1123 -15.7352 0)
(16.5374 -15.9115 3.17794e-19)
(16.0064 -16.1314 -3.81126e-19)
(15.5009 -16.285 -9.54068e-20)
(14.9818 -16.4446 -9.77004e-20)
(14.5318 -16.5803 0)
(14.1055 -16.7733 7.42158e-19)
(13.7035 -16.9084 -7.30541e-19)
(13.3166 -17.0987 0)
(12.9362 -17.2086 -8.51779e-19)
(12.58 -17.3961 7.5426e-19)
(12.2796 -17.5346 7.71703e-19)
(11.952 -17.6509 -8.41832e-19)
(11.5411 -17.9501 0)
(10.2359 -6.51095 0)
(18.6419 -12.2368 0)
(19.241 -13.4277 0)
(18.4759 -13.7269 -3.01096e-20)
(17.8613 -13.9765 0)
(17.2237 -14.2368 0)
(16.6503 -14.4945 0)
(16.1042 -14.7242 -1.13444e-19)
(15.5622 -14.9447 0)
(15.0985 -15.1861 9.54078e-20)
(14.6439 -15.4181 -2.09511e-20)
(14.1953 -15.6191 -1.00684e-18)
(13.7561 -15.8002 7.53403e-19)
(13.3562 -15.9943 -1.0166e-18)
(12.9857 -16.1815 7.62819e-19)
(12.635 -16.3735 0)
(12.2703 -16.5121 -8.94919e-19)
(11.9561 -16.6875 7.63231e-19)
(11.6623 -16.8171 0)
(11.2468 -17.1344 -1.23127e-19)
(10.329 -5.94649 3.3716e-19)
(18.1588 -10.9504 1.0882e-19)
(18.5814 -11.9994 4.32797e-19)
(17.8037 -12.3209 -4.5734e-19)
(17.205 -12.6414 -4.76786e-19)
(16.5983 -12.9417 9.59215e-19)
(16.0152 -13.2406 -1.11932e-18)
(15.4905 -13.5133 9.68253e-20)
(14.9643 -13.7814 3.62821e-19)
(14.4778 -14.0053 0)
(13.9876 -14.2435 -2.02335e-20)
(13.5763 -14.463 -1.92616e-20)
(13.1774 -14.7188 1.19904e-19)
(12.7899 -14.9032 1.02071e-18)
(12.424 -15.148 -9.02271e-19)
(12.0955 -15.3568 -1.16215e-18)
(11.7518 -15.5824 1.01124e-18)
(11.4463 -15.7508 -1.47155e-20)
(11.1628 -15.9374 -1.31706e-19)
(10.7645 -16.2593 -9.36079e-19)
(10.4515 -5.36888 -1.33452e-19)
(17.5088 -9.65124 3.22667e-20)
(17.838 -10.6292 -1.49493e-19)
(17.0767 -11.0085 -6.01279e-19)
(16.482 -11.3715 4.05798e-19)
(15.9121 -11.7161 0)
(15.3542 -12.0556 8.92287e-19)
(14.8704 -12.3803 -4.27778e-19)
(14.383 -12.7091 2.97619e-19)
(13.954 -13.0029 1.58965e-19)
(13.5439 -13.3192 -3.01586e-19)
(13.1081 -13.5626 7.27638e-19)
(12.7125 -13.8306 1.55683e-19)
(12.3262 -14.0569 -8.80958e-19)
(11.9431 -14.2557 2.46887e-18)
(11.6229 -14.4993 -1.00849e-18)
(11.2979 -14.7159 1.28601e-18)
(10.9925 -14.9228 -8.40241e-19)
(10.7361 -15.1187 2.76978e-19)
(10.3799 -15.4676 1.33161e-18)
(10.6567 -4.8211 7.27935e-19)
(16.7862 -8.49837 -1.44209e-19)
(16.8447 -9.28546 -2.9091e-20)
(16.1827 -9.73062 3.35634e-19)
(15.618 -10.1767 1.56609e-19)
(15.0929 -10.5578 1.82275e-19)
(14.5447 -10.927 -8.48068e-19)
(14.0555 -11.2461 5.17357e-19)
(13.5879 -11.5978 -1.59497e-19)
(13.1355 -11.8889 -1.5897e-19)
(12.6911 -12.1836 -1.58142e-19)
(12.3241 -12.4762 -1.74302e-19)
(11.9728 -12.788 -3.27827e-19)
(11.6661 -13.0965 1.1456e-18)
(11.3143 -13.3493 -1.59973e-18)
(10.9875 -13.5851 -1.65e-19)
(10.6906 -13.8475 1.36353e-20)
(10.3903 -14.0483 -1.21611e-18)
(10.133 -14.272 9.08382e-19)
(9.82475 -14.621 -1.43684e-18)
(10.7761 -4.38284 6.99271e-19)
(15.863 -7.30095 -1.72624e-18)
(15.8436 -8.11853 1.1502e-18)
(15.22 -8.55841 -1.8138e-19)
(14.6718 -9.0621 -2.05962e-19)
(14.2211 -9.49393 8.02867e-19)
(13.7349 -9.9471 -9.69783e-19)
(13.2962 -10.3171 0)
(12.8563 -10.7091 7.60352e-19)
(12.4947 -11.0724 -7.47681e-19)
(12.1304 -11.4453 -5.48358e-19)
(11.7105 -11.6988 7.13584e-19)
(11.3147 -11.9714 1.72155e-19)
(10.9978 -12.2604 -7.09858e-19)
(10.693 -12.56 1.67689e-19)
(10.3863 -12.8071 8.531e-19)
(10.1046 -13.0862 -1.51454e-18)
(9.82454 -13.3102 9.99955e-19)
(9.56376 -13.5294 -1.15847e-20)
(9.27706 -13.8763 -1.38623e-18)
(10.7909 -3.97986 9.90068e-19)
(14.8765 -6.27764 -6.59151e-19)
(14.5929 -7.01273 4.4725e-19)
(14.1117 -7.53254 1.12212e-20)
(13.6139 -8.06566 -8.86469e-19)
(13.1649 -8.50748 -8.44039e-19)
(12.7088 -8.95042 1.05248e-18)
(12.2978 -9.33813 -6.2412e-19)
(11.8847 -9.72665 8.29122e-19)
(11.4745 -10.0485 0)
(11.1522 -10.4577 1.56585e-20)
(10.8944 -10.8524 1.90444e-19)
(10.5497 -11.1681 2.01664e-19)
(10.2331 -11.4616 -1.97948e-19)
(9.95448 -11.7748 0)
(9.66154 -12.0438 1.90543e-19)
(9.40506 -12.327 0)
(9.1606 -12.5884 3.55399e-19)
(8.91412 -12.8156 1.73959e-18)
(8.6572 -13.1534 -8.50261e-21)
(10.5564 -3.53213 5.57708e-19)
(13.6954 -5.3157 -1.12896e-19)
(13.4453 -6.06318 -1.71207e-18)
(12.9887 -6.55142 9.59183e-19)
(12.5463 -7.15224 2.27824e-19)
(12.2275 -7.65347 -2.25255e-19)
(11.8342 -8.18455 -9.27754e-19)
(11.4705 -8.61573 6.92483e-19)
(11.1241 -9.09086 0)
(10.7528 -9.43751 0)
(10.3492 -9.75947 -1.07396e-18)
(10.0464 -10.1138 8.50959e-19)
(9.76836 -10.48 -2.01672e-19)
(9.47721 -10.786 -6.18083e-19)
(9.21399 -11.1109 3.61194e-21)
(8.96442 -11.4059 1.38091e-18)
(8.70112 -11.6886 -7.72042e-19)
(8.4779 -11.9627 5.6925e-19)
(8.25397 -12.2175 -9.21227e-19)
(8.00614 -12.5406 0)
(10.0957 -3.04084 -4.93136e-19)
(12.5491 -4.47629 7.91727e-19)
(12.173 -5.22278 1.36617e-19)
(11.7713 -5.72722 1.34655e-19)
(11.3419 -6.29381 0)
(10.9602 -6.78534 1.01119e-18)
(10.5962 -7.28292 -9.93471e-19)
(10.2469 -7.71474 1.25526e-19)
(9.96642 -8.19414 0)
(9.74943 -8.67781 9.37562e-19)
(9.44762 -9.07795 -8.04118e-19)
(9.15414 -9.43382 8.99607e-19)
(8.89662 -9.81134 -8.85301e-19)
(8.63528 -10.1465 8.62083e-19)
(8.39333 -10.4784 -7.40475e-19)
(8.16289 -10.7959 -8.255e-19)
(7.93878 -11.0988 1.62092e-18)
(7.72311 -11.3775 -6.94464e-19)
(7.52659 -11.6509 9.91434e-20)
(7.31589 -11.977 8.20966e-19)
(9.44314 -2.53621 -3.98807e-19)
(11.1822 -3.67646 4.29547e-19)
(10.877 -4.43654 -1.36634e-19)
(10.65 -5.01686 -1.34658e-19)
(10.2329 -5.60159 0)
(10.0159 -6.16782 0)
(9.7391 -6.7454 0)
(9.41144 -7.19336 -2.57728e-19)
(9.0331 -7.59226 -1.00931e-18)
(8.75161 -8.02404 1.98026e-18)
(8.52265 -8.46457 -1.08973e-18)
(8.25418 -8.85033 -1.21072e-19)
(8.0128 -9.22871 0)
(7.79062 -9.59671 0)
(7.55844 -9.93273 -2.21371e-19)
(7.3592 -10.2678 0)
(7.15743 -10.586 8.44228e-19)
(6.96108 -10.8842 -1.03861e-18)
(6.78033 -11.1638 -9.04993e-19)
(6.5801 -11.5032 8.64651e-19)
(8.61276 -2.04894 4.16432e-19)
(9.9512 -2.9942 7.58428e-19)
(9.56251 -3.68495 1.31564e-21)
(9.31855 -4.26826 1.8515e-22)
(8.93541 -4.86079 1.46438e-19)
(8.54623 -5.31695 -4.2092e-19)
(8.33726 -5.92646 0)
(8.21255 -6.50151 -4.07722e-19)
(7.97169 -7.0268 1.3765e-19)
(7.70693 -7.4589 5.19188e-19)
(7.48535 -7.92086 5.04301e-19)
(7.27125 -8.3346 -3.751e-19)
(7.05845 -8.73043 9.62538e-19)
(6.85985 -9.10365 -8.27487e-19)
(6.67935 -9.47078 1.03127e-18)
(6.48518 -9.80494 -1.91548e-18)
(6.31197 -10.1405 8.8338e-19)
(6.14015 -10.4488 1.05493e-19)
(5.96994 -10.735 8.35264e-19)
(5.7999 -11.0709 -8.96495e-19)
(7.64454 -1.58689 1.45169e-19)
(8.63611 -2.42392 -1.54526e-19)
(8.27447 -3.18238 6.24569e-19)
(8.11295 -3.82498 -6.13029e-19)
(7.90346 -4.50902 -2.99784e-19)
(7.64213 -5.02352 -7.30555e-19)
(7.26251 -5.48128 2.67425e-21)
(7.01369 -5.96905 5.636e-19)
(6.84145 -6.48178 -1.34873e-19)
(6.64418 -6.95211 0)
(6.45541 -7.39686 0)
(6.28855 -7.83575 0)
(6.11773 -8.24626 0)
(5.93788 -8.63703 3.60859e-21)
(5.77067 -9.00893 0)
(5.61962 -9.37432 1.14417e-19)
(5.46239 -9.71179 4.51914e-19)
(5.32349 -10.0449 -1.32776e-18)
(5.18915 -10.3438 9.79155e-19)
(5.03579 -10.686 -9.14799e-19)
(6.5131 -1.16215 0)
(7.17295 -1.95317 -8.35022e-20)
(6.6977 -2.67981 0)
(6.52589 -3.29243 2.36541e-19)
(6.35876 -3.98422 -1.58475e-19)
(6.27682 -4.63791 -6.05847e-19)
(6.11664 -5.21732 3.48946e-21)
(5.92085 -5.7183 5.81641e-19)
(5.718 -6.19573 -5.63985e-19)
(5.55742 -6.65966 1.10493e-18)
(5.39527 -7.09439 -4.33629e-21)
(5.23285 -7.52209 -5.28296e-19)
(5.09621 -7.92501 5.11065e-19)
(4.959 -8.32608 -6.26676e-19)
(4.81983 -8.68671 0)
(4.69133 -9.05272 -4.74537e-19)
(4.56714 -9.39222 4.67443e-19)
(4.44124 -9.72113 0)
(4.33114 -10.026 -1.09521e-19)
(4.21229 -10.3661 0)
(5.33758 -0.870502 8.41908e-20)
(5.6894 -1.74321 8.37689e-20)
(5.52147 -2.37935 0)
(5.34978 -2.98682 3.2371e-19)
(5.11988 -3.54268 -4.00042e-19)
(4.98633 -4.12767 2.32158e-19)
(4.86544 -4.70694 -6.85341e-19)
(4.75607 -5.2567 2.9812e-19)
(4.64868 -5.7851 -7.30512e-20)
(4.51076 -6.2704 0)
(4.37489 -6.74211 -6.94879e-20)
(4.25044 -7.18174 -6.77586e-20)
(4.12485 -7.60197 -6.60698e-20)
(4.0099 -8.00455 0)
(3.90646 -8.3903 -4.96723e-19)
(3.78696 -8.75455 1.03483e-18)
(3.69904 -9.11169 -8.89846e-19)
(3.58968 -9.44584 4.65471e-19)
(3.50845 -9.7574 5.68619e-20)
(3.41171 -10.1031 4.77387e-19)
(3.56482 -0.512378 -1.30365e-19)
(4.23606 -1.42199 -1.7296e-19)
(4.13781 -2.11818 5.13876e-22)
(4.05675 -2.80763 4.56251e-19)
(3.91385 -3.40704 -1.23128e-19)
(3.77958 -3.97792 -7.94097e-20)
(3.65512 -4.53892 7.77848e-20)
(3.53532 -5.0622 1.51497e-19)
(3.42624 -5.58326 7.30554e-20)
(3.34635 -6.0727 -2.85924e-19)
(3.25488 -6.54182 3.15516e-19)
(3.1769 -6.97893 6.77617e-20)
(3.09844 -7.40611 3.30949e-19)
(3.01379 -7.80465 -2.51814e-21)
(2.93654 -8.19269 2.92941e-20)
(2.8546 -8.55987 -5.54604e-19)
(2.78122 -8.91217 1.51801e-19)
(2.70589 -9.25688 0)
(2.6367 -9.56295 -2.81097e-20)
(2.56819 -9.91498 -2.41801e-19)
(2.37899 -0.22944 4.4372e-20)
(2.5664 -1.11462 -8.54586e-20)
(2.63316 -1.81976 1.72277e-19)
(2.60614 -2.50999 -4.06539e-20)
(2.56676 -3.16317 -4.16471e-20)
(2.4699 -3.75479 0)
(2.41372 -4.33414 -7.80989e-20)
(2.3524 -4.87597 1.52904e-19)
(2.28861 -5.39499 -7.48601e-20)
(2.23619 -5.88138 7.23506e-20)
(2.18773 -6.36724 -3.59529e-20)
(2.13193 -6.80272 -6.87099e-20)
(2.0687 -7.24871 1.34576e-19)
(2.0193 -7.64355 -1.31164e-19)
(1.96696 -8.04933 3.24558e-20)
(1.91401 -8.41217 2.2169e-34)
(1.86125 -8.77927 -3.02137e-20)
(1.81115 -9.1138 1.77426e-19)
(1.762 -9.43042 -8.74583e-20)
(1.70838 -9.76908 -6.17157e-20)
(0.0290985 -2.69751 1.06349e-19)
(1.47345 -14.5617 5.24323e-20)
(3.38191 -28.9745 0)
(4.42859 -36.5541 4.93341e-20)
(4.61951 -38.2571 4.69407e-20)
(4.65876 -38.3086 4.27896e-20)
(4.62611 -38.0042 0)
(4.56741 -37.6341 3.95572e-20)
(4.50563 -37.3086 0)
(4.44675 -36.9932 0)
(4.38035 -36.6996 -3.23203e-20)
(4.31367 -36.3911 2.31321e-21)
(4.23079 -36.1049 6.14653e-20)
(4.16653 -35.8229 0)
(4.05982 -35.5644 2.70909e-20)
(4.0079 -35.2531 2.57034e-20)
(3.86095 -34.9153 2.44215e-20)
(3.82626 -34.4851 0)
(3.64697 -34.1115 -4.37525e-20)
(3.63355 -33.7152 4.22495e-20)
(0.0869369 -3.86093 1.64552e-19)
(2.21498 -17.3038 -2.66696e-19)
(4.36017 -31.1686 0)
(5.38641 -37.4467 -2.45793e-19)
(5.5191 -38.4451 2.30193e-19)
(5.5222 -38.3135 -3.84448e-19)
(5.46608 -37.8851 1.69316e-19)
(5.40228 -37.4773 1.16251e-19)
(5.34181 -37.1198 -5.22592e-19)
(5.2604 -36.8103 2.89389e-19)
(5.18632 -36.4906 -3.35231e-20)
(5.09059 -36.2003 2.49009e-19)
(5.0102 -35.9192 -9.23668e-21)
(4.91204 -35.6259 -2.32079e-19)
(4.81562 -35.3293 -2.70899e-20)
(4.73123 -35.0204 -2.57031e-20)
(4.59498 -34.68 -2.44215e-20)
(4.5322 -34.2383 0)
(4.35061 -33.8605 -1.7229e-19)
(4.32191 -33.4739 5.80566e-21)
(0.307226 -4.99845 -1.13808e-19)
(3.13351 -19.6114 0)
(5.47328 -32.8722 0)
(6.40703 -37.9656 -1.03153e-19)
(6.48112 -38.4555 9.33695e-20)
(6.42342 -38.1805 0)
(6.32092 -37.7237 -8.50467e-20)
(6.2334 -37.3467 2.32869e-19)
(6.13258 -36.9799 -2.32321e-19)
(6.03706 -36.6148 2.77695e-19)
(5.93377 -36.287 -3.39732e-19)
(5.83377 -35.9598 0)
(5.71864 -35.6479 -2.33717e-19)
(5.61617 -35.3552 -2.11912e-19)
(5.48465 -35.0722 3.82205e-19)
(5.39512 -34.7424 -3.95771e-19)
(5.22541 -34.3741 3.42457e-19)
(5.15902 -33.9304 0)
(4.9442 -33.5542 -3.80092e-19)
(4.9256 -33.1797 6.46385e-19)
(0.686798 -6.13676 5.71835e-19)
(4.13392 -21.4281 0)
(6.70688 -34.0902 2.19462e-19)
(7.50981 -38.1873 3.00554e-19)
(7.53721 -38.3391 -5.82389e-19)
(7.42222 -37.9416 1.78331e-19)
(7.29486 -37.4624 8.50326e-20)
(7.17106 -37.0385 8.6416e-19)
(7.05236 -36.659 -1.2014e-18)
(6.91848 -36.339 -1.15192e-19)
(6.79864 -35.9968 6.09589e-19)
(6.65628 -35.6774 1.24118e-19)
(6.53855 -35.3704 -5.78402e-19)
(6.39937 -35.0523 5.64398e-19)
(6.27018 -34.75 1.56751e-19)
(6.14116 -34.4328 -9.79853e-20)
(5.97122 -34.0856 1.39912e-19)
(5.86728 -33.6388 0)
(5.64434 -33.2724 -4.03775e-20)
(5.60876 -32.8939 0)
(1.27326 -7.42326 0)
(5.31178 -22.8406 5.83408e-19)
(8.00394 -34.9577 -1.12287e-18)
(8.64778 -38.1906 1.00556e-18)
(8.58089 -38.1221 -7.79601e-19)
(8.40277 -37.6357 -1.80037e-19)
(8.23367 -37.1965 0)
(8.07513 -36.7806 4.61484e-19)
(7.91272 -36.3852 -6.10285e-19)
(7.76084 -35.9951 6.86347e-19)
(7.60165 -35.6542 -5.37013e-19)
(7.45349 -35.3219 -1.24114e-19)
(7.29063 -35.0053 5.70392e-19)
(7.14287 -34.7049 -9.83573e-19)
(6.97518 -34.3982 6.175e-19)
(6.83868 -34.0557 -2.02702e-19)
(6.63553 -33.6823 -4.50693e-19)
(6.51963 -33.2473 1.02964e-18)
(6.26124 -32.883 -5.84196e-19)
(6.22496 -32.519 -6.81e-19)
(1.91046 -8.2472 0)
(6.16724 -23.9827 8.12611e-19)
(9.30655 -35.3893 -9.05688e-19)
(9.81333 -37.9211 -2.04358e-19)
(9.67466 -37.6816 1.9188e-19)
(9.44683 -37.1831 7.02719e-19)
(9.24294 -36.7168 -6.90338e-19)
(9.03705 -36.3034 0)
(8.84311 -35.9229 5.72736e-19)
(8.64386 -35.5989 -5.63161e-19)
(8.46585 -35.2454 -5.02647e-19)
(8.26547 -34.9126 4.94505e-19)
(8.09743 -34.5903 0)
(7.90518 -34.2747 0)
(7.73565 -33.9853 8.84449e-19)
(7.55894 -33.6739 -8.6652e-19)
(7.35511 -33.3234 -6.94409e-19)
(7.20602 -32.873 6.84117e-19)
(6.9457 -32.5221 -6.18995e-19)
(6.89608 -32.1511 7.61161e-19)
(2.12499 -9.25947 -6.88533e-19)
(7.58365 -24.9009 1.93729e-19)
(10.5552 -35.6451 4.5492e-20)
(10.9517 -37.576 1.04369e-18)
(10.7302 -37.2257 0)
(10.4579 -36.7135 0)
(10.2037 -36.2837 1.28755e-18)
(9.97317 -35.8525 -6.48285e-20)
(9.73817 -35.4569 -1.18012e-18)
(9.51918 -35.0765 1.04701e-18)
(9.29755 -34.7468 -1.02981e-18)
(9.09365 -34.4235 0)
(8.87673 -34.1144 8.59122e-19)
(8.67684 -33.8085 -8.45623e-19)
(8.46334 -33.5004 0)
(8.27067 -33.1805 0)
(8.03014 -32.8412 0)
(7.8575 -32.4246 0)
(7.55206 -32.0663 0)
(7.49823 -31.6981 -7.35323e-20)
(2.82642 -9.77289 6.76353e-19)
(8.4943 -25.6577 -1.01579e-18)
(11.855 -35.4887 0)
(12.0627 -36.9866 0)
(11.7839 -36.5595 1.63014e-18)
(11.4816 -36.0838 9.13711e-20)
(11.1796 -35.6286 -1.48511e-18)
(10.8943 -35.2423 0)
(10.6284 -34.8696 1.369e-19)
(10.3602 -34.5473 -1.27472e-19)
(10.1194 -34.1996 0)
(9.857 -33.8757 1.10852e-19)
(9.63252 -33.5614 -9.30417e-19)
(9.38799 -33.2632 1.68482e-18)
(9.17477 -32.9849 -3.68464e-20)
(8.94889 -32.6809 -7.1419e-19)
(8.71544 -32.339 -7.94887e-20)
(8.51197 -31.9302 7.45039e-20)
(8.2074 -31.6082 0)
(8.13656 -31.2374 6.653e-20)
(3.35321 -10.2838 4.40161e-19)
(9.75839 -26.0578 3.82532e-19)
(13.0741 -35.2604 -1.32419e-18)
(13.2069 -36.3323 3.85031e-19)
(12.8281 -35.8718 1.71431e-19)
(12.4809 -35.3819 1.46566e-18)
(12.1346 -34.9726 -2.03218e-18)
(11.8205 -34.5542 1.4736e-18)
(11.5083 -34.1881 -1.18239e-18)
(11.2181 -33.8429 1.39934e-18)
(10.9318 -33.5381 2.26763e-19)
(10.6664 -33.2362 9.44781e-19)
(10.391 -32.9483 -5.30838e-19)
(10.1358 -32.6586 -1.01625e-18)
(9.86976 -32.3827 8.95889e-19)
(9.62778 -32.1112 0)
(9.34971 -31.8069 2.29115e-19)
(9.12108 -31.404 6.54138e-20)
(8.77354 -31.0547 -1.31478e-19)
(8.69003 -30.6837 5.79136e-20)
(3.97671 -10.681 -8.52877e-19)
(10.9228 -26.2868 8.79939e-19)
(14.2309 -34.6595 -1.60521e-20)
(14.2473 -35.4901 -7.56192e-19)
(13.8066 -35.0177 -6.96686e-19)
(13.4217 -34.5843 -3.29586e-19)
(13.0268 -34.1692 -1.43199e-20)
(12.6635 -33.8211 -2.8278e-19)
(12.3271 -33.4662 0)
(11.9908 -33.1645 -2.43809e-19)
(11.6884 -32.8483 -2.26751e-19)
(11.3671 -32.5513 -1.23283e-20)
(11.0867 -32.2558 7.3245e-19)
(10.7908 -31.9794 -3.77397e-19)
(10.5297 -31.7161 -8.18262e-19)
(10.2547 -31.4428 6.37132e-19)
(9.98848 -31.1642 4.14458e-19)
(9.73168 -30.8244 -6.95657e-19)
(9.3878 -30.518 1.31428e-19)
(9.2883 -30.1465 8.1769e-19)
(4.56012 -10.9485 -2.06989e-18)
(12.0768 -26.2267 2.09916e-18)
(15.3404 -33.9945 -2.30244e-18)
(15.2749 -34.5365 1.87012e-18)
(14.7718 -34.0852 1.63205e-18)
(14.3414 -33.6487 -1.26759e-18)
(13.9108 -33.2784 -1.66242e-18)
(13.5124 -32.9091 6.45284e-20)
(13.1295 -32.5971 9.97034e-19)
(12.7686 -32.2958 -6.52748e-19)
(12.4203 -32.0275 1.65917e-18)
(12.096 -31.7702 -9.90629e-19)
(11.7645 -31.5252 -1.84747e-19)
(11.4565 -31.2661 4.72216e-19)
(11.143 -31.0314 -1.23314e-18)
(10.8587 -30.7963 5.89859e-19)
(10.5469 -30.5195 0)
(10.2666 -30.1705 -9.68918e-19)
(9.88351 -29.8577 9.54737e-19)
(9.77135 -29.4927 -7.57569e-19)
(5.17396 -11.1432 3.99646e-19)
(13.187 -26.0856 4.45395e-19)
(16.3361 -33.0929 1.91468e-18)
(16.1917 -33.5098 1.65441e-18)
(15.629 -33.0844 -9.96209e-19)
(15.1649 -32.6992 1.39463e-18)
(14.6919 -32.3424 -8.23062e-19)
(14.2538 -32.0366 9.47163e-19)
(13.8514 -31.7184 -1.80481e-18)
(13.4542 -31.4656 6.4333e-19)
(13.094 -31.1951 0)
(12.7181 -30.93 0)
(12.3848 -30.6758 0)
(12.04 -30.4416 -1.18194e-18)
(11.7286 -30.2157 1.16371e-18)
(11.411 -30.0082 0)
(11.1166 -29.8036 0)
(10.814 -29.5252 -1.06116e-19)
(10.4365 -29.2443 0)
(10.3085 -28.886 -8.80497e-19)
(5.7622 -11.1997 -7.60065e-19)
(14.1971 -25.6666 -1.88407e-18)
(17.2779 -32.0905 -1.34302e-18)
(17.0526 -32.3102 -2.39002e-19)
(16.4502 -31.9293 1.75691e-18)
(15.9394 -31.5656 -3.52049e-19)
(15.4382 -31.2495 -6.74832e-20)
(14.9675 -30.9585 -1.14716e-18)
(14.5235 -30.7083 0)
(14.0993 -30.4562 -5.55656e-19)
(13.6985 -30.2501 8.90351e-19)
(13.3241 -30.053 0)
(12.9428 -29.8465 1.15101e-18)
(12.5884 -29.6208 -1.13297e-18)
(12.2311 -29.4211 9.79781e-19)
(11.9066 -29.2202 -1.76031e-18)
(11.5657 -29.0089 8.91119e-19)
(11.2476 -28.7543 1.06113e-19)
(10.8411 -28.4891 -8.56441e-20)
(10.6999 -28.1388 6.79179e-19)
(6.33781 -11.2033 -1.00948e-18)
(15.1768 -25.192 6.43674e-20)
(18.0916 -30.9745 9.26498e-20)
(17.8208 -31.1458 2.35804e-18)
(17.1608 -30.7943 2.00512e-19)
(16.6191 -30.4748 -1.24876e-18)
(16.0894 -30.1868 -8.63434e-19)
(15.5812 -29.9304 2.73634e-19)
(15.1215 -29.6729 9.5267e-19)
(14.6721 -29.483 -1.00362e-18)
(14.2578 -29.2591 4.85012e-19)
(13.8361 -29.0536 -1.24584e-18)
(13.4594 -28.8767 9.71086e-19)
(13.0733 -28.701 -9.34856e-19)
(12.715 -28.5242 8.17888e-19)
(12.362 -28.3692 6.7823e-19)
(12.0412 -28.2199 -7.75706e-19)
(11.7058 -28.0288 5.86744e-19)
(11.3107 -27.8032 -5.67472e-19)
(11.1532 -27.4611 -6.42951e-19)
(6.88167 -11.0929 -1.25814e-18)
(16.0346 -24.4992 -2.35989e-19)
(18.8112 -29.6842 1.2175e-18)
(18.4689 -29.758 -1.02781e-18)
(17.8065 -29.4727 1.00936e-18)
(17.2168 -29.2017 2.32442e-19)
(16.6567 -28.9474 0)
(16.1305 -28.7451 -1.70088e-19)
(15.6348 -28.5548 4.61094e-19)
(15.159 -28.3671 -1.62592e-18)
(14.7187 -28.237 1.14108e-18)
(14.2991 -28.0824 2.49208e-19)
(13.8733 -27.9147 1.22745e-19)
(13.4816 -27.7428 0)
(13.0861 -27.5965 1.721e-20)
(12.7249 -27.449 6.59119e-19)
(12.3584 -27.3075 -4.98069e-20)
(12.0161 -27.1539 9.70091e-20)
(11.6042 -26.9675 -5.35437e-19)
(11.4352 -26.6358 1.17995e-19)
(7.38954 -10.9447 1.13768e-18)
(16.8603 -23.753 -1.95494e-18)
(19.455 -28.4342 1.09442e-18)
(19.0322 -28.4762 9.14036e-19)
(18.3355 -28.207 -7.26116e-20)
(17.7226 -27.9714 -6.29897e-19)
(17.1516 -27.7648 1.62175e-19)
(16.5851 -27.5693 1.70085e-19)
(16.0792 -27.3888 0)
(15.5857 -27.2595 0)
(15.1258 -27.1027 -8.9278e-19)
(14.6777 -26.9929 1.47358e-18)
(14.2675 -26.8941 -7.91788e-19)
(13.8469 -26.7692 0)
(13.4473 -26.6335 1.81186e-20)
(13.065 -26.5246 -5.85334e-19)
(12.7173 -26.4314 5.70649e-19)
(12.3603 -26.3374 -6.30536e-20)
(11.9697 -26.2033 -4.12668e-19)
(11.7834 -25.8836 2.8863e-19)
(7.85341 -10.6923 -1.01249e-18)
(17.5274 -22.8001 1.26837e-18)
(19.9345 -26.9476 0)
(19.4622 -26.9831 0)
(18.7762 -26.7998 1.71284e-19)
(18.1314 -26.6238 -8.17298e-19)
(17.5261 -26.4373 2.97709e-20)
(16.9587 -26.3226 5.59686e-19)
(16.4234 -26.1895 -9.08172e-19)
(15.909 -26.0721 1.70218e-18)
(15.4351 -25.9996 -7.9587e-19)
(14.9735 -25.8849 1.67693e-19)
(14.5187 -25.789 6.28822e-19)
(14.1061 -25.7036 -1.99463e-21)
(13.6807 -25.6229 -3.7481e-19)
(13.2838 -25.5182 5.97808e-20)
(12.8893 -25.4233 -3.86845e-19)
(12.5272 -25.3653 3.2897e-19)
(12.1346 -25.2871 1.61619e-20)
(11.9465 -24.9921 2.40077e-19)
(8.28694 -10.4059 0)
(18.1478 -21.8456 5.98758e-19)
(20.386 -25.6088 -6.52587e-19)
(19.8243 -25.5915 0)
(19.1076 -25.4191 -1.71276e-19)
(18.4428 -25.2829 5.25718e-19)
(17.8438 -25.1557 -6.52165e-19)
(17.2366 -25.0363 0)
(16.6975 -24.9406 7.15041e-19)
(16.172 -24.8712 -7.03121e-19)
(15.6813 -24.7993 6.04714e-20)
(15.2215 -24.7744 -7.3221e-20)
(14.7772 -24.7252 -6.40963e-20)
(14.3305 -24.6509 -5.58157e-20)
(13.9057 -24.5789 -3.35334e-19)
(13.5056 -24.5389 5.20282e-19)
(13.1239 -24.4862 -4.27878e-19)
(12.7389 -24.4599 3.46331e-19)
(12.3726 -24.4532 -1.27135e-19)
(12.1728 -24.1864 2.00878e-20)
(8.66818 -10.0344 0)
(18.5949 -20.7066 -6.99044e-19)
(20.6148 -24.016 3.70477e-19)
(20.036 -24.0588 4.17634e-19)
(19.3414 -23.9701 -6.15604e-20)
(18.6544 -23.8903 -5.49789e-20)
(18.0243 -23.7865 -4.0373e-19)
(17.4256 -23.7456 0)
(16.8614 -23.675 0)
(16.3213 -23.6221 0)
(15.8156 -23.5965 -6.04683e-20)
(15.3289 -23.5468 0)
(14.866 -23.5422 -2.52543e-19)
(14.4417 -23.5424 2.27511e-19)
(13.9875 -23.5039 -1.27826e-19)
(13.562 -23.4369 2.09392e-19)
(13.142 -23.4091 -8.2258e-20)
(12.738 -23.3938 -4.49458e-21)
(12.3639 -23.4188 -1.65634e-20)
(12.1773 -23.1924 2.8169e-20)
(9.0472 -9.66849 0)
(18.9887 -19.589 0)
(20.8429 -22.564 1.46737e-19)
(20.1686 -22.5678 1.28168e-19)
(19.4652 -22.5083 0)
(18.7644 -22.4862 2.94912e-19)
(18.1467 -22.4338 -2.89746e-19)
(17.5261 -22.4117 0)
(16.9684 -22.4006 3.142e-19)
(16.4264 -22.3928 -3.0896e-19)
(15.9154 -22.3872 0)
(15.443 -22.4114 -1.13839e-19)
(14.9642 -22.3895 7.42056e-20)
(14.5094 -22.385 5.83012e-20)
(14.0828 -22.4054 0)
(13.655 -22.388 0)
(13.2252 -22.3754 0)
(12.8034 -22.3718 1.45531e-19)
(12.4013 -22.3294 -1.49877e-19)
(12.1376 -22.205 0)
(2.86152 -32.6743 0)
(2.60896 -30.8745 0)
(1.70406 -29.9377 -2.23638e-21)
(1.50214 -29.0825 -1.76064e-21)
(1.06204 -28.4528 0)
(0.820074 -27.7157 1.29857e-22)
(0.61624 -27.151 8.26878e-22)
(0.441499 -26.6224 0)
(0.335647 -26.2114 2.33867e-22)
(0.236365 -25.8403 0)
(0.165398 -25.5547 5.96268e-23)
(0.139225 -25.2959 1.10417e-22)
(0.098869 -25.1558 -1.10923e-22)
(0.137332 -24.9571 -3.74651e-22)
(0.0856724 -24.8551 0)
(0.199622 -24.5913 1.31004e-22)
(0.113007 -23.8585 -6.83917e-22)
(0.249304 -21.0127 0)
(0.0444708 -14.9217 0)
(0.136688 -6.05279 -6.25614e-22)
(3.50223 -32.4969 1.81166e-20)
(3.17754 -30.6473 0)
(2.18169 -29.7653 1.00779e-20)
(1.89647 -29.0205 -6.11865e-21)
(1.38848 -28.4106 0)
(1.08715 -27.6876 -4.32059e-21)
(0.842688 -27.1174 1.56513e-21)
(0.627788 -26.592 0)
(0.493368 -26.188 3.07236e-23)
(0.365755 -25.8228 -2.66065e-22)
(0.272613 -25.5461 -3.33455e-22)
(0.230001 -25.2951 7.56541e-22)
(0.17381 -25.1559 -8.13336e-22)
(0.193362 -24.9567 2.99797e-22)
(0.132402 -24.866 4.08883e-22)
(0.236033 -24.5947 -5.33054e-22)
(0.142501 -23.8666 1.08785e-21)
(0.262512 -21.0031 1.36798e-21)
(0.0519237 -14.9095 6.26422e-22)
(0.141637 -6.02468 7.81722e-22)
(3.93737 -32.1869 -9.19116e-21)
(3.46102 -30.4822 -1.50924e-20)
(2.4022 -29.5935 -8.30227e-21)
(2.07882 -28.8541 0)
(1.54058 -28.2451 0)
(1.21271 -27.5684 4.75223e-21)
(0.947489 -27.0342 -1.04171e-21)
(0.714797 -26.5326 -8.1434e-22)
(0.567597 -26.1427 -7.0108e-22)
(0.42773 -25.787 -4.14404e-22)
(0.325231 -25.5175 0)
(0.275984 -25.2765 0)
(0.211075 -25.145 0)
(0.228331 -24.9533 1.62816e-21)
(0.165071 -24.8661 0)
(0.265857 -24.6016 2.12358e-21)
(0.166678 -23.8747 -2.26492e-21)
(0.275985 -21.0053 -7.84222e-22)
(0.0644168 -14.9066 -1.16186e-21)
(0.144611 -6.00623 -2.54065e-21)
(4.56625 -31.9613 2.56215e-20)
(4.00444 -30.2518 -4.82601e-20)
(2.87041 -29.4167 1.76444e-21)
(2.4571 -28.779 1.45992e-20)
(1.85965 -28.1922 0)
(1.46949 -27.5307 5.50677e-21)
(1.1685 -26.9936 -1.11358e-20)
(0.895818 -26.497 4.48283e-21)
(0.720368 -26.1146 -1.52052e-21)
(0.553686 -25.7651 -2.62999e-22)
(0.429865 -25.505 -2.73687e-22)
(0.363559 -25.2707 1.12681e-21)
(0.281573 -25.1398 -1.13185e-21)
(0.280081 -24.9502 -7.56014e-22)
(0.207053 -24.8737 -8.76282e-22)
(0.297919 -24.605 -2.12232e-21)
(0.192879 -23.8841 2.85519e-21)
(0.289736 -21.0068 -8.94252e-22)
(0.0771309 -14.9061 5.61782e-22)
(0.143032 -5.98165 2.53649e-21)
(5.00879 -31.5953 6.76712e-20)
(4.28147 -30.0374 1.1094e-20)
(3.08476 -29.2094 -1.43024e-20)
(2.62724 -28.5852 1.9988e-20)
(2.00691 -28.0122 0)
(1.58829 -27.3997 -3.01654e-21)
(1.26944 -26.9018 2.10683e-21)
(0.97953 -26.4285 0)
(0.791005 -26.0615 1.37273e-22)
(0.613751 -25.7222 0)
(0.480892 -25.4707 1.18395e-21)
(0.407028 -25.2472 0)
(0.31592 -25.1238 0)
(0.312614 -24.9428 3.5699e-21)
(0.237767 -24.8718 -1.81194e-21)
(0.323906 -24.6128 2.2191e-21)
(0.217629 -23.8942 0)
(0.302711 -21.0175 -5.43571e-22)
(0.0881869 -14.9099 5.75582e-22)
(0.142204 -5.96385 0)
(5.62208 -31.3134 2.62254e-20)
(4.80829 -29.7867 -2.05335e-20)
(3.54023 -29.0234 3.35003e-20)
(2.98933 -28.4946 -3.27391e-20)
(2.31597 -27.9475 7.81224e-21)
(1.83533 -27.3509 3.02597e-21)
(1.48484 -26.8539 -3.49152e-21)
(1.15459 -26.3872 -1.83411e-21)
(0.938676 -26.0285 4.14735e-22)
(0.736079 -25.6961 -9.86319e-22)
(0.582182 -25.4538 3.44126e-22)
(0.490489 -25.2357 0)
(0.382535 -25.1132 0)
(0.361111 -24.9366 4.26376e-23)
(0.276386 -24.8757 1.87732e-21)
(0.352263 -24.6089 -1.73458e-21)
(0.243249 -23.9062 0)
(0.314768 -21.0294 4.44992e-21)
(0.0964987 -14.916 4.60633e-21)
(0.137695 -5.94348 3.17052e-22)
(6.05843 -30.8871 -7.22156e-20)
(5.06843 -29.5239 6.66156e-20)
(3.74494 -28.7804 -1.46233e-20)
(3.1484 -28.2746 0)
(2.45811 -27.7545 -7.84551e-21)
(1.94905 -27.2104 8.70581e-21)
(1.5819 -26.7543 -5.23392e-21)
(1.23571 -26.3098 1.8393e-21)
(1.00663 -25.9684 0)
(0.79469 -25.6466 0)
(0.631558 -25.4135 -2.08816e-21)
(0.53161 -25.2073 2.09568e-21)
(0.414463 -25.0924 0)
(0.389996 -24.9259 -5.61029e-21)
(0.305163 -24.87 1.94173e-21)
(0.367534 -24.6213 1.80563e-21)
(0.263244 -23.9138 -1.98503e-21)
(0.32191 -21.049 -5.73339e-21)
(0.102171 -14.9289 -3.16284e-21)
(0.127379 -5.92834 -6.25472e-22)
(6.65144 -30.5455 0)
(5.57296 -29.2456 -3.2725e-20)
(4.18513 -28.5816 3.28297e-20)
(3.4934 -28.1681 0)
(2.75652 -27.677 0)
(2.18794 -27.1491 -7.86902e-21)
(1.79067 -26.6988 7.89281e-21)
(1.4045 -26.2627 0)
(1.14953 -25.9302 -4.96114e-22)
(0.912787 -25.6164 1.97879e-21)
(0.729485 -25.3917 -1.48567e-21)
(0.61149 -25.1894 -2.99888e-21)
(0.478099 -25.0759 3.00515e-21)
(0.43501 -24.9159 0)
(0.342241 -24.8692 0)
(0.392113 -24.619 1.934e-21)
(0.280399 -23.9324 -3.24699e-21)
(0.329439 -21.0709 -3.49349e-23)
(0.0979967 -14.9415 1.94722e-21)
(0.117768 -5.91688 -6.22743e-22)
(7.06241 -30.0576 4.14736e-20)
(5.81539 -28.9369 -4.1529e-20)
(4.3782 -28.3036 -3.48287e-20)
(3.64227 -27.9229 3.90984e-20)
(2.89272 -27.4733 -2.75333e-20)
(2.29821 -27.0005 4.03452e-21)
(1.88388 -26.5917 7.04785e-21)
(1.48369 -26.1774 0)
(1.21546 -25.8636 0)
(0.969868 -25.5607 -1.51613e-21)
(0.777094 -25.3458 0)
(0.651174 -25.1563 0)
(0.508697 -25.0505 0)
(0.459502 -24.9005 0)
(0.368252 -24.8578 0)
(0.406781 -24.6291 0)
(0.298896 -23.9433 2.34577e-21)
(0.335736 -21.0954 -2.55522e-21)
(0.10046 -14.9605 6.53529e-22)
(0.106967 -5.90937 -6.26525e-22)
(7.61809 -29.6522 -4.75504e-20)
(6.28905 -28.6282 -5.57342e-20)
(4.79653 -28.0894 -8.75379e-21)
(3.96836 -27.7996 -2.95808e-21)
(3.17987 -27.3821 1.09908e-20)
(2.5296 -26.9261 1.37575e-20)
(2.08481 -26.5281 1.94016e-21)
(1.64641 -26.1244 0)
(1.35353 -25.8202 1.49896e-21)
(1.08341 -25.5263 -2.46507e-21)
(0.871545 -25.319 -2.49229e-21)
(0.727858 -25.1321 -3.32403e-21)
(0.570276 -25.027 0)
(0.501978 -24.8852 -3.78138e-21)
(0.402894 -24.8524 -3.9597e-21)
(0.42381 -24.6291 0)