# Residuals   
# Time        	Ux            	Uy            	p             
7.6           	N/A	N/A
7.60033       	1.773290e-03	1.346396e-03	2.427014e-02
7.60067       	1.773371e-03	1.346259e-03	2.405355e-02
7.601         	1.773443e-03	1.346138e-03	2.383155e-02
7.60133       	1.773498e-03	1.345891e-03	2.372760e-02
7.60167       	1.773557e-03	1.345584e-03	2.359673e-02
7.602         	1.773739e-03	1.345291e-03	2.377426e-02
7.60233       	1.773971e-03	1.345083e-03	2.388299e-02
7.60267       	1.774210e-03	1.344956e-03	2.378392e-02
7.603         	1.774369e-03	1.344853e-03	2.372637e-02
7.60333       	1.774423e-03	1.344735e-03	2.395830e-02
7.60367       	1.774501e-03	1.344668e-03	2.398758e-02
7.604         	1.774589e-03	1.344481e-03	2.398625e-02
7.60433       	1.774669e-03	1.344318e-03	2.396966e-02
7.60467       	1.774642e-03	1.343997e-03	2.399677e-02
7.605         	1.774635e-03	1.343802e-03	2.401726e-02
7.60533       	1.774606e-03	1.343572e-03	2.385996e-02
7.60567       	1.774567e-03	1.343423e-03	2.395076e-02
7.606         	1.774582e-03	1.343264e-03	2.395970e-02
7.60633       	1.774571e-03	1.343159e-03	2.379601e-02
7.60667       	1.774566e-03	1.342947e-03	2.387766e-02
7.607         	1.774596e-03	1.342783e-03	2.391676e-02
7.60733       	1.774715e-03	1.342622e-03	2.390384e-02
7.60767       	1.774865e-03	1.342534e-03	2.392801e-02
7.60796       	1.553219e-03	1.174660e-03	4.214811e-02
7.60825       	1.553081e-03	1.174736e-03	3.390774e-02
7.60854       	1.553085e-03	1.174883e-03	2.851131e-02
7.60883       	1.553208e-03	1.174938e-03	2.540412e-02
7.60912       	1.553412e-03	1.174923e-03	2.340355e-02
7.60942       	1.553601e-03	1.174815e-03	2.281170e-02
7.60971       	1.553795e-03	1.174674e-03	2.235923e-02
7.61          	1.553969e-03	1.174504e-03	2.224593e-02
7.61032       	1.718741e-03	1.298707e-03	3.332832e-02
7.61065       	1.719021e-03	1.298187e-03	2.953935e-02
7.61097       	1.719221e-03	1.297848e-03	2.675743e-02
7.61129       	1.719249e-03	1.297448e-03	2.526568e-02
7.61161       	1.719234e-03	1.297249e-03	2.446024e-02
7.61194       	1.719193e-03	1.297090e-03	2.385337e-02
7.61226       	1.719145e-03	1.297006e-03	2.352190e-02
7.61258       	1.719101e-03	1.296983e-03	2.339621e-02
7.6129        	1.719034e-03	1.296963e-03	2.342132e-02
7.61323       	1.719014e-03	1.296974e-03	2.304792e-02
7.61355       	1.719039e-03	1.296887e-03	2.286979e-02
7.61387       	1.719123e-03	1.296869e-03	2.299411e-02
7.61419       	1.719294e-03	1.296855e-03	2.299620e-02
7.61452       	1.719402e-03	1.296683e-03	2.320064e-02
7.61484       	1.719481e-03	1.296521e-03	2.310073e-02
7.61516       	1.719608e-03	1.296486e-03	2.324396e-02
7.61548       	1.719733e-03	1.296518e-03	2.319021e-02
7.61581       	1.719938e-03	1.296558e-03	2.339576e-02
7.61613       	1.720063e-03	1.296507e-03	2.315760e-02
7.61645       	1.720133e-03	1.296382e-03	2.337045e-02
7.61677       	1.720214e-03	1.296297e-03	2.301362e-02
7.6171        	1.720243e-03	1.296137e-03	2.324108e-02
7.61739       	1.548386e-03	1.166518e-03	3.667375e-02
7.61768       	1.548219e-03	1.166551e-03	2.997080e-02
7.61797       	1.548125e-03	1.166598e-03	2.616441e-02
7.61826       	1.548149e-03	1.166637e-03	2.386501e-02
7.61855       	1.548227e-03	1.166612e-03	2.264426e-02
7.61884       	1.548343e-03	1.166545e-03	2.185434e-02
7.61913       	1.548491e-03	1.166466e-03	2.189549e-02
7.61942       	1.548641e-03	1.166348e-03	2.213846e-02
7.61971       	1.548762e-03	1.166216e-03	2.220738e-02
7.62          	1.548896e-03	1.166167e-03	2.196211e-02
7.62031       	1.667283e-03	1.255087e-03	2.964761e-02
7.62062       	1.667537e-03	1.254779e-03	2.685950e-02
7.62094       	1.667718e-03	1.254549e-03	2.545300e-02
7.62125       	1.667793e-03	1.254298e-03	2.444306e-02
7.62156       	1.667789e-03	1.254033e-03	2.418909e-02
7.62187       	1.667756e-03	1.253777e-03	2.385677e-02
7.62219       	1.667760e-03	1.253623e-03	2.380870e-02
7.6225        	1.667771e-03	1.253485e-03	2.378806e-02
7.62281       	1.667851e-03	1.253316e-03	2.399019e-02
7.62312       	1.667941e-03	1.253134e-03	2.351524e-02
7.62344       	1.668033e-03	1.253183e-03	2.338052e-02
7.62375       	1.668088e-03	1.253146e-03	2.325629e-02
7.62406       	1.668158e-03	1.253135e-03	2.316752e-02
7.62437       	1.668186e-03	1.252999e-03	2.318940e-02
7.62469       	1.668224e-03	1.252898e-03	2.303803e-02
7.625         	1.668296e-03	1.252788e-03	2.296659e-02
7.62531       	1.668430e-03	1.252663e-03	2.315651e-02
7.62562       	1.668535e-03	1.252510e-03	2.293002e-02
7.62594       	1.668647e-03	1.252369e-03	2.282317e-02
7.62625       	1.668766e-03	1.252236e-03	2.268963e-02
7.62656       	1.668892e-03	1.252105e-03	2.274237e-02
7.62687       	1.669019e-03	1.252086e-03	2.283526e-02
7.62719       	1.669099e-03	1.252072e-03	2.287015e-02
7.6275        	1.669147e-03	1.252005e-03	2.282352e-02
7.62781       	1.669190e-03	1.251926e-03	2.297090e-02
7.62812       	1.669209e-03	1.251786e-03	2.265239e-02
7.62844       	1.669217e-03	1.251545e-03	2.289167e-02
7.62875       	1.669184e-03	1.251291e-03	2.278949e-02
7.62906       	1.669167e-03	1.251023e-03	2.284500e-02
7.62937       	1.669184e-03	1.250753e-03	2.266941e-02
7.62969       	1.669304e-03	1.250582e-03	2.269340e-02
7.63          	1.669443e-03	1.250481e-03	2.275612e-02
7.63031       	1.669541e-03	1.250273e-03	2.279763e-02
7.63062       	1.669646e-03	1.250114e-03	2.272763e-02
7.63094       	1.669691e-03	1.249866e-03	2.248020e-02
7.63125       	1.669764e-03	1.249719e-03	2.253580e-02
7.63156       	1.669884e-03	1.249743e-03	2.246748e-02
7.63187       	1.670033e-03	1.249725e-03	2.245074e-02
7.63219       	1.670165e-03	1.249646e-03	2.236725e-02
7.6325        	1.670322e-03	1.249571e-03	2.239924e-02
7.63281       	1.670430e-03	1.249449e-03	2.262529e-02
7.63312       	1.670547e-03	1.249367e-03	2.301136e-02
7.63344       	1.670688e-03	1.249288e-03	2.269640e-02
7.63375       	1.670866e-03	1.249309e-03	2.264699e-02
7.63406       	1.671056e-03	1.249311e-03	2.271264e-02
7.63437       	1.671246e-03	1.249232e-03	2.250411e-02
7.63469       	1.671378e-03	1.249171e-03	2.241390e-02
7.635         	1.671459e-03	1.249074e-03	2.218337e-02
7.63531       	1.671491e-03	1.248859e-03	2.223282e-02
7.63562       	1.671554e-03	1.248641e-03	2.235455e-02
7.63594       	1.671644e-03	1.248444e-03	2.218505e-02
7.63625       	1.671768e-03	1.248323e-03	2.217329e-02
7.63656       	1.671931e-03	1.248292e-03	2.212038e-02
7.63687       	1.672043e-03	1.248124e-03	2.206853e-02
7.63719       	1.672182e-03	1.247843e-03	2.198875e-02
7.6375        	1.672309e-03	1.247563e-03	2.165696e-02
7.63781       	1.672459e-03	1.247479e-03	2.168662e-02
7.63812       	1.672647e-03	1.247495e-03	2.146683e-02
7.63844       	1.672851e-03	1.247449e-03	2.159480e-02
7.63875       	1.673088e-03	1.247375e-03	2.156828e-02
7.63906       	1.673326e-03	1.247347e-03	2.170732e-02
7.63938       	1.673575e-03	1.247380e-03	2.179532e-02
7.63969       	1.673803e-03	1.247420e-03	2.203760e-02
7.64          	1.674033e-03	1.247418e-03	2.243258e-02
7.64031       	1.674313e-03	1.247429e-03	2.202833e-02
7.64062       	1.674574e-03	1.247469e-03	2.213919e-02
7.64094       	1.674747e-03	1.247474e-03	2.240382e-02
7.64125       	1.674848e-03	1.247442e-03	2.253420e-02
7.64156       	1.674919e-03	1.247502e-03	2.212046e-02
7.64187       	1.675028e-03	1.247459e-03	2.194204e-02
7.64219       	1.675151e-03	1.247331e-03	2.206402e-02
7.6425        	1.675296e-03	1.247229e-03	2.216663e-02
7.64281       	1.675449e-03	1.247204e-03	2.201450e-02
7.64312       	1.675563e-03	1.247184e-03	2.193875e-02
7.64344       	1.675639e-03	1.247010e-03	2.192546e-02
7.64375       	1.675757e-03	1.246843e-03	2.201607e-02
7.64406       	1.675936e-03	1.246630e-03	2.199174e-02
7.64437       	1.676080e-03	1.246446e-03	2.203710e-02
7.64469       	1.676247e-03	1.246389e-03	2.184355e-02
7.645         	1.676444e-03	1.246334e-03	2.201967e-02
7.64531       	1.676632e-03	1.246285e-03	2.203852e-02
7.64562       	1.676921e-03	1.246298e-03	2.229212e-02
7.64594       	1.677177e-03	1.246295e-03	2.250276e-02
7.64625       	1.677418e-03	1.246290e-03	2.240786e-02
7.64656       	1.677601e-03	1.246171e-03	2.228402e-02
7.64687       	1.677851e-03	1.246145e-03	2.238839e-02
7.64719       	1.678057e-03	1.246178e-03	2.235695e-02
7.6475        	1.678227e-03	1.246242e-03	2.249573e-02
7.64781       	1.678385e-03	1.246311e-03	2.240653e-02
7.64812       	1.678526e-03	1.246357e-03	2.235384e-02
7.64844       	1.678618e-03	1.246396e-03	2.269392e-02
7.64875       	1.678684e-03	1.246341e-03	2.240896e-02
7.64906       	1.678710e-03	1.246197e-03	2.247594e-02
7.64938       	1.678738e-03	1.246110e-03	2.231647e-02
7.64969       	1.678796e-03	1.246128e-03	2.207013e-02
7.65          	1.678858e-03	1.245996e-03	2.232598e-02
7.65032       	1.733052e-03	1.286020e-03	2.413972e-02
7.65065       	1.733251e-03	1.285830e-03	2.333684e-02
7.65097       	1.733365e-03	1.285624e-03	2.325925e-02
7.65129       	1.733493e-03	1.285455e-03	2.314082e-02
7.65161       	1.733623e-03	1.285381e-03	2.308854e-02
7.65194       	1.733799e-03	1.285437e-03	2.313537e-02
7.65226       	1.734023e-03	1.285511e-03	2.275095e-02
7.65258       	1.734255e-03	1.285604e-03	2.277128e-02
7.6529        	1.734491e-03	1.285677e-03	2.279196e-02
7.65323       	1.734700e-03	1.285694e-03	2.265222e-02
7.65355       	1.734946e-03	1.285693e-03	2.257089e-02
7.65387       	1.735159e-03	1.285691e-03	2.255524e-02
7.65419       	1.735329e-03	1.285672e-03	2.246515e-02
7.65452       	1.735563e-03	1.285746e-03	2.234321e-02
7.65484       	1.735744e-03	1.285839e-03	2.247043e-02
7.65516       	1.735948e-03	1.285986e-03	2.239812e-02
7.65548       	1.736125e-03	1.286095e-03	2.281332e-02
7.65581       	1.736308e-03	1.286229e-03	2.248289e-02
7.65613       	1.736486e-03	1.286244e-03	2.260774e-02
7.65645       	1.736634e-03	1.286326e-03	2.233259e-02
7.65677       	1.736674e-03	1.286261e-03	2.257763e-02
7.6571        	1.736816e-03	1.286195e-03	2.257308e-02
7.65742       	1.736901e-03	1.286018e-03	2.245866e-02
7.65774       	1.737050e-03	1.285883e-03	2.238941e-02
7.65806       	1.737252e-03	1.285837e-03	2.250858e-02
7.65839       	1.737483e-03	1.285786e-03	2.268864e-02
7.65871       	1.737712e-03	1.285878e-03	2.263904e-02
7.65903       	1.737894e-03	1.285946e-03	2.275498e-02
7.65935       	1.738070e-03	1.286020e-03	2.269109e-02
7.65968       	1.738242e-03	1.286069e-03	2.286974e-02
7.66          	1.738431e-03	1.286116e-03	2.268333e-02
7.66032       	1.738596e-03	1.286169e-03	2.277787e-02
7.66065       	1.738771e-03	1.286180e-03	2.298753e-02
7.66097       	1.738921e-03	1.286100e-03	2.280957e-02
7.66129       	1.739045e-03	1.286091e-03	2.303251e-02
7.66161       	1.739155e-03	1.286032e-03	2.318774e-02
7.66194       	1.739210e-03	1.285988e-03	2.305244e-02
7.66226       	1.739317e-03	1.286055e-03	2.323787e-02
7.66258       	1.739397e-03	1.286080e-03	2.326583e-02
7.6629        	1.739514e-03	1.286188e-03	2.308326e-02
7.66323       	1.739600e-03	1.286216e-03	2.343775e-02
7.66355       	1.739678e-03	1.286195e-03	2.396330e-02
7.66387       	1.739799e-03	1.286179e-03	2.417991e-02
7.66419       	1.739962e-03	1.286110e-03	2.402219e-02
7.66452       	1.740123e-03	1.286067e-03	2.394444e-02
7.66484       	1.740333e-03	1.286090e-03	2.375460e-02
7.66516       	1.740504e-03	1.286135e-03	2.364321e-02
7.66548       	1.740668e-03	1.286173e-03	2.335252e-02
7.66581       	1.740840e-03	1.286285e-03	2.363604e-02
7.66613       	1.741029e-03	1.286408e-03	2.362389e-02
7.66645       	1.741197e-03	1.286572e-03	2.340668e-02
7.66677       	1.741353e-03	1.286732e-03	2.342716e-02
7.6671        	1.741506e-03	1.286871e-03	2.351569e-02
7.66742       	1.741664e-03	1.286998e-03	2.359276e-02
7.66774       	1.741847e-03	1.287081e-03	2.343899e-02
7.66806       	1.742062e-03	1.287147e-03	2.358054e-02
7.66839       	1.742251e-03	1.287252e-03	2.389100e-02
7.66871       	1.742401e-03	1.287283e-03	2.415995e-02
7.66903       	1.742540e-03	1.287295e-03	2.416497e-02
7.66935       	1.742713e-03	1.287354e-03	2.451841e-02
7.66968       	1.742906e-03	1.287445e-03	2.442256e-02
7.67          	1.743101e-03	1.287505e-03	2.433634e-02
7.67034       	1.863399e-03	1.376294e-03	3.033467e-02
7.67069       	1.863591e-03	1.376149e-03	2.814056e-02
7.67103       	1.863788e-03	1.376047e-03	2.733151e-02
7.67138       	1.863968e-03	1.376132e-03	2.687481e-02
7.67172       	1.864067e-03	1.376243e-03	2.650284e-02
7.67207       	1.864184e-03	1.376420e-03	2.640347e-02
7.67241       	1.864260e-03	1.376548e-03	2.634801e-02
7.67276       	1.864392e-03	1.376639e-03	2.620946e-02
7.6731        	1.864576e-03	1.376765e-03	2.605895e-02
7.67345       	1.864701e-03	1.376845e-03	2.630859e-02
7.67379       	1.864814e-03	1.376914e-03	2.652773e-02
7.67414       	1.864933e-03	1.377062e-03	2.630545e-02
7.67448       	1.865030e-03	1.377155e-03	2.629016e-02
7.67483       	1.865126e-03	1.377218e-03	2.610601e-02
7.67517       	1.865259e-03	1.377359e-03	2.605848e-02
7.67552       	1.865374e-03	1.377405e-03	2.612651e-02
7.67586       	1.865563e-03	1.377429e-03	2.636641e-02
7.67621       	1.865779e-03	1.377433e-03	2.603661e-02
7.67655       	1.865988e-03	1.377334e-03	2.631423e-02
7.6769        	1.866128e-03	1.377281e-03	2.655750e-02
7.67724       	1.866277e-03	1.377291e-03	2.647291e-02
7.67759       	1.866430e-03	1.377286e-03	2.670864e-02
7.67793       	1.866674e-03	1.377398e-03	2.655034e-02
7.67828       	1.866894e-03	1.377616e-03	2.665307e-02
7.67862       	1.867073e-03	1.377811e-03	2.652712e-02
7.67897       	1.867212e-03	1.377884e-03	2.650969e-02
7.67931       	1.867309e-03	1.377945e-03	2.641561e-02
7.67966       	1.867439e-03	1.377950e-03	2.614269e-02
7.68          	1.867607e-03	1.377977e-03	2.595246e-02
7.68037       	2.006026e-03	1.479977e-03	3.155768e-02
7.68074       	2.006259e-03	1.479864e-03	2.926925e-02
7.68111       	2.006489e-03	1.479883e-03	2.833396e-02
7.68148       	2.006754e-03	1.479916e-03	2.780119e-02
7.68185       	2.007027e-03	1.480094e-03	2.747439e-02
7.68222       	2.007177e-03	1.480167e-03	2.745613e-02
7.68259       	2.007313e-03	1.480285e-03	2.763432e-02
7.68296       	2.007398e-03	1.480381e-03	2.771698e-02
7.68333       	2.007469e-03	1.480281e-03	2.804899e-02
7.6837        	2.007618e-03	1.480270e-03	2.869043e-02
7.68407       	2.007651e-03	1.480205e-03	2.893805e-02
7.68444       	2.007717e-03	1.480166e-03	2.866519e-02
7.68481       	2.007924e-03	1.480303e-03	2.854011e-02
7.68519       	2.008080e-03	1.480419e-03	2.848976e-02
7.68556       	2.008221e-03	1.480484e-03	2.858790e-02
7.68593       	2.008324e-03	1.480498e-03	2.839197e-02
7.6863        	2.008425e-03	1.480510e-03	2.841407e-02
7.68667       	2.008550e-03	1.480439e-03	2.849053e-02
7.68704       	2.008649e-03	1.480307e-03	2.838773e-02
7.68741       	2.008820e-03	1.480290e-03	2.823833e-02
7.68778       	2.009002e-03	1.480333e-03	2.778372e-02
7.68815       	2.009216e-03	1.480343e-03	2.785377e-02
7.68852       	2.009441e-03	1.480426e-03	2.764535e-02
7.68889       	2.009610e-03	1.480461e-03	2.809467e-02
7.68926       	2.009835e-03	1.480547e-03	2.800147e-02
7.68963       	2.010072e-03	1.480615e-03	2.797783e-02
7.69          	2.010260e-03	1.480645e-03	2.830181e-02
7.69036       	1.938642e-03	1.427880e-03	3.095951e-02
7.69071       	1.938775e-03	1.428044e-03	2.944098e-02
7.69107       	1.938865e-03	1.428104e-03	2.879643e-02
7.69143       	1.938973e-03	1.428223e-03	2.837376e-02
7.69179       	1.939110e-03	1.428304e-03	2.803462e-02
7.69214       	1.939330e-03	1.428475e-03	2.798207e-02
7.6925        	1.939549e-03	1.428620e-03	2.789309e-02
7.69286       	1.939676e-03	1.428639e-03	2.779334e-02
7.69321       	1.939887e-03	1.428667e-03	2.788562e-02
7.69357       	1.939983e-03	1.428670e-03	2.817957e-02
7.69393       	1.940064e-03	1.428637e-03	2.825326e-02
7.69429       	1.940197e-03	1.428648e-03	2.790666e-02
7.69464       	1.940325e-03	1.428618e-03	2.785364e-02
7.695         	1.940458e-03	1.428670e-03	2.755121e-02
7.69536       	1.940543e-03	1.428626e-03	2.770330e-02
7.69571       	1.940717e-03	1.428701e-03	2.742294e-02
7.69607       	1.940891e-03	1.428838e-03	2.732042e-02
7.69643       	1.941068e-03	1.428904e-03	2.734281e-02
7.69679       	1.941200e-03	1.429004e-03	2.767046e-02
7.69714       	1.941260e-03	1.429145e-03	2.758046e-02
7.6975        	1.941282e-03	1.429318e-03	2.739756e-02
7.69786       	1.941326e-03	1.429475e-03	2.763870e-02
7.69821       	1.941367e-03	1.429691e-03	2.769353e-02
7.69857       	1.941462e-03	1.429969e-03	2.759639e-02
7.69893       	1.941590e-03	1.430173e-03	2.766533e-02
7.69929       	1.941725e-03	1.430364e-03	2.785605e-02
7.69964       	1.941838e-03	1.430573e-03	2.791960e-02
7.7           	1.941821e-03	1.430766e-03	2.782081e-02
7.70036       	1.941835e-03	1.430946e-03	2.773329e-02
7.70071       	1.941895e-03	1.431101e-03	2.800831e-02
7.70107       	1.941969e-03	1.431295e-03	2.823185e-02
7.70143       	1.942122e-03	1.431545e-03	2.811378e-02
7.70179       	1.942207e-03	1.431705e-03	2.815464e-02
7.70214       	1.942250e-03	1.431832e-03	2.806119e-02
7.7025        	1.942288e-03	1.432102e-03	2.792314e-02
7.70286       	1.942305e-03	1.432238e-03	2.774954e-02
7.70321       	1.942358e-03	1.432429e-03	2.767883e-02
7.70357       	1.942392e-03	1.432529e-03	2.796954e-02
7.70393       	1.942456e-03	1.432653e-03	2.818813e-02
7.70429       	1.942475e-03	1.432875e-03	2.808369e-02
7.70464       	1.942458e-03	1.433070e-03	2.786844e-02
7.705         	1.942440e-03	1.433277e-03	2.817646e-02
7.70536       	1.942437e-03	1.433470e-03	2.790006e-02
7.70571       	1.942455e-03	1.433638e-03	2.776017e-02
7.70607       	1.942474e-03	1.433740e-03	2.809329e-02
7.70643       	1.942452e-03	1.433859e-03	2.840835e-02
7.70679       	1.942349e-03	1.433979e-03	2.831426e-02
7.70714       	1.942289e-03	1.434184e-03	2.824714e-02
7.7075        	1.942265e-03	1.434441e-03	2.833292e-02
7.70786       	1.942195e-03	1.434679e-03	2.835060e-02
7.70821       	1.942185e-03	1.434869e-03	2.793236e-02
7.70857       	1.942080e-03	1.434868e-03	2.852376e-02
7.70893       	1.941992e-03	1.435041e-03	2.845360e-02
7.70929       	1.941890e-03	1.435209e-03	2.829355e-02
7.70964       	1.941655e-03	1.435271e-03	2.841994e-02
7.71          	1.941452e-03	1.435378e-03	2.854684e-02
7.71037       	2.013106e-03	1.488502e-03	2.984381e-02
7.71074       	2.012952e-03	1.488543e-03	2.929034e-02
7.71111       	2.012833e-03	1.488620e-03	2.914027e-02
7.71148       	2.012699e-03	1.488709e-03	2.929194e-02
7.71185       	2.012647e-03	1.488939e-03	2.927282e-02
7.71222       	2.012540e-03	1.489233e-03	2.929629e-02
7.71259       	2.012431e-03	1.489533e-03	2.927536e-02
7.71296       	2.012365e-03	1.489835e-03	2.958039e-02
7.71333       	2.012309e-03	1.490101e-03	2.955745e-02
7.7137        	2.012232e-03	1.490408e-03	2.930066e-02
7.71407       	2.012105e-03	1.490666e-03	2.952501e-02
7.71444       	2.012076e-03	1.491048e-03	2.936017e-02
7.71481       	2.012032e-03	1.491347e-03	2.917493e-02
7.71519       	2.011907e-03	1.491532e-03	2.886379e-02
7.71556       	2.011766e-03	1.491839e-03	2.872119e-02
7.71593       	2.011605e-03	1.492096e-03	2.873318e-02
7.7163        	2.011381e-03	1.492268e-03	2.891956e-02
7.71667       	2.011148e-03	1.492509e-03	2.886875e-02
7.71704       	2.010872e-03	1.492693e-03	2.899943e-02
7.71741       	2.010650e-03	1.492862e-03	2.884688e-02
7.71778       	2.010481e-03	1.493028e-03	2.885046e-02
7.71815       	2.010362e-03	1.493132e-03	2.884962e-02
7.71852       	2.010198e-03	1.493208e-03	2.885717e-02
7.71889       	2.010116e-03	1.493430e-03	2.922595e-02
7.71926       	2.010010e-03	1.493745e-03	2.912081e-02
7.71963       	2.009775e-03	1.494036e-03	2.897647e-02
7.72          	2.009473e-03	1.494438e-03	2.893153e-02
7.72037       	2.009239e-03	1.494951e-03	2.918014e-02
7.72074       	2.009123e-03	1.495560e-03	2.962280e-02
7.72111       	2.009087e-03	1.496283e-03	2.977978e-02
7.72148       	2.009009e-03	1.496871e-03	3.008159e-02
7.72185       	2.009025e-03	1.497380e-03	3.035840e-02
7.72222       	2.009255e-03	1.498138e-03	3.049731e-02
7.72259       	2.009778e-03	1.498821e-03	3.101594e-02
7.72296       	2.010124e-03	1.499556e-03	3.158462e-02
7.72333       	2.010339e-03	1.500175e-03	3.215740e-02
7.7237        	2.010537e-03	1.500615e-03	3.198843e-02
7.72407       	2.010611e-03	1.500942e-03	3.177043e-02
7.72444       	2.010464e-03	1.501132e-03	3.139928e-02
7.72481       	2.010045e-03	1.501233e-03	3.144345e-02
7.72519       	2.009855e-03	1.501429e-03	3.152204e-02
7.72556       	2.009573e-03	1.501657e-03	3.139535e-02
7.72593       	2.009189e-03	1.501934e-03	3.156563e-02
7.7263        	2.008808e-03	1.502218e-03	3.139237e-02
7.72667       	2.008293e-03	1.502429e-03	3.110302e-02
7.72704       	2.007758e-03	1.502654e-03	3.091542e-02
7.72741       	2.007256e-03	1.502919e-03	3.132323e-02
7.72778       	2.006940e-03	1.503385e-03	3.076330e-02
7.72815       	2.006630e-03	1.503681e-03	3.099322e-02
7.72852       	2.006227e-03	1.503791e-03	3.072040e-02
7.72889       	2.005805e-03	1.504038e-03	3.047884e-02
7.72926       	2.005368e-03	1.504310e-03	3.016060e-02
7.72963       	2.004873e-03	1.504658e-03	3.048035e-02
7.73          	2.004419e-03	1.505008e-03	3.076011e-02
7.73037       	2.004016e-03	1.505331e-03	3.069907e-02
7.73074       	2.003606e-03	1.505564e-03	3.092152e-02
7.73111       	2.003181e-03	1.505782e-03	3.074727e-02
7.73148       	2.002718e-03	1.505940e-03	3.082746e-02
7.73185       	2.002324e-03	1.506071e-03	3.098817e-02
7.73222       	2.001973e-03	1.506217e-03	3.146065e-02
7.73259       	2.001678e-03	1.506341e-03	3.155761e-02
7.73296       	2.001413e-03	1.506549e-03	3.152307e-02
7.73333       	2.001077e-03	1.506783e-03	3.154121e-02
7.7337        	2.000741e-03	1.506933e-03	3.157042e-02
7.73407       	2.000374e-03	1.507149e-03	3.135518e-02
7.73444       	1.999890e-03	1.507412e-03	3.097809e-02
7.73481       	1.999410e-03	1.507620e-03	3.091532e-02
7.73519       	1.998985e-03	1.507762e-03	3.084454e-02
7.73556       	1.998622e-03	1.507967e-03	3.081036e-02
7.73593       	1.998215e-03	1.508087e-03	3.112898e-02
7.7363        	1.997770e-03	1.508180e-03	3.108191e-02
7.73667       	1.997353e-03	1.508455e-03	3.117532e-02
7.73704       	1.996964e-03	1.508873e-03	3.113430e-02
7.73741       	1.996509e-03	1.509158e-03	3.113263e-02
7.73778       	1.996067e-03	1.509424e-03	3.123498e-02
7.73815       	1.995602e-03	1.509650e-03	3.116809e-02
7.73852       	1.995203e-03	1.509871e-03	3.093793e-02
7.73889       	1.994827e-03	1.510058e-03	3.116707e-02
7.73926       	1.994449e-03	1.510201e-03	3.130842e-02
7.73963       	1.994104e-03	1.510312e-03	3.134832e-02
7.74          	1.993725e-03	1.510565e-03	3.159733e-02
7.74037       	1.993312e-03	1.510882e-03	3.236908e-02
7.74074       	1.992911e-03	1.511260e-03	3.285322e-02
7.74111       	1.992439e-03	1.511619e-03	3.251169e-02
7.74148       	1.991935e-03	1.511997e-03	3.243039e-02
7.74185       	1.991395e-03	1.512285e-03	3.271266e-02
7.74222       	1.990986e-03	1.512747e-03	3.208549e-02
7.74259       	1.990584e-03	1.512990e-03	3.173412e-02
7.74296       	1.990249e-03	1.513241e-03	3.169956e-02
7.74333       	1.989941e-03	1.513591e-03	3.166255e-02
7.7437        	1.989617e-03	1.513985e-03	3.126918e-02
7.74407       	1.989243e-03	1.514373e-03	3.082424e-02
7.74444       	1.988908e-03	1.514747e-03	3.067881e-02
7.74481       	1.988577e-03	1.515051e-03	3.076928e-02
7.74519       	1.988243e-03	1.515352e-03	3.067001e-02
7.74556       	1.987898e-03	1.515694e-03	3.076583e-02
7.74593       	1.987556e-03	1.515990e-03	3.080637e-02
7.7463        	1.987257e-03	1.516197e-03	3.111967e-02
7.74667       	1.986906e-03	1.516415e-03	3.110097e-02
7.74704       	1.986508e-03	1.516664e-03	3.094647e-02
7.74741       	1.986101e-03	1.516880e-03	3.101533e-02
7.74778       	1.985706e-03	1.517141e-03	3.117805e-02
7.74815       	1.985291e-03	1.517260e-03	3.183135e-02
7.74852       	1.984881e-03	1.517465e-03	3.116557e-02
7.74889       	1.984489e-03	1.517796e-03	3.124400e-02
7.74926       	1.984045e-03	1.517947e-03	3.148944e-02
7.74963       	1.983598e-03	1.518152e-03	3.147497e-02
7.75          	1.983231e-03	1.518449e-03	3.147070e-02
7.7504        	2.141368e-03	1.640187e-03	3.739311e-02
7.7508        	2.141044e-03	1.640419e-03	3.536474e-02
7.7512        	2.140652e-03	1.640606e-03	3.366622e-02
7.7516        	2.140322e-03	1.640742e-03	3.292940e-02
7.752         	2.140012e-03	1.640961e-03	3.225726e-02
7.7524        	2.139684e-03	1.641375e-03	3.237207e-02
7.7528        	2.139348e-03	1.641810e-03	3.252603e-02
7.7532        	2.139014e-03	1.642141e-03	3.249289e-02
7.7536        	2.138527e-03	1.642369e-03	3.237382e-02
7.754         	2.138004e-03	1.642566e-03	3.213273e-02
7.7544        	2.137525e-03	1.642786e-03	3.198337e-02
7.7548        	2.137009e-03	1.642907e-03	3.184337e-02
7.7552        	2.136537e-03	1.643028e-03	3.151081e-02
7.7556        	2.136099e-03	1.643210e-03	3.131373e-02
7.756         	2.135710e-03	1.643517e-03	3.086459e-02
7.7564        	2.135303e-03	1.643824e-03	3.084922e-02
7.7568        	2.135013e-03	1.644199e-03	3.065034e-02
7.7572        	2.134723e-03	1.644707e-03	3.075054e-02
7.7576        	2.134355e-03	1.645092e-03	3.087860e-02
7.758         	2.134054e-03	1.645504e-03	3.104515e-02
7.7584        	2.133776e-03	1.645716e-03	3.139754e-02
7.7588        	2.133558e-03	1.646071e-03	3.147470e-02
7.7592        	2.133284e-03	1.646473e-03	3.143211e-02
7.7596        	2.132999e-03	1.646789e-03	3.136702e-02
7.76          	2.132688e-03	1.647007e-03	3.135200e-02
7.7604        	2.132312e-03	1.647162e-03	3.160243e-02
7.7608        	2.131926e-03	1.647322e-03	3.131838e-02
7.7612        	2.131497e-03	1.647428e-03	3.116347e-02
7.7616        	2.131079e-03	1.647525e-03	3.110024e-02
7.762         	2.130644e-03	1.647619e-03	3.106002e-02
7.7624        	2.130287e-03	1.647726e-03	3.105250e-02
7.7628        	2.129975e-03	1.648026e-03	3.166492e-02
7.7632        	2.129686e-03	1.648383e-03	3.180916e-02
7.7636        	2.129511e-03	1.648740e-03	3.158509e-02
7.764         	2.129303e-03	1.649061e-03	3.162639e-02
7.7644        	2.129090e-03	1.649362e-03	3.174077e-02
7.7648        	2.128921e-03	1.649728e-03	3.181714e-02
7.7652        	2.128776e-03	1.649920e-03	3.213371e-02
7.7656        	2.128596e-03	1.650095e-03	3.235262e-02
7.766         	2.128475e-03	1.650479e-03	3.278717e-02
7.7664        	2.128403e-03	1.650854e-03	3.200467e-02
7.7668        	2.128308e-03	1.651219e-03	3.176250e-02
7.7672        	2.128226e-03	1.651629e-03	3.189535e-02
7.7676        	2.128106e-03	1.651997e-03	3.152041e-02
7.768         	2.127871e-03	1.652221e-03	3.131514e-02
7.7684        	2.127692e-03	1.652490e-03	3.089407e-02
7.7688        	2.127395e-03	1.652588e-03	3.056786e-02
7.7692        	2.127060e-03	1.652652e-03	3.006641e-02
7.7696        	2.126780e-03	1.652818e-03	3.017094e-02
7.77          	2.126588e-03	1.653070e-03	3.029755e-02
7.7704        	2.126374e-03	1.653340e-03	2.989204e-02
7.7708        	2.126149e-03	1.653643e-03	2.985090e-02
7.77118       	2.037406e-03	1.585078e-03	3.353111e-02
7.77157       	2.037125e-03	1.585442e-03	3.151114e-02
7.77195       	2.036806e-03	1.585680e-03	3.054571e-02
7.77233       	2.036599e-03	1.585844e-03	3.015818e-02
7.77272       	2.036383e-03	1.586069e-03	2.964512e-02
7.7731        	2.036205e-03	1.586253e-03	2.962020e-02
7.77348       	2.036107e-03	1.586379e-03	2.970790e-02
7.77387       	2.036018e-03	1.586531e-03	2.954093e-02
7.77425       	2.035897e-03	1.586693e-03	2.952000e-02
7.77463       	2.035763e-03	1.586776e-03	2.953276e-02
7.77502       	2.035593e-03	1.586862e-03	2.910338e-02
7.7754        	2.035370e-03	1.586884e-03	2.881309e-02
7.77578       	2.035161e-03	1.586970e-03	2.883947e-02
7.77617       	2.034929e-03	1.587049e-03	2.870696e-02
7.77655       	2.034831e-03	1.587156e-03	2.881969e-02
7.77693       	2.034752e-03	1.587345e-03	2.885938e-02
7.77732       	2.034639e-03	1.587592e-03	2.891392e-02
7.7777        	2.034558e-03	1.587985e-03	2.865871e-02
7.77808       	2.034462e-03	1.588379e-03	2.911865e-02
7.77847       	2.034410e-03	1.588741e-03	2.906305e-02
7.77885       	2.034303e-03	1.589015e-03	2.891059e-02
7.77923       	2.034219e-03	1.589337e-03	2.895298e-02
7.77962       	2.034107e-03	1.589612e-03	2.900534e-02
7.78          	2.033978e-03	1.589754e-03	2.894176e-02
7.7804        	2.122167e-03	1.658956e-03	3.183872e-02
7.7808        	2.122122e-03	1.659209e-03	3.065310e-02
7.7812        	2.122067e-03	1.659554e-03	3.064061e-02
7.7816        	2.121977e-03	1.659941e-03	3.012916e-02
7.782         	2.121751e-03	1.660056e-03	2.968973e-02
7.7824        	2.121591e-03	1.660274e-03	2.975692e-02
7.7828        	2.121458e-03	1.660429e-03	2.970835e-02
7.7832        	2.121388e-03	1.660484e-03	3.003829e-02
7.7836        	2.121350e-03	1.660624e-03	2.999153e-02
7.784         	2.121350e-03	1.660893e-03	2.984455e-02
7.7844        	2.121243e-03	1.661157e-03	2.988362e-02
7.7848        	2.121112e-03	1.661492e-03	3.001966e-02
7.7852        	2.120995e-03	1.661872e-03	2.995999e-02
7.7856        	2.120845e-03	1.662037e-03	2.989722e-02
7.786         	2.120764e-03	1.662171e-03	2.978455e-02
7.7864        	2.120609e-03	1.662331e-03	2.940701e-02
7.7868        	2.120373e-03	1.662518e-03	2.925875e-02
7.7872        	2.120201e-03	1.662651e-03	2.940334e-02
7.7876        	2.120019e-03	1.662781e-03	2.901797e-02
7.788         	2.119875e-03	1.662992e-03	2.966803e-02
7.7884        	2.119792e-03	1.663347e-03	2.899615e-02
7.7888        	2.119543e-03	1.663403e-03	2.899952e-02
7.7892        	2.119442e-03	1.663533e-03	2.922737e-02
7.7896        	2.119311e-03	1.663641e-03	2.960035e-02
7.79          	2.119190e-03	1.663769e-03	2.980468e-02
7.79042       	2.207290e-03	1.733170e-03	3.181062e-02
7.79083       	2.207281e-03	1.733354e-03	3.123773e-02
7.79125       	2.207265e-03	1.733528e-03	3.074190e-02
7.79167       	2.207266e-03	1.733841e-03	3.058652e-02
7.79208       	2.207269e-03	1.734266e-03	3.057824e-02
7.7925        	2.207281e-03	1.734700e-03	3.050171e-02
7.79292       	2.207307e-03	1.735027e-03	3.027646e-02
7.79333       	2.207244e-03	1.735333e-03	3.040463e-02
7.79375       	2.207086e-03	1.735561e-03	3.030117e-02
7.79417       	2.206924e-03	1.735722e-03	3.060247e-02
7.79458       	2.206754e-03	1.735781e-03	3.090649e-02