/*--------------------------------*- C++ -*----------------------------------*\
  =========                 |
  \\      /  F ield         | OpenFOAM: The Open Source CFD Toolbox
   \\    /   O peration     | Website:  https://openfoam.org
    \\  /    A nd           | Version:  9
     \\/     M anipulation  |
\*---------------------------------------------------------------------------*/
FoamFile
{
    format      ascii;
    class       volScalarField;
    location    "9.7";
    object      nut;
}
// * * * * * * * * * * * * * * * * * * * * * * * * * * * * * * * * * * * * * //

dimensions      [0 2 -1 0 0 0 0];

internalField   nonuniform List<scalar> 
46400
(
0.02177
0.00820947
0.00234305
0.00166771
0.0016777
0.00162075
0.00153225
0.0015013
0.00142825
0.00139689
0.00133553
0.00129912
0.00125598
0.00121647
0.00119164
0.00119911
0.00115939
0.00104612
0.00137164
0.0011417
0.0212881
0.00688591
0.00160282
0.00165939
0.00161439
0.00159923
0.00152042
0.00149267
0.00142844
0.00139339
0.00134444
0.00129624
0.00126078
0.0012157
0.00116123
0.00111987
0.00106723
0.000967501
0.00118427
0.00107844
0.0207747
0.00619711
0.00149919
0.00171305
0.00164552
0.00162363
0.00152771
0.0014983
0.0014307
0.00139234
0.00134199
0.00129487
0.00124725
0.00120917
0.00118035
0.00116313
0.00109377
0.00100857
0.00128902
0.00111119
0.0202151
0.00514638
0.0014622
0.00171156
0.00159442
0.00159702
0.00150806
0.00148003
0.00141712
0.00137599
0.00133494
0.00129377
0.00126069
0.00121339
0.00116431
0.00113522
0.00109105
0.000991589
0.00128076
0.00116197
0.0195799
0.00467669
0.00147189
0.00172382
0.00162064
0.00161529
0.00152871
0.00149374
0.0014362
0.00138749
0.00133388
0.00128462
0.00123995
0.00121246
0.00118238
0.00116405
0.00111076
0.00101918
0.00129647
0.00115308
0.0188356
0.00529379
0.00154217
0.00172939
0.00161268
0.001603
0.00151858
0.00148214
0.00142657
0.00139538
0.00135143
0.00130845
0.00127203
0.00122085
0.00117919
0.00114249
0.00111332
0.00101142
0.00127769
0.00117165
0.0180812
0.00526799
0.00161091
0.00175192
0.00162024
0.00162075
0.0015383
0.00149537
0.00143152
0.00138571
0.00134826
0.00129555
0.00126164
0.00123693
0.00121966
0.00119177
0.00114632
0.00105359
0.00130007
0.0011894
0.0172707
0.00523679
0.0016309
0.00178852
0.00163211
0.00159574
0.00152482
0.00148561
0.00143427
0.00137446
0.00134499
0.00131001
0.00127021
0.00121476
0.0011837
0.00116933
0.00113271
0.00104751
0.00126776
0.00118224
0.0159837
0.00435629
0.00165521
0.00178953
0.00164283
0.00159936
0.00151947
0.00145921
0.00142316
0.00136328
0.00131131
0.00126608
0.00124903
0.00121285
0.00117495
0.00115388
0.00111902
0.00103898
0.00122433
0.00115661
0.0143578
0.00343235
0.0016662
0.00174413
0.00166368
0.00159228
0.00154791
0.00146419
0.00142497
0.00137657
0.00132969
0.00127156
0.00123535
0.00120577
0.00116066
0.00113849
0.00110375
0.00102464
0.00117638
0.00112641
0.0119206
0.00287011
0.0016989
0.00169688
0.0016281
0.00155082
0.00151313
0.00144721
0.00139519
0.00136015
0.00134247
0.00127757
0.00122006
0.0011926
0.00116123
0.00111792
0.00109466
0.00102194
0.00113445
0.00109064
0.00947316
0.00238729
0.00165846
0.00161511
0.00162607
0.00156398
0.00152436
0.0014762
0.00141066
0.00131264
0.00129719
0.0012812
0.00123227
0.00118179
0.00116314
0.00112908
0.00109296
0.00104446
0.00112238
0.00107767
0.00780649
0.00208743
0.00173001
0.00159876
0.00152509
0.00146631
0.00141744
0.00137263
0.00140956
0.0013598
0.00128426
0.00124957
0.00122779
0.00116972
0.0011306
0.00110363
0.00105802
0.00101967
0.00110608
0.00105844
0.0061134
0.00182766
0.00170801
0.00161923
0.00160433
0.00155269
0.00150494
0.00137555
0.00131471
0.00129181
0.00125453
0.00119882
0.00118372
0.00115806
0.00112061
0.00110294
0.00106865
0.00100633
0.00108037
0.00103966
0.00525732
0.00168842
0.00164566
0.00154933
0.00152069
0.00147402
0.00151621
0.00146496
0.00138385
0.00132016
0.00129681
0.00123627
0.00118965
0.00115771
0.00112251
0.00108358
0.00106218
0.000999786
0.00104628
0.00101675
0.00467019
0.00172838
0.00168348
0.00156531
0.00153751
0.00135257
0.00132646
0.00135884
0.00137606
0.00132003
0.0012812
0.00125809
0.00121121
0.00116514
0.00113864
0.00109987
0.001071
0.0010213
0.00105052
0.00100289
0.00458508
0.00164413
0.00159814
0.00159333
0.00161348
0.00150367
0.00144253
0.00132726
0.00128652
0.00126193
0.0012271
0.00117997
0.00116912
0.00114083
0.00111057
0.00109121
0.00105721
0.00101126
0.00103729
0.00099935
0.00408854
0.00171317
0.00153984
0.00145948
0.00145758
0.00149109
0.00142745
0.00137385
0.00130643
0.00126245
0.0012451
0.00121219
0.00117434
0.00113553
0.00110998
0.00107697
0.0010479
0.00100099
0.00102344
0.000986807
0.00402441
0.00178541
0.00162135
0.00151488
0.00148764
0.00143283
0.00137098
0.00136638
0.00132388
0.00128177
0.00123224
0.00119827
0.00116662
0.00113178
0.00109596
0.00107405
0.00104329
0.000982268
0.00100803
0.000959434
0.00264357
0.00172148
0.00162386
0.00159285
0.00146752
0.00143458
0.00143345
0.00137117
0.00134528
0.0013014
0.001244
0.0012135
0.0011668
0.00113655
0.00109682
0.00105871
0.00104648
0.000981994
0.00101004
0.000965317
0.00516754
0.0145276
0.0129557
0.00483122
0.000235907
0.000447587
0.000778783
0.000855997
0.000781887
0.00077776
0.000780099
0.000788445
0.000781575
0.000792902
0.000788968
0.000850006
0.000899214
0.000975168
0.000966418
0.00083464
0.00801831
0.0151483
0.0118383
0.00258178
0.000233136
0.000620376
0.000875396
0.000890348
0.000851625
0.000828031
0.000822287
0.000810362
0.000817422
0.000831001
0.000809093
0.000858182
0.000908307
0.000996659
0.000941856
0.000805377
0.0106437
0.0154772
0.0107552
0.00104347
0.000530829
0.000933309
0.00103467
0.000946712
0.000911053
0.000879189
0.000870729
0.000879052
0.000865027
0.000862979
0.000862372
0.000921415
0.0009465
0.00101449
0.000954137
0.000834169
0.0132797
0.015529
0.00973786
0.000374678
0.000646112
0.0010481
0.00106116
0.00100722
0.000973881
0.000945859
0.000931363
0.000906252
0.000909234
0.000910095
0.000878444
0.000929792
0.000968754
0.00105046
0.000947117
0.000825429
0.0164431
0.0154512
0.00797034
0.000477497
0.000885602
0.0011743
0.00115138
0.00105936
0.00101483
0.000972167
0.00095933
0.00096114
0.00094109
0.000935094
0.000935435
0.000979427
0.000986331
0.00106412
0.000960977
0.000853264
0.0180357
0.0153903
0.00567117
0.000297714
0.00107515
0.00122738
0.00114352
0.00111679
0.00107479
0.00103715
0.00101408
0.000988821
0.000986859
0.000968444
0.000933369
0.000981612
0.00100617
0.00109159
0.000967256
0.000863541
0.019434
0.0150875
0.00427004
0.000219636
0.00120291
0.00131216
0.00122435
0.00114801
0.00110274
0.00105503
0.00104017
0.00103102
0.00100926
0.00100351
0.000996167
0.00101885
0.00102158
0.00111494
0.000968492
0.000886081
0.0202145
0.0148434
0.00290862
0.000411127
0.0012826
0.00132884
0.00125149
0.00120451
0.00115676
0.00110418
0.00107284
0.0010525
0.00104052
0.00100706
0.000976441
0.00101347
0.0010235
0.00112301
0.000971075
0.000882893
0.0208732
0.0144339
0.00219652
0.000518692
0.00139101
0.00137409
0.00130922
0.00122747
0.00118488
0.0011363
0.00111111
0.00109247
0.00107526
0.00106475
0.00103817
0.00104999
0.00105595
0.00115817
0.000989133
0.000923276
0.0217244
0.0141145
0.00152956
0.000845131
0.00143048
0.00140041
0.0013404
0.00127612
0.00122084
0.00115741
0.00112057
0.00110041
0.00107952
0.00104658
0.00102007
0.00102815
0.00102843
0.00114802
0.000969674
0.000909
0.0221175
0.013644
0.0014398
0.000946233
0.00149702
0.00141654
0.0013757
0.00129477
0.00125648
0.00120715
0.00116668
0.00114271
0.00112532
0.00110591
0.00107333
0.00107672
0.00107047
0.00117281
0.000993113
0.000950519
0.0226829
0.0132815
0.00131638
0.00114524
0.0015135
0.00145046
0.0014069
0.00133003
0.00127059
0.0012088
0.00116971
0.00114334
0.00111827
0.00109039
0.00105439
0.00103586
0.00103493
0.00115973
0.00095916
0.000941405
0.0228398
0.0127815
0.00196036
0.00122646
0.00156843
0.00145579
0.00142952
0.00135867
0.00131826
0.00126303
0.00120966
0.00118339
0.00115901
0.00113979
0.00111106
0.00109042
0.00106316
0.00116959
0.000979421
0.000968588
0.0231283
0.0123588
0.0020213
0.00133122
0.00158269
0.00148492
0.00144986
0.0013702
0.00131398
0.00126432
0.00121938
0.00118574
0.00115522
0.00112692
0.00108717
0.00106003
0.00104724
0.00114643
0.00093737
0.0009783
0.0231371
0.0120027
0.00256306
0.00138816
0.00163688
0.00150013
0.00147052
0.00141517
0.00136236
0.00130502
0.001249
0.00122039
0.00118823
0.00117278
0.00114203
0.00109695
0.0010669
0.00115791
0.000939159
0.000985623
0.0231715
0.0116677
0.0025699
0.00141381
0.00162011
0.00152386
0.00148139
0.00140876
0.0013615
0.00131952
0.00126555
0.00123048
0.0011919
0.00116436
0.00113425
0.00109944
0.00106565
0.00112724
0.000901741
0.00101103
0.023039
0.0113108
0.00248787
0.00152045
0.00165718
0.00154926
0.00150333
0.0014575
0.0013914
0.00134652
0.00129043
0.00125892
0.00122351
0.00120382
0.00116959
0.00112451
0.00110508
0.00114164
0.000871083
0.00100984
0.0228092
0.0107446
0.00226245
0.00150701
0.00164004
0.00155304
0.00151009
0.00145182
0.00140553
0.00136462
0.00131017
0.00127633
0.0012343
0.00121212
0.0011869
0.00114265
0.00111397
0.00113846
0.000851769
0.00103961
0.0225599
0.0100004
0.00250264
0.00160659
0.00167959
0.00159427
0.00152665
0.00148999
0.0014179
0.001387
0.00132775
0.00129646
0.0012608
0.00123384
0.0012048
0.00118114
0.0011849
0.00117179
0.000833119
0.0010201
0.0221586
0.00882236
0.0022088
0.00158741
0.00163947
0.00158359
0.00152772
0.00148903
0.00143506
0.00139964
0.00135317
0.00131879
0.00128779
0.00127166
0.0012469
0.00123528
0.00124021
0.00124907
0.00102774
0.00114463
0.00578369
0.00452207
0.00322339
0.00276916
0.00246045
0.0020756
0.0017437
0.00143331
0.00119537
0.00101586
0.000827436
0.000674701
0.000540058
0.000483136
0.000434461
0.000753513
0.00167615
0.00608956
0.010667
0.0149189
0.00579542
0.00456666
0.00356982
0.00265733
0.00248377
0.00210476
0.00176909
0.00145301
0.00120808
0.00101446
0.000819418
0.000698036
0.000552071
0.000477974
0.00042582
0.000751896
0.00164628
0.0060747
0.0106282
0.0148864
0.00550226
0.00454136
0.00346282
0.00270261
0.00246472
0.00204072
0.0017237
0.0014127
0.00117766
0.00100594
0.000805591
0.000658679
0.000517415
0.000470549
0.000412041
0.000724855
0.00165736
0.00608458
0.0106974
0.0148644
0.00594422
0.00459908
0.00359174
0.00260956
0.00249443
0.00207322
0.00175171
0.00143732
0.00119332
0.00100956
0.000804513
0.000680776
0.000530523
0.0004571
0.000387186
0.000698512
0.00164252
0.00612543
0.0107978
0.0148411
0.00625591
0.00459603
0.00368059
0.00262928
0.00246071
0.00201019
0.00170865
0.00139829
0.00116482
0.000998874
0.000791137
0.000644163
0.000497517
0.000431572
0.000387115
0.000677742
0.00163378
0.00615771
0.0107507
0.0148042
0.00622143
0.00459879
0.00362298
0.00257978
0.00249138
0.00204407
0.00173913
0.00142325
0.00118114
0.00100642
0.000796195
0.000669588
0.000514931
0.000371545
0.00033762
0.000687293
0.00162086
0.00613835
0.0106809
0.0147843
0.00654418
0.0046355
0.00367364
0.00258163
0.00244754
0.00198371
0.00169837
0.00138682
0.00115294
0.000993235
0.000783749
0.000640346
0.000447237
0.000402159
0.000324405
0.000654403
0.00157992
0.00609013
0.0106756
0.0147854
0.00643911
0.00462111
0.00365323
0.00256719
0.00248121
0.00201917
0.00172691
0.00141366
0.00117084
0.00100388
0.000792761
0.000668538
0.000515549
0.000352294
0.000289439
0.000608005
0.00150748
0.0060297
0.0106607
0.0147836
0.00669095
0.00465489
0.0036693
0.00255264
0.00242765
0.00196696
0.00168704
0.00138121
0.00114479
0.000991407
0.0007811
0.000644124
0.000400905
0.000365972
0.00029632
0.000561721
0.00144039
0.00600913
0.010634
0.0148015
0.00660456
0.00462867
0.00368535
0.00256813
0.00246086
0.00200552
0.00171283
0.00141047
0.00116437
0.00100495
0.000793215
0.000675271
0.000512173
0.000395858
0.000267334
0.000523399
0.00141716
0.0059816
0.0106446
0.0148092
0.00677274
0.00462608
0.00366673
0.00254056
0.00239594
0.00196177
0.00167545
0.00138197
0.00114216
0.000994708
0.000782044
0.000651955
0.000497525
0.000405929
0.00017613
0.000488746
0.00133679
0.00595164
0.0106537
0.0148323
0.00671704
0.00458994
0.00369708
0.00257711
0.0024217
0.00199504
0.00169801
0.00141216
0.00116091
0.00100994
0.000798192
0.000686107
0.000521862
0.000425953
0.000220796
0.000448102
0.00127331
0.0058988
0.0106424
0.0148622
0.00683967
0.00454972
0.00365483
0.00254421
0.00235263
0.00195663
0.00165937
0.00138769
0.0011414
0.000999398
0.000786555
0.0006678
0.000510926
0.000425512
0.000147823
0.00040968
0.0011973
0.0058574
0.0106424
0.0148952
0.00679713
0.00448902
0.003685
0.00259722
0.00237227
0.00198612
0.0016771
0.00141759
0.00115887
0.00101471
0.00080477
0.000698865
0.000533918
0.000441148
0.000202064
0.000372699
0.00111919
0.00581215
0.0106462
0.0149278
0.00690439
0.00440767
0.00361593
0.00256776
0.00231034
0.00195831
0.00163805
0.00139812
0.00114539
0.00100498
0.000795703
0.000687987
0.000528081
0.000435281
0.000175308
0.000339917
0.00103609
0.00577193
0.0106433
0.0149729
0.0068812
0.00431264
0.00361534
0.00262176
0.00231752
0.00198814
0.00165378
0.00142236
0.00116347
0.00102113
0.000815271
0.000715017
0.00055204
0.000445579
0.000191361
0.000314037
0.00095252
0.00573933
0.0106563
0.0150647
0.00703884
0.00421421
0.00350198
0.0025893
0.00225725
0.00196101
0.00161793
0.0014026
0.00115229
0.00101061
0.00080844
0.000706513
0.000547371
0.000437752
0.000222183
0.000348288
0.000861992
0.00563586
0.0106483
0.0152235
0.00701231
0.00411067
0.00348175
0.00264687
0.00226692
0.00199586
0.00164184
0.00142896
0.0011739
0.00103147
0.000831384
0.000733574
0.000571573
0.000466089
0.000265534
0.000371102
0.000772993
0.00568336
0.0106938
0.0152627
0.00705525
0.00406221
0.00329368
0.00259435
0.00220369
0.00196008
0.00160931
0.00141285
0.00116775
0.0010223
0.000827455
0.000731324
0.000569587
0.000472615
0.000319934
0.000396813
0.000693859
0.0056544
0.0107702
0.0153087
0.00738062
0.00401314
0.00320995
0.00263109
0.00219457
0.00196421
0.00160136
0.00140238
0.0011678
0.00102099
0.000828672
0.000740945
0.000587324
0.000492433
0.000384899
0.00041991
0.00060435
0.00533099
0.0106172
0.0149682
0.0145336
0.0416342
0.0309103
0.0288927
0.0238049
0.0213691
0.0173429
0.0150941
0.012467
0.0109032
0.00880202
0.00739785
0.00609405
0.00568385
0.00487964
0.00466286
0.000306741
0.0514272
0.101113
0.138089
0.0353527
0.0247517
0.0219799
0.0196423
0.0159587
0.0143344
0.0119072
0.0103221
0.00862137
0.00733245
0.00638902
0.00564131
0.00529397
0.00469451
0.00439514
0.0042303
0.0128238
0.0529097
0.0988366
0.135753
0.0161984
0.0160231
0.0158895
0.0128723
0.011848
0.0102468
0.00919724
0.00842566
0.00772353
0.00705219
0.0066029
0.006149
0.00592234
0.00548696
0.00510188
0.00452031
0.00907903
0.0527677
0.0965139
0.13608
0.0118571
0.0107597
0.00971005
0.00985678
0.00908518
0.00838877
0.0076444
0.00709736
0.00659692
0.00614711
0.00564492
0.00509689
0.00442995
0.00430908
0.0039664
0.00302388
0.01004
0.0493023
0.096169
0.133111
0.00573842
0.0079964
0.00833641
0.00698612
0.00650946
0.00612521
0.00569029
0.00540455
0.00520159
0.00500538
0.00475741
0.00458377
0.00434494
0.00392079
0.00393095
0.00330599
0.00661351
0.0449166
0.0961089
0.132465
0.00534262
0.0051318
0.00437297
0.00507855
0.00508626
0.00512652
0.00493566
0.00476277
0.0046005
0.00453448
0.00431033
0.00420341
0.00403673
0.00393794
0.00353852
0.00269144
0.00665013
0.0398483
0.0963648
0.132239
0.00325194
0.00397499
0.00453531
0.00406151
0.00378933
0.00370415
0.00370565
0.00382281
0.00381183
0.00388962
0.00378163
0.00382135
0.00370555
0.00383368
0.00362263
0.00267713
0.00423689
0.032513
0.096946
0.134169
0.00262218
0.00259128
0.00222081
0.00257738
0.00292658
0.00322714
0.00314422
0.00327757
0.00332404
0.00349093
0.00350752
0.00368836
0.00368808
0.00381539
0.0039373
0.00362929
0.00329807
0.0273932
0.0962074
0.139265
0.00171349
0.00198111
0.00240127
0.00251316
0.00236791
0.00249266
0.00270533
0.00286518
0.00286854
0.003138
0.00320892
0.00348259
0.0035545
0.00387232
0.00378922
0.00369491
0.00428595
0.0179286
0.0942829
0.147639
0.00134373
0.00144951
0.0013196
0.00154588
0.00186314
0.00211368
0.00222392
0.00253423
0.00272517
0.00287838
0.00306339
0.00338595
0.003502
0.00390288
0.00408227
0.0045557
0.00365381
0.0130723
0.0882624
0.158974
0.00109171
0.00127404
0.00149173
0.00168657
0.00169485
0.00188339
0.00196565
0.00214858
0.00237763
0.00267145
0.00280624
0.0030017
0.00324927
0.00370585
0.00392639
0.00482038
0.00443518
0.00694237
0.0661665
0.172616
0.000926017
0.00101304
0.00103446
0.00123607
0.00144098
0.00168203
0.00185309
0.00204674
0.00205094
0.00229701
0.00256214
0.00290005
0.00317261
0.00339975
0.00376052
0.00390602
0.00476498
0.0065301
0.0498162
0.192427
0.000858276
0.00104766
0.0011407
0.00127072
0.00134695
0.0014511
0.00147287
0.00171752
0.00183183
0.00196128
0.00207426
0.00240363
0.00256042
0.0028958
0.00309041
0.00356668
0.00424001
0.00829629
0.0253148
0.152695
0.000744814
0.00082057
0.000848978
0.000996911
0.00103523
0.00127909
0.00126736
0.00138632
0.00143343
0.00172966
0.00165251
0.0018819
0.0019708
0.00259314
0.00255801
0.00315394
0.00259023
0.00491846
0.0155056
0.10688
0.000669175
0.000748169
0.000780458
0.000861566
0.000836829
0.000971213
0.00102815
0.00113988
0.00112085
0.00128786
0.00126505
0.00163209
0.00156997
0.00179439
0.00169024
0.0021502
0.00192312
0.00335246
0.00727182
0.0613357
0.000555004
0.000624101
0.000635674
0.000683265
0.000676907
0.000745771
0.000743748
0.000928759
0.000849029
0.000889724
0.000940395
0.00119844
0.000925142
0.00117373
0.00125951
0.00160062
0.000692629
0.00162507
0.00593337
0.036392
0.000525319
0.000528995
0.000534889
0.000558508
0.000534515
0.000543065
0.000532778
0.000581114
0.000554726
0.000695776
0.000615211
0.000777185
0.00080155
0.000958457
0.000856642
0.000953132
0.000513397
0.00153191
0.00123273
0.0181372
0.000320368
0.000305476
0.000280103
0.00032157
0.00031255
0.000366541
0.000348198
0.000368933
0.000414116
0.000487276
0.00046058
0.00047188
0.000463639
0.000452167
0.00055727
0.000370729
0.000364635
0.000511402
0.00221886
0.00467111
0.000122397
0.00017649
0.000102036
0.00018609
0.000189042
0.000210929
0.00023678
0.000252059
0.000227398
0.0002866
0.000273382
0.000331165
0.000340462
0.000443941
0.000298599
0.000344752
0.000264598
0.000153073
0.000920086
0.00455458
6.78708e-05
7.61121e-05
7.81132e-05
8.55677e-05
0.000123549
0.000137942
0.000169982
0.000185143
0.000229017
0.000244493
0.00028127
0.000295442
0.00030591
0.000295428
0.000335946
0.00026767
0.000136525
0.000214973
0.000434705
0.00221813
0.014126
0.0142079
0.0142306
0.01431
0.0143085
0.0144035
0.0144621
0.014432
0.014015
0.0143416
0.0145237
0.0135766
0.0127333
0.0116933
0.0123669
0.0120728
0.012067
0.0112984
0.0107116
0.0105661
0.00695004
0.00696774
0.00693543
0.00691575
0.00689014
0.00683965
0.00688821
0.0066722
0.00695691
0.00831548
0.00762022
0.00644616
0.00634561
0.00717011
0.0075679
0.00737
0.00783115
0.00675241
0.00633628
0.00789031
0.0041213
0.00414749
0.00418698
0.00427687
0.00427797
0.00445652
0.00445007
0.00460784
0.0048178
0.00430554
0.00404304
0.00452699
0.00462155
0.00552689
0.00487729
0.00427741
0.00333438
0.00302245
0.00334585
0.00373364
0.0025881
0.00259316
0.0025867
0.00257815
0.00256539
0.00260562
0.0025639
0.00252352
0.00243699
0.00264675
0.00249145
0.00254549
0.00243966
0.00307923
0.00317014
0.00331829
0.00322167
0.00285873
0.00229889
0.00238756
0.0015397
0.00155223
0.00155958
0.00158166
0.00162284
0.00165587
0.0016652
0.00172769
0.00174452
0.00177616
0.00179765
0.00197759
0.00188589
0.00209089
0.00189346
0.00197911
0.00141359
0.00129722
0.00102997
0.000997648
0.00108177
0.00109766
0.00111292
0.00114247
0.0011768
0.00118116
0.00116221
0.00114903
0.00110217
0.0011163
0.00105401
0.00113956
0.00103121
0.00118871
0.00134993
0.00164499
0.00125849
0.00113166
0.000916793
0.00115096
0.000633177
0.000642306
0.000655209
0.000671155
0.00069251
0.000695149
0.000676493
0.000648285
0.000626623
0.000676601
0.000680761
0.000800066
0.000871715
0.0010216
0.000876973
0.000800958
0.000544975
0.000573865
0.000381048
0.000232823
0.000452144
0.000455463
0.00045927
0.000463435
0.000469907
0.000464789
0.000448868
0.000422345
0.000434361
0.000457759
0.000464656
0.000480752
0.000465469
0.000490869
0.00049605
0.000632438
0.000394948
0.00044546
0.00052081
0.000658114
0.000229408
0.000232094
0.000238271
0.000242412
0.000245785
0.00024465
0.000236015
0.00024419
0.000284548
0.000311884
0.000323917
0.000329288
0.000316536
0.000317837
0.000336592
0.000353205
0.000300336
0.000328073
0.000251663
0.000196587
0.000144366
0.000148541
0.000155035
0.000158014
0.000166387
0.000172129
0.00017699
0.000173718
0.000186134
0.000186192
0.000218827
0.000228561
0.000249296
0.000258936
0.000270802
0.000275802
0.000275846
0.000285014
0.00026203
0.000297543
7.29446e-05
8.72178e-05
9.81768e-05
0.000101405
0.000120899
0.000125002
0.00013539
0.000148656
0.000150363
0.000138423
0.000142456
0.000148357
0.000155067
0.000161141
0.000168253
0.000178224
0.000175081
0.000181081
0.000193772
0.000211497
6.42261e-05
7.8316e-05
8.33426e-05
8.64862e-05
9.03344e-05
8.10499e-05
8.44497e-05
0.000101498
0.00012279
0.000126039
0.000129506
0.000134874
0.000151301
0.000158861
0.00017178
0.000169106
0.000163119
0.000184425
0.000196785
0.000205161
8.60025e-05
9.08823e-05
9.44221e-05
9.50991e-05
9.58338e-05
0.000101208
0.000107153
0.000103118
0.000113859
0.000134072
0.000145701
0.000147517
0.000147602
0.000146231
0.000148389
0.000150975
0.000159998
0.000165895
0.000179037
0.000194477
0.000103224
0.000105192
0.000106003
0.000109441
0.000114764
0.000116268
0.000119727
0.000130409
0.000137002
0.000132217
0.00012833
0.000131679
0.000142147
0.00014726
0.000152553
0.000155058
0.000155916
0.000156757
0.000153398
0.000169588
0.000115598
0.000117152
0.000120426
0.00012417
0.000124396
0.000124548
0.000120771
0.000114914
0.000118186
0.00012597
0.000128106
0.000127703
0.000129683
0.000132023
0.000137384
0.000141371
0.000145327
0.000146199
0.000148826
0.00015637
0.000103403
0.000107083
0.000109548
0.000110673
0.000114931
0.00011966
0.000126525
0.000129771
0.000122955
0.000119778
0.000123742
0.000124436
0.000121873
0.000120873
0.000119816
0.000119584
0.000120828
0.00012481
0.00012436
0.000132002
0.000105759
0.000103078
0.000101854
0.000101229
9.89157e-05
9.68457e-05
9.61564e-05
9.99016e-05
0.00010593
0.000109194
0.00011184
0.000114396
0.000117895
0.000121361
0.000122599
0.000123403
0.000123157
0.000123371
0.000123501
0.000130985
7.78886e-05
7.9151e-05
7.86399e-05
7.82174e-05
7.85377e-05
7.92813e-05
8.01215e-05
8.09427e-05
8.39314e-05
7.737e-05
6.64795e-05
6.53471e-05
6.51018e-05
6.46456e-05
6.36381e-05
6.66953e-05
6.91434e-05
7.38588e-05
7.26052e-05
7.71223e-05
5.57158e-05
5.34119e-05
5.41911e-05
5.52761e-05
5.46106e-05
5.23518e-05
4.91497e-05
4.58787e-05
4.33606e-05
4.72006e-05
5.21753e-05
5.13887e-05
4.928e-05
4.83887e-05
4.45755e-05
4.04199e-05
3.57598e-05
3.41741e-05
3.22825e-05
3.20828e-05
2.93768e-05
2.91219e-05
2.80099e-05
2.86426e-05
2.94979e-05
3.08755e-05
2.8822e-05
2.70927e-05
2.11528e-05
2.28647e-05
2.36195e-05
2.45579e-05
2.35274e-05
2.26885e-05
2.30333e-05
2.26188e-05
2.22089e-05
2.13797e-05
2.04795e-05
2.35209e-05
0.00100433
0.00119403
0.000910705
0.000980768
0.000988812
0.00101168
0.0010503
0.00108476
0.00112526
0.00115716
0.00119543
0.00122459
0.00129945
0.00131801
0.00139476
0.00139399
0.00149514
0.00129243
0.00517576
0.0188609
0.000938362
0.00105579
0.000865969
0.000973272
0.0010422
0.00107548
0.00109367
0.00112513
0.00116206
0.00119378
0.00123564
0.00126955
0.00131926
0.00135715
0.00144212
0.00144309
0.00153537
0.00129456
0.00443258
0.0184278
0.000960909
0.00111384
0.000851657
0.000923921
0.000975942
0.000997174
0.00103666
0.00108842
0.00112704
0.0011623
0.00121164
0.00125181
0.00132507
0.00134851
0.00140982
0.00139648
0.00152458
0.00128064
0.00390045
0.0179011
0.000988572
0.00110772
0.000874886
0.0010068
0.00105134
0.00106868
0.00109874
0.00113999
0.00116895
0.00122308
0.0012709
0.00131376
0.00135841
0.00138694
0.00146274
0.00148357
0.00158145
0.00141701
0.00494781
0.0172004
0.00105453
0.0011696
0.000944473
0.00102495
0.00102882
0.00104788
0.00109136
0.00112819
0.00116534
0.0012137
0.00125167
0.0012935
0.00133935
0.00136659
0.00143646
0.00144563
0.00159928
0.00145793
0.0050086
0.0165706
0.00104786
0.00116559
0.000934778
0.000986886
0.00103427
0.001083
0.001105
0.00114319
0.00118474
0.00124496
0.00127442
0.00130409
0.00133878
0.00139264
0.00147304
0.00152417
0.00164654
0.00154247
0.00473586
0.0157652
0.00107686
0.00113954
0.000901296
0.000994551
0.00103898
0.0010603
0.00109958
0.00115193
0.00120409
0.00122885
0.00121696
0.00126763
0.00132466
0.00138608
0.00146204
0.00149728
0.00163263
0.00151509
0.00382636
0.0146471
0.00101465
0.00104684
0.000901621
0.00101394
0.0010542
0.00110742
0.00113673
0.00117575
0.00118295
0.00116341
0.00120632
0.00130127
0.00134462
0.00142821
0.00147811
0.00153753
0.00159825
0.00154936
0.0029137
0.0120265
0.00100765
0.00108348
0.000994591
0.00105989
0.00109614
0.00109823
0.00108561
0.00110585
0.00109208
0.00115418
0.00126191
0.00132362
0.00134952
0.00140724
0.00142577
0.00147158
0.00150977
0.00153899
0.00229391
0.00952104
0.00103541
0.00110336
0.000965541
0.00100065
0.00101084
0.000994221
0.00102849
0.0010702
0.00113334
0.00125508
0.00128871
0.00128734
0.00130144
0.00137255
0.00140289
0.00146402
0.00149512
0.00157674
0.00203967
0.00766951
0.00102634
0.00102043
0.000886795
0.000946286
0.000948518
0.000987507
0.0010539
0.00111651
0.001167
0.00117563
0.00116207
0.00120477
0.00129841
0.00140301
0.00139025
0.00144871
0.00151302
0.00160097
0.00175144
0.00618633
0.00093269
0.000902218
0.000859804
0.000917838
0.000964008
0.00104168
0.00108902
0.00112565
0.00113638
0.00118847
0.00124748
0.00135385
0.00142379
0.00138399
0.0013394
0.00148526
0.00152926
0.00160537
0.00168458
0.00515106
0.00092095
0.000974125
0.000965456
0.00102395
0.00109954
0.0011254
0.00114509
0.00115368
0.00118806
0.00123909
0.00126297
0.00130949
0.00123772
0.00122391
0.00133806
0.00152643
0.00151878
0.00157784
0.00154328
0.00435641
0.000972467
0.00104669
0.000982395
0.00103455
0.00104588
0.00103427
0.00105304
0.00107244
0.00112748
0.00114663
0.00119256
0.00121289
0.00124722
0.00144491
0.00162674
0.0016417
0.00149896
0.00152345
0.00154171
0.00421156
0.000980784
0.00102114
0.000951759
0.00101049
0.00100957
0.00104957
0.00108818
0.00114256
0.00119026
0.00123301
0.00128918
0.00131161
0.00142572
0.00147794
0.0014152
0.00129633
0.00129157
0.00147191
0.00158719
0.00430953
0.000943258
0.000974228
0.000935285
0.000987804
0.00101469
0.00105867
0.0010902
0.00113279
0.00115857
0.001189
0.00120972
0.00125528
0.00130513
0.00126154
0.00128113
0.00132716
0.0015707
0.00167822
0.00185175
0.00441126
0.000918223
0.000978426
0.00094212
0.00100823
0.00105447
0.00108436
0.00112373
0.00115125
0.00117967
0.00119988
0.00124068
0.00126526
0.00127555
0.00130953
0.00138024
0.00147292
0.0015588
0.00149592
0.00183321
0.00344646
0.000924158
0.000968601
0.000945092
0.00101101
0.00102992
0.00106167
0.00108671
0.00112197
0.00115808
0.00120563
0.00125683
0.00129426
0.00136601
0.00141111
0.00149907
0.00153246
0.00161402
0.00160598
0.00171381
0.00201984
0.000936917
0.000997631
0.000961207
0.00101888
0.00104244
0.00107652
0.00109853
0.00116032
0.00117679
0.00124539
0.00126133
0.00133638
0.00135691
0.00143329
0.00146739
0.00156813
0.00152129
0.00170519
0.000885626
0.000893351
0.000937237
0.000983315
0.000957125
0.00100969
0.0010443
0.00107403
0.0011107
0.00113993
0.00118196
0.00122361
0.00125548
0.00129884
0.00135407
0.00141141
0.00147404
0.00151839
0.00158896
0.00166022
0.0015838
0.00215486
0.000651036
0.000679913
0.000535135
0.000484262
0.000503234
0.00050809
0.000538278
0.000496748
0.000462543
0.000516906
0.000551766
0.000543909
0.000481222
0.000245937
0.000122857
0.00272791
0.00810655
0.0118929
0.0095219
0.00202192
0.000651475
0.000705825
0.000562711
0.000521039
0.000599543
0.000545182
0.000518995
0.000522183
0.000562721
0.000516659
0.000524542
0.000630472
0.000578866
0.000382353
0.000201177
0.00104529
0.0063216
0.0115941
0.0106647
0.00449182
0.000628876
0.000730574
0.000653319
0.000513757
0.00056879
0.000599543
0.000605439
0.000530055
0.00053182
0.000599283
0.000593177
0.000573515
0.000666927
0.000600708
0.000329746
0.000224989
0.00407296
0.0106346
0.0118644
0.00632394
0.000638033
0.000726122
0.000678604
0.000590526
0.000628832
0.000587856
0.000609762
0.000629415
0.000625097
0.000591187
0.000627813
0.000691453
0.000714987
0.000692396
0.000499668
0.00033677
0.00206896
0.00965276
0.0125112
0.00825901
0.00062755
0.000742761
0.000741383
0.000582554
0.000645697
0.000660279
0.000649741
0.000593644
0.000628844
0.0006868
0.000668345
0.000676647
0.000742029
0.000804395
0.000716588
0.000433575
0.000797486
0.00866227
0.0128693
0.0104731
0.000621634
0.000700661
0.000743023
0.000643916
0.000667209
0.000645694
0.000687317
0.000699917
0.000680278
0.000671875
0.000718409
0.000779022
0.000796951
0.000841802
0.000807922
0.000527237
0.000349244
0.00727939
0.0128659
0.013058
0.000650925
0.000737034
0.000783291
0.000641306
0.000708771
0.000704597
0.000697797
0.000676951
0.000721782
0.000763419
0.000753173
0.000769081
0.000828551
0.000895586
0.000902935
0.000696785
0.00030823
0.00511388
0.0128927
0.0153714
0.000632298
0.00067875
0.000766405
0.000676681
0.00070566
0.000696474
0.000736042
0.000742674
0.000732722
0.00074518
0.000784723
0.000852746
0.000892027
0.000913347
0.000967271
0.000874012
0.000158489
0.00340131
0.0127128
0.0162932
0.000663083
0.000717096
0.000802202
0.000671678
0.000740972
0.000737502
0.00074306
0.000753984
0.000795181
0.000825956
0.000839027
0.000865827
0.000916249
0.000988734
0.00101943
0.000988761
0.000218314
0.002325
0.0123463
0.0170618
0.000662205
0.000707884
0.000824294
0.000714122
0.000747542
0.000745919
0.000779987
0.000787228
0.000795896
0.000820315
0.000849296
0.00092206
0.000973007
0.00100429
0.00105686
0.00107592
0.000496851
0.00153111
0.0120813
0.0180531
0.000718428
0.00074964
0.000847707
0.000712857
0.000778912
0.000777636
0.000791235
0.000818342
0.000851453
0.000873832
0.000913811
0.000954469
0.000988295
0.00107206
0.00109021
0.00114021
0.000660102
0.00115602
0.0116387
0.0185098
0.000725524
0.000736672
0.000858439
0.000755204
0.000785766
0.000791418
0.000827202
0.000838863
0.000860111
0.000894754
0.000924583
0.0009877
0.00104706
0.00109097