/*--------------------------------*- C++ -*----------------------------------*\
  =========                 |
  \\      /  F ield         | OpenFOAM: The Open Source CFD Toolbox
   \\    /   O peration     | Website:  https://openfoam.org
    \\  /    A nd           | Version:  9
     \\/     M anipulation  |
\*---------------------------------------------------------------------------*/
FoamFile
{
    format      ascii;
    class       volScalarField;
    location    "9.7";
    object      p;
}
// * * * * * * * * * * * * * * * * * * * * * * * * * * * * * * * * * * * * * //

dimensions      [0 2 -2 0 0 0 0];

internalField   nonuniform List<scalar> 
46400
(
-73.146
-63.8184
-46.125
-31.8841
-18.5157
-6.32528
4.67246
14.8889
24.1463
32.7557
40.6556
48.0161
54.8625
61.2822
67.3468
73.1445
78.5553
84.0634
90.1559
92.5992
-38.7652
-29.5795
-13.5145
-0.153431
11.9354
23.1895
33.1986
42.5137
50.92
58.6878
65.7713
72.3009
78.3138
83.8549
89.0051
93.7832
98.1248
102.426
106.7
108.046
-3.80145
5.35179
19.7365
31.8251
42.6523
52.7
61.6285
69.8893
77.3227
84.1787
90.4182
96.1475
101.414
106.243
110.685
114.782
118.436
122.009
125.324
125.502
31.4025
39.2426
51.7409
62.8171
72.412
81.4764
89.4131
96.7681
103.325
109.311
114.722
119.617
124.079
128.11
131.808
135.154
138.135
141.011
143.878
143.819
65.5199
71.8154
83.0917
93.1197
101.743
109.745
116.734
123.119
128.792
133.922
138.54
142.686
146.442
149.794
152.815
155.535
157.868
160.133
162.319
161.805
97.0667
102.522
113.109
122.236
129.94
137.08
143.198
148.737
153.604
157.91
161.75
165.109
168.119
170.764
173.126
175.195
176.966
178.638
180.346
179.505
127.683
133.272
142.948
151.113
157.755
163.868
169.034
173.622
177.636
181.149
184.249
186.953
189.311
191.351
193.114
194.644
195.875
197.021
198.356
197.281
157.412
163.724
171.842
178.95
184.546
189.623
193.913
197.599
200.786
203.47
205.791
207.733
209.408
210.806
211.998
212.97
213.729
214.419
215.264
214.12
187.156
194.324
200.257
206.031
210.448
214.33
217.59
220.323
222.65
224.567
226.16
227.448
228.46
229.228
229.792
230.174
230.341
230.474
230.713
229.236
215.679
222.208
226.975
231.276
234.834
237.715
240.138
242.021
243.549
244.691
245.555
246.145
246.546
246.742
246.79
246.677
246.401
246.099
245.896
244.22
243.064
247.999
251.642
254.706
257.168
259.096
260.627
261.733
262.547
263.032
263.296
263.298
263.104
262.727
262.217
261.584
260.798
260.015
259.299
257.396
266.919
270.881
273.737
275.923
277.693
278.892
279.762
280.172
280.333
280.188
279.848
279.299
278.607
277.749
276.779
275.697
274.489
273.264
272.091
269.888
288.258
291.333
293.436
294.756
295.783
296.257
296.51
296.359
296.017
295.366
294.55
293.515
292.36
291.056
289.669
288.185
286.62
285.048
283.555
281.165
307.306
309.691
311.252
311.976
312.436
312.313
311.949
311.208
310.315
309.172
307.9
306.445
304.898
303.214
301.459
299.608
297.675
295.726
293.846
291.237
323.552
325.297
326.315
326.482
326.516
325.972
325.275
324.18
322.885
321.333
319.652
317.822
315.891
313.877
311.802
309.679
307.491
305.31
303.242
300.487
338.173
339.251
339.76
339.427
338.878
337.837
336.656
335.185
333.577
331.748
329.79
327.676
325.483
323.182
320.829
318.42
315.956
313.496
311.153
308.236
350.526
350.716
350.833
350.049
349.198
347.826
346.238
344.407
342.407
340.266
338.007
335.658
333.219
330.728
328.189
325.618
323.005
320.393
317.912
314.913
360.567
360.361
359.834
358.832
357.58
355.998
354.19
352.121
349.901
347.515
345.034
342.438
339.789
337.061
334.308
331.52
328.706
325.892
323.23
320.11
366.599
366.64
365.929
364.826
363.322
361.585
359.57
357.352
354.973
352.442
349.819
347.102
344.335
341.506
338.668
335.794
332.917
330.026
327.316
324.128
371.271
371.402
370.726
369.536
368.012
366.104
363.995
361.635
359.115
356.433
353.653
350.774
347.847
344.871
341.872
338.87
335.843
332.839
330.004
326.754
-337.745
-337.19
-334.996
-325.91
-314.383
-302.548
-291.088
-279.896
-269.123
-258.63
-248.512
-238.722
-229.329
-220.196
-211.536
-203.015
-195.051
-187.192
-179.875
-172.879
-353.824
-353.263
-347.633
-335.577
-321.368
-307.486
-294.7
-282.112
-270.168
-258.817
-247.908
-237.482
-227.518
-217.922
-208.849
-199.961
-191.728
-183.573
-176.1
-168.852
-370.161
-369.344
-359.499
-344.495
-327.677
-311.925
-297.32
-283.562
-270.505
-258.168
-246.475
-235.353
-224.792
-214.695
-205.181
-195.939
-187.386
-178.949
-171.286
-163.808
-382.223
-381.505
-367.072
-349.754
-331.25
-314.143
-298.214
-283.449
-269.559
-256.503
-244.144
-232.469
-221.417
-210.907
-201.014
-191.455
-182.661
-173.967
-166.184
-158.483
-390.473
-387.924
-369.483
-350.786
-331.667
-313.834
-297.135
-281.554
-266.961
-253.261
-240.357
-228.196
-216.72
-205.86
-195.647
-185.833
-176.793
-167.872
-159.946
-152.038
-393.444
-389.075
-372.156
-350.723
-330.394
-311.519
-294.063
-277.826
-262.634
-248.463
-235.125
-222.594
-210.811
-199.687
-189.233
-179.259
-170.1
-161.018
-153.133
-145.057
-393.274
-388.06
-367.787
-346.31
-325.597
-306.178
-288.355
-271.736
-256.199
-241.689
-228.081
-215.309
-203.31
-192.019
-181.416
-171.336
-162.028
-152.886
-144.974
-136.73
-387.307
-383.119
-363.483
-339.99
-319.005
-299.135
-280.76
-263.808
-247.944
-233.198
-219.386
-206.459
-194.362
-183.003
-172.376
-162.315
-153.039
-143.947
-136.134
-127.871
-380.266
-375.288
-354.394
-330.681
-308.763
-288.735
-270.191
-253.094
-237.172
-222.369
-208.548
-195.598
-183.483
-172.131
-161.474
-151.445
-142.139
-133.091
-125.334
-117.023
-368.201
-362.802
-341.449
-317.602
-296.133
-276.103
-257.57
-240.544
-224.634
-209.886
-196.128
-183.286
-171.303
-160.088
-149.615
-139.763
-130.635
-121.77
-114.228
-105.934
-354.111
-347.48
-325.548
-301.963
-280.197
-260.472
-242.035
-225.153
-209.47
-194.903
-181.352
-168.682
-156.876
-145.842
-135.523
-125.881
-116.896
-108.259
-100.914
-92.7294
-335.04
-328.083
-306.021
-283.019
-261.955
-242.612
-224.619
-208.105
-192.734
-178.501
-165.268
-152.931
-141.443
-130.713
-120.706
-111.347
-102.637
-94.2767
-87.1953
-79.0821
-314.489
-306.672
-284.655
-261.962
-241.066
-222.251
-204.608
-188.487
-173.547
-159.68
-146.832
-134.848
-123.726
-113.354
-103.701
-94.7212
-86.3224
-78.3625
-71.5997
-63.7062
-289.732
-281.837
-259.833
-238.304
-218.108
-199.975
-183.043
-167.487
-153.09
-139.757
-127.402
-115.891
-105.203
-95.2344
-85.9696
-77.3585
-69.3167
-61.7214
-55.2785
-47.5633
-263.638
-255.43
-233.313
-212.778
-193.15
-175.622
-159.294
-144.324
-130.502
-117.688
-105.869
-94.8707
-84.7
-75.2318
-66.452
-58.315
-50.6891
-43.5913
-37.5165
-30.0381
-234.875
-226.682
-204.521
-185.124
-166.548
-149.863
-134.366
-120.115
-106.985
-94.8147
-83.5756
-73.116
-63.4387
-54.4321
-46.1032
-38.3984
-31.1823
-24.518
-18.8007
-11.5755
-204.763
-196.2
-174.833
-156.234
-138.555
-122.629
-107.901
-94.3408
-81.8904
-70.3454
-59.7431
-49.8876
-40.7966
-32.3458
-24.5362
-17.3304
-10.5708
-4.43346
0.886431
7.83937
-173.186
-164.619
-143.902
-126.298
-109.562
-94.5357
-80.6691
-67.8998
-56.1986
-45.3404
-35.3543
-26.0825
-17.525
-9.58989
-2.28714
4.4603
10.7768
16.3759
21.2186
27.7923
-140.493
-131.553
-111.649
-95.2225
-79.5658
-65.4169
-52.4676
-40.4731
-29.54
-19.3843
-10.0778
-1.4256
6.55827
13.9667
20.7945
27.1382
33.0602
38.0866
42.6011
49.6923
-107.249
-98.3795
-79.5666
-63.9761
-49.3772
-36.1048
-24.039
-12.854
-2.64945
6.84609
15.5832
23.7287
31.3112
38.3969
45.0523
51.4065
57.2895
62.7017
68.5352
75.8467
-138.596
-100.691
-64.2856
-43.4195
-20.6664
-6.41579
7.26268
17.7095
25.9526
33.8805
38.8591
44.9711
47.8819
52.5396
54.3698
57.8711
59.5241
60.9987
61.796
62.1068
-133.995
-96.9258
-60.4945
-40.4546
-17.8287
-4.15598
9.2671
19.4074
27.4218
35.1752
39.9769
45.9483
48.7072
53.2549
54.9164
58.4303
59.8194
61.4878
61.964
62.3685
-128.179
-92.3916
-56.2212
-37.4335
-15.0656
-1.90657
11.227
21.1004
28.8797
36.4557
41.0871
46.9119
49.5297
53.9491
55.4583
58.9539
60.1191
62.0841
62.2113
62.6889
-122.682
-88.2415
-52.1581
-34.1388
-12.1166
0.52904
13.3172
22.9178
30.4331
37.8386
42.2905
47.9697
50.4321
54.7138
56.0487
59.576
60.4811
62.5862
62.488
62.9912
-115.893
-83.1755
-47.7394
-30.7239
-9.23234
2.95396
15.3703
24.7283
31.9795
39.2087
43.4787
49.0125
51.3348
55.517
56.6505
60.3754
60.8951
63.0655
62.7579
63.2827
-109.339
-78.3696
-43.4035
-27.1258
-6.15686
5.55987
17.5537
26.6616
33.6184
40.6793
44.767
50.153
52.3467
56.3997
57.3568
61.2148
61.4232
63.5091
63.0001
63.5394
-101.384
-72.5545
-38.6842
-23.4518
-3.13817
8.15853
19.7015
28.587
35.2533
42.1341
46.0384
51.2803
53.3393
57.3804
58.2109
61.9917
61.8853
64.0113
63.2424
63.8392
-93.7182
-66.9607
-33.9543
-19.5488
0.0715127
10.9324
21.9801
30.6295
36.9797
43.6885
47.4097
52.4933
54.464
58.4275
59.1187
62.761
62.3146
64.4587
63.4831
64.1184
-84.6328
-60.4103
-28.9072
-15.6022
3.22571
13.7004
24.2248
32.6641
38.7028
45.2231
48.7649
53.696
55.5544
59.3977
59.9732
63.4576
62.7827
64.8699
63.7445
64.4462
-75.6254
-54.0118
-23.7232
-11.3867
6.56798
16.6361
26.5989
34.8061
40.5173
46.854
50.2116
54.9772
56.7691
60.4188
60.8714
64.1852
63.2552
65.333
64.035
64.7642
-65.3005
-46.8156
-18.3366
-7.14145
9.85451
19.5641
28.9439
36.941
42.3282
48.4629
51.6463
56.238
57.9506
61.3725
61.7106
64.9482
63.7629
65.7753
64.3336
65.1006
-54.7779
-39.6403
-12.7442
-2.6055
13.3205
22.645
31.4116
39.1701
44.2286
50.1619
53.1632
57.5794
59.2345
62.3714
62.7109
65.7574
64.2977
66.2378
64.6561
65.4596
-43.0347
-31.8264
-7.05751
1.95692
16.7381
25.7164
33.8589
41.3924
46.1249
51.839
54.6701
58.9017
60.475
63.4169
63.6042
66.5739
64.8776
66.7048
65
65.8502
-30.9032
-23.94
-1.13831
6.81441
20.3365
28.9288
36.4269
43.7015
48.111
53.6007
56.251
60.3017
61.7678
64.5579
64.5598
67.4331
65.4911
67.1764
65.3566
66.2714
-17.5921
-15.5958
4.70712
11.6391
23.8634
32.1075
38.9701
45.9955
50.0895
55.3407
57.8236
61.6898
63.042
65.6847
65.4967
68.2726
66.1455
67.6622
65.7379
66.7254
-3.38462
-6.85353
10.8041
16.7232
27.5389
35.372
41.5944
48.3386
52.13
57.139
59.447
63.1346
64.3765
66.8683
66.3969
69.1237
66.8598
68.1132
66.1421
67.2229
11.519
2.47541
17.07
22.0695
31.3867
38.7683
44.3242
50.7528
54.221
58.9624
61.0997
64.5888
65.7122
68.0336
67.41
70.0892
67.6131
68.559
66.4803
67.6753
25.9445
11.0986
22.9293
27.2337
35.2155
42.1698
47.1243
53.2422
56.4143
60.8775
62.8236
66.1411
67.1499
69.3158
68.5883
71.1093
68.3575
69.468
66.8964
68.2579
46.3107
20.5467
27.4615
31.0697
38.0232
44.7077
49.2496
55.1973
58.2179
62.4687
64.2882
67.4962
68.4247
70.4346
69.6018
72.0234
69.0086
69.6396
67.0138
68.5635
70.4766
36.1181
36.7795
39.0048
43.3604
48.948
52.5448
57.8886
60.4709
64.4345
66.1033
68.9569
69.7458
71.7023
70.8243
73.0515
69.9463
69.1093
66.3398
69.1188
106.591
117.477
102.292
98.9475
89.9299
89.3871
84.9136
84.6784
82.5223
82.9985
82.0423
82.617
81.8337
82.8987
81.77
83.1413
80.7646
82.9791
77.4922
85.9582
167.686
159.114
133.749
128.404
115.802
111.141
104.246
100.934
97.0643
94.7354
92.5314
91.4582
90.1245
89.6214
88.2125
88.4747
86.2911
87.2423
84.097
86.969
173.929
165.218
152.395
144.531
136.117
130.39
124.814
120.981
117.24
114.747
111.905
110.118
108.253
107.101
106.07
105.09
104.851
104.208
104.21
104.978
180.655
173.662
163.35
156.198
148.477
142.573
136.829
132.244
127.895
124.367
121.182
118.456
115.931
113.863
112.133
110.934
109.931
109.116
108.896
108.737
174.477
166.938
162.013
156.569
151.854
147.24
143.142
139.434
136.054
133.138
130.378
128.119
125.966
124.053
122.289
120.605
119.291
117.747
117.116
117.026
174.837
171.494
166.165
162.035
157.595
153.743
149.727
146.326
142.792
139.873
136.85
134.327
131.735
129.573
127.46
125.426
123.825
122.304
121.271
120.938
169.701
166.346
164.34
161.156
158.34
155.395
152.614
149.985
147.345
145.033
142.559
140.52
138.187
136.318
134.08
132.277
130.081
128.196
126.865
126.258
170.797
168.83
166.136
163.581
161.162
158.805
156.281
154.061
151.561
149.479
147.055
145.092
142.719
140.824
138.442
136.491
133.972
131.933
129.776
129.169
169.004
167.524
166.219
164.66
162.613
160.95
158.953
157.347
155.376
153.853
151.867
150.424
148.335
146.918
144.595
143.091
140.268
138.606
135.815
135.235
169.779
168.743
167.101
165.849
164.384
163.094
161.513
160.22
158.627
157.347
155.726
154.482
152.742
151.516
149.483
148.227
145.433
144.28
140.466
140.39
170.237
169.477
168.565
167.707
166.488
165.671
164.478
163.674
162.517
161.77
160.599
159.928
158.691
158.111
156.62
156.213
153.794
154.278
149.696
151.679
170.533
170
169.204
168.721
167.887
167.372
166.55
166.059
165.29
164.867
164.214
163.897
163.383
163.184
162.822
162.815
162.496
162.72
163.375
165.206
171.933
171.645
171.072
170.775
170.215
169.978
169.47
169.344
168.927
168.954
168.695
168.863
168.905
169.191
169.778
170.045
171.589
171.567
174.728
175.208
172.503
172.331
171.895
171.775
171.365
171.332
170.969
171.079
170.79
171.164
170.989
171.692
171.797
172.879
173.384
175.083
176.067
178.52
181.336
182.611
173.729
173.654
173.408
173.407
173.231
173.367
173.265
173.598
173.593
174.15
174.281
175.24
175.489
176.938
177.765
179.615
180.79
183.72
184.972
189.347
174.324
174.315
174.146
174.19
174.064
174.249
174.195
174.611
174.593
175.238
175.258
176.197
176.323
177.764
178.132
180.024
180.598
183.473
184.013
197.432
175.134
175.151
175.103
175.255
175.299
175.556
175.602
175.973
176.071
176.75
176.812
178.008
178.285
179.92
180.166
182.458
182.814
186.458
186.322
189.609
175.463
175.488
175.466
175.538
175.648
175.903
176.054
176.48
176.624
177.226
177.376
178.151
178.365
179.315
179.558
180.727
180.818
188.343
185.544
191.684
176.072
176.136
176.136
176.356
176.428
176.642
176.766
177.092
177.227
177.81
177.927
178.793
178.959
180.001
180.203
181.429
181.639
183.105
183.172
183.526
176.177
176.249
176.268
176.434
176.502
176.727
176.904
177.227
177.476
177.918
178.214
178.804
179.091
179.84
180.077
180.903
181.044
188.087
185.162
189.751
288.169
286.656
284.584
281.766
278.232
274.087
269.065
263.586
257.042
250.118
242.236
232.69
223.867
213.199
202.252
191.038
179.211
166.79
154.147
141.202
261.499
260.837
259.815
258.524
256.851
255.003
252.602
250.3
247.115
244.125
238.672
233.481
229.604
225.247
221.291
216.586
212.012
206.829
200.391
193.229
221.585
221.166
220.561
219.869
219.02
218.025
216.909
215.654
214.116
212.642
210.555
208.966
206.473
204.106
200.484
196.883
193.543
190.523
187.335
185.288
210.121
209.864
209.491
209.127
208.57
208.091
207.324
206.691
205.744
204.964
203.813
202.953
201.621
200.674
198.569
196.038
193.797
191.754
189.82
188.124
193.072
192.821
192.524
192.188
191.802
191.386
190.892
190.408
189.791
189.256
188.489
187.887
186.895
186.122
184.706
183.588
181.584
180.112
178.248
176.781
187.994
187.796
187.577
187.342
187.07
186.803
186.471
186.173
185.762
185.421
184.92
184.541
183.963
183.574
182.882
182.331
181.142
179.889
178.861
177.841
180.437
180.246
180.056
179.824
179.592
179.316
179.029
178.71
178.334
177.992
177.499
177.125
176.505
176
175.32
174.683
173.541
172.668
171.669
170.846
178.226
178.052
177.873
177.679
177.483
177.27
177.035
176.767
176.47
176.151
175.818
175.458
175.106
174.698
174.232
173.896
173.368
172.865
172.442
172.129
175.021
174.876
174.724
174.55
174.364
174.147
173.916
173.675
173.44
173.192
172.943
172.675
172.33
171.949
171.586
171.248
170.833
170.501
170.107
169.785
174.008
173.885
173.762
173.622
173.481
173.333
173.185
173.026
172.85
172.667
172.488
172.296
172.106
171.905
171.703
171.491
171.275
171.049
170.798
170.565
173.486
173.4
173.317
173.224
173.125
173.01
172.891
172.759
172.626
172.479
172.329
172.169
172.004
171.832
171.655
171.474
171.282
171.106
170.913
170.745
173.61
173.541
173.457
173.362
173.258
173.146
173.027
172.902
172.77
172.627
172.48
172.33
172.186
172.036
171.885
171.722
171.541
171.364
171.104
170.887
174.061
173.993
173.923
173.85
173.775
173.697
173.617
173.533
173.447
173.357
173.265
173.168
173.071
172.969
172.866
172.758
172.651
172.535
172.42
172.295
174.282
174.218
174.152
174.084
174.014
173.943
173.87
173.794
173.718
173.639
173.56
173.477
173.395
173.309
173.223
173.135
173.045
172.956
172.862
172.772
174.994
174.943
174.891
174.838
174.785
174.731
174.677
174.622
174.566
174.509
174.452
174.395
174.336
174.277
174.218
174.156
174.096
174.033
173.97
173.907
175.309
175.259
175.21
175.161
175.113
175.065
175.018
174.971
174.924
174.878
174.832
174.787
174.742
174.698
174.653
174.61
174.566
174.525
174.481
174.442
175.882
175.84
175.799
175.758
175.718
175.679
175.64
175.602
175.565
175.529
175.493
175.459
175.425
175.392
175.36
175.329
175.299
175.271
175.243
175.218
176.092
176.052
176.017
175.984
175.954
175.925
175.898
175.872
175.846
175.82
175.793
175.767
175.741
175.715
175.686
175.655
175.622
175.592
175.56
175.533
176.482
176.433
176.39
176.351
176.315
176.282
176.252
176.224
176.198
176.176
176.156
176.135
176.112
176.094
176.079
176.07
176.063
176.059
176.057
176.06
176.578
176.538
176.5
176.464
176.429
176.397
176.366
176.337
176.31
176.285
176.26
176.24
176.222
176.204
176.191
176.179
176.171
176.166
176.166
176.17
146.078
144.816
140.611
137.07
133.677
130.05
126.241
122.249
117.955
113.316
108.302
102.774
96.8005
90.1365
82.9676
74.7577
66.086
56.1198
44.5888
37.0965
160.326
160.146
157.524
154.958
152.354
149.476
146.376
142.996
139.307
135.262
130.83
125.952
120.637
114.694
108.254
100.945
93.232
84.2316
74.3426
67.5948
174.881
175.514
173.665
171.698
169.736
167.498
164.989
162.268
159.239
155.892
152.189
148.043
143.456
138.255
132.573
125.964
118.928
110.524
101.527
96.9498
190.322
191.49
190.297
189.007
187.672
186.045
184.189
182.099
179.702
176.998
173.925
170.449
166.53
162.041
157.029
151.18
144.846
137.175
128.31
123.864
206.167
207.489
206.503
205.622
204.689
203.546
202.192
200.655
198.843
196.775
194.377
191.622
188.447
184.767
180.627
175.674
170.284
163.443
155.734
150.42
221.286
222.744
222.218
221.828
221.417
220.802
220.03
219.081
217.882
216.46
214.717
212.672
210.234
207.393
204.079
200.114
195.727
190.114
183.812
178.013
235.497
237.144
237.032
237.076
237.087
236.941
236.645
236.209
235.551
234.706
233.591
232.242
230.559
228.547
226.109
223.137
219.771
215.211
210.771
204.733
248.984
250.813
251.086
251.576
252.062
252.4
252.622
252.719
252.617
252.379
251.902
251.256
250.292
249.068
247.397
245.385
242.854
239.68
236.48
230.947
261.394
263.443
264.176
265.068
265.92
266.648
267.263
267.775
268.154
268.437
268.524
268.444
268.064
267.443
266.439
265.144
263.338
261.167
258.464
254.572
272.685
274.889
276.004
277.259
278.506
279.684
280.786
281.846
282.788
283.634
284.271
284.751
284.94
284.954
284.58
283.959
282.863
281.413
279.396
276.264
283.3
285.668
287.144
288.75
290.359
291.896
293.369
294.769
296.035
297.195
298.181
299.051
299.689
300.162
300.26
300.2
299.594
298.784
297.209
294.853
292.28
294.8
296.642
298.6
300.579
302.514
304.405
306.242
307.99
309.668
311.204
312.645
313.823
314.831
315.494
315.983
315.971
315.719
314.716
312.92
300.975
303.826
306.045
308.352
310.641
312.857
314.996
317.054
319.021
320.865
322.573
324.113
325.445
326.666
327.619
328.408
328.643
328.733
327.985
326.838
308.093
311.051
313.378
315.834
318.277
320.701
323.073
325.45
327.751
330.032
332.199
334.305
336.263
338.106
339.689
341.011
341.791
342.438
342.272
341.868
315.011
318.145
320.664
323.333
326.012
328.643
331.256
333.814
336.314
338.711
340.999
343.142
345.117
346.851
348.321
349.539
350.511
351.354
351.561
351.631
319.687
322.833
325.399
328.168
330.949
333.714
336.472
339.206
341.907
344.545
347.128
349.607
351.986
354.211
356.265
358.128
359.806
361.148
362.049
362.128
324.449
327.751
330.379
333.277
336.166
339.074
341.926
344.791
347.562
350.3
352.921
355.44
357.822
360.028
362.069
363.875
365.412
366.617
367.412
367.501
326.511
329.692
332.438
335.366
338.338
341.276
344.234
347.169
350.09
352.96
355.79
358.52
361.17
363.647
365.994
368.034
369.832
371.149
372.104
372.356
328.153
331.54
334.335
337.371
340.41
343.454
346.473
349.504
352.466
355.413
358.235
361.007
363.581
366.062
368.234
370.248
371.782
373.157
373.693
374.729
328.002
331.33
334.073
337.06
340.047
343.036
346.01
348.984
351.916
354.807
357.632
360.362
362.991
365.443
367.754
369.744
371.549
372.911
373.77
374.49
-98.3361
-103.495
-109.013
-114.707
-120.433
-126.541
-132.655
-139.112
-145.62
-152.404
-159.306
-166.482
-173.699
-181.152
-188.57
-196.089
-201.948
-205.423
-207.7
-207.898
-92.9538
-98.2531
-103.737
-109.552
-115.337
-121.554
-127.769
-134.358
-141.042
-147.975
-155.138
-162.45
-170.127
-177.772
-186.095
-193.686
-200.978
-207.078
-208.128
-209.055
-87.0855
-92.4207
-97.9604
-103.92
-109.833
-116.251
-122.712
-129.565
-136.586
-143.94
-151.508
-159.414
-167.551
-175.975
-184.736
-193.694
-202.519
-210.137
-212.605
-213.739
-81.0155
-86.4509
-91.9798
-98.0674
-104.066
-110.591
-117.211
-124.25
-131.516
-139.11
-147.096
-155.388
-164.14
-173.405
-182.981
-193.207
-203.904
-213.167
-218.619
-219.675
-74.2255
-79.7615
-85.3122
-91.5178
-97.6438
-104.353
-111.184
-118.468
-126.044
-134.042
-142.396
-151.205
-160.523
-170.318
-180.675
-191.853
-203.719
-214.235
-223.059
-224.306
-67.0912
-72.7158
-78.2432
-84.518
-90.7039
-97.4724
-104.436
-111.845
-119.607
-127.776
-136.45
-145.58
-155.307
-165.562
-176.681
-188.452
-201.099
-212.847
-224.583
-226.905
-58.9699
-64.6744
-70.1623
-76.4756
-82.72
-89.5989
-96.6865
-104.269
-112.242
-120.709
-129.644
-139.132
-149.221
-159.953
-171.477
-183.698
-196.567
-209.604
-222.612
-224.546
-50.5897
-56.3254
-61.642
-68.04
-74.2318
-81.0804
-88.2215
-95.821
-103.878
-112.425
-121.563
-131.267
-141.695
-152.823
-164.875
-177.802
-191.689
-207.007
-218.868
-220.521
-41.2061
-46.797
-51.9335
-58.1449
-64.3037
-71.0691
-78.1845
-85.8145
-93.9138
-102.583
-111.81
-121.677
-132.286
-143.661
-155.972
-169.302
-183.853
-199.275
-213.211
-216.12
-30.3352
-36.0073
-41.0943
-47.2516
-53.4067
-60.1352
-67.248
-74.8352
-82.9246
-91.5655
-100.815
-110.71
-121.394
-132.793
-145.254
-158.667
-173.126
-188.983
-203.157
-206.459
-18.247
-24.0301
-29.0097
-35.0519
-41.1188
-47.7047
-54.6862
-62.1649
-70.1398
-78.7094
-87.8758
-97.7354
-108.381
-119.833
-132.39
-145.829
-160.677
-176.673
-191.875
-196.228
-5.74919
-11.4596
-16.2397
-22.0626
-27.9649
-34.357
-41.1789
-48.4763
-56.2851
-64.6832
-73.6726
-83.363
-93.8415
-105.073
-117.441
-130.621
-145.17
-160.975
-176.383
-181.255
7.64416
2.09235
-2.40651
-7.92059
-13.5918
-19.7015
-26.2522
-33.2902
-40.8326
-48.9676
-57.7028
-67.1628
-77.3764
-88.44
-100.615
-113.537
-128.097
-143.633
-159.421
-164.948
21.8346
16.478
12.298
7.1383
1.77041
-4.00349
-10.2386
-16.9565
-24.1715
-31.9953
-40.3898
-49.5122
-59.3891
-70.061
-81.8148
-94.3011
-108.444
-123.421
-139.156
-145.061
37.0136
31.8563
28.0227
23.2807
18.2263
12.8234
6.94422
0.59011
-6.26878
-13.6988
-21.712
-30.4591
-39.8838
-50.1997
-61.5097
-73.554
-87.4073
-101.72
-117.527
-123.748
52.9863
48.0378
44.6018
40.3074
35.6355
30.642
25.1834
19.2304
12.8179
5.80827
-1.74987
-10.0214
-18.9851
-28.7845
-39.4873
-50.9895
-64.2241
-77.5193
-93.6754
-100.112
70.0154
65.2586
62.1758
58.4066
54.0591
49.4642
44.3849
38.8486
32.8252
26.2691
19.161
11.3505
2.94703
-6.34461
-16.4105
-27.4023
-39.8722
-52.4148
-68.5098
-75.2943
87.4647
83.023
80.3675
77.1355
73.1783
68.9596
64.3274
59.1962
53.6507
47.5577
40.9549
33.705
25.8413
17.1677
7.77973
-2.56124
-14.1234
-25.9711
-41.4771
-48.6361
106.401
101.946
99.4981
96.6659
93.0477
89.1463
84.8568
80.1581
75.0103
69.3937
63.2842
56.5395
49.2777
41.1952
32.5047
22.7621
12.0848
0.782661
-13.6802
-20.6904
130.938
126.293
122.242
118.824
115.003
110.897
106.631
102.041
97.1512
91.8582
86.1552
79.9392
73.2254
65.7937
57.8075
48.8182
39.118
28.5185
15.1653
8.10062
89.7053
89.4101
89.0044
87.1723
85.6379
83.0714
81.2398
77.9813
74.9874
70.864
65.9931
60.6848
52.6952
45.642
32.5165
22.7384
2.7364
-13.3496
-44.032
-72.2355
89.7832
89.484
89.3391
87.263
85.9932
83.3493
81.7156
78.5374
75.7008
71.6865
66.9944
61.8395
54.0523
47.2416
34.3507
25.1232
5.206
-9.88256
-40.0396
-66.9577
89.9067
89.616
89.7384
87.3775
86.3697
83.6756
82.257
79.1183
76.4158
72.4612
67.9401
62.8686
55.368
48.7194
36.3214
27.3284
7.98653
-5.93603
-35.9043
-61.071
89.9897
89.6596
90.1648
87.4672
86.7586
83.9686
82.7719
79.7287
77.1916
73.3513
69.0355
64.1259
56.905
50.4479
38.3603
29.7352
10.7569
-2.41846
-31.587
-55.0859
90.1219
89.8409
90.6595
87.6434
87.399
84.3357
83.3499
80.37
77.9702
74.1971
70.0717
65.2538
58.3233
52.061
40.5588
32.2346
13.9888
1.84769
-26.8419
-48.5188
90.2169
89.925
91.0735
87.8354
87.9703
84.7385
83.9237
81.0437
78.8074
75.1543
71.2593
66.6279
60.1247
53.8794
42.8207
34.81
17.0266
5.80257
-22.1369
-41.6631
90.3588
90.0173
91.541
88.1252
88.5659
85.2807
84.6073
81.756
79.6493
76.0702
72.3808
67.851
61.5787
55.7
45.1645
37.5267
20.5274
10.2943
-16.8255
-34.1708
90.4759
90.0976
91.9155
88.3496
89.1482
85.8904
85.2936
82.5065
80.546
77.0928
73.6573
69.3165
63.3625
57.6627
47.5879
40.2861
23.9497
14.5899
-11.4677
-26.5814
90.6332
90.2135
92.261
88.6318
89.6709
86.5544
86.0682
83.2871
81.4455
78.078
74.8691
70.6486
65.0677
59.6133
50.0891
43.1914
27.6859
19.2883
-5.70775
-18.7086
90.7745
90.3229
92.5985
88.8527
90.1863
87.1752
86.7851
84.1005
82.389
79.1619
76.2248
72.2025
66.9726
61.7201
52.6783
46.1335
31.4605
23.9803
0.38577
-8.31454
90.9514
90.4231
92.9198
89.1155
90.7465
87.819
87.5142
84.9329
83.3338
80.213
77.5241
73.6461
68.8411
63.7808
55.3466
49.1996
35.3348
28.8928
6.95252
2.24643
91.1229
90.5224
93.2083
89.3206
91.3063
88.464
88.2315
85.7804
84.3146
81.3526
78.9543
75.2982
70.8604
66.0085
58.1091
52.3019
39.3726
34.8429
13.7045
11.7824
91.332
90.6095
93.502
89.5608
91.8963
89.1139
88.9895
86.6443
85.297
82.4646
80.3382
76.8562
72.8528
68.196
60.9377
55.4702
43.4336
40.5372
20.6566
22.2402
91.5248
90.6875
93.871
89.7447
92.5172
89.768
89.7679
87.5215
86.3187
83.6612
81.8458
78.6126
75.0007
70.5457
63.8627
58.6411
47.6439
45.6715
28.1375
33.0957
91.7939
90.6881
94.2045
89.9514
93.1325
90.4566
90.5646
88.4084
87.3188
84.8317
83.3146
80.2928
77.1098
72.8461
66.8124
61.8332
51.8409
50.7898
35.6337
44.826
92.1196
90.5538
94.4087
90.1148
93.6069
91.1449
91.2309
89.2722
88.2837
86.0493
84.8711
82.133
79.3463
75.2627
69.7977
64.9648
56.1089
56.0745
43.8081
57.2157
92.3226
90.2975
94.6736
90.3057
94.6731
91.9727
92.3237
90.2342
89.5661
87.3362
86.4802
83.9913
81.6327
77.7612
72.9791
68.3465
60.6883
61.6959
52.4235
70.2657
93.0369
90.1603
95.4759
90.5024
95.7162
92.8337
93.515
91.2109
90.8872
88.7042
88.2147
86.0427
84.063
80.3886
76.1291
71.5325
64.9467
66.6292
60.2058
82.5797
93.0018
89.9386
95.3816
90.6835
95.7934
93.2897
93.7204
91.7225
91.2605
89.484
89.4045
87.6087
85.8232
82.2853
78.1386
73.3942
67.7532
71.5008
68.8318
99.4784
93.7392
88.6713
95.0458
92.028
97.2604
94.9495
95.2215
93.4583
93.0196
91.2954
91.5092
89.9712
88.8539
85.7077
82.593
78.3596
75.1118
80.5676
85.818
120.562
120.152
92.7598
114.097
109.543
114.135
112.379
115.038
114.22
115.892
113.845
115.254
112.78
116.582
115.205
122.348
123.394
136.516
134.178
161.115
154.934
115.304
112.048
115.656
113.582
116.707
116.3
118.612
118.722
120.999
121.205
124.309
125.296
130.004
132.201
139.539
143.973
156.561
162.211
183.874
192.681
127.51
126.9
127.917
128.477
130.611
131.147
133.044
134.038
135.875
137.179
139.725
141.799
145.685
148.845
154.637
160.021
168.01
175.374
186.684
196.445
130.344
130.499
131.224
132.13
133.313
134.783
136.464
138.198
140.453
142.81
145.82
148.853
152.642
156.951
162.044
167.388
174.098
180.88
189.042
196.193
135.662
135.704
136.508
138.302
140.157
141.825
143.808
145.666
147.801
149.977
152.479
155.084
158.134
161.426
165.01
169.116
173.227
178.002
182.573
188.505
138.036
138.365
139.528
141.336
142.956
144.928
146.923
148.945
151.288
153.556
156.126
158.835
161.692
164.872
167.981
171.648
174.828
178.946
181.76
185.157
141.206
141.851
143.303
145.31
147.484
149.294
151.456
153.16
155.313
157.063
159.24
161.138
163.364
165.467
167.719
170.003
172.194
174.634
176.906
179.474
143.25
143.796
146.083
147.989
150.54
152.194
154.504
156.106
158.255
159.922
161.991
163.757
165.79
167.662
169.611
171.585
173.552
175.634
176.7
178.169
147.918
148.357
151.144
152.488
155.17
156.419
158.55
159.669
161.521
162.636
164.229
165.332
166.769
167.874
169.15
170.211
171.287
172.279
173.663
174.579
152.718
152.687
156.284
157.153
159.601
160.58
162.297
163.255
164.671
165.597
166.891
167.848
169.032
169.948
171.207
172.185
173.159
173.811
174.114
174.6
161.996
160.025
163.846
163.429
165.455
165.733
166.962
167.368
168.331
168.768
169.59
170.042
170.745
171.26
171.703
172.033
172.403
172.795
173.236
173.71
174.996
173.102
172.098
171.675
171.587
171.506
171.563
171.647
171.809
171.947
172.215
172.406
172.764
173.055
173.437
173.796
174.182
174.265
174.396
174.359
182.703
181.968
178.853
178.733
177.121
176.592
175.907
175.43
175.199
174.878
174.887
174.713
174.84
174.729
174.858
174.796
174.822
174.746
174.817
174.737
188.993
187.766
184.92
182.545
181.576
179.886
179.444
178.259
177.943
177.215
176.964
176.507
176.292
175.983
175.836
175.613
175.527
175.406
175.32
175.128
194.221
190.531
189.46
186.082
185.44
182.081
182.2
180.467
180.052
179.084
178.695
178.084
177.796
177.356
177.135
176.793
176.607
176.322
176.159
175.91
200.147
188.167
187.46
185.791
185.083
183.701
182.961
181.87
181.265
180.447
179.902
179.262
178.817
178.323
177.956
177.57
177.268
176.958
176.707
176.432
192.008
189.816
188.944
187.098
186.268
184.767
184.001
182.911
182.192
181.382
180.779
180.139
179.649
179.129
178.729
178.299
177.965
177.607
177.322
177.019
189.883
188.549
187.679
186.634
185.791
184.863
184.107
183.27
182.608
181.881
181.295
180.677
180.163
179.646
179.201
178.772
178.395
178.043
177.732
177.442
188.042
187.485
187.033
186.24
185.653
184.851
184.21
183.47
182.839
182.177
181.6
181.018
180.509
180.008
179.567
179.124
178.725
178.339
177.995
177.688
187.853
187.293
186.791
186.149
185.534
184.858
184.215
183.55
182.926
182.303
181.723
181.157
180.634
180.128
179.666
179.24
178.86
178.505
178.177
177.862
182.785
192.88
202.24
211.666
223.17
231.53
240.055
247.675
254.339
260.879
266.312
271.496
275.972
279.756
282.978
285.367
287.26
288.384
289.029
288.827
213.067