/*--------------------------------*- C++ -*----------------------------------*\
  =========                 |
  \\      /  F ield         | OpenFOAM: The Open Source CFD Toolbox
   \\    /   O peration     | Website:  https://openfoam.org
    \\  /    A nd           | Version:  9
     \\/     M anipulation  |
\*---------------------------------------------------------------------------*/
FoamFile
{
    format      ascii;
    class       volVectorField;
    location    "9.7";
    object      U;
}
// * * * * * * * * * * * * * * * * * * * * * * * * * * * * * * * * * * * * * //

dimensions      [0 1 -1 0 0 0 0];

internalField   nonuniform List<vector> 
46400
(
(9.36697 -9.18996 -2.42709e-19)
(19.2132 -18.4112 2.15832e-19)
(20.8817 -21.0011 -5.34237e-20)
(20.1417 -21.0171 -3.23485e-20)
(19.4492 -21.0069 -4.14212e-20)
(18.7332 -21.0376 -4.8981e-20)
(18.1131 -21.0335 2.63525e-21)
(17.4995 -21.0682 2.20487e-20)
(16.9413 -21.1016 -2.83441e-20)
(16.397 -21.1132 3.39513e-20)
(15.8799 -21.1395 -3.88655e-20)
(15.4095 -21.1691 0)
(14.9411 -21.2015 2.81383e-19)
(14.5134 -21.2173 -3.23323e-19)
(14.0999 -21.2682 -4.38646e-19)
(13.6858 -21.2387 -8.6586e-20)
(13.2582 -21.2309 -2.90342e-20)
(12.8905 -21.1967 3.64908e-19)
(12.555 -21.1425 5.26031e-19)
(12.0721 -21.333 -4.78567e-19)
(9.66057 -8.67968 0)
(19.3352 -17.2467 -2.72893e-20)
(20.7411 -19.3615 0)
(20.0109 -19.4945 6.16555e-21)
(19.3586 -19.5363 -1.90317e-20)
(18.6729 -19.6226 6.70953e-21)
(18.0617 -19.6791 0)
(17.4488 -19.7291 -2.20491e-20)
(16.8926 -19.8058 2.83444e-20)
(16.3654 -19.8789 -3.39515e-20)
(15.857 -19.9565 4.42189e-19)
(15.3825 -20.0211 3.60555e-20)
(14.9369 -20.1129 -3.78887e-19)
(14.5022 -20.17 0)
(14.0896 -20.2296 5.35772e-20)
(13.7215 -20.3047 5.6333e-20)
(13.3537 -20.3673 0)
(12.9937 -20.3561 -5.60347e-19)
(12.6816 -20.349 -1.51912e-19)
(12.2716 -20.5445 5.69604e-19)
(9.9013 -8.16224 -2.3119e-20)
(19.3589 -16.0366 -6.5083e-20)
(20.5932 -17.8792 4.19107e-20)
(19.8001 -18.0153 1.22877e-19)
(19.1411 -18.1125 -1.20628e-19)
(18.4376 -18.2411 0)
(17.8197 -18.3339 -4.70205e-19)
(17.2222 -18.4501 4.04067e-19)
(16.6515 -18.5407 -5.56008e-19)
(16.1191 -18.6306 5.5149e-19)
(15.6097 -18.7335 5.45009e-19)
(15.1428 -18.8312 -4.59136e-20)
(14.6855 -18.9245 -4.79053e-19)
(14.2799 -19.0327 0)
(13.8777 -19.1415 6.18046e-19)
(13.4743 -19.1937 -6.08653e-19)
(13.0958 -19.298 0)
(12.7614 -19.3551 -1.26366e-20)
(12.4223 -19.3959 7.4051e-20)
(12.0112 -19.6581 -6.76643e-19)
(10.0651 -7.61575 -8.68191e-20)
(19.2663 -14.8424 1.69886e-20)
(20.2179 -16.3167 1.91661e-19)
(19.4363 -16.5424 -1.89038e-19)
(18.8056 -16.6794 -1.78775e-19)
(18.1429 -16.862 2.44864e-19)
(17.5468 -17.0175 3.50102e-19)
(16.9579 -17.1489 -9.00864e-19)
(16.4222 -17.3211 7.60254e-19)
(15.9123 -17.4545 -7.18423e-20)
(15.4112 -17.5939 0)
(14.9623 -17.7373 7.75224e-20)
(14.5285 -17.896 -7.97281e-20)
(14.0964 -17.999 0)
(13.7153 -18.1518 7.31822e-19)
(13.3638 -18.2908 -6.22607e-19)
(12.9959 -18.4099 0)
(12.6564 -18.497 8.6141e-20)
(12.3393 -18.5537 9.81051e-20)
(11.9009 -18.8124 7.76251e-19)
(10.1633 -7.04486 0)
(19.0309 -13.599 0)
(19.7927 -14.8874 -2.9472e-19)
(19.0178 -15.1314 2.01938e-19)
(18.3873 -15.3276 -4.13217e-19)
(17.7211 -15.5383 3.36529e-19)
(17.1218 -15.7345 0)
(16.5501 -15.9236 3.8703e-19)
(15.9824 -16.0845 -4.68107e-19)
(15.4858 -16.2714 -1.08356e-19)
(14.9804 -16.4261 -1.09665e-19)
(14.5131 -16.5616 0)
(14.0899 -16.7409 8.37927e-19)
(13.7028 -16.908 -8.24795e-19)
(13.3008 -17.0635 0)
(12.927 -17.196 -9.44162e-19)
(12.5844 -17.3886 8.33432e-19)
(12.2681 -17.5192 8.44811e-19)
(11.9557 -17.6363 -9.26208e-19)
(11.5522 -17.928 0)
(10.2396 -6.504 0)
(18.641 -12.2435 0)
(19.2568 -13.4327 0)
(18.4847 -13.7135 -2.39305e-20)
(17.8618 -13.954 0)
(17.2274 -14.2109 0)
(16.648 -14.4578 0)
(16.1046 -14.689 -1.23826e-19)
(15.5814 -14.928 0)
(15.0976 -15.1384 1.08355e-19)
(14.6459 -15.3972 -1.66927e-20)
(14.2035 -15.5838 -1.08427e-18)
(13.7696 -15.7931 8.1616e-19)
(13.3548 -15.9511 -1.08351e-18)
(12.9986 -16.1747 8.17215e-19)
(12.6402 -16.3358 0)
(12.2763 -16.497 -9.45678e-19)
(11.972 -16.6745 8.08655e-19)
(11.6664 -16.7847 0)
(11.2649 -17.0962 -1.26311e-19)
(10.3364 -5.9403 4.15808e-19)
(18.1499 -10.9627 1.2352e-19)
(18.5875 -12.0195 4.9167e-19)
(17.8386 -12.3684 -5.08703e-19)
(17.2362 -12.6641 -5.21136e-19)
(16.6151 -12.9603 1.04157e-18)
(16.0335 -13.2449 -1.19803e-18)
(15.5012 -13.5119 1.10605e-19)
(14.96 -13.7596 3.87632e-19)
(14.462 -13.966 0)
(13.9889 -14.2095 -1.60838e-20)
(13.5591 -14.4236 -1.53146e-20)
(13.1731 -14.6806 1.26379e-19)
(12.7959 -14.8947 1.0565e-18)
(12.4105 -15.1089 -9.28406e-19)
(12.0923 -15.348 -1.19177e-18)
(11.7428 -15.5544 1.03848e-18)
(11.4421 -15.7529 -1.1718e-20)
(11.17 -15.9331 -1.33446e-19)
(10.7616 -16.2346 -9.42144e-19)
(10.4579 -5.36823 -1.4383e-19)
(17.4973 -9.65084 2.57931e-20)
(17.8333 -10.6155 -1.55727e-19)
(17.1051 -11.0123 -6.2255e-19)
(16.511 -11.3899 4.28969e-19)
(15.9277 -11.7147 0)
(15.3711 -12.0525 9.14833e-19)
(14.8858 -12.3651 -4.4101e-19)
(14.4305 -12.7248 3.02786e-19)
(13.9748 -12.9869 1.58932e-19)
(13.5444 -13.2847 -3.03877e-19)
(13.1224 -13.5259 7.36105e-19)
(12.7053 -13.7789 1.5482e-19)
(12.3252 -13.999 -8.84102e-19)
(11.9536 -14.2209 2.47543e-18)
(11.6223 -14.4389 -1.00972e-18)
(11.2993 -14.6746 1.28619e-18)
(10.9885 -14.8616 -8.41291e-19)
(10.747 -15.079 2.7737e-19)
(10.412 -15.4197 1.30973e-18)
(10.6631 -4.82884 7.67198e-19)
(16.7757 -8.50505 -1.52117e-19)
(16.8632 -9.31173 -2.31473e-20)
(16.1765 -9.7574 3.39276e-19)
(15.6398 -10.2139 1.60011e-19)
(15.1191 -10.6116 1.79853e-19)
(14.5697 -10.9794 -8.45533e-19)
(14.0497 -11.2679 5.12327e-19)
(13.5766 -11.6114 -1.59896e-19)
(13.1438 -11.9115 -1.58937e-19)
(12.7082 -12.205 -1.57757e-19)
(12.3208 -12.4705 -1.70169e-19)
(11.9853 -12.7842 -3.22784e-19)
(11.6648 -13.0685 1.12494e-18)
(11.3078 -13.3155 -1.57308e-18)
(10.9959 -13.5561 -1.60923e-19)
(10.696 -13.8151 1.08609e-20)
(10.3985 -14.0219 -1.19797e-18)
(10.1248 -14.218 8.92863e-19)
(9.82633 -14.5648 -1.39138e-18)
(10.7636 -4.39559 7.07813e-19)
(15.8413 -7.28849 -1.71055e-18)
(15.8008 -8.084 1.13561e-18)
(15.245 -8.55884 -1.80439e-19)
(14.682 -9.05838 -1.99309e-19)
(14.2142 -9.48439 7.7828e-19)
(13.7714 -9.96536 -9.42856e-19)
(13.3367 -10.3449 0)
(12.9069 -10.7294 7.37466e-19)
(12.5188 -11.0817 -7.25151e-19)
(12.1565 -11.4473 -5.32462e-19)
(11.7496 -11.7237 6.93819e-19)
(11.3309 -11.9734 1.67961e-19)
(11.0159 -12.2687 -6.87109e-19)
(10.6988 -12.5501 1.63407e-19)
(10.3782 -12.7861 8.27069e-19)
(10.0959 -13.059 -1.46827e-18)
(9.83083 -13.2913 9.68589e-19)
(9.58278 -13.5107 -9.22493e-21)
(9.2955 -13.834 -1.32267e-18)
(10.7866 -3.97846 9.80421e-19)
(14.9018 -6.27865 -6.36589e-19)
(14.6591 -7.00377 4.29263e-19)
(14.1096 -7.48111 9.12392e-21)
(13.6609 -8.04421 -8.46842e-19)
(13.2056 -8.48206 -8.10777e-19)
(12.7345 -8.92758 1.00838e-18)
(12.3235 -9.33082 -5.97437e-19)
(11.9071 -9.72617 7.91936e-19)
(11.5115 -10.0694 0)
(11.162 -10.4549 1.25242e-20)
(10.8934 -10.8407 1.83051e-19)
(10.5768 -11.1732 1.91552e-19)
(10.2491 -11.4554 -1.88121e-19)
(9.97617 -11.7773 0)
(9.69037 -12.0444 1.81326e-19)
(9.42052 -12.3197 0)
(9.16917 -12.5756 3.40434e-19)
(8.92567 -12.7987 1.66859e-18)
(8.68436 -13.1349 -7.0296e-21)
(10.5798 -3.53374 5.40865e-19)
(13.7304 -5.30619 -1.08238e-19)
(13.4664 -6.03792 -1.61919e-18)
(13.0366 -6.53483 9.07319e-19)
(12.555 -7.07943 2.16694e-19)
(12.2177 -7.60763 -2.14059e-19)
(11.8403 -8.12045 -8.75498e-19)
(11.4782 -8.57316 6.5221e-19)
(11.1407 -9.03753 0)
(10.7766 -9.40831 0)
(10.4129 -9.75163 -1.01526e-18)
(10.0857 -10.1116 8.03655e-19)
(9.7898 -10.4619 -1.91551e-19)
(9.49563 -10.7831 -5.83936e-19)
(9.2154 -11.0857 2.81287e-21)
(8.96503 -11.4012 1.30722e-18)
(8.7022 -11.673 -7.31618e-19)
(8.48861 -11.9675 5.39818e-19)
(8.26449 -12.2115 -8.75531e-19)
(8.01322 -12.5301 0)
(10.1583 -3.04911 -4.708e-19)
(12.6233 -4.47628 7.42465e-19)
(12.255 -5.20702 1.27109e-19)
(11.8522 -5.75088 1.25197e-19)
(11.3997 -6.28693 0)
(11.0037 -6.73877 9.43569e-19)
(10.6411 -7.23939 -9.26985e-19)
(10.2911 -7.64865 1.16712e-19)
(10.004 -8.12399 0)
(9.76877 -8.5959 8.76219e-19)
(9.44224 -8.9907 -7.51826e-19)
(9.17289 -9.36487 8.42104e-19)
(8.93209 -9.75419 -8.28696e-19)
(8.67458 -10.0995 8.08555e-19)
(8.42428 -10.422 -6.94795e-19)
(8.19247 -10.7352 -7.76002e-19)
(7.96337 -11.033 1.52462e-18)
(7.73256 -11.3 -6.53874e-19)
(7.56277 -11.5867 9.3178e-20)
(7.36164 -11.9185 7.61213e-19)
(9.53808 -2.56307 -3.76658e-19)
(11.2489 -3.68343 3.98247e-19)
(10.8548 -4.40665 -1.27123e-19)
(10.641 -5.01155 -1.25194e-19)
(10.3308 -5.65385 0)
(10.0359 -6.18898 0)
(9.75821 -6.77233 0)
(9.43301 -7.23179 -2.3877e-19)
(9.03611 -7.63212 -9.35888e-19)
(8.75802 -8.04153 1.8369e-18)
(8.54683 -8.48313 -1.01162e-18)
(8.24713 -8.83678 -1.12169e-19)
(7.99949 -9.20145 0)
(7.80625 -9.57354 0)
(7.58726 -9.91562 -2.06383e-19)
(7.38562 -10.2425 0)
(7.19646 -10.5708 7.89128e-19)
(6.98556 -10.8563 -9.71032e-19)
(6.77615 -11.1191 -8.48561e-19)
(6.58356 -11.4527 7.95565e-19)
(8.70095 -2.08145 3.90476e-19)
(10.0696 -3.03126 6.97611e-19)
(9.61933 -3.72403 9.9868e-22)
(9.31681 -4.26789 1.66921e-22)
(8.95282 -4.87266 1.34399e-19)
(8.59549 -5.34459 -3.87229e-19)
(8.34067 -5.92293 0)
(8.21454 -6.48298 -3.75109e-19)
(8.03565 -7.0199 1.26106e-19)
(7.77399 -7.44956 4.78463e-19)
(7.52971 -7.89358 4.65675e-19)
(7.36156 -8.3213 -3.45988e-19)
(7.12426 -8.70554 8.90832e-19)
(6.89625 -9.0608 -7.65998e-19)
(6.71681 -9.42811 9.57074e-19)
(6.50682 -9.75075 -1.77826e-18)
(6.33751 -10.0805 8.20753e-19)
(6.17946 -10.3948 9.84372e-20)
(6.01978 -10.6733 7.79487e-19)
(5.84748 -11.0031 -8.20864e-19)
(7.69147 -1.61375 1.35346e-19)
(8.65182 -2.46549 -1.41841e-19)
(8.2441 -3.2272 5.71197e-19)
(8.12657 -3.81865 -5.60629e-19)
(7.96911 -4.51315 -2.74227e-19)
(7.68612 -5.01679 -6.6902e-19)
(7.35415 -5.47964 2.0737e-21)
(7.08302 -5.94447 5.16275e-19)
(6.86436 -6.44975 -1.23962e-19)
(6.69476 -6.93646 0)
(6.50424 -7.38659 0)
(6.29299 -7.81207 0)
(6.1423 -8.23943 0)
(5.98579 -8.62903 2.93287e-21)
(5.82012 -9.00422 0)
(5.68972 -9.36789 1.05994e-19)
(5.52126 -9.70248 4.18536e-19)
(5.37284 -10.0279 -1.23079e-18)
(5.22189 -10.3225 9.08019e-19)
(5.05691 -10.651 -8.35074e-19)
(6.52017 -1.17426 0)
(7.24509 -1.98281 -7.59383e-20)
(6.86728 -2.67039 0)
(6.6667 -3.25791 2.15449e-19)
(6.41177 -3.94804 -1.43922e-19)
(6.3712 -4.55675 -5.52393e-19)
(6.19604 -5.14882 2.67338e-21)
(5.97085 -5.64748 5.3074e-19)
(5.77338 -6.12098 -5.15709e-19)
(5.59436 -6.57986 1.0109e-18)
(5.44835 -7.02798 -3.36686e-21)
(5.30624 -7.45251 -4.84203e-19)
(5.15142 -7.84735 4.69613e-19)
(4.99635 -8.24616 -5.76061e-19)
(4.86364 -8.61173 0)
(4.71779 -8.97766 -4.37845e-19)
(4.60534 -9.32204 4.31292e-19)
(4.48621 -9.65871 0)
(4.38941 -9.9647 -1.01525e-19)
(4.26763 -10.3067 0)
(5.29591 -0.847919 7.66297e-20)
(5.78895 -1.72832 7.61191e-20)
(5.62303 -2.38365 0)
(5.36823 -3.00035 2.94208e-19)
(5.25741 -3.57301 -3.63361e-19)
(5.10216 -4.17988 2.11238e-19)
(4.90798 -4.74411 -6.23567e-19)
(4.83405 -5.28938 2.71379e-19)
(4.68045 -5.7979 -6.65576e-20)
(4.55187 -6.26259 0)
(4.41485 -6.7231 -6.34537e-20)
(4.29651 -7.16104 -6.19493e-20)
(4.16966 -7.58306 -6.04844e-20)
(4.06435 -7.98179 0)
(3.95293 -8.36431 -4.56405e-19)
(3.85974 -8.73494 9.51461e-19)
(3.74979 -9.08174 -8.19297e-19)
(3.64128 -9.41863 4.28851e-19)
(3.54541 -9.72501 5.24975e-20)
(3.43994 -10.0666 4.33565e-19)
(3.67688 -0.500959 -1.18076e-19)
(4.29352 -1.35181 -1.56855e-19)
(4.251 -2.09254 3.81246e-22)
(4.15311 -2.7367 4.13655e-19)
(3.91925 -3.33687 -1.1155e-19)
(3.82052 -3.93747 -7.21096e-20)
(3.76912 -4.49125 7.05961e-20)
(3.61916 -5.01644 1.37731e-19)
(3.55525 -5.54549 6.65562e-20)
(3.44224 -6.02435 -2.6081e-19)
(3.32866 -6.49789 2.87859e-19)
(3.23498 -6.92618 6.19504e-20)
(3.14637 -7.36232 3.03036e-19)
(3.05186 -7.7538 -1.97259e-21)
(2.9596 -8.15032 2.71978e-20)
(2.87413 -8.50575 -5.09669e-19)
(2.81604 -8.87874 1.39545e-19)
(2.73783 -9.20319 0)
(2.68447 -9.52502 -2.59762e-20)
(2.61039 -9.85642 -2.19408e-19)
(2.54363 -0.242487 4.01775e-20)
(2.69672 -1.04722 -7.94952e-20)
(2.75013 -1.76026 1.55843e-19)
(2.72787 -2.44932 -3.81666e-20)
(2.63694 -3.10311 -3.76751e-20)
(2.57553 -3.66117 0)
(2.48686 -4.26622 -7.09257e-20)
(2.4264 -4.80351 1.3893e-19)
(2.34545 -5.33945 -6.80541e-20)
(2.29469 -5.83882 6.59271e-20)
(2.24806 -6.32522 -3.27245e-20)
(2.1859 -6.76457 -6.2766e-20)
(2.12178 -7.21184 1.23013e-19)
(2.07831 -7.60426 -1.20051e-19)
(2.03665 -8.01758 2.9688e-20)
(1.97762 -8.36878 2.0353e-34)
(1.93433 -8.74319 -2.77875e-20)
(1.88752 -9.07608 1.63327e-19)
(1.83836 -9.39602 -8.05058e-20)
(1.80195 -9.73766 -5.58693e-20)
(0.0756116 -2.15185 7.32294e-20)
(1.39815 -12.8994 3.61328e-20)
(3.52237 -27.2896 0)
(4.68877 -35.4223 3.38768e-20)
(4.99183 -37.6058 3.22077e-20)
(5.04835 -37.7726 2.94578e-20)
(5.03445 -37.5795 0)
(4.96965 -37.1881 2.69951e-20)
(4.92039 -36.8965 0)
(4.86138 -36.6194 0)
(4.79037 -36.3541 -2.18382e-20)
(4.71797 -36.0796 1.72413e-21)
(4.6279 -35.8197 4.13927e-20)
(4.55911 -35.5505 0)
(4.4423 -35.3044 1.80112e-20)
(4.38794 -35.0192 1.70007e-20)
(4.23737 -34.7283 1.60706e-20)
(4.19974 -34.3412 0)
(4.01399 -33.9904 -2.84582e-20)
(3.98629 -33.5989 2.75394e-20)
(0.112763 -3.28591 1.14012e-19)
(2.06909 -15.8377 -1.84008e-19)
(4.43366 -29.7474 0)
(5.58507 -36.5292 -1.6893e-19)
(5.80984 -37.8477 1.58561e-19)
(5.83848 -37.7962 -2.61947e-19)
(5.79303 -37.4461 1.14825e-19)
(5.72485 -37.0998 7.91522e-20)
(5.65632 -36.7695 -3.55318e-19)
(5.57889 -36.4765 1.96545e-19)
(5.50369 -36.1796 -2.26739e-20)
(5.4147 -35.9032 1.67161e-19)
(5.33231 -35.6266 -6.91936e-21)
(5.236 -35.3382 -1.55087e-19)
(5.13719 -35.0585 -1.8011e-20)
(5.05581 -34.778 -1.70007e-20)
(4.9159 -34.4772 -1.60706e-20)
(4.85887 -34.0767 0)
(4.67536 -33.7118 -1.11321e-19)
(4.64957 -33.3462 4.46132e-21)
(0.303325 -4.39027 -7.99578e-20)
(2.96792 -18.3343 0)
(5.49903 -31.7172 0)
(6.59123 -37.2551 -7.14427e-20)
(6.71975 -37.9505 6.44227e-20)
(6.69848 -37.7467 0)
(6.60353 -37.2737 -5.80536e-20)
(6.53131 -36.8924 1.58495e-19)
(6.43726 -36.5574 -1.58288e-19)
(6.34846 -36.241 1.8749e-19)
(6.24591 -35.9538 -2.29211e-19)
(6.14385 -35.654 0)
(6.02676 -35.3598 -1.55455e-19)
(5.92355 -35.077 -1.39353e-19)
(5.78777 -34.8056 2.53024e-19)
(5.69965 -34.495 -2.58745e-19)
(5.52803 -34.1809 2.24089e-19)
(5.46427 -33.7833 0)
(5.24603 -33.4372 -2.43505e-19)
(5.22332 -33.0647 4.12754e-19)
(0.609045 -5.48283 4.03274e-19)
(4.07911 -20.3603 0)
(6.69901 -33.1291 1.52823e-19)
(7.67662 -37.577 2.07824e-19)
(7.72161 -37.8663 -4.03557e-19)
(7.63125 -37.5129 1.22869e-19)
(7.5101 -37.0819 5.82301e-20)
(7.39381 -36.7064 5.88178e-19)
(7.28032 -36.3375 -8.15408e-19)
(7.15402 -36.0146 -7.57981e-20)
(7.04042 -35.6791 4.10662e-19)
(6.90901 -35.3761 8.2787e-20)
(6.79283 -35.0772 -3.83309e-19)
(6.6577 -34.7633 3.73562e-19)
(6.53016 -34.4736 1.02777e-19)
(6.40841 -34.1848 -6.36637e-20)
(6.24078 -33.8675 9.04872e-20)
(6.14577 -33.4595 0)
(5.91986 -33.1085 -2.53959e-20)
(5.88336 -32.7649 0)
(1.07073 -6.85086 0)
(5.35568 -21.946 3.0663e-19)
(7.95762 -34.0989 -7.82935e-19)
(8.78235 -37.6499 6.96973e-19)
(8.75176 -37.6708 -5.3798e-19)
(8.59891 -37.2458 -1.23265e-19)
(8.42718 -36.7518 0)
(8.28361 -36.3515 3.13066e-19)
(8.12463 -35.9939 -4.14472e-19)
(7.98237 -35.657 4.61426e-19)
(7.82591 -35.3602 -3.607e-19)
(7.67936 -35.0401 -8.27831e-20)
(7.51908 -34.7324 3.76403e-19)
(7.37197 -34.4396 -6.46318e-19)
(7.20659 -34.144 4.02789e-19)
(7.07354 -33.8191 -1.32226e-19)
(6.87705 -33.498 -2.88869e-19)
(6.7744 -33.0965 6.55124e-19)
(6.51914 -32.7505 -3.70554e-19)
(6.48642 -32.3926 -4.2365e-19)
(1.83863 -7.90087 0)
(6.03881 -23.2893 5.20849e-19)
(9.26831 -34.781 -6.34532e-19)
(9.86047 -37.506 -1.4219e-19)
(9.77029 -37.3454 1.32269e-19)
(9.55476 -36.8262 4.80446e-19)
(9.37098 -36.4139 -4.73671e-19)
(9.18234 -36.0109 0)
(9.00343 -35.6237 3.86168e-19)
(8.81724 -35.2847 -3.79707e-19)
(8.65083 -34.935 -3.34448e-19)
(8.46448 -34.6304 3.29025e-19)
(8.30034 -34.3147 0)
(8.11591 -34.0001 0)
(7.94833 -33.7196 5.71133e-19)
(7.77908 -33.4372 -5.59057e-19)
(7.57936 -33.1202 -4.4025e-19)
(7.43934 -32.7209 4.33714e-19)
(7.16918 -32.3864 -3.84932e-19)
(7.11613 -32.0335 4.71821e-19)
(2.11834 -8.69754 -5.4202e-20)
(7.41927 -24.2212 1.48937e-19)
(10.4978 -35.0169 3.48565e-20)
(11.0304 -37.156 7.27066e-19)
(10.8391 -36.8599 0)
(10.5817 -36.3707 0)
(10.3314 -35.891 8.76097e-19)
(10.1107 -35.497 -4.94326e-20)
(9.87884 -35.1371 -7.9776e-19)
(9.66995 -34.8031 6.97993e-19)
(9.45424 -34.5032 -6.86491e-19)
(9.25255 -34.1747 0)
(9.04149 -33.874 5.59262e-19)
(8.84599 -33.5691 -5.50472e-19)
(8.64081 -33.2624 0)
(8.45522 -32.9479 0)
(8.22974 -32.6375 0)
(8.0715 -32.2478 0)
(7.77473 -31.9128 0)
(7.72201 -31.5703 -4.49997e-20)
(2.7718 -9.4912 4.80531e-19)
(8.39469 -25.1592 -6.66434e-19)
(11.8201 -35.138 0)
(12.0664 -36.7136 0)
(11.8318 -36.323 1.12297e-18)
(11.5338 -35.8083 5.60916e-20)
(11.2539 -35.3884 -1.01475e-18)
(10.9897 -34.9708 0)
(10.7367 -34.5855 9.16179e-20)
(10.485 -34.248 -8.45996e-20)
(10.2566 -33.9181 0)
(10.0127 -33.6301 7.22435e-20)
(9.79257 -33.3164 -6.0065e-19)
(9.55635 -33.0291 1.08212e-18)
(9.3446 -32.7672 -2.83614e-20)
(9.12955 -32.4911 -4.51822e-19)
(8.89753 -32.1875 -4.90548e-20)
(8.70597 -31.8112 4.53567e-20)
(8.39575 -31.4844 0)
(8.32586 -31.1227 3.9242e-20)
(3.24274 -9.96409 3.1398e-19)
(9.63669 -25.5244 2.66467e-19)
(12.981 -34.7807 -9.30276e-19)
(13.2466 -36.0084 2.66578e-19)
(12.8815 -35.5903 1.17449e-19)
(12.5548 -35.1217 9.97639e-19)
(12.2089 -34.6702 -1.37859e-18)
(11.9054 -34.3031 9.9399e-19)
(11.602 -33.9541 -7.85956e-19)
(11.3191 -33.6361 9.27865e-19)
(11.0433 -33.3376 1.47818e-19)
(10.7794 -33.0254 6.08855e-19)
(10.5145 -32.7427 -3.4398e-19)
(10.2619 -32.4364 -6.41939e-19)
(10.007 -32.1517 5.63921e-19)
(9.76817 -31.8768 0)
(9.50365 -31.5896 1.39713e-19)
(9.28619 -31.2282 3.8094e-20)
(8.94532 -30.9179 -7.73071e-20)
(8.8612 -30.5724 3.22903e-20)
(3.92725 -10.4596 -6.05217e-19)
(10.8 -25.9719 6.19634e-19)
(14.2205 -34.4542 -1.20785e-20)
(14.2381 -35.2994 -5.22504e-19)
(13.8444 -34.8412 -4.77723e-19)
(13.4562 -34.3738 -2.24779e-19)
(13.0789 -33.969 -1.10076e-20)
(12.7297 -33.567 -1.8966e-19)
(12.3981 -33.2108 0)
(12.0776 -32.9016 -1.60531e-19)
(11.7841 -32.6162 -1.47817e-19)
(11.4849 -32.3532 -9.67243e-21)
(11.2067 -32.0687 4.59383e-19)
(10.9229 -31.8131 -2.39313e-19)
(10.6649 -31.5588 -5.03316e-19)
(10.4042 -31.2987 3.90656e-19)
(10.1412 -31.0345 2.44943e-19)
(9.89805 -30.6931 -4.14077e-19)
(9.55015 -30.3836 7.72562e-20)
(9.45639 -30.0283 4.57561e-19)
(4.46389 -10.7281 -1.4685e-18)
(11.9701 -25.8436 1.47719e-18)
(15.2444 -33.6665 -1.59536e-18)
(15.2854 -34.3099 1.29161e-18)
(14.7797 -33.8937 1.1093e-18)
(14.378 -33.4699 -8.60701e-19)
(13.9456 -33.0781 -1.1084e-18)
(13.5617 -32.7507 5.00525e-20)
(13.1906 -32.4254 6.56641e-19)
(12.8347 -32.132 -4.20291e-19)
(12.4997 -31.854 1.06122e-18)
(12.1747 -31.5883 -6.2964e-19)
(11.8564 -31.3378 -1.16045e-19)
(11.5471 -31.0665 2.85276e-19)
(11.2431 -30.8336 -7.44039e-19)
(10.9559 -30.5986 3.52875e-19)
(10.6546 -30.3408 0)
(10.3874 -30.0345 -5.47977e-19)
(10.0119 -29.7533 5.40064e-19)
(9.89751 -29.3978 -4.08594e-19)
(5.12048 -10.9865 2.81564e-19)
(13.0868 -25.8755 3.15383e-19)
(16.3256 -32.9507 1.32719e-18)
(16.1767 -33.3554 1.12527e-18)
(15.6598 -32.9399 -6.79626e-19)
(15.1919 -32.5459 9.28749e-19)
(14.7292 -32.1761 -5.48267e-19)
(14.2994 -31.8276 6.16047e-19)
(13.8983 -31.5233 -1.16646e-18)
(13.5133 -31.2624 4.12839e-19)
(13.1594 -31.0233 0)
(12.8069 -30.7885 0)
(12.4761 -30.5508 0)
(12.1456 -30.3181 -7.0015e-19)
(11.8389 -30.0873 6.8934e-19)
(11.5363 -29.879 0)
(11.2435 -29.6735 0)
(10.9521 -29.383 -5.65315e-20)
(10.5732 -29.1177 0)
(10.4482 -28.7768 -4.50904e-19)
(5.68249 -11.0547 -5.34081e-19)
(14.1068 -25.4049 -1.31098e-18)
(17.1962 -31.8977 -9.15586e-19)
(17.0444 -32.1748 -1.52962e-19)
(16.4385 -31.8184 1.17656e-18)
(15.9558 -31.4543 -2.43008e-19)
(15.4561 -31.1429 -5.28047e-20)
(14.9961 -30.8616 -7.40877e-19)
(14.5599 -30.5738 0)
(14.1379 -30.3201 -3.44136e-19)
(13.7488 -30.094 5.48006e-19)
(13.3724 -29.8923 0)
(13.0062 -29.6935 6.70717e-19)
(12.6521 -29.4834 -6.6019e-19)
(12.3034 -29.2914 5.44004e-19)
(11.9746 -29.0849 -9.66465e-19)
(11.6453 -28.8829 4.81458e-19)
(11.3417 -28.656 5.65312e-20)
(10.9379 -28.4004 -4.0883e-20)
(10.7961 -28.053 3.18249e-19)
(6.28781 -11.0939 -6.9891e-19)
(15.1012 -25.0432 5.02014e-20)
(18.0798 -30.846 7.2915e-20)
(17.8024 -30.9982 1.57609e-18)
(17.1839 -30.6733 1.23914e-19)
(16.6461 -30.3686 -8.14955e-19)
(16.1174 -30.053 -5.48168e-19)
(15.6195 -29.793 1.82784e-19)
(15.1644 -29.555 5.91412e-19)
(14.7199 -29.3465 -6.03664e-19)
(14.3115 -29.145 2.90192e-19)
(13.9087 -28.9499 -7.11366e-19)
(13.5328 -28.7712 5.58358e-19)
(13.1582 -28.5804 -5.04616e-19)
(12.8094 -28.4128 4.44596e-19)
(12.4698 -28.2669 3.3797e-19)
(12.1459 -28.107 -3.90087e-19)
(11.8181 -27.9008 2.72067e-19)
(11.4239 -27.7105 -2.60536e-19)
(11.2622 -27.3736 -2.61914e-19)
(6.82751 -11.0039 -8.62769e-19)
(15.9594 -24.3418 -1.51784e-19)
(18.7599 -29.6206 8.18395e-19)
(18.4563 -29.6872 -6.70076e-19)
(17.7768 -29.4144 6.57943e-19)
(17.2119 -29.1341 1.49444e-19)
(16.6655 -28.9083 0)
(16.138 -28.6789 -1.01582e-19)
(15.6455 -28.4546 2.67851e-19)
(15.1733 -28.2653 -9.37272e-19)
(14.7391 -28.114 6.53274e-19)
(14.322 -27.9688 1.36088e-19)
(13.9159 -27.8281 6.71464e-20)
(13.528 -27.6763 0)
(13.1362 -27.5137 1.36607e-20)
(12.776 -27.36 2.94325e-19)
(12.4252 -27.2319 -3.91564e-20)
(12.0916 -27.0774 2.22743e-20)
(11.673 -26.8803 -2.08862e-19)
(11.5081 -26.5591 3.86233e-20)
(7.34754 -10.8642 7.67237e-19)
(16.7934 -23.6424 -1.29907e-18)
(19.4046 -28.2854 7.21909e-19)
(19.023 -28.3367 5.80505e-19)
(18.3575 -28.1076 -5.71546e-20)
(17.7556 -27.9029 -3.95234e-19)
(17.1783 -27.6662 9.46997e-20)
(16.6317 -27.5098 1.01582e-19)
(16.1322 -27.3371 0)
(15.633 -27.1797 0)
(15.1788 -27.0267 -4.57889e-19)
(14.7342 -26.8983 7.38522e-19)
(14.3212 -26.7856 -3.86342e-19)
(13.9139 -26.6669 0)
(13.5315 -26.5726 1.43631e-20)
(13.1531 -26.4633 -2.06701e-19)
(12.8003 -26.3542 1.98954e-19)
(12.4537 -26.2583 -2.23051e-20)
(12.0608 -26.1538 -8.38224e-20)
(11.8662 -25.8251 6.39751e-20)
(7.82244 -10.6473 -6.66779e-19)
(17.4989 -22.7518 8.25929e-19)
(19.9261 -26.967 0)
(19.4373 -26.9457 0)
(18.7408 -26.7562 1.00517e-19)
(18.1035 -26.5754 -4.75362e-19)
(17.5227 -26.4249 2.32462e-20)
(16.9417 -26.266 3.10803e-19)
(16.4135 -26.1347 -4.59977e-19)
(15.9073 -26.0237 8.388e-19)
(15.434 -25.9397 -3.80154e-19)
(14.983 -25.8376 7.149e-20)
(14.5431 -25.7591 2.27572e-19)
(14.1265 -25.6569 -3.06829e-20)
(13.7026 -25.5515 -1.22587e-19)
(13.323 -25.475 1.88056e-20)
(12.9445 -25.3976 -5.38163e-20)
(12.5813 -25.3051 3.93499e-20)
(12.1814 -25.2287 1.287e-20)
(11.9984 -24.9418 -3.01146e-20)
(8.25232 -10.3528 0)
(18.0895 -21.7432 3.67354e-19)
(20.309 -25.4544 -4.09371e-19)
(19.8091 -25.4714 0)
(19.1202 -25.3417 -1.00519e-19)
(18.4769 -25.2316 2.78897e-19)
(17.8705 -25.0933 -3.47704e-19)
(17.2889 -25.0219 0)
(16.7505 -24.9132 3.06821e-19)
(16.2137 -24.8206 -3.01695e-19)
(15.729 -24.7481 1.65914e-20)
(15.2569 -24.6972 -2.7295e-20)
(14.8145 -24.6452 -2.06205e-20)
(14.3879 -24.6109 -1.45945e-20)
(13.9722 -24.5638 -3.28138e-21)
(13.5602 -24.4889 -4.69099e-20)
(13.1907 -24.4615 1.12638e-19)
(12.8232 -24.4503 -1.69568e-19)
(12.445 -24.441 8.9479e-20)
(12.2342 -24.1621 -1.1548e-20)
(8.65914 -10.0315 0)
(18.598 -20.7204 -4.06271e-19)
(20.6409 -24.0686 2.19995e-19)
(20.0077 -24.0283 2.2283e-19)
(19.3039 -23.9235 -4.83052e-20)
(18.6123 -23.8494 -4.31305e-20)
(18.0058 -23.7661 -1.84366e-19)
(17.3938 -23.7027 0)
(16.8478 -23.6678 0)
(16.3151 -23.6221 0)
(15.8076 -23.5884 -1.65911e-20)
(15.3351 -23.5467 0)
(14.8686 -23.5281 7.13875e-20)
(14.4311 -23.4801 -5.7089e-20)
(13.9984 -23.4736 1.31344e-19)
(13.5954 -23.44 -2.91803e-19)
(13.1743 -23.3926 1.6002e-19)
(12.7787 -23.379 2.42824e-19)
(12.4136 -23.4405 -4.43832e-19)
(12.2122 -23.2036 2.4185e-19)
(9.02072 -9.60482 0)
(18.9262 -19.5692 0)
(20.7633 -22.4529 7.9957e-20)
(20.1415 -22.4986 6.56836e-20)
(19.4607 -22.4559 0)
(18.7857 -22.4415 9.57709e-20)
(18.1695 -22.4018 -9.40881e-20)
(17.5615 -22.3892 0)
(16.9991 -22.3619 -1.25956e-20)
(16.4541 -22.3546 1.23852e-20)
(15.9503 -22.3644 0)
(15.4624 -22.3702 1.58133e-19)
(15.001 -22.382 2.81028e-20)
(14.5539 -22.3955 -1.94013e-19)
(14.1078 -22.3808 0)
(13.6833 -22.3659 0)
(13.2756 -22.3956 0)
(12.8577 -22.3823 3.10736e-19)
(12.445 -22.3706 -3.38772e-19)
(12.1838 -22.2468 0)
(3.22406 -32.6723 0)
(2.95278 -31.0645 0)
(2.00402 -30.0098 -1.10909e-21)
(1.7521 -29.0869 -7.49383e-22)
(1.29109 -28.4699 0)
(1.01371 -27.7431 1.03176e-22)
(0.792398 -27.1682 -7.79048e-24)
(0.589729 -26.6678 0)
(0.463141 -26.2716 -4.89438e-22)
(0.348899 -25.8962 0)
(0.253124 -25.6096 7.30564e-22)
(0.222583 -25.3329 4.32522e-22)
(0.146636 -25.1801 -4.34607e-22)
(0.190306 -24.9595 -9.9614e-22)
(0.105588 -24.8498 0)
(0.233668 -24.6096 2.79297e-22)
(0.131404 -24.0593 -1.42219e-21)
(0.29754 -21.4365 0)
(0.00762995 -15.3278 0)
(0.204184 -6.25981 -1.20616e-21)
(3.83444 -32.4963 1.16273e-20)
(3.46768 -30.7576 0)
(2.42175 -29.758 4.70121e-21)
(2.13013 -28.9869 -2.85988e-21)
(1.60662 -28.4159 0)
(1.27551 -27.6997 -1.12422e-22)
(1.01304 -27.1287 -9.30048e-23)
(0.772575 -26.6304 0)
(0.616873 -26.2384 -6.58912e-22)
(0.475104 -25.866 1.15447e-21)
(0.357191 -25.6076 -2.32361e-21)
(0.309083 -25.3317 3.36511e-21)
(0.217923 -25.1616 -2.72656e-21)
(0.246911 -24.9469 9.37586e-22)
(0.151031 -24.8574 1.02388e-21)
(0.274726 -24.6104 -1.12512e-21)
(0.154039 -24.0683 2.27214e-21)
(0.296428 -21.4202 2.96634e-21)
(0.0147358 -15.3173 1.46547e-21)
(0.201746 -6.22751 1.50654e-21)
(4.26159 -32.1691 -7.04385e-21)
(3.7587 -30.6474 -9.23594e-21)
(2.64125 -29.6474 -3.86227e-21)
(2.30068 -28.8485 0)
(1.74756 -28.2485 0)
(1.39446 -27.5813 -2.27926e-22)
(1.11168 -27.038 -8.36295e-22)
(0.855377 -26.5642 -6.44897e-22)
(0.687736 -26.192 -5.63826e-22)
(0.534835 -25.8324 2.41134e-21)
(0.411373 -25.5633 0)
(0.353611 -25.303 0)
(0.255487 -25.161 0)
(0.283238 -24.9486 4.0916e-21)
(0.181833 -24.8556 0)
(0.302897 -24.6185 4.50174e-21)
(0.175779 -24.0734 -4.61065e-21)
(0.295471 -21.4152 -1.60038e-21)
(0.0283374 -15.3185 -2.99178e-21)
(0.200914 -6.20771 -4.86339e-21)
(4.86239 -31.9538 1.49137e-20)
(4.25945 -30.3338 -2.75149e-20)
(3.05958 -29.3929 1.27522e-21)
(2.66595 -28.7435 6.19529e-21)
(2.05546 -28.1863 0)
(1.64927 -27.53 -1.0043e-21)
(1.32575 -26.9922 4.69314e-21)
(1.03246 -26.5219 -4.60406e-21)
(0.837241 -26.1546 4.25587e-21)
(0.658393 -25.7989 -2.95984e-21)
(0.511655 -25.5573 -2.09254e-22)
(0.436518 -25.2964 3.66982e-21)
(0.323032 -25.1394 -3.68435e-21)
(0.338141 -24.9332 -1.90317e-21)
(0.225929 -24.8601 -2.09478e-21)
(0.338312 -24.6161 -3.67459e-21)
(0.198888 -24.078 5.78198e-21)
(0.297807 -21.4131 -2.13353e-21)
(0.0530628 -15.3218 1.1894e-21)
(0.19613 -6.17949 4.8554e-21)
(5.29317 -31.5658 4.21591e-20)
(4.53901 -30.1698 6.11706e-21)
(3.26701 -29.248 -5.93872e-21)
(2.82587 -28.577 7.73343e-21)
(2.19078 -28.0061 0)
(1.76339 -27.4004 3.09553e-22)
(1.41914 -26.8925 -1.047e-21)
(1.1122 -26.4474 0)
(0.905077 -26.1007 1.17302e-22)
(0.716395 -25.7581 0)
(0.563909 -25.5071 6.46439e-21)
(0.477917 -25.264 0)
(0.358516 -25.1349 0)
(0.373218 -24.9298 7.11253e-21)
(0.256877 -24.8542 -3.96307e-21)
(0.357488 -24.6191 3.64737e-21)
(0.220288 -24.0794 0)
(0.310819 -21.4195 -1.11549e-21)
(0.0755548 -15.3333 1.19436e-21)
(0.198203 -6.15904 0)
(5.87934 -31.2875 1.50456e-20)
(5.02491 -29.8404 -1.08203e-20)
(3.68598 -28.9961 1.27833e-20)
(3.17601 -28.4631 -1.22894e-20)
(2.48921 -27.9359 6.74057e-22)
(2.0088 -27.3405 -3.10528e-22)
(1.62679 -26.8395 2.72694e-21)
(1.28323 -26.4002 4.06009e-21)
(1.05028 -26.059 -2.41998e-21)
(0.836299 -25.7215 -6.32988e-21)
(0.660369 -25.4963 3.07376e-21)
(0.557292 -25.2511 0)
(0.422516 -25.1096 0)
(0.417437 -24.9137 5.49573e-23)
(0.300882 -24.8519 3.42038e-21)
(0.382843 -24.6198 -3.52114e-21)
(0.240024 -24.0859 0)
(0.328379 -21.432 9.38064e-21)
(0.0880621 -15.3459 9.07161e-21)
(0.196265 -6.13056 6.08088e-22)
(6.29478 -30.8455 -4.01446e-20)
(5.28209 -29.6196 3.5965e-20)
(3.88201 -28.81 -5.93987e-21)
(3.32441 -28.2696 0)
(2.61932 -27.7438 -6.76944e-22)
(2.11727 -27.2009 -4.07788e-21)
(1.71658 -26.7315 1.35637e-21)
(1.35983 -26.3183 -4.07166e-21)
(1.11523 -25.9983 0)
(0.892374 -25.6734 0)
(0.710417 -25.4405 -7.24874e-21)
(0.596389 -25.2152 7.27467e-21)
(0.455894 -25.1003 0)
(0.444516 -24.9067 -1.10633e-20)
(0.325769 -24.8398 3.2362e-21)
(0.403888 -24.6218 3.9059e-21)
(0.260152 -24.095 -4.28421e-21)
(0.345592 -21.4463 -1.19949e-20)
(0.100652 -15.3638 -6.00495e-21)
(0.191867 -6.1111 -1.21415e-21)
(6.87134 -30.4941 0)
(5.76247 -29.2718 -1.46485e-20)
(4.29595 -28.5575 1.46943e-20)
(3.65849 -28.1464 0)
(2.90814 -27.6653 0)
(2.35177 -27.1315 4.83861e-21)
(1.91802 -26.671 -4.8531e-21)
(1.52439 -26.2658 0)
(1.25509 -25.9522 -5.98246e-21)
(1.00725 -25.6337 1.27763e-20)
(0.80315 -25.4244 -6.79633e-21)
(0.673333 -25.1959 -8.00328e-21)
(0.518337 -25.0687 8.01925e-21)
(0.483905 -24.8897 0)
(0.357403 -24.8399 0)
(0.423008 -24.6221 4.03377e-21)
(0.273949 -24.1037 -6.93385e-21)
(0.35709 -21.4709 -2.21937e-23)
(0.110533 -15.3829 3.65332e-21)
(0.183143 -6.08787 -1.20312e-21)
(7.25322 -30.0008 2.11881e-20)
(5.99239 -28.9936 -2.12194e-20)
(4.48075 -28.3263 -1.03851e-20)
(3.79535 -27.9252 8.36397e-21)
(3.0346 -27.4627 6.72197e-22)
(2.45432 -26.9835 3.10261e-21)
(2.00479 -26.5561 -5.61714e-21)
(1.59845 -26.1769 0)
(1.31765 -25.885 0)
(1.06115 -25.579 -6.86642e-21)
(0.850849 -25.3638 0)
(0.711214 -25.1571 0)
(0.551032 -25.0549 0)
(0.512743 -24.878 0)
(0.379251 -24.8257 0)
(0.439264 -24.6231 0)
(0.283474 -24.1145 4.57613e-21)
(0.360594 -21.4952 -4.84165e-21)
(0.108686 -15.4066 1.21688e-21)
(0.172774 -6.07216 -1.18679e-21)
(7.80241 -29.5843 -3.11326e-20)
(6.46083 -28.6275 -2.65713e-20)
(4.88521 -28.0689 -1.30218e-21)
(4.11366 -27.7905 3.11702e-21)
(3.31353 -27.3747 2.93782e-21)
(2.67846 -26.9035 -6.13992e-21)
(2.19962 -26.4878 -4.1347e-21)
(1.75646 -26.1189 0)
(1.45174 -25.8343 6.86123e-21)
(1.17099 -25.5361 -1.33103e-20)
(0.940095 -25.3426 -7.62966e-21)
(0.786436 -25.1315 -8.34352e-21)
(0.60905 -25.0176 0)
(0.550542 -24.8562 -8.49239e-21)
(0.411344 -24.8206 -8.62479e-21)
(0.455681 -24.6186 0)