/*--------------------------------*- C++ -*----------------------------------*\
  =========                 |
  \\      /  F ield         | OpenFOAM: The Open Source CFD Toolbox
   \\    /   O peration     | Website:  https://openfoam.org
    \\  /    A nd           | Version:  9
     \\/     M anipulation  |
\*---------------------------------------------------------------------------*/
FoamFile
{
    format      ascii;
    class       volScalarField;
    location    "7.7";
    object      p;
}
// * * * * * * * * * * * * * * * * * * * * * * * * * * * * * * * * * * * * * //

dimensions      [0 2 -2 0 0 0 0];

internalField   nonuniform List<scalar> 
46400
(
47.8883
53.5521
62.8631
71.6347
79.0648
86.0639
92.1896
97.8243
102.848
107.433
111.589
115.366
118.882
122.092
125.131
128.01
130.69
133.529
136.566
136.823
76.4279
81.0573
89.5997
97.8672
104.58
110.902
116.334
121.308
125.677
129.633
133.165
136.356
139.245
141.863
144.268
146.472
148.451
150.469
152.438
152.127
103.719
108.75
116.792
124.151
130.164
135.649
140.339
144.551
148.233
151.5
154.409
156.951
159.256
161.261
163.065
164.658
166.007
167.37
168.442
167.278
131.401
136.852
143.803
150.156
155.19
159.808
163.695
167.135
170.111
172.694
174.966
176.917
178.63
180.112
181.402
182.504
183.41
184.297
185.042
183.652
159.305
165.32
170.739
175.878
179.919
183.54
186.575
189.199
191.434
193.318
194.934
196.267
197.386
198.286
199.018
199.589
199.987
200.389
200.643
199.061
186.697
192.622
196.384
200.257
203.345
206.019
208.295
210.165
211.752
213.003
214.046
214.847
215.488
215.935
216.251
216.407
216.423
216.388
216.443
214.637
212.584
217.02
220.308
223.057
225.409
227.271
228.802
229.991
230.915
231.559
231.996
232.234
232.324
232.294
232.157
231.941
231.585
231.252
231.04
229.261
236.046
239.543
242.223
244.305
246.004
247.247
248.195
248.788
249.183
249.314
249.29
249.056
248.674
248.152
247.547
246.853
246.07
245.285
244.622
242.59
257.282
260.153
262.192
263.615
264.678
265.288
265.644
265.676
265.505
265.126
264.611
263.973
263.219
262.356
261.404
260.387
259.285
258.2
257.224
255.107
277.601
279.856
281.397
282.213
282.785
282.867
282.733
282.28
281.635
280.756
279.734
278.584
277.348
276.029
274.644
273.213
271.712
270.243
268.866
266.548
294.873
296.552
297.561
297.902
297.998
297.657
297.079
296.225
295.238
294.073
292.779
291.35
289.825
288.219
286.557
284.852
283.088
281.34
279.668
277.208
312.115
313.186
313.757
313.558
313.184
312.358
311.303
309.957
308.451
306.807
305.041
303.196
301.257
299.282
297.25
295.217
293.129
291.095
289.114
286.526
325.675
326.069
326.325
325.799
325.121
324.044
322.874
321.403
319.79
317.965
316.038
313.98
311.851
309.638
307.372
305.062
302.705
300.364
298.08
295.257
339.299
339.195
338.782
337.826
336.555
335.014
333.29
331.404
329.361
327.21
324.948
322.626
320.233
317.805
315.333
312.843
310.313
307.806
305.377
302.443
348.116
348.068
347.662
346.638
345.469
343.89
342.15
340.168
338.045
335.766
333.375
330.893
328.335
325.735
323.088
320.437
317.738
315.083
312.527
309.49
356.581
356.592
355.707
354.533
352.938
351.093
349.031
346.754
344.365
341.825
339.228
336.534
333.817
331.052
328.282
325.5
322.71
319.94
317.291
314.232
361.903
361.72
360.971
359.879
358.438
356.664
354.616
352.37
349.923
347.361
344.662
341.897
339.057
336.182
333.283
330.369
327.446
324.531
321.737
318.566
366.129
365.774
364.88
363.571
361.861
359.842
357.626
355.165
352.632
349.926
347.182
344.341
341.483
338.579
335.675
332.761
329.849
326.963
324.209
321.16
367.806
367.195
366.507
365.041
363.512
361.541
359.455
357.073
354.603
351.948
349.217
346.392
343.523
340.602
337.664
334.711
331.749
328.807
326.017
322.843
366.859
366.621
365.7
364.438
362.868
360.93
358.786
356.41
353.904
351.265
348.559
345.772
342.955
340.082
337.212
334.311
331.421
328.524
325.784
322.651
-255.079
-254.4
-252.378
-245.06
-236.919
-228.482
-219.659
-211.581
-203.516
-195.857
-188.396
-181.195
-174.288
-167.516
-161.094
-154.742
-148.763
-142.848
-137.206
-131.836
-256.993
-255.752
-252.207
-244.37
-234.602
-225.045
-215.867
-207.056
-198.669
-190.53
-182.77
-175.27
-168.114
-161.145
-154.553
-148.067
-141.987
-135.974
-130.315
-124.903
-260.039
-258.537
-251.726
-242.567
-231.677
-221.143
-211.43
-202
-193.076
-184.63
-176.504
-168.747
-161.363
-154.209
-147.465
-140.84
-134.691
-128.578
-122.93
-117.447
-260.934
-258.872
-249.699
-239.275
-227.548
-216.393
-206.022
-196.25
-186.928
-178.113
-169.731
-161.735
-154.139
-146.826
-139.934
-133.218
-126.987
-120.803
-115.157
-109.621
-258.698
-257.231
-245.606
-234.004
-222.043
-210.477
-199.54
-189.379
-179.72
-170.608
-161.959
-153.752
-145.982
-138.541
-131.547
-124.751
-118.483
-112.266
-106.676
-101.1
-254.264
-253.165
-243.013
-228.909
-215.946
-203.821
-192.334
-181.701
-171.688
-162.303
-153.425
-145.051
-137.144
-129.603
-122.523
-115.689
-109.408
-103.196
-97.6618
-92.0474
-250.282
-247.749
-235.487
-221.223
-207.428
-194.823
-183.102
-172.229
-162.037
-152.496
-143.53
-135.069
-127.111
-119.562
-112.473
-105.668
-99.4465
-93.2732
-87.8944
-82.3174
-241.279
-238.477
-225.906
-211.086
-197.379
-184.539
-172.602
-161.59
-151.236
-141.616
-132.549
-124.052
-116.087
-108.545
-101.481
-94.7709
-88.6133
-82.5208
-77.3102
-71.8307
-232.287
-228.354
-214.662
-199.456
-185.243
-172.302
-160.217
-149.153
-138.784
-129.14
-120.146
-111.681
-103.765
-96.2977
-89.2979
-82.6682
-76.5443
-70.5521
-65.4032
-59.9035
-218.822
-214.401
-200.19
-185.058
-171.022
-158.195
-146.145
-135.172
-124.894
-115.37
-106.454
-98.1142
-90.3349
-83.0011
-76.1245
-69.6348
-63.6293
-57.7492
-52.7167
-47.1604
-203.914
-198.774
-184.176
-169.035
-154.976
-142.345
-130.408
-119.577
-109.498
-100.13
-91.4482
-83.3035
-75.7358
-68.6328
-61.9952
-55.7762
-50.0131
-44.4354
-39.7263
-34.3975
-185.951
-180.38
-165.484
-150.809
-136.931
-124.628
-112.99
-102.421
-92.6306
-83.5469
-75.1178
-67.2335
-59.9257
-53.0718
-46.6547
-40.6599
-35.0828
-29.7309
-25.1827
-19.9603
-165.818
-159.833
-145.003
-130.77
-117.235
-105.313
-94.0859
-83.8463
-74.423
-65.6768
-57.62
-50.0925
-43.135
-36.6415
-30.5943
-24.9801
-19.7517
-14.7645
-10.5916
-5.56372
-144.016
-137.777
-122.654
-109.169
-95.9416
-84.4804
-73.7004
-63.8837
-54.8896
-46.5453
-38.878
-31.7172
-25.1297
-18.9974
-13.2827
-8.00982
-3.08091
1.53396
5.43433
10.2132
-120.372
-113.547
-97.8708
-85.5324
-73.0851
-62.158
-52.0706
-42.7469
-34.2917
-26.4379
-19.2498
-12.5672
-6.4128
-0.710627
4.57099
9.41801
13.9603
18.177
21.7066
26.2735
-95.1311
-88.2957
-73.0326
-61.0129
-49.3449
-38.8984
-29.3486
-20.5651
-12.5913
-5.22309
1.49293
7.73424
13.4328
18.6944
23.5592
27.9844
32.1381
35.887
39.0501
43.3325
-68.1971
-61.1397
-46.6127
-35.3588
-24.5024
-14.7232
-5.88758
2.32515
9.69051
16.525
22.7319
28.4608
33.7153
38.5318
42.9537
46.9503
50.7115
54.0004
56.7715
60.8154
-40.1476
-33.2902
-19.8006
-8.95094
1.01982
10.221
18.3964
25.9871
32.8029
39.0795
44.7626
50.0074
54.7716
59.1295
63.1126
66.6919
70.0274
72.803
75.1393
78.8339
-11.4218
-4.5463
7.80697
17.8672
26.9611
35.4312
42.9283
49.8978
56.1215
61.8621
67.0575
71.8074
76.165
80.1062
83.7004
86.9457
89.9431
92.2662
94.3292
98.1607
18.1946
25.0691
35.5967
45.1147
53.1942
60.9335
67.689
74.005
79.6438
84.8464
89.5615
93.926
97.9359
101.639
105.101
108.35
111.319
114.056
117.064
120.864
-105.276
-75.9772
-45.3468
-27.6656
-6.75467
5.45115
19.3379
28.1091
37.4779
43.9593
50.0971
54.9574
58.8643
62.6139
65.0356
67.5048
69.391
70.6599
71.0468
72.041
-98.4582
-70.8652
-40.8752
-24.2864
-3.97074
7.75183
21.2628
29.7148
38.8409
45.0765
51.0265
55.7159
59.4938
63.125
65.3456
67.8356
69.5212
70.9162
71.1792
72.136
-91.276
-65.5023
-36.2967
-20.6023
-1.04735
10.1536
23.114
31.369
40.0631
46.194
51.9712
56.4917
60.1351
63.6834
65.7143
68.2486
69.6594
71.2541
71.3611
72.2852
-83.7629
-59.9287
-31.63
-16.8679
1.8505
12.7014
25.1284
33.1345
41.4825
47.454
52.9913
57.3271
60.8443
64.2702
66.0698
68.6272
69.7824
71.5624
71.5569
72.4254
-75.8268
-54.1168
-26.7942
-12.9059
4.99036
15.2715
27.1644
34.9177
42.8374
48.6644
54.0399
58.1859
61.5696
64.9062
66.5025
69.1419
69.9213
71.9993
71.7635
72.5853
-67.4366
-48.0024
-21.7629
-8.9242
8.14156
17.9447
29.3407
36.778
44.3418
50.0745
55.1639
59.1054
62.3401
65.5527
66.954
69.6426
70.1691
72.3809
71.964
72.7535
-58.8217
-41.6531
-16.619
-4.77935
11.4759
20.6731
31.5482
38.676
45.8981
51.457
56.3058
60.0509
63.1453
66.2368
67.4524
70.2987
70.5069
72.8226
72.2952
72.9317
-49.8295
-34.9785
-11.2335
-0.590351
14.8394
23.5085
33.8477
40.6675
47.5275
52.8355
57.5458
61.0564
63.9739
66.9484
67.9808
70.8737
70.8555
73.1966
72.5382
73.1086
-38.9089
-27.8816
-5.71447
3.76168
18.3395
26.4071
36.1704
42.7006
49.2479
54.2023
58.7586
62.089
64.8612
67.8316
68.6537
71.4945
71.2342
73.5407
72.8068
73.3152
-28.6869
-20.6789
-0.0437357
8.18685
21.8983
29.3984
38.5859
44.8037
50.9856
55.6203
60.0927
63.1809
65.8027
68.6631
69.3632
72.041
71.5395
73.9153
73.0972
73.5159
-18.3225
-13.0025
5.74846
12.7597
25.5595
32.4541
41.0231
46.9446
52.7967
57.159
61.387
64.2993
66.7657
69.4952
70.0617
72.6332
71.9019
74.2785
73.3607
73.7294
-6.95888
-5.19248
11.7181
17.4246
29.2863
35.5991
43.5486
49.145
54.6247
58.7499
62.7842
65.4773
67.7508
70.3494
70.741
73.2171
72.193
74.6506
73.6116
73.9494
4.60286
2.98086
17.7854
22.2254
33.0905
38.7992
46.0918
51.3829
56.4994
60.4019
64.1665
66.6804
68.7903
71.251
71.4385
73.8532
72.5041
75.0443
73.8379
74.1767
17.0599
11.3021
24.0259
27.1351
36.9671
42.0879
48.7188
53.6785
58.4086
62.1125
65.6356
67.9405
69.8707
72.1712
72.171
74.4945
72.7586
75.4517
74.0727
74.3837
29.764
19.8592
30.3086
32.1183
40.8961
45.4012
51.3542
56.0036
60.3512
63.8573
67.1031
69.2207
70.9777
73.1345
72.9541
75.1511
73.0657
75.8973
74.3223
74.6049
43.5236
28.7329
36.8152
37.2056
44.8701
48.7737
54.0423
58.3558
62.3182
65.6413
68.6206
70.5185
72.075
74.1088
73.7498
75.6841
73.3154
76.3056
74.5644
74.8184
57.3204
38.0741
43.5005
42.5453
49.0515
52.2968
56.8419
60.823
64.3613
67.5254
70.2007
71.9458
73.3266
75.1839
74.6788
76.6177
73.6328
76.6995
74.7961
74.9709
70.7493
45.9637
49.7704
47.6143
53.1122
55.7542
59.6183
63.2873
66.4209
69.4478
71.8172
73.3259
74.5517
76.2694
75.5939
77.5925
73.885
77.575
75.1122
75.4763
88.5543
55.3542
57.1721
51.928
56.4418
58.4891
61.8565
65.246
68.0704
71.0374
73.2352
74.3965
75.4687
77.0141
76.1441
77.8341
74.1232
77.773
75.0734
75.279
110.013
72.5192
67.1471
59.9083
62.1462
63.5471
65.5958
68.4734
70.6112
73.3992
75.0855
76.2191
77.1149
78.5991
77.7795
79.221
75.6468
77.7643
74.0702
76.0668
146.648
144.178
116.624
116.502
103.387
102.714
95.4598
96.2799
92.4761
93.4148
91.3581
93.4494
92.5634
93.4993
93.3447
94.1118
91.9608
94.2809
80.1949
99.6255
182.472
169.458
148.043
139.905
126.7
121.891
114.286
111.234
106.806
105.41
102.51
101.61
99.7967
99.4137
98.2833
98.0161
96.3108
97.1942
94.2568
97.3469
187.962
176.983
164.299
155.726
146.488
140.226
133.696
129.363
124.907
122.119
119.473
117.787
115.94
114.934
113.486
113.29
111.694
111.147
110.233
110.633
188.112
179.152
170.328
162.428
155.019
148.745
143.103
138.522
134.171
130.741
127.233
124.617
122.068
120.091
118.38
116.811
115.754
114.956
114.221
114.203
182.31
175.658
170.106
164.358
159.377
154.522
150.152
146.192
142.57
139.271
136.459
133.797
131.403
129.226
127.076
125.24
123.167
121.586
120.564
120.534
178.844
174.459
170.796
166.303
162.207
158.035
154.308
150.639
147.338
144.333
141.296
138.705
136.127
133.787
131.632
129.378
127.59
125.439
124.473
123.972
175.165
171.899
169.074
165.711
162.91
159.91
157.143
154.423
151.756
149.183
146.772
144.373
142.086
139.863
137.57
135.327
132.994
130.608
128.928
128.302
173.176
171.048
169.198
166.996
164.586
161.96
159.563
157.19
154.916
152.748
150.432
148.467
146.12
144.154
141.762
139.641
137.056
134.579
132.384
131.587
171.806
170.132
168.584
166.656
165.019
163.393
161.782
160.1
158.351
156.755
154.931
153.261
151.393
149.835
147.753
146.117
143.589
141.89
139.078
138.68
171.176
170.106
169.153
168.005
166.773
165.434
163.994
162.645
161.204
159.956
158.605
157.469
155.96
154.816
153.137
151.988
149.733
148.799
145.197
145.456
171.185
170.473
169.636
168.869
168.113
167.321
166.465
165.611
164.695
163.874
162.859
162.172
161.146
160.629
159.391
159.216
157.212
158.055
155.482
157.551
171.695
171.243
170.665
170.127
169.552
169.016
168.423
167.944
167.471
167.047
166.714
166.387
166.234
166.045
166.154
166.201
166.66
166.975
168.37
170.397
172.341
172.078
171.763
171.473
171.134
170.893
170.567
170.431
170.127
170.173
169.984
170.247
170.324
170.815
171.351
172.029
173.479
174.019
177.481
177.874
173.224
173.095
172.893
172.773
172.616
172.551
172.473
172.514
172.56
172.771
172.977
173.452
173.852
174.736
175.334
176.883
177.732
180.181
182.636
184.021
173.917
173.897
173.836
173.854
173.839
173.939
173.991
174.23
174.379
174.819
175.11
175.836
176.302
177.492
178.037
180.188
180.47
184.37
185.08
189.01
174.812
174.835
174.842
174.917
174.995
175.156
175.328
175.612
175.901
176.354
176.779
177.455
178.042
179.001
179.777
181.081
182.021
183.952
184.764
191.122
175.29
175.372
175.46
175.609
175.756
175.994
176.215
176.569
176.887
177.388
177.826
178.511
179.083
180.006
180.695
181.952
182.694
184.187
185.264
187.42
175.984
176.085
176.176
176.289
176.447
176.671
176.93
177.263
177.619
178.069
178.525
179.1
179.661
180.365
181.024
181.852
182.577
183.528
184.055
185.052
176.215
176.289
176.396
176.597
176.823
177.108
177.371
177.701
178.038
178.482
178.902
179.455
179.942
180.602
181.122
181.87
182.371
183.151
183.565
184.056
176.376
176.474
176.618
176.786
176.97
177.189
177.481
177.828
178.204
178.622
179.071
179.56
180.071
180.616
181.166
181.738
182.278
182.834
183.285
183.762
285.754
285.559
284.606
283.216
280.93
278.203
274.578
270.647
265.6
260.498
254.252
247.875
240.505
233.013
224.424
215.982
205.187
194.275
185.01
174.035
257.674
257.384
256.827
255.945
254.773
253.329
251.581
249.552
247.198
244.636
241.712
238.786
234.988
230.044
225.418
222.036
217.243
212.994
207.768
202.822
220.427
220.27
220.045
219.682
219.204
218.65
217.914
217.163
216.155
215.201
213.94
212.766
211.199
209.833
207.972
206.249
204.102
202.242
199.648
197.829
208.542
208.369
208.117
207.828
207.458
207.048
206.54
205.984
205.31
204.611
203.741
202.925
201.86
200.954
199.755
198.78
197.372
196.312
194.732
193.65
192.473
192.37
192.294
192.121
191.951
191.716
191.454
191.167
190.822
190.494
190.077
189.706
189.209
188.792
188.192
187.742
187.014
186.552
185.744
185.269
186.854
186.768
186.62
186.487
186.301
186.117
185.895
185.662
185.399
185.112
184.785
184.445
184.05
183.672
183.214
182.811
182.282
181.869
181.26
180.856
180.14
180.079
180.027
179.931
179.837
179.709
179.573
179.414
179.236
179.05
178.837
178.632
178.393
178.165
177.891
177.646
177.331
177.073
176.694
176.449
177.395
177.338
177.257
177.175
177.072
176.964
176.839
176.705
176.557
176.398
176.228
176.044
175.839
175.628
175.397
175.167
174.901
174.668
174.37
174.14
174.886
174.855
174.81
174.757
174.689
174.615
174.524
174.429
174.315
174.201
174.065
173.928
173.773
173.62
173.445
173.276
173.08
172.895
172.674
172.48
173.94
173.886
173.822
173.751
173.67
173.586
173.491
173.394
173.289
173.181
173.066
172.947
172.823
172.687
172.543
172.386
172.19
172.015
171.794
171.603
173.316
173.306
173.28
173.22
173.161
173.078
173.009
172.924
172.845
172.763
172.68
172.591
172.493
172.388
172.276
172.157
172.031
171.898
171.76
171.614
173.285
173.256
173.222
173.189
173.148
173.106
173.05
172.993
172.926
172.862
172.798
172.729
172.654
172.575
172.491
172.401
172.308
172.207
172.105
171.991
173.434
173.418
173.397
173.373
173.346
173.316
173.284
173.247
173.208
173.163
173.117
173.064
173.012
172.951
172.893
172.825
172.76
172.683
172.615
172.526
174.193
174.158
174.124
174.09
174.056
174.02
173.983
173.944
173.904
173.862
173.821
173.776
173.731
173.683
173.635
173.583
173.533
173.476
173.425
173.361
174.384
174.366
174.349
174.332
174.316
174.3
174.284
174.266
174.249
174.229
174.21
174.187
174.167
174.141
174.119
174.091
174.068
174.036
174.012
173.976
175.243
175.214
175.186
175.16
175.136
175.113
175.091
175.07
175.05
175.03
175.011
174.991
174.973
174.953
174.936
174.916
174.9
174.879
174.865
174.842
175.398
175.378
175.361
175.348
175.337
175.328
175.32
175.313
175.307
175.3
175.295
175.29
175.286
175.281
175.279
175.276
175.276
175.273
175.276
175.274
176.256
176.227
176.18
176.117
176.067
176.03
176
175.976
175.955
175.939
175.924
175.915
175.914
175.915
175.919
175.922
175.932
175.938
175.95
175.957
176.305
176.267
176.232
176.214
176.204
176.196
176.189
176.183
176.181
176.178
176.18
176.179
176.175
176.172
176.171
176.172
176.173
176.175
176.181
176.19
176.493
176.463
176.433
176.407
176.383
176.361
176.343
176.327
176.314
176.304
176.297
176.292
176.289
176.288
176.291
176.297
176.307
176.318
176.334
176.348
101.11
97.9576
91.5927
85.8275
80.0635
73.903
67.4561
60.6377
53.3479
45.4868
37.0277
27.8366
17.8943
7.03381
-4.77745
-17.6959
-32.0546
-47.4447
-65.526
-73.8269
114.05
112.15
107.692
103.139
98.4184
93.265
87.7166
81.7286
75.2404
68.21
60.585
52.2203
43.1559
33.1758
22.3493
10.3656
-2.78638
-16.986
-34.0702
-42.6781
130.024
129.177
125.602
121.75
117.718
113.233
108.372
103.09
97.3292
91.0351
84.1724
76.6345
68.4347
59.3847
49.5183
38.5442
26.5401
13.2834
-2.49722
-11.1647
146.455
145.899
142.829
139.646
136.283
132.526
128.413
123.897
118.923
113.475
107.479
100.846
93.597
85.5382
76.7379
66.8739
56.099
44.0639
29.9849
20.8859
163.151
163.11
160.756
158.179
155.463
152.356
148.912
145.082
140.832
136.115
130.89
125.079
118.695
111.54
103.703
94.8541
85.274
74.4134
61.8105
53.9339
179.858
180.109
178.149
176.104
173.916
171.404
168.583
165.42
161.871
157.918
153.469
148.485
142.94
136.701
129.812
121.998
113.455
103.625
92.4902
85.7422
196.525
197.056
195.56
194.046
192.417
190.479
188.267
185.743
182.869
179.595
175.874
171.666
166.955
161.56
155.56
148.62
141.035
132.126
121.922
116.336
212.33
213.055
212.022
210.972
209.837
208.443
206.805
204.893
202.66
200.091
197.1
193.684
189.746
185.22
180.089
174.128
167.442
159.506
149.997
144.587
227.087
228.14
227.661
227.158
226.581
225.769
224.728
223.443
221.877
219.992
217.745
215.113
212.038
208.415
204.263
199.264
193.739
186.849
178.733
172.788
241.297
242.577
242.533
242.48
242.352
242.035
241.521
240.815
239.857
238.651
237.105
235.245
232.933
230.194
226.892
222.957
218.412
212.626
206.156
200.052
254.165
255.692
256.133
256.558
256.927
257.143
257.191
257.076
256.748
256.19
255.356
254.247
252.773
250.922
248.585
245.692
242.259
237.78
233.107
226.631
266.216
267.987
268.84
269.693
270.497
271.195
271.744
272.181
272.422
272.505
272.33
271.933
271.167
270.1
268.54
266.612
264.02
260.89
257.082
251.9
276.935
279.001
280.322
281.63
282.923
284.111
285.181
286.134
286.914
287.52
287.888
288.042
287.893
287.46
286.642
285.435
283.747
281.58
278.767
274.956
287.041
289.417
291.079
292.738
294.372
295.894
297.308
298.615
299.77
300.798
301.633
302.328
302.714
302.921
302.68
302.231
301.199
299.831
297.723
294.738
296.106
298.684
300.528
302.449
304.349
306.183
307.934
309.623
311.198
312.672
313.981
315.119
316.002
316.668
317.006
317.079
316.635
315.906
314.41
312.118
304.024
306.638
308.675
310.803
312.944
315.021
317.057
319.029
320.91
322.693
324.325
325.822
327.102
328.242
329.054
329.645
329.713
329.525
328.56
326.92
310.26
313.041
315.31
317.7
320.086
322.452
324.76
327.048
329.228
331.366
333.336
335.24
336.902
338.45
339.603
340.595
341.08
341.429
340.922
339.96
315.452
318.355
320.788
323.343
325.92
328.455
330.972
333.435
335.844
338.166
340.392
342.488
344.428
346.18
347.699
349.039
349.997
350.815
350.853
350.863
319.219
322.171
324.747
327.456
330.179
332.882
335.562
338.218
340.813
343.357
345.789
348.126
350.296
352.314
354.091
355.67
356.872
357.839
358.272
358.44
321.717
324.792
327.492
330.324
333.161
335.985
338.78
341.562
344.274
346.948
349.503
351.996
354.323
356.518
358.499
360.241
361.672
362.78
363.4
363.394
-123.53
-128.594
-133.952
-139.502
-145.06
-150.96
-156.771
-162.933
-169.066
-175.407
-181.787
-188.468
-195.044
-201.646
-207.95
-213.77
-217.882
-217.435
-217.759
-218.131
-118.985
-124.264
-129.808
-135.653
-141.475
-147.685
-153.861
-160.328
-166.855
-173.595
-180.484
-187.476
-194.55
-201.611
-208.567
-215.044
-219.86
-221.754
-222.094
-222.22
-114.449
-119.974
-125.704
-131.851
-137.972
-144.551
-151.121
-158.065
-165.092
-172.363
-179.814
-187.466
-195.321
-203.134
-211.18
-218.674
-225.354
-230.352
-230.241
-231.09
-109.725
-115.52
-121.474
-127.97
-134.418
-141.376
-148.4
-155.792
-163.4
-171.3
-179.494
-187.938
-196.648
-205.643
-214.822
-224.121
-233.012
-240.162
-241.272
-242.129
-104.727
-110.789
-116.93
-123.738
-130.539
-137.912
-145.412
-153.357
-161.572
-170.172
-179.179
-188.586
-198.467
-208.885
-219.509
-230.92
-242.491
-252.332
-256.739
-257.418
-99.1854
-105.523
-111.876
-118.998
-126.12
-133.848
-141.81
-150.248
-159.09
-168.391
-178.205
-188.553
-199.574
-211.18
-223.552
-236.965
-251.131
-263.965
-272.418
-273.578
-93.0936
-99.6875
-106.193
-113.582
-121.023
-129.107
-137.468
-146.356
-155.7
-165.58
-176.081
-187.231
-199.114
-211.801
-225.513
-240.241
-256.139
-271.322
-284.185
-285.172
-86.1979
-93.0003
-99.6015
-107.19
-114.861
-123.179
-131.877
-141.144
-150.954
-161.366
-172.464
-184.279
-196.972
-210.549
-225.204
-240.951
-257.8
-274.746
-290.921
-293.48
-78.5397
-85.5142
-92.113
-99.8813
-107.715
-116.251
-125.181
-134.706
-144.833
-155.62
-167.161
-179.499
-192.777
-207.041
-222.43
-239.17
-257.244
-276.504
-291.848
-296.169
-69.7189
-76.8164
-83.456
-91.2267
-99.1307
-107.716
-116.832
-126.568
-136.928
-147.992
-159.85
-172.551
-186.277
-200.992
-216.921
-234.334
-252.903
-272.462
-290.875
-295.662
-60.0408
-67.1276
-73.6893
-81.4139
-89.3671
-97.98
-107.129
-116.917
-127.389
-138.612
-150.669
-163.636
-177.653
-192.726
-209.212
-227.096
-246.166
-267.898
-285.684
-289.518
-48.9067
-56.0154
-62.4133
-70.0242
-77.9115
-86.4315
-95.5642
-105.365
-115.834
-127.059
-139.139
-152.136
-166.212
-181.382
-197.967
-215.844
-235.567
-257.18
-277.125
-282.572
-35.9769
-43.2414
-49.5956
-57.1225
-64.9797
-73.433
-82.485
-92.1839
-102.593
-113.793
-125.839
-138.827
-152.886
-168.024
-184.584
-202.387
-221.799
-243.334
-263.053
-268.88
-21.6553
-28.9825
-35.3212
-42.7035
-50.4475
-58.7389
-67.641
-77.2129
-87.4389
-98.4288
-110.28
-123.079
-136.946
-151.957
-168.385
-185.966
-205.777
-226.689
-246.856
-254.115
-7.64472
-14.7598
-20.6998
-27.7234
-35.1616
-43.1302
-51.7287
-60.9666
-70.9004
-81.6404
-93.2095
-105.721
-119.292
-133.971
-150.013
-167.398
-186.622
-207.008
-226.657
-234.16
8.82587
1.8437
-3.9334
-10.6461
-17.8528
-25.5602
-33.8803
-42.859
-52.4777
-62.8441
-74.0433
-86.183
-99.3341
-113.604
-129.222
-145.999
-164.71
-184.868
-205.243
-213.055
25.2891
18.4575
13.0503
6.72587
-0.141937
-7.46442
-15.3928
-23.9417
-33.1355
-43.11
-53.8601
-65.5027
-78.1263
-91.8148
-106.737
-122.876
-140.864
-159.733
-180.184
-188.025
43.1814
36.5963
31.5278
25.6696
19.1471
12.1777
4.63565
-3.52757
-12.3028
-21.7799
-32.0189
-43.1575
-55.2166
-68.3378
-82.6405
-98.123
-115.225
-133.458
-153.941
-162.044
63.1315
56.0072
50.9996
45.4912
39.2095
32.4983
25.3088
17.5534
9.21434
0.173767
-9.56338
-20.1214
-31.5472
-43.9569
-57.4697
-72.0994
-88.34
-105.635
-125.267
-133.557
86.5217
79.1085
72.7546
67.0015
60.7041
54.0016
46.9719
39.5014
31.5313
22.9882
13.8162
3.84346
-6.91242
-18.6552
-31.4014
-45.2909
-60.6255
-77.0819
-95.9734
-104.373
76.5983
77.0407
75.1326
73.201
70.5097
67.2501
64.3857
60.2962
56.6123
51.4424
46.2068
39.6401
31.6941
23.1747
10.6517
-0.875208
-20.6252
-38.2875
-68.3782
-98.312
77.0554
77.4672
75.7126
73.7738
71.2479
68.1059
65.4055
61.4301
57.9412
52.9055
47.8842
41.4841
33.8229
25.5772
13.3406
2.2466
-17.4304
-34.3402
-64.4825
-92.9313
77.4746
77.9232
76.3666
74.4006
71.9729
68.9479
66.4138
62.5524
59.2371
54.3378
49.5315
43.316
35.9235
27.9491
16.0565
5.49743
-13.7309
-29.7482
-59.7771
-87.6741
77.8726
78.2709
76.8234
74.9412
72.7499
69.8203
67.4552
63.7233
60.5957
55.836
51.2522
45.1937
38.1145
30.3902
18.8302
8.72797
-10.3041
-25.5551
-55.4804
-82.1073
78.2736
78.6452
77.4024
75.486
73.4655
70.6803
68.4867
64.8763
61.9225
57.3038
52.9425
47.0552
40.2776
32.7785
21.611
12.0128
-6.63378
-20.9096
-50.6877
-76.472
78.6389
79.0067
77.8968
76.0697
74.2265
71.5757
69.5551
66.0819
63.3141
58.8379
54.7036
48.968
42.5314
35.2445
24.5154
15.2816
-3.02608
-16.3589
-45.8951
-70.4133
78.9956
79.3373
78.3582
76.6838
75.0025
72.4621
70.6143
67.2691
64.6761
60.3446
56.4347
50.8633
44.754
37.6567
27.3971
18.5713
0.843532
-11.5567
-41.1221
-63.9683
79.3292
79.6451
78.8278
77.2463
75.7995
73.3834
71.7137
68.5105
66.1019
61.916
58.2318
52.8137
47.0646
40.1533
30.4092
21.8772
4.69581
-7.06767
-35.9878
-57.1774
79.6513
79.9471
79.3274
77.7844
76.5784
74.3001
72.8032
69.7362
67.5002
63.4645
59.9996
54.7471
49.3415
42.5989
33.3975
25.2028
8.75773
-2.05137
-30.4318
-50.0709
79.9559
80.2367
79.8188
78.364
77.4103
75.2616
73.9346
71.0162
68.96
65.0744
61.8269
56.7375
51.7002
45.13
36.5078
28.5539
12.8358
2.655
-24.5775
-42.4065
80.2459
80.5049
80.2541
78.9317
78.2195
76.2163
75.0586
72.2843
70.3954
66.666
63.626
58.7128
54.024
47.6177
39.5978
31.9239
17.1132
7.89006
-18.5391
-34.4872
80.522
80.7699
80.6982
79.5262
79.0347
77.2261
76.2256
73.6038
71.8884
68.3137
65.4764
60.7442
56.4186
50.1887
42.7955
35.3214
21.4156
12.7506
-12.2245
-25.2217
80.776
81.0071
81.1431
80.1198
79.8769
78.2273
77.3876
74.9151
73.3607
69.9464
67.3001
62.7633
58.7795
52.7275
45.9737
38.7413
25.8919
18.0743
-5.42377
-13.5903
81.0177
81.2386
81.6001
80.7356
80.7849
79.3029
78.5931
76.275
74.8877
71.6312
69.1689
64.8388
61.2024
55.3514
49.251
42.209
30.4779
23.8472
1.38969
-3.39167
81.2481
81.4469
82.0667
81.3657
81.6907
80.3713
79.7898
77.6298
76.3958
73.2994
71.0079
66.899
63.5853
57.9421
52.4851
45.6607
35.2587
30.5563
8.73375
7.71548
81.4663
81.6636
82.5332
82.0237
82.7167
81.5196
81.0217
79.0195
77.944
75.0018
72.8717
68.9973
66.0027
60.5998
55.7842
49.1422
40.1153
36.1515
16.3264
19.9823
81.6162
81.8963
83.0262
82.7204
83.6664
82.6848
82.2603
80.4303
79.5051
76.7267
74.7562
71.1383
68.4564
63.3295
59.1502
52.7593
45.259
41.7512
24.553
32.6848
81.9749
82.2228
83.7492
83.3846
84.4034
83.9319
83.5344
81.9011
81.1227
78.4888
76.6652
73.3247
70.9346
66.082
62.4512
56.251
50.1306
46.7657
31.9254
45.6388
82.0339
82.1453
84.0186
83.964
85.0653
85.0128
84.619
83.1945
82.5302
79.9832
78.2395
75.1677
72.9768
68.3459
65.1083
59.1171
54.4319
51.2979
40.5865
63.6345
82.8987
81.3852
84.1599
85.1548
86.442
86.3707
86.0708
84.6233
84.1534
81.8131
80.2573
77.4486
75.6089
71.5012
69.1029
63.9498
61.3277
59.1744
55.1937
84.2
101.926
92.2237
98.0789
96.1909
98.765
97.1509
98.5239
97.6833
98.3555
98.0304
99.1741
98.6377
100.388
100.253
104.052
104.323
112.102
111.851
124.151
115.627
102.828
99.9222
102.834
101.657
103.725
103.662
104.892
105.421
106.747
107.872
109.993
112.226
116.247
119.745
126.231
130.819
141.479
147.045
168.709
176.396
118.191
117.809
117.813
118.7
119.312
120.203
121.304
122.518
124.179
125.827
128.429
130.938
134.463
137.627
142.753
147.249
155.044
161.411
173.892
180.591
122.215
122.379
122.513
123.443
124.239
125.611
127.102
129.033
131.33
134.03
137.114
140.214
144.196
148.24
153.635
158.572
165.949
171.306
181.077
185.409
129.971
130.203
130.932
132.33
133.499
134.891
136.483
138.052
140.124
142.041
144.486
146.951
150.051
153.123
156.851
160.527
165.044
169.097
174.416
179.963
133.942
134.239
134.854
136.203
137.458
139.179
140.882
142.9
145.098
147.306
149.989
152.475
155.582
158.386
162.022
165.003
169.186
171.927
177.183
178.321
138.143
138.466
139.522
141.081
142.81
144.31
146.19
147.8
149.745
151.51
153.548
155.514
157.72
159.903
162.22
164.575
166.91
169.182
171.382
174.044
141.083
141.508
142.858
144.436
146.221
147.847
149.784
151.352
153.376
154.975
157.123
158.812
161.016
162.752
164.998
166.672
168.933
170.8
173.107
173.886
143.843
144.519
146.226
147.942
149.976
151.535
153.36
154.815
156.546
157.952
159.625
160.996
162.628
164
165.573
166.97
168.419
169.411
170.346
171.358
146.218
146.855
149.286
150.994
153.361
154.799
156.745
157.983
159.691
160.829
162.39
163.462
164.911
165.917
167.254
168.164
169.356
170.296
171.472
172.253
150.528
151.097
154.117
155.608
157.93
159.163
160.816
161.815
163.149
164.026
165.177
165.96
167.011
167.726
168.693
169.355
170.22
170.671
171.245
171.461
156.901
156.127
160.437
161.062
162.936
163.68
164.861
165.462
166.424
166.948
167.8
168.272
169.04
169.452
170.16
170.488
171.15
171.474
172.057
172.425
170.349
168.542
168.875
168.65
169.561
169.58
170.116
170.232
170.626
170.772
171.128
171.273
171.637
171.787
172.17
172.328
172.708
172.745
173.092
172.967
180.674
179.153
176.639
176.43
175.274
174.939
174.344
174.062
173.793
173.556
173.49
173.322
173.397
173.314
173.419
173.422
173.603
173.614
173.775
173.773
188.017
187.672
184.193
182.779
181.086
179.788
178.889
177.908
177.435
176.751
176.499
176.02
175.884
175.523
175.518
175.2
175.177
174.935
174.977
174.795
194.323
190.256
188.074
185.546
184.22
182.537
181.532
180.315
179.589
178.71
178.19
177.549
177.144
176.675
176.359
176.018
175.996
175.753
175.726
175.531
199.439
190.73
189.599
186.971
186.039
184.16
183.324
181.962
181.292
180.256
179.76
178.998
178.671
178.115
177.882
177.425
177.092
176.739
176.504
176.192
196.113
190.609
189.79
187.187
186.387
184.761
183.971
182.755
182.072
181.151
180.558
179.816
179.314
178.72
178.298
177.832
177.448
177.173
176.942
176.747
192.481
190.43
189.979
187.391
186.679
185.167
184.515
183.324
182.706
181.737
181.2
180.431
179.989
179.388
179.052
178.567
178.343
177.877
177.662
177.318
194.24
191.556
191.813
186.117
185.958
184.904
184.338
183.378
182.737
181.931
181.32
180.643
180.105
179.539
179.09
178.618
178.292
177.915
177.694
177.386
146.699
158.894
170.971
183.041
194.342
205.663
215.943
225.978
235.072
243.808
251.756
258.248
263.936
269.123
273.465
277.192
280.186
282.571
284.263
285.373
198.283
204.963
210.929
215.824