/*--------------------------------*- C++ -*----------------------------------*\
  =========                 |
  \\      /  F ield         | OpenFOAM: The Open Source CFD Toolbox
   \\    /   O peration     | Website:  https://openfoam.org
    \\  /    A nd           | Version:  9
     \\/     M anipulation  |
\*---------------------------------------------------------------------------*/
FoamFile
{
    format      ascii;
    class       volVectorField;
    location    "0.8";
    object      U;
}
// * * * * * * * * * * * * * * * * * * * * * * * * * * * * * * * * * * * * * //

dimensions      [0 1 -1 0 0 0 0];

internalField   nonuniform List<vector> 
46400
(
(7.94029 -7.78807 -2.25381e-19)
(16.3531 -15.5761 1.78938e-19)
(17.6443 -17.6557 -5.68812e-20)
(17.0703 -17.7211 -4.27621e-20)
(16.4917 -17.7085 -4.31329e-20)
(15.9346 -17.7609 -3.20179e-21)
(15.4472 -17.8073 -2.48055e-20)
(14.9876 -17.8784 3.08007e-20)
(14.5129 -17.9022 -3.70847e-20)
(14.073 -17.9251 4.25734e-20)
(13.7095 -18.0414 -4.73577e-20)
(13.3208 -18.075 0)
(12.9543 -18.1393 3.26184e-19)
(12.6254 -18.2043 -3.75428e-19)
(12.3043 -18.2762 -4.96052e-19)
(11.9909 -18.3106 -9.30921e-20)
(11.6714 -18.3711 -2.87699e-20)
(11.3725 -18.3409 4.04242e-19)
(11.0594 -18.2967 5.69096e-19)
(10.6484 -18.4861 -5.24333e-19)
(8.24646 -7.35924 0)
(16.4606 -14.6583 -2.91909e-20)
(17.4916 -16.2388 0)
(16.8721 -16.4174 5.48071e-20)
(16.3949 -16.4914 -5.8851e-20)
(15.8377 -16.6172 1.5305e-20)
(15.3474 -16.6929 0)
(14.8618 -16.7774 -3.07996e-20)
(14.4058 -16.8638 3.70835e-20)
(13.9654 -16.9272 -4.25716e-20)
(13.5684 -17.027 5.30681e-19)
(13.2064 -17.132 3.55269e-20)
(12.8369 -17.2209 -4.47718e-19)
(12.488 -17.2905 0)
(12.1743 -17.4096 6.12346e-20)
(11.8707 -17.4782 6.37405e-20)
(11.5568 -17.5471 0)
(11.3064 -17.5909 -6.27401e-19)
(11.0621 -17.6577 -1.63064e-19)
(10.7216 -17.8578 6.37967e-19)
(8.50496 -6.91814 1.03363e-20)
(16.463 -13.6583 -1.09783e-19)
(17.3604 -15.0428 9.51953e-20)
(16.7053 -15.2262 1.79162e-19)
(16.1361 -15.3083 -1.75898e-19)
(15.5903 -15.446 0)
(15.0985 -15.5866 -5.9848e-19)
(14.6513 -15.7284 5.14493e-19)
(14.1793 -15.8399 -6.8105e-19)
(13.7404 -15.9254 6.74423e-19)
(13.3668 -16.089 6.49957e-19)
(12.9824 -16.1778 -6.13272e-20)
(12.6282 -16.3125 -5.65691e-19)
(12.2887 -16.4038 0)
(11.9755 -16.5358 7.11568e-19)
(11.699 -16.6689 -7.00773e-19)
(11.396 -16.7817 0)
(11.1072 -16.8062 -1.50782e-20)
(10.8141 -16.872 8.22526e-20)
(10.4706 -17.1241 -7.64034e-19)
(8.65276 -6.48548 -1.38052e-19)
(16.3664 -12.6519 2.96144e-20)
(16.9485 -13.693 2.61764e-19)
(16.3223 -13.9568 -2.58579e-19)
(15.8521 -14.1319 -2.31116e-19)
(15.3083 -14.3227 3.1601e-19)
(14.8126 -14.4801 4.37542e-19)
(14.345 -14.6416 -1.11221e-18)
(13.9073 -14.8185 9.33682e-19)
(13.4592 -14.9333 -8.70517e-20)
(13.066 -15.097 0)
(12.7265 -15.2697 9.20173e-20)
(12.3673 -15.4198 -9.38181e-20)
(12.0285 -15.5452 0)
(11.7019 -15.6859 8.47859e-19)
(11.4157 -15.8217 -7.21267e-19)
(11.1504 -16.0048 0)
(10.9237 -16.1364 9.80519e-20)
(10.6599 -16.2351 1.11111e-19)
(10.297 -16.4875 8.85588e-19)
(8.79148 -6.0199 0)
(16.1031 -11.4522 0)
(16.6433 -12.5258 -3.82136e-19)
(15.9824 -12.7706 2.64025e-19)
(15.4106 -12.9516 -5.22842e-19)
(14.8898 -13.1659 4.24499e-19)
(14.4002 -13.3953 0)
(13.9676 -13.599 4.73061e-19)
(13.5144 -13.8005 -5.71922e-19)
(13.0911 -13.958 -1.30817e-19)
(12.7055 -14.1706 -1.31501e-19)
(12.3291 -14.3196 0)
(11.9985 -14.5312 9.88342e-19)
(11.6661 -14.6756 -9.72887e-19)
(11.3542 -14.8565 0)
(11.0661 -15.0123 -1.09549e-18)
(10.7608 -15.165 9.67123e-19)
(10.5134 -15.3063 9.70334e-19)
(10.271 -15.4777 -1.05745e-18)
(9.92831 -15.7644 0)
(9.02236 -5.55068 0)
(15.718 -10.2808 0)
(16.0152 -11.1501 0)
(15.4033 -11.5055 -2.93111e-20)
(14.9365 -11.8011 0)
(14.4138 -12.065 0)
(13.9229 -12.3187 0)
(13.4847 -12.5609 -1.51528e-19)
(13.076 -12.823 0)
(12.6325 -12.9905 1.30815e-19)
(12.2561 -13.2211 -2.02101e-20)
(11.9358 -13.4541 -1.29041e-18)
(11.595 -13.6652 9.71146e-19)
(11.2824 -13.8566 -1.27659e-18)
(10.9562 -14.0323 9.62547e-19)
(10.6948 -14.2357 0)
(10.4305 -14.4443 -1.09953e-18)
(10.1802 -14.5922 9.40172e-19)
(9.94276 -14.7712 0)
(9.61856 -15.0916 -1.48454e-19)
(9.27127 -5.15701 5.51093e-19)
(15.1944 -9.12255 1.62251e-19)
(15.4377 -9.99138 6.25192e-19)
(14.8097 -10.3336 -6.45502e-19)
(14.2561 -10.655 -6.49603e-19)
(13.7897 -10.9577 1.29306e-18)
(13.3162 -11.2811 -1.4757e-18)
(12.9115 -11.5571 1.39761e-19)
(12.5127 -11.8641 4.733e-19)
(12.123 -12.0914 0)
(11.7232 -12.3306 -1.95184e-20)
(11.3668 -12.5369 -1.86007e-20)
(11.0742 -12.8224 1.50123e-19)
(10.7745 -13.032 1.2472e-18)
(10.4681 -13.2439 -1.09702e-18)
(10.1756 -13.4169 -1.39602e-18)
(9.91104 -13.6378 1.2159e-18)
(9.67666 -13.8128 -1.42563e-20)
(9.44476 -13.9922 -1.54478e-19)
(9.13811 -14.3189 -1.10871e-18)
(9.54072 -4.72001 -1.82358e-19)
(14.5617 -8.07771 3.14017e-20)
(14.5138 -8.72775 -1.97929e-19)
(14.0065 -9.17145 -7.7887e-19)
(13.5718 -9.60104 5.38701e-19)
(13.1135 -9.93964 0)
(12.6564 -10.2835 1.12192e-18)
(12.2535 -10.5922 -5.41e-19)
(11.9011 -10.9502 3.67783e-19)
(11.5088 -11.2018 1.92075e-19)
(11.1651 -11.4937 -3.63812e-19)
(10.8353 -11.7419 8.82754e-19)
(10.5125 -11.9966 1.84687e-19)
(10.2651 -12.2861 -1.04697e-18)
(9.97726 -12.5242 2.92766e-18)
(9.72174 -12.7541 -1.19247e-18)
(9.4602 -12.9808 1.50773e-18)
(9.23077 -13.1801 -9.86488e-19)
(9.00973 -13.3767 3.22892e-19)
(8.71804 -13.7047 1.55907e-18)
(9.7158 -4.37492 9.2531e-19)
(13.7542 -7.01644 -1.9519e-19)
(13.6678 -7.73274 -2.7469e-20)
(13.1691 -8.13098 4.23842e-19)
(12.6691 -8.57862 1.9913e-19)
(12.2999 -8.96047 2.21313e-19)
(11.8795 -9.35875 -1.03523e-18)
(11.4962 -9.66442 6.27318e-19)
(11.1692 -10.0528 -1.94181e-19)
(10.8535 -10.3647 -1.9208e-19)
(10.4862 -10.6529 -1.89782e-19)
(10.1746 -10.9178 -2.03957e-19)
(9.86898 -11.1941 -3.85278e-19)
(9.59823 -11.4425 1.3351e-18)
(9.36172 -11.7414 -1.86661e-18)
(9.09736 -11.953 -1.90198e-19)
(8.86799 -12.2152 1.32056e-20)
(8.65446 -12.4201 -1.40222e-18)
(8.45184 -12.6415 1.0461e-18)
(8.20064 -12.9548 -1.66259e-18)
(9.71 -4.05059 8.41635e-19)
(12.8638 -6.06047 -2.15199e-18)
(12.5316 -6.6909 1.42356e-18)
(12.2099 -7.18371 -2.24737e-19)
(11.8361 -7.70615 -2.455e-19)
(11.459 -8.11151 9.52413e-19)
(11.0983 -8.54575 -1.15404e-18)
(10.7283 -8.8875 0)
(10.4058 -9.27283 8.91848e-19)
(10.1001 -9.60865 -8.76992e-19)
(9.81743 -9.95957 -6.39035e-19)
(9.5208 -10.2512 8.33166e-19)
(9.23828 -10.5513 2.00577e-19)
(8.98151 -10.8294 -8.16837e-19)
(8.74374 -11.1165 1.96417e-19)
(8.53902 -11.4079 9.79525e-19)
(8.29058 -11.648 -1.72896e-18)
(8.09788 -11.8969 1.14105e-18)
(7.90146 -12.1274 -1.12492e-20)
(7.67047 -12.4578 -1.58686e-18)
(9.43637 -3.61483 1.18407e-18)
(11.8492 -5.20177 -7.93987e-19)
(11.5762 -5.87156 5.29768e-19)
(11.1746 -6.29416 6.59626e-21)
(10.7687 -6.81671 -1.04191e-18)
(10.4877 -7.26736 -9.91495e-19)
(10.161 -7.7549 1.23194e-18)
(9.83882 -8.11569 -7.24445e-19)
(9.55228 -8.5409 9.60526e-19)
(9.29192 -8.89601 0)
(8.99004 -9.23881 1.49927e-20)
(8.73896 -9.55091 2.19418e-19)
(8.47122 -9.85763 2.28941e-19)
(8.23237 -10.1361 -2.24198e-19)
(7.99883 -10.4239 0)
(7.79754 -10.6905 2.14883e-19)
(7.61882 -10.9951 0)
(7.41184 -11.2072 4.00977e-19)
(7.25383 -11.4777 1.95642e-18)
(7.04885 -11.783 -1.33043e-20)
(8.96722 -3.14475 6.52043e-19)
(10.798 -4.39519 -1.37565e-19)
(10.398 -5.01984 -1.99417e-18)
(10.1875 -5.53743 1.11593e-18)
(9.84332 -6.07195 2.65734e-19)
(9.51471 -6.4913 -2.61531e-19)
(9.26861 -7.01131 -1.06276e-18)
(8.97543 -7.41213 7.91837e-19)
(8.68837 -7.83035 0)
(8.47082 -8.24237 0)
(8.25208 -8.65419 -1.21896e-18)
(8.0074 -8.99875 9.64699e-19)
(7.77701 -9.351 -2.28915e-19)
(7.54939 -9.65676 -6.94902e-19)
(7.34585 -9.98155 5.83634e-21)
(7.13322 -10.2613 1.54988e-18)
(6.95153 -10.5659 -8.66178e-19)
(6.79264 -10.8508 6.35342e-19)
(6.60845 -11.0998 -1.0303e-18)
(6.44566 -11.4627 0)
(8.28633 -2.64482 -5.67276e-19)
(9.68831 -3.69124 9.12465e-19)
(9.33416 -4.36593 1.55539e-19)
(9.03202 -4.83224 1.52785e-19)
(8.75002 -5.41697 0)
(8.48314 -5.85612 1.14585e-18)
(8.21659 -6.36843 -1.12574e-18)
(7.99864 -6.79463 1.41055e-19)
(7.73107 -7.21642 0)
(7.48822 -7.56815 1.05315e-18)
(7.27625 -7.96931 -9.03825e-19)
(7.09595 -8.32264 1.00739e-18)
(6.89218 -8.67861 -9.91396e-19)
(6.69268 -8.98652 9.63003e-19)
(6.49619 -9.29967 -8.277e-19)
(6.3306 -9.59991 -9.2029e-19)
(6.13412 -9.88262 1.80631e-18)
(5.98603 -10.1608 -7.74041e-19)
(5.82905 -10.4314 1.09889e-19)
(5.64369 -10.7626 9.20527e-19)
(7.42886 -2.1496 -4.5335e-19)
(8.45015 -3.03019 4.8702e-19)
(8.06506 -3.6839 -1.55543e-19)
(7.9452 -4.25278 -1.52776e-19)
(7.67747 -4.84635 0)
(7.41522 -5.28372 0)
(7.21378 -5.82758 0)
(7.03274 -6.29584 -2.88104e-19)
(6.85867 -6.79369 -1.12623e-18)
(6.67646 -7.21327 2.20815e-18)
(6.48118 -7.62892 -1.21463e-18)
(6.30284 -8.00521 -1.34113e-19)
(6.14093 -8.38552 0)
(5.98289 -8.72434 0)
(5.80749 -9.04649 -2.4535e-19)
(5.65105 -9.33679 0)
(5.50655 -9.64198 9.33238e-19)
(5.346 -9.87767 -1.14818e-18)
(5.22837 -10.1557 -9.99728e-19)
(5.06932 -10.4187 9.6603e-19)
(6.44055 -1.66706 4.7145e-19)
(7.31443 -2.48142 8.47435e-19)
(6.94179 -3.13616 -1.35122e-22)
(6.67692 -3.61372 -1.22085e-21)
(6.60642 -4.29417 1.6106e-19)
(6.37447 -4.74077 -4.68506e-19)
(6.10335 -5.19393 0)
(5.92639 -5.62838 -4.50432e-19)
(5.7319 -6.07969 1.52265e-19)
(5.59222 -6.50264 5.74022e-19)
(5.43946 -6.94441 5.568e-19)
(5.31041 -7.33395 -4.1369e-19)
(5.16289 -7.74992 1.0613e-18)
(5.04444 -8.11013 -9.12875e-19)
(4.92389 -8.50723 1.13589e-18)
(4.79057 -8.82021 -2.10791e-18)
(4.67721 -9.18679 9.71945e-19)
(4.55934 -9.47067 1.16234e-19)
(4.44883 -9.78636 9.1657e-19)
(4.33796 -10.1067 -9.96843e-19)
(5.30779 -1.21088 1.64745e-19)
(5.88198 -2.02634 -1.72688e-19)
(5.66044 -2.70472 6.91549e-19)
(5.48908 -3.25888 -6.78742e-19)
(5.32166 -3.88367 -3.3062e-19)
(5.33814 -4.52074 -8.05608e-19)
(5.17419 -5.06169 3.80042e-21)
(5.00686 -5.50606 6.20455e-19)
(4.85824 -5.98387 -1.48694e-19)
(4.69381 -6.35767 0)
(4.55546 -6.79141 0)
(4.41105 -7.13002 0)
(4.2979 -7.5343 0)
(4.16598 -7.84843 3.26665e-21)
(4.0643 -8.22379 0)
(3.95489 -8.52671 1.2557e-19)
(3.84783 -8.8654 4.94242e-19)
(3.74859 -9.15013 -1.45182e-18)
(3.64972 -9.44569 1.07023e-18)
(3.544 -9.76132 -1.0117e-18)
(4.19872 -0.855167 0)
(4.64835 -1.65153 -9.14124e-20)
(4.51612 -2.29766 0)
(4.25905 -2.75665 2.58753e-19)
(4.09584 -3.29149 -1.72323e-19)
(3.94072 -3.75729 -6.61872e-19)
(3.95619 -4.38789 3.75136e-21)
(3.84607 -4.85054 6.35269e-19)
(3.76957 -5.40182 -6.15906e-19)
(3.67906 -5.83585 1.20657e-18)
(3.58486 -6.32297 -4.89489e-21)
(3.49585 -6.71501 -5.76736e-19)
(3.38772 -7.14534 5.57584e-19)
(3.31369 -7.50616 -6.83959e-19)
(3.21057 -7.89326 0)
(3.14474 -8.22701 -5.17173e-19)
(3.0568 -8.58596 5.09454e-19)
(2.99074 -8.88675 0)
(2.91435 -9.20339 -1.19475e-19)
(2.8423 -9.52027 0)
(2.76811 -0.503836 9.34138e-20)
(3.07823 -1.24092 9.13916e-20)
(3.30146 -2.07374 0)
(3.27704 -2.7057 3.52134e-19)
(3.13998 -3.30892 -4.34261e-19)
(2.98467 -3.77063 2.52132e-19)
(2.83687 -4.28096 -7.43352e-19)
(2.77129 -4.75004 3.23367e-19)
(2.66495 -5.22373 -7.90673e-20)
(2.5999 -5.65546 0)
(2.52187 -6.10465 -7.52152e-20)
(2.46712 -6.50191 -7.33465e-20)
(2.39756 -6.91817 -7.15229e-20)
(2.33487 -7.27407 0)
(2.27026 -7.66014 -5.38398e-19)
(2.2079 -7.98103 1.12154e-18)
(2.1478 -8.34447 -9.64485e-19)
(2.09374 -8.63811 5.04458e-19)
(2.03855 -8.96197 6.15689e-20)
(1.98424 -9.27866 5.2323e-19)
(2.02681 -0.476371 -1.42297e-19)
(1.75311 -0.810604 -1.8666e-19)
(1.71814 -1.50247 4.26354e-22)
(1.7281 -2.04925 4.91931e-19)
(1.83458 -2.77405 -1.32266e-19)
(1.80302 -3.30026 -8.54951e-20)
(1.7837 -3.90582 8.41105e-20)
(1.70774 -4.3731 1.63585e-19)
(1.68796 -4.91878 7.90575e-20)
(1.61113 -5.33661 -3.08971e-19)
(1.5808 -5.82589 3.41199e-19)
(1.5246 -6.20929 7.33429e-20)
(1.50055 -6.65954 3.57867e-19)
(1.45598 -7.01265 -2.69886e-21)
(1.42841 -7.42454 3.15877e-20)
(1.38552 -7.74603 -5.99777e-19)
(1.35327 -8.12455 1.64178e-19)
(1.31008 -8.41452 0)
(1.27872 -8.74271 -3.05512e-20)
(1.233 -9.04983 -2.64256e-19)
(0.443048 -0.866837 0)
(0.957529 -0.98419 -9.20266e-20)
(0.685851 -1.95084 1.00559e-19)
(0.638163 -2.21082 -4.53195e-20)
(0.498005 -2.92342 -4.43746e-20)
(0.54589 -3.29803 0)
(0.482858 -3.93467 -8.36745e-20)
(0.513431 -4.31207 1.63854e-19)
(0.480524 -4.87593 -8.02365e-20)
(0.509854 -5.24781 7.76193e-20)
(0.476178 -5.75332 -3.84265e-20)
(0.48679 -6.1053 -7.37768e-20)
(0.452439 -6.56252 1.44526e-19)
(0.458617 -6.8938 -1.40913e-19)
(0.433304 -7.31115 3.47643e-20)
(0.441208 -7.6214 2.37976e-34)
(0.422344 -8.00649 -3.2401e-20)
(0.433035 -8.29381 1.90822e-19)
(0.417952 -8.63005 -9.41586e-20)
(0.431538 -8.93678 -6.71085e-20)
(-0.172607 1.64944 0)
(0.312706 0.459342 2.83453e-20)
(0.888694 -3.35626 0)
(3.52164 -11.903 2.68408e-20)
(6.13735 -20.6712 2.62833e-20)
(7.73433 -25.7427 2.57085e-20)
(8.32554 -27.7787 0)
(8.48482 -28.3998 2.37317e-20)
(8.52061 -28.5383 0)
(8.49412 -28.5085 0)
(8.41207 -28.4231 -2.09784e-20)
(8.36461 -28.3228 7.93372e-22)
(8.28664 -28.2861 4.10735e-20)
(8.25289 -28.2202 0)
(8.16559 -28.2112 1.86724e-20)
(8.12921 -28.1353 1.78585e-20)
(8.03788 -28.1352 1.68131e-20)
(8.00617 -28.0491 0)
(7.87975 -28.005 -3.26507e-20)
(7.84312 -27.9141 3.05095e-20)
(-0.0563372 1.41283 2.15796e-20)
(0.490821 -0.842662 -1.41653e-19)
(1.95371 -6.53735 0)
(5.40947 -16.8371 -5.61843e-20)
(7.45914 -23.8354 1.31816e-19)
(8.48661 -27.1579 -2.28255e-19)
(8.77032 -28.2013 9.94707e-20)
(8.8307 -28.4462 6.56924e-20)
(8.80167 -28.4342 -2.8758e-19)
(8.73366 -28.341 1.72893e-19)
(8.65911 -28.2273 -2.16468e-20)
(8.61368 -28.1859 1.63808e-19)
(8.53447 -28.117 -3.29502e-21)
(8.49685 -28.0498 -1.55414e-19)
(8.40448 -28.0312 -1.87743e-20)
(8.37567 -27.9584 -1.79117e-20)
(8.26168 -27.9195 -1.7312e-20)
(8.21469 -27.7985 0)
(8.09719 -27.7889 -1.25286e-19)
(8.07147 -27.6909 2.30357e-21)
(0.279856 0.771489 -2.85609e-20)
(0.702852 -2.74221 0)
(3.53518 -11.283 0)
(6.59546 -20.7846 -5.43087e-20)
(8.3449 -26.1145 5.29192e-20)
(8.9072 -27.9205 0)
(9.06143 -28.39 -4.62074e-20)
(9.04233 -28.3891 1.26323e-19)
(9.00437 -28.3314 -1.31348e-19)
(8.92152 -28.1784 1.71508e-19)
(8.87193 -28.1344 -2.12961e-19)
(8.80847 -28.0361 0)
(8.73343 -27.9646 -1.54491e-19)
(8.6923 -27.9113 -1.45204e-19)
(8.59951 -27.8809 2.56957e-19)
(8.56119 -27.7695 -2.75359e-19)
(8.43301 -27.7106 2.38236e-19)
(8.40743 -27.6316 0)
(8.29123 -27.6063 -2.66801e-19)
(8.24567 -27.446 4.49306e-19)
(0.399498 -0.235189 2.94227e-19)
(1.32315 -4.76104 0)
(4.89226 -15.1569 1.12532e-19)
(7.79362 -23.5286 1.61638e-19)
(9.02304 -27.1702 -3.17101e-19)
(9.36133 -28.2009 1.02287e-19)
(9.38941 -28.3088 4.66323e-20)
(9.37752 -28.2856 4.68789e-19)
(9.31447 -28.1548 -6.98394e-19)
(9.23328 -28.0293 -7.71872e-20)
(9.17574 -27.9304 3.79059e-19)
(9.10992 -27.8563 7.89447e-20)
(9.03893 -27.7879 -3.77555e-19)
(8.97992 -27.716 3.69581e-19)
(8.88249 -27.6511 1.05081e-19)
(8.83073 -27.5419 -6.64905e-20)
(8.70317 -27.5077 9.68148e-20)
(8.67184 -27.3907 0)
(8.51597 -27.3458 -2.76253e-20)
(8.47935 -27.1616 0)
(0.304724 -1.19151 0)
(2.18938 -7.41105 4.64508e-19)
(6.34222 -18.7793 -5.70283e-19)
(8.70054 -25.551 5.48924e-19)
(9.50829 -27.8563 -4.28559e-19)
(9.71472 -28.3051 -9.80594e-20)
(9.70617 -28.2996 0)
(9.66025 -28.1852 2.62695e-19)
(9.56421 -27.9938 -3.64098e-19)
(9.4938 -27.8562 4.2387e-19)
(9.44272 -27.809 -3.3147e-19)
(9.36264 -27.6932 -7.87966e-20)
(9.28144 -27.5969 3.70226e-19)
(9.21808 -27.529 -6.4422e-19)
(9.11986 -27.4578 4.10481e-19)
(9.057 -27.3366 -1.34819e-19)
(8.92208 -27.2573 -3.11307e-19)
(8.89185 -27.1579 7.1056e-19)
(8.73667 -27.1045 -4.00902e-19)
(8.69698 -26.901 -4.70897e-19)
(0.365211 -2.17212 4.92817e-19)
(3.37737 -10.4986 4.78147e-19)
(7.44614 -21.1749 -4.72954e-19)
(9.50756 -26.6861 -1.14462e-19)
(10.0572 -28.1562 1.08474e-19)
(10.1243 -28.2745 3.91123e-19)
(10.095 -28.1739 -3.83166e-19)
(10.0052 -27.9656 0)
(9.93877 -27.8148 3.49536e-19)
(9.86178 -27.7068 -3.43688e-19)
(9.79038 -27.5825 -3.16123e-19)
(9.69332 -27.4594 3.10997e-19)
(9.62019 -27.3861 0)
(9.53597 -27.2972 0)
(9.42686 -27.1946 5.88275e-19)
(9.34561 -27.0661 -5.77322e-19)
(9.21116 -27.0271 -4.75067e-19)
(9.17369 -26.9067 4.64072e-19)
(8.97758 -26.8262 -4.30431e-19)
(8.94069 -26.5991 5.19408e-19)
(0.635487 -3.05996 -3.80295e-19)
(4.53137 -12.9977 1.34028e-19)
(8.58816 -23.2846 1.38464e-20)
(10.2765 -27.5075 5.87468e-19)
(10.5746 -28.2438 0)
(10.592 -28.2046 0)
(10.5034 -28.0032 7.52118e-19)
(10.4304 -27.8334 -2.956e-20)
(10.3173 -27.6313 -7.15884e-19)
(10.2204 -27.4643 6.51661e-19)
(10.1403 -27.3792 -6.40931e-19)
(10.0352 -27.2485 0)
(9.93565 -27.1391 5.55131e-19)
(9.83676 -27.0445 -5.46388e-19)
(9.72057 -26.9359 0)
(9.62365 -26.8135 0)
(9.48005 -26.724 0)
(9.42617 -26.6041 0)
(9.22258 -26.5135 0)
(9.18821 -26.3031 -5.0399e-20)
(1.02958 -3.99721 3.95579e-19)
(5.83125 -15.1099 -6.47561e-19)
(9.6894 -24.5479 0)
(11.0291 -27.783 0)
(11.1731 -28.1472 9.52841e-19)
(11.1157 -28.0245 6.218e-20)
(10.9809 -27.7713 -8.94437e-19)
(10.8595 -27.5451 0)
(10.7398 -27.3502 8.49938e-20)
(10.6313 -27.2356 -7.98131e-20)
(10.5228 -27.089 0)
(10.3847 -26.9342 7.05944e-20)
(10.2842 -26.8464 -6.00024e-19)
(10.1637 -26.7382 1.09219e-18)
(10.0312 -26.6158 -1.93409e-20)
(9.91112 -26.4832 -4.69956e-19)
(9.76634 -26.4302 -5.29244e-20)
(9.69422 -26.3001 4.99447e-20)
(9.46115 -26.1956 0)
(9.41585 -25.9627 4.4426e-20)
(1.74119 -5.20209 8.54877e-20)
(7.05976 -16.7149 1.73546e-19)
(10.7805 -25.5426 -7.82038e-19)
(11.7885 -27.8975 2.36438e-19)
(11.7852 -27.9567 1.06259e-19)
(11.6629 -27.7217 8.84149e-19)
(11.4952 -27.4716 -1.25196e-18)
(11.3657 -27.2757 9.12541e-19)
(11.2052 -27.0638 -7.39918e-19)
(11.0608 -26.8819 8.77579e-19)
(10.9324 -26.7667 1.43806e-19)
(10.7877 -26.6273 6.04673e-19)
(10.6551 -26.5149 -3.39214e-19)
(10.5139 -26.4002 -6.59424e-19)
(10.3665 -26.2697 5.82145e-19)
(10.2279 -26.1495 0)
(10.0673 -26.0501 1.51513e-19)
(9.967 -25.9136 4.26956e-20)
(9.72588 -25.8067 -8.76908e-20)
(9.67656 -25.5759 3.73534e-20)
(2.32072 -5.87675 0)
(8.09094 -17.8147 4.6408e-19)
(11.8145 -25.9192 -3.113e-21)
(12.5054 -27.627 -4.61016e-19)
(12.4232 -27.5987 -4.22867e-19)
(12.2337 -27.338 -2.019e-19)
(12.0372 -27.0954 -6.30139e-21)
(11.8428 -26.8556 -1.76396e-19)
(11.6576 -26.6436 0)
(11.4981 -26.5273 -1.53746e-19)
(11.3376 -26.3718 -1.43785e-19)
(11.1499 -26.2066 -7.88387e-21)
(11.0074 -26.113 4.7026e-19)
(10.8442 -25.998 -2.4193e-19)
(10.6785 -25.8706 -5.31085e-19)
(10.5158 -25.7417 4.13415e-19)
(10.3569 -25.6757 2.71385e-19)
(10.2387 -25.5451 -4.57146e-19)
(9.98385 -25.4317 8.7687e-20)
(9.91837 -25.1872 5.34924e-19)
(2.85296 -6.98283 -1.30899e-18)
(9.31565 -18.7821 1.10342e-18)
(12.7782 -26.1504 -1.45374e-18)
(13.2446 -27.3284 1.16735e-18)
(13.04 -27.1576 1.02052e-18)
(12.801 -26.8624 -8.03865e-19)
(12.5632 -26.6229 -1.05366e-18)
(12.358 -26.4203 4.05205e-20)
(12.1341 -26.2147 6.32672e-19)
(11.9302 -26.0373 -4.15325e-19)
(11.7462 -25.9166 1.05596e-18)
(11.5512 -25.7788 -6.31114e-19)
(11.3756 -25.6747 -1.18215e-19)
(11.1907 -25.5573 3.02247e-19)
(11.0046 -25.4278 -7.90797e-19)
(10.8247 -25.3185 3.78742e-19)
(10.6435 -25.2198 0)
(10.4897 -25.0959 -6.27316e-19)
(10.2322 -24.9897 6.1708e-19)
(10.1615 -24.7477 -4.86045e-19)
(3.48288 -7.44404 2.59199e-19)
(10.222 -19.3784 2.88095e-19)
(13.657 -25.9233 1.23828e-18)
(13.902 -26.7386 1.06e-18)
(13.6424 -26.5586 -6.37264e-19)
(13.3868 -26.3044 8.94068e-19)
(13.1062 -26.0748 -5.28186e-19)
(12.8377 -25.8455 6.03091e-19)
(12.5845 -25.6396 -1.14791e-18)
(12.3663 -25.5358 4.08723e-19)
(12.1488 -25.3892 0)
(11.9075 -25.2344 0)
(11.7171 -25.1524 0)
(11.5091 -25.0514 -7.44581e-19)
(11.3017 -24.934 7.33057e-19)
(11.0951 -24.8131 0)
(10.9091 -24.7483 0)
(10.7402 -24.6387 -6.53932e-20)
(10.4689 -24.5314 0)
(10.3862 -24.2878 -5.44726e-19)
(4.07493 -8.00096 -5.00041e-19)
(11.3624 -19.6598 -1.24082e-18)
(14.5029 -25.6302 -8.67774e-19)
(14.6075 -26.1399 -1.48814e-19)
(14.2246 -25.9029 1.13592e-18)
(13.9133 -25.6393 -2.30863e-19)
(13.588 -25.4205 -4.70498e-20)
(13.3026 -25.2404 -7.32614e-19)
(13.0138 -25.0585 0)
(12.7455 -24.9031 -3.50144e-19)
(12.5062 -24.8018 5.58561e-19)
(12.257 -24.6753 0)
(12.033 -24.5883 7.12264e-19)
(11.8056 -24.4901 -7.01073e-19)
(11.5795 -24.3883 5.99668e-19)
(11.3592 -24.2978 -1.07633e-18)
(11.149 -24.2108 5.42632e-19)
(10.9505 -24.1172 6.5391e-20)
(10.6824 -24.0287 -4.96e-20)
(10.5871 -23.7862 3.9849e-19)
(4.67796 -8.32004 -6.77203e-19)
(12.2592 -19.7048 4.50485e-20)
(15.1644 -24.9824 6.5708e-20)
(15.1642 -25.2865 1.54978e-18)
(14.75 -25.1007 1.23213e-19)
(14.4278 -24.8955 -8.0832e-19)
(14.0747 -24.702 -5.48656e-19)
(13.7302 -24.5077 1.78835e-19)
(13.4121 -24.3297 5.97384e-19)
(13.1361 -24.2551 -6.19165e-19)
(12.8633 -24.1387 2.98172e-19)
(12.5706 -24.0133 -7.50235e-19)
(12.3324 -23.954 5.8797e-19)
(12.0825 -23.8789 -5.51249e-19)
(11.8323 -23.7865 4.84578e-19)
(11.5845 -23.6894 3.88202e-19)
(11.3684 -23.643 -4.46532e-19)
(11.1551 -23.5732 3.31097e-19)
(10.8788 -23.5042 -3.15972e-19)
(10.7696 -23.2658 -3.44925e-19)
(5.24352 -8.53144 -8.44489e-19)
(13.1624 -19.5352 -1.53933e-19)
(15.8513 -24.3394 7.98666e-19)
(15.7521 -24.4929 -6.71531e-19)
(15.2504 -24.2743 6.59131e-19)
(14.857 -24.0664 1.49277e-19)
(14.4669 -23.8858 0)
(14.1063 -23.7499 -1.03504e-19)
(13.7551 -23.6019 2.76929e-19)
(13.4259 -23.4805 -9.72027e-19)
(13.1371 -23.4207 6.79413e-19)
(12.8355 -23.3213 1.43868e-19)
(12.5623 -23.2659 7.18394e-20)
(12.2966 -23.203 0)
(12.0327 -23.1451 1.44135e-20)
(11.7735 -23.0778 3.46374e-19)
(11.5286 -23.0124 -3.4503e-20)
(11.2919 -22.9662 4.07795e-20)
(11.0222 -22.9232 -2.65911e-19)
(10.902 -22.6963 5.45368e-20)
(5.80474 -8.60369 7.62107e-19)
(13.9174 -19.1954 -1.30381e-18)
(16.3954 -23.2973 7.27398e-19)
(16.1494 -23.4132 5.86615e-19)
(15.6719 -23.2757 -5.69555e-20)
(15.2587 -23.1416 -3.99908e-19)
(14.8464 -23.0035 9.63722e-20)
(14.4336 -22.8662 1.03491e-19)
(14.056 -22.7394 0)
(13.7257 -22.7031 0)
(13.4032 -22.6319 -4.83468e-19)
(13.0652 -22.549 7.85936e-19)
(12.7812 -22.5229 -4.14744e-19)
(12.494 -22.4865 0)
(12.2048 -22.4355 1.56049e-20)
(11.9229 -22.3791 -2.53258e-19)
(11.6739 -22.3617 2.45249e-19)
(11.4191 -22.3398 -2.88553e-20)
(11.1525 -22.3274 -1.41071e-19)
(11.0216 -22.1109 1.02709e-19)
(6.30154 -8.62107 -6.66797e-19)
(14.6346 -18.7104 8.33708e-19)
(16.8647 -22.4735 0)
(16.5816 -22.4535 0)
(16.0062 -22.3045 1.01762e-19)
(15.5441 -22.1736 -4.83532e-19)
(15.1049 -22.0532 2.25291e-20)
(14.6851 -21.9777 3.1711e-19)
(14.2787 -21.8749 -4.74744e-19)
(13.8982 -21.8029 8.69575e-19)
(13.5708 -21.8009 -3.9612e-19)
(13.2235 -21.7406 7.58078e-20)
(12.9043 -21.7246 2.51533e-19)
(12.6059 -21.7061 -2.5949e-20)
(12.3093 -21.7001 -1.40693e-19)
(12.0125 -21.6606 2.30946e-20)
(11.7299 -21.6307 -9.14539e-20)
(11.4555 -21.6487 7.17809e-20)
(11.2016 -21.6757 1.4699e-20)
(11.055 -21.4847 1.61537e-20)
(6.7627 -8.49887 0)
(15.2073 -18.0527 3.72009e-19)
(17.1555 -21.2096 -4.1721e-19)
(16.7978 -21.24 0)
(16.2824 -21.1676 -1.01761e-19)
(15.7916 -21.1231 2.80267e-19)
(15.3433 -21.0494 -3.49977e-19)
(14.8789 -20.9811 0)
(14.4537 -20.9152 3.08587e-19)
(14.0765 -20.9161 -3.03449e-19)
(13.7144 -20.903 1.59393e-20)
(13.3437 -20.8707 -2.87545e-20)
(13.0184 -20.8863 -2.23261e-20)
(12.6995 -20.8982 -1.65668e-20)
(12.3798 -20.8983 -1.72107e-20)
(12.0719 -20.8847 -2.1423e-20)
(11.7794 -20.8896 8.17136e-20)
(11.4772 -20.9083 -1.31674e-19)
(11.2331 -20.9691 7.32898e-20)
(11.0898 -20.8347 -7.55012e-21)
(7.18759 -8.36611 0)
(15.76 -17.3257 -4.0161e-19)
(17.4546 -20.1807 2.2242e-19)
(17.0283 -20.1591 2.2168e-19)
(16.4391 -20.0755 -5.01226e-20)
(15.9114 -20.037 -4.43733e-20)
(15.4403 -19.9938 -1.78678e-19)
(14.9857 -19.9889 0)
(14.5331 -19.9428 0)
(14.1133 -19.9228 0)
(13.7603 -19.9867 -1.59381e-20)
(13.3781 -19.9719 0)
(13.0167 -19.9863 8.53064e-20)
(12.6927 -20.0219 -6.8111e-20)
(12.3741 -20.0809 1.39583e-19)
(12.0475 -20.0746 -3.06237e-19)
(11.7231 -20.094 1.66245e-19)
(11.4109 -20.1457 2.45073e-19)
(11.1254 -20.2094 -4.43054e-19)
(10.9847 -20.0961 2.42884e-19)
(7.58396 -8.06363 0)
(16.0792 -16.4815 0)
(17.5405 -18.8062 7.85855e-20)
(17.0321 -18.8814 6.39044e-20)
(16.534 -18.873 0)
(15.993 -18.9186 7.96367e-20)
(15.5194 -18.9158 -7.82399e-20)
(15.0307 -18.9203 0)
(14.5754 -18.9195 -4.70163e-20)
(14.1582 -18.9481 4.62333e-20)
(13.7697 -18.994 0)
(13.3887 -19.027 1.90673e-19)
(13.0251 -19.0734 2.48176e-20)
(12.6685 -19.0979 -2.24982e-19)
(12.3293 -19.1516 0)
(12.0001 -19.1826 0)
(11.6403 -19.2049 0)
(11.3053 -19.209 3.361e-19)
(10.9868 -19.2431 -3.65576e-19)
(10.7877 -19.231 0)
(7.2117 -27.5397 0)
(6.75957 -26.945 0)
(5.89274 -26.8993 -2.44544e-21)
(5.42511 -26.501 -2.29841e-21)
(4.86916 -26.5717 0)
(4.32639 -26.2769 3.71249e-23)
(3.90407 -26.3316 1.9136e-21)
(3.50104 -26.2191 0)
(3.08187 -26.1658 1.57228e-21)
(2.79516 -26.0028 0)
(2.46744 -25.9582 -1.40678e-21)
(2.2669 -26.1344 -6.58207e-22)
(1.97951 -26.1927 6.61701e-22)
(1.80019 -26.081 1.18167e-21)
(1.57264 -26.1151 0)
(1.49139 -26.3075 -2.65056e-22)
(1.23759 -26.182 1.0422e-21)
(1.11827 -24.9719 0)
(0.679687 -20.6575 0)
(0.216246 -10.8637 9.42665e-22)
(7.3568 -27.301 1.35524e-20)
(6.91271 -26.7494 0)
(5.98547 -26.7275 1.16766e-20)
(5.44899 -26.3076 -6.97868e-21)
(4.90515 -26.4456 0)
(4.33273 -26.1594 -9.24192e-21)
(3.89703 -26.2016 3.63382e-21)
(3.47476 -26.0716 0)
(3.06629 -26.0395 1.39712e-21)
(2.7847 -25.8927 -2.98821e-21)
(2.46161 -25.858 4.06289e-21)
(2.2691 -26.0624 -5.18774e-21)
(1.98187 -26.1259 3.72245e-21)
(1.81517 -26.034 -1.24766e-21)
(1.59124 -26.0715 -1.13805e-21)
(1.51321 -26.2697 1.01971e-21)
(1.25747 -26.1293 -1.65648e-21)
(1.13114 -24.8935 -2.33116e-21)
(0.677409 -20.5181 -1.14021e-21)
(0.224005 -10.7329 -1.1756e-21)
(7.53771 -27.0572 -3.87363e-21)
(7.0086 -26.5133 -1.22006e-20)
(6.03411 -26.4934 -8.78562e-21)
(5.58324 -26.1682 0)
(4.96302 -26.2594 0)
(4.41646 -25.9764 1.05522e-20)
(4.0105 -26.0883 -5.18668e-22)
(3.58007 -25.9747 -4.01703e-22)
(3.16621 -25.9642 -3.92028e-22)
(2.87224 -25.8277 -5.67335e-21)
(2.54152 -25.803 0)
(2.33468 -25.9958 0)
(2.039 -26.0575 0)
(1.85495 -25.9715 -4.31184e-21)
(1.62304 -26.024 0)
(1.54325 -26.2163 -3.91007e-21)
(1.27591 -26.0761 3.05966e-21)
(1.14595 -24.8244 1.40573e-21)
(0.676651 -20.42 2.29985e-21)
(0.234089 -10.6233 3.50615e-21)
(7.67955 -26.7997 2.13393e-20)
(7.14179 -26.2996 -4.18373e-20)
(6.15704 -26.3178 4.74589e-22)
(5.62587 -25.9677 1.66688e-20)
(4.99964 -26.1173 0)
(4.43161 -25.865 1.2976e-20)
(4.00665 -25.9593 -3.11385e-20)
(3.55472 -25.825 1.78144e-20)
(3.15129 -25.8383 -1.10924e-20)
(2.8609 -25.7193 5.07704e-21)
(2.53343 -25.7009 -2.62696e-22)
(2.33402 -25.9202 -4.56763e-21)
(2.03957 -25.9882 4.5897e-21)
(1.86737 -25.9231 2.24322e-21)
(1.63934 -25.9789 2.07837e-21)
(1.56343 -26.1746 3.90874e-21)
(1.2929 -26.0228 -3.78679e-21)
(1.15735 -24.7487 1.77483e-21)
(0.675954 -20.2928 -8.75436e-22)
(0.243064 -10.4989 -3.50064e-21)
(7.89459 -26.5396 4.85947e-20)
(7.26806 -26.0407 9.9272e-21)
(6.20606 -26.0902 -1.61975e-20)
(5.73142 -25.8174 2.31728e-20)
(5.04951 -25.9301 0)
(4.51494 -25.6857 -6.21327e-21)
(4.11665 -25.842 6.04801e-21)
(3.65708 -25.7273 0)
(3.25044 -25.7635 3.10376e-22)
(2.94667 -25.6519 0)
(2.61156 -25.6433 -9.42147e-21)
(2.39729 -25.8513 0)
(2.09545 -25.9191 0)
(1.90479 -25.8601 -7.83281e-21)
(1.66851 -25.9308 3.95482e-21)
(1.58815 -26.1219 -3.56342e-21)
(1.30852 -25.9695 0)
(1.17021 -24.6826 8.37428e-22)
(0.673508 -20.2037 -8.39685e-22)
(0.253553 -10.3911 0)
(8.0276 -26.2632 1.97313e-20)
(7.37627 -25.8011 -1.77809e-20)
(6.34269 -25.9033 3.62448e-20)
(5.78307 -25.6063 -3.70647e-20)
(5.09308 -25.7805 1.21123e-20)
(4.53332 -25.5793 6.23263e-21)
(4.11382 -25.7113 -1.0671e-20)
(3.63284 -25.5759 -1.00945e-20)
(3.23574 -25.638 5.08214e-21)
(2.93422 -25.545 9.07325e-21)
(2.6015 -25.5393 -4.52697e-21)
(2.39381 -25.7726 0)
(2.09445 -25.8476 0)
(1.9147 -25.8091 2.63118e-22)
(1.68293 -25.8846 -3.75826e-21)
(1.60573 -26.0766 3.56084e-21)
(1.32284 -25.9164 0)
(1.18035 -24.6109 -6.27964e-21)
(0.673902 -20.0893 -5.90374e-21)
(0.262681 -10.2727 -3.9861e-22)
(8.26332 -25.9801 -5.63182e-20)
(7.52152 -25.5308 5.45513e-20)
(6.42207 -25.6636 -1.46514e-20)
(5.86558 -25.4437 0)
(5.14601 -25.5874 -1.21637e-20)
(4.61933 -25.4039 2.16308e-20)
(4.2215 -25.5914 -1.10009e-20)
(3.73336 -25.4778 1.01229e-20)
(3.33422 -25.5624 0)
(3.01838 -25.4749 0)
(2.67739 -25.4786 8.112e-21)
(2.4548 -25.7015 -8.141e-21)
(2.14838 -25.7777 0)
(1.94878 -25.7451 1.0917e-20)
(1.70847 -25.8359 -3.55542e-21)
(1.62536 -26.0244 -3.26356e-21)
(1.3359 -25.8639 2.65314e-21)
(1.19153 -24.549 7.80173e-21)
(0.670759 -20.0101 3.98641e-21)
(0.273031 -10.1675 7.62451e-22)
(8.39495 -25.6314 0)
(7.62305 -25.2628 -2.93058e-20)
(6.5503 -25.4582 2.93932e-20)
(5.91117 -25.2192 0)
(5.19849 -25.4375 0)
(4.63996 -25.2983 -2.01649e-20)
(4.21879 -25.4572 2.02245e-20)
(3.71131 -25.3251 0)
(3.32009 -25.437 8.39863e-21)
(3.00559 -25.3687 -1.64266e-20)
(2.66595 -25.3729 8.02706e-21)
(2.44901 -25.6203 7.28572e-21)
(2.1455 -25.7037 -7.30765e-21)
(1.95652 -25.6928 0)
(1.7211 -25.787 0)
(1.63897 -25.9762 -3.10027e-21)
(1.34781 -25.8122 3.73446e-21)
(1.2004 -24.4817 -3.73244e-23)
(0.671648 -19.9087 -2.194e-21)
(0.282015 -10.0549 7.28072e-22)
(8.58346 -25.3382 2.76644e-20)
(7.74981 -24.9885 -3.14549e-20)
(6.64303 -25.2068 -3.52367e-20)
(5.97735 -25.0413 4.56622e-20)
(5.25842 -25.2427 -4.17315e-20)
(4.73365 -25.1242 1.1458e-21)
(4.32413 -25.3358 1.87968e-20)
(3.81099 -25.2267 0)
(3.41745 -25.3595 0)
(3.08789 -25.296 7.30627e-21)
(2.73966 -25.3085 0)
(2.50791 -25.5468 0)
(2.19572 -25.6329 0)
(1.98764 -25.6279 0)
(1.7429 -25.7365 0)
(1.65354 -25.9245 0)
(1.35841 -25.7613 -2.30822e-21)
(1.21003 -24.4253 2.85217e-21)
(0.668266 -19.8401 -6.94919e-22)
(0.292201 -9.95295 6.93522e-22)
(8.72571 -24.9782 -2.73527e-20)
(7.84787 -24.6984 -4.21545e-20)
(6.76562 -24.9918 -1.02562e-20)
(6.01969 -24.8024 -8.55214e-21)
(5.3207 -25.0979 1.06719e-20)
(4.75738 -25.0158 2.68662e-20)
(4.31957 -25.1954 7.93563e-21)
(3.79172 -25.0734 0)
(3.40403 -25.2337 -7.34428e-21)
(3.07523 -25.1903 1.39599e-20)
(2.72722 -25.2018 6.57923e-21)
(2.50087 -25.463 6.18074e-21)
(2.19125 -25.5567 0)
(1.99367 -25.5733 5.717e-21)
(1.7539 -25.6852 5.71248e-21)
(1.66283 -25.8744 0)
(1.36769 -25.7116 0)
(1.21723 -24.3637 0)
(0.66929 -19.7517 0)
(0.301214 -9.84591 0)