/*--------------------------------*- C++ -*----------------------------------*\
  =========                 |
  \\      /  F ield         | OpenFOAM: The Open Source CFD Toolbox
   \\    /   O peration     | Website:  https://openfoam.org
    \\  /    A nd           | Version:  9
     \\/     M anipulation  |
\*---------------------------------------------------------------------------*/
FoamFile
{
    format      ascii;
    class       volScalarField;
    location    "7.2";
    object      nut;
}
// * * * * * * * * * * * * * * * * * * * * * * * * * * * * * * * * * * * * * //

dimensions      [0 2 -1 0 0 0 0];

internalField   nonuniform List<scalar> 
46400
(
0.0221841
0.00722889
0.00205612
0.00172902
0.00168093
0.00166772
0.00158225
0.00154437
0.00146212
0.00142829
0.00136811
0.00133474
0.00130253
0.00124606
0.00123127
0.00123944
0.00115521
0.00115469
0.00152457
0.00115321
0.0216782
0.00607447
0.0015304
0.00172192
0.00166318
0.00166105
0.00155487
0.00154925
0.00147592
0.00143572
0.00138588
0.00133188
0.00128198
0.00123774
0.00119796
0.00117095
0.00107146
0.000976916
0.00132951
0.00115424
0.0211088
0.00531299
0.00149907
0.00176845
0.00162569
0.00164373
0.00155546
0.00152553
0.00144826
0.00141041
0.00135869
0.00131179
0.0012919
0.00123122
0.00120018
0.00118797
0.00108574
0.001064
0.00141143
0.00114176
0.0205019
0.0044479
0.00147144
0.00172662
0.00162051
0.00165222
0.00154355
0.00151577
0.00145816
0.00140491
0.00136427
0.0013137
0.00126541
0.00121786
0.00117589
0.00114715
0.00106697
0.00101727
0.00138261
0.00117762
0.0197217
0.00548532
0.0015754
0.00181082
0.00162384
0.00162272
0.00155199
0.00151956
0.00145763
0.00141143
0.00136493
0.0013094
0.00128848
0.0012479
0.0012088
0.00118974
0.00110118
0.0010576
0.00140319
0.00117422
0.0190314
0.0054853
0.00159798
0.00179165
0.0016304
0.00165062
0.00155097
0.00150205
0.00144748
0.00139247
0.0013493
0.00130955
0.00126314
0.00122083
0.00119106
0.00116785
0.00110351
0.00106223
0.00139749
0.00119952
0.0182985
0.00550551
0.00160475
0.00184236
0.00166923
0.00162451
0.00155675
0.00150702
0.00146109
0.00141151
0.00137267
0.00131553
0.00128873
0.00125535
0.00122054
0.00119164
0.00111665
0.001069
0.00138508
0.0011893
0.0169994
0.00468171
0.00164169
0.0017925
0.00162188
0.00160489
0.00154109
0.00147509
0.00143011
0.0013733
0.00133081
0.0012881
0.0012537
0.00120681
0.00119349
0.00118667
0.00113579
0.00107468
0.00138239
0.00123792
0.0150931
0.0036596
0.00159646
0.00174305
0.00169836
0.00160052
0.00155715
0.00147985
0.00143302
0.001382
0.00134773
0.00129269
0.00125743
0.00121575
0.00116347
0.00113794
0.00109872
0.00103601
0.00130647
0.00119501
0.0125491
0.00304589
0.00169969
0.00166182
0.00159613
0.00154784
0.0015108
0.00145869
0.00141071
0.00135462
0.00132073
0.00127234
0.00124872
0.00121093
0.00117445
0.00114558
0.00109596
0.00104156
0.00124816
0.00115758
0.0102528
0.00260035
0.00170109
0.00158023
0.00156604
0.0015206
0.0014821
0.00144267
0.00139834
0.0013354
0.00130382
0.00125206
0.00120745
0.00118296
0.00115464
0.00111087
0.00106821
0.00102762
0.00120016
0.00111718
0.00846398
0.00222578
0.00171026
0.00163047
0.00156073
0.00148371
0.00145685
0.00139913
0.00138091
0.0013255
0.00128248
0.00124264
0.00120448
0.00116195
0.00114421
0.00111944
0.00106639
0.00102597
0.00118535
0.00112402
0.00682676
0.00193048
0.00172256
0.00164308
0.00158556
0.00150995
0.0014637
0.00138998
0.00135771
0.00130547
0.00127116
0.0012244
0.00118227
0.00114093
0.00111583
0.00109482
0.00104234
0.000985729
0.00108985
0.0010493
0.00566236
0.00170077
0.00164502
0.00160463
0.00157768
0.00149978
0.00149335
0.00143282
0.00140125
0.00134861
0.00130641
0.00126549
0.00122319
0.00116649
0.00111989
0.00109892
0.00106716
0.0010238
0.00108943
0.00103887
0.00495276
0.00166119
0.00162628
0.00156998
0.00159484
0.00147265
0.00144649
0.00136154
0.0013405
0.00129477
0.00125022
0.00121665
0.00119374
0.00116864
0.00112342
0.00109563
0.00105379
0.00103548
0.00109238
0.00103363
0.00468696
0.00170275
0.00162595
0.00150931
0.00160501
0.00151937
0.0014712
0.00138638
0.00133103
0.00130351
0.00126073
0.00121289
0.00116902
0.00114912
0.00110817
0.00108006
0.00103195
0.000996955
0.00105464
0.0010168
0.00444712
0.00177939
0.00168631
0.00140585
0.00142242
0.00141744
0.00142777
0.00141205
0.00133719
0.00130047
0.0012524
0.00122515
0.00116902
0.00113532
0.00111088
0.00108446
0.00105466
0.00100832
0.00104278
0.000991326
0.00391275
0.00170998
0.00182498
0.00172691
0.00153086
0.00142538
0.00133685
0.00133188
0.00129402
0.0012567
0.00121156
0.00118613
0.00115176
0.00111653
0.00107652
0.00105065
0.00101582
0.000975139
0.00100955
0.000956174
0.00359216
0.00138196
0.00150684
0.0016906
0.0016109
0.00152623
0.00138771
0.00135512
0.00133886
0.00129199
0.00126669
0.00121729
0.00118568
0.00114987
0.00111421
0.00107971
0.00104306
0.000988909
0.00101393
0.000950655
0.00365348
0.00180503
0.00143065
0.00137957
0.00136436
0.00141208
0.00139423
0.00136471
0.00130578
0.0012355
0.00118919
0.00115471
0.00112329
0.00109135
0.00105838
0.00103741
0.00100778
0.000966059
0.000998776
0.000939892
0.019085
0.0157875
0.00913613
0.000699296
0.000941329
0.00149305
0.00145448
0.0014048
0.00133685
0.00128376
0.00127443
0.0012262
0.00120313
0.00123847
0.00126455
0.00134837
0.00134993
0.0013251
0.00121333
0.00109442
0.019168
0.0158703
0.00702332
0.000330654
0.00122414
0.00151104
0.00142625
0.00134663
0.00134187
0.00131229
0.00127107
0.00125219
0.00123616
0.00123189
0.00125735
0.00134582
0.00136387
0.00134022
0.00120758
0.00108608
0.0204066
0.0158274
0.00559101
0.000886723
0.00140996
0.00155639
0.00146469
0.00143084
0.0013906
0.00131056
0.00127342
0.00123806
0.00121629
0.00124491
0.00127537
0.00136877
0.00136629
0.00134412
0.00118427
0.00108365
0.0210852
0.0155503
0.00425095
0.000513528
0.0014633
0.0015687
0.001472
0.00138839
0.00135066
0.00132448
0.00130545
0.00126827
0.00124761
0.00125202
0.00127413
0.00135001
0.00134886
0.00133238
0.00116834
0.00107512
0.0217651
0.0154611
0.00320463
0.00049796
0.00152753
0.00157382
0.0014807
0.00142066
0.00141968
0.00134313
0.00128239
0.001263
0.00123735
0.00124725
0.00127192
0.00136387
0.00137704
0.00137772
0.00118619
0.00110441
0.0222591
0.0151348
0.00234871
0.00068473
0.00157314
0.0015832
0.00150781
0.00142763
0.00136709
0.00132262
0.00130929
0.00126029
0.00123255
0.00124627
0.00126809
0.00133806
0.00133701
0.0013396
0.00110428
0.0010465
0.0228342
0.0149029
0.00168577
0.000847678
0.00159529
0.00157923
0.00149757
0.00140879
0.00141861
0.00136487
0.00130128
0.00128881
0.00125749
0.0012505
0.00126468
0.00133658
0.00135859
0.00138482
0.00117081
0.00109406
0.0233242
0.0145665
0.00127419
0.00102283
0.00162816
0.00158711
0.00153159
0.00144907
0.00139371
0.00132709
0.0012969
0.00125313
0.0012154
0.00122355
0.00124097
0.00130588
0.00132856
0.00135713
0.00109054
0.00104672
0.0236574
0.0141998
0.00116542
0.00113404
0.00163982
0.0015859
0.00151881
0.00141473
0.00140186
0.00137072
0.00131597
0.00129635
0.00126359
0.00125213
0.00125795
0.00131089
0.00134254
0.00139725
0.00115978
0.00109616
0.0240179
0.0138718
0.00115888
0.00125732
0.00164445
0.00158961
0.00154977
0.00145422
0.00141681
0.00134281
0.00129123
0.00126369
0.00121589
0.00120277
0.00120557
0.00125186
0.0013049
0.00136842
0.00107546
0.00104933
0.0241661
0.0133995
0.00183631
0.00134661
0.00168799
0.00158154
0.0015429
0.00144127
0.00139423
0.0013697
0.00131794
0.0012851
0.00125334
0.00124646
0.00124038
0.00127288
0.00131606
0.00139923
0.00113362
0.00108679
0.0243688
0.013047
0.00162234
0.00141434
0.00168945
0.0015869
0.00155441
0.00145552
0.00142207
0.0013638
0.00130108
0.00128251
0.0012292
0.00119813
0.00118465
0.00119836
0.00126793
0.0013615
0.00105236
0.00105206
0.0243752
0.0126105
0.00263134
0.00144677
0.0017326
0.00160214
0.00156331
0.00147644
0.001409
0.00137233
0.00131829
0.00128
0.00124134
0.00123196
0.00120964
0.0012152
0.0012705
0.00137774
0.00109313
0.00107537
0.0244041
0.0123791
0.00231795
0.00149958
0.001699
0.00159796
0.00155992
0.0014666
0.00141893
0.00138588
0.00131781
0.0012981
0.00125053
0.00121879
0.00119199
0.00116095
0.00121989
0.00133866
0.00102638
0.00105555
0.0242729
0.0120222
0.0025407
0.00153974
0.00173091
0.00162427
0.00157671
0.00150393
0.00143087
0.00138492
0.00132829
0.00129417
0.00123949
0.001219
0.00119293
0.00116499
0.00120194
0.00131707
0.00104475
0.00107303
0.0241031
0.0116955
0.00231159
0.00158472
0.00171225
0.00161213
0.00157606
0.00149966
0.00142998
0.00140891
0.00133958
0.0013152
0.00128036
0.0012503
0.00122008
0.00116926
0.0011891
0.00127586
0.000976271
0.00106783
0.0238394
0.0110474
0.00214282
0.00160729
0.00172598
0.00164367
0.00157823
0.0015227
0.00144826
0.00141195
0.00134958
0.00132393
0.00126848
0.00123654
0.00121057
0.00116201
0.0011735
0.00124631
0.000969501
0.00108311
0.0235054
0.0100843
0.00207675
0.00164756
0.00171934
0.00164121
0.00159123
0.00154086
0.00145355
0.00142879
0.00136692
0.00132781
0.00130228
0.00127928
0.00125607
0.00121434
0.00119613
0.00121309
0.000886912
0.00107598
0.0231252
0.00922194
0.00224456
0.00166643
0.00171257
0.00165998
0.00158501
0.00154287
0.00146827
0.00144276
0.00138131
0.00136242
0.00131691
0.00127731
0.00125685
0.00122728
0.00122942
0.00123657
0.000885845
0.00104949
0.0226635
0.00806467
0.00220108
0.00169911
0.0017049
0.00166219
0.00158183
0.00156358
0.00147531
0.00144773
0.00139817
0.00135679
0.00133764
0.00132103
0.00131995
0.00133266
0.0013106
0.00126755
0.00104849
0.00120438
0.00784085
0.00521615
0.00375069
0.00302848
0.00262772
0.00203804
0.00161255
0.00130341
0.00102371
0.000811952
0.00064371
0.000550814
0.000478665
0.000426513
0.000361435
0.000724578
0.00179444
0.00555234
0.0102895
0.0150448
0.00766391
0.00513688
0.00376802
0.00304465
0.00265881
0.00205033
0.00165335
0.0013268
0.00104562
0.000835586
0.000662452
0.000568719
0.000483376
0.000434561
0.000354123
0.000730712
0.00182811
0.005589
0.0102826
0.0150181
0.00787687
0.00507827
0.00374853
0.00296344
0.00261709
0.00198645
0.00160548
0.00129382
0.00101182
0.00080118
0.000632112
0.000550445
0.000473476
0.000431846
0.000350275
0.000742367
0.00183222
0.00561515
0.0103081
0.0149967
0.00771034
0.00504796
0.00375743
0.00297874
0.00263292
0.00200677
0.00163725
0.00132069
0.0010359
0.000825677
0.000655265
0.000570483
0.000473551
0.000434361
0.000351104
0.00074694
0.00181807
0.00562211
0.0102761
0.0149714
0.00666631
0.00497212
0.00348004
0.00290153
0.00258229
0.00194137
0.00160434
0.00128834
0.00100698
0.000806078
0.00063335
0.000551585
0.000458714
0.000422689
0.000349261
0.000748471
0.00178332
0.00563065
0.0102266
0.0148648
0.00761028
0.00491046
0.00375417
0.00292287
0.0025967
0.00197387
0.00163244
0.00132224
0.0010342
0.000834907
0.000657145
0.000562208
0.000447527
0.000411796
0.000345386
0.000724319
0.0017709
0.00563786
0.0101668
0.0147439
0.00785466
0.00486019
0.00374158
0.00283119
0.00253962
0.00192072
0.00159901
0.00129059
0.00100925
0.000815483
0.000641946
0.0005487
0.000434378
0.000392727
0.000337088
0.000671038
0.00170889
0.00563699
0.0101599
0.0147069
0.00783692
0.00479896
0.00375072
0.00286704
0.0025544
0.00196307
0.00163594
0.00132781
0.00103459
0.000848606
0.000662127
0.00056097
0.000428184
0.000392091
0.00032808
0.000645484
0.00162504
0.00553962
0.0101725
0.0146831
0.00783239
0.00477171
0.00371099
0.00277535
0.00250401
0.00191691
0.00159303
0.00130357
0.001011
0.000831626
0.000654928
0.00055333
0.00042193
0.000373214
0.000309193
0.000622087
0.00158879
0.00553078
0.0102064
0.0146663
0.00782799
0.00478102
0.00371742
0.00281492
0.00252737
0.00197106
0.00163367
0.0013426
0.00103463
0.00086407
0.000674889
0.000566987
0.000422306
0.000366116
0.000291755
0.000574727
0.00150861
0.00551141
0.0102329
0.0146588
0.00770869
0.0047178
0.00365882
0.0027363
0.00246059
0.00192414
0.00159461
0.00132515
0.00101375
0.000850875
0.000670953
0.000568679
0.000415036
0.000313561
0.000274417
0.000533464
0.00143655
0.00546911
0.0102545
0.0146651
0.00777265
0.00466328
0.00366904
0.00278027
0.00248615
0.00197173
0.00162747
0.00135968
0.00103808
0.000878931
0.000697271
0.000584565
0.000367756
0.000277781
0.000242415
0.000495502
0.00133797
0.00545604
0.0102749
0.0146693
0.0076119
0.00454541
0.00359757
0.00271591
0.00241201
0.00194148
0.00159203
0.00134643
0.00102518
0.000872976
0.000696107
0.00059623
0.000338333
0.000303762
0.000213413
0.000456645
0.00123167
0.00540909
0.0103037
0.014658
0.00765
0.0044681
0.00358735
0.00276417
0.0024213
0.00197179
0.00161742
0.0013741
0.00104843
0.000898105
0.000718594
0.000609647
0.000360061
0.000359312
0.000193615
0.000396733
0.00112927
0.00538508
0.0103303
0.0146383
0.0075515
0.00432147
0.00349915
0.00271424
0.00235913
0.00195988
0.00158597
0.00136359
0.00103791
0.000891199
0.000717579
0.00061635
0.00041094
0.000363185
0.000157686
0.000345716
0.0010024
0.00534383
0.0103566
0.0146294
0.00755321
0.00420159
0.00343642
0.00275087
0.00233774
0.00197152
0.00160713
0.00138246
0.00105799
0.000910129
0.000731786
0.00061985
0.000487088
0.000395061
0.000103654
0.000300059
0.000885897
0.00531243
0.0103806
0.0146509
0.00758548
0.00406744
0.00332965
0.00270759
0.00229026
0.0019602
0.00158005
0.00137087
0.00105007
0.000905799
0.0007387
0.000622923
0.000484171
0.000418422
8.98349e-05
0.000259893
0.000752478
0.00524745
0.0103742
0.0146318
0.00756067
0.0039259
0.0032447
0.00275161
0.00228483
0.00199525
0.00162064
0.00140764
0.00108334
0.000934086
0.000755133
0.000644745
0.000497242
0.000447214
0.000102724
0.000232064
0.000626209
0.00529403
0.0104507
0.014652
0.00752868
0.00390779
0.00306323
0.00268265
0.002228
0.001966
0.00159032
0.00139066
0.00107963
0.00093333
0.000767636
0.000647188
0.000502429
0.000457127
0.000104053
0.000192083
0.000476602
0.00524006
0.0105207
0.014829
0.00792602
0.00385368
0.00294765
0.00267518
0.00216153
0.00192068
0.00155711
0.0013384
0.00105026
0.000905517
0.000749358
0.000634679
0.000493312
0.000452403
0.000137953
0.000166939
0.000290235
0.00499024
0.0103735
0.0144495
0.0145875
0.0395
0.0303748
0.0288396
0.0235564
0.021052
0.0171221
0.0145023
0.0114075
0.00978784
0.00798296
0.00676839
0.00529377
0.00520699
0.00383379
0.00204964
0
0.0486369
0.099392
0.133533
0.0350063
0.0248097
0.020909
0.0192293
0.0155467
0.0139072
0.0115496
0.0096745
0.00805518
0.00668479
0.00559492
0.00462631
0.00433873
0.00392076
0.00359998
0.00308193
0.00950134
0.0502361
0.0968653
0.133763
0.0171217
0.0157446
0.0152007
0.0120181
0.0110087
0.00951239
0.00847026
0.00759801
0.00685261
0.00630278
0.00558844
0.00521761
0.00461975
0.00436088
0.00423969
0.00371217
0.0100613
0.0492794
0.0949499
0.132854
0.0119171
0.0101272
0.00905671
0.00944376
0.00857487
0.00804898
0.00741601
0.00661033
0.00601953
0.00548235
0.00499536
0.00465832
0.00416608
0.00354129
0.00325472
0.00260596
0.00793702
0.0455624
0.094956
0.129741
0.00623341
0.00820272
0.00826106
0.00656789
0.00601119
0.005544
0.00542936
0.00515749
0.00468371
0.00453769
0.00424639
0.00403918
0.00385679
0.00374713
0.0034772
0.00271567
0.00569152
0.0406128
0.095097
0.129085
0.00608158
0.0049532
0.00399815
0.0044936
0.00461824
0.00492249
0.00452238
0.00458937
0.00430057
0.0041041
0.00395039
0.00384175
0.0036581
0.00342322
0.00343712
0.00246453
0.00446905
0.0368489
0.0952297
0.129758
0.00138113
0.0036818
0.00430492
0.0043437
0.003791
0.00339687
0.00341368
0.00332294
0.00339429
0.00352606
0.00328274
0.00336017
0.0032356
0.0033439
0.00311792
0.00267714
0.00364901
0.029191
0.0958883
0.13357
0.00261145
0.0026546
0.00234818
0.00230115
0.00247983
0.00292983
0.00304186
0.00313399
0.00286085
0.00300119
0.00311482
0.00322965
0.00316278
0.00324667
0.00309575
0.00264848
0.00387958
0.0237276
0.0945713
0.138904
0.00151149
0.001806
0.00206454
0.00235415
0.00238762
0.00226261
0.00214244
0.00241698
0.00265731
0.00275408
0.00262758
0.00281227
0.00275169
0.00314216
0.003026
0.0030485
0.0024791
0.0174222
0.0921051
0.147879
0.00120333
0.00132444
0.00134623
0.00139933
0.00146689
0.00183356
0.0018926
0.00195619
0.00207528
0.0023601
0.00251758
0.00274877
0.00284359
0.00312449
0.00319892
0.00343375
0.002863
0.0119622
0.0848091
0.158722
0.000629392
0.000829313
0.00100546
0.00125965
0.00133131
0.00140285
0.00158911
0.00184675
0.00186884
0.00202988
0.00215014
0.00244514
0.00266896
0.00301975
0.00322859
0.0038868
0.00343481
0.00850825
0.0635929
0.17224
0.000487096
0.000653336
0.000728988
0.000850134
0.000969357
0.00111418
0.00113008
0.00132473
0.00154356
0.00176446
0.00197102
0.00215087
0.00238622
0.00266279
0.00314288
0.00332362
0.00415171
0.00402609
0.0481753
0.192482
0.000466844
0.00056583
0.000633506
0.000775552
0.000844218
0.000990816
0.00109745
0.00119246
0.00130693
0.00152611
0.00166521
0.00190172
0.00218761
0.00248087
0.00281294
0.00305316
0.00413745
0.00835099
0.0240043
0.148494
0.00047725
0.000543533
0.000586749
0.000701244
0.000767584
0.000915958
0.000999398
0.00122959
0.00130665
0.00144647
0.00153547
0.0017739
0.00183243
0.00207588
0.00230287
0.00290853
0.00264466
0.00484112
0.0133216
0.102863
0.000534838
0.000626825
0.000666906
0.000738553
0.000764773
0.000862849
0.000942283
0.000995134
0.00104249
0.00115204
0.00123225
0.00137645
0.00149578
0.00180022
0.00175473
0.00199531
0.00220055
0.00320283
0.00459831
0.0607755
0.000421217
0.000474005
0.000505097
0.000581503
0.000649985
0.000703733
0.00072032
0.000828604
0.00084965
0.000982883
0.000914135
0.00115305
0.000945678
0.00133647
0.00102555
0.00170757
0.000641553
0.00143603
0.00521086
0.0351725
0.000319465
0.000387963
0.000422821
0.00049044
0.000533927
0.000587313
0.000603692
0.0006565
0.000629946
0.000709089
0.000665579
0.000827213
0.000722233
0.00101847
0.000894707
0.00110797
0.000860353
0.0015961
0.000967551
0.0166329
0.000324173
0.000319197
0.000312161
0.000312964
0.000312594
0.000367212
0.000406497
0.000434499
0.000493668
0.000523369
0.000546447
0.000560094
0.000581413
0.000559845
0.000606314
0.000336529
0.000699613
0.000921198
0.00184357
0.00233914
0.000255907
0.000260313
0.000259421
0.000247719
0.000230531
0.000218318
0.000208973
0.000227803
0.000230419
0.000274581
0.000286532
0.000334544
0.000351004
0.000375834
0.000421926
0.000341102
0.000349991
9.50065e-05
0.00106207
0.00201715
0.000228337
0.000201696
0.000172319
0.000149965
0.000130285
0.00010246
0.000114956
0.000142154
0.00016565
0.00019151
0.000217949
0.000249318
0.000277507
0.000310272
0.000331894
0.00036628
0.000362703
0.000268086
0.000182576
0.000571409
0.0140971
0.0141582
0.014151
0.0142692
0.0143207
0.0143783
0.0140998
0.0144481
0.0141163
0.0134033
0.0137744
0.013255
0.0131255
0.0118173
0.0120904
0.0113036
0.01189
0.0103235
0.0108133
0.0115471
0.00692595
0.00694906
0.00689292
0.00694238
0.00683611
0.00688096
0.00677095
0.00672869
0.00656488
0.00729684
0.00709898
0.00686768
0.00687757
0.00715637
0.00692063
0.00729615
0.00726986
0.00631074
0.00632196
0.00774638
0.00412974
0.00415132
0.00417772
0.00422633
0.00426287
0.0043731
0.00436814
0.0045259
0.00457396
0.00459141
0.00408008
0.00445858
0.00453283
0.00433669
0.00387248
0.00372051
0.00342405
0.00409931
0.00418187
0.0042831
0.00262378
0.00262388
0.00263444
0.00262845
0.00263301
0.002625
0.00261456
0.00257351
0.00244262
0.00250099
0.00264303
0.00262642
0.00248275
0.00290061
0.00284399
0.00294767
0.00291188
0.00309442
0.00226743
0.00259607
0.00155395
0.00155881
0.00156363
0.00157222
0.00157327
0.00158766
0.00159491
0.00166026
0.00173884
0.00179885
0.00181139
0.00183919
0.00183247
0.00188804
0.00161783
0.001612
0.00138073
0.00121184
0.00126942
0.00139323
0.00109656
0.00110845
0.00111643
0.00112783
0.00113166
0.00113542
0.00113193
0.00112792
0.00109446
0.00112801
0.000980999
0.00107156
0.0010917
0.00109664
0.00107586
0.001245
0.00107562
0.0010711
0.00109529
0.00126537
0.00064197
0.000650968
0.00065664
0.000669018
0.000654083
0.000656683
0.000645898
0.000656883
0.000645779
0.000706886
0.000767647
0.000903047
0.000915172
0.000848549
0.000701621
0.000761159
0.000795075
0.000786008
0.000503413
0.000514853
0.0004578
0.000462112
0.000464208
0.000472412
0.00046655
0.000473719
0.000458171
0.000461434
0.000452607
0.000473615
0.000474303
0.000488863
0.000365981
0.000405576
0.000498097
0.000514574
0.000528472
0.000671667
0.000578094
0.000655273
0.000238578
0.000236911
0.000243599
0.000227961
0.000242171
0.000249448
0.000251267
0.000246354
0.000249068
0.000260346
0.000276846
0.000304873
0.000375088
0.000413202
0.000359043
0.000357052
0.00028364
0.000257798
0.000236769
0.000211664
0.000137925
0.000151177
0.000136117
0.000132832
0.000132431
0.000127888
0.000128843
0.000133763
0.000132204
0.000150284
0.000136521
0.000141382
0.000145684
0.000151687
0.000151663
0.000203666
0.00021009
0.000236411
0.000257522
0.00029087
4.64587e-05
4.59631e-05
4.12919e-05
3.62927e-05
2.92446e-05
2.14976e-05
3.15785e-05
5.48612e-05
6.7978e-05
6.59224e-05
5.90778e-05
6.81711e-05
8.62128e-05
9.82898e-05
0.000101624
0.000101913
0.000108994
0.000114754
0.000125887
0.000142852
8.00433e-05
6.98484e-05
5.89114e-05
5.87836e-05
5.15881e-05
4.14219e-05
4.02688e-05
3.85071e-05
3.95867e-05
3.76162e-05
4.26667e-05
3.11667e-05
3.04136e-05
3.0622e-05
4.17326e-05
4.75916e-05
5.07835e-05
5.19977e-05
6.70874e-05
7.98364e-05
0.000108535
9.6202e-05
9.14996e-05
9.24696e-05
9.40591e-05
9.58778e-05
9.29484e-05
9.10403e-05
9.1979e-05
9.03724e-05
9.30928e-05
9.04346e-05
9.73495e-05
9.04196e-05
9.84142e-05
9.02536e-05
0.000101508
9.17166e-05
0.00010678
0.000111582
7.93569e-05
7.8915e-05
8.10949e-05
8.17114e-05
8.50714e-05
8.6668e-05
9.02756e-05
9.21924e-05
9.73588e-05
9.84053e-05
0.000102957
0.000102519
0.000105445
0.000100242
0.000106947
0.000101194
0.000111446
0.000101547
0.000116152
0.000115211
3.66211e-05
3.58796e-05
3.57009e-05
3.62067e-05
3.77844e-05
4.01514e-05
4.36093e-05
4.75338e-05
5.2926e-05
5.73244e-05
6.32248e-05
6.65478e-05
7.2933e-05
7.79707e-05
8.9945e-05
9.64656e-05
0.000106578
0.000103519
0.00011419
0.000120242
7.23397e-05
7.25252e-05
7.30846e-05
7.31257e-05
7.21231e-05
7.05847e-05
6.99982e-05
6.91577e-05
6.92975e-05
6.95927e-05
7.13255e-05
7.17919e-05
7.418e-05
7.48284e-05
7.78148e-05
7.84799e-05
8.43394e-05
8.28349e-05
7.94559e-05
9.24092e-05
7.05545e-05
6.90599e-05
6.90209e-05
7.13582e-05
7.36776e-05
7.14271e-05
7.14029e-05
7.23615e-05
7.47406e-05
7.62871e-05
7.77663e-05
7.89769e-05
7.97315e-05
7.87011e-05
7.85081e-05
7.6404e-05
7.70397e-05
7.13553e-05
6.58452e-05
7.84435e-05
6.81963e-05
6.77712e-05
6.62429e-05
6.47165e-05
6.45319e-05
6.61587e-05
6.63886e-05
6.61848e-05
6.63159e-05
6.74044e-05
6.79889e-05
6.87015e-05
7.14897e-05
7.35775e-05
7.60058e-05
7.78659e-05
7.82796e-05
7.68147e-05
7.82487e-05
8.0322e-05
7.7382e-05
7.86834e-05
7.85831e-05
7.80448e-05
7.68139e-05
7.49882e-05
7.41786e-05
7.40194e-05
7.3927e-05
7.23242e-05
7.18767e-05
6.9708e-05
6.41146e-05
6.18323e-05
5.89955e-05
5.74137e-05
5.82699e-05
6.06656e-05
6.03162e-05
6.21762e-05
7.96324e-05
7.77715e-05
7.65588e-05
7.54605e-05
7.4863e-05
7.4315e-05
7.31746e-05
7.22695e-05
7.12339e-05
7.10172e-05
6.94983e-05
7.0039e-05
6.99114e-05
6.8817e-05
6.76114e-05
6.57132e-05
6.40344e-05
6.2996e-05
6.1491e-05
6.06376e-05
0.00097588
0.00112756
0.000855693
0.00090257
0.000954439
0.000967145
0.00102726
0.00106017
0.00107903
0.00111342
0.00116392
0.00119421
0.00127089
0.0013245
0.00138045
0.00137032
0.00141279
0.00175262
0.00614444
0.0183927
0.000910644
0.00104909
0.000839046
0.000930251
0.000992239
0.00103115
0.00107857
0.00110954
0.00114184
0.00119346
0.0012274
0.00123757
0.00128364
0.00132994
0.00140091
0.00141681
0.00152288
0.00135307
0.00539565
0.0179849
0.00102914
0.0011701
0.000868122
0.000927142
0.000986263
0.000993896
0.0010384
0.00106073
0.00108427
0.00112259
0.00116501
0.00120454
0.00128437
0.00132726
0.00137865
0.00136285
0.00146818
0.00128231
0.00438325
0.0175389
0.00103525
0.00115814
0.000886261
0.000973484
0.00100182
0.00102509
0.00107029
0.00110345
0.00114872
0.00120118
0.00123964
0.00126642
0.00131536
0.00135547
0.00141635
0.00144238
0.00157549
0.00136012
0.004254
0.0169802
0.00106285
0.00115731
0.0008837
0.000933645
0.000968379
0.00100399
0.00104951
0.00107662
0.00110337
0.00115012
0.0011908
0.00124012
0.00131038
0.00134311
0.00139747
0.00139904
0.00150262
0.00138219
0.00470398
0.016327
0.00103006
0.00112254
0.000872261
0.000962761
0.00103359
0.00107822
0.00110006
0.00112653
0.00118124
0.00123873
0.00127205
0.00130831
0.00134597
0.00139125
0.00146259
0.001494
0.00163124
0.00149017
0.004689
0.0156198
0.00104181
0.00111669
0.000910876
0.000983509
0.00101994
0.00102732
0.00105475
0.00111203
0.00116453
0.00119499
0.00121823
0.00126601
0.00132023
0.00137257
0.00142315
0.0014428
0.001587
0.00150368
0.00449163
0.0148261
0.00102107
0.00110438
0.000919425
0.000994436
0.00103884
0.0010913
0.00115702
0.0012132
0.00120979
0.0012238
0.0012454
0.00129592
0.00134363
0.0014149
0.00147098
0.00154256
0.00165832
0.00152098
0.00374355
0.0136773
0.00110389
0.00115508
0.00099167
0.00105825
0.00109146
0.00110982
0.00111157
0.0010975
0.00109595
0.00114128
0.00118986
0.00126192
0.00130646
0.001363
0.00139682
0.00145564
0.00153338
0.00156626
0.00284134
0.0116662
0.000970528
0.00100922
0.000913198
0.000957166
0.000979173
0.000996659
0.00101352
0.00105226
0.00111557
0.00119029
0.00122988
0.00127945
0.00131992
0.001416
0.0014549
0.0015445
0.0015792
0.00159646
0.00239639
0.0094598
0.00102311
0.00106434
0.000950045
0.000988803
0.00101518
0.00104546
0.00107274
0.00112052
0.00115522
0.00119308
0.00121383
0.00126712
0.00133054
0.00137519
0.00137723
0.00143919
0.001454
0.00156166
0.00203235
0.00743623
0.000945075
0.000942555
0.000867606
0.000904673
0.000948467
0.000985672
0.0010202
0.00107209
0.00111109
0.0011833
0.00123374
0.00133545
0.00137899
0.00140833
0.00141653
0.00147819
0.00151119
0.00161584
0.00182398
0.00601657
0.000948742
0.000987821
0.000949616
0.00100969
0.00106651
0.00110424
0.001149
0.00119277
0.00122934
0.00127683
0.00128417
0.00131772
0.00126226
0.00127713
0.00131101
0.00144874
0.00148014
0.00154704
0.00165198
0.00494318
0.000966411
0.00101742
0.000969627
0.00101648
0.00104571
0.00105806
0.00108284
0.00110193
0.0011338
0.00116192
0.00118213
0.00122262
0.00125605
0.00137115
0.00147162
0.00152274
0.00148756
0.00164306
0.00167444
0.00437631
0.000960044
0.00100662
0.000959675
0.00101165
0.00103282
0.0010621
0.00110099
0.00114485
0.00119581
0.00122937
0.00125977
0.00131229
0.001359
0.00143097
0.00140082
0.00137256
0.00139235
0.0015187
0.00154772
0.00403341
0.000946864
0.00098694
0.000951187
0.00100003
0.001026
0.00106245
0.00110056
0.00112405
0.00115556
0.00115768
0.00118844
0.00122332
0.00124386
0.00129097
0.0012972
0.00144552
0.00163936
0.00168362
0.00175942
0.00427652
0.000935903
0.0009787
0.00095472
0.00101315
0.00104674
0.00109104
0.00111286
0.00115036
0.00117139
0.0011982
0.00125514
0.0013006
0.00136628
0.00141485
0.00150213
0.00160552
0.00158596
0.00150575
0.00154953
0.00359083
0.000925406
0.000975881
0.000957938
0.00101144
0.00104752
0.00108264
0.0011088
0.00115656
0.0011861
0.00125497
0.00132394
0.00137974
0.00143958
0.00146656
0.00153165
0.00153188
0.00156236
0.00152695
0.00161018
0.0021222
0.000932005
0.000984318
0.000976576
0.00102891
0.00106474
0.00109255
0.00112125
0.00115655
0.00119436
0.00123858
0.00126251
0.00127272
0.00129938
0.00138734
0.00144543
0.00157875
0.00161686
0.00180258
0.00168837
0.0014871
0.000920179
0.000996376
0.000957291
0.00100922
0.0010318
0.00106181
0.00108891
0.00113943
0.00117393
0.00122621
0.00124692
0.00130067
0.0013289
0.00141945
0.00135445
0.00141819
0.00135154
0.00166559
0.00168628
0.00175569
0.000442862
0.000286275
0.000266772
0.000353661
0.000444542
0.000384345
0.000357341
0.000380722
0.000390968
0.000402634
0.000417272
0.00027857
0.000167832
0.000972416
0.00376393
0.00837833
0.0120351
0.00937492
0.00398932
0.000260295
0.000473112
0.000346975
0.000340782
0.000305252
0.000346218
0.000392411
0.00039959
0.000347712
0.000391537
0.00041648
0.000402134
0.000355689
0.00020935
4.83669e-05
0.00174904
0.00578535
0.0108652
0.0114433
0.00674039
0.000752139
0.000509146
0.00034818
0.000302519
0.000342652
0.000415325
0.000375894
0.000392437
0.000399356
0.000379975
0.000409387
0.000461987
0.000409348
0.000301594
5.2655e-05
0.0004356
0.00362909
0.00890767
0.0122527
0.00921834
0.00227966
0.000589267
0.000468121
0.000353252
0.000273651
0.000356053
0.000431168
0.000431473
0.000393853
0.000415303
0.000418137
0.000411565
0.000472916
0.000420575
0.00028967
0.000110123
0.0016487
0.00687545
0.0121593
0.0104695
0.00280238
0.000622134
0.000507013
0.000385808
0.000354237
0.000403817
0.0003775
0.000438849
0.000451967
0.000433982
0.000464067
0.000490227
0.000429551
0.000449768
0.000404621
0.000116921
0.000410458
0.00474294
0.0109863
0.0118003
0.00432265
0.000668422
0.000596063
0.000436988
0.000306519
0.000402713
0.000472816
0.000476575
0.000458336
0.000472439
0.000486958
0.000523352
0.000561093
0.000543625
0.000518022
0.00036999
0.00019608
0.00229234
0.00982604
0.0125527
0.00680047
0.000681197
0.000627078
0.000506505
0.000385992
0.000435161
0.000427298
0.000502852
0.000542691
0.000532876
0.000546013
0.000574446
0.000560561
0.00056652
0.000650034
0.000592765
0.000215255
0.000979387
0.00851826
0.0128637
0.00915432
0.000689349
0.000679162
0.000551807
0.000371954
0.000463367
0.000529188
0.00053827
0.000535338
0.000564873
0.00060097
0.000655606
0.000693938
0.000656427
0.000699078
0.000699801
0.000437609
0.000401201
0.00707346
0.0128931
0.0114197
0.000711463
0.000704515
0.000615736
0.000448747
0.000503707
0.000515067
0.000581244
0.000644691
0.000642452
0.000642821
0.000684785
0.000706837
0.00072579
0.000798064
0.000835543
0.000667879
0.000243259
0.00467082
0.0126536
0.0143255
0.000731359
0.000733177
0.000671541
0.000476014
0.000543877
0.000609904
0.000623856
0.000630436
0.000674447
0.000723605
0.000778095
0.000811191
0.000780335
0.000810893
0.000897711
0.000832517
0.000443618
0.00325421
0.0124647
0.0158776
0.000752923
0.000719101
0.00068268
0.000526572
0.000584771
0.000617457
0.000663807
0.000738343
0.000744378
0.000739013
0.000794302
0.000837613
0.000853771
0.000928377
0.000975045
0.000950996
0.000384444
0.00196087
0.0120076
0.0169215
0.00075001
0.000711368
0.000728291
0.000579568
0.000632989
0.000695558
0.000717678
0.00073473
0.00078243
0.000837175
0.000891837
0.000917979
0.000892185
0.000943505
0.00100555
0.00103142
0.000564336
0.00146369
0.0115688
0.0174696
0.000762228
0.000677465