/*--------------------------------*- C++ -*----------------------------------*\
  =========                 |
  \\      /  F ield         | OpenFOAM: The Open Source CFD Toolbox
   \\    /   O peration     | Website:  https://openfoam.org
    \\  /    A nd           | Version:  9
     \\/     M anipulation  |
\*---------------------------------------------------------------------------*/
FoamFile
{
    format      ascii;
    class       volScalarField;
    location    "7.2";
    object      p;
}
// * * * * * * * * * * * * * * * * * * * * * * * * * * * * * * * * * * * * * //

dimensions      [0 2 -2 0 0 0 0];

internalField   nonuniform List<scalar> 
46400
(
24.6726
35.2369
52.381
67.0774
80.4136
92.7931
103.944
114.326
123.78
132.578
140.722
148.307
155.433
162.125
168.523
174.592
180.337
186.558
192.464
194.639
64.2286
73.99
89.4586
102.868
114.858
126.105
136.196
145.571
154.088
161.978
169.219
175.92
182.137
187.878
193.265
198.256
202.887
207.58
211.769
212.997
103.858
112.389
125.954
138.129
148.838
158.899
167.871
176.189
183.733
190.662
197.034
202.875
208.281
213.249
217.864
222.104
225.938
229.861
232.861
232.978
141.931
148.309
160.586
171.881
181.606
190.729
198.769
206.146
212.747
218.764
224.211
229.152
233.676
237.764
241.515
244.914
247.983
251.092
253.506
253.29
176.918
183.001
194.605
204.983
213.768
221.879
228.971
235.392
241.144
246.293
250.964
255.135
258.923
262.313
265.383
268.102
270.494
272.914
274.689
273.939
211.524
218.188
228.475
237.863
245.471
252.493
258.544
263.955
268.733
272.969
276.748
280.083
283.077
285.727
288.086
290.171
291.985
293.85
295.183
294.209
245.804
253.132
261.839
269.811
276.313
282.16
287.244
291.665
295.591
298.982
301.995
304.598
306.887
308.863
310.581
312.023
313.223
314.464
315.252
313.937
279.807
287.654
294.341
300.817
306.034
310.645
314.634
318.057
321.04
323.583
325.795
327.666
329.278
330.643
331.801
332.754
333.506
334.293
334.806
333.353
312.731
320.053
325.356
330.216
334.379
337.866
340.896
343.391
345.526
347.267
348.716
349.879
350.8
351.504
352.038
352.404
352.6
352.866
352.997
351.402
344.067
349.417
353.688
357.272
360.362
362.912
365.05
366.755
368.136
369.181
369.988
370.539
370.907
371.086
371.126
371.009
370.761
370.569
370.246
368.484
372.083
376.419
379.809
382.463
384.667
386.368
387.739
388.692
389.363
389.732
389.867
389.8
389.555
389.163
388.646
388.021
387.272
386.59
385.797
383.804
397.103
400.641
403.314
405.179
406.705
407.683
408.391
408.721
408.814
408.627
408.259
407.685
406.977
406.131
405.186
404.136
402.99
401.899
400.714
398.525
419.887
422.695
424.752
426.009
426.897
427.257
427.343
427.074
426.579
425.846
424.928
423.853
422.642
421.326
419.926
418.452
416.899
415.396
413.82
411.454
440.073
442.321
443.857
444.62
445.058
444.957
444.581
443.853
442.908
441.731
440.39
438.9
437.284
435.578
433.784
431.936
430.01
428.132
426.176
423.577
458.157
459.764
460.76
460.958
460.897
460.308
459.466
458.313
456.961
455.416
453.714
451.882
449.945
447.921
445.825
443.677
441.476
439.311
437.096
434.356
474.758
475.788
476.23
475.916
475.384
474.379
473.103
471.53
469.77
467.839
465.773
463.602
461.341
459.018
456.639
454.213
451.744
449.303
446.844
443.931
488.698
488.866
488.857
488.046
487.076
485.736
484.202
482.405
480.425
478.258
475.975
473.572
471.097
468.552
465.969
463.353
460.705
458.093
455.506
452.501
501.017
500.85
500.297
499.18
497.677
495.901
493.903
491.761
489.453
487.028
484.494
481.886
479.21
476.491
473.742
470.972
468.183
465.43
462.74
459.654
508.327
508.184
507.633
506.64
505.287
503.502
501.469
499.201
496.787
494.222
491.551
488.799
485.976
483.117
480.222
477.322
474.398
471.527
468.731
465.568
516.195
515.654
514.41
512.933
511.161
509.18
506.965
504.559
501.998
499.302
496.528
493.669
490.778
487.838
484.895
481.935
478.97
476.041
473.224
469.999
-488.885
-484.814
-462.51
-436.769
-410.599
-385.363
-361.653
-339.339
-318.181
-298.206
-279.265
-261.292
-244.262
-228.044
-212.728
-198.077
-184.433
-171.346
-159.238
-147.634
-484.951
-480.666
-459.416
-431.147
-404.376
-378.749
-354.718
-332.079
-310.782
-290.728
-271.744
-253.814
-236.807
-220.675
-205.422
-190.906
-177.371
-164.394
-152.455
-140.906
-478.004
-474.406
-452.804
-423.394
-395.873
-369.999
-345.926
-323.327
-301.998
-281.942
-262.997
-245.076
-228.15
-212.076
-196.927
-182.466
-169.062
-156.146
-144.377
-132.882
-469.942
-465.309
-442.376
-412.817
-385.243
-359.236
-335.103
-312.495
-291.218
-271.275
-252.45
-234.693
-217.898
-202.01
-186.991
-172.752
-159.505
-146.792
-135.261
-123.89
-457.323
-452.003
-428.63
-399.188
-371.879
-346.186
-322.259
-299.892
-278.833
-259.051
-240.409
-222.818
-206.231
-190.509
-175.695
-161.632
-148.539
-135.951
-124.567
-113.241
-443.697
-437.539
-413.278
-383.823
-356.677
-331.189
-307.472
-285.361
-264.537
-245.069
-226.742
-209.464
-193.181
-177.801
-163.282
-149.564
-136.769
-124.503
-113.533
-102.385
-426.117
-419.17
-394.499
-365.472
-338.754
-313.772
-290.451
-268.73
-248.329
-229.195
-211.207
-194.264
-178.317
-163.237
-149.041
-135.636
-123.131
-111.191
-100.545
-89.6289
-406.479
-398.889
-373.894
-345.32
-319.083
-294.602
-271.758
-250.535
-230.56
-211.892
-194.364
-177.856
-162.344
-147.709
-133.922
-120.93
-108.787
-97.2042
-86.9485
-76.2107
-383.98
-375.674
-350.554
-322.63
-296.932
-273.053
-250.72
-230.014
-210.607
-192.447
-175.427
-159.406
-144.369
-130.173
-116.816
-104.245
-92.4607
-81.286
-71.3785
-60.9114
-358.89
-350.102
-325.218
-297.827
-272.929
-249.853
-228.248
-208.226
-189.446
-171.874
-155.425
-139.954
-125.446
-111.778
-98.9304
-86.8547
-75.5341
-64.8144
-55.3734
-45.1481
-331.763
-322.599
-297.732
-271.169
-246.791
-224.489
-203.548
-184.185
-166.083
-149.174
-133.378
-118.518
-104.621
-91.5218
-79.2195
-67.6687
-56.793
-46.5864
-37.5372
-27.6789
-301.88
-292.498
-267.721
-242.637
-219.111
-197.689
-177.662
-159.083
-141.754
-125.536
-110.406
-96.2058
-82.9103
-70.4161
-58.6971
-47.7083
-37.3693
-27.6809
-19.1198
-9.56806
-270.594
-261.086
-236.293
-212.34
-189.666
-169.041
-149.806
-132.031
-115.471
-100.014
-85.6347
-72.1268
-59.5444
-47.7117
-36.6444
-26.2826
-16.5063
-7.4334
0.649296
9.76206
-237.018
-227.381
-202.933
-180.232
-158.737
-139.122
-120.882
-103.975
-88.2872
-73.6244
-59.9915
-47.2268
-35.3097
-24.1404
-13.6939
-3.92878
5.27655
13.7795
21.3832
30.1405
-202.359
-192.546
-168.768
-147.044
-126.596
-107.942
-90.6195
-74.5949
-59.7492
-45.8798
-33.0426
-21.01
-9.83932
0.623101
10.3667
19.4606
28.0268
35.8729
42.9817
51.2704
-166.105
-156.18
-133.265
-112.709
-93.3163
-75.6531
-59.3199
-44.1915
-30.2285
-17.2082
-5.14499
6.12266
16.5939
26.3748
35.4786
43.9611
51.9292
59.1773
65.8167
73.7123
-129.215
-119.123
-96.9761
-77.5915
-59.3834
-42.7446
-27.4212
-13.2056
-0.133139
12.085
23.3451
33.8696
43.6307
52.7197
61.1603
69.0017
76.3329
82.9226
89.0629
96.4412
-91.3023
-81.0607
-59.9219
-41.693
-24.6057
-8.97493
5.35296
18.6337
30.8354
42.2023
52.6905
62.4702
71.5256
79.9447
87.7487
95.0051
101.731
107.697
113.3
120.179
-52.8699
-42.5525
-22.5626
-5.53051
10.316
24.8985
38.2002
50.5775
61.8908
72.459
82.2022
91.2793
99.7297
107.566
114.873
121.681
127.923
133.42
138.886
146.034
-14.2862
-4.02526
14.7445
30.6911
45.347
58.8874
71.1806
82.6157
93.0942
102.88
111.935
120.422
128.356
135.807
142.882
149.605
155.814
161.805
168.528
175.484
-91.878
-33.251
19.1934
52.27
83.2797
103.884
122.295
136.361
147.676
157.539
164.679
171.711
176.169
181.33
184.043
187.772
190.013
191.795
193.167
193.375
-86.0248
-29.2787
22.4976
54.5446
85.1483
105.295
123.462
137.308
148.464
158.218
165.24
172.208
176.548
181.665
184.232
188.01
190.079
191.985
193.328
193.404
-78.9419
-24.8239
26.0974
56.9535
87.1458
106.788
124.677
138.316
149.279
158.918
165.823
172.706
176.949
182.026
184.456
188.287
190.169
192.199
193.533
193.436
-71.5192
-19.7637
30.046
59.7664
89.3545
108.536
126.065
139.488
150.238
159.755
166.519
173.314
177.43
182.438
184.705
188.584
190.278
192.399
193.676
193.467
-62.8504
-14.2293
34.3273
62.7299
91.6907
110.366
127.501
140.716
151.224
160.614
167.242
173.936
177.946
182.872
184.991
188.905
190.414
192.636
193.836
193.515
-53.5703
-8.09392
38.9226
66.0719
94.2322
112.441
129.107
142.104
152.352
161.605
168.071
174.657
178.535
183.363
185.286
189.225
190.56
192.875
193.963
193.604
-43.2565
-1.45453
43.8515
69.5785
96.8929
114.599
130.76
143.541
153.507
162.619
168.936
175.405
179.169
183.886
185.61
189.709
190.719
193.132
194.074
193.678
-32.5229
5.74719
49.0576
73.438
99.7514
116.986
132.578
145.133
154.799
163.756
169.897
176.243
179.872
184.461
185.996
190.446
190.972
193.479
194.13
193.765
-20.7803
13.4138
54.5882
77.4712
102.72
119.456
134.443
146.765
156.122
164.92
170.901
177.119
180.626
185.074
186.488
191.194
191.361
193.985
194.158
193.862
-8.57444
21.6708
60.3587
81.8258
105.876
122.137
136.468
148.542
157.574
166.194
171.99
178.076
181.449
185.767
187.083
191.92
191.726
194.417
194.214
193.958
4.39433
30.3894
66.46
86.351
109.131
124.893
138.539
150.353
159.061
167.5
173.127
179.073
182.33
186.547
187.77
192.724
192.061
194.872
194.291
194.066
18.1166
39.5371
72.7907
91.166
112.558
127.839
140.763
152.293
160.665
168.903
174.355
180.139
183.271
187.485
188.586
193.551
192.374
195.318
194.373
194.179
32.4813
49.0358
79.4024
96.155
116.085
130.856
143.037
154.266
162.308
170.339
175.633
181.267
184.265
188.523
189.499
194.316
192.647
195.756
194.472
194.312
47.6864
58.9134
86.1833
101.393
119.766
134.041
145.461
156.353
164.058
171.86
176.978
182.455
185.327
189.572
190.428
195.075
192.91
196.199
194.528
194.46
63.6045
69.0709
93.1089
106.73
123.496
137.252
147.914
158.453
165.836
173.408
178.359
183.694
186.467
190.649
191.371
195.876
193.16
196.662
194.492
194.626
80.5901
79.8817
100.292
112.346
127.403
140.613
150.507
160.644
167.7
175.02
179.772
184.967
187.697
191.682
192.348
196.646
193.474
197.098
194.384
194.8
97.6832
90.8786
107.784
118.312
131.6
144.185
153.278
162.964
169.679
176.726
181.282
186.304
188.922
192.742
193.368
197.485
193.904
197.603
194.271
194.953
115.321
101.121
114.487
123.8
135.52
147.646
156.037
165.279
171.685
178.461
182.808
187.691
190.188
193.93
194.4
198.353
194.398
198.244
194.259
195.419
138.074
112.749
120.51
128.337
138.566
150.294
158.171
167.043
173.284
179.894
184.124
188.879
191.297
194.928
195.301
199.155
194.798
198.408
194.013
195.325
162.713
131.624
131.634
137.198
144.704
154.946
161.817
169.905
175.668
181.915
185.833
190.397
192.66
196.141
196.374
200.179
195.273
198.827
193.015
196.095
217.358
228.144
209.867
208.14
200.729
200.756
198.596
200.016
199.566
201.462
201.91
204.239
204.351
206.87
205.935
208.919
205.378
210.798
197.715
217.551
283.222
273.905
251.343
243.667
232.645
228.163
222.851
220.527
218.036
216.976
215.85
215.455
215.211
215.38
214.945
215.732
214.371
216.038
214.562
217.532
305.416
292.993
279.279
269.702
260.486
254.049
248.263
244.476
240.972
238.797
236.554
235.265
233.519
233.103
231.919
231.801
231.134
230.847
230.929
231.471
314.202
304.483
292.534
284.595
276.124
270.058
264.091
259.389
255.124
251.659
248.594
246.123
243.925
241.862
240.41
238.993
238.086
237.285
236.893
236.809
312.659
305.043
297.993
291.21
285.263
279.564
274.811
270.464
266.695
263.433
260.452
258.009
255.685
253.803
251.83
250.279
248.572
247.071
246.266
246.11
314.644
308.97
302.66
297.362
292.19
287.648
283.117
279.208
275.396
272.111
268.968
266.167
263.595
261.164
259.093
256.853
255.313
253.569
252.601
252.071
311.685
307.364
304.063
299.977
296.15
292.427
288.924
285.678
282.537
279.767
276.951
274.607
272.039
270.015
267.616
265.76
263.509
261.667
260.203
259.555
313.037
310.327
306.624
303.205
299.799
296.879
293.783
291.023
288.159
285.625
282.997
280.704
278.23
276.133
273.728
271.737
269.315
267.345
265.304
264.63
312.193
309.713
307.414
305.338
302.948
300.546
298.143
295.909
293.616
291.587
289.348
287.51
285.31
283.603
281.304
279.643
277.011
275.382
272.778
272.158
313.436
311.871
309.737
307.794
305.578
303.711
301.695
299.903
297.957
296.279
294.444
292.858
291.015
289.519
287.504
286.052
283.445
282.127
278.619
278.397
314.345
313.038
311.494
310.175
308.64
307.196
305.632
304.276
302.848
301.586
300.254
299.12
297.854
296.836
295.513
294.611
292.728
292.467
288.712
290.428
315.41
314.39
313.093
311.973
310.747
309.708
308.575
307.616
306.628
305.799
304.966
304.268
303.635
303.108
302.718
302.392
302.181
302.148
303.003
304.588
316.69
315.925
314.977
314.21
313.328
312.613
311.816
311.225
310.564
310.153
309.736
309.542
309.461
309.465
309.906
310.027
311.371
311.386
314.331
314.997
317.93
317.322
316.543
315.948
315.277
314.786
314.244
313.915
313.536
313.445
313.263
313.526
313.593
314.352
314.795
316.182
317.211
319.347
321.968
323.129
319.094
318.63
318.088
317.678
317.228
316.939
316.622
316.498
316.349
316.464
316.564
316.985
317.387
318.276
319.005
320.43
321.761
324.063
325.971
329.831
320.079
319.688
319.25
318.935
318.612
318.409
318.193
318.17
318.092
318.329
318.37
318.957
319.107
320.114
320.401
322.225
322.932
325.325
326.184
335.587
320.967
320.653
320.328
320.1
319.876
319.742
319.654
319.698
319.74
320.028
320.126
320.806
320.778
322.164
322.108
324.215
324.364
327.847
328.333
330.712
321.58
321.289
321.015
320.813
320.642
320.579
320.529
320.602
320.671
320.888
321.073
321.508
321.744
322.553
322.643
323.946
324.167
327.833
326.798
331.173
322.046
321.789
321.561
321.397
321.25
321.192
321.142
321.234
321.297
321.534
321.707
322.095
322.357
322.904
323.236
323.897
324.231
324.842
325.553
326.002
322.248
321.994
321.777
321.62
321.519
321.469
321.465
321.522
321.613
321.79
321.994
322.319
322.613
323.1
323.426
324.051
324.382
325.12
325.239
330.02
433.504
430.589
426.636
422.486
417.101
411.518
404.713
397.57
389.611
380.787
371.663
360.928
350.59
338.443
326.204
312.893
299.481
284.826
270.405
255.442
402.821
400.893
398.598
396.107
393.121
390.101
386.403
382.843
378.572
374.249
368.78
363.875
359.075
353.871
348.411
342.913
336.85
329.41
321.054
311.734
367.322
365.983
364.531
362.951
361.262
359.44
357.465
355.415
353.06
350.828
348.042
345.604
342.225
338.706
334.977
331.735
328.534
325.333
321.553
318.187
354.887
353.917
352.876
351.775
350.583
349.345
347.976
346.593
345.014
343.45
341.666
339.982
338.051
336.114
333.715
331.662
329.413
327.196
324.762
322.573
339.626
338.887
338.089
337.285
336.405
335.539
334.579
333.66
332.61
331.589
330.476
329.343
328.088
326.836
325.274
323.692
321.887
320.303
318.723
317.4
333.984
333.39
332.783
332.146
331.491
330.816
330.103
329.391
328.602
327.851
326.953
326.153
325.186
324.314
323.273
322.324
321.113
319.989
318.968
317.967
327.521
327.04
326.519
326.012
325.445
324.912
324.294
323.716
323.072
322.465
321.757
321.1
320.255
319.353
318.336
317.432
316.476
315.648
314.808
314.045
324.871
324.479
324.071
323.664
323.226
322.767
322.278
321.771
321.244
320.726
320.197
319.663
319.122
318.529
317.966
317.376
316.768
316.191
315.546
314.978
322.412
322.051
321.692
321.299
320.924
320.518
320.094
319.615
319.123
318.647
318.177
317.72
317.244
316.804
316.303
315.834
315.331
314.829
314.285
313.752
321.426
321.128
320.818
320.506
320.191
319.873
319.555
319.224
318.894
318.546
318.201
317.841
317.49
317.111
316.734
316.334
315.919
315.502
315.076
314.655
320.892
320.652
320.406
320.148
319.88
319.597
319.31
319.016
318.722
318.421
318.121
317.816
317.512
317.198
316.894
316.581
316.271
315.948
315.628
315.299
321.117
320.902
320.683
320.46
320.234
320.001
319.764
319.52
319.273
319.017
318.76
318.491
318.223
317.947
317.664
317.369
317.082
316.786
316.498
316.201
321.302
321.108
320.912
320.713
320.515
320.316
320.113
319.91
319.706
319.498
319.291
319.079
318.87
318.652
318.439
318.214
317.996
317.765
317.542
317.305
321.858
321.712
321.565
321.415
321.261
321.103
320.941
320.774
320.602
320.423
320.242
320.053
319.863
319.663
319.466
319.262
319.065
318.858
318.661
318.45
322.487
322.324
322.159
321.991
321.824
321.655
321.488
321.322
321.158
320.995
320.836
320.678
320.526
320.375
320.229
320.077
319.931
319.778
319.633
319.48
322.917
322.779
322.64
322.503
322.367
322.232
322.098
321.964
321.832
321.7
321.569
321.437
321.307
321.176
321.047
320.917
320.79
320.659
320.534
320.4
323.474
323.343
323.214
323.086
322.958
322.832
322.707
322.583
322.461
322.341
322.222
322.104
321.989
321.875
321.763
321.652
321.543
321.435
321.331
321.226
323.848
323.725
323.605
323.485
323.368
323.252
323.137
323.024
322.913
322.804
322.696
322.59
322.486
322.383
322.282
322.184
322.087
321.992
321.899
321.808
324.144
324.025
323.909
323.795
323.682
323.571
323.463
323.356
323.251
323.149
323.048
322.95
322.854
322.76
322.668
322.579
322.492
322.407
322.325
322.245
324.28
324.165
324.051
323.939
323.829
323.721
323.615
323.512
323.41
323.31
323.213
323.117
323.024
322.933
322.845
322.758
322.674
322.593
322.514
322.437
331.656
330.36
326.608
323.041
319.83
316.413
312.843
309.053
304.962
300.534
295.687
290.334
284.483
277.982
270.86
262.806
254.051
244.209
232.308
225.799
342.261
342.24
340.287
338.019
335.649
333.004
330.092
326.854
323.287
319.36
315.041
310.252
305.02
299.177
292.753
285.491
277.66
268.672
258.339
251.291
355.202
355.721
354.093
352.217
350.306
348.12
345.705
343.036
340.081
336.819
333.176
329.107
324.601
319.525
313.915
307.505
300.575
292.484
283.463
277.631
368.462
369.209
368.107
366.842
365.515
363.947
362.143
360.082
357.732
355.067
352.03
348.597
344.731
340.316
335.359
329.666
323.454
316.129
308.018
303.291
381.327
382.285
381.512
380.621
379.71
378.584
377.261
375.71
373.914
371.839
369.43
366.655
363.474
359.788
355.608
350.696
345.26
338.67
331.067
327.109
393.926
395.171
394.79
394.425
394.037
393.475
392.712
391.754
390.548
389.097
387.312
385.206
382.677
379.68
376.158
371.955
367.224
361.325
354.331
350.137
405.958
407.353
407.377
407.365
407.346
407.164
406.835
406.34
405.642
404.712
403.502
402.013
400.17
397.942
395.258
391.984
388.214
383.285
377.616
372.592
416.429
418.219
418.78
419.31
419.846
420.251
420.503
420.611
420.509
420.205
419.636
418.852
417.71
416.25
414.314
411.921
409.022
405.198
401.181
395.743
427.734
429.703
430.493
431.281
432.066
432.728
433.248
433.654
433.923
434.052
433.99
433.732
433.193
432.393
431.2
429.667
427.603
424.988
421.853
417.41
436.15
438.225
439.501
440.766
442.036
443.23
444.325
445.356
446.253
447.045
447.634
448.06
448.197
448.113
447.634
446.872
445.598
443.945
441.636
438.453
445.405
447.769
449.328
450.896
452.468
453.968
455.374
456.708
457.913
459.009
459.928
460.706
461.235
461.553
461.536
461.252
460.542
459.488
457.842
455.431
452.469
454.871
456.737
458.619
460.533
462.403
464.222
465.996
467.679
469.289
470.741
472.081
473.157
474.082
474.63
475.023
474.91
474.556
473.474
471.666
459.052
461.8
464.068
466.338
468.604
470.822
472.956
475.027
476.978
478.818
480.492
482.009
483.31
484.447
485.328
485.994
486.215
486.217
485.498
484.268
464.785
467.626
469.979
472.366
474.776
477.141
479.468
481.752
483.967
486.117
488.151
490.104
491.886
493.562
494.967
496.185
496.949
497.497
497.304
496.702
469.324
472.31
474.871
477.506
480.151
482.782
485.362
487.918
490.383
492.785
495.044
497.217
499.17
500.985
502.468
503.799
504.738
505.511
505.57
505.478
472.6
475.663
478.316
481.055
483.818
486.558
489.271
491.946
494.574
497.123
499.611
501.984
504.26
506.363
508.313
510.03
511.495
512.604
513.192
513.278
474.901
478.034
480.778
483.637
486.538
489.43
492.301
495.157
497.957
500.721
503.388
505.979
508.397
510.676
512.684
514.444
515.772
516.748
517.166
517.172
475.644
478.841
481.65
484.587
487.552
490.522
493.465
496.412
499.308
502.177
504.956
507.65
510.188
512.582
514.731
516.62
518.164
519.251
520.026
520.053
475.117
478.31
481.176
484.144
487.172
490.173
493.185
496.168
499.133
502.032
504.868
507.596
510.206
512.686
514.911
516.988
518.573
520.072
520.653
521.424
473.296
476.569
479.401
482.366
485.366
488.375
491.359
494.358
497.292
500.211
503.01
505.764
508.333
510.816
513.013
515.123
516.869
518.602
519.327
521.278
135.811
132.465
129.126
125.719
122.246
118.684
115.128
111.422
107.747
103.929
100.075
95.9891
92.0071
88.1894
84.1082
81.4926
79.903
78.5245
79.0866
78.6388
140.597
137.136
133.7
130.147
126.58
122.852
119.135
115.273
111.4
107.439
103.389
99.2759
95.0893
91.1917
87.532
84.006
80.8695
81.081
80.7686
80.8561
145.286
141.76
138.275
134.613
130.913
127.058
123.173
119.103
115.024
110.793
106.537
102.096
97.6098
93.1695
89.1207
84.9166
81.9196
81.2961
80.1664
80.3161
150.164
146.537
142.885
139.024
135.174
131.115
127.013
122.721
118.346
113.874
109.259
104.63
99.8037
95.0043
90.0972
85.8089
82.0958
79.2941
78.7231
78.2385
155.336
151.522
147.741
143.71
139.656
135.335
130.972
126.362
121.644
116.723
111.684
106.425
101.042
95.5758
90.0095
84.5299
79.3883
74.8103
74.157
73.3075
160.639
156.706
152.809
148.553
144.331
139.773
135.131
130.235
125.118
119.799
114.195
108.387
102.251
95.8136
89.2303
82.2507
75.3532
69.1133
66.4535
65.4427
166.385
162.324
158.354
153.902
149.493
144.717
139.777
134.543
129.051
123.237
117.134
110.634
103.725
96.4644
88.6976
80.3137
71.5852
63.1309
57.317
56.3476
172.503
168.426
164.409
159.828
155.278
150.318
145.154
139.671
133.83
127.643
121.031
113.997
106.426
98.3684
89.5714
80.1641
70.008
59.699
51.141
50.5189
179.698
175.467
171.465
166.707
162.003
156.905
151.503
145.757
139.641
133.089
126.1
118.575
110.452
101.728
92.2461
81.9917
70.8488
59.1616
48.8496
46.3034
187.984
183.507
179.422
174.596
169.74
164.516
158.967
153.061
146.717
139.914
132.609
124.75
116.21
107.028
97.0354
86.1217
74.2735
61.575
50.3327
47.5738
196.899
192.284
188.172
183.33
178.409
173.16
167.526
161.512
155.068
148.113
140.639
132.538
123.71
114.2
103.794
92.4287
80.0883
66.6119
54.678
52.2974
206.344
201.762
197.767
193.055
188.181
182.98
177.365
171.363
164.873
157.848
150.286
142.07
133.094
123.468
112.764
101.177
88.443
74.2982
61.2882
57.6281
216.769
212.181
208.326
203.776
198.97
193.882
188.352
182.406
175.993
169.037
161.517
153.302
144.356
134.696
124.007
112.528
99.6625
85.6833
72.0799
67.7894
228.029
223.498
219.828
215.537
210.905
206.01
200.651
194.873
188.597
181.748
174.34
166.233
157.387
147.756
137.113
125.65
112.672
98.8499
85.1211
80.0392
240.245
235.743
232.285
228.331
223.87
219.192
214.054
208.479
202.418
195.813
188.626
180.735
172.123
162.727
152.372
141.13
128.417
114.916
101.087
95.5677
253.45
248.944
245.725
242.173
237.955
233.541
228.692
223.384
217.597
211.242
204.336
196.731
188.428
179.333
169.285
158.379
146.012
132.833
118.72
113.039
266.683
262.519
259.736
256.665
252.783
248.671
244.146
239.168
233.694
227.704
221.145
213.904
205.999
197.303
187.764
177.322
165.465
153.146
138.788
132.864
280.179
276.395
274.27
271.774
268.37
264.634
260.523
255.912
250.82
245.189
239.03
232.209
224.757
216.529
207.489
197.502
186.323
174.552
160.135
153.911
297.275
293.291
291.072
288.792
285.64
282.053
278.124
273.761
268.926
263.626
257.809
251.377
244.362
236.615
228.151
218.755
208.298
197.186
183.399
176.865
321.353
317.243
312.496
308.907
305.131
301.062
296.878
292.432
287.675
282.557
277.05
271.021
264.498
257.296
249.441
240.644
231.013
220.556
207.557
201.045
266.051
266.588
265.243
264.631
263.096
261.072
259.544
257.253
254.979
252.113
248.626
244.84
239.292
234.085
225.157
217.611
203.613
192.064
170.49
151.448
266.244
266.755
265.622
264.963
263.659
261.647
260.288
258.083
255.935
253.156
249.832
246.167
240.861
235.875
227.254
220.098
206.338
195.539
174.568
156.667
266.448
266.99
266.15
265.258
264.228
262.214
261.049
258.933
256.913
254.238
251.066
247.504
242.402
237.571
229.266
222.462
209.255
199.147
178.507
162.217
266.602
267.085
266.513
265.564
264.799
262.783
261.811
259.791
257.894
255.312
252.308
248.871
244.02
239.41
231.459
225.026
212.167
202.756
182.646
167.356
266.762
267.182
266.865
265.85
265.387
263.371
262.581
260.671
258.897
256.421
253.58
250.255
245.628
241.182
233.542
227.501
215.141
206.421
186.697
172.855
266.889
267.278
267.174
266.134
265.978
263.978
263.357
261.56
259.905
257.529
254.858
251.655
247.296
243.056
235.805
230.145
218.177
210.212
191.053
178.264
267.024
267.364
267.504
266.367
266.555
264.583
264.146
262.469
260.933
258.668
256.169
253.08
248.974
244.894
238.008
232.712
221.258
214.038
195.204
183.84
267.156
267.442
267.839
266.623
267.155
265.189
264.942
263.391
261.968
259.807
257.478
254.511
250.682
246.793
240.334
235.378
224.434
217.799
199.651
189.522
267.305
267.467
268.185
266.85
267.751
265.825
265.749
264.332
263.021
260.977
258.822
255.976
252.421
248.702
242.639
238.044
227.688
221.724
204.224
196.944
267.489
267.609
268.608
267.109
268.368
266.48
266.571
265.29
264.083
262.147
260.159
257.439
254.17
250.643
245.026
240.755
231.013
226.13
209.353
205.338
267.709
267.843
269.109
267.331
268.984
267.164
267.402
266.264
265.161
263.343
261.528
258.939
255.956
252.607
247.413
243.491
234.465
230.956
214.313
212.436
267.929
268.019
269.539
267.576
269.62
267.88
268.251
267.257
266.249
264.541
262.889
260.433
257.743
254.597
249.854
246.209
237.894
235.281
219.818
219.911
268.148
268.188
269.949
267.796
270.256
268.633
269.112
268.264
267.351
265.762
264.277
261.963
259.568
256.614
252.299
248.96
241.444
239.334
225.434
228.189
268.358
268.349
270.355
268.017
270.934
269.433
269.993
269.289
268.464
266.986
265.658
263.49
261.396
258.663
254.779
251.679
244.935
243.204
231.323
237.015
268.574
268.452
270.734
268.222
271.574
270.272
270.877
270.318
269.58
268.218
267.049
265.034
263.244
260.717
257.226
254.413
248.523
247.233
237.509
246.526
268.776
268.498
271.06
268.454
272.175
271.163
271.795
271.362
270.707
269.453
268.433
266.581
265.103
262.808
259.709
257.146
252.076
251.265
244.091
257.059
268.997
268.542
271.429
268.673
273.154
272.146
272.779
272.45
271.895
270.754
269.914
268.242
267.07
265.021
262.312
260.042
255.847
255.458
251.31
267.795
269.347
268.637
272.026
268.909
274.274
273.132
273.711
273.505
273.016
271.989
271.274
269.791
268.941
267.113
264.663
262.63
259.058
259.16
257.142
278.011
269.018
268.3
271.816
269.068
274.726
273.924
274.375
274.319
273.833
272.907
272.264
270.988
270.42
268.733
266.301
264.51
261.53
263.127
265.175
292.433
269.934
267.055
271.916
270.122
275.906
275.243
275.912
275.69
275.497
274.578
274.213
273.083
272.979
271.641
270.13
268.754
267.624
271.011
279.989
310.947
292.239
271.507
287.01
284.267
288.212
286.143
289.311
288.485
291.101
291.129
293.786
294.142
297.331
298.25
305.27
306.636
319.187
320.449
341.088
338.493
289.961
287.508
290.108
288.923
291.506
291.321
293.517
294.152
296.531
297.98
301.076
303.639
308.377
311.763
318.378
324.152
334.26
341.904
357.181
368.217
298.822
298.407
298.928
299.496
300.815
301.697
303.292
304.688
306.684
308.629
311.287
314.099
317.544
321.052
326.089
330.945
337.692
344.053
353.014
362.351
301.489
301.604
301.82
302.922
303.856
305.131
306.705
308.478
310.722
313.134
316.008
318.911
322.395
326.339
330.603
335.653
340.669
346.983
352.17
357.75
305.401
305.623
306.131
307.36
308.274
309.642
311.014
312.587
314.368
316.253
318.38
320.622
323.169
325.852
328.727
331.934
334.807
338.732
342.042
346.946
306.791
306.997
307.602
308.909
310.019
311.467
313.014
314.67
316.567
318.411
320.561
322.711
325.04
327.526
329.846
332.686
334.686
337.836
339.147
340.798
307.764
307.953
308.909
310.102
311.436
312.862
314.326
315.751
317.293
318.757
320.362
321.869
323.482
325.001
326.557
328.006
329.359
331.186
332.59
334.246
308.21
308.674
309.657
311.059
312.537
314.026
315.659
317.019
318.686
319.992
321.608
322.899
324.397
325.67
326.941
328.173
329.162
330.157
330.141
330.781
307.561
308.119
309.663
311.286
313.28
314.626
316.384
317.524
319.042
320.056
321.344
322.263
323.363
324.178
325.11
325.793
326.445
326.861
327.21
327.537
306.601
308.089
309.979
312.281
314.549
316.068
317.911
318.983
320.466
321.306
322.477
323.155
324.058
324.593
325.206
325.594
325.855
326.117
326.176
326.045
308.694
309.223
312.659
314.135
317.059
318.048
319.918
320.623
321.888
322.42
323.296
323.689
324.304
324.561
324.963
325.062
325.274
325.216
325.068
324.904
315.094
313.51
318.641
319.135
321.257
321.886
323.068
323.397
324.188
324.403
324.923
325.034
325.355
325.34
325.499
325.33
325.345
325.112
325.002
324.608
329.134
326.807
326.829
326.064
326.994
326.685
327.077
326.947
327.072
326.944
326.959
326.795
326.738
326.538
326.407
326.163
325.939
325.521
325.107
324.512
338.645
336.655
334.244
333.576
332.096
331.569
330.628
330.167
329.567
329.08
328.662
328.185
327.851
327.395
327.071
326.625
326.355
325.859
325.488
325.024
344.068
343.654
340.906
338.526
337.159
335.388
334.502
333.083
332.452
331.432
330.891
330.102
329.602
328.934
328.451
327.844
327.266
326.708
326.185
325.572
353.009
347.001
345
340.542
339.752
337.454
336.444
335.078
334.109
333.086
332.259
331.397
330.678
329.904
329.249
328.521
327.895
327.201
326.622
325.98
353.1
346.166
346.385
341.26
340.358
338.467
337.4
335.915
334.969
333.771
332.94
331.95
331.218
330.378
329.721
328.99
328.395
327.727
327.139
326.507
345.959
344.028
343.326
341.619
340.533
339.076
338.011
336.777
335.783
334.711
333.801
332.853
332.022
331.171
330.407
329.634
328.928
328.22
327.568
326.918
345.781
343.887
343.301
341.636
340.676
339.299
338.266
337.06
336.064
334.994
334.07
333.117
332.273
331.42
330.651
329.882
329.178
328.479
327.826
327.188
344.272
343.352
342.445
341.405
340.378
339.3
338.265
337.21
336.217
335.221
334.292
333.37
332.509
331.663
330.87
330.097
329.366
328.66
327.988
327.345
360.624
368.509
378.348
388.141
395.773
402.387
409.191
413.989
420.118
424.303
428.401
431.804
434.531
436.796
438.177
439.112
439.235
438.811
437.701
435.985
381.008
383.911
387.035
389.432
393.191
397.024
399.36
401.094
403.044
404.394
405.864
406.663
407.561
407.857
408.135
407.917
407.565
406.8
405.801
404.461
368.835
369.349
370.622
371.292
372.371
372.852
373.572
373.746
374.101
374.108
374.142
373.947
373.735
373.305
372.843
372.188
371.475
370.6
369.637
368.534
360.441
360.479
361.017
361.112
361.326
361.243
361.344
361.304
361.312
361.108
360.978