/*--------------------------------*- C++ -*----------------------------------*\
  =========                 |
  \\      /  F ield         | OpenFOAM: The Open Source CFD Toolbox
   \\    /   O peration     | Website:  https://openfoam.org
    \\  /    A nd           | Version:  9
     \\/     M anipulation  |
\*---------------------------------------------------------------------------*/
FoamFile
{
    format      ascii;
    class       volVectorField;
    location    "7.2";
    object      U;
}
// * * * * * * * * * * * * * * * * * * * * * * * * * * * * * * * * * * * * * //

dimensions      [0 1 -1 0 0 0 0];

internalField   nonuniform List<vector> 
46400
(
(9.75699 -9.47555 1.10742e-19)
(19.4099 -18.7075 -2.41458e-19)
(20.7987 -20.9807 -7.54288e-20)
(20.0141 -21.0565 -1.65163e-19)
(19.3323 -21.0374 -5.91458e-20)
(18.6064 -21.0794 7.11783e-19)
(17.9806 -21.1176 -4.36494e-19)
(17.3341 -21.1189 1.41699e-19)
(16.7647 -21.1597 -1.48937e-19)
(16.2213 -21.195 1.55254e-19)
(15.699 -21.2386 -1.60687e-19)
(15.2267 -21.2841 0)
(14.7364 -21.3054 1.10573e-18)
(14.3064 -21.353 -1.25526e-18)
(13.8838 -21.3853 -1.51138e-18)
(13.4547 -21.3728 -2.23919e-19)
(13.0324 -21.3777 -4.51768e-20)
(12.6585 -21.288 1.18131e-18)
(12.2553 -21.2695 1.54683e-18)
(11.7923 -21.5251 -1.4434e-18)
(10.0151 -8.94516 0)
(19.5135 -17.486 -3.9153e-20)
(20.6587 -19.3373 0)
(19.903 -19.5401 6.09487e-19)
(19.2355 -19.5705 -5.00631e-19)
(18.4945 -19.6408 1.23603e-19)
(17.8687 -19.701 0)
(17.2504 -19.7754 -1.41701e-19)
(16.6485 -19.8313 1.48935e-19)
(16.1153 -19.9098 -1.55251e-19)
(15.5857 -19.9962 1.59207e-18)
(15.11 -20.0735 5.27191e-20)
(14.6461 -20.1615 -1.26843e-18)
(14.2153 -20.2172 0)
(13.8017 -20.3058 1.76031e-19)
(13.3989 -20.3283 1.78665e-19)
(13.0066 -20.3926 0)
(12.6796 -20.3851 -1.58039e-18)
(12.336 -20.3712 -4.02192e-19)
(11.8569 -20.5539 1.62054e-18)
(10.2053 -8.38423 3.05124e-19)
(19.4965 -16.2451 -5.13066e-19)
(20.4303 -17.8024 5.64746e-19)
(19.5921 -17.9835 6.72162e-19)
(18.9615 -18.1007 -6.59905e-19)
(18.2641 -18.2284 0)
(17.6443 -18.3537 -1.73039e-18)
(17.0171 -18.4241 1.50068e-18)
(16.4484 -18.5476 -1.81792e-18)
(15.9224 -18.6362 1.79448e-18)
(15.402 -18.7512 1.65866e-18)
(14.9584 -18.8699 -1.74479e-19)
(14.4989 -18.9914 -1.4293e-18)
(14.0716 -19.0839 0)
(13.6828 -19.213 1.71252e-18)
(13.2775 -19.2751 -1.68657e-18)
(12.8821 -19.3554 0)
(12.5652 -19.4068 -2.02346e-20)
(12.227 -19.5413 1.99679e-19)
(11.803 -19.811 -1.79938e-18)
(10.3364 -7.80171 -4.69934e-19)
(19.3621 -14.9968 1.34637e-19)
(20.0517 -16.2507 7.87628e-19)
(19.3016 -16.5357 -7.78792e-19)
(18.6827 -16.6877 -6.28948e-19)
(17.9665 -16.8294 8.40957e-19)
(17.3519 -16.9956 1.10197e-18)
(16.7727 -17.1498 -2.71024e-18)
(16.1847 -17.2818 2.25206e-18)
(15.6701 -17.4252 -2.15812e-19)
(15.1566 -17.565 0)
(14.6886 -17.6991 2.20385e-19)
(14.248 -17.8539 -2.21875e-19)
(13.8364 -17.9837 0)
(13.4609 -18.1519 1.8935e-18)
(13.0981 -18.2818 -1.61898e-18)
(12.7076 -18.3753 0)
(12.3585 -18.4083 2.23678e-19)
(12.0222 -18.5078 2.3746e-19)
(11.5899 -18.808 1.95777e-18)
(10.4722 -7.22356 0)
(19.061 -13.5632 0)
(19.6678 -14.7855 -9.46031e-19)
(18.822 -15.0371 6.76574e-19)
(18.2065 -15.2817 -1.2292e-18)
(17.5432 -15.4721 9.84004e-19)
(16.924 -15.6751 0)
(16.3449 -15.8539 1.03931e-18)
(15.7772 -16.0506 -1.26502e-18)
(15.2733 -16.2195 -2.73707e-19)
(14.7601 -16.4014 -2.73606e-19)
(14.3205 -16.5706 0)
(13.8918 -16.7694 2.09332e-18)
(13.4608 -16.9048 -2.06059e-18)
(13.0852 -17.1027 0)
(12.7398 -17.2828 -2.31052e-18)
(12.3935 -17.4784 2.03399e-18)
(12.0874 -17.5967 2.03726e-18)
(11.748 -17.7411 -2.2181e-18)
(11.3227 -18.0418 0)
(10.6963 -6.63121 0)
(18.6647 -12.2404 0)
(19.0222 -13.2262 0)
(18.2488 -13.577 -3.79625e-20)
(17.7002 -13.9043 0)
(17.053 -14.1703 0)
(16.4331 -14.4052 0)
(15.8792 -14.6296 -3.02967e-19)
(15.3301 -14.8556 0)
(14.8378 -15.0625 2.73719e-19)
(14.3599 -15.281 -2.64594e-20)
(13.9058 -15.461 -2.59654e-18)
(13.4937 -15.6898 1.96561e-18)
(13.097 -15.8637 -2.56243e-18)
(12.7172 -16.0646 1.94234e-18)
(12.3657 -16.2418 0)
(12.0062 -16.4236 -2.21242e-18)
(11.6888 -16.5566 1.8966e-18)
(11.3952 -16.7572 0)
(10.9904 -17.0902 -2.95006e-19)
(10.9334 -6.12419 1.15594e-18)
(18.0956 -10.8721 3.21394e-19)
(18.4068 -11.8317 1.25983e-18)
(17.6022 -12.1518 -1.28201e-18)
(16.9742 -12.5227 -1.28428e-18)
(16.4108 -12.8504 2.54758e-18)
(15.8226 -13.1694 -2.88232e-18)
(15.2919 -13.4259 2.84755e-19)
(14.7477 -13.7031 9.28609e-19)
(14.2729 -13.9411 0)
(13.7949 -14.2063 -2.54297e-20)
(13.3518 -14.4124 -2.42731e-20)
(12.9574 -14.6796 2.96174e-19)
(12.5587 -14.8835 2.42666e-18)
(12.1897 -15.123 -2.11986e-18)
(11.8814 -15.3644 -2.70584e-18)
(11.5605 -15.6068 2.36121e-18)
(11.2484 -15.7584 -1.88075e-20)
(10.9412 -15.9559 -2.95071e-19)
(10.5672 -16.3107 -2.16169e-18)
(11.2142 -5.59579 -3.44053e-19)
(17.4478 -9.67335 4.01835e-20)
(17.4761 -10.4466 -3.69059e-19)
(16.7276 -10.8322 -1.45678e-18)
(16.2016 -11.2751 1.02744e-18)
(15.6723 -11.6404 0)
(15.121 -12.0096 2.10186e-18)
(14.6146 -12.2998 -1.01934e-18)
(14.1153 -12.618 6.879e-19)
(13.6461 -12.8694 3.53646e-19)
(13.2207 -13.1729 -6.80057e-19)
(12.7976 -13.4006 1.65603e-18)
(12.4033 -13.67 3.41441e-19)
(12.0349 -13.8937 -1.96592e-18)
(11.6557 -14.1119 5.49836e-18)
(11.3177 -14.3331 -2.23862e-18)
(11.0224 -14.6032 2.84574e-18)
(10.7382 -14.8093 -1.86317e-18)
(10.4559 -15.0218 6.09886e-19)
(10.0979 -15.405 2.95813e-18)
(11.3897 -5.16337 1.70537e-18)
(16.5631 -8.41096 -3.65878e-19)
(16.5191 -9.19862 -3.53833e-20)
(15.9044 -9.57507 7.72156e-19)
(15.3031 -10.0725 3.68205e-19)
(14.8172 -10.4739 3.95746e-19)
(14.3087 -10.907 -1.8824e-18)
(13.846 -11.2537 1.13189e-18)
(13.3663 -11.6036 -3.57336e-19)
(12.9295 -11.9004 -3.53645e-19)
(12.5087 -12.2248 -3.49746e-19)
(12.1052 -12.4949 -3.6753e-19)
(11.7464 -12.797 -7.03787e-19)
(11.419 -13.0773 2.44452e-18)
(11.0649 -13.3282 -3.42355e-18)
(10.7395 -13.5459 -3.46692e-19)
(10.4429 -13.805 1.75876e-20)
(10.177 -14.0214 -2.60946e-18)
(9.90515 -14.2314 1.94083e-18)
(9.56538 -14.5952 -3.1186e-18)
(11.4018 -4.756 1.47759e-18)
(15.7056 -7.33105 -3.80468e-18)
(15.4879 -8.0999 2.51953e-18)
(14.8283 -8.47809 -4.02658e-19)
(14.3067 -8.96457 -4.28436e-19)
(13.8882 -9.40828 1.67201e-18)
(13.4268 -9.85917 -2.0335e-18)
(13.0142 -10.241 0)
(12.5929 -10.6442 1.58114e-18)
(12.1654 -10.9452 -1.55482e-18)
(11.7821 -11.3003 -1.14198e-18)
(11.41 -11.5887 1.49086e-18)
(11.0311 -11.8824 3.62355e-19)
(10.7177 -12.1739 -1.46729e-18)
(10.4236 -12.4776 3.52056e-19)
(10.1077 -12.7194 1.76935e-18)
(9.81331 -12.9831 -3.14135e-18)
(9.57408 -13.224 2.06976e-18)
(9.32804 -13.4647 -1.50302e-20)
(9.03345 -13.8133 -2.91677e-18)
(11.1709 -4.23049 2.01992e-18)
(14.5249 -6.2796 -1.36852e-18)
(14.2825 -7.06296 9.14109e-19)
(13.8614 -7.55451 1.13863e-20)
(13.3284 -8.0181 -1.79144e-18)
(12.8898 -8.45849 -1.72374e-18)
(12.4764 -8.92431 2.13609e-18)
(12.0763 -9.32604 -1.26244e-18)
(11.7037 -9.75586 1.66858e-18)
(11.3368 -10.1139 0)
(10.9682 -10.4692 1.98463e-20)
(10.6417 -10.8046 3.8794e-19)
(10.3105 -11.1204 3.99956e-19)
(10.0052 -11.4133 -3.93086e-19)
(9.72477 -11.7248 0)
(9.45483 -12.0008 3.79663e-19)
(9.18124 -12.2663 0)
(8.9388 -12.5121 7.18942e-19)
(8.72419 -12.7712 3.52849e-18)
(8.46373 -13.1232 -9.03739e-21)
(10.7542 -3.67689 1.0911e-18)
(13.414 -5.3163 -2.33576e-19)
(13.1412 -6.06577 -3.38071e-18)
(12.7655 -6.61116 1.89428e-18)
(12.2941 -7.15446 4.55148e-19)
(11.8943 -7.59388 -4.48557e-19)
(11.5142 -8.08956 -1.81395e-18)
(11.1376 -8.49361 1.34776e-18)
(10.7991 -8.93664 0)
(10.4623 -9.32406 0)
(10.1219 -9.69718 -2.10651e-18)
(9.81708 -10.0457 1.6653e-18)
(9.50508 -10.3837 -3.99968e-19)
(9.20973 -10.6883 -1.21099e-18)
(8.95108 -11.0068 3.88454e-21)
(8.71588 -11.3155 2.71927e-18)
(8.45147 -11.5976 -1.52429e-18)
(8.21699 -11.8517 1.12658e-18)
(8.00416 -12.1202 -1.83179e-18)
(7.7693 -12.4774 0)
(10.1749 -3.11988 -9.34799e-19)
(12.1487 -4.4198 1.52833e-18)
(11.8312 -5.14394 2.59142e-19)
(11.5394 -5.74809 2.54974e-19)
(11.1812 -6.34934 0)
(10.8015 -6.83184 1.93097e-18)
(10.4588 -7.34747 -1.89716e-18)
(10.1273 -7.78812 2.37519e-19)
(9.80119 -8.2278 0)
(9.51986 -8.64479 1.79434e-18)
(9.23339 -9.04241 -1.54054e-18)
(8.95676 -9.41549 1.72774e-18)
(8.70155 -9.77505 -1.70032e-18)
(8.44088 -10.1063 1.66338e-18)
(8.17718 -10.4155 -1.43e-18)
(7.9589 -10.7336 -1.60158e-18)
(7.75577 -11.0431 3.14963e-18)
(7.53108 -11.3057 -1.35254e-18)
(7.32061 -11.5583 1.92517e-19)
(7.12724 -11.8989 1.6318e-18)
(9.43923 -2.58184 -7.38917e-19)
(10.9714 -3.63696 8.05201e-19)
(10.5879 -4.30377 -2.59203e-19)
(10.3145 -4.88624 -2.54997e-19)
(10.0151 -5.51711 0)
(9.69342 -6.03105 0)
(9.40456 -6.57262 0)
(9.11426 -7.07011 -4.83517e-19)
(8.82495 -7.53875 -1.89721e-18)
(8.54718 -7.99209 3.72591e-18)
(8.26375 -8.4016 -2.05419e-18)
(8.01763 -8.81378 -2.27247e-19)
(7.77103 -9.19057 0)
(7.54168 -9.55911 0)
(7.31387 -9.88674 -4.21796e-19)
(7.09991 -10.212 0)
(6.91039 -10.5288 1.62068e-18)
(6.75207 -10.8419 -1.99472e-18)
(6.56832 -11.1195 -1.75056e-18)
(6.35823 -11.4448 1.69077e-18)
(8.56974 -2.06514 7.645e-19)
(9.75763 -2.98144 1.39548e-18)
(9.32481 -3.67153 1.42924e-21)
(9.05423 -4.21894 1.61606e-22)
(8.80952 -4.89203 2.68498e-19)
(8.52294 -5.43008 -7.7678e-19)
(8.21701 -5.95421 0)
(7.96603 -6.45874 -7.52458e-19)
(7.71388 -6.91057 2.51574e-19)
(7.50675 -7.39168 9.62169e-19)
(7.29667 -7.8033 9.39366e-19)
(7.07117 -8.22437 -6.96932e-19)
(6.8878 -8.6037 1.80348e-18)
(6.71249 -9.00822 -1.55111e-18)
(6.52016 -9.35161 1.94571e-18)
(6.32927 -9.70258 -3.61765e-18)
(6.13826 -10.0136 1.67172e-18)
(5.96477 -10.3278 2.01756e-19)
(5.83046 -10.6353 1.59782e-18)
(5.67975 -10.984 -1.73481e-18)
(7.52766 -1.57419 2.64286e-19)
(8.37118 -2.42857 -2.83096e-19)
(7.98613 -3.15541 1.13664e-18)
(7.70655 -3.69374 -1.11567e-18)
(7.43864 -4.3249 -5.46023e-19)
(7.2885 -4.95175 -1.3344e-18)
(7.07199 -5.49989 3.16109e-21)
(6.90227 -6.05697 1.03051e-18)
(6.66067 -6.50923 -2.4847e-19)
(6.45325 -6.99146 0)
(6.2623 -7.4192 0)
(6.06961 -7.85617 0)
(5.85878 -8.22474 0)
(5.67694 -8.61786 5.09919e-21)
(5.53576 -8.97761 0)
(5.37663 -9.33503 2.15193e-19)
(5.24532 -9.6646 8.50916e-19)
(5.08897 -9.97795 -2.50597e-18)
(4.94947 -10.2697 1.85006e-18)
(4.80549 -10.6146 -1.76424e-18)
(6.3904 -1.12293 0)
(7.00699 -1.94444 -1.50181e-19)
(6.71474 -2.73863 0)
(6.54935 -3.32961 4.26774e-19)
(6.2039 -3.84956 -2.84154e-19)
(6.01895 -4.42665 -1.09605e-18)
(5.82214 -4.95475 3.69684e-21)
(5.70135 -5.53077 1.05447e-18)
(5.55385 -6.0345 -1.02813e-18)
(5.38014 -6.52054 2.01733e-18)
(5.23269 -6.97666 -4.85996e-21)
(5.10123 -7.41826 -9.69072e-19)
(4.98351 -7.84363 9.43757e-19)
(4.83379 -8.22539 -1.15827e-18)
(4.70114 -8.60796 0)
(4.5657 -8.96295 -8.85855e-19)
(4.4412 -9.31518 8.72623e-19)
(4.31565 -9.64065 0)
(4.20267 -9.95205 -2.0683e-19)
(4.0676 -10.2871 0)
(5.1692 -0.811314 1.4851e-19)
(5.2354 -1.56808 1.50333e-19)
(5.12978 -2.31337 0)
(5.21097 -3.13906 5.81114e-19)
(4.99849 -3.75824 -7.17587e-19)
(4.81185 -4.35064 4.18081e-19)
(4.60827 -4.86186 -1.2348e-18)
(4.46524 -5.37228 5.3773e-19)
(4.37591 -5.87849 -1.32227e-19)
(4.23649 -6.34389 0)
(4.132 -6.80053 -1.26568e-19)
(3.98518 -7.21606 -1.2384e-19)
(3.87694 -7.6373 -1.21182e-19)
(3.76175 -8.02024 0)
(3.65986 -8.40362 -9.19683e-19)
(3.55739 -8.74875 1.91978e-18)
(3.46469 -9.10351 -1.6574e-18)
(3.37026 -9.41577 8.68721e-19)
(3.2852 -9.73357 1.06761e-19)
(3.1917 -10.0584 9.12926e-19)
(3.84895 -0.549425 -2.30567e-19)
(4.1293 -1.23231 -3.08435e-19)
(3.65645 -1.76095 4.60376e-22)
(3.61961 -2.49159 8.15375e-19)
(3.61472 -3.19848 -2.19846e-19)
(3.60428 -3.83565 -1.42712e-19)
(3.52674 -4.4413 1.39316e-19)
(3.41385 -4.93415 2.72936e-19)
(3.31292 -5.49132 1.32216e-19)
(3.21625 -5.95602 -5.19799e-19)
(3.13918 -6.46148 5.73769e-19)
(3.0607 -6.89296 1.2383e-19)
(2.99307 -7.3463 6.07832e-19)
(2.90678 -7.7395 -2.84473e-21)
(2.84095 -8.15276 5.58966e-20)
(2.75594 -8.50828 -1.02882e-18)
(2.68626 -8.88403 2.8185e-19)
(2.60475 -9.20395 0)
(2.53467 -9.53203 -5.27793e-20)
(2.45438 -9.858 -4.62165e-19)
(2.48475 -0.54788 7.85225e-20)
(2.68867 -1.49356 -1.56502e-19)
(2.43904 -2.12601 3.07102e-19)
(2.1776 -2.70446 -7.51731e-20)
(2.15819 -3.27708 -7.42087e-20)
(2.11686 -3.83491 0)
(2.189 -4.42701 -1.40373e-19)
(2.10072 -4.95083 2.75222e-19)
(2.0479 -5.49388 -1.34949e-19)
(1.98764 -5.95639 1.31292e-19)
(1.92673 -6.42709 -6.50738e-20)
(1.87047 -6.84073 -1.25605e-19)
(1.81516 -7.27083 2.46486e-19)
(1.76822 -7.64956 -2.41183e-19)
(1.7224 -8.04358 5.96516e-20)
(1.6922 -8.3887 4.11853e-34)
(1.6521 -8.75624 -5.64693e-20)
(1.62802 -9.07144 3.31909e-19)
(1.5886 -9.40045 -1.6348e-19)
(1.5615 -9.72682 -1.17384e-19)
(-0.125034 -8.45611 1.424e-19)
(1.5055 -24.1316 4.34888e-20)
(2.17017 -37.3024 0)
(2.29999 -41.4396 6.24553e-20)
(2.28218 -41.3949 5.69612e-20)
(2.17001 -40.7991 5.31875e-20)
(2.08722 -40.1967 0)
(2.01211 -39.6269 4.57617e-20)
(1.94513 -39.0769 0)
(1.87559 -38.6169 0)
(1.82123 -38.1315 -3.43586e-20)
(1.74508 -37.677 4.46363e-21)
(1.68193 -37.268 6.34411e-20)
(1.61449 -36.8278 0)
(1.53737 -36.3793 2.54178e-20)
(1.48989 -35.8725 2.32812e-20)
(1.38357 -35.342 2.13285e-20)
(1.37725 -34.7839 0)
(1.23657 -34.333 -3.51394e-20)
(1.26776 -33.8779 3.45146e-20)
(0.464952 -9.13039 2.10614e-19)
(2.15374 -25.2452 -2.36746e-19)
(3.61753 -37.8771 0)
(3.67892 -41.2289 -3.04043e-19)
(3.65936 -41.0669 2.86861e-19)
(3.53117 -40.461 -4.79644e-19)
(3.42086 -39.8669 2.03502e-19)
(3.31829 -39.3696 1.29527e-19)
(3.21412 -38.9004 -5.76891e-19)
(3.10679 -38.3957 3.1707e-19)
(2.99889 -37.9554 -3.57063e-20)
(2.90029 -37.5099 2.50252e-19)
(2.80725 -37.0732 -1.66336e-20)
(2.7105 -36.6476 -2.26015e-19)
(2.61897 -36.2102 -2.54186e-20)
(2.53496 -35.7257 -2.32817e-20)
(2.41531 -35.183 -2.13285e-20)
(2.36035 -34.6222 0)
(2.19934 -34.1629 -1.34374e-19)
(2.19955 -33.7123 1.01765e-20)
(0.84185 -9.69014 -1.37765e-19)
(3.09019 -26.2507 0)
(4.97062 -38.5108 0)
(5.07661 -41.3138 -1.21115e-19)
(4.97609 -40.9564 1.13969e-19)
(4.80098 -40.3004 0)
(4.65083 -39.7072 -9.44592e-20)
(4.50872 -39.1547 2.54316e-19)
(4.36373 -38.596 -2.5309e-19)
(4.22029 -38.1092 2.87248e-19)
(4.10999 -37.6488 -3.49344e-19)
(3.96641 -37.2122 0)
(3.85552 -36.8035 -2.20976e-19)
(3.7294 -36.3737 -1.86641e-19)
(3.6027 -35.9325 3.51159e-19)
(3.48985 -35.4264 -3.36666e-19)
(3.32532 -34.887 2.92858e-19)
(3.25588 -34.3232 0)
(3.05109 -33.8856 -2.8603e-19)
(3.06471 -33.4445 4.82339e-19)
(1.28884 -10.2564 6.82835e-19)
(4.32381 -26.9364 0)
(6.46005 -38.5832 2.57162e-19)
(6.52273 -40.8416 3.49244e-19)
(6.35879 -40.4101 -6.71472e-19)
(6.13778 -39.7917 1.99181e-19)
(5.93201 -39.212 9.44601e-20)
(5.74723 -38.707 9.12079e-19)
(5.5747 -38.2394 -1.25036e-18)
(5.4048 -37.7807 -9.88897e-20)
(5.23506 -37.3289 6.09862e-19)
(5.07759 -36.8827 1.16671e-19)
(4.92404 -36.4674 -5.27978e-19)
(4.76904 -36.0434 5.11859e-19)
(4.62238 -35.6086 1.34864e-19)
(4.47628 -35.1318 -8.00578e-20)
(4.30874 -34.6053 1.11382e-19)
(4.20181 -34.0654 0)
(3.98656 -33.6375 -2.7485e-20)
(3.97489 -33.1969 0)
(1.76304 -10.8076 0)
(5.4612 -27.6209 1.03781e-18)
(7.8396 -38.7162 -1.29943e-18)
(7.89437 -40.5303 1.13508e-18)
(7.6735 -40.0187 -8.7388e-19)
(7.42014 -39.3988 -1.99176e-19)
(7.17788 -38.817 0)
(6.96425 -38.3084 4.6421e-19)
(6.74366 -37.7951 -6.20437e-19)
(6.52048 -37.2891 6.66298e-19)
(6.33791 -36.867 -5.17916e-19)
(6.13348 -36.4485 -1.16675e-19)
(5.95977 -36.0415 5.04737e-19)
(5.77896 -35.6361 -8.5084e-19)
(5.60068 -35.2158 5.13738e-19)
(5.42944 -34.7445 -1.68519e-19)
(5.21242 -34.222 -3.41006e-19)
(5.07598 -33.6637 7.48698e-19)
(4.80706 -33.237 -4.17852e-19)
(4.79117 -32.7901 -4.42665e-19)
(2.27501 -11.217 1.02645e-18)
(6.69566 -28.0337 1.00331e-18)
(9.25951 -38.4524 -1.00795e-18)
(9.26346 -39.8924 -2.18699e-19)
(8.97007 -39.346 2.08667e-19)
(8.668 -38.7547 7.21355e-19)
(8.36831 -38.2046 -7.08717e-19)
(8.1005 -37.7064 0)
(7.85284 -37.2341 5.4638e-19)
(7.61547 -36.8226 -5.37269e-19)
(7.39481 -36.3798 -4.5233e-19)
(7.16958 -35.9619 4.45022e-19)
(6.96805 -35.5827 0)
(6.75538 -35.1819 0)
(6.55621 -34.768 6.91095e-19)
(6.34786 -34.3105 -6.7383e-19)
(6.12865 -33.8046 -4.92983e-19)
(5.96011 -33.2772 4.85745e-19)
(5.69125 -32.871 -3.95705e-19)
(5.6791 -32.4673 4.88806e-19)
(2.8015 -11.5784 -7.359e-19)
(7.90854 -28.3099 2.78484e-19)
(10.61 -38.1168 6.36611e-20)
(10.5851 -39.2151 1.1081e-18)
(10.2355 -38.6585 0)
(9.90733 -38.0899 0)
(9.57314 -37.5423 1.24109e-18)
(9.28174 -37.0888 -9.18822e-20)
(8.99515 -36.6446 -1.10869e-18)
(8.69826 -36.1658 9.28572e-19)
(8.43662 -35.7857 -9.13351e-19)
(8.17733 -35.3842 0)
(7.92889 -34.999 6.85802e-19)
(7.69409 -34.6216 -6.75026e-19)
(7.45623 -34.2343 0)
(7.2313 -33.8075 0)
(6.96945 -33.3235 0)
(6.76896 -32.7963 0)
(6.44872 -32.3881 0)
(6.40803 -31.9304 -4.41159e-20)
(3.36953 -11.8668 6.88924e-19)
(9.14759 -28.4857 -1.19186e-18)
(11.9334 -37.5946 0)
(11.8431 -38.443 0)
(11.4293 -37.8778 1.58814e-18)
(11.0493 -37.3395 5.33628e-20)
(10.6639 -36.8248 -1.40189e-18)
(10.318 -36.3548 0)
(9.99414 -35.9038 1.18236e-19)
(9.68222 -35.5154 -1.06562e-19)
(9.41166 -35.1126 0)
(9.11892 -34.7443 8.6015e-20)
(8.87294 -34.396 -6.996e-19)
(8.60766 -34.0445 1.23813e-18)
(8.3623 -33.6704 -5.2105e-20)
(8.09932 -33.2634 -4.8828e-19)
(7.82901 -32.7975 -4.7463e-20)
(7.58602 -32.2893 4.14765e-20)
(7.26115 -31.9079 0)
(7.21402 -31.4969 3.16111e-20)
(3.93513 -12.0557 4.37951e-19)
(10.3356 -28.3843 3.49651e-19)
(13.1711 -36.8453 -1.3232e-18)
(13.0503 -37.4539 3.63733e-19)
(12.5825 -36.9262 1.50591e-19)
(12.1771 -36.4085 1.31819e-18)
(11.758 -35.9217 -1.81881e-18)
(11.3859 -35.5243 1.28761e-18)
(11.0402 -35.144 -9.82526e-19)
(10.6824 -34.7428 1.14844e-18)
(10.3514 -34.3971 1.71522e-19)
(10.0395 -34.0305 6.86517e-19)
(9.72479 -33.6959 -3.97572e-19)
(9.4371 -33.3488 -6.76344e-19)
(9.13925 -33.0084 5.85526e-19)
(8.86167 -32.6216 0)
(8.55411 -32.1824 1.26703e-19)
(8.28837 -31.6901 2.64218e-20)
(7.9223 -31.2924 -5.80601e-20)
(7.84834 -30.8353 1.73163e-20)
(4.52916 -12.211 -8.07599e-19)
(11.5321 -28.2911 8.4897e-19)
(14.3701 -36.1055 -3.1353e-20)
(14.1762 -36.5326 -6.97191e-19)
(13.6627 -36.0168 -6.26574e-19)
(13.2109 -35.549 -2.95269e-19)
(12.7475 -35.0722 -2.61696e-20)
(12.3286 -34.6555 -2.38948e-19)
(11.9377 -34.2625 0)
(11.5494 -33.8898 -1.92032e-19)
(11.2208 -33.5598 -1.71534e-19)
(10.8698 -33.2414 -2.08567e-20)
(10.5669 -32.9229 4.5645e-19)
(10.2565 -32.633 -2.48927e-19)
(9.96625 -32.3144 -4.6651e-19)
(9.66339 -31.9877 3.56014e-19)
(9.3553 -31.5841 1.8563e-19)
(9.0471 -31.1145 -3.28872e-19)
(8.67754 -30.7487 5.80725e-20)
(8.60294 -30.3277 2.57202e-19)
(5.1153 -12.2469 -1.90446e-18)
(12.6295 -27.8894 1.94355e-18)
(15.4492 -35.0278 -2.05354e-18)
(15.2332 -35.3145 1.66558e-18)
(14.644 -34.8509 1.38295e-18)
(14.165 -34.401 -1.06462e-18)
(13.6761 -33.9945 -1.31161e-18)
(13.2237 -33.6496 8.17239e-20)
(12.8204 -33.3237 7.51129e-19)
(12.4121 -33.0137 -4.51015e-19)
(12.0287 -32.6991 1.1085e-18)
(11.6662 -32.4021 -6.45863e-19)
(11.3089 -32.1301 -1.15484e-19)
(10.9726 -31.8265 2.37056e-19)
(10.628 -31.5426 -6.18133e-19)
(10.3035 -31.2113 2.81482e-19)
(9.95427 -30.8416 0)
(9.62188 -30.4034 -3.12854e-19)
(9.21182 -30.0226 3.08125e-19)
(9.10106 -29.583 -1.62938e-19)
(5.70243 -12.2592 3.50957e-19)
(13.7173 -27.5019 4.07827e-19)
(16.4943 -34.0692 1.66519e-18)
(16.2103 -34.2234 1.3488e-18)
(15.5904 -33.7902 -8.27121e-19)
(15.0708 -33.4055 1.05501e-18)
(14.5469 -32.9804 -6.21596e-19)
(14.0613 -32.6401 6.56237e-19)
(13.6191 -32.3292 -1.21832e-18)
(13.1657 -32.0026 4.18847e-19)
(12.7757 -31.7531 0)
(12.3782 -31.479 0)
(12.0091 -31.2165 0)
(11.6598 -30.9837 -5.10512e-19)
(11.3201 -30.7285 5.02622e-19)
(10.9888 -30.4761 0)
(10.6517 -30.1442 0)
(10.2919 -29.7362 -1.63214e-20)
(9.88537 -29.3886 0)
(9.78247 -28.9774 -6.63972e-20)
(6.26648 -12.1655 -6.4346e-19)
(14.705 -26.8569 -1.58439e-18)
(17.3621 -32.7457 -1.06381e-18)
(17.0582 -32.868 -1.57179e-19)
(16.3905 -32.4793 1.31444e-18)
(15.8235 -32.1237 -2.97111e-19)
(15.2803 -31.7956 -8.21389e-20)
(14.7568 -31.5009 -7.43475e-19)
(14.2947 -31.2314 0)
(13.8386 -30.9923 -2.9998e-19)
(13.4133 -30.7328 4.60592e-19)
(13.0052 -30.5163 0)
(12.6173 -30.3025 4.30855e-19)
(12.2421 -30.0705 -4.24101e-19)
(11.8659 -29.8571 2.45007e-19)
(11.5099 -29.6202 -3.90872e-19)
(11.1369 -29.3422 1.61594e-19)
(10.7534 -28.9693 1.63212e-20)
(10.3086 -28.6164 1.00645e-20)
(10.1642 -28.1904 -9.06712e-20)
(6.81274 -12.0454 -7.771e-19)
(15.6597 -26.1873 8.04839e-20)
(18.2302 -31.5798 1.11784e-19)
(17.8306 -31.5867 1.69177e-18)
(17.1626 -31.242 1.05754e-19)
(16.5727 -30.9463 -8.12403e-19)
(16.0015 -30.6092 -4.99096e-19)
(15.4563 -30.3585 1.99782e-19)
(14.977 -30.1318 4.91678e-19)
(14.4789 -29.8936 -4.36304e-19)
(14.0348 -29.7036 2.01674e-19)
(13.6016 -29.49 -3.71745e-19)
(13.1792 -29.3034 3.08922e-19)
(12.7912 -29.1157 -1.49668e-19)
(12.4015 -28.9187 1.45742e-19)
(12.0406 -28.7367 -1.95512e-20)
(11.6815 -28.5201 4.99986e-21)
(11.283 -28.206 -1.07615e-19)
(10.8432 -27.8789 1.18204e-19)
(10.7065 -27.4916 2.75723e-19)
(7.3241 -11.8437 -9.09756e-19)
(16.5077 -25.3267 -1.26794e-19)
(18.8956 -30.1216 8.5605e-19)
(18.4578 -30.1636 -6.40978e-19)
(17.76 -29.8611 6.29434e-19)
(17.123 -29.6128 1.39502e-19)
(16.5336 -29.3474 0)
(15.9538 -29.1185 -6.47657e-20)
(15.4408 -28.9196 1.47209e-19)
(14.9382 -28.7357 -4.92744e-19)
(14.4767 -28.5716 3.27494e-19)
(14.0293 -28.4137 4.24015e-20)
(13.6053 -28.2632 2.26649e-20)
(13.2088 -28.1243 0)
(12.8052 -27.9735 2.39236e-20)
(12.4305 -27.8128 -1.81936e-19)
(12.05 -27.6414 -6.19656e-20)
(11.6461 -27.3924 -1.22897e-19)
(11.1788 -27.0796 2.86889e-19)
(11.0026 -26.666 -9.55745e-20)
(7.80763 -11.5879 7.42969e-19)
(17.2679 -24.3991 -1.24031e-18)
(19.5375 -28.7616 6.85598e-19)
(19.0159 -28.7132 4.82657e-19)
(18.3129 -28.4585 -8.52313e-20)
(17.6663 -28.2611 -3.14904e-19)
(17.0661 -28.0398 4.81211e-20)
(16.4676 -27.8664 6.47662e-20)
(15.9547 -27.7184 0)
(15.4298 -27.5735 0)
(14.9431 -27.4332 3.92726e-21)
(14.4866 -27.3116 -8.36412e-20)
(14.03 -27.1875 9.11113e-20)
(13.6055 -27.065 0)
(13.1824 -26.9518 2.47114e-20)
(12.7873 -26.8327 4.21592e-19)
(12.4089 -26.7126 -4.22462e-19)
(11.9964 -26.5258 4.41925e-20)
(11.5462 -26.2735 5.77693e-19)
(11.3715 -25.9006 -3.80212e-19)
(8.2564 -11.2765 -5.73089e-19)
(17.9266 -23.3647 7.02505e-19)
(20.0025 -27.2551 0)
(19.4373 -27.256 0)
(18.7289 -27.0426 4.82861e-20)
(18.0364 -26.8907 -2.25427e-19)
(17.4148 -26.69 2.96792e-20)
(16.798 -26.5518 8.86926e-20)
(16.2523 -26.4347 5.11018e-20)
(15.7129 -26.3178 -1.99514e-19)
(15.2201 -26.2459 1.46818e-19)
(14.7429 -26.1413 -6.95401e-20)
(14.2782 -26.0569 -4.44641e-19)
(13.8606 -25.9799 -1.34858e-19)
(13.4277 -25.8935 3.23692e-19)
(13.0369 -25.8192 -5.41252e-20)
(12.6509 -25.7551 6.61734e-19)
(12.2486 -25.6493 -5.92334e-19)
(11.7844 -25.4214 2.15152e-20)
(11.5822 -25.0378 -6.92154e-19)
(8.67907 -10.8994 0)
(18.4475 -22.2563 2.10926e-19)
(20.3775 -25.7157 -2.85174e-19)
(19.7499 -25.6958 0)
(19.035 -25.5355 -4.82858e-20)
(18.3436 -25.4515 8.27669e-21)
(17.7236 -25.3333 -2.03741e-20)
(17.0841 -25.2207 0)
(16.5345 -25.1528 -3.13044e-19)
(15.9943 -25.0806 3.07829e-19)
(15.4763 -25.0126 -6.99329e-20)
(15.0094 -24.9844 4.914e-20)
(14.5358 -24.9249 5.78039e-20)
(14.0903 -24.8783 6.55491e-20)
(13.6429 -24.8203 7.83618e-19)
(13.2153 -24.7472 -1.45438e-18)
(12.8138 -24.717 1.5333e-18)
(12.417 -24.6833 -1.60112e-18)
(11.9888 -24.5846 7.06965e-19)
(11.7912 -24.2408 -9.9677e-20)
(9.07411 -10.4886 0)
(18.887 -21.1132 -1.46978e-19)
(20.6466 -24.1814 1.00851e-19)
(19.9655 -24.1932 3.63826e-21)
(19.2603 -24.0684 -6.99858e-20)
(18.5349 -24.0074 -6.29873e-20)
(17.8997 -23.912 1.39928e-19)
(17.2603 -23.8545 0)
(16.6983 -23.8226 0)
(16.1423 -23.7893 0)
(15.6191 -23.7648 6.99304e-20)
(15.1295 -23.7458 0)
(14.6357 -23.7271 9.4681e-19)
(14.1935 -23.7085 -8.19309e-19)
(13.7442 -23.6967 9.20562e-19)
(13.3207 -23.6635 -1.86317e-18)
(12.9058 -23.6641 9.42243e-19)
(12.4967 -23.6688 1.15021e-18)
(12.0648 -23.6147 -2.01777e-18)
(11.8537 -23.2781 1.05699e-18)
(9.42489 -9.98957 0)
(19.1988 -19.9323 0)
(20.7639 -22.5482 4.62769e-21)
(20.0462 -22.6223 -1.47304e-20)
(19.346 -22.555 0)
(18.6226 -22.567 -2.93681e-19)
(17.9915 -22.5287 2.88541e-19)
(17.3393 -22.4902 0)
(16.7541 -22.4846 -8.40181e-19)
(16.2131 -22.4914 8.26184e-19)
(15.6742 -22.4983 0)
(15.1898 -22.5061 1.01501e-18)
(14.7105 -22.5337 -5.2701e-20)
(14.2541 -22.5377 -1.04402e-18)
(13.7877 -22.53 0)
(13.3326 -22.4923 0)
(12.8751 -22.5006 0)
(12.4683 -22.5103 1.09134e-18)
(12.0629 -22.5078 -1.21093e-18)
(11.7702 -22.3037 0)
(0.59771 -32.4271 0)
(0.702812 -30.0863 0)
(0.132959 -29.28 5.26391e-22)
(0.226312 -28.1663 1.35572e-21)
(-0.00617024 -27.3492 0)
(0.0475558 -26.4805 2.18227e-22)
(0.0482739 -25.9768 -2.91644e-21)
(0.0373026 -25.4499 0)
(0.0481509 -25.1035 -3.85865e-21)
(0.0562926 -24.7702 0)
(0.0593959 -24.5804 4.34445e-21)
(0.0896848 -24.3462 2.30267e-21)
(0.0641369 -24.1894 -2.31488e-21)
(0.180147 -23.9321 -4.85672e-21)
(0.11202 -23.8105 0)
(0.258332 -23.5936 1.27707e-21)
(0.14038 -22.9837 -6.44821e-21)
(0.239767 -20.7056 0)
(0.133408 -15.3491 0)
(0.0736583 -6.15742 -3.00635e-21)
(1.43201 -32.3089 1.35349e-20)
(1.3527 -30.082 0)
(0.644458 -29.2934 -4.42172e-21)
(0.606519 -28.2075 2.55866e-21)
(0.318978 -27.3837 0)
(0.298936 -26.5314 1.39992e-20)
(0.255936 -26.009 -5.90206e-21)
(0.202058 -25.4731 0)
(0.181019 -25.1198 -4.13491e-21)
(0.158911 -24.7832 8.0365e-21)
(0.141796 -24.5883 -1.32341e-20)
(0.149661 -24.3516 1.81701e-20)
(0.102268 -24.2027 -1.40486e-20)
(0.206313 -23.9463 4.75304e-21)
(0.133375 -23.8202 4.9214e-21)
(0.28269 -23.6014 -5.11171e-21)
(0.153966 -22.9842 1.03011e-20)
(0.274358 -20.6988 1.31093e-20)
(0.144294 -15.3221 3.83381e-21)
(0.0805546 -6.13229 6.64242e-21)
(2.05847 -32.0808 -1.51481e-20)
(1.79955 -29.8697 -8.19925e-21)
(0.976516 -29.1129 2.84233e-21)
(0.858183 -28.0833 0)
(0.517463 -27.2973 0)
(0.453659 -26.4757 -1.73457e-20)
(0.38145 -25.9674 -1.6283e-21)
(0.296967 -25.4402 -1.27704e-21)
(0.258699 -25.0986 -1.07482e-21)
(0.225645 -24.7696 1.61615e-20)
(0.198364 -24.5794 0)
(0.195565 -24.3448 0)
(0.140415 -24.2046 0)
(0.23483 -23.9489 1.94973e-20)
(0.153656 -23.829 0)
(0.307774 -23.6057 2.03725e-20)
(0.170643 -22.9881 -2.06639e-20)
(0.312492 -20.718 -7.84458e-21)
(0.15476 -15.3128 -6.07235e-21)
(0.0889583 -6.10343 -2.12399e-20)
(2.88317 -31.874 9.16974e-21)
(2.41384 -29.7989 -1.31776e-20)
(1.47876 -29.0882 3.00091e-21)
(1.23404 -28.0903 -9.16192e-21)
(0.842653 -27.3158 0)
(0.698671 -26.5096 -2.41582e-20)
(0.579585 -25.9859 6.48686e-20)
(0.45673 -25.4523 -4.26695e-20)
(0.387575 -25.107 3.08795e-20)
(0.322107 -24.7756 -1.71244e-20)
(0.273812 -24.5803 -3.94589e-22)
(0.25461 -24.3429 1.85867e-20)
(0.181374 -24.2122 -1.86694e-20)
(0.263417 -23.9593 -9.67513e-21)
(0.175028 -23.8383 -9.8705e-21)
(0.333911 -23.616 -2.03602e-20)
(0.186932 -22.9974 2.58382e-20)
(0.352851 -20.7217 -1.04671e-20)
(0.158811 -15.2938 3.15186e-21)
(0.0983157 -6.0784 1.26956e-20)
(3.46062 -31.5623 4.36527e-20)
(2.84931 -29.5219 1.72133e-21)
(1.79281 -28.8579 9.43387e-21)
(1.47938 -27.9401 -1.65197e-20)
(1.04198 -27.2097 0)
(0.850221 -26.4354 1.14998e-20)
(0.702942 -25.9335 -1.3146e-20)
(0.551906 -25.4108 0)
(0.466076 -25.0768 1.10586e-22)
(0.389548 -24.7548 0)
(0.33291 -24.5666 3.53162e-20)
(0.304367 -24.3321 0)
(0.222489 -24.2087 0)
(0.292537 -23.9593 3.92492e-20)
(0.197339 -23.8464 -1.97686e-20)
(0.360627 -23.6214 2.04121e-20)
(0.198989 -23.0097 0)
(0.388317 -20.7469 -5.25431e-21)
(0.156601 -15.2854 2.98329e-21)
(0.115699 -6.05079 0)
(4.24131 -31.2585 9.82196e-21)
(3.4172 -29.3952 -9.6942e-22)
(2.28889 -28.7939 -2.61996e-20)
(1.85284 -27.9168 2.81834e-20)
(1.362 -27.2106 -1.97088e-20)
(1.08493 -26.451 -1.15356e-20)
(0.897733 -25.9387 2.70188e-20)
(0.705105 -25.4124 2.98206e-20)
(0.59165 -25.0769 -1.59112e-20)
(0.485424 -24.7543 -3.47e-20)
(0.404108 -24.5618 1.71234e-20)
(0.359892 -24.3239 0)
(0.262369 -24.2104 0)
(0.321006 -23.9648 -2.06561e-23)
(0.21941 -23.8563 1.97913e-20)
(0.385916 -23.6337 -2.03924e-20)
(0.210781 -23.0263 0)
(0.425797 -20.7591 4.19065e-20)
(0.152964 -15.2752 2.22001e-20)
(0.133625 -6.02721 2.57645e-21)
(4.79067 -30.8611 -1.90066e-20)
(3.82677 -29.0572 1.01222e-20)
(2.58527 -28.5232 8.51069e-21)
(2.09235 -27.7388 0)
(1.55859 -27.0817 1.97926e-20)
(1.23384 -26.3592 -5.10056e-20)
(1.01799 -25.8769 2.40822e-20)
(0.802464 -25.363 -2.99047e-20)
(0.672015 -25.0397 0)
(0.554096 -24.7261 0)
(0.464703 -24.5421 -3.64413e-20)
(0.409296 -24.3091 3.65722e-20)
(0.301182 -24.2018 0)
(0.346553 -23.9624 -5.89504e-20)
(0.243498 -23.8635 1.98175e-20)
(0.410213 -23.6339 1.61857e-20)
(0.224383 -23.0471 -2.05594e-20)
(0.457876 -20.7912 -5.20389e-20)
(0.14917 -15.2716 -9.47098e-21)
(0.153567 -6.00306 -3.89198e-21)
(5.51842 -30.4836 0)
(4.35539 -28.8745 1.12997e-20)
(3.07062 -28.4215 -1.13403e-20)
(2.45423 -27.6873 0)
(1.86871 -27.0629 0)
(1.46065 -26.3556 5.21099e-20)
(1.20987 -25.869 -5.22692e-20)
(0.948403 -25.3552 0)
(0.794009 -25.0311 -3.35629e-20)
(0.648045 -24.7192 6.89244e-20)
(0.533405 -24.5317 -3.53667e-20)
(0.460703 -24.294 -3.78613e-20)
(0.338671 -24.197 3.79411e-20)
(0.371825 -23.9644 0)
(0.265238 -23.8722 0)
(0.42339 -23.6406 1.23379e-20)
(0.239374 -23.0674 -2.15029e-20)
(0.491902 -20.8077 -6.99257e-23)
(0.141077 -15.2705 5.42087e-21)
(0.173294 -5.97967 -4.88126e-21)
(6.0166 -30.0059 1.52549e-21)
(4.72946 -28.4831 -1.5267e-21)
(3.35921 -28.114 3.94848e-20)
(2.68945 -27.4794 -6.52148e-20)
(2.05944 -26.9114 8.42361e-20)
(1.60885 -26.2487 6.65747e-21)
(1.3318 -25.7981 -5.34146e-20)
(1.04846 -25.2984 0)
(0.87582 -24.9882 0)
(0.719146 -24.6837 -3.50796e-20)
(0.592264 -24.5052 0)
(0.509175 -24.2746 0)
(0.376311 -24.1831 0)
(0.399165 -23.9595 0)
(0.292105 -23.8736 0)
(0.43171 -23.6498 0)
(0.240704 -23.0943 1.1563e-20)
(0.509264 -20.8404 -1.27982e-20)
(0.130438 -15.2748 4.75975e-21)
(0.193783 -5.95866 -5.06764e-21)
(6.68633 -29.5627 -3.69751e-20)
(5.21496 -28.2504 8.20716e-21)
(3.82292 -27.9787 1.77841e-20)
(3.03039 -27.3979 2.72672e-20)
(2.36087 -26.8708 -1.41606e-20)
(1.83001 -26.2271 -7.42052e-20)
(1.51665 -25.777 -2.90749e-20)
(1.18902 -25.281 0)
(0.99274 -24.9712 3.50996e-20)
(0.809374 -24.67 -6.90724e-20)
(0.6599 -24.4888 -3.67269e-20)
(0.557123 -24.2535 -3.8068e-20)
(0.412859 -24.1727 0)
(0.421542 -23.958 -3.70796e-20)
(0.312696 -23.8766 -3.42932e-20)