/*--------------------------------*- C++ -*----------------------------------*\
  =========                 |
  \\      /  F ield         | OpenFOAM: The Open Source CFD Toolbox
   \\    /   O peration     | Website:  https://openfoam.org
    \\  /    A nd           | Version:  9
     \\/     M anipulation  |
\*---------------------------------------------------------------------------*/
FoamFile
{
    format      ascii;
    class       volVectorField;
    location    "7.5";
    object      U;
}
// * * * * * * * * * * * * * * * * * * * * * * * * * * * * * * * * * * * * * //

dimensions      [0 1 -1 0 0 0 0];

internalField   nonuniform List<vector> 
46400
(
(7.3755 -7.08639 6.35933e-19)
(14.6865 -14.1702 -7.75304e-19)
(15.5614 -15.701 -4.15117e-20)
(14.9051 -15.8003 -2.34924e-19)
(14.3856 -15.8477 -3.05748e-20)
(13.8576 -15.9751 1.36132e-18)
(13.3925 -16.066 -7.8364e-19)
(12.9051 -16.1197 2.10724e-19)
(12.4622 -16.2041 -2.11634e-19)
(12.0605 -16.2889 2.12067e-19)
(11.6637 -16.3886 -2.1206e-19)
(11.2786 -16.4377 0)
(10.9268 -16.541 1.42605e-18)
(10.6127 -16.6359 -1.61151e-18)
(10.2865 -16.7092 -1.83417e-18)
(10.0012 -16.7983 -2.24828e-19)
(9.69792 -16.8659 -1.6591e-20)
(9.41147 -16.8785 1.38081e-18)
(9.14681 -16.8721 1.77523e-18)
(8.73763 -17.0037 -1.63765e-18)
(7.60337 -6.67947 0)
(14.68 -13.2405 -2.26438e-20)
(15.3471 -14.4604 0)
(14.7188 -14.6474 1.06197e-18)
(14.2029 -14.7526 -8.46291e-19)
(13.6668 -14.8894 2.06953e-19)
(13.1909 -15.0215 0)
(12.6872 -15.0963 -2.10706e-19)
(12.2165 -15.1955 2.11615e-19)
(11.7969 -15.3007 -2.12053e-19)
(11.4109 -15.4438 1.98762e-18)
(11.0576 -15.5684 2.15403e-20)
(10.6909 -15.6883 -1.52923e-18)
(10.3557 -15.796 0)
(10.0176 -15.9131 2.09061e-19)
(9.71035 -16.0073 2.07828e-19)
(9.41296 -16.1458 0)
(9.13527 -16.207 -1.70443e-18)
(8.91044 -16.3415 -4.17838e-19)
(8.58777 -16.5701 1.74747e-18)
(7.74274 -6.2804 5.87321e-19)
(14.562 -12.2376 -8.31371e-19)
(15.0209 -13.2657 9.04565e-19)
(14.3542 -13.435 9.5381e-19)
(13.8227 -13.5809 -9.36431e-19)
(13.3097 -13.7777 0)
(12.8535 -13.9704 -2.17977e-18)
(12.3866 -14.0921 1.89727e-18)
(11.9368 -14.238 -2.16957e-18)
(11.5408 -14.3706 2.13614e-18)
(11.1494 -14.5382 1.9006e-18)
(10.7772 -14.6427 -2.25838e-19)
(10.4313 -14.8017 -1.61634e-18)
(10.124 -14.9247 0)
(9.81082 -15.0619 1.83678e-18)
(9.52412 -15.17 -1.80892e-18)
(9.24318 -15.2997 0)
(8.956 -15.3388 -1.11083e-20)
(8.69485 -15.3935 2.12324e-19)
(8.36174 -15.6587 -1.83817e-18)
(7.8492 -5.86624 -6.99485e-19)
(14.2807 -11.0824 2.22084e-19)
(14.6147 -12.0641 1.03127e-18)
(13.9878 -12.2883 -1.01958e-18)
(13.4514 -12.4653 -7.77382e-19)
(12.9238 -12.6671 1.02866e-18)
(12.4856 -12.9347 1.29296e-18)
(12.0137 -13.1005 -3.10328e-18)
(11.5331 -13.2625 2.55517e-18)
(11.1066 -13.4065 -2.46335e-19)
(10.7307 -13.6199 0)
(10.3954 -13.8098 2.4266e-19)
(10.0378 -13.9879 -2.40476e-19)
(9.72561 -14.1669 0)
(9.40799 -14.3306 1.94135e-18)
(9.12119 -14.4948 -1.66672e-18)
(8.87768 -14.7221 0)
(8.63973 -14.8919 2.27621e-19)
(8.37602 -14.9657 2.34548e-19)
(8.01647 -15.2013 1.94265e-18)
(7.99771 -5.4149 0)
(13.9156 -9.94847 0)
(14.127 -10.8319 -1.12592e-18)
(13.4929 -11.1027 8.19032e-19)
(12.9489 -11.3523 -1.40074e-18)
(12.4171 -11.5749 1.11062e-18)
(11.9667 -11.8704 0)
(11.5626 -12.1082 1.10868e-18)
(11.1316 -12.3392 -1.35509e-18)
(10.7352 -12.5115 -2.78932e-19)
(10.3362 -12.7237 -2.75504e-19)
(9.98271 -12.9022 0)
(9.63716 -13.1127 2.09343e-18)
(9.34197 -13.3073 -2.06071e-18)
(9.03528 -13.5055 0)
(8.71134 -13.6023 -2.25338e-18)
(8.42057 -13.7688 1.97824e-18)
(8.21292 -13.9587 1.95135e-18)
(8.01633 -14.1482 -2.15777e-18)
(7.69324 -14.398 0)
(8.19936 -4.98227 0)
(13.3796 -8.83064 0)
(13.46 -9.62531 0)
(12.8191 -9.93083 -2.20649e-20)
(12.3002 -10.2453 0)
(11.7916 -10.5049 0)
(11.3649 -10.8717 0)
(10.9597 -11.1512 -3.02207e-19)
(10.5187 -11.4269 0)
(10.1077 -11.6177 2.78914e-19)
(9.73445 -11.8693 -1.44155e-20)
(9.41876 -12.1012 -2.52038e-18)
(9.07444 -12.3258 1.91809e-18)
(8.78151 -12.5536 -2.44376e-18)
(8.54738 -12.8586 1.85768e-18)
(8.3046 -13.1072 0)
(8.02227 -13.3019 -2.06413e-18)
(7.76385 -13.4692 1.77453e-18)
(7.56437 -13.6722 0)
(7.27397 -13.9821 -2.70626e-19)
(8.45552 -4.58683 1.2272e-18)
(12.7746 -7.7939 3.38422e-19)
(12.6751 -8.46513 1.31596e-18)
(12.183 -8.87261 -1.31377e-18)
(11.6553 -9.25349 -1.2922e-18)
(11.1431 -9.50352 2.54615e-18)
(10.6893 -9.85664 -2.83809e-18)
(10.3563 -10.1971 2.98074e-19)
(10.0069 -10.5542 9.08335e-19)
(9.65925 -10.8146 0)
(9.26379 -11.0517 -1.34518e-20)
(8.93731 -11.2776 -1.26635e-20)
(8.60139 -11.4942 2.81186e-19)
(8.25728 -11.6405 2.24766e-18)
(7.9435 -11.8372 -1.94772e-18)
(7.69884 -12.0719 -2.46118e-18)
(7.46082 -12.328 2.15067e-18)
(7.2258 -12.5317 -9.08535e-21)
(7.0151 -12.7383 -2.63457e-19)
(6.75172 -13.0967 -1.9282e-18)
(8.56083 -4.29984 -3.27592e-19)
(11.9119 -6.75091 2.18217e-20)
(11.6529 -7.45889 -3.59089e-19)
(11.1412 -7.82717 -1.40662e-18)
(10.7122 -8.31927 1.0126e-18)
(10.2725 -8.64611 0)
(9.83932 -9.0297 1.98978e-18)
(9.47504 -9.35983 -9.71596e-19)
(9.11311 -9.73924 6.41002e-19)
(8.7976 -10.0466 3.21713e-19)
(8.48036 -10.3633 -6.19941e-19)
(8.2212 -10.6623 1.51741e-18)
(7.9787 -10.9885 3.04244e-19)
(7.73172 -11.2347 -1.75749e-18)
(7.46785 -11.4499 4.90118e-18)
(7.21224 -11.6264 -1.98742e-18)
(6.98987 -11.845 2.49674e-18)
(6.77265 -12.0122 -1.63767e-18)
(6.57505 -12.195 5.34708e-19)
(6.36507 -12.4467 2.55913e-18)
(8.48442 -3.9574 1.66458e-18)
(11.0256 -5.81888 -3.61216e-19)
(10.7058 -6.45425 -1.84932e-20)
(10.4145 -6.94972 7.26697e-19)
(9.96211 -7.42491 3.49744e-19)
(9.5525 -7.77255 3.59685e-19)
(9.13265 -8.16814 -1.72348e-18)
(8.81418 -8.51683 1.02733e-18)
(8.52174 -8.93243 -3.27539e-19)
(8.25209 -9.29721 -3.21714e-19)
(7.89239 -9.5869 -3.15894e-19)
(7.56401 -9.83552 -3.20733e-19)
(7.29226 -10.1388 -6.18557e-19)
(7.05658 -10.4403 2.12448e-18)
(6.82019 -10.7339 -2.98028e-18)
(6.5885 -10.9841 -2.95731e-19)
(6.37416 -11.2507 8.06445e-21)
(6.17271 -11.4794 -2.23043e-18)
(5.97571 -11.6962 1.65584e-18)
(5.76264 -11.9906 -2.62906e-18)
(8.13737 -3.54064 1.42852e-18)
(9.95092 -4.98751 -3.51784e-18)
(9.53817 -5.6413 2.31552e-18)
(9.10869 -6.06605 -3.71951e-19)
(8.80974 -6.68297 -3.80283e-19)
(8.45959 -7.08135 1.48169e-18)
(8.08733 -7.51992 -1.80856e-18)
(7.75084 -7.86589 0)
(7.39482 -8.23217 1.38379e-18)
(7.19689 -8.651 -1.3606e-18)
(7.00395 -9.10105 -9.90498e-19)
(6.76593 -9.43613 1.29688e-18)
(6.49724 -9.75064 3.14338e-19)
(6.26945 -10.0322 -1.24682e-18)
(6.06972 -10.3515 3.08686e-19)
(5.85642 -10.5971 1.49805e-18)
(5.66411 -10.8699 -2.63067e-18)
(5.49335 -11.1029 1.73158e-18)
(5.32016 -11.3305 -6.57628e-21)
(5.13606 -11.6061 -2.40191e-18)
(7.59875 -3.07106 1.88045e-18)
(8.93603 -4.17168 -1.21925e-18)
(8.53897 -4.80027 8.02321e-19)
(8.32751 -5.29561 4.88935e-22)
(7.97125 -5.83246 -1.5588e-18)
(7.71686 -6.31948 -1.50309e-18)
(7.37781 -6.78351 1.85441e-18)
(7.12723 -7.19583 -1.08482e-18)
(6.81151 -7.56542 1.42953e-18)
(6.47211 -7.84603 0)
(6.20648 -8.20994 8.66807e-21)
(6.00404 -8.56761 3.30313e-19)
(5.81479 -8.95333 3.31142e-19)
(5.58524 -9.25081 -3.23924e-19)
(5.40665 -9.6051 0)
(5.23503 -9.91884 3.09983e-19)
(5.0491 -10.2288 0)
(4.88777 -10.5147 5.87549e-19)
(4.7261 -10.7842 2.86969e-18)
(4.54563 -11.1085 -1.99349e-20)
(6.82974 -2.58319 9.87428e-19)
(7.74924 -3.5167 -2.08961e-19)
(7.26755 -4.13427 -2.90985e-18)
(6.93066 -4.60246 1.6284e-18)
(6.64101 -5.21381 3.92766e-19)
(6.36068 -5.65136 -3.84892e-19)
(6.1107 -6.21553 -1.52663e-18)
(5.89658 -6.68606 1.13117e-18)
(5.69902 -7.20086 0)
(5.52361 -7.61926 0)
(5.29157 -8.00322 -1.74211e-18)
(5.0539 -8.31362 1.37356e-18)
(4.868 -8.67064 -3.312e-19)
(4.68746 -8.97674 -9.80441e-19)
(4.49072 -9.26782 8.96388e-21)
(4.34173 -9.56739 2.19293e-18)
(4.18516 -9.85057 -1.22836e-18)
(4.05569 -10.128 8.96115e-19)
(3.92669 -10.3852 -1.46593e-18)
(3.79811 -10.6904 0)
(5.89574 -2.06767 -8.20965e-19)
(6.69206 -2.88869 1.29117e-18)
(6.29085 -3.57234 2.14802e-19)
(6.06723 -4.02413 2.10346e-19)
(5.84132 -4.62932 0)
(5.58767 -5.08493 1.59274e-18)
(5.24355 -5.49589 -1.56476e-18)
(5.02577 -5.95267 1.92514e-19)
(4.80363 -6.38632 0)
(4.60321 -6.84097 1.45569e-18)
(4.4746 -7.30288 -1.25218e-18)
(4.30371 -7.71773 1.39024e-18)
(4.14346 -8.10376 -1.36818e-18)
(3.99748 -8.49058 1.32739e-18)
(3.84362 -8.83093 -1.14331e-18)
(3.69516 -9.16327 -1.26751e-18)
(3.55467 -9.47524 2.48736e-18)
(3.42087 -9.77429 -1.06776e-18)
(3.29536 -10.0491 1.49339e-19)
(3.16168 -10.3645 1.26999e-18)
(4.76432 -1.58604 -6.46789e-19)
(5.15578 -2.43583 6.66862e-19)
(4.80524 -3.10269 -2.1473e-19)
(4.57353 -3.71163 -2.10257e-19)
(4.28218 -4.32961 0)
(4.23505 -4.95526 0)
(4.01404 -5.45008 0)
(3.81887 -5.90282 -3.87834e-19)
(3.63882 -6.33011 -1.51197e-18)
(3.44837 -6.71177 2.9633e-18)
(3.29855 -7.1046 -1.63193e-18)
(3.16093 -7.49046 -1.77622e-19)
(3.02892 -7.85459 0)
(2.91212 -8.21685 0)
(2.80339 -8.56107 -3.29097e-19)
(2.69703 -8.89489 0)
(2.59141 -9.21082 1.25193e-18)
(2.49819 -9.51692 -1.5404e-18)
(2.40861 -9.79752 -1.34464e-18)
(2.31277 -10.1171 1.29691e-18)
(3.44727 -1.08986 6.68476e-19)
(4.02365 -1.84237 1.11741e-18)
(3.79845 -2.41598 -1.672e-21)
(3.53211 -2.91245 -2.56503e-21)
(3.37199 -3.45994 2.08007e-19)
(3.25602 -4.07177 -6.18016e-19)
(3.12635 -4.67535 0)
(2.98128 -5.20173 -5.87849e-19)
(2.86761 -5.75053 1.97518e-19)
(2.71005 -6.20426 7.51942e-19)
(2.57974 -6.6693 7.28742e-19)
(2.4464 -7.07539 -5.39414e-19)
(2.32923 -7.48967 1.38879e-18)
(2.2165 -7.86024 -1.19661e-18)
(2.10985 -8.23486 1.48898e-18)
(2.01191 -8.57574 -2.75833e-18)
(1.91745 -8.91878 1.27304e-18)
(1.82546 -9.22827 1.5415e-19)
(1.73976 -9.52778 1.20387e-18)
(1.65373 -9.84896 -1.30692e-18)
(2.28308 -0.647762 2.28135e-19)
(2.71777 -1.54562 -1.76484e-19)
(2.51609 -2.26386 8.8567e-19)
(2.2983 -2.87783 -8.69547e-19)
(1.87826 -3.36075 -4.23615e-19)
(1.70532 -3.88383 -1.03265e-18)
(1.62332 -4.45232 5.0376e-21)
(1.49808 -4.94672 7.92665e-19)
(1.42779 -5.48527 -1.92328e-19)
(1.35218 -5.95511 0)
(1.28336 -6.43669 0)
(1.21656 -6.86223 0)
(1.1454 -7.28726 0)
(1.07978 -7.67525 3.65629e-22)
(1.02306 -8.05683 0)
(0.960669 -8.41149 1.62487e-19)
(0.908425 -8.75728 6.32763e-19)
(0.853507 -9.08157 -1.85953e-18)
(0.808777 -9.38124 1.36966e-18)
(0.749112 -9.70311 -1.2994e-18)
(0.99341 -0.377574 0)
(1.11246 -1.00643 -1.13506e-19)
(0.982668 -1.92712 0)
(1.04831 -2.64322 3.25479e-19)
(1.01458 -3.32877 -2.13989e-19)
(0.813994 -3.81678 -8.28182e-19)
(0.72842 -4.37119 5.26043e-21)
(0.60997 -4.84195 7.94456e-19)
(0.544633 -5.33792 -7.69801e-19)
(0.471333 -5.79045 1.50802e-18)
(0.416879 -6.24633 -5.96257e-21)
(0.375683 -6.67667 -7.20934e-19)
(0.318109 -7.09169 6.97528e-19)
(0.285401 -7.48893 -8.5745e-19)
(0.230564 -7.87025 0)
(0.20379 -8.23559 -6.4822e-19)
(0.157167 -8.58816 6.38541e-19)
(0.130342 -8.92105 0)
(0.0932354 -9.23033 -1.51578e-19)
(0.0639503 -9.55997 0)
(0.246489 -0.531264 5.56624e-20)
(-0.508163 -0.999286 1.03263e-19)
(-0.681243 -1.84887 0)
(-0.635499 -2.37333 4.33368e-19)
(-0.631873 -3.15349 -5.303e-19)
(-0.631458 -3.65634 3.09458e-19)
(-0.664593 -4.28524 -9.083e-19)
(-0.703906 -4.76941 3.95594e-19)
(-0.742815 -5.29296 -9.57697e-20)
(-0.760304 -5.7535 0)
(-0.795784 -6.20689 -9.11671e-20)
(-0.800841 -6.63829 -8.89421e-20)
(-0.821755 -7.05385 -8.67779e-20)
(-0.836301 -7.44585 0)
(-0.84387 -7.8285 -6.60749e-19)
(-0.856942 -8.18526 1.37617e-18)
(-0.856903 -8.54035 -1.18589e-18)
(-0.861469 -8.86775 6.20128e-19)
(-0.855943 -9.18139 7.50321e-20)
(-0.856781 -9.50907 6.46477e-19)
(-1.96336 -0.345633 -1.71012e-19)
(-1.83935 -1.25508 -2.24179e-19)
(-1.78398 -1.77122 7.33626e-22)
(-1.73791 -2.39822 5.90986e-19)
(-1.64075 -3.0194 -1.57114e-19)
(-1.6896 -3.59145 -1.01475e-19)
(-1.71649 -4.13746 1.01871e-19)
(-1.70167 -4.66699 1.96133e-19)
(-1.7161 -5.1716 9.57649e-20)
(-1.69555 -5.65493 -3.70714e-19)
(-1.69258 -6.12159 4.10716e-19)
(-1.69503 -6.5659 8.89345e-20)
(-1.67397 -6.99563 4.30899e-19)
(-1.67018 -7.4037 -3.0169e-21)
(-1.65043 -7.7938 3.78535e-20)
(-1.64232 -8.16959 -7.22875e-19)
(-1.6253 -8.52264 1.97284e-19)
(-1.615 -8.86965 0)
(-1.59938 -9.17769 -3.7943e-20)
(-1.58598 -9.52001 -3.20698e-19)
(-3.36972 -0.177353 5.60645e-20)
(-3.31385 -0.886586 -1.10234e-19)
(-3.06099 -1.54007 2.1614e-19)
(-3.19026 -2.17584 -5.36707e-20)
(-3.17345 -2.87713 -5.15265e-20)
(-3.05476 -3.49398 0)
(-3.03636 -4.12185 -9.83391e-20)
(-3.01907 -4.6683 1.92625e-19)
(-2.993 -5.21678 -9.4351e-20)
(-2.95485 -5.705 9.13548e-20)
(-2.94289 -6.20966 -4.47916e-20)
(-2.88816 -6.64603 -8.69368e-20)
(-2.85898 -7.08824 1.70368e-19)
(-2.80421 -7.49099 -1.66229e-19)
(-2.76843 -7.88241 4.06278e-20)
(-2.70756 -8.25189 2.78719e-34)
(-2.66968 -8.60822 -3.79932e-20)
(-2.61021 -8.94551 2.2591e-19)
(-2.56692 -9.25844 -1.11768e-19)
(-2.51478 -9.59148 -7.99119e-20)
(-0.311516 1.94195 -6.92513e-21)
(0.0932432 1.61198 -3.48699e-21)
(0.615113 -0.972778 0)
(2.63395 -7.27454 -3.35355e-21)
(5.81585 -16.5208 -3.28489e-21)
(7.86006 -22.8247 -3.39844e-21)
(8.73965 -25.7638 0)
(8.98371 -26.7359 -3.61189e-21)
(8.98703 -27.0904 0)
(8.93129 -27.0756 0)
(8.78575 -27.0211 4.13538e-21)
(8.68054 -26.9634 4.86837e-22)
(8.59346 -26.9798 -8.84801e-21)
(8.49462 -26.9213 0)
(8.38159 -26.9006 -5.09326e-21)
(8.31012 -26.9134 -5.24126e-21)
(8.20954 -26.9514 -5.38437e-21)
(8.11539 -26.8878 0)
(8.00825 -26.8916 1.09749e-20)
(7.93726 -26.9015 -1.0126e-20)
(-0.251175 1.76397 -1.09809e-20)
(0.38408 0.43992 1.77765e-20)
(1.40277 -3.66743 0)
(4.63261 -12.8501 1.73295e-20)
(7.35318 -20.7551 -1.74335e-20)
(8.71894 -24.9397 3.22364e-20)
(9.13805 -26.3461 -1.37758e-20)
(9.15699 -26.821 -1.15075e-20)
(9.1181 -26.835 5.39204e-20)
(8.99375 -26.8149 -3.32134e-20)
(8.88733 -26.7694 4.41506e-21)
(8.80502 -26.7478 -3.96466e-20)
(8.67377 -26.6914 -2.00732e-21)
(8.59642 -26.6589 4.0009e-20)
(8.48933 -26.716 5.04786e-21)
(8.42511 -26.6967 5.20537e-21)
(8.29155 -26.6354 5.34821e-21)
(8.21217 -26.6032 0)
(8.11642 -26.6837 4.65783e-20)
(8.04171 -26.6407 1.50694e-21)
(0.0471073 1.57573 4.42261e-21)
(0.544844 -1.14715 0)
(2.78793 -7.73154 0)
(6.37893 -17.549 7.59721e-21)
(8.40472 -23.5231 -7.40086e-21)
(9.15476 -25.8228 0)
(9.2877 -26.5084 8.21621e-21)
(9.2856 -26.6177 -2.68564e-20)
(9.19125 -26.6487 2.64934e-20)
(9.08906 -26.5827 -3.99021e-20)
(8.98909 -26.5384 4.96983e-20)
(8.87871 -26.4682 0)
(8.78539 -26.4642 4.45698e-20)
(8.70165 -26.4485 4.80917e-20)
(8.59083 -26.4428 -7.85199e-20)
(8.51833 -26.3953 9.69527e-20)
(8.3895 -26.4186 -8.28554e-20)
(8.32884 -26.3884 0)
(8.18914 -26.3985 1.14861e-19)
(8.09748 -26.2673 -1.96821e-19)
(0.376322 0.50489 -2.70036e-20)
(0.995215 -3.20728 0)
(4.45663 -12.3472 0)
(7.55562 -20.8703 -2.43721e-20)
(9.00834 -24.9032 4.63093e-20)
(9.37869 -26.1866 -1.63077e-20)
(9.46395 -26.4594 -8.25252e-21)
(9.39287 -26.4969 -9.74013e-20)
(9.31318 -26.4164 1.52521e-19)
(9.19628 -26.344 2.64718e-20)
(9.09822 -26.2795 -9.44515e-20)
(9.01461 -26.2602 -2.32513e-20)
(8.90419 -26.2194 1.20047e-19)
(8.82432 -26.1831 -1.1942e-19)
(8.71549 -26.2189 -3.78316e-20)
(8.64378 -26.185 2.65333e-20)
(8.49286 -26.1173 -3.98304e-20)
(8.42149 -26.0572 0)
(8.28369 -26.081 1.49577e-20)
(8.2003 -25.9579 0)
(0.282596 -0.408939 0)
(1.72872 -5.42342 -5.31077e-20)
(5.85105 -16.1331 6.66196e-20)
(8.44436 -23.1183 -7.418e-20)
(9.39659 -25.6991 5.65191e-20)
(9.63602 -26.3389 1.58131e-20)
(9.5932 -26.3702 0)
(9.54515 -26.2941 -5.84867e-20)
(9.41721 -26.1874 7.91426e-20)
(9.34099 -26.1212 -1.11346e-19)
(9.25187 -26.0793 8.86161e-20)
(9.14311 -26.001 2.32512e-20)
(9.04955 -25.97 -1.26657e-19)
(8.95712 -25.9597 2.31961e-19)
(8.84443 -25.9302 -1.60321e-19)
(8.74945 -25.8365 5.26119e-20)
(8.6109 -25.8393 1.4239e-19)
(8.55694 -25.8218 -3.44052e-19)
(8.39222 -25.8036 1.98295e-19)
(8.28953 -25.5802 2.6368e-19)
(0.286481 -1.38829 -4.16497e-20)
(2.91545 -8.50607 -4.25868e-20)
(7.11958 -18.9626 4.20322e-20)
(9.21518 -24.4545 1.12602e-20)
(9.80423 -26.0417 -1.4721e-20)
(9.87072 -26.2429 -6.63056e-20)
(9.84097 -26.2119 6.38594e-20)
(9.7219 -26.0863 0)
(9.64646 -25.9904 -8.89486e-20)
(9.5365 -25.9131 8.74542e-20)
(9.43275 -25.8111 9.98293e-20)
(9.33227 -25.7622 -9.82093e-20)
(9.22454 -25.7133 0)
(9.12868 -25.6607 0)
(9.01811 -25.6618 -2.61293e-19)
(8.92955 -25.614 2.58579e-19)
(8.77133 -25.5527 2.46414e-19)
(8.70339 -25.4654 -2.41676e-19)
(8.51057 -25.4247 2.55683e-19)
(8.4299 -25.2224 -3.10239e-19)
(0.490442 -2.40217 2.18383e-20)
(4.07455 -11.1738 -2.76428e-22)
(8.14074 -21.1093 7.62171e-21)
(9.8545 -25.3094 -4.6558e-20)
(10.1749 -26.1548 0)
(10.1863 -26.1793 0)
(10.0884 -26.046 -1.48131e-19)
(9.9777 -25.8674 -1.93711e-20)
(9.85905 -25.7485 1.67052e-19)
(9.75553 -25.6393 -1.98665e-19)
(9.64864 -25.5721 1.95386e-19)
(9.52834 -25.4771 0)
(9.42359 -25.4291 -2.32452e-19)
(9.31158 -25.4095 2.28785e-19)
(9.18682 -25.3478 0)
(9.05829 -25.2313 0)
(8.91615 -25.2161 0)
(8.84841 -25.1816 0)
(8.64939 -25.1231 0)
(8.56704 -24.8897 3.27726e-20)
(0.791375 -3.34563 -4.98867e-22)
(5.37326 -13.5849 7.5672e-21)
(9.14642 -22.6024 0)
(10.4887 -25.6846 0)
(10.6044 -26.0636 -1.17446e-19)
(10.5486 -25.9687 -4.13096e-20)
(10.4005 -25.7542 1.49812e-19)
(10.2765 -25.6039 0)
(10.1674 -25.486 -2.38171e-20)
(10.0339 -25.3823 2.60301e-20)
(9.90417 -25.2588 0)
(9.77522 -25.1867 -2.9743e-20)
(9.64306 -25.1134 2.79753e-19)
(9.51811 -25.0358 -5.35782e-19)
(9.39197 -25.0118 -1.30444e-20)
(9.27788 -24.9605 2.63494e-19)
(9.11475 -24.8968 3.58973e-20)
(9.02875 -24.8033 -3.67645e-20)
(8.80282 -24.7285 0)
(8.73592 -24.5245 -3.779e-20)
(1.28603 -4.27983 1.78909e-21)
(6.70992 -15.2328 -1.03301e-20)
(10.1125 -23.5232 -3.11166e-21)
(11.1011 -25.7438 -1.4751e-20)
(11.0956 -25.8615 -1.21328e-20)
(10.9661 -25.681 -1.52813e-19)
(10.7953 -25.4881 2.43501e-19)
(10.643 -25.307 -2.07902e-19)
(10.4796 -25.1548 2.31585e-19)
(10.327 -25.0201 -2.86559e-19)
(10.1796 -24.9242 -6.05329e-20)
(10.0253 -24.811 -2.89719e-19)
(9.89471 -24.7564 1.52132e-19)
(9.75608 -24.7328 3.81449e-19)
(9.60845 -24.6488 -3.47011e-19)
(9.44704 -24.5279 0)
(9.29474 -24.5094 -1.1318e-19)
(9.19612 -24.4594 -4.23414e-20)
(8.97544 -24.389 8.03463e-20)
(8.89723 -24.1573 -4.35736e-20)
(2.13659 -5.42682 0)
(7.62033 -16.5301 1.47476e-20)
(11.0603 -24.0402 -6.80204e-22)
(11.6841 -25.5707 3.10917e-20)
(11.5776 -25.5306 5.01407e-20)
(11.3798 -25.292 3.21142e-20)
(11.1745 -25.0738 -4.3151e-21)
(10.9824 -24.8929 4.58021e-20)
(10.8174 -24.769 0)
(10.637 -24.6475 5.62315e-20)
(10.4669 -24.5261 6.05267e-20)
(10.2985 -24.4488 -5.94295e-21)
(10.1268 -24.355 -2.95987e-19)
(9.96048 -24.2649 1.38059e-19)
(9.80962 -24.2438 3.84209e-19)
(9.65788 -24.1867 -3.06324e-19)
(9.48315 -24.1118 -2.49731e-19)
(9.36442 -24.0386 4.01296e-19)
(9.13541 -23.9883 -8.03719e-20)
(9.05094 -23.7731 -6.06034e-19)
(2.56044 -6.1072 -2.12917e-20)
(8.6998 -17.3685 2.55477e-20)
(11.8883 -24.1514 6.60434e-20)
(12.2999 -25.189 -6.66389e-20)
(12.0839 -25.0648 -1.6193e-19)
(11.8555 -24.8287 1.34239e-19)
(11.616 -24.6376 2.95695e-19)
(11.397 -24.4656 2.97443e-20)
(11.176 -24.3058 -2.24056e-19)
(10.9658 -24.1787 2.02165e-19)
(10.7635 -24.0652 -5.54815e-19)
(10.5625 -23.9477 3.53946e-19)
(10.3905 -23.9016 7.37126e-20)
(10.2194 -23.8701 -2.51367e-19)
(10.0377 -23.782 6.60928e-19)
(9.84748 -23.6985 -3.32781e-19)
(9.68006 -23.6856 0)
(9.53771 -23.6261 7.18649e-19)
(9.29713 -23.5643 -7.07949e-19)
(9.20404 -23.3346 6.47792e-19)
(3.24668 -6.95187 4.73116e-21)
(9.65364 -18.0901 2.56277e-20)
(12.6768 -24.0332 -3.38802e-20)
(12.8418 -24.6831 -1.5204e-19)
(12.5543 -24.5081 7.99257e-20)
(12.2855 -24.2769 -2.50896e-19)
(11.9909 -24.0657 1.46957e-19)
(11.724 -23.8855 -2.58767e-19)
(11.4951 -23.7752 5.36598e-19)
(11.2551 -23.653 -2.08759e-19)
(11.0376 -23.5576 0)
(10.8215 -23.4868 0)
(10.603 -23.3928 0)
(10.3932 -23.3218 7.18786e-19)
(10.2095 -23.3124 -7.07673e-19)
(10.0088 -23.2436 0)
(9.81738 -23.1752 0)
(9.65676 -23.152 1.00212e-19)
(9.42032 -23.1355 0)
(9.30242 -22.908 9.01472e-19)
(3.75075 -7.3478 1.97694e-21)
(10.5885 -18.2527 2.79515e-20)
(13.3326 -23.6183 1.09263e-19)
(13.4158 -24.025 8.0001e-20)
(13.0267 -23.8358 -2.67366e-19)
(12.7308 -23.6223 1.05646e-20)
(12.4123 -23.4465 -3.54885e-20)
(12.1182 -23.3021 3.41554e-19)
(11.8398 -23.1655 0)
(11.5703 -23.0685 2.52556e-19)
(11.307 -22.9557 -4.26491e-19)
(11.0537 -22.8582 0)
(10.831 -22.8261 -7.69053e-19)
(10.6169 -22.7895 7.56984e-19)
(10.3962 -22.7325 -8.08076e-19)
(10.1834 -22.7055 1.51259e-18)
(9.98242 -22.6828 -8.10461e-19)
(9.79077 -22.6245 -1.00206e-19)
(9.53901 -22.595 1.09556e-19)
(9.42716 -22.3937 -8.73332e-19)
(4.37675 -7.76823 6.10654e-20)
(11.4791 -18.3772 3.63626e-20)
(13.9505 -23.0762 5.19067e-20)
(13.8745 -23.2612 -3.67625e-19)
(13.4419 -23.0877 -9.66369e-20)
(13.0988 -22.9062 3.19781e-19)
(12.7275 -22.7207 3.16457e-19)
(12.3795 -22.5647 -4.46374e-20)
(12.0883 -22.4832 -4.3107e-19)
(11.7894 -22.3874 5.70914e-19)
(11.5228 -22.3304 -2.85776e-19)
(11.2568 -22.2761 9.35127e-19)
(10.9916 -22.2056 -7.04833e-19)
(10.7425 -22.1721 8.70338e-19)
(10.5172 -22.1746 -7.42372e-19)
(10.2717 -22.1125 -7.92838e-19)
(10.0659 -22.0949 8.85371e-19)
(9.86664 -22.1188 -7.97595e-19)
(9.63088 -22.1192 7.93198e-19)
(9.50182 -21.9127 1.07029e-18)
(4.89878 -7.92792 1.26061e-19)
(12.2051 -18.1125 8.20845e-20)
(14.4869 -22.2763 -1.64972e-19)
(14.315 -22.3968 2.67434e-19)
(13.8369 -22.2249 -2.6259e-19)
(13.4513 -22.0644 -7.3669e-20)
(13.0721 -21.9298 0)
(12.7027 -21.8257 1.02598e-19)
(12.3694 -21.7318 -3.2188e-19)
(12.0462 -21.6821 1.17787e-18)
(11.7244 -21.595 -8.53657e-19)
(11.4217 -21.5353 -2.26595e-19)
(11.1437 -21.5229 -1.10022e-19)
(10.8796 -21.488 0)
(10.6258 -21.4981 1.13886e-20)
(10.3873 -21.5252 -9.83714e-19)
(10.1447 -21.4884 -2.25528e-20)
(9.90847 -21.4886 -2.65119e-19)
(9.67244 -21.5237 9.78287e-19)
(9.53784 -21.3583 -2.56693e-19)
(5.42454 -8.05205 -1.95278e-19)
(12.927 -17.8207 3.92678e-19)
(14.9238 -21.4165 -2.37264e-19)
(14.6427 -21.4292 -3.35928e-19)
(14.1366 -21.3198 -4.36124e-20)
(13.7109 -21.2063 2.61286e-19)
(13.2783 -21.0665 -1.12456e-19)
(12.8563 -20.9559 -1.02582e-19)
(12.5046 -20.9106 0)
(12.1559 -20.8618 0)
(11.8431 -20.8564 1.00488e-18)
(11.5309 -20.8228 -1.76211e-18)
(11.227 -20.8 1.00987e-18)
(10.94 -20.7996 0)
(10.6632 -20.7966 1.23338e-20)
(10.3951 -20.7947 1.21314e-18)
(10.174 -20.8505 -1.19765e-18)
(9.92999 -20.8918 1.27767e-19)
(9.7079 -20.9302 1.21401e-18)
(9.58768 -20.7894 -8.24177e-19)
(5.88153 -8.02143 2.71768e-19)
(13.4785 -17.2443 -3.56883e-19)
(15.2359 -20.4184 0)
(14.9089 -20.4024 0)
(14.3742 -20.2892 -1.16752e-19)
(13.91 -20.2143 5.80594e-19)
(13.4889 -20.1388 1.49152e-20)
(13.0556 -20.0828 -4.9069e-19)
(12.6742 -20.0448 1.07227e-18)
(12.3077 -20.0449 -2.154e-18)
(11.9424 -20.014 1.08157e-18)
(11.6014 -20.0094 -2.80962e-19)
(11.2735 -20.0126 -1.30203e-18)
(10.9719 -20.0094 -1.78346e-19)
(10.6911 -20.0849 8.54802e-19)
(10.4136 -20.1043 -1.39037e-19)
(10.1441 -20.1118 1.31259e-18)
(9.89097 -20.2368 -1.14199e-18)
(9.67223 -20.3167 1.09625e-20)
(9.54132 -20.2141 -1.19838e-18)
(6.31278 -7.92661 0)
(13.9985 -16.6405 -3.14235e-19)
(15.4735 -19.3127 2.85264e-19)
(15.0598 -19.3177 0)
(14.5396 -19.2751 1.16741e-19)
(14.0363 -19.2483 -5.50712e-19)
(13.566 -19.1745 6.71157e-19)
(13.089 -19.1212 0)
(12.6821 -19.1151 -1.20537e-18)
(12.2962 -19.1215 1.18528e-18)
(11.9427 -19.1667 -1.61754e-19)
(11.5994 -19.1796 1.47786e-19)
(11.27 -19.2295 1.49416e-19)
(10.9395 -19.234 1.50592e-19)
(10.621 -19.2605 1.42579e-18)
(10.3433 -19.3459 -2.52954e-18)
(10.067 -19.3798 2.52553e-18)
(9.77756 -19.4863 -2.45839e-18)
(9.57955 -19.642 1.0699e-18)
(9.46024 -19.611 -1.57792e-19)
(6.70371 -7.71927 0)
(14.3404 -15.8815 4.70011e-19)
(15.6112 -18.1595 -2.35123e-19)
(15.0968 -18.1707 -4.30432e-19)
(14.5697 -18.1238 -3.70802e-20)
(14.0511 -18.1522 -3.25463e-20)
(13.5985 -18.152 6.19981e-19)
(13.1223 -18.1488 0)
(12.7001 -18.173 0)
(12.3016 -18.2143 0)
(11.9085 -18.2555 1.61727e-19)
(11.5355 -18.2957 0)
(11.1769 -18.3441 1.57111e-18)
(10.8542 -18.4073 -1.36903e-18)
(10.5245 -18.4719 1.39176e-18)
(10.2176 -18.511 -2.7589e-18)
(9.91614 -18.6141 1.36745e-18)
(9.60843 -18.6979 1.52901e-18)
(9.34757 -18.8581 -2.68179e-18)
(9.22202 -18.8803 1.4176e-18)
(7.0514 -7.4347 0)
(14.5817 -15.0558 0)
(15.651 -16.9413 -1.43924e-19)
(15.0878 -17.0325 -1.52386e-19)
(14.5765 -17.0552 0)
(14.0347 -17.1105 -7.13208e-19)
(13.5466 -17.125 7.00684e-19)
(13.041 -17.1297 0)
(12.5924 -17.1698 -1.49167e-18)
(12.1804 -17.2237 1.46681e-18)
(11.793 -17.3033 0)
(11.4322 -17.3739 1.51682e-18)
(11.0743 -17.4738 -1.53655e-19)
(10.7138 -17.5118 -1.49539e-18)
(10.364 -17.595 0)
(10.0313 -17.6471 0)
(9.67645 -17.7028 0)
(9.33442 -17.7815 1.33047e-18)
(9.02247 -17.8136 -1.48753e-18)
(8.75183 -17.9528 0)
(7.24565 -26.5332 0)
(6.22787 -25.6148 0)
(5.49907 -26.1162 1.97703e-21)
(4.7847 -25.7037 2.10459e-21)
(4.22099 -25.9244 0)
(3.63568 -25.6363 3.31715e-23)
(3.23701 -25.7205 -2.44798e-21)
(2.78943 -25.5312 0)
(2.43203 -25.4069 -2.69991e-21)
(2.07394 -25.2514 0)
(1.74304 -25.1953 2.8186e-21)
(1.49838 -25.0729 1.43559e-21)
(1.21561 -25.0765 -1.44326e-21)
(1.05358 -24.9089 -2.96639e-21)
(0.79224 -24.9271 0)
(0.708268 -24.6747 7.57478e-22)
(0.429256 -24.1062 -3.54769e-21)
(0.464381 -21.5043 0)
(0.124087 -15.1674 0)
(0.189056 -6.26583 -3.10141e-21)
(7.22536 -26.2048 -5.35675e-21)
(6.34811 -25.3515 0)
(5.59934 -25.9252 -1.02823e-20)
(4.8652 -25.5467 6.27075e-21)
(4.30865 -25.8069 0)
(3.71379 -25.4671 1.23323e-20)
(3.28919 -25.5515 -5.02051e-21)
(2.81276 -25.3648 0)
(2.44376 -25.2655 -2.79005e-21)
(2.08339 -25.1159 5.5223e-21)
(1.75274 -25.0823 -8.53201e-21)
(1.5111 -24.9766 1.15482e-20)
(1.22949 -25.0009 -8.77637e-21)
(1.06318 -24.8426 2.94742e-21)
(0.808051 -24.8758 2.99287e-21)
(0.72382 -24.6208 -3.04766e-21)
(0.439884 -24.0737 5.5926e-21)
(0.472464 -21.4542 7.70974e-21)
(0.118054 -15.1225 3.86298e-21)
(0.19208 -6.21759 3.87615e-21)
(7.30375 -25.8747 -2.18816e-21)
(6.41484 -25.1169 6.44499e-21)
(5.64386 -25.6862 8.60709e-21)
(4.86736 -25.2928 0)
(4.29204 -25.595 0)
(3.7129 -25.3326 -1.51696e-20)
(3.32276 -25.4688 -3.27442e-22)
(2.8491 -25.2861 -2.30205e-22)
(2.49159 -25.1997 -2.17674e-22)
(2.12513 -25.0516 1.12164e-20)
(1.78891 -25.0291 0)
(1.54141 -24.9245 0)
(1.25276 -24.9453 0)
(1.07729 -24.7931 1.20694e-20)
(0.820302 -24.8268 0)
(0.735932 -24.5774 1.23118e-20)
(0.450392 -24.0432 -1.10813e-20)
(0.479297 -21.4333 -4.61782e-21)
(0.128214 -15.1061 -7.7138e-21)
(0.198619 -6.1867 -1.24767e-20)
(7.38355 -25.5429 -1.37616e-20)
(6.49444 -24.8216 3.02684e-20)
(5.70198 -25.4804 2.67041e-22)
(4.97084 -25.1388 -1.82719e-20)
(4.40455 -25.4769 0)
(3.80112 -25.1701 -2.09854e-20)
(3.37542 -25.2994 5.36335e-20)
(2.87463 -25.1194 -3.28759e-20)
(2.5053 -25.0598 2.24848e-20)
(2.13646 -24.9156 -1.15257e-20)
(1.79925 -24.9159 -1.31898e-22)
(1.5532 -24.8273 1.18517e-20)
(1.26366 -24.8674 -1.19092e-20)
(1.08443 -24.7264 -6.02023e-21)
(0.830366 -24.777 -6.07592e-21)
(0.750085 -24.5262 -1.23061e-20)
(0.459994 -24.0143 1.36093e-20)
(0.486042 -21.3986 -6.18541e-21)
(0.121583 -15.0784 3.103e-21)
(0.201774 -6.14348 1.24564e-20)
(7.40279 -25.2485 -2.58764e-20)
(6.59915 -24.6011 -7.85719e-21)
(5.83104 -25.2447 1.85593e-20)
(4.99104 -24.8823 -2.88592e-20)
(4.37373 -25.2586 0)
(3.78784 -25.0304 1.0676e-20)
(3.39884 -25.2114 -1.08906e-20)
(2.90017 -25.0388 0)
(2.54356 -24.9941 1.7344e-22)
(2.17058 -24.8509 0)
(1.82892 -24.8619 2.35926e-20)
(1.57761 -24.7739 0)
(1.28168 -24.8098 0)
(1.09595 -24.6759 2.44467e-20)
(0.843187 -24.7287 -1.22359e-20)
(0.760135 -24.4853 1.24652e-20)
(0.46887 -23.9869 0)
(0.492845 -21.3833 -3.06247e-21)
(0.126819 -15.0677 3.00701e-21)
(0.209224 -6.11539 0)
(7.54797 -24.9197 -1.6444e-20)
(6.64648 -24.3155 1.7571e-20)
(5.81204 -25.0183 -4.98883e-20)
(5.02936 -24.7005 4.95225e-20)
(4.46529 -25.1355 -2.1629e-20)
(3.87746 -24.8764 -1.07093e-20)
(3.45313 -25.0427 2.27271e-20)
(2.92928 -24.8729 2.30127e-20)
(2.56082 -24.8562 -1.15633e-20)
(2.18417 -24.7149 -2.37128e-20)
(1.84039 -24.7482 1.19301e-20)
(1.58885 -24.6763 0)
(1.29219 -24.7302 0)
(1.10593 -24.6103 1.98778e-22)
(0.858022 -24.6794 1.23167e-20)
(0.772275 -24.4366 -1.2453e-20)
(0.477149 -23.9616 0)
(0.498997 -21.3635 2.36292e-20)
(0.122014 -15.0583 2.12102e-20)
(0.211658 -6.0777 1.56367e-21)
(7.59657 -24.6238 5.29446e-20)
(6.75492 -24.0626 -5.35993e-20)
(5.9865 -24.7753 2.01087e-20)
(5.1103 -24.4595 0)
(4.47446 -24.9211 2.17207e-20)
(3.86839 -24.7378 -4.51969e-20)
(3.4699 -24.9493 2.25542e-20)
(2.94714 -24.7897 -2.30776e-20)
(2.59016 -24.7905 0)
(2.21076 -24.6497 0)
(1.86364 -24.6932 -2.43094e-20)
(1.60789 -24.6213 2.43965e-20)
(1.30685 -24.6717 0)
(1.11766 -24.5605 -3.70689e-20)
(0.870013 -24.6314 1.23986e-20)
(0.781088 -24.3963 1.24814e-20)
(0.484662 -23.938 -1.04549e-20)
(0.505277 -21.3539 -2.75281e-20)
(0.11968 -15.0566 -1.40835e-20)
(0.220158 -6.05257 -3.12761e-21)
(7.71022 -24.281 0)
(6.80555 -23.7976 4.04509e-20)
(5.9752 -24.536 -4.05597e-20)
(5.08977 -24.2523 0)
(4.53465 -24.7789 0)
(3.94299 -24.5771 4.63743e-20)
(3.52275 -24.7798 -4.65116e-20)
(2.97841 -24.625 0)
(2.61127 -24.6544 -2.42008e-20)
(2.22628 -24.5143 4.86834e-20)
(1.87649 -24.5793 -2.44846e-20)
(1.61916 -24.5242 -2.47496e-20)
(1.31824 -24.592 2.48243e-20)
(1.12811 -24.4962 0)
(0.881015 -24.582 0)
(0.790936 -24.3494 1.25297e-20)
(0.491565 -23.9165 -1.55932e-20)
(0.510823 -21.3467 1.7681e-24)
(0.113725 -15.0596 9.05857e-21)
(0.229795 -6.02199 -3.12579e-21)
(7.81201 -23.9434 -4.04207e-20)
(6.86601 -23.5205 4.05412e-20)
(6.07817 -24.2792 6.73501e-20)
(5.17445 -24.0048 -9.03852e-20)
(4.589 -24.5839 9.26158e-20)
(3.94743 -24.4461 6.03436e-22)
(3.53708 -24.6837 -4.76733e-20)
(2.99343 -24.5394 0)
(2.63385 -24.5882 0)
(2.24592 -24.4482 -2.48799e-20)
(1.89467 -24.5224 0)
(1.63354 -24.4676 0)
(1.33132 -24.5331 0)
(1.14163 -24.4458 0)
(0.891643 -24.5337 0)
(0.796051 -24.3102 0)
(0.497588 -23.8968 1.0394e-20)
(0.517453 -21.3438 -1.05931e-20)
(0.105055 -15.0718 2.96857e-21)
(0.241833 -5.99851 -3.10676e-21)
(7.88037 -23.5848 1.38561e-20)
(6.92411 -23.2384 6.48169e-20)
(6.12411 -24.0475 2.3502e-20)
(5.17466 -23.8029 2.42264e-20)
(4.65351 -24.4163 -2.34634e-20)
(4.01358 -24.2687 -7.27712e-20)
(3.588 -24.5115 -2.49035e-20)
(3.02736 -24.3761 0)
(2.6582 -24.4534 2.48966e-20)
(2.2618 -24.3144 -5.04406e-20)
(1.90908 -24.4095 -2.53606e-20)
(1.64525 -24.3717 -2.54667e-20)
(1.34345 -24.4549 0)