/*--------------------------------*- C++ -*----------------------------------*\
  =========                 |
  \\      /  F ield         | OpenFOAM: The Open Source CFD Toolbox
   \\    /   O peration     | Website:  https://openfoam.org
    \\  /    A nd           | Version:  9
     \\/     M anipulation  |
\*---------------------------------------------------------------------------*/
FoamFile
{
    format      ascii;
    class       volScalarField;
    location    "9.5";
    object      p;
}
// * * * * * * * * * * * * * * * * * * * * * * * * * * * * * * * * * * * * * //

dimensions      [0 2 -2 0 0 0 0];

internalField   nonuniform List<scalar> 
46400
(
-75.0028
-67.0372
-54.3667
-43.2928
-33.5721
-24.3644
-16.221
-8.65685
-1.79803
4.5365
10.3398
15.7424
20.7423
25.4596
29.8843
34.1271
38.1147
42.1563
46.5377
47.8505
-41.4744
-34.6158
-23.4911
-13.3611
-4.52077
3.76899
11.1422
17.9136
24.0262
29.6215
34.7175
39.3709
43.6747
47.6129
51.2629
54.6475
57.7755
60.7998
63.8435
64.2825
-8.8812
-3.49827
6.67479
16.2321
24.1655
31.6705
38.1886
44.1659
49.4809
54.3323
58.6846
62.6686
66.2561
69.5678
72.5731
75.3122
77.7562
80.1047
82.269
81.8363
21.4664
26.8067
36.4507
45.0888
52.3382
58.9229
64.6726
69.7969
74.3517
78.4108
82.0558
85.2837
88.2157
90.804
93.1618
95.2613
97.1302
98.8633
100.584
99.8908
52.2001
58.1875
66.6467
74.2602
80.3402
85.9675
90.749
95.0163
98.7275
102.01
104.907
107.455
109.695
111.662
113.396
114.89
116.157
117.321
118.476
117.412
82.7919
89.2544
96.2459
102.606
107.657
112.216
116.093
119.459
122.372
124.875
127.049
128.909
130.523
131.888
133.056
134.038
134.813
135.489
136.217
134.915
113.348
120.189
125.031
130.06
133.918
137.371
140.32
142.798
144.929
146.681
148.174
149.363
150.366
151.125
151.756
152.191
152.503
152.682
153.08
151.564
142.64
148.49
152.335
155.927
158.939
161.395
163.507
165.195
166.585
167.659
168.515
169.123
169.558
169.804
169.917
169.911
169.754
169.526
169.534
167.897
169.473
173.718
176.897
179.488
181.692
183.388
184.776
185.76
186.502
186.925
187.185
187.21
187.111
186.838
186.477
186.001
185.428
184.792
184.346
182.543
193.815
197.298
199.835
201.744
203.241
204.27
205.03
205.43
205.609
205.503
205.224
204.734
204.12
203.355
202.505
201.562
200.54
199.466
198.571
196.486
215.414
218.153
220.185
221.401
222.389
222.798
223.003
222.844
222.502
221.914
221.19
220.289
219.276
218.133
216.904
215.595
214.21
212.796
211.52
209.29
235.826
237.998
239.438
240.173
240.58
240.491
240.157
239.478
238.619
237.514
236.28
234.892
233.42
231.843
230.207
228.502
226.735
224.943
223.274
220.8
253.346
254.942
255.974
256.19
256.217
255.719
254.984
253.969
252.762
251.367
249.805
248.118
246.307
244.418
242.456
240.453
238.385
236.295
234.313
231.63
270.094
271.061
271.58
271.253
270.778
269.784
268.581
267.061
265.404
263.573
261.639
259.592
257.464
255.258
253.001
250.709
248.375
246.028
243.796
240.957
284.555
284.545
284.619
283.834
282.954
281.719
280.292
278.58
276.677
274.596
272.403
270.113
267.756
265.334
262.87
260.375
257.846
255.305
252.947
249.91
296.502
296.379
295.866
294.835
293.492
291.874
290.052
288.046
285.849
283.522
281.058
278.53
275.928
273.304
270.637
267.975
265.279
262.595
260.112
257.002
304.787
304.849
304.397
303.247
301.9
300.142
298.195
296.025
293.718
291.258
288.685
286.03
283.296
280.534
277.726
274.928
272.093
269.278
266.667
263.467
313.05
312.871
311.96
310.606
308.86
306.83
304.546
302.082
299.507
296.805
294.061
291.223
288.377
285.481
282.588
279.691
276.792
273.893
271.238
267.99
316.317
316.43
315.595
314.562
312.991
311.138
308.952
306.563
303.977
301.278
298.458
295.583
292.635
289.669
286.674
283.695
280.701
277.726
275.015
271.661
321.137
319.855
319.028
317.226
315.597
313.42
311.189
308.651
306.051
303.275
300.458
297.548
294.613
291.641
288.655
285.68
282.697
279.728
276.986
273.767
-453.02
-451.369
-443.017
-430.809
-415.537
-400.591
-386.551
-372.961
-360.082
-347.821
-335.984
-324.689
-313.873
-303.4
-293.459
-283.752
-274.621
-265.697
-257.303
-249.309
-454.089
-451.79
-440.835
-427.366
-411.341
-395.764
-381.309
-367.376
-354.148
-341.556
-329.54
-318.003
-307.028
-296.429
-286.418
-276.641
-267.513
-258.55
-250.248
-242.259
-453.045
-451.144
-437.406
-422.198
-405.967
-389.941
-374.873
-360.709
-347.142
-334.338
-322.09
-310.446
-299.362
-288.72
-278.654
-268.875
-259.765
-250.836
-242.64
-234.682
-450.048
-448.506
-435.179
-417.252
-399.95
-383.46
-367.806
-353.198
-339.352
-326.288
-313.859
-302.068
-290.868
-280.144
-270.037
-260.246
-251.167
-242.255
-234.171
-226.238
-446.598
-443.869
-429.33
-410.35
-392.069
-375.088
-359.149
-344.259
-330.22
-317.007
-304.495
-292.636
-281.408
-270.704
-260.617
-250.878
-241.875
-233.025
-225.11
-217.227
-436.755
-434.443
-419.172
-400.016
-381.89
-364.733
-348.733
-333.735
-319.574
-306.335
-293.738
-281.899
-270.678
-260.016
-249.99
-240.252
-231.375
-222.612
-214.885
-207.046
-429.11
-425.312
-408.974
-389.033
-370.549
-353.146
-336.984
-321.94
-307.774
-294.497
-282.003
-270.188
-259.047
-248.49
-238.544
-229.009
-220.239
-211.588
-204.028
-196.241
-417.202
-412.699
-395.296
-375.255
-356.613
-339.346
-323.144
-308.198
-294.005
-280.903
-268.47
-256.822
-245.839
-235.455
-225.681
-216.356
-207.769
-199.34
-192.039
-184.36
-402.483
-397.335
-379.421
-359.394
-340.988
-323.828
-307.843
-293.044
-279.135
-266.156
-253.985
-242.519
-231.735
-221.564
-212.001
-202.911
-194.537
-186.308
-179.256
-171.699
-385.906
-379.943
-361.482
-341.541
-323.123
-306.351
-290.453
-275.949
-262.278
-249.613
-237.697
-226.534
-216.073
-206.217
-196.957
-188.178
-180.085
-172.164
-165.404
-158.003
-365.672
-359.271
-340.594
-321.242
-303.336
-286.985
-271.625
-257.469
-244.225
-231.897
-220.36
-209.545
-199.401
-189.87
-180.93
-172.491
-164.701
-157.095
-150.662
-143.462
-344.113
-337.043
-318.51
-299.579
-281.827
-265.97
-250.894
-237.202
-224.367
-212.474
-201.386
-190.986
-181.304
-172.213
-163.694
-155.669
-148.25
-141.042
-134.964
-128.006
-319.333
-312.143
-293.626
-275.537
-258.505
-243.253
-228.871
-215.669
-203.39
-191.991
-181.362
-171.448
-162.189
-153.523
-145.424
-137.831
-130.806
-124.008
-118.313
-111.599
-293.49
-286.073
-267.454
-250.232
-233.579
-218.964
-205.14
-192.535
-180.841
-169.979
-159.944
-150.529
-141.816
-133.669
-126.067
-118.956
-112.367
-106.049
-100.756
-94.369
-265.515
-257.955
-239.163
-223.155
-207.374
-193.44
-180.38
-168.379
-157.303
-147.054
-137.546
-128.716
-120.523
-112.888
-105.795
-99.1953
-93.0821
-87.2673
-82.3892
-76.3242
-236.541
-228.618
-210.212
-194.85
-179.923
-166.665
-154.382
-143.057
-132.674
-123.014
-114.159
-105.867
-98.2307
-91.1327
-84.5562
-78.4546
-72.8027
-67.5022
-63.0667
-57.3521
-206.045
-197.78
-179.85
-165.527
-151.526
-139.024
-127.477
-116.862
-107.118
-98.1323
-89.8441
-82.1717
-75.0976
-68.532
-62.4837
-56.9029
-51.733
-46.9796
-42.9691
-37.6489
-174.236
-165.997
-149.181
-135.576
-122.576
-110.833
-100.157
-90.2203
-81.2147
-72.8222
-65.1784
-58.0457
-51.4924
-45.4327
-39.8719
-34.7469
-29.9999
-25.7582
-22.1839
-17.2546
-141.753
-133.606
-117.706
-104.917
-92.9436
-81.9537
-72.0551
-62.9035
-54.5508
-46.8596
-39.7937
-33.2597
-27.2471
-21.6631
-16.5555
-11.8283
-7.43875
-3.68947
-0.380358
4.73439
-108.936
-100.489
-86.2043
-74.2729
-63.3752
-53.268
-44.2088
-35.7627
-28.1172
-20.9959
-14.4845
-8.40923
-2.7592
2.51279
7.42986
12.1275
16.5451
20.5638
24.9547
30.3023
-210.273
-167.03
-126.231
-100.615
-75.3642
-58.68
-42.7371
-31.4703
-21.1215
-13.4952
-6.64572
-1.47112
3.21948
6.40698
9.70252
11.4562
14.1925
14.9835
15.8138
16.2557
-203.87
-162.471
-122.524
-98.0132
-73.3916
-57.1834
-41.4957
-30.4713
-20.3536
-12.8058
-6.15086
-1.04318
3.54455
6.64652
9.81905
11.6472
14.0809
14.986
15.7553
16.199
-197.033
-157.657
-118.847
-95.2251
-71.1524
-55.4698
-40.1505
-29.398
-19.5296
-12.0676
-5.6216
-0.553497
3.91947
6.93567
9.96654
11.8554
14.0058
15.0557
15.6694
16.2089
-189.479
-152.483
-114.675
-92.2047
-68.83
-53.6575
-38.6763
-28.1962
-18.5935
-11.2331
-5.00972
-0.0124864
4.34499
7.26219
10.1505
12.1201
13.8766
15.1594
15.6913
16.1821
-181.345
-146.994
-110.378
-89.0711
-66.2575
-51.7021
-37.1275
-26.9218
-17.6184
-10.3524
-4.34105
0.569339
4.82141
7.63302
10.3649
12.3916
13.7712
15.3437
15.7064
16.2566
-172.518
-141.193
-105.629
-85.7429
-63.6304
-49.6192
-35.4312
-25.5262
-16.5255
-9.36942
-3.58777
1.19997
5.35308
8.05218
10.692
12.6748
13.7105
15.5633
15.7075
16.3155
-163.139
-134.93
-100.659
-82.3165
-60.7701
-47.4355
-33.6903
-24.053
-15.4087
-8.34731
-2.78564
1.87735
5.9298
8.53021
11.1012
12.987
13.7133
15.8732
15.7964
16.3988
-153.314
-128.108
-95.4271
-78.5403
-57.8691
-45.0999
-31.8102
-22.4529
-14.1666
-7.22514
-1.89295
2.6061
6.55355
9.05267
11.4505
13.3984
13.7646
16.1361
15.8672
16.4897
-142.989
-120.791
-90.0072
-74.5998
-54.73
-42.7089
-29.8992
-20.7854
-12.9045
-6.07529
-0.960705
3.36299
7.21251
9.63183
11.8273
13.8488
13.9013
16.484
15.9012
16.6048
-132.16
-113.108
-84.3286
-70.3025
-51.5993
-40.0733
-27.8776
-18.9861
-11.5054
-4.83534
0.0619828
4.18592
7.91845
10.2481
12.2821
14.2678
14.097
16.7571
15.8452
16.7284
-120.625
-105.081
-78.599
-65.7561
-48.2464
-37.4184
-25.8143
-17.1386
-10.0814
-3.56973
1.14096
5.04244
8.72502
10.9072
12.7668
14.7167
14.3208
16.9746
15.8571
16.8878
-108.644
-96.6976
-72.5583
-61.0325
-44.8481
-34.5028
-23.6563
-15.1761
-8.53831
-2.21077
2.30643
5.93499
9.65494
11.5928
13.301
15.2356
14.5522
17.2229
15.8695
17.0558
-95.9207
-88.0344
-66.4462
-56.0692
-41.373
-31.526
-21.4339
-13.1791
-6.98978
-0.810702
3.5115
6.91224
10.5251
12.3005
13.8914
15.7762
14.766
17.4656
15.8469
17.2542
-82.7252
-79.0218
-60.1225
-50.9097
-37.7436
-28.4035
-19.1165
-11.0613
-5.34332
0.678413
4.75841
7.95289
11.3973
13.0374
14.5229
16.3936
14.9695
17.6651
15.7979
17.4974
-68.8358
-69.8283
-53.7736
-45.5757
-34.0442
-25.2165
-16.7544
-8.91138
-3.70501
2.23068
6.06149
9.03607
12.4006
13.8128
15.2018
17.0222
15.1339
17.8785
15.7288
17.7462
-54.2262
-60.2272
-47.3409
-40.1326
-30.2278
-21.9658
-14.3115
-6.68376
-1.98164
3.80437
7.38414
10.1788
13.4494
14.5986
15.904
17.6043
15.2583
18.0847
15.629
18.0702
-38.9925
-50.1077
-40.6465
-34.368
-26.1846
-18.5953
-11.7779
-4.38284
-0.208476
5.46033
8.77149
11.3689
14.5418
15.5149
16.6863
18.5717
15.4023
18.3209
15.4311
18.31
-24.5033
-40.5836
-34.3002
-28.5923
-21.9758
-15.0706
-9.10593
-1.94733
1.70645
7.19308
10.2497
12.6527
15.8021
16.4366
17.3714
19.6767
15.6261
18.6937
15.3375
18.8834
-5.21525
-30.5762
-28.9518
-24.0788
-18.4805
-12.2884
-7.04445
0.0265064
3.2514
8.59995
11.5098
13.5532
16.8669
16.9368
17.8872
19.9621
15.7791
18.2396
14.9835
18.7777
18.4509
-14.5387
-19.1175
-16.3072
-13.0482
-8.00131
-3.75188
2.75803
5.39858
10.5256
12.9287
15.2194
18.0308
18.5224
19.1366
21.3712
17.4369
18.3479
13.2155
19.6442
62.472
65.075
45.228
40.9144
30.5361
32.4926
27.2084
29.5508
27.3469
30.7114
28.5769
33.3036
30.3225
35.6007
32.8994
36.7945
34.7993
39.4293
17.2142
46.783
111.753
101.446
77.6645
71.6007
58.967
55.2448
48.6295
47.1541
43.2664
42.9124
40.4362
40.9808
38.9586
40.6538
38.2307
40.6474
37.4634
40.3913
37.3756
39.9863
122.514
112.334
99.435
90.8524
81.8839
76.2124
70.0693
66.8137
62.996
61.3794
58.9156
58.1788
56.2613
56.5221
55.0413
55.5668
54.7862
53.8583
52.9628
53.8557
126.784
119.525
107.923
101.69
93.1312
88.0979
82.2019
78.1928
73.9498
70.8914
67.8426
65.7947
63.468
61.9111
60.3298
59.2932
58.3326
57.7632
57.0106
57.2816
123.481
116.069
110.566
104.664
99.6659
94.811
90.6164
86.7637
83.4382
80.5903
77.8946
75.7836
73.6458
72.0204
70.252
68.8488
67.4055
65.9963
65.1069
65.095
121.709
118.33
113.466
108.62
104.446
100.262
96.4993
93.0313
89.6746
86.7195
83.8908
81.3868
79.0068
76.8228
74.8457
72.8349
71.2256
69.6383
68.5473
68.2861
119.329
115.136
112.318
109.178
106.003
103.059
100.101
97.4381
94.7479
92.4134
89.9493
87.9138
85.6297
83.7844
81.6475
79.8246
77.8394
75.9457
74.7165
74.0851
118.797
116.858
114.455
111.807
108.93
106.327
103.852
101.417
99.0025
96.7658
94.4469
92.4192
90.1634
88.2615
86.0044
84.1077
81.8369
79.7566
77.8844
77.3305
117.829
115.513
113.762
111.706
110.019
108.212
106.228
104.546
102.603
100.99
98.9861
97.4354
95.4144
93.8905
91.691
90.0915
87.5064
85.8012
83.4805
82.8275
118.063
116.963
115.639
114.313
112.716
111.088
109.422
107.827
106.272
104.84
103.269
101.924
100.178
98.908
96.8853
95.6176
92.9417
91.7404
88.5066
88.1324
118.477
117.416
116.267
115.161
114.023
113.091
112.018
111.076
109.823
108.899
107.654
106.792
105.552
104.715
103.365
102.49
100.591
100.005
95.8646
97.2491
119.135
118.514
117.702
117.102
116.291
115.526
114.601
113.961
113.115
112.602
111.835
111.446
110.709
110.514
109.778
109.888
108.99
109.661
109.505
111.605
120.265
119.794
119.164
118.681
118.084
117.659
117.137
116.765
116.349
116.092
115.874
115.798
115.871
115.973
116.484
116.743
117.964
118.356
120.652
122.199
121.127
120.803
120.363
120.067
119.665
119.466
119.141
119.113
118.882
119.063
118.988
119.45
119.62
120.45
121.052
122.285
123.713
125.443
128.537
129.682
122.182
121.975
121.692
121.545
121.332
121.289
121.173
121.29
121.297
121.655
121.819
122.531
122.886
124.137
124.67
126.683
127.876
130.558
132.846
136.819
122.98
122.838
122.654
122.588
122.47
122.522
122.49
122.706
122.784
123.209
123.424
124.131
124.517
125.601
126.165
127.797
128.528
130.732
131.45
145.889
123.699
123.612
123.518
123.525
123.518
123.626
123.714
123.995
124.134
124.664
124.909
125.757
126.145
127.265
127.709
129.302
129.82
131.902
132.554
135.383
124.284
124.253
124.223
124.251
124.24
124.378
124.479
124.731
124.969
125.372
125.638
126.237
126.551
127.377
127.721
128.782
129.199
131.317
130.593
141.061
124.641
124.593
124.537
124.571
124.667
124.833
124.996
125.267
125.493
125.878
126.184
126.732
127.084
127.805
128.13
129.017
129.264
129.997
130.071
131.191
124.782
124.758
124.768
124.837
124.913
125.048
125.2
125.444
125.69
126.053
126.365
126.831
127.193
127.746
128.121
128.756
129.083
129.924
130.142
138.747
234.196
232.758
230.596
227.848
224.385
220.3
215.517
210.008
203.79
197.015
189.408
180.918
172.009
162.622
152.583
141.98
130.988
119.322
107.562
95.0955
207.904
207.016
205.824
204.347
202.493
200.412
197.915
195.237
192.137
188.84
183.701
178.237
173.575
169.383
164.624
160.014
154.616
149.546
143.604
136.705
168.396
167.809
167.085
166.277
165.162
164.125
162.795
161.517
159.859
158.277
156.24
154.537
152.31
150.333
147.673
145.031
141.525
138.71
135.854
133.762
156.785
156.316
155.774
155.17
154.483
153.731
152.882
151.971
150.945
149.904
148.69
147.542
146.142
144.9
143.335
141.998
139.737
137.654
135.65
133.951
140.271
139.961
139.558
139.186
138.691
138.255
137.668
137.169
136.483
135.915
135.201
134.552
133.735
133.027
132.056
131.269
130.019
129.244
127.582
126.365
135.143
134.84
134.535
134.19
133.844
133.458
133.072
132.647
132.218
131.755
131.244
130.755
130.143
129.628
128.948
128.396
127.671
127.101
126.309
125.497
128.574
128.358
128.115
127.865
127.581
127.297
126.976
126.656
126.299
125.936
125.542
125.137
124.699
124.282
123.771
123.37
122.693
122.197
121.271
120.426
126.369
126.16
125.934
125.702
125.454
125.199
124.93
124.653
124.363
124.067
123.75
123.436
123.073
122.724
122.327
121.959
121.529
121.152
120.702
120.268
123.759
123.608
123.442
123.267
123.076
122.877
122.663
122.444
122.21
121.971
121.715
121.458
121.167
120.899
120.522
120.182
119.737
119.37
118.982
118.622
122.883
122.734
122.578
122.404
122.208
121.997
121.784
121.578
121.372
121.171
120.969
120.763
120.55
120.335
120.104
119.878
119.634
119.384
119.125
118.849
122.561
122.441
122.311
122.172
122.024
121.875
121.714
121.55
121.376
121.201
121.015
120.827
120.635
120.441
120.238
120.036
119.819
119.603
119.374
119.144
122.597
122.483
122.366
122.244
122.117
121.987
121.847
121.698
121.542
121.381
121.216
121.052
120.881
120.704
120.529
120.353
120.177
119.997
119.817
119.63
122.934
122.841
122.744
122.646
122.544
122.439
122.332
122.222
122.11
121.993
121.876
121.753
121.631
121.501
121.371
121.233
121.098
120.951
120.811
120.656
123.366
123.277
123.187
123.095
123.002
122.906
122.81
122.711
122.611
122.509
122.408
122.302
122.198
122.089
121.984
121.872
121.765
121.649
121.541
121.42
123.869
123.798
123.726
123.654
123.58
123.506
123.432
123.355
123.28
123.202
123.125
123.045
122.967
122.885
122.807
122.722
122.644
122.556
122.478
122.387
124.454
124.374
124.297
124.22
124.145
124.071
123.998
123.926
123.856
123.785
123.717
123.648
123.583
123.515
123.451
123.384
123.323
123.255
123.196
123.129
124.783
124.734
124.684
124.633
124.582
124.528
124.474
124.42
124.366
124.315
124.271
124.22
124.164
124.108
124.055
124.001
123.952
123.901
123.856
123.806
125.173
125.109
125.048
124.989
124.933
124.88
124.831
124.782
124.735
124.687
124.636
124.593
124.56
124.526
124.495
124.462
124.432
124.401
124.373
124.345
125.481
125.425
125.37
125.318
125.266
125.216
125.168
125.122
125.078
125.036
124.993
124.951
124.911
124.872
124.837
124.803
124.773
124.744
124.718
124.694
125.575
125.522
125.471
125.422
125.375
125.33
125.286
125.244
125.204
125.166
125.13
125.095
125.061
125.027
124.994
124.961
124.93
124.901
124.872
124.845
82.4307
80.0824
74.9384
70.4344
65.7875
60.8619
55.6895
50.1781
44.2637
37.87
30.9423
23.3672
15.136
6.06235
-3.80963
-14.7706
-26.8286
-39.8982
-55.7559
-63.5684
95.939
94.7846
91.2016
87.6799
83.9462
79.8548
75.4308
70.6171
65.3942
59.6816
53.4758
46.6379
39.2276
31.0118
22.0833
12.0996
1.13225
-10.8223
-25.3956
-33.6844
111.047
110.756
107.925
105.078
101.97
98.5198
94.7518
90.6323
86.1185
81.1625
75.7211
69.7038
63.1246
55.7848
47.7953
38.7506
29.0323
18.0347
5.10019
-2.98136
126.97
126.969
124.604
122.354
119.864
117.061
113.965
110.528
106.714
102.478
97.79
92.5626
86.8215
80.3828
73.3154
65.3106
56.6325
46.696
35.4394
28.0107
142.318
142.762
140.98
139.318
137.421
135.226
132.75
129.96
126.822
123.297
119.343
114.891
109.953
104.328
98.1362
91.0096
83.3489
74.3492
64.3876
58.6214
158.252
158.861
157.395
156.174
154.74
153.062
151.144
148.953
146.446
143.595
140.337
136.647
132.457
127.673
122.276
116.067
109.15
101.032
91.6947
86.7043
172.856
173.722
172.837
172.128
171.252
170.155
168.84
167.274
165.434
163.263
160.751
157.804
154.442
150.467
145.991
140.627
134.713
127.493
118.839
113.879
186.954
188.096
187.673
187.425
187.017
186.441
185.655
184.685
183.445
181.953
180.112
177.936
175.307
172.212
168.552
164.205
159.249
153.085
145.74
140.128
200.085
201.48
201.566
201.793
201.909
201.884
201.684
201.322
200.722
199.886
198.753
197.306
195.498
193.25
190.551
187.191
183.352
178.321
172.837
166.662
212.359
214.032
214.593
215.261
215.855
216.309
216.626
216.788
216.747
216.5
215.997
215.241
214.13
212.689
210.743
208.363
205.358
201.61
197.348
191.692
223.461
225.506
226.562
227.708
228.769
229.711
230.503
231.173
231.639
231.963
232.046
231.934
231.514
230.802
229.696
228.195
226.192
223.614
220.469
216.153
234.126
236.426
237.729
239.166
240.54
241.819
242.996
244.08
245.031
245.867
246.509
246.979
247.148
247.074
246.586
245.798
244.479
242.778
240.369
237.07
243.336
245.779
247.42
249.208
250.946
252.617
254.212
255.747
257.149
258.455
259.539
260.482
261.122
261.593
261.669
261.532
260.857
259.878
258.177
255.633
251.522
254.12
256.031
258.109
260.15
262.15
264.087
265.968
267.734
269.401
270.899
272.269
273.404
274.369
274.98
275.376
275.249
274.863
273.693
271.809
258.299
261.149
263.357
265.732
268.079
270.378
272.619
274.801
276.873
278.866
280.692
282.413
283.884
285.206
286.19
287.027
287.322
287.439
286.745
285.495
264.415
267.386
269.721
272.254
274.755
277.232
279.658
282.054
284.359
286.617
288.734
290.771
292.608
294.339
295.775
297.071
297.817
298.409
298.143
297.578
268.657
271.702
274.228
276.946
279.645
282.327
284.976
287.6
290.154
292.656
295.047
297.341
299.464
301.434
303.102
304.548
305.525
306.463
306.56
306.68
272.033
275.192
277.836
280.691
283.526
286.352
289.147
291.929
294.643
297.323
299.89
302.382
304.706
306.887
308.832
310.551
312.004
313.175
313.882
314.038
273.927
277.127
279.831
282.753
285.663
288.57
291.465
294.346
297.185
299.97
302.666
305.269
307.705
310.02
312.042
313.908
315.314
316.407
316.963
316.64
274.412
277.71
280.484
283.495
286.481
289.485
292.456
295.44
298.353
301.245
304.038
306.755
309.348
311.788
314.071
316.137
317.897
319.552
320.273
321.547
-137.454
-142.395
-147.601
-152.979
-158.368
-164.088
-169.728
-175.686
-181.63
-187.753
-193.901
-200.337
-206.635
-212.985
-218.802
-224.585
-228.531
-228.887
-230.268
-230.197
-132.933
-138.032
-143.353
-148.957
-154.519
-160.474
-166.376
-172.612
-178.844
-185.321
-191.907
-198.547
-205.41
-212.122
-219.053
-225.512
-230.926
-233.814
-234.194
-234.759
-128.364
-133.648
-139.112
-144.965
-150.774
-157.038
-163.279
-169.888
-176.594
-183.532
-190.627
-197.953
-205.415
-212.954
-220.706
-228.006
-234.624
-240.053
-240.548
-241.367
-123.59
-129.077
-134.689
-140.804
-146.849
-153.411
-160.008
-167.02
-174.185
-181.674
-189.434
-197.432
-205.733
-214.361
-223.141
-232.144
-240.996
-248.312
-250.049
-250.915
-118.508
-124.21
-129.975
-136.36
-142.687
-149.589
-156.585
-164.027
-171.742
-179.815
-188.269
-197.105
-206.393
-216.167
-226.177
-236.953
-247.938
-257.542
-262.861
-263.694
-112.921
-118.824
-124.715
-131.33
-137.892
-145.07
-152.423
-160.28
-168.477
-177.138
-186.278
-195.919
-206.196
-217.012
-228.631
-241.148
-254.333
-266.874
-275.986
-276.712
-106.708
-112.808
-118.817
-125.651
-132.437
-139.882
-147.566
-155.766
-164.413
-173.559
-183.289
-193.614
-204.648
-216.396
-229.142
-242.745
-257.406
-272.298
-284.264
-284.298
-99.8952
-106.118
-112.107
-119.07
-125.995
-133.596
-141.522
-150.008
-158.98
-168.536
-178.745
-189.63
-201.341
-213.915
-227.529
-242.221
-258.21
-274.942
-288.467
-291.815
-92.0292
-98.4027
-104.391
-111.423
-118.454
-126.162
-134.253
-142.907
-152.116
-161.941
-172.471
-183.717
-195.859
-208.874
-222.977
-238.343
-255.154
-272.84
-287.342
-292.177
-83.3879
-89.779
-95.708
-102.722
-109.777
-117.507
-125.655
-134.411
-143.742
-153.727
-164.449
-175.932
-188.344
-201.654
-216.07
-231.792
-248.607
-266.127
-283.387
-287.458
-73.7109
-80.049
-85.7906
-92.687
-99.6771
-107.318
-115.461
-124.201
-133.566
-143.627
-154.446
-166.075
-178.703
-192.214
-207.083
-223.136
-240.455
-259.877
-276.335
-280.302
-62.4624
-68.865
-74.5
-81.3007
-88.2302
-95.7989
-103.865
-112.543
-121.842
-131.838
-142.601
-154.201
-166.762
-180.291
-195.13
-211.105
-228.756
-247.945
-266.182
-271.542
-49.4869
-56.0201
-61.6282
-68.3178
-75.1692
-82.5773
-90.5234
-99.0641
-108.232
-118.117
-128.773
-140.267
-152.753
-166.175
-180.977
-196.766
-214.333
-233.45
-251.603
-257.359
-36.9073
-43.2227
-48.4645
-54.806
-61.3667
-68.4913
-76.1624
-84.4323
-93.3229
-102.935
-113.306
-124.541
-136.728
-149.929
-164.404
-180.001
-197.449
-215.988
-234.32
-241
-22.3609
-28.5282
-33.4992
-39.5132
-45.8313
-52.6445
-60.0273
-67.9996
-76.5885
-85.8985
-95.9576
-106.856
-118.709
-131.503
-145.629
-160.746
-177.689
-195.993
-214.529
-221.411
-7.37441
-13.3901
-18.0124
-23.6034
-29.5837
-36.0231
-43.036
-50.6278
-58.82
-67.7268
-77.3506
-87.8243
-99.18
-111.537
-125.08
-139.638
-156.07
-173.279
-191.81
-198.989
9.17545
3.27807
-0.981471
-6.08546
-11.751
-17.8225
-24.4559
-31.6625
-39.452
-47.933
-57.1079
-67.0953
-77.9585
-89.7621
-102.729
-116.711
-132.439
-148.968
-167.727
-175.023
26.1243
20.545
16.5954
11.9268
6.58725
0.87674
-5.36458
-12.1569
-19.5053
-27.5144
-36.1774
-45.6464
-55.8988
-67.1003
-79.3412
-92.5918
-107.452
-123.043
-141.176
-148.778
45.1213
39.2621
35.5512
31.2836
26.2481
20.8564
15.0033
8.62367
1.71252
-5.80903
-13.9598
-22.8574
-32.5214
-43.1
-54.6695
-67.273
-81.4161
-96.3776
-114.053
-121.726
68.3865
62.23
57.1356
52.4244
47.2302
41.7389
35.966
29.787
23.1898
16.0742
8.42999
0.0909716
-8.89647
-18.7613
-29.467
-41.2093
-54.2996
-68.0337
-85.001
-92.9966
45.9145
46.2427
44.9592
43.7737
41.6625
39.2043
36.9075
33.6183
30.5889
26.2993
21.7778
16.2395
9.06454
1.70182
-9.84987
-20.2737
-38.5333
-55.328
-83.3919
-112.725
46.3239
46.7246
45.4231
44.2535
42.2493
39.8907
37.7177
34.5253
31.6269
27.4421
23.0838
17.6986
10.7382
3.62676
-7.72026
-17.6475
-35.7934
-51.7347
-79.5604
-107.812
46.7392
47.2732
45.9575
44.7537
42.8094
40.5658
38.5098
35.4237
32.6662
28.6024
24.4161
19.1826
12.4169
5.57129
-5.55933
-14.9952
-32.8943
-47.8981
-75.8464
-102.725
47.1033
47.6592
46.3676
45.2099
43.4235
41.2734
39.3483
36.3657
33.7439
29.7898
25.7853
20.6944
14.1678
7.57675
-3.30945
-12.2168
-29.9415
-44.0612
-71.7058
-97.4898
47.4799
48.0491
46.801
45.742
44.0083
41.9701
40.1698
37.2993
34.8237
30.9904
27.1724
22.2203
15.932
9.56736
-1.03079
-9.48549
-26.9293
-40.0305
-67.7032
-91.9961
47.7783
48.3815
47.1898
46.2139
44.6604
42.7022
41.0388
38.2777
35.9429
32.2235
28.6011
23.7831
17.7763
11.6227
1.37467
-6.65475
-23.7797
-35.9658
-63.0376
-86.2142
48.0829
48.6765
47.6044
46.6595
45.275
43.421
41.8913
39.2498
37.0629
33.4668
30.041
25.3548
19.6224
13.6667
3.78479
-3.84251
-20.5063
-31.8372
-58.677
-79.9346
48.3591
48.973
48.0227
47.1461
45.9411
44.1822
42.7913
40.2676
38.2224
34.7474
31.5251
26.9697
21.5493
15.7765
6.31396
-0.939587
-17.1535
-27.6125
-53.9905
-73.4446
48.6178
49.2325
48.3921
47.5796
46.5759
44.9291
43.6766
41.2815
39.3818
36.0357
33.0148
28.5902
23.4739
17.8756
8.85127
1.96095
-13.658
-23.221
-48.8263
-66.3107
48.8541
49.4748
48.76
48.0657
47.2582
45.7259
44.6088
42.3412
40.5801
37.3644
34.5489
30.2583
25.4755
20.0416
11.4989
4.93707
-10.091
-18.8578
-43.5026
-59.1734
49.0702
49.6973
49.1104
48.5107
47.9063
46.5074
45.529
43.3996
41.7775
38.6993
36.0843
31.9304
27.472
22.1987
14.156
7.91979
-6.39089
-14.3003
-37.9984
-51.2021
49.268
49.8938
49.4615
48.9974
48.6125
47.3451
46.4955
44.5033
43.0128
40.0757
37.6625
33.6523
29.5393
24.4227
16.9131
10.9757
-2.55802
-9.09304
-32.0107
-40.9102
49.4398
50.0706
49.7974
49.4581
49.2937
48.1697
47.4531
45.6073
44.2461
41.4567
39.2379
35.3774
31.5985
26.6398
19.6755
14.0227
1.33141
-3.36842
-25.4513
-30.9439
49.5916
50.2209
50.1278
49.9556
50.0309
49.0564
48.4563
46.7555
45.516
42.8789
40.8543
37.1537
33.7227
28.9266
22.5299
17.1177
5.43586
2.4434
-18.8071
-21.4471
49.7272
50.3723
50.4672
50.4368
50.7551
49.9328
49.454
47.9065
46.7845
44.3061
42.467
38.9357
35.8383
31.2092
25.3666
20.1514
9.53847
7.73169
-12.2487
-10.4094
49.8569
50.5058
50.7842
50.9519
51.5266
50.874
50.4905
49.0894
48.078
45.7613
44.1041
40.7514
37.9903
33.5332
28.2334
23.1957
13.8031
12.7517
-4.9996
0.960768
49.9648
50.4969
51.0586
51.4869
52.3145
51.8148
51.5366
50.2826
49.3841
47.2333
45.7558
42.5975
40.1739
35.9233
31.1836
26.3468
18.2709
17.8878
2.45245
13.4661
50.1033
50.7339
51.5917
52.0277
53.175
52.8603
52.6468
51.5387
50.7491
48.7776
47.4797
44.5337
42.4453
38.3951
34.1283
29.4594
22.6864
22.8268
9.44403
25.1539
50.1261
50.6054
51.6158
52.4633
53.8141
53.7926
53.5641
52.6532
51.9185
50.1285
48.9487
46.1978
44.3354
40.3532
36.2381
31.61
26.0838
27.1515
17.1447
42.2344
50.8824
48.9259
51.2878
53.2889
54.9269
54.8426
54.8119
53.8615
53.3119
51.6272
50.6642
48.1324
46.7083
43.1515
40.0526
36.1592
32.8882
34.2944
30.5898
63.2439
70.8766
55.4194
66.2831
62.288
66.0977
63.9442
66.0405
64.9626
66.3783
65.8568
67.4147
67.0721
69.6905
69.7328
75.3889
77.2852
85.8398
88.76
103.342
95.5906
69.3379
66.5932
69.5246
67.8994
70.2252
69.778
71.4245
71.7704
73.5233
74.6349
77.1827
79.5942
83.8773
87.5286
94.297
98.4615
109.921
116.549
134.484
142.779
80.5602
80.1545
80.572
80.9557
81.9715
82.7523
84.118
85.3283
87.1717
88.8347
91.5973
93.9664
97.5671
100.724
105.816
110.401
118.083
123.957
134.918
143.784
83.549
83.7238
84.1325
84.9975
86.014
87.3645
89.0577
90.9296
93.3638
95.8963
98.958
101.904
105.943
109.716
115.131
119.753
126.826
132.146
141.086
145.046
88.7223
88.842
89.5672
91.1115
92.4682
94.0968
95.7454
97.5177
99.5203
101.526
103.917
106.421
109.325
112.372
115.824
119.43
123.424
127.477
131.783
137.33
90.8581
91.1791
92.1949
93.8742
95.5649
97.3539
99.3849
101.306
103.664
105.769
108.458
110.765
113.806
116.386
119.706
122.562
125.925
129.064
132.309
134.643
93.8401
94.5811
95.7112
97.7936
99.6037
101.453
103.329
105.068
106.973
108.739
110.69
112.569
114.588
116.594
118.671
120.758
122.85
124.887
126.501
128.727
95.1443
95.8462
97.8733
99.9099
102.305
104.086
106.289
107.885
109.987
111.511
113.556
115.059
117.049
118.561
120.412
121.976
123.463
125.14
126.467
127.412
98.7335
99.3845
102.045
103.866
106.462
107.98
109.976
111.256
112.923
114.098
115.564
116.682
118.031
119.092
120.373
121.316
122.558
123.294
123.956
124.562
102.761
102.997
106.679
107.805
110.487
111.62
113.439
114.381
115.851
116.692
117.955
118.718
119.839
120.52
121.487
122.085
122.85
123.316
123.988
124.228
112.673
110.682
114.829
114.583
116.685
117.106
118.267
118.704
119.538
119.928
120.631
121.024
121.646
121.98
122.53
122.811
123.293
123.483
123.666
123.661
125.42
123.156
122.467
122.545
122.254
122.346
122.304
122.405
122.5
122.581
122.799
122.88
123.171
123.217
123.522
123.523
123.786
123.694
123.899
123.796
134.611
134.194
130.852
130.369
128.776
128.127
127.33
126.709
126.422
125.904
125.848
125.429
125.444
125.146
125.138
124.913
124.891
124.717
124.667
124.373
141.541
139.783
136.814
134.238
132.75
131.14
130.288
129.027
128.53
127.631
127.332
126.625
126.465
125.895
125.814
125.469
125.5
125.203
125.125
124.791
146.314
141.871
139.529
137.209
135.631
133.748
132.761
131.574
130.743
129.917
129.349
128.734
128.274
127.805
127.37
126.931
126.543
126.099
125.77
125.347
149.686
139.34
138.878
136.343
135.613
134.087
133.303
132.084
131.54
130.526
130.047
129.261
128.814
128.185
127.751
127.192
126.85
126.447
126.164
125.893
142.717
140.788
140.5
135.915
135.493
134.287
133.796
132.733
132.219
131.358
130.831
130.147
129.666
129.118
128.713
128.27
127.896
127.458
127.151
126.671
141.859
138.525
139.697
136.164
135.689
134.531
133.974
132.997
132.45
131.643
131.14
130.448
129.974
129.363
128.912
128.372
127.967
127.492
127.128
126.712
137.923
137.261
136.763
135.726
135.36
134.452
133.963
133.155
132.614
131.893
131.35
130.723
130.208
129.666
129.201
128.716
128.31