/*--------------------------------*- C++ -*----------------------------------*\
  =========                 |
  \\      /  F ield         | OpenFOAM: The Open Source CFD Toolbox
   \\    /   O peration     | Website:  https://openfoam.org
    \\  /    A nd           | Version:  9
     \\/     M anipulation  |
\*---------------------------------------------------------------------------*/
FoamFile
{
    format      ascii;
    class       surfaceScalarField;
    location    "9.5";
    object      phi;
}
// * * * * * * * * * * * * * * * * * * * * * * * * * * * * * * * * * * * * * //

dimensions      [0 3 -1 0 0 0 0];

internalField   nonuniform List<scalar> 
92080
(
-0.00634536
-0.488143
0.494488
-0.0343344
-0.946363
0.974352
-0.0780333
-1.01119
1.05489
-0.122676
-0.993308
1.03795
-0.166496
-0.977582
1.0214
-0.209474
-0.96194
1.00492
-0.251292
-0.946661
0.988479
-0.292543
-0.931494
0.972745
-0.33391
-0.918575
0.959942
-0.374347
-0.905268
0.945705
-0.414709
-0.893853
0.934215
-0.45483
-0.88318
0.923302
-0.494575
-0.874103
0.913847
-0.533557
-0.864428
0.90341
-0.572486
-0.854605
0.893534
-0.611005
-0.846607
0.885126
-0.647963
-0.838096
0.875054
-0.68418
-0.828877
0.865094
-0.719769
-0.81971
0.855299
-0.813591
0.846332
-0.752509
-0.00735942
-0.480784
-0.0387407
-0.914982
-0.0835685
-0.966366
-0.128945
-0.947931
-0.173877
-0.932651
-0.217951
-0.917867
-0.261664
-0.902948
-0.305048
-0.88811
-0.347178
-0.876446
-0.389613
-0.862833
-0.431135
-0.852331
-0.472625
-0.841689
-0.513457
-0.833272
-0.553316
-0.824568
-0.592726
-0.815195
-0.631459
-0.807874
-0.66916
-0.800396
-0.705413
-0.792625
-0.739751
-0.785372
-0.779622
-0.773721
-0.00748889
-0.473295
-0.0442715
-0.878199
-0.0913676
-0.91927
-0.138077
-0.901222
-0.184453
-0.886274
-0.229996
-0.872324
-0.273862
-0.859082
-0.318045
-0.843927
-0.36165
-0.83284
-0.404211
-0.820272
-0.44754
-0.809002
-0.490006
-0.799223
-0.532557
-0.790721
-0.573704
-0.783421
-0.614745
-0.774154
-0.655654
-0.766964
-0.695123
-0.760926
-0.733801
-0.753947
-0.771775
-0.747398
-0.742118
-0.809279
-0.00220525
-0.47109
-0.0429123
-0.837492
-0.090434
-0.871748
-0.138808
-0.852848
-0.186958
-0.838123
-0.234828
-0.824454
-0.281539
-0.812371
-0.327091
-0.798375
-0.372307
-0.787625
-0.416299
-0.77628
-0.459768
-0.765532
-0.503675
-0.755317
-0.547186
-0.74721
-0.589738
-0.740869
-0.630777
-0.733115
-0.67263
-0.725111
-0.714368
-0.719188
-0.754813
-0.713501
-0.794427
-0.707784
-0.702398
-0.834146
0.000883058
-0.471973
-0.0430271
-0.793582
-0.0964653
-0.81831
-0.147957
-0.801357
-0.198079
-0.788001
-0.247006
-0.775527
-0.294886
-0.764491
-0.342153
-0.751108
-0.388395
-0.741383
-0.433523
-0.731153
-0.477813
-0.721243
-0.522015
-0.711115
-0.567231
-0.701993
-0.612059
-0.696041
-0.655559
-0.689616
-0.697978
-0.682692
-0.740686
-0.676481
-0.78304
-0.671147
-0.824432
-0.666392
-0.661764
-0.865066
0.00216748
-0.47414
-0.0423883
-0.749026
-0.0951514
-0.765547
-0.147375
-0.749133
-0.19961
-0.735766
-0.250721
-0.724416
-0.299734
-0.715478
-0.34815
-0.702692
-0.396762
-0.692771
-0.443575
-0.68434
-0.489423
-0.675395
-0.533479
-0.667059
-0.578407
-0.657066
-0.623742
-0.650706
-0.668421
-0.644936
-0.712413
-0.6387
-0.756433
-0.63246
-0.80054
-0.627041
-0.844297
-0.622635
-0.618399
-0.887662
0.00164359
-0.475784
-0.0483442
-0.699039
-0.106486
-0.707405
-0.16026
-0.695359
-0.212464
-0.683562
-0.264968
-0.671912
-0.315898
-0.664548
-0.364531
-0.654059
-0.413664
-0.643637
-0.462182
-0.635822
-0.509892
-0.627685
-0.556081
-0.620869
-0.600633
-0.612514
-0.646745
-0.604594
-0.692432
-0.599249
-0.737097
-0.594035
-0.780738
-0.588819
-0.825033
-0.582746
-0.869346
-0.578322
-0.574487
-0.913258
-0.00485104
-0.470933
-0.0564883
-0.647401
-0.112925
-0.650968
-0.167488
-0.640796
-0.220392
-0.630658
-0.272288
-0.620016
-0.323947
-0.612889
-0.373089
-0.604917
-0.421417
-0.59531
-0.469534
-0.587705
-0.517515
-0.579704
-0.565557
-0.572827
-0.611964
-0.566107
-0.657682
-0.558875
-0.704428
-0.552504
-0.751334
-0.547129
-0.79688
-0.543273
-0.841158
-0.538468
-0.886327
-0.533153
-0.529469
-0.931345
-0.0145955
-0.456337
-0.0668659
-0.595131
-0.123276
-0.594558
-0.177979
-0.586094
-0.231231
-0.577405
-0.284516
-0.566731
-0.337775
-0.55963
-0.389785
-0.552907
-0.440633
-0.544462
-0.490098
-0.53824
-0.538112
-0.53169
-0.585673
-0.525266
-0.632515
-0.519265
-0.678389
-0.513001
-0.72364
-0.507253
-0.76948
-0.501289
-0.816305
-0.496448
-0.861631
-0.493142
-0.905757
-0.489027
-0.484627
-0.9506
-0.0233903
-0.432947
-0.0774184
-0.541103
-0.134944
-0.537032
-0.189884
-0.531154
-0.242117
-0.525172
-0.293652
-0.515197
-0.345814
-0.507468
-0.397019
-0.501703
-0.448079
-0.493401
-0.499475
-0.486845
-0.549926
-0.481239
-0.599697
-0.475494
-0.648546
-0.470417
-0.696324
-0.465222
-0.743282
-0.460296
-0.78913
-0.455441
-0.835069
-0.450509
-0.882204
-0.446007
-0.927747
-0.443484
-0.440102
-0.972271
-0.0296992
-0.403248
-0.0827474
-0.488055
-0.138006
-0.481773
-0.195696
-0.473465
-0.250704
-0.470164
-0.302899
-0.463002
-0.355175
-0.455192
-0.406102
-0.450775
-0.455321
-0.444182
-0.504917
-0.437249
-0.554281
-0.431875
-0.603499
-0.426276
-0.65294
-0.420976
-0.701698
-0.416464
-0.749806
-0.412187
-0.797221
-0.408025
-0.843487
-0.404243
-0.889588
-0.399907
-0.936885
-0.396186
-0.393881
-0.983107
-0.0360875
-0.36716
-0.0919276
-0.432215
-0.148354
-0.425346
-0.204319
-0.417499
-0.261257
-0.413227
-0.315141
-0.409117
-0.369295
-0.401038
-0.424284
-0.395786
-0.476782
-0.391684
-0.527905
-0.386126
-0.578048
-0.381731
-0.626706
-0.377619
-0.674918
-0.372764
-0.723382
-0.367999
-0.771503
-0.364067
-0.819154
-0.360374
-0.866371
-0.357027
-0.912146
-0.354131
-0.957685
-0.350648
-0.347894
-1.00367
-0.0393865
-0.327774
-0.0935344
-0.378067
-0.148149
-0.370732
-0.203993
-0.361656
-0.261254
-0.355965
-0.315559
-0.354812
-0.367343
-0.349254
-0.419838
-0.343291
-0.473139
-0.338383
-0.525864
-0.333401
-0.578755
-0.328841
-0.630577
-0.325796
-0.680648
-0.322693
-0.729641
-0.319006
-0.77861
-0.315098
-0.827243
-0.311742
-0.875811
-0.308459
-0.924164
-0.305777
-0.971475
-0.303337
-0.300831
-1.01854
-0.0441949
-0.283579
-0.103396
-0.318866
-0.161887
-0.312241
-0.217862
-0.305681
-0.276223
-0.297604
-0.335557
-0.295479
-0.390399
-0.294412
-0.442887
-0.290803
-0.494275
-0.286996
-0.545114
-0.282562
-0.596006
-0.277949
-0.647551
-0.274252
-0.698804
-0.27144
-0.748646
-0.269164
-0.797447
-0.266297
-0.845552
-0.263637
-0.893309
-0.260702
-0.940971
-0.258115
-0.988719
-0.255589
-0.25343
-1.03612
-0.0466069
-0.236972
-0.107842
-0.257631
-0.167294
-0.252789
-0.220153
-0.252822
-0.272225
-0.245531
-0.329119
-0.238585
-0.387142
-0.236389
-0.443956
-0.23399
-0.498181
-0.232771
-0.551004
-0.229738
-0.601824
-0.227129
-0.652517
-0.223559
-0.703136
-0.220821
-0.753851
-0.21845
-0.803853
-0.216294
-0.853181
-0.214309
-0.901786
-0.212096
-0.949897
-0.210004
-0.997628
-0.207858
-0.205698
-1.04536
-0.0609378
-0.176034
-0.11838
-0.200189
-0.178061
-0.193108
-0.239349
-0.191534
-0.292972
-0.191908
-0.344725
-0.186832
-0.398246
-0.182867
-0.453124
-0.179112
-0.50819
-0.177704
-0.562455
-0.175473
-0.615344
-0.17424
-0.666729
-0.172175
-0.717295
-0.170254
-0.767401
-0.168344
-0.817158
-0.166538
-0.866596
-0.164871
-0.915353
-0.163339
-0.963704
-0.161654
-1.01135
-0.160216
-0.158537
-1.05851
-0.0589813
-0.117053
-0.118759
-0.140411
-0.172777
-0.13909
-0.230941
-0.13337
-0.288917
-0.133932
-0.343541
-0.132208
-0.396607
-0.129801
-0.449882
-0.125838
-0.503653
-0.123933
-0.557059
-0.122067
-0.610668
-0.120631
-0.663306
-0.119537
-0.715381
-0.118178
-0.766748
-0.116978
-0.817456
-0.115829
-0.867667
-0.11466
-0.917408
-0.113598
-0.966448
-0.112614
-1.0151
-0.111563
-0.110592
-1.06305
-0.0464049
-0.0706477
-0.115175
-0.0716412
-0.17952
-0.0747457
-0.239442
-0.0734477
-0.29975
-0.0736229
-0.35988
-0.0720782
-0.417027
-0.0726542
-0.471648
-0.0712165
-0.524798
-0.0707831
-0.577001
-0.0698646
-0.628036
-0.0695954
-0.679123
-0.0684505
-0.729303
-0.0679982
-0.779492
-0.066789
-0.829201
-0.0661206
-0.878633
-0.0652266
-0.927549
-0.0646824
-0.976176
-0.0639867
-1.02419
-0.0635492
-0.0628535
-1.07193
-0.0474564
-0.0231913
-0.0988178
-0.0202798
-0.159431
-0.0141325
-0.219144
-0.0137344
-0.278176
-0.0145916
-0.33752
-0.0127341
-0.395658
-0.0145154
-0.452389
-0.0144861
-0.508727
-0.0144449
-0.564075
-0.0145162
-0.619149
-0.0145213
-0.672647
-0.0149531
-0.725631
-0.0150141
-0.777289
-0.0151311
-0.828063
-0.0153468
-0.878185
-0.015104
-0.927665
-0.0152026
-0.976671
-0.0149808
-1.0253
-0.0149211
-0.0148643
-1.07329
-0.0589488
0.0357575
-0.123753
0.0445241
-0.1835
0.0456151
-0.240231
0.0429963
-0.298233
0.0434106
-0.354064
0.0430966
-0.410532
0.0419528
-0.466281
0.0412622
-0.521015
0.0402899
-0.574478
0.0389459
-0.627543
0.0385437
-0.679972
0.037476
-0.732217
0.0372315
-0.783652
0.0363038
-0.83475
0.0357506
-0.884799
0.0349451
-0.934117
0.034116
-0.982819
0.0337211
-1.0308
0.0330618
-1.07847
0.0328034
0.0360571
-0.169427
0.13337
0.131645
-0.632597
0.537009
0.219857
-1.11869
1.03048
0.26213
-1.35595
1.31368
0.274691
-1.40116
1.3886
0.279551
-1.39839
1.39353
0.279366
-1.38408
1.38426
0.279469
-1.36762
1.36752
0.280162
-1.35409
1.3534
0.279843
-1.34102
1.34134
0.280225
-1.32979
1.3294
0.27977
-1.31792
1.31837
0.27823
-1.30651
1.30805
0.276599
-1.2955
1.29713
0.274649
-1.28512
1.28707
0.272854
-1.27331
1.2751
0.269855
-1.26175
1.26475
0.265699
-1.24564
1.2498
0.260897
-1.22974
1.23454
-1.21259
0.256384
1.2171
0.0410709
-0.210498
0.123124
-0.714651
0.195023
-1.19059
0.222927
-1.38385
0.2297
-1.40794
0.231624
-1.40032
0.230617
-1.38307
0.230567
-1.36757
0.22931
-1.35284
0.228622
-1.34033
0.226731
-1.3279
0.224297
-1.31548
0.222257
-1.30447
0.21992
-1.29316
0.217091
-1.28229
0.213461
-1.26968
0.208856
-1.25714
0.203499
-1.24028
0.197648
-1.22389
-1.20713
0.192192
0.0407156
-0.251214
0.114129
-0.788064
0.171531
-1.24799
0.189355
-1.40168
0.192536
-1.41112
0.19064
-1.39842
0.188212
-1.38064
0.185313
-1.36467
0.182797
-1.35032
0.17912
-1.33666
0.175538
-1.32431
0.172386
-1.31233
0.16833
-1.30041
0.163771
-1.28861
0.158822
-1.27734
0.15353
-1.26438
0.147773
-1.25139
0.141247
-1.23376
0.134283
-1.21692
-1.20079
0.127936
0.0340648
-0.285279
0.0957712
-0.84977
0.140731
-1.29295
0.150781
-1.41173
0.151286
-1.41162
0.148231
-1.39537
0.145327
-1.37774
0.142128
-1.36148
0.137839
-1.34603
0.133631
-1.33245
0.129024
-1.31971
0.123172
-1.30648
0.117207
-1.29445
0.11127
-1.28267
0.104891
-1.27096
0.0980948
-1.25759
0.0902535
-1.24355
0.0819022
-1.22541
0.0735351
-1.20856
-1.19268
0.0654256
0.0378074
-0.323086
0.0917143
-0.903677
0.122116
-1.32335
0.125738
-1.41535
0.121989
-1.40788
0.115636
-1.38901
0.109195
-1.3713
0.102397
-1.35468
0.0956425
-1.33928
0.088528
-1.32533
0.0808873
-1.31207
0.0738561
-1.29945
0.0665373
-1.28713
0.0586064
-1.27474
0.0504503
-1.26281
0.041813
-1.24895
0.0330424
-1.23478
0.0240027
-1.21637
0.0146846
-1.19924
-1.18401
0.00601688
0.0321777
-0.355264
0.0797768
-0.951277
0.101963
-1.34554
0.0992764
-1.41266
0.0912428
-1.39984
0.0829353
-1.38071
0.0747
-1.36306
0.066187
-1.34616
0.0574142
-1.3305
0.0482925
-1.31621
0.0394463
-1.30322
0.0298203
-1.28982
0.0198053
-1.27711
0.00993144
-1.26486
-0.000180913
-1.2527
-0.0104682
-1.23866
-0.0212082
-1.22404
-0.0321459
-1.20543
-0.0429086
-1.18847
-1.17368
-0.0532347
0.0276585
-0.382922
0.0645326
-0.988151
0.0752638
-1.35627
0.0687905
-1.40619
0.0590058
-1.39006
0.0489769
-1.37068
0.038506
-1.35259
0.0282598
-1.33592
0.0174286
-1.31967
0.00675363
-1.30554
-0.00446689
-1.292
-0.0155183
-1.27877
-0.0264568
-1.26617
-0.0377654
-1.25355
-0.0493163
-1.24114
-0.061165
-1.22681
-0.0730267
-1.21217
-0.0847788
-1.19368
-0.0968828
-1.17637
-1.16178
-0.108785
0.0248197
-0.407742
0.0568093
-1.02014
0.0626827
-1.36215
0.0530774
-1.39658
0.0400842
-1.37706
0.0269459
-1.35754
0.0135081
-1.33916
-0.000577454
-1.32183
-0.0142563
-1.30599
-0.0284461
-1.29135
-0.0423655
-1.27808
-0.0562346
-1.2649
-0.0703982
-1.25201
-0.0844691
-1.23948
-0.0983297
-1.22728
-0.112144
-1.213
-0.125865
-1.19845
-0.139238
-1.1803
-0.152423
-1.16319
-1.14911
-0.16509
0.0208662
-0.428608
0.0443467
-1.04362
0.040953
-1.35875
0.0258382
-1.38147
0.00979064
-1.36102
-0.00595995
-1.34179
-0.0215201
-1.3236
-0.0363276
-1.30703
-0.0519235
-1.2904
-0.0669956
-1.27628
-0.0821422
-1.26293
-0.0975892
-1.24946
-0.11261
-1.23699
-0.12754
-1.22455
-0.142539
-1.21228
-0.15744
-1.1981
-0.172339
-1.18355
-0.187011
-1.16563
-0.201707
-1.14849
-1.13451
-0.216307
0.018549
-0.447157
0.0363625
-1.06143
0.0291946
-1.35158
0.0128937
-1.36517
-0.00496359
-1.34316
-0.0230293
-1.32372
-0.0415114
-1.30511
-0.0606472
-1.28789
-0.0790556
-1.27199
-0.09801
-1.25732
-0.116781
-1.24416
-0.134939
-1.2313
-0.153298
-1.21863
-0.171497
-1.20635
-0.189116
-1.19467
-0.20633
-1.18089
-0.222858
-1.16702
-0.238847
-1.14964
-0.255004
-1.13233
-1.11873
-0.27079
0.0148272
-0.461984
0.026246
-1.07285
0.0125726
-1.33791
-0.00922317
-1.34337
-0.030864
-1.32152
-0.0520972
-1.30249
-0.0728582
-1.28435
-0.0929422
-1.26781
-0.113616
-1.25132
-0.133743
-1.2372
-0.153629
-1.22428
-0.173831
-1.2111
-0.193479
-1.19898
-0.212892
-1.18694
-0.232108
-1.17545
-0.250871
-1.16212
-0.269255
-1.14864
-0.286771
-1.13213
-0.303968
-1.11514
-1.10145
-0.321243
0.0129577
-0.474942
0.0184862
-1.07838
0.00128269
-1.32071
-0.0211545
-1.32094
-0.044437
-1.29824
-0.0679917
-1.27894
-0.0918276
-1.26052
-0.115654
-1.24398
-0.138906
-1.22806
-0.162481
-1.21362
-0.185888
-1.20087
-0.208616
-1.18837
-0.231185
-1.17641
-0.253478
-1.16465
-0.27522
-1.15371
-0.296344
-1.141
-0.31656
-1.12842
-0.336044
-1.11264
-0.355581
-1.0956
-1.0821
-0.374934
0.0097728
-0.484715
0.0110394
-1.07965
-0.0117576
-1.29791
-0.0388588
-1.29383
-0.0654236
-1.27167
-0.0914962
-1.25286
-0.117151
-1.23486
-0.142743
-1.21839
-0.168362
-1.20244
-0.193704
-1.18828
-0.218768
-1.1758
-0.244066
-1.16307
-0.269071
-1.15141
-0.293653
-1.14007
-0.317772
-1.12959
-0.341311
-1.11746
-0.363995
-1.10574
-0.385127
-1.09151
-0.405775
-1.07495
-1.06152
-0.42635
0.00749
-0.492205
0.00374073
-1.0759
-0.0223283
-1.27184
-0.0513214
-1.26484
-0.0802266
-1.24277
-0.109269
-1.22382
-0.138296
-1.20584
-0.16656
-1.19012
-0.194667
-1.17434
-0.2227
-1.16025
-0.250397
-1.14811
-0.27763
-1.13584
-0.304572
-1.12446
-0.331357
-1.11328
-0.357548
-1.1034
-0.383072
-1.09194
-0.407774
-1.08104
-0.43094
-1.06835
-0.453483
-1.05241
-1.03854
-0.476464
0.00520166
-0.497406
-0.00213046
-1.06857
-0.0307236
-1.24325
-0.0624888
-1.23308
-0.0938838
-1.21137
-0.125011
-1.19269
-0.155902
-1.17494
-0.187214
-1.15881
-0.217754
-1.1438
-0.24845
-1.12955
-0.278664
-1.11789
-0.308673
-1.10583
-0.338701
-1.09444
-0.36844
-1.08354
-0.397647
-1.07419
-0.426143
-1.06344
-0.453974
-1.05321
-0.480093
-1.04223
-0.50478
-1.02772
-1.01394
-0.529383
0.00300619
-0.500413
-0.00952927
-1.05603
-0.0434061
-1.20937
-0.0784236
-1.19806
-0.112256
-1.17754
-0.145972
-1.15898
-0.17934
-1.14158
-0.211808
-1.12634
-0.244672
-1.11093
-0.277197
-1.09702
-0.309647
-1.08544
-0.341628
-1.07385
-0.373128
-1.06294
-0.404942
-1.05173
-0.436525
-1.04261
-0.46744
-1.03252
-0.497851
-1.0228
-0.526486
-1.01359
-0.55309
-1.00112
-0.987193
-0.579835
0.00124299
-0.501656
-0.0145489
-1.04024
-0.04786
-1.17606
-0.0839836
-1.16194
-0.119807
-1.14171
-0.155565
-1.12322
-0.191636
-1.1055
-0.227903
-1.09008
-0.26284
-1.076
-0.298372
-1.06149
-0.333366
-1.05045
-0.367986
-1.03923
-0.402261
-1.02866
-0.436193
-1.0178
-0.470047
-1.00875
-0.503361
-0.99921
-0.536646
-0.989511
-0.569008
-0.98123
-0.598826
-0.971299
-0.957858
-0.628161
-0.00089252
-0.500763
-0.0199826
-1.02115
-0.0592607
-1.13678
-0.0991835
-1.12201
-0.137477
-1.10342
-0.175081
-1.08562
-0.212013
-1.06857
-0.24901
-1.05308
-0.286171
-1.03884
-0.322737
-1.02493
-0.359793
-1.01339
-0.39657
-1.00245
-0.432959
-0.99227
-0.469514
-0.981243
-0.506178
-0.972089
-0.542429
-0.96296
-0.578718
-0.953221
-0.614685
-0.945263
-0.648744
-0.93724
-0.925721
-0.680881
-0.00264925
-0.498114
-0.0249663
-0.998832
-0.0638564
-1.09789
-0.104513
-1.08136
-0.144557
-1.06338
-0.184366
-1.04581
-0.224229
-1.02871
-0.263729
-1.01358
-0.302629
-0.999935
-0.341912
-0.985644
-0.380697
-0.974608
-0.4194
-0.96375
-0.457549
-0.954121
-0.495438
-0.943353
-0.533626
-0.933902
-0.571594
-0.924991
-0.610167
-0.914649
-0.649614
-0.905816
-0.689184
-0.897669
-0.888501
-0.726404
-0.00362528
-0.0281051
-0.0711042
-0.11451
-0.156484
-0.197372
-0.237602
-0.278438
-0.318431
-0.358369
-0.398762
-0.439211
-0.479484
-0.519427
-0.559795
-0.599661
-0.639256
-0.679977
-0.722347
-0.764517
0.198531
-10.4727
10.5306
0.165648
-9.83362
9.8665
0.141111
-9.72582
9.75036
0.124764
-9.36265
9.37899
0.114498
-9.28957
9.29984
0.106958
-9.07519
9.08273
0.0997853
-9.00717
9.01435
0.0930887
-8.86709
8.87378
0.0857306
-8.81899
8.82635
0.0806063
-8.71274
8.71787
0.0791168
-8.67075
8.67224
0.0781785
-8.54936
8.5503
0.0772223
-8.51546
8.51642
0.0676001
-8.52104
8.53067
0.0587764
-8.49372
8.50255
0.0516694
-8.4374
8.44451
0.0442215
-8.52638
8.53383
0.0270684
-7.60057
7.61773
0.0133449
-5.72086
5.73459
-2.34998
2.36332
0.127961
-10.4085
0.0962263
-9.80189
0.0720283
-9.70162
0.0583512
-9.34897
0.0505613
-9.28178
0.0445403
-9.06917
0.0398981
-9.00253
0.0366474
-8.86384
0.0338662
-8.81621
0.0337163
-8.71259
0.0359964
-8.67303
0.0391848
-8.55255
0.042787
-8.51906
0.0379291
-8.51619
0.0347085
-8.4905
0.0324035
-8.43509
0.0303944
-8.52437
0.0205674
-7.59075
0.0112896
-5.71159
-2.33869
0.0631915
-10.3437
0.0305332
-9.76923
0.00688442
-9.67797
-0.0066837
-9.3354
-0.0151195
-9.27335
-0.0187112
-9.06558
-0.0197523
-9.00149
-0.0193199
-8.86427
-0.0175933
-8.81794
-0.0133103
-8.71688
-0.00740425
-8.67894
0.000333422
-8.56029
0.00881042
-8.52754
0.0088552
-8.51623
0.0111673
-8.49281
0.0135906
-8.43752
0.0163861
-8.52717
0.013327
-7.58769
0.00943
-5.70769
-2.32926
-0.00559534
-10.2727
-0.0400976
-9.73473
-0.0656149
-9.65246
-0.0768772
-9.32414
-0.0808576
-9.26937
-0.0818822
-9.06455
-0.0794177
-9.00395
-0.0747087
-8.86898
-0.0690118
-8.82363
-0.060932
-8.72496
-0.0510049
-8.68886
-0.0386681
-8.57262
-0.025346
-8.54086
-0.0199927
-8.52159
-0.0121294
-8.50068
-0.00500031
-8.44465
0.00301167
-8.53518
0.00671668
-7.59139
0.00633792
-5.70731
-2.32292
-0.0679792
-10.1987
-0.103656
-9.69905
-0.127696
-9.62842
-0.140846
-9.31099
-0.145511
-9.2647
-0.144274
-9.06579
-0.138256
-9.00997
-0.129758
-8.87748
-0.120041
-8.83335
-0.108269
-8.73673
-0.0943336
-8.7028
-0.0775077
-8.58945
-0.0595878
-8.55878
-0.0486962
-8.53248
-0.0350679
-8.51431
-0.0233267
-8.45639
-0.0103895
-8.54812
-0.000174157
-7.60161
0.00471106
-5.7122
-2.31821
-0.130518
-10.1214
-0.17335
-9.65622
-0.20108
-9.60069
-0.212149
-9.29992
-0.212278
-9.26457
-0.206998
-9.07107
-0.196919
-9.02005
-0.184181
-8.89021
-0.170757
-8.84677
-0.155359
-8.75213
-0.137444
-8.72071
-0.116382
-8.61051
-0.0939217
-8.58124
-0.0776425
-8.54876
-0.0582809
-8.53367
-0.0415175
-8.47315
-0.0238632
-8.56577
-0.00707512
-7.6184
0.00242926
-5.7217
-2.31578
-0.195832
-10.0344
-0.241517
-9.61053
-0.267061
-9.57514
-0.276985
-9.28999
-0.275287
-9.26627
-0.267957
-9.0784
-0.2549
-9.03311
-0.238438
-8.90667
-0.220812
-8.8644
-0.201684
-8.77125
-0.180073
-8.74232
-0.154827
-8.63576
-0.12775
-8.60832
-0.106478
-8.57003
-0.0813829
-8.55876
-0.0593637
-8.49517
-0.037364
-8.58777
-0.0146674
-7.64109
0.000565222
-5.73693
-2.31521
-0.253101
-9.94637
-0.305755
-9.55788
-0.336359
-9.54454
-0.345266
-9.28109
-0.340184
-9.27135
-0.328945
-9.08964
-0.312094
-9.04996
-0.291804
-8.92696
-0.270433
-8.88577
-0.247766
-8.79392
-0.222393
-8.7677
-0.192952
-8.6652
-0.161328
-8.63994
-0.135147
-8.59621
-0.104661
-8.58925
-0.0771745
-8.52266
-0.050519
-8.61443
-0.0221523
-7.66946
-0.00193073
-5.75715
-2.31714
-0.316413
-9.84627
-0.374389
-9.4999
-0.404366
-9.51456
-0.409467
-9.27599
-0.401668
-9.27915
-0.388633
-9.10268
-0.368929
-9.06966
-0.345067
-8.95083
-0.319762
-8.91108
-0.293266
-8.82042
-0.264082
-8.79688
-0.230846
-8.69843
-0.194532
-8.67625
-0.163355
-8.62739
-0.127833
-8.62477
-0.095267
-8.55522
-0.0636666
-8.64603
-0.0293613
-7.70376
-0.00359467
-5.78292
-2.32074
-0.373117
-9.74394
-0.436417
-9.4366
-0.471085
-9.47989
-0.474585
-9.27249
-0.463299
-9.29044
-0.446891
-9.11908
-0.424246
-9.09231
-0.397119
-8.97795
-0.368029
-8.94017
-0.337701
-8.85074
-0.305052
-8.82953
-0.268406
-8.73508
-0.227318
-8.71734
-0.191192
-8.66351
-0.150886
-8.66508
-0.113628
-8.59248
-0.0771613
-8.68249
-0.0366787
-7.74425
-0.00556248
-5.81404
-2.3263
-0.431743
-9.63344
-0.499541
-9.36881
-0.535411
-9.44402
-0.536147
-9.27175
-0.522941
-9.30365
-0.504863
-9.13716
-0.479447
-9.11772
-0.448888
-9.00851
-0.415996
-8.97306
-0.381672
-8.88507
-0.345188
-8.86601
-0.304963
-8.77531
-0.259295
-8.76301
-0.218668
-8.70414
-0.173439
-8.71031
-0.131565
-8.63435
-0.0906691
-8.72339
-0.04385
-7.79107
-0.00703229
-5.85086
-2.33333
-0.489485
-9.51889
-0.560619
-9.29767
-0.599552
-9.40509
-0.598555
-9.27275
-0.581674
-9.32053
-0.560664
-9.15817
-0.532888
-9.1455
-0.499317
-9.04208
-0.462724
-9.00965
-0.424644
-8.92315
-0.384152
-8.90651
-0.340692
-8.81877
-0.290832
-8.81287
-0.245753
-8.74922
-0.195808
-8.76025
-0.149293
-8.68087
-0.104073
-8.76861
-0.0511484
-7.84399
-0.0085889
-5.89341
-2.34192
-0.54601
-9.39923
-0.61829
-9.22539
-0.658595
-9.36479
-0.657522
-9.27382
-0.639156
-9.33889
-0.616041
-9.18129
-0.585825
-9.17571
-0.549307
-9.0786
-0.50903
-9.04993
-0.467039
-8.96514
-0.422335
-8.95121
-0.375433
-8.86567
-0.321468
-8.86684
-0.272154
-8.79853
-0.217843
-8.81456
-0.166737
-8.73198
-0.117016
-8.81833
-0.05825
-7.90276
-0.0100113
-5.94165
-2.35193
-0.602692
-9.273
-0.676487
-9.1516
-0.718479
-9.32279
-0.71706
-9.27524
-0.695607
-9.36035
-0.669638
-9.20726
-0.637178
-9.20817
-0.597652
-9.11813
-0.554081
-9.0935
-0.508715
-9.0105
-0.460015
-8.99991
-0.409314
-8.91637
-0.351434
-8.92472
-0.298315
-8.85165
-0.239772
-8.8731
-0.184117
-8.78763
-0.130065
-8.87238
-0.06551
-7.96731
-0.0114936
-5.99567
-2.36343
-0.658611
-9.14378
-0.731122
-9.07909
-0.773352
-9.28056
-0.772988
-9.2756
-0.750638
-9.3827
-0.722096
-9.2358
-0.68709
-9.24318
-0.645123
-9.16009
-0.597951
-9.14067
-0.549115
-9.05934
-0.496904
-9.05212
-0.442383
-8.97089
-0.380571
-8.98653
-0.323934
-8.90829
-0.261574
-8.93546
-0.201445
-8.84776
-0.142885
-8.93094
-0.072631
-8.03757
-0.0128839
-6.05542
-2.37631
-0.71404
-9.00957
-0.785703
-9.00742
-0.827935
-9.23833
-0.828938
-9.2746
-0.804658
-9.40698
-0.773144
-9.26731
-0.735797
-9.28053
-0.691201
-9.20469
-0.640936
-9.19094
-0.588443
-9.11183
-0.532516
-9.10805
-0.474515
-9.02889
-0.409085
-9.05196
-0.349115
-8.96826
-0.283553
-9.00103
-0.219047
-8.91227
-0.155712
-8.99428
-0.079779
-8.1135
-0.0139315
-6.12126
-2.39024
-0.76886
-8.86887
-0.838661
-8.93762
-0.879029
-9.19796
-0.881465
-9.27216
-0.857259
-9.43118
-0.822641
-9.30193
-0.782549
-9.32062
-0.735847
-9.25139
-0.682243
-9.24454
-0.626535
-9.16754
-0.567085
-9.1675
-0.505683
-9.09029
-0.436728
-9.12091
-0.373494
-9.03149
-0.305312
-9.06921
-0.236453
-8.98113
-0.168381
-9.06235
-0.0869328
-8.19495
-0.0149394
-6.19326
-2.40518
-0.826215
-8.72354
-0.892073
-8.87176
-0.929165
-9.16087
-0.932592
-9.26874
-0.90819
-9.45558
-0.870907
-9.33921
-0.828013
-9.36351
-0.778737
-9.30067
-0.722662
-9.30062
-0.663464
-9.22674
-0.600253
-9.23071
-0.535939
-9.15461
-0.464195
-9.19266
-0.397705
-9.09798
-0.326333
-9.14058
-0.253206
-9.05425
-0.181056
-9.1345
-0.094073
-8.28193
-0.015385
-6.27195
-2.42057
-0.876459
-8.57348
-0.946488
-8.80173
-0.98022
-9.12714
-0.983896
-9.26506
-0.959637
-9.47984
-0.919045
-9.3798
-0.872701
-9.40986
-0.820778
-9.35259
-0.761404
-9.35999
-0.699264
-9.28888
-0.632461
-9.29751
-0.565259
-9.22181
-0.490349
-9.26757
-0.420992
-9.16734
-0.347488
-9.21409
-0.270281
-9.13146
-0.192721
-9.21206
-0.100722
-8.37393
-0.0170806
-6.35559
-2.43765
-0.918691
-8.41931
-0.990257
-8.73017
-1.02127
-9.09612
-1.02638
-9.25995
-1.00462
-9.5016
-0.96273
-9.4217
-0.9143
-9.45829
-0.860117
-9.40677
-0.79892
-9.42119
-0.733602
-9.3542
-0.663231
-9.36788
-0.59295
-9.29209
-0.516035
-9.34448
-0.4429
-9.24047
-0.367321
-9.28966
-0.286969
-9.21181
-0.204462
-9.29457
-0.106995
-8.47139
-0.0155581
-6.44702
-2.45321
6.9106
-7.76813
-7.56178
6.1122
-7.93176
5.36767
-8.35159
4.66669
-8.55897
3.97308
-8.80799
3.38635
-8.83498
2.88319
-8.95512
2.4442
-8.96778
2.0579
-9.03489
1.73428
-9.03058
1.44404
-9.07765
1.22272
-9.07077
1.01841
-9.14017
0.85781
-9.07987
0.689907
-9.12176
0.591185
-9.11309
0.413521
-9.1169
0.330839
-8.38871
0.207491
-6.32368
-2.24572
3.84363
-7.53929
-4.07248
3.61483
-7.70296
3.30879
-8.04556
2.98966
-8.23984
2.63091
-8.44924
2.32368
-8.52774
2.01926
-8.6507
1.75692
-8.70544
1.50931
-8.78728
1.3088
-8.83006
1.12301
-8.89185
0.973919
-8.92168
0.806705
-8.97295
0.694059
-8.96723
0.590183
-9.01788
0.49645
-9.01936
0.350932
-8.97139
0.255152
-8.29293
-0.0297596
-6.03877
-2.27548
2.50639
-7.57347
-2.47221
2.5477
-7.74427
2.46836
-7.96622
2.33576
-8.10725
2.14654
-8.26002
1.96975
-8.35096
1.77237
-8.45332
1.59635
-8.52943
1.41824
-8.60918
1.25611
-8.66793
1.09009
-8.72584
0.936019
-8.76761
0.770991
-8.80793
0.648898
-8.84513
0.522802
-8.89179
0.414153
-8.91071
0.337424
-8.89466
0.228953
-8.18446
0.0299419
-5.83975
-2.24553
1.49249
-7.70981
-1.35614
1.56132
-7.8131
1.54271
-7.9476
1.49134
-8.05587
1.40023
-8.16892
1.30049
-8.25122
1.18609
-8.33891
1.07368
-8.41702
0.952947
-8.48844
0.839557
-8.55454
0.723595
-8.60988
0.618758
-8.66278
0.524778
-8.71395
0.436563
-8.75692
0.344124
-8.79935
0.273965
-8.84055
0.1946
-8.81529
0.145334
-8.1352
0.0819118
-5.77633
-2.16362
0.84472
-7.8128
-0.741736
0.926392
-7.89477
0.976712
-7.99792
0.995502
-8.07466
0.967676
-8.14109
0.923444
-8.20699
0.862155
-8.27762
0.800099
-8.35497
0.727205
-8.41555
0.648554
-8.47588
0.571147
-8.53247
0.495603
-8.58723
0.418104
-8.63645
0.34028
-8.67909
0.264473
-8.72354
0.190449
-8.76652
0.108245
-8.73309
0.0806257
-8.10758
0.0599979
-5.7557
-2.10362
0.424952
-7.91439
-0.323365
0.503856
-7.97367
0.534018
-8.02809
0.536585
-8.07723
0.518559
-8.12306
0.495936
-8.18436
0.459005
-8.24069
0.415345
-8.31131
0.367556
-8.36776
0.315861
-8.42419
0.259852
-8.47646
0.195608
-8.52299
0.131906
-8.57274
0.0734589
-8.62065
0.0183642
-8.66845
-0.0314928
-8.71667
-0.0797831
-8.6848
-0.0602864
-8.12707
0.0253505
-5.84134
-2.07827
0.105483
-7.97832
-0.0415471
0.147928
-8.01612
0.173175
-8.05333
0.203639
-8.10769
0.228728
-8.14815
0.236311
-8.19195
0.22747
-8.23185
0.201208
-8.28504
0.165363
-8.33191
0.120683
-8.37951
0.0696609
-8.42544
0.0172573
-8.47058
-0.034492
-8.521
-0.08789
-8.56725
-0.139256
-8.61708
-0.196001
-8.65992
-0.239222
-8.64158
-0.196144
-8.17015
-0.0230247
-6.01446
-2.1013
-0.0901019
-8.03416
0.145941
-0.04557
-8.06065
-0.0123222
-8.08658
0.000596256
-8.12061
0.00215711
-8.14971
-0.010243
-8.17955
-0.0283806
-8.21371
-0.0529332
-8.26049
-0.0786286
-8.30622
-0.11545
-8.34269
-0.155009
-8.38588
-0.197835
-8.42776
-0.247027
-8.4718
-0.300389
-8.51389
-0.359825
-8.55765
-0.414052
-8.60569
-0.443794
-8.61184
-0.379641
-8.2343
-0.113595
-6.28051
-2.21489
-0.22123
-8.06219
0.249254
-0.200509
-8.08137
-0.18812
-8.09897
-0.183081
-8.12565
-0.181595
-8.1512
-0.180334
-8.18081
-0.183239
-8.2108
-0.202509
-8.24122
-0.233586
-8.27514
-0.269584
-8.30669
-0.312632
-8.34283
-0.365043
-8.37535
-0.420936
-8.41591
-0.481447
-8.45338
-0.540385
-8.49871
-0.601442
-8.54464
-0.648132
-8.56515
-0.58754
-8.2949
-0.245857
-6.62219
-2.46075
-0.297556
-8.08235
0.31772
-0.283846
-8.09508
-0.273516
-8.1093
-0.271444
-8.12772
-0.274752
-8.14789
-0.286508
-8.16905
-0.303725
-8.19359
-0.333014
-8.21193
-0.370701
-8.23745
-0.41301
-8.26438
-0.460248
-8.29559
-0.509654
-8.32594
-0.566598
-8.35897
-0.631343
-8.38863
-0.703904
-8.42615
-0.783377
-8.46516
-0.852627
-8.4959
-0.837118
-8.3104
-0.460331
-6.99898
-2.92108
-0.339672
-8.0868
0.344119
-0.33927
-8.09549
-0.341397
-8.10717
-0.349984
-8.11914
-0.362726
-8.13515
-0.380924
-8.15085
-0.406488
-8.16802
-0.434598
-8.18382
-0.467841
-8.20421
-0.507985
-8.22424
-0.555531
-8.24805
-0.613608
-8.26786
-0.682741
-8.28983
-0.760505
-8.31087
-0.847633
-8.33902
-0.954381
-8.35841
-1.06197
-8.38831
-1.08099
-8.29139
-0.74341
-7.33655
-3.66449
-0.358694
-8.08574
0.357641
-0.363098
-8.09108
-0.369683
-8.10059
-0.379972
-8.10885
-0.394698
-8.12042
-0.413826
-8.13172
-0.437362
-8.14449
-0.468163
-8.15302
-0.507486
-8.16489
-0.55307
-8.17865
-0.607418
-8.1937
-0.668612
-8.20667
-0.737696
-8.22075
-0.814095
-8.23447
-0.909002
-8.24411
-1.01349
-8.25392
-1.14998
-8.25182
-1.23731
-8.20406
-0.999841
-7.57402
-4.66433
-0.342711
-8.07755
0.334516
-0.353131
-8.08066
-0.366306
-8.08741
-0.382058
-8.0931
-0.401517
-8.10096
-0.424746
-8.1085
-0.451618
-8.11762
-0.480129
-8.12451
-0.510481
-8.13454
-0.547832
-8.1413
-0.593366
-8.14817
-0.646254
-8.15378
-0.709777
-8.15723
-0.784086
-8.16016
-0.871678
-8.15652
-0.969387
-8.15621
-1.0843
-8.13691
-1.17795
-8.11041
-0.993027
-7.75895
-5.65736
-0.289729
-8.06705
0.279233
-0.300592
-8.0698
-0.31339
-8.07462
-0.327922
-8.07856
-0.344862
-8.08402
-0.365661
-8.0877
-0.38928
-8.094
-0.415784
-8.09801
-0.446587
-8.10373
-0.482955
-8.10493
-0.522437
-8.10868
-0.569519
-8.1067
-0.619428
-8.10732
-0.679127
-8.10046
-0.741696
-8.09395
-0.823055
-8.07485
-0.907289
-8.05267
-0.984576
-8.03312
-0.861743
-7.88178
-6.5191
-0.213918
-8.05696
0.203831
-0.225246
-8.05847
-0.238716
-8.06114
-0.253932
-8.06335
-0.270515
-8.06744
-0.289807
-8.0684
-0.312463
-8.07134
-0.33779
-8.07268
-0.366332
-8.07519
-0.396683
-8.07458
-0.428778
-8.07659
-0.463417
-8.07206
-0.50003
-8.0707
-0.541896
-8.0586
-0.586522
-8.04933
-0.632101
-8.02927
-0.669179
-8.01559
-0.713257
-7.98904
-0.657917
-7.93712
-7.17702
-0.146731
-8.04488
0.13465
-0.158614
-8.04659
-0.171447
-8.04831
-0.18546
-8.04933
-0.201345
-8.05156
-0.216503
-8.05325
-0.232734
-8.05511
-0.251397
-8.05402
-0.270909
-8.05568
-0.292415
-8.05308
-0.315334
-8.05367
-0.338404
-8.04899
-0.361325
-8.04778
-0.381056
-8.03886
-0.395007
-8.03537
-0.407198
-8.01708
-0.412765
-8.01003
-0.421941
-7.97987
-0.385862
-7.9732
-7.56288
-0.0856832
-8.03427
0.0750684
-0.0972375
-8.03503
-0.108929
-8.03662
-0.121155
-8.03711
-0.135614
-8.0371
-0.151413
-8.03745
-0.16767
-8.03885
-0.183257
-8.03843
-0.199408