/*--------------------------------*- C++ -*----------------------------------*\
  =========                 |
  \\      /  F ield         | OpenFOAM: The Open Source CFD Toolbox
   \\    /   O peration     | Website:  https://openfoam.org
    \\  /    A nd           | Version:  9
     \\/     M anipulation  |
\*---------------------------------------------------------------------------*/
FoamFile
{
    format      ascii;
    class       volScalarField;
    location    "9.4";
    object      nut;
}
// * * * * * * * * * * * * * * * * * * * * * * * * * * * * * * * * * * * * * //

dimensions      [0 2 -1 0 0 0 0];

internalField   nonuniform List<scalar> 
46400
(
0.0174388
0.00437798
0.00119173
0.00138887
0.00128543
0.00129998
0.00122526
0.001195
0.00113346
0.00110138
0.00105775
0.0010466
0.00101788
0.000973399
0.000941179
0.000947796
0.000924942
0.000827825
0.00112333
0.000943737
0.0170214
0.00406303
0.00116535
0.001454
0.00131855
0.00132194
0.0012577
0.00122069
0.00116052
0.00112323
0.00109009
0.00104958
0.00101079
0.000979873
0.000943405
0.000914525
0.000856641
0.000769511
0.000997411
0.000889422
0.016507
0.00389949
0.00126315
0.00145656
0.00132602
0.00132829
0.00125606
0.00123212
0.00117499
0.00113035
0.00108153
0.00105875
0.00102885
0.000991272
0.000971956
0.000958345
0.000910616
0.000815302
0.0010687
0.000946057
0.0158644
0.00478896
0.00131256
0.00150363
0.00137567
0.00136476
0.00130427
0.00126205
0.0012131
0.00116501
0.00111859
0.00106708
0.00102043
0.000971518
0.000947537
0.000946943
0.00093443
0.000843209
0.00110945
0.00101911
0.015295
0.00460506
0.00142949
0.00153813
0.00139501
0.00136776
0.00129935
0.00126054
0.00121433
0.00117786
0.00113473
0.00109055
0.00106571
0.000999842
0.000943032
0.000920316
0.000900226
0.000835247
0.00108663
0.000991907
0.0143683
0.00416743
0.0014251
0.00153998
0.00141505
0.00138474
0.00132855
0.00127765
0.00123568
0.00119153
0.00116958
0.00110731
0.00107887
0.00107494
0.0010163
0.000946747
0.000925563
0.000836033
0.0010843
0.0010372
0.0129495
0.00330268
0.00145694
0.00152217
0.00140906
0.00135259
0.00131262
0.00125564
0.00121956
0.00117674
0.00116445
0.00111762
0.00105527
0.00101447
0.00102802
0.000983829
0.000924066
0.000854728
0.00102415
0.000984999
0.0101103
0.0025008
0.001501
0.00147579
0.00142393
0.00133802
0.00129605
0.00124507
0.00120183
0.00114597
0.00115475
0.00117081
0.00114542
0.00106295
0.00102654
0.00102956
0.000976226
0.000900053
0.00106454
0.000993808
0.00820131
0.00211627
0.0015072
0.00146628
0.00141389
0.00135397
0.00129455
0.00122643
0.00120453
0.0010951
0.00102319
0.00100989
0.00103202
0.00102946
0.00099239
0.000979078
0.000975624
0.000908706
0.00106261
0.00104518
0.00638903
0.0017914
0.00153202
0.00148718
0.00147646
0.00140309
0.00136536
0.00126946
0.00126417
0.00124939
0.00115472
0.00106386
0.0010191
0.000989489
0.000967493
0.00093107
0.000897806
0.000849564
0.000945142
0.00094375
0.0053353
0.00160193
0.0014809
0.00141124
0.00141143
0.00139356
0.00136891
0.00127517
0.00120396
0.00118998
0.0012018
0.00114351
0.00110367
0.00106394
0.00103378
0.00101778
0.000984422
0.000928386
0.00101275
0.00097064
0.00441088
0.00154899
0.00154671
0.00142702
0.00134787
0.00131481
0.00140051
0.00138241
0.00130787
0.00120198
0.00115737
0.00112951
0.00106858
0.00103481
0.00100041
0.00096908
0.000955084
0.000904367
0.000992876
0.000969978
0.00415511
0.00157037
0.00158796
0.00150085
0.00141413
0.00120368
0.00118897
0.00121643
0.0012413
0.00124036
0.00119192
0.0011646
0.00113972
0.00107315
0.00104868
0.00100852
0.000973126
0.000925476
0.000978812
0.000961799
0.00427546
0.00168728
0.00163596
0.00157845
0.00159494
0.00144038
0.00126585
0.00118134
0.00112984
0.00110514
0.00110592
0.00107804
0.00107153
0.00105446
0.00100814
0.000994937
0.000964627
0.000917097
0.000977166
0.000950168
0.00424856
0.00149507
0.00131882
0.0013117
0.00142233
0.00147656
0.00144907
0.00136915
0.00130918
0.00123541
0.0011706
0.00115147
0.00110763
0.00108266
0.00105527
0.00101132
0.000983589
0.000928176
0.000968998
0.000953292
0.00365314
0.00181157
0.00152624
0.00143206
0.00138403
0.00139818
0.00136275
0.00135131
0.00130291
0.00126403
0.00120219
0.00114069
0.00111898
0.00107434
0.00105176
0.001027
0.000977869
0.000933964
0.000946116
0.000925103
0.00244193
0.00162953
0.00167845
0.00151272
0.00139032
0.00136674
0.00129967
0.00131062
0.00126578
0.00122966
0.00121576
0.00114881
0.00112714
0.00109045
0.00106005
0.00104474
0.00101718
0.000958863
0.000985939
0.000946908
0.00133564
0.00157672
0.00180364
0.00165099
0.00159118
0.00141159
0.00139772
0.0012794
0.00128962
0.00124003
0.00121186
0.0011722
0.0011349
0.00108689
0.00105859
0.00101842
0.00100459
0.000946872
0.000973237
0.00093118
0.0017101
0.00163179
0.0015541
0.0014484
0.00152201
0.0013974
0.00143561
0.00130674
0.00133243
0.00124943
0.00125864
0.00120862
0.00117687
0.00113965
0.00110156
0.00106576
0.00102908
0.000968508
0.000989215
0.00095083
0.00306687
0.00169047
0.0015036
0.00146867
0.00146815
0.00150892
0.00145557
0.00138974
0.00133717
0.00126152
0.00121674
0.00116182
0.00113322
0.00110639
0.00107144
0.00104752
0.00102354
0.000974794
0.000991747
0.000962998
0.001438
0.00405146
0.0091176
0.0101839
0.00637378
0.00241455
0.000426171
0.000163902
0.000270558
0.000391372
0.00037292
0.000301392
0.000306334
0.000315465
0.000296778
0.000298126
0.00029317
0.000304548
0.000292196
0.000335432
0.00120291
0.00661631
0.010413
0.00868852
0.00426301
0.000946661
0.000168288
0.000262
0.000375107
0.000396693
0.000362742
0.000353406
0.000321076
0.0003352
0.000338231
0.000360276
0.000340532
0.000297496
0.000256976
0.000359887
0.00259827
0.00865155
0.0107956
0.00710664
0.00214445
0.000146659
0.000185617
0.000365071
0.000429675
0.00043388
0.000401206
0.000360912
0.000348238
0.000384325
0.000367661
0.0003362
0.000282473
0.000278143
0.000330603
0.00045019
0.00470044
0.0100423
0.0104132
0.00540243
0.000754828
0.000213954
0.000376731
0.000463503
0.000493692
0.000445469
0.000420629
0.000389599
0.000383818
0.000397376
0.000351853
0.000370929
0.000358087
0.000385359
0.0004549
0.000494004
0.00682791
0.0110666
0.00940356
0.00329759
0.000201563
0.000285485
0.00049048
0.000537851
0.000488271
0.000488774
0.000457839
0.000428867
0.000420164
0.000437155
0.000423742
0.000428326
0.000360533
0.000387761
0.000469157
0.000531556
0.00866513
0.0116904
0.00836158
0.00137731
0.000282526
0.000511504
0.000590351
0.000565835
0.000552295
0.000532525
0.000504418
0.000464639
0.000464751
0.000474365
0.000417978
0.000420891
0.000390528
0.000496773
0.00059084
0.000582246
0.0107284
0.0117489
0.00729731
0.000559892
0.000281409
0.000634443
0.000672649
0.000610223
0.000608638
0.000583152
0.00054128
0.000510206
0.000499937
0.000492364
0.000474809
0.000512555
0.000463676
0.000535852
0.000565019
0.000549863
0.0134273
0.0118079
0.00527784
0.000325995
0.000542904
0.000727704
0.000728968
0.000682515
0.000648951
0.000623616
0.000591342
0.000554416
0.00055086
0.000553289
0.000520171
0.000508059
0.000449847
0.000572348
0.000635341
0.000608487
0.014726
0.011667
0.00332038
0.000139412
0.000693825
0.000820516
0.000763436
0.000704432
0.000701521
0.000675395
0.000635085
0.000602467
0.000584635
0.00056402
0.000539218
0.000586316
0.000567981
0.000651601
0.000642991
0.000592606
0.0155924
0.0112594
0.0022559
0.000243767
0.000855967
0.000861327
0.000831794
0.00079615
0.000751565
0.000713765
0.000680184
0.000644156
0.000633582
0.000630894
0.00062934
0.000615203
0.000541473
0.000673209
0.000661249
0.000640451
0.0164629
0.0109649
0.00134122
0.000459535
0.000931348
0.000934176
0.000879347
0.000804854
0.000795551
0.000764355
0.000723918
0.000696435
0.000669303
0.000643549
0.000615774
0.000636941
0.000624932
0.000717736
0.000657188
0.000616023
0.0170455
0.010484
0.00108978
0.000601871
0.0010229
0.000966419
0.00095317
0.000893216
0.000849906
0.000807941
0.000771684
0.000733816
0.000710065
0.000703665
0.000720341
0.000705692
0.000625142
0.000723408
0.000660657
0.000657726
0.0176496
0.0101372
0.000966722
0.000832362
0.00109241
0.00101831
0.000993775
0.000915385
0.000886968
0.000852107
0.000809263
0.000787857
0.000757119
0.000721913
0.000691619
0.000695824
0.000677509
0.000757245
0.000644511
0.000646184
0.0180084
0.00970184
0.00150838
0.000931977
0.00113538
0.00105494
0.00104386
0.000983457
0.000936936
0.000898559
0.000857925
0.000819572
0.000779104
0.000769341
0.000789838
0.000769466
0.000697579
0.000760057
0.00064504
0.000677326
0.0182216
0.00943101
0.00184978
0.00102489
0.00121043
0.00110052
0.00109672
0.00102492
0.000981121
0.000941521
0.000895267
0.000878565
0.000849518
0.000804493
0.000774014
0.000771236
0.000749788
0.000798987
0.000623989
0.000675472
0.0183992
0.00925826
0.00202897
0.00111171
0.00124992
0.00113779
0.00110754
0.00106241
0.00101242
0.000983039
0.000939687
0.000902433
0.000854732
0.000841742
0.000852337
0.000826699
0.000773833
0.000798906
0.000621613
0.000703473
0.0183442
0.00865488
0.00162339
0.00110884
0.0012659
0.00118184
0.00115916
0.00111528
0.00106074
0.00102603
0.000977284
0.000963653
0.000936972
0.000888048
0.000856041
0.000850168
0.000845181
0.000840574
0.000600768
0.000713115
0.0183074
0.00783912
0.00191625
0.00123186
0.00129581
0.00122642
0.00115778
0.00112568
0.00107709
0.00105473
0.00101692
0.000979068
0.000934405
0.000922247
0.000917933
0.000890431
0.000878905
0.000868104
0.000626541
0.000766787
0.0180595
0.00642042
0.00132098
0.00125029
0.00127298
0.00125312
0.00119831
0.00116994
0.0011127
0.00108703
0.00104206
0.00103221
0.0010072
0.000964486
0.00093401
0.000935978
0.000954216
0.000935474
0.000648247
0.000764994
0.0178113
0.00585007
0.00156955
0.00137183
0.00130783
0.00129377
0.00121073
0.00117939
0.00112725
0.00110723
0.00108232
0.00104954
0.00101756
0.00100941
0.000993029
0.000991824
0.00100823
0.0010101
0.000837998
0.000866275
0.00339602
0.00221681
0.00188106
0.00155758
0.00128601
0.00100319
0.000944993
0.00088337
0.000750949
0.000806453
0.000726475
0.000683191
0.000685238
0.000717196
0.000579553
0.000490767
0.00022071
0.00543169
0.010545
0.0160963
0.00351534
0.00220265
0.00180613
0.00165913
0.00134513
0.00103199
0.000984147
0.000932829
0.000786215
0.000801761
0.00070809
0.000677898
0.000691021
0.000717762
0.000494646
0.000465338
0.000159583
0.00543729
0.0104793
0.0160942
0.00384124
0.00215273
0.0019882
0.00165092
0.00130067
0.00103278
0.000972818
0.00091927
0.000760306
0.000799724
0.000724999
0.000703117
0.000724354
0.000733285
0.000566349
0.00050531
0.000288894
0.00549081
0.0105458
0.015923
0.00382618
0.00219718
0.0019415
0.00171168
0.00135665
0.00109647
0.00103144
0.000969367
0.000782908
0.000790141
0.000711659
0.000700907
0.000733202
0.000728929
0.000507767
0.000480851
0.000266895
0.0054883
0.010469
0.0159012
0.00392195
0.00224471
0.00210763
0.00164456
0.00133096
0.00111132
0.00100813
0.000949652
0.000765608
0.000782405
0.000725963
0.000732282
0.000766536
0.000741909
0.000533522
0.0005214
0.000336429
0.00551123
0.010508
0.0157787
0.00407142
0.00228328
0.00205464
0.00166548
0.0013704
0.00118731
0.00108872
0.00100346
0.000782894
0.000766174
0.000715828
0.000734803
0.000775179
0.000730807
0.000504182
0.000500911
0.000341137
0.00550496
0.0104544
0.0157856
0.00407045
0.00240313
0.00221154
0.00160573
0.0013846
0.00121673
0.00106433
0.000966552
0.000766869
0.000752407
0.000722546
0.000769375
0.000807148
0.000739268
0.000505774
0.000550263
0.000357342
0.00550337
0.0104648
0.0156707
0.00426527
0.00241202
0.00214251
0.0016273
0.00140356
0.00128589
0.00114281
0.00101662
0.000772767
0.000731911
0.000711633
0.000773399
0.000815355
0.000720573
0.000479021
0.000533049
0.00037233
0.005484
0.0104184
0.0156867
0.0041179
0.00248988
0.00226607
0.00164439
0.00143715
0.00134834
0.00114295
0.000980224
0.000761698
0.000718542
0.000709707
0.000802064
0.000839327
0.000727779
0.000482667
0.000584639
0.000406049
0.00548159
0.010446
0.0155881
0.00449764
0.00244333
0.00216767
0.00164966
0.00147162
0.00141351
0.00120783
0.00101603
0.000756786
0.000699555
0.000699966
0.000799973
0.000840124
0.00070686
0.000467077
0.000566626
0.000455027
0.00545797
0.0104267
0.0155807
0.00443652
0.00262219
0.00228023
0.00164646
0.00146599
0.00145309
0.0012165
0.000993215
0.00076139
0.000694018
0.000697326
0.000818019
0.000845164
0.000707146
0.000482906
0.000614359
0.000529879
0.00545422
0.0104159
0.0155235
0.00460304
0.00254816
0.00223177
0.00172582
0.00154486
0.00154074
0.00127249
0.00102006
0.000755136
0.000680316
0.000693739
0.000808882
0.000828163
0.000696469
0.000473684
0.000596998
0.00062976
0.00543699
0.0104278
0.0155133
0.00474942
0.00271331
0.0022958
0.00170611
0.00149239
0.00151944
0.00125556
0.0010125
0.000774458
0.000685664
0.000691382
0.00081808
0.000837698
0.000690966
0.000482956
0.000642217
0.000695065
0.00543207
0.0104124
0.0155035
0.00481582
0.00264018
0.00227166
0.00180212
0.00159012
0.00160875
0.00129286
0.00103636
0.000775471
0.000682949
0.000686882
0.00080894
0.000810219
0.000678577
0.000486903
0.000622387
0.000696655
0.00541647
0.0104396
0.0155121
0.00501839
0.00281203
0.0023093
0.00178144
0.00153035
0.00154205
0.00125782
0.00103584
0.000805076
0.000703111
0.000681536
0.000812796
0.000832611
0.000674756
0.000478098
0.000660011
0.00075866
0.00540633
0.0104146
0.015504
0.00511927
0.00274308
0.00229024
0.00187086
0.00159462
0.001595
0.00126801
0.00105289
0.000814805
0.000710411
0.000674819
0.000797365
0.000791914
0.000654103
0.000500749
0.000655305
0.000755468
0.00533447
0.0104751
0.0155351
0.00531275
0.00293569
0.00231357
0.00184732
0.00156511
0.00151973
0.00122968
0.00105453
0.000850545
0.000743554
0.000677151
0.000791068
0.000810751
0.000659137
0.000506507
0.00068538
0.000811607
0.00527475
0.0104077
0.0155624
0.00540992
0.00285477
0.00223492
0.00192111
0.00161554
0.0015697
0.00123333
0.00106999
0.00088333
0.000771664
0.000694354
0.000773891
0.000743242
0.000639391
0.00056997
0.000666901
0.000813285
0.00533345
0.0104754
0.0155059
0.00527845
0.0028912
0.00227613
0.00188315
0.00157296
0.0014856
0.0011772
0.00104257
0.000907603
0.000816117
0.00070028
0.000746489
0.000729128
0.000621686
0.000578452
0.000675486
0.000838462
0.00509566
0.0105608
0.0158005
0.00573179
0.00310317
0.00233369
0.00189778
0.0016196
0.0015441
0.00119491
0.00107737
0.000970426
0.00085742
0.000726531
0.000750524
0.00067888
0.000626874
0.000633205
0.000696272
0.000887161
0.00475973
0.0104048
0.0152924
0.0172578
0.0298647
0.0164359
0.0206641
0.0178313
0.0156621
0.0128987
0.0117708
0.0104798
0.0101706
0.00818122
0.00764173
0.00664764
0.00663596
0.00692514
0.00711429
0.0118285
0.0455379
0.0973788
0.139514
0.0283968
0.0216933
0.0190603
0.0150607
0.0138936
0.0115926
0.0109875
0.00954713
0.00826689
0.0080859
0.0068882
0.00609278
0.00398908
0.00594328
0.0055882
0.00479341
0.0113974
0.0438926
0.0981813
0.136431
0.0131561
0.0151336
0.0140691
0.0107948
0.00920492
0.00859117
0.00801802
0.00740366
0.0070887
0.00579189
0.00596883
0.00557776
0.00522994
0.00546304
0.00531752
0.00506506
0.010428
0.0416782
0.0950069
0.133317
0.0116735
0.0107049
0.00933596
0.00758007
0.00697883
0.00677092
0.00674353
0.00630378
0.00591522
0.00567499
0.00550129
0.00502213
0.00467368
0.00453207
0.00427386
0.00334595
0.0100439
0.0381944
0.0950159
0.128595
0.00565245
0.00687231
0.00728799
0.00638757
0.00535255
0.0049145
0.00495706
0.00499976
0.00494916
0.00459716
0.0043461
0.00421913
0.00413807
0.00412528
0.00387132
0.00344639
0.00449793
0.0377331
0.0949532
0.126133
0.00542352
0.00560871
0.00512551
0.00423605
0.00369996
0.00375591
0.00407136
0.00389082
0.00400301
0.00399139
0.00410493
0.00389346
0.00374557
0.00353151
0.00354749
0.00234423
0.00539558
0.0335547
0.0953302
0.124649
0.00273292
0.00313359
0.00326202
0.00314757
0.00314388
0.00316372
0.00351964
0.00362766
0.00344084
0.00336982
0.00318489
0.00325905
0.00311176
0.003291
0.00327573
0.0028877
0.0021974
0.0297554
0.0956165
0.126821
0.00261884
0.00289571
0.00253852
0.0023613
0.0023125
0.00246341
0.00255614
0.00255408
0.00272891
0.002967
0.00299849
0.0032213
0.00319023
0.00331179
0.00335172
0.0023165
0.00388147
0.0222174
0.0951995
0.131338
0.00128557
0.00144111
0.0014
0.00156014
0.00160318
0.0019544
0.00242814
0.00262888
0.0024158
0.00252591
0.00248518
0.00267484
0.00263606
0.00294774
0.00305365
0.00344342
0.00191103
0.0192125
0.0929454
0.140724
0.000982073
0.0013054
0.00130403
0.00123291
0.00121683
0.00140855
0.00151605
0.00171108
0.00181205
0.00205794
0.00222538
0.00250624
0.00270549
0.00300376
0.00304108
0.00291026
0.0024861
0.00996153
0.088762
0.149299
0.000439057
0.000502934
0.000615871
0.000723326
0.000779265
0.000965463
0.00124114
0.00160435
0.00162098
0.00177312
0.00185113
0.00206458
0.00223172
0.00257758
0.00292178
0.00358463
0.00260238
0.00742587
0.0680886
0.162704
0.000293354
0.000404162
0.000489237
0.000517152
0.000599378
0.000728683
0.000705166
0.000915503
0.00118429
0.00137589
0.00156706
0.00183641
0.00203009
0.00236046
0.00255798
0.00310795
0.00355902
0.00360489
0.0548635
0.181609
6.45577e-05
0.000181102
0.000270252
0.000429207
0.000354871
0.000616772
0.000739871
0.000844332
0.000938283
0.0010591
0.00113974
0.00133516
0.00156949
0.00182715
0.00232758
0.00248398
0.00353088
0.00810981
0.029709
0.159857
0.000198265
0.000265212
0.000273764
0.00032369
0.000367553
0.000371938
0.000378868
0.000518256
0.000571119
0.00081372
0.000887312
0.0011738
0.00123389
0.00160024
0.00158685
0.00226453
0.0022192
0.00558198
0.0160498
0.112079
0.000390248
0.000416381
0.000413451
0.000443744
0.000446149
0.000456116
0.000485697
0.000504127
0.000569946
0.000661321
0.000754562
0.000922981
0.00102293
0.00126512
0.00143885
0.0018569
0.00265878
0.00348822
0.00364697
0.0656511
0.000480545
0.00046938
0.000479966
0.000490486
0.000512268
0.000550759
0.000626049
0.000590687
0.000651714
0.000733487
0.000761158
0.00087548
0.000906707
0.00102747
0.00111269
0.00130046
0.00159936
0.00218025
0.00339812
0.0368353
0.000567515
0.000566694
0.000559055
0.00054012
0.000540249
0.000552723
0.000635817
0.000622941
0.000649201
0.00065994
0.000725749
0.0006975
0.000778058
0.00085407
0.000799495
0.00107307
0.000995194
0.000903684
0.00121292
0.0190733
0.000536719
0.000553598
0.000571031
0.000582905
0.000620772
0.000642479
0.000650432
0.000680995
0.000664016
0.000686856
0.000725345
0.000767664
0.000847025
0.000875243
0.000961028
0.000714475
0.000899742
0.0012853
0.00196675
0.00364208
0.00044382
0.000435269
0.000443918
0.000482889
0.000535994
0.000520212
0.000553059
0.000548082
0.000578517
0.00054093
0.000584934
0.000559836
0.000560609
0.000580597
0.000514801
0.000726654
0.00080709
0.000779526
0.00108984
0.00205003
0.000312998
0.000330744
0.000347702
0.000354343
0.00037212
0.000367936
0.000394121
0.00039629
0.00041687
0.000425136
0.000436531
0.000460108
0.000452912
0.00047076
0.000429562
0.000359317
0.000351479
0.000285677
0.00021361
0.000340366
0.0140616
0.0140637
0.0138964
0.0139573
0.013697
0.0137389
0.0134032
0.0133973
0.013311
0.0127856
0.0127063
0.0120225
0.010755
0.0113565
0.0106768
0.0108561
0.00999182
0.00865287
0.00875511
0.0083041
0.00694531
0.00692972
0.00687599
0.00686453
0.00674853
0.00672417
0.0065734
0.0065843
0.00627625
0.00632968
0.00615392
0.00619034
0.00700532
0.00744787
0.00668936
0.00614513
0.00539117
0.00633512
0.00632251
0.00646589
0.00419206
0.00415831
0.00415362
0.00415477
0.0041694
0.00420141
0.00427589
0.00428317
0.00439472
0.00437388
0.0042322
0.00420705
0.00384302
0.00374472
0.00372773
0.00394138
0.0034295
0.00336537
0.00292806
0.00320398
0.00268496
0.00266731
0.00263602
0.00260249
0.00255959
0.00251773
0.00245729
0.00240648
0.00230368
0.00226034
0.00222727
0.00214093
0.00222804
0.00226601
0.0022706
0.00241977
0.00240957
0.00273341
0.00241857
0.00269556
0.00157861
0.00156795
0.00156237
0.00155205
0.00154821
0.00154152
0.00154391
0.00155235
0.00159463
0.00166385
0.00166456
0.001851
0.00177363
0.0017611
0.00162193
0.00157397
0.00150545
0.00152588
0.0015189
0.00154537
0.00113521
0.00111938
0.00111276
0.00110289
0.00109965
0.00109109
0.00109977
0.00109952
0.00110477
0.00107225
0.00105434
0.000982314
0.000939973
0.000966866
0.001069
0.00118091
0.00111665
0.00113039
0.000966807
0.00105864
0.000684211
0.000671469
0.000663678
0.000665874
0.000663741
0.000670335
0.000670439
0.000669862
0.000679271
0.000688341
0.000707283
0.000765355
0.000777743
0.000793687
0.000753162
0.000752898
0.000716757
0.000737245
0.000783633
0.000743361
0.000508903
0.000495574
0.000483567
0.000484291
0.000486062
0.00050068
0.000499975
0.000518647
0.000513656
0.000512075
0.000509807
0.000511143
0.000500044
0.000506076
0.000498505
0.000507179
0.00048541
0.000461501
0.000402272
0.000434001
0.00028473
0.000285653
0.000272246
0.000263984
0.00026566
0.000262648
0.00026847
0.000268174
0.000261955
0.000260101
0.000265711
0.000274577
0.00027029
0.000277642
0.000260631
0.000257931
0.000265999
0.000305471
0.000263657
0.000286198
0.000169624
0.000165901
0.000168377
0.000162674
0.000164983
0.000156824
0.000161145
0.000155369
0.000163145
0.000161267
0.00016293
0.000158976
0.000161515
0.000161917
0.000162624
0.00016626
0.000149609
0.000174604
0.000192178
0.000203296
0.000112946
0.000102261
9.1835e-05
8.82963e-05
7.9263e-05
7.78098e-05
7.00444e-05
6.90616e-05
6.38824e-05
6.45863e-05
6.25936e-05
6.02759e-05
6.05625e-05
6.01654e-05
6.26968e-05
6.4729e-05
5.81329e-05
7.08341e-05
6.52352e-05
8.39329e-05
0.000101298
8.86978e-05
7.4931e-05
6.28573e-05
5.03039e-05
4.36374e-05
3.77866e-05
3.72059e-05
3.18248e-05
2.09791e-05
1.74798e-05
1.95188e-05
2.44101e-05
2.16334e-05
2.99121e-05
2.81628e-05
1.94336e-05
2.2908e-05
2.84952e-05
4.82484e-05
0.000104107
0.000104523
0.000105914
9.71257e-05
8.77035e-05
7.60314e-05
6.33788e-05
5.14205e-05
4.03414e-05
4.45677e-05
5.12417e-05
4.55659e-05
3.94481e-05
2.60834e-05
1.04054e-05
8.87109e-06
2.01907e-05
1.24795e-05
4.66652e-06
1.00134e-05
0.000121519
0.000115781
0.000106314
9.97492e-05
9.77469e-05
9.67092e-05
9.58498e-05
9.84567e-05
0.000114941
0.000113254
7.92942e-05
6.12624e-05
6.29454e-05
6.02933e-05
5.31003e-05
5.26768e-05
5.50103e-05
4.80227e-05
4.061e-05
3.33744e-05
0.000135232
0.000131409
0.000126567
0.000125288
0.000128223
0.00012973
0.000123036
0.000108915
8.87712e-05
7.65191e-05
9.78827e-05
0.000114479
0.000106682
0.000102596
0.000111184
0.000105146
9.97688e-05
9.3016e-05
9.35843e-05
9.2068e-05
0.000133877
0.000137537
0.000141514
0.000138248
0.000129804
0.000121546
0.00012048
0.000126308
0.000134574
0.000139273
0.00012732
0.000114817
0.000116793
0.000116424
0.000115564
0.000114798
0.000119544
0.000114645
0.000115661
0.000112245
0.000143393
0.000137609
0.000131209
0.000131322
0.00013202
0.000133304
0.000135705
0.000135873
0.000134358
0.000133565
0.000137875
0.000141157
0.000140187
0.000138446
0.000140854
0.000139872
0.000142241
0.000136691
0.000139708
0.000136746
0.000111219
0.000114514
0.000120327
0.000122336
0.000125894
0.000129005
0.000127886
0.000125665
0.000125686
0.000125731
0.000124829
0.000123936
0.000124565
0.000122521
0.000120024
0.000117777
0.00011965
0.000122398
0.000131395
0.000131187
0.000102341
0.000105306
0.000106363
0.000106858
0.000106663
0.000104616
0.000101547
0.000100932
0.000100461
9.99991e-05
0.000100139
0.000100342
0.000100989
0.000102883
0.000106551
0.000107674
0.000109184
0.000107841
0.000108953
0.000104968
5.82425e-05
6.02661e-05
6.04691e-05
6.0899e-05
6.13633e-05
6.25939e-05
6.32139e-05
6.32664e-05
6.38592e-05
6.46018e-05
6.56188e-05
6.68492e-05
6.8e-05
6.92173e-05
7.00216e-05
7.09255e-05
7.16798e-05
7.25193e-05
7.37227e-05
7.33691e-05
0.00118321
0.00146825
0.0011272
0.00119622
0.00123187
0.00123819
0.00128439
0.00132483
0.00137042
0.00140447
0.0014475
0.00148681
0.00157717
0.00161612
0.00168442
0.00174238
0.00172842
0.00257318
0.00884675
0.0227475
0.00114572
0.00127737
0.00100791
0.00109709
0.00119375
0.0012292
0.00125654
0.0012902
0.00133775
0.00139081
0.00145322
0.00149218
0.00154798
0.00157831
0.00166203
0.00169406
0.00172938
0.00192897
0.00767861
0.0222641
0.00114516
0.00137189
0.00105318
0.00111098
0.00117986
0.0012034
0.0012533
0.00131198
0.00136256
0.00139784
0.00144024
0.00147952
0.00156537
0.00159761
0.00168189
0.0017012
0.0017497
0.0016454
0.0068229
0.0217442
0.00122081
0.00137584
0.00103538
0.00110824
0.00119233
0.00122641
0.0012489
0.00128813
0.00132345
0.00137912
0.00143783
0.00147996
0.00153423
0.00156169
0.00164737
0.0016551
0.00177626
0.00154437
0.00586332
0.0211829
0.0012197
0.00140029
0.00106852
0.00114638
0.00120174
0.00121008
0.00126328
0.00131437
0.00135731
0.00139476
0.0014227
0.00146705
0.00154681
0.00157099
0.001659
0.00165976
0.0017592
0.00150796
0.00500408
0.0205775
0.00123031
0.00137547
0.00107303
0.00112805
0.00118385
0.00122997
0.00124924
0.00127888
0.00131631
0.00136981
0.00142704
0.00148329
0.00152264
0.00155275
0.00163494
0.00163842
0.00178706
0.00156417
0.00502288
0.0198622
0.0012337
0.00138432
0.00108471
0.00114707
0.00121753
0.0012328
0.00125252
0.00130649
0.00134635
0.00138279
0.00141439
0.00145992
0.0015232
0.00156419
0.0016576
0.00166424
0.00178781
0.00164756
0.00564402
0.0190761
0.00125533
0.00136379
0.00106735
0.00114957
0.00119081
0.00120073
0.00122887
0.00127878
0.00131507
0.00137321
0.00142863
0.00147045
0.00151525
0.00156785
0.0016406
0.00166224
0.00183075
0.00166495
0.00545279
0.0182823
0.00121875
0.00129306
0.00106679
0.0011503
0.00118075
0.00120994
0.00127637
0.00131808
0.00132844
0.00136502
0.00138344
0.00144996
0.00152426
0.00157735
0.00166564
0.00169856
0.00185402
0.00170954
0.00478979
0.0172352
0.00118568
0.00125515
0.00107154
0.00112537
0.00116464
0.00121875
0.00123597
0.0012488
0.00129039
0.00136648
0.00142655
0.00148564
0.00151675
0.00158537
0.00163415
0.00168187
0.00179439
0.00163721
0.00391896
0.0156258
0.00114873
0.00122578
0.0010692
0.00112926
0.00119
0.0012128
0.00123066
0.00128451
0.00134658
0.00137574
0.00137636
0.00144327
0.00149764
0.00155233
0.00159182
0.00166967
0.00176266
0.00174908
0.00321334
0.0135504
0.00114111
0.00119669
0.00105989
0.00112336
0.00115859
0.00117636
0.00120528
0.00124866
0.00126504
0.00129217
0.001357
0.00143152
0.00145856
0.00152905
0.00157028
0.00166054
0.00168692
0.00168546
0.00264714
0.0109495
0.00107441
0.00114279
0.00104454
0.00110195
0.00113078
0.00116184
0.00120537
0.00124564
0.00128826
0.00136034
0.00143586
0.00147088
0.00146563
0.00150363
0.00153382
0.00163169
0.00166545
0.00174079
0.00231456
0.00896441
0.00112479
0.00118509
0.00109059
0.00113258
0.0011689
0.0012034
0.00122261
0.00125665
0.00128911
0.00132293
0.00131792
0.00130564
0.00135421
0.00147228
0.00153532
0.0015835
0.00158215
0.0016868
0.00194441
0.00715315
0.00103323
0.00106732
0.000996922
0.00103214
0.00106584
0.00108752
0.00111998
0.00117761
0.00120626
0.00125339
0.00128978
0.00140134
0.00148429
0.00154839
0.00154085
0.00162469
0.00166547
0.00168354
0.00181969
0.00615516
0.00102561
0.0010741
0.00102426
0.00107621
0.00112743
0.00115171
0.00119636
0.00122439
0.00125114
0.00130906
0.00134641
0.00139307
0.00141795
0.00141541
0.00140471
0.00149757
0.00150817
0.0017269
0.00181541
0.0053399
0.00100524
0.00104316
0.00100266
0.00105577
0.00108609
0.00111517
0.00116033
0.0011938
0.00123813
0.0012618
0.00129265
0.00133792
0.00136471
0.00143666
0.00153382
0.00160465
0.00150967
0.00162076
0.00176195
0.00489939
0.00100726
0.00103901
0.00101322
0.00106673
0.00108579
0.00112109
0.00115096
0.00117246
0.00121917
0.00125175
0.0013064
0.00134308
0.00136048
0.00141689
0.00141639
0.00143317
0.00151691
0.00169698
0.00178719
0.00418007
0.000983509
0.000995277
0.000985935
0.00103313
0.00106586
0.00110442
0.00112729
0.00116199
0.00119901
0.0012208
0.00126614
0.00128753
0.00135192
0.00137735
0.00142192
0.00153389
0.0016721
0.00175015
0.00172932
0.00383949
0.000991838
0.00102439
0.00101772
0.00106525
0.00110015
0.00112876
0.00115764
0.00121169
0.00123728
0.00127846
0.00131536
0.00133509
0.00139779
0.00143102
0.00147807
0.00157929
0.00158867
0.00148148
0.00143181
0.00351384
0.000932858
0.00108472
0.00117403
0.00114014
0.00108441
0.000997568
0.000981592
0.000969961
0.000976267
0.000976205
0.000997146
0.00103073
0.00109721
0.00115508
0.000964661
0.000554246
0.00183745
0.0119822
0.0161504
0.0100256
0.00094886
0.00108327
0.00118107
0.00116205
0.00112116
0.00102368
0.00100767
0.00100564
0.00101806
0.00104194
0.0010507
0.00109624
0.00112259
0.00118346
0.00112678
0.000640181
0.000655235
0.0109665
0.0163142
0.0127749
0.00095046
0.00108643
0.00122078
0.0011869
0.00114634
0.00106658
0.00105792
0.00105415
0.00105722
0.00106475
0.00109234
0.00112636
0.00118438
0.00127751
0.00125254
0.00079103
0.000296334
0.0100919
0.0163451
0.015739
0.000972075
0.0010924
0.00122093
0.00120161
0.0011847
0.00108995
0.00106293
0.00106128
0.00108496
0.00111558
0.00113091
0.00118847
0.00123588
0.00127621
0.00132921
0.00106659
0.000592973
0.0080829
0.0162481
0.018114
0.000984375
0.001098
0.00126054
0.00122403
0.00118807
0.00111306
0.00111722
0.00112732
0.00112968
0.00114093
0.00117334
0.00121047
0.00126109
0.0013318
0.00140425
0.00123513
0.000341702
0.00621882
0.0162413
0.0193335
0.000991661
0.0010899
0.00125958
0.00122105
0.00121284
0.00114082
0.00110762
0.00110494
0.00113545
0.00117063
0.00119276
0.00125725
0.00131096
0.00134875
0.00143848
0.00134833
0.000173442
0.00460337
0.0158543
0.0210326
0.00100206
0.00110242
0.00130496
0.00125372
0.00121345
0.00114028
0.00115474
0.00118059
0.00118724
0.00120058
0.00123978
0.00128058
0.00132193
0.00140352
0.00147005
0.0014095
0.000458057
0.00342044
0.0157247
0.0213605
0.00100742
0.00109533
0.0012928
0.00122211
0.00121023
0.00116638
0.00114296
0.0011433
0.00117724
0.00121705
0.00124477
0.00131318
0.00137298
0.00142206
0.00149491
0.00153123
0.000636397
0.00237454
0.0153708
0.022143
0.00103163
0.00111679
0.00133224
0.00126374
0.00122515
0.0011594
0.00118028
0.00121831
0.00123141
0.00124465
0.00129645
0.00134314
0.00137784
0.00146925
0.00152409
0.00155657
0.000823897
0.00189116
0.0149823
0.0228196
0.00102128
0.00108539
0.0013148
0.00121638
0.00118867
0.00117465
0.00117291
0.00117592
0.00120939
0.00125727
0.00129089
0.00135095
0.00141606
0.00148042
0.0015389
0.00162244
0.00103946
0.00136425
0.0146533
0.0233688
0.00105135
0.00111759
0.00133933
0.00124633
0.00121827
0.00117493
0.00119797
0.00124291
0.00126608
0.00127954
0.00133815
0.00139096
0.00142683
0.00151658
0.00156164
0.00163577
0.00115226
0.00153826
0.0141963
0.0237853