/*--------------------------------*- C++ -*----------------------------------*\
  =========                 |
  \\      /  F ield         | OpenFOAM: The Open Source CFD Toolbox
   \\    /   O peration     | Website:  https://openfoam.org
    \\  /    A nd           | Version:  9
     \\/     M anipulation  |
\*---------------------------------------------------------------------------*/
FoamFile
{
    format      ascii;
    class       volScalarField;
    location    "9.4";
    object      p;
}
// * * * * * * * * * * * * * * * * * * * * * * * * * * * * * * * * * * * * * //

dimensions      [0 2 -2 0 0 0 0];

internalField   nonuniform List<scalar> 
46400
(
120.456
126.58
136.029
144.337
151.447
158.17
164.018
169.421
174.241
178.655
182.664
186.325
189.696
192.819
195.741
198.523
201.126
203.796
206.801
207.497
146.333
151.607
159.811
167.38
173.796
179.797
185.046
189.801
194.038
197.86
201.291
204.391
207.18
209.69
211.977
214.043
215.879
217.704
219.413
219.252
171.306
175.307
182.884
189.926
195.691
201.06
205.655
209.798
213.418
216.647
219.52
222.066
224.343
226.361
228.162
229.75
231.112
232.395
233.467
232.52
194.71
198.841
206.084
212.46
217.632
222.29
226.242
229.699
232.69
235.276
237.523
239.472
241.161
242.616
243.896
244.991
245.899
246.739
247.638
246.589
218.5
223.259
229.414
234.898
239.149
242.999
246.202
248.961
251.307
253.282
254.966
256.351
257.512
258.436
259.204
259.81
260.245
260.645
261.017
259.732
242.58
247.844
252.611
257.039
260.445
263.399
265.847
267.863
269.538
270.875
271.951
272.787
273.424
273.854
274.138
274.284
274.279
274.256
274.344
272.814
266.202
271.297
274.646
277.917
280.402
282.486
284.19
285.503
286.555
287.301
287.849
288.149
288.305
288.274
288.145
287.886
287.496
287.087
286.786
285.119
289.135
293.016
295.64
297.834
299.599
300.875
301.884
302.531
302.958
303.13
303.13
302.946
302.602
302.106
301.503
300.799
299.986
299.176
298.428
296.508
309.136
311.964
313.979
315.453
316.57
317.248
317.66
317.745
317.64
317.291
316.811
316.169
315.455
314.6
313.669
312.63
311.504
310.365
309.285
307.182
327.61
329.921
331.45
332.381
332.983
333.118
333.001
332.558
331.936
331.067
330.068
328.914
327.686
326.37
324.993
323.561
322.061
320.578
319.158
316.902
343.102
344.788
345.915
346.362
346.59
346.35
345.904
345.117
344.164
343.002
341.724
340.292
338.76
337.126
335.434
333.671
331.85
330.028
328.256
325.769
358.466
359.674
360.321
360.223
359.894
359.137
358.22
356.996
355.584
353.98
352.269
350.438
348.549
346.582
344.588
342.557
340.482
338.433
336.456
333.815
370.591
371.087
371.394
370.902
370.237
369.142
367.912
366.491
364.915
363.172
361.289
359.282
357.17
354.986
352.732
350.451
348.116
345.804
343.56
340.787
383.213
383.096
382.749
381.807
380.606
379.004
377.244
375.285
373.241
371.081
368.844
366.54
364.181
361.765
359.33
356.86
354.37
351.9
349.541
346.635
389.655
389.704
389.28
388.407
387.323
385.932
384.251
382.325
380.194
377.912
375.518
373.03
370.494
367.896
365.27
362.627
359.949
357.314
354.804
351.792
397.366
397.246
396.402
395.084
393.529
391.692
389.648
387.4
385.01
382.481
379.877
377.197
374.488
371.741
368.987
366.218
363.441
360.69
358.081
355.038
401.057
400.956
400.11
398.907
397.333
395.486
393.464
391.198
388.827
386.266
383.627
380.875
378.081
375.233
372.373
369.502
366.615
363.763
361.046
357.913
403.98
403.189
402.633
401.041
399.402
397.254
395.03
392.55
390.02
387.322
384.6
381.761
378.914
376.01
373.109
370.196
367.279
364.384
361.633
358.492
404.228
403.01
402.434
400.856
399.519
397.482
395.496
393.055
390.638
387.939
385.242
382.377
379.515
376.559
373.623
370.645
367.686
364.737
361.961
358.775
400.874
400.743
399.772
398.614
397.027
395.146
393.024
390.656
388.155
385.516
382.802
380.012
377.18
374.311
371.422
368.528
365.612
362.724
359.957
356.86
-77.8732
-77.4492
-77.0174
-75.5369
-71.6892
-67.8387
-63.1047
-58.3198
-53.4406
-48.601
-43.9495
-39.3547
-34.9233
-30.5695
-26.3643
-22.2024
-18.2056
-14.2863
-10.4705
-6.69458
-78.7058
-79.57
-77.1218
-75.7686
-70.5309
-65.4193
-60.2218
-54.9072
-49.7276
-44.7317
-39.8161
-35.0513
-30.4741
-25.9084
-21.5761
-17.2806
-13.1504
-9.0921
-5.18378
-1.27408
-80.1661
-80.0009
-76.9435
-73.4308
-68.748
-62.8935
-57.2722
-51.5195
-46.0645
-40.6977
-35.5902
-30.5983
-25.7925
-21.0908
-16.6109
-12.1932
-7.97462
-3.90423
0.0182738
3.97687
-80.4791
-80.0111
-78.6608
-72.328
-66.514
-60.5974
-54.0734
-48.1362
-42.2321
-36.6315
-31.1876
-25.9382
-20.9252
-15.9924
-11.3734
-6.76316
-2.47971
1.78117
5.81853
9.73413
-82.6559
-81.4309
-79.031
-72.9987
-65.2979
-58.0784
-51.2802
-44.6438
-38.3282
-32.2611
-26.4847
-20.9578
-15.656
-10.5569
-5.73005
-0.988577
3.41999
7.8073
11.8523
15.9263
-85.2677
-84.2441
-79.1259
-71.7078
-63.553
-55.3312
-47.7777
-40.5802
-33.7553
-27.3336
-21.2155
-15.3924
-9.87137
-4.54605
0.434043
5.341
9.82896
14.3521
18.4354
22.5474
-88.8538
-86.8355
-78.9523
-70.0384
-60.519
-51.675
-43.3857
-35.7226
-28.4456
-21.6262
-15.1944
-9.12498
-3.35933
2.10172
7.25042
12.2325
16.797
21.4062
25.4577
29.6316
-86.8858
-85.3723
-75.2506
-65.5215
-55.6758
-46.4061
-37.6508
-29.5951
-22.005
-14.8993
-8.22511
-1.93492
3.98949
9.60718
14.8725
19.9443
24.5774
29.1761
33.2051
37.3745
-82.5492
-81.3989
-72.3408
-60.7577
-50.0621
-40.1868
-30.9708
-22.4585
-14.5082
-7.12127
-0.2077
6.26247
12.3441
18.0592
23.4245
28.5385
33.1776
37.9286
41.8936
46.1567
-78.5946
-76.0187
-65.2386
-53.3935
-42.0469
-31.7889
-22.3002
-13.6046
-5.47231
2.05688
9.07117
15.6367
21.7798
27.5473
32.9643
38.0808
42.8254
47.5317
51.5246
55.9208
-70.127
-67.2306
-56.0422
-43.7552
-32.3758
-21.9203
-12.251
-3.40664
4.84146
12.4575
19.5307
26.1227
32.2652
38.0077
43.3721
48.4068
53.0443
57.5881
61.444
65.7407
-60.8059
-56.9619
-44.9256
-32.3597
-20.6408
-10.1641
-0.364409
8.48713
16.7361
24.3435
31.3718
37.9227
44.0029
49.6783
54.9834
59.939
64.5444
69.0004
72.7775
77.0661
-47.5991
-43.3087
-30.9263
-18.5539
-6.92875
3.44783
13.1519
21.9395
30.0454
37.5358
44.434
50.8378
56.76
62.271
67.3985
72.1456
76.5385
80.748
84.2922
88.4496
-32.8196
-27.9683
-15.3647
-3.06133
8.47723
18.6582
28.1799
36.7998
44.7327
52.0431
58.7536
64.9792
70.7145
76.0336
80.9701
85.5336
89.7802
93.7834
97.1547
101.208
-15.4366
-10.2284
2.58399
14.3985
25.7432
35.6101
44.8278
53.1756
60.8103
67.8459
74.2788
80.2257
85.6842
90.7405
95.4111
99.6894
103.661
107.352
110.45
114.373
3.71072
9.235
22.2736
33.3947
44.31
53.8057
62.595
70.6179
77.9008
84.6228
90.7466
96.4041
101.584
106.353
110.744
114.772
118.521
121.922
124.814
128.594
24.2427
29.9833
43.4412
53.9211
64.2858
73.3965
81.689
89.2955
96.1735
102.499
108.254
113.541
118.366
122.807
126.868
130.557
133.987
136.988
139.569
143.2
46.7194
52.8843
65.791
75.6421
85.1896
93.7539
101.489
108.61
115.029
120.946
126.312
131.248
135.747
139.857
143.602
147.02
150.184
152.817
155.123
158.438
70.3619
76.3258
88.4563
97.9825
106.812
114.902
122.058
128.68
134.621
140.076
145.025
149.546
153.669
157.445
160.87
164.009
166.897
169.18
171.242
174.839
95.1609
101.185
112.15
121.05
129.043
136.452
143.012
149.053
154.495
159.504
164.064
168.272
172.141
175.711
179.036
182.203
185.114
187.752
190.67
194.39
11.5114
32.2306
56.4254
68.6696
85.0024
93.2552
103.726
110.107
116.546
121.49
125.447
129.205
131.71
134.611
136.086
138.182
139.291
140.54
140.298
141.603
16.8373
36.5121
59.8536
71.5978
87.2873
95.2171
105.295
111.492
117.667
122.421
126.189
129.84
132.216
135.031
136.368
138.397
139.38
140.744
140.366
141.434
22.5887
40.9204
63.6664
74.4967
89.6126
97.2673
106.843
112.826
118.718
123.379
126.963
130.5
132.778
135.49
136.723
138.69
139.595
140.876
140.291
141.533
28.457
45.4245
67.3102
77.6587
92.0918
99.3649
108.514
114.295
119.893
124.375
127.76
131.173
133.325
135.947
137.019
138.932
139.679
141.042
140.339
141.358
34.4752
50.1259
71.3184
80.7603
94.5433
101.508
110.152
115.744
121.038
125.407
128.576
131.884
133.926
136.444
137.397
139.397
139.872
141.278
140.354
141.473
40.9692
55.0164
75.1882
84.0806
97.2204
103.751
111.927
117.308
122.273
126.465
129.425
132.599
134.514
136.92
137.766
139.746
140.011
141.493
140.417
141.445
47.3772
60.0565
79.4629
87.3336
99.8637
106
113.662
118.826
123.514
127.571
130.288
133.345
135.154
137.459
138.212
140.204
140.304
141.742
140.476
141.538
54.3813
65.2677
83.595
90.7927
102.68
108.38
115.55
120.47
124.818
128.687
131.197
134.087
135.782
137.991
138.654
140.583
140.511
141.936
140.553
141.612
62.9141
70.954
88.068
94.2196
105.469
110.743
117.388
122.044
126.151
129.869
132.102
134.862
136.457
138.636
139.176
141.02
140.844
142.173
140.727
141.732
71.1133
76.5754
93.1573
97.915
108.426
113.242
119.383
123.757
127.516
131.044
133.06
135.628
137.123
139.172
139.677
141.328
141.068
142.374
140.815
141.852
79.0721
82.7889
97.8907
101.498
111.322
115.712
121.316
125.397
128.961
132.303
134.037
136.423
137.807
139.818
140.226
141.721
141.471
142.61
140.806
142.013
88.0146
88.9101
102.57
105.384
114.359
118.302
123.397
127.171
130.398
133.544
135.006
137.197
138.466
140.474
140.775
142.054
141.784
142.812
140.87
142.211
97.2312
95.5535
107.557
109.206
117.365
120.853
125.404
128.9
131.921
134.882
136.082
138.032
139.158
141.169
141.386
142.452
142.272
143.124
140.922
142.425
107.233
102.161
112.574
113.272
120.503
123.529
127.544
130.75
133.457
136.225
137.11
138.81
139.779
141.79
142.106
142.782
142.706
143.43
140.906
142.687
117.666
109.143
117.753
117.294
123.607
126.122
129.585
132.559
135.044
137.623
138.16
139.602
140.444
142.418
142.693
143.131
143.291
143.744
140.839
143.038
129.063
116.371
123.147
121.507
126.859
128.841
131.718
134.441
136.627
139.048
139.293
140.376
141.011
143.093
143.443
143.455
143.835
144.057
140.806
143.388
140.687
124.014
128.605
125.917
130.266
131.656
133.931
136.472
138.372
140.686
140.666
141.318
141.712
143.793
144.366
143.8
144.54
144.656
140.53
143.731
151.81
130.263
133.673
129.884
133.631
134.371
136.018
138.417
139.98
142.184
141.793
142.028
142.164
144.072
145.169
144.059
145.198
145.069
140.47
144.432
167.778
138.402
140.618
133.344
136.406
136.236
137.29
139.504
141.086
143.291
142.542
142.538
142.485
144.007
145.609
144.317
145.789
144.86
140.271
144.317
187.589
152.832
149.625
140.798
141.392
141.095
140.865
142.645
143.853
145.744
144.854
145.086
144.725
146.128
147.282
146.683
146.414
145.944
138.842
145.42
212.771
211.631
189.293
190.105
177.241
179.113
172.168
172.644
168.436
168.873
168.022
171.099
169.514
168.255
164.68
168.683
159.258
167.023
143.841
171.205
243.972
232.524
214.836
207.671
196.824
192.452
185.673
182.946
178.996
177.749
174.746
174.176
171.663
171.368
168.522
169.121
165.732
167.056
164.409
166.714
241.074
231.383
221.667
214.845
207.77
203.045
198.009
194.616
190.991
188.789
186.72
185.178
183.522
181.474
179.976
178.778
176.759
176.441
174.408
175.779
237.488
231.341
225.288
218.702
213.222
208.024
203.654
199.808
196.478
193.513
190.796
188.477
186.435
184.458
182.783
181.196
179.836
178.888
178.152
178.044
228.572
223.461
219.763
215.384
212.188
208.471
205.529
202.508
199.92
197.402
195.203
193.128
191.194
189.342
187.588
186.009
184.383
182.793
181.816
181.713
223.394
220.553
219.048
215.575
213.197
209.917
207.487
204.624
202.284
199.888
197.681
195.507
193.514
191.5
189.789
187.801
186.398
184.729
183.567
183.413
217.401
215.513
213.856
211.523
209.982
207.959
206.278
204.408
202.618
200.888
199.048
197.41
195.521
193.914
191.965
190.285
188.263
186.464
185.076
184.574
214.86
213.839
213.252
211.955
210.812
209.042
207.486
205.955
204.343
202.808
201.116
199.579
197.783
196.198
194.279
192.549
190.467
188.455
186.746
186.074
211.281
210.628
209.87
208.851
207.882
207.284
206.359
205.511
204.366
203.405
202.057
201.034
199.399
198.295
196.334
195.016
192.568
191.005
188.582
188.073
210.375
210.236
210.183
209.953
209.581
208.951
207.932
207.184
206.34
205.554
204.534
203.661
202.441
201.472
199.879
198.81
196.489
195.437
192.501
192.19
209.176
209.032
208.72
208.584
208.431
208.257
208.07
207.823
207.33
207
206.352
205.958
205.107
204.624
203.546
202.881
201.21
200.601
196.577
197.591
209.132
209.511
209.72
209.98
210.077
210.065
209.965
209.73
209.524
209.395
209.162
209.102
208.818
208.788
208.389
208.512
207.778
208.336
208.208
210.211
209.451
209.79
210.029
210.292
210.472
210.741
210.88
211.127
211.215
211.442
211.591
211.888
212.269
212.636
213.372
213.728
215.13
215.428
217.859
219.562
209.686
210.086
210.444
210.836
211.125
211.508
211.819
212.298
212.637
213.246
213.639
214.412
214.944
215.941
216.777
218.121
219.592
221.273
224.624
225.375
210.335
210.791
211.176
211.657
212.061
212.576
213.007
213.605
214.088
214.818
215.402
216.362
217.101
218.445
219.439
221.362
222.889
225.466
227.711
231.384
210.718
211.197
211.651
212.167
212.643
213.221
213.737
214.417
214.988
215.814
216.463
217.489
218.254
219.557
220.445
222.128
223.035
225.297
226.068
237.352
211.284
211.768
212.248
212.784
213.302
213.903
214.466
215.156
215.775
216.586
217.266
218.25
218.984
220.21
220.96
222.514
223.175
225.67
226.224
228.805
211.548
212.039
212.543
213.087
213.632
214.241
214.836
215.523
216.174
216.952
217.666
218.546
219.323
220.324
221.133
222.456
223.199
225.049
224.908
228.756
211.853
212.334
212.843
213.393
213.962
214.57
215.177
215.847
216.498
217.238
217.917
218.744
219.435
220.364
221.034
221.902
222.496
223.41
224.046
224.609
211.958
212.457
212.976
213.515
214.063
214.655
215.26
215.91
216.563
217.272
217.973
218.727
219.451
220.23
220.924
221.733
222.277
223.058
223.279
226.577
319.429
320.693
321.235
321.217
320.434
319.174
317.086
314.546
311.136
307.273
302.592
297.519
291.479
285.226
277.943
270.588
262.632
253.497
244.74
236.209
291.498
292.283
292.825
293.048
292.958
292.599
291.908
291.031
289.79
288.439
286.654
284.877
282.829
280.124
275.765
272.139
268.56
265.668
261.615
258.294
254.005
254.766
255.383
255.915
256.288
256.612
256.732
256.851
256.713
256.616
256.228
255.899
255.247
254.68
253.804
253.015
251.737
250.8
249.166
248.325
241.826
242.404
242.928
243.38
243.773
244.093
244.344
244.519
244.593
244.623
244.499
244.402
244.1
243.898
243.413
243.12
242.474
242.108
241.284
240.949
226.341
226.805
227.245
227.643
227.998
228.338
228.613
228.901
229.1
229.35
229.488
229.698
229.784
229.951
229.946
230.07
229.958
230.058
229.812
229.938
220.842
221.222
221.568
221.903
222.209
222.498
222.764
223.008
223.235
223.437
223.601
223.767
223.839
223.969
223.978
224.086
224.021
224.123
223.984
224.099
213.821
214.159
214.47
214.773
215.046
215.321
215.556
215.804
216.006
216.223
216.393
216.586
216.724
216.905
217.004
217.171
217.217
217.371
217.386
217.551
211.539
211.826
212.108
212.376
212.635
212.885
213.12
213.35
213.554
213.761
213.932
214.113
214.247
214.398
214.501
214.635
214.707
214.837
214.848
214.979
208.268
208.54
208.787
209.02
209.237
209.441
209.631
209.804
209.959
210.097
210.226
210.361
210.476
210.609
210.719
210.846
210.932
211.065
211.125
211.258
207.303
207.517
207.731
207.932
208.132
208.312
208.492
208.666
208.845
209.026
209.199
209.367
209.519
209.671
209.795
209.922
210.024
210.121
210.168
210.274
206.826
207.006
207.177
207.347
207.522
207.688
207.828
207.968
208.1
208.23
208.348
208.464
208.571
208.663
208.761
208.84
208.922
209.006
209.075
209.133
206.776
206.926
207.065
207.203
207.336
207.468
207.596
207.722
207.843
207.962
208.076
208.188
208.294
208.398
208.501
208.599
208.691
208.78
208.861
208.941
207.223
207.364
207.502
207.634
207.764
207.888
208.01
208.126
208.24
208.349
208.455
208.557
208.655
208.748
208.836
208.922
209.006
209.088
209.168
209.244
207.467
207.602
207.737
207.865
207.988
208.105
208.218
208.328
208.435
208.541
208.646
208.749
208.849
208.947
209.043
209.135
209.225
209.31
209.395
209.472
208.195
208.305
208.414
208.521
208.628
208.734
208.839
208.942
209.046
209.147
209.249
209.348
209.447
209.544
209.641
209.734
209.829
209.919
210.011
210.097
208.497
208.602
208.707
208.812
208.917
209.022
209.126
209.231
209.336
209.439
209.543
209.646
209.75
209.851
209.954
210.054
210.156
210.254
210.356
210.451
209.103
209.2
209.297
209.395
209.493
209.592
209.691
209.791
209.891
209.991
210.092
210.193
210.295
210.396
210.498
210.599
210.703
210.802
210.907
211.006
209.336
209.428
209.521
209.615
209.71
209.807
209.905
210.004
210.104
210.205
210.307
210.409
210.513
210.617
210.723
210.829
210.936
211.042
211.152
211.259
209.663
209.757
209.85
209.944
210.039
210.133
210.228
210.324
210.421
210.519
210.618
210.719
210.821
210.924
211.028
211.133
211.24
211.346
211.456
211.564
209.742
209.829
209.918
210.008
210.1
210.193
210.288
210.385
210.483
210.583
210.684
210.786
210.891
210.996
211.104
211.212
211.322
211.434
211.547
211.661
88.1767
85.2002
78.5072
71.975
65.7026
59.0125
51.955
44.5329
36.6295
28.1538
19.0697
9.1905
-1.42996
-13.0583
-25.5726
-39.3399
-54.3793
-70.5576
-89.7569
-100.033
104.637
102.781
98.0709
92.9561
87.8003
82.1994
76.1714
69.6924
62.691
55.12
46.9292
38.0351
28.4394
17.887
6.48676
-6.16712
-19.8794
-34.9132
-52.5884
-62.8109
122.975
122.367
118.825
114.547
110.242
105.457
100.226
94.5826
88.4542
81.8037
74.5827
66.6669
58.067
48.562
38.2961
26.842
14.4847
0.795105
-15.3767
-25.3091
142.695
142.428
139.36
135.855
132.271
128.27
123.893
119.109
113.843
108.071
101.723
94.76
87.1658
78.7417
69.6085
59.341
48.3368
35.8665
21.6318
12.5162
162.576
162.745
160.263
157.406
154.496
151.183
147.484
143.42
138.92
133.976
128.519
122.48
115.823
108.387
100.276
91.1025
81.2779
69.9906
57.3347
49.9155
182.108
182.5
180.574
178.272
175.941
173.271
170.298
166.989
163.273
159.14
154.491
149.323
143.564
137.077
129.936
121.767
112.908
102.547
90.9863
84.8579
201.027
201.855
200.485
198.839
197.136
195.144
192.816
190.187
187.192
183.834
180.022
175.733
170.875
165.364
159.218
152.06
144.286
134.94
124.077
118.054
220
220.976
219.888
218.705
217.47
215.989
214.262
212.306
210.028
207.429
204.39
200.961
196.984
192.451
187.269
181.227
174.551
166.298
156.865
150.358
237.625
238.785
238.231
237.599
236.966
236.127
235.053
233.759
232.172
230.286
228.057
225.457
222.382
218.84
214.693
209.808
204.335
197.379
189.91
182.61
254.16
255.6
255.537
255.414
255.275
254.945
254.417
253.721
252.787
251.634
250.169
248.402
246.206
243.595
240.4
236.67
232.248
226.793
221.127
213.582
269.508
271.2
271.654
272.049
272.439
272.69
272.767
272.703
272.415
271.915
271.12
270.039
268.591
266.811
264.548
261.853
258.541
254.582
250.075
243.843
284.077
285.994
286.852
287.654
288.452
289.107
289.636
290.025
290.24
290.292
290.127
289.758
289.071
288.082
286.653
284.866
282.469
279.6
275.96
271.356
296.626
298.806
300.142
301.423
302.712
303.899
304.971
305.942
306.759
307.433
307.879
308.091
307.983
307.623
306.862
305.777
304.158
302.131
299.395
295.686
309.407
311.836
313.386
314.944
316.514
317.99
319.374
320.661
321.809
322.819
323.627
324.311
324.741
324.994
324.853
324.466
323.502
322.202
320.076
317.173
319.464
321.942
323.839
325.747
327.672
329.537
331.335
333.07
334.702
336.244
337.634
338.89
339.903
340.709
341.103
341.271
340.854
340.242
338.743
336.53
329.269
332.034
334.205
336.415
338.642
340.805
342.912
344.94
346.88
348.694
350.37
351.88
353.173
354.255
355.061
355.65
355.777
355.685
354.781
353.258
337.361
340.164
342.481
344.872
347.288
349.662
351.997
354.291
356.511
358.664
360.701
362.628
364.376
365.981
367.285
368.404
369.036
369.545
369.185
368.345
344.404
347.332
349.867
352.483
355.125
357.724
360.299
362.813
365.272
367.625
369.884
371.987
373.939
375.696
377.214
378.55
379.495
380.309
380.343
380.271
349.857
352.805
355.44
358.165
360.911
363.629
366.33
368.997
371.622
374.184
376.668
379.05
381.311
383.425
385.353
387.081
388.522
389.599
390.113
390.299
354.103
357.229
360.021
362.923
365.828
368.725
371.59
374.434
377.208
379.93
382.534
385.046
387.38
389.544
391.451
393.077
394.314
395.182
395.667
395.579
-206.945
-215.894
-225.236
-235.312
-245.712
-256.851
-268.374
-280.53
-293.228
-306.565
-320.559
-335.279
-350.808
-367.176
-384.326
-402.791
-422.288
-438.74
-448.287
-448.963
-202.65
-211.794
-221.256
-231.583
-242.244
-253.717
-265.661
-278.298
-291.582
-305.574
-320.352
-335.936
-352.465
-369.979
-388.713
-408.905
-430.32
-449.459
-463.167
-463.239
-197.252
-206.643
-216.317
-226.911
-237.864
-249.662
-261.984
-275.027
-288.763
-303.278
-318.636
-334.897
-352.177
-370.584
-390.352
-411.53
-434.008
-455.708
-473.202
-473.348
-191.228
-200.798
-210.55
-221.315
-232.411
-244.401
-256.974
-270.321
-284.448
-299.412
-315.304
-332.169
-350.165
-369.386
-389.976
-412.021
-435.534
-459.515
-479.439
-483.237
-183.83
-193.6
-203.357
-214.288
-225.541
-237.701
-250.514
-264.104
-278.48
-293.728
-309.921
-327.131
-345.516
-365.164
-386.19
-408.975
-433.526
-458.977
-478.869
-484.547
-175.928
-185.705
-195.339
-206.26
-217.572
-229.762
-242.634
-256.319
-270.86
-286.316
-302.772
-320.293
-339.034
-359.005
-380.445
-403.622
-428.007
-453.631
-476.508
-481.656
-166.103
-175.923
-185.571
-196.453
-207.79
-219.989
-232.926
-246.672
-261.267
-276.806
-293.354
-310.997
-329.908
-350.186
-372.02
-395.538
-420.709
-448.355
-470.47
-475.535
-155.695
-165.498
-174.952
-185.711
-196.934
-209.011
-221.819
-235.458
-249.989
-265.489
-282.017
-299.67
-318.642
-338.904
-360.802
-384.451
-409.915
-437.658
-461.097
-466.999
-143.221
-152.963
-162.3
-172.897
-184.021
-195.934
-208.631
-222.155
-236.546
-251.91
-268.306
-285.858
-304.675
-324.852
-346.706
-370.213
-395.648
-423.439
-447.434
-454.039
-130.24
-139.877
-148.935
-159.267
-170.129
-181.778
-194.176
-207.398
-221.512
-236.605
-252.724
-269.987
-288.552
-308.439
-329.976
-353.17
-378.285
-405.644
-430.144
-437.604
-115.232
-124.687
-133.504
-143.526
-154.143
-165.472
-177.58
-190.518
-204.31
-219.066
-234.839
-251.768
-269.93
-289.452
-310.634
-333.355
-358.069
-385.008
-409.666
-417.874
-99.596
-108.869
-117.358
-127.005
-137.245
-148.184
-159.867
-172.349
-185.691
-199.992
-215.284
-231.704
-249.369
-268.346
-288.935
-311.013
-335.107
-361.528
-386.141
-394.889
-82.2334
-91.2279
-99.372
-108.57
-118.425
-128.92
-140.158
-152.212
-165.09
-178.893
-193.677
-209.581
-226.652
-245.061
-265.018
-286.378
-309.97
-335.436
-359.991
-369.155
-64.0374
-72.7781
-80.5648
-89.3165
-98.7189
-108.735
-119.47
-130.972
-143.277
-156.503
-170.663
-185.908
-202.324
-220.025
-239.19
-259.829
-282.619
-306.748
-331.486
-340.805
-44.4346
-52.8686
-60.2684
-68.4857
-77.4026
-86.9069
-97.0943
-108.061
-119.809
-132.427
-145.961
-160.564
-176.242
-193.186
-211.536
-231.328
-253.065
-276.119
-300.679
-310.146
-23.9027
-32.0429
-39.0774
-46.8227
-55.2628
-64.2477
-73.9039
-84.2863
-95.4026
-107.374
-120.21
-134.058
-148.978
-165.11
-182.591
-201.435
-222.137
-244.163
-268.26
-277.876
-2.55728
-10.3315
-16.9214
-24.0925
-31.9924
-40.4466
-49.516
-59.3053
-69.8159
-81.1279
-93.2769
-106.431
-120.545
-135.856
-152.399
-170.314
-189.938
-210.924
-234.076
-243.813
19.3288
11.9076
5.80619
-0.809566
-8.22019
-16.1419
-24.6496
-33.8408
-43.6941
-54.3196
-65.7302
-78.0581
-91.344
-105.769
-121.402
-138.318
-156.913
-176.863
-199.181
-208.922
43.6102
35.7705
29.8291
23.713
16.7532
9.2295
1.20621
-7.42385
-16.6957
-26.6769
-37.3905
-49.0221
-61.4955
-75.0801
-89.7127
-105.643
-123.126
-141.818
-163.035
-172.922
71.0987
63.2028
55.9588
49.4296
42.5074
35.0764
27.298
19.055
10.2994
0.931849
-9.08218
-19.8685
-31.4517
-44.0756
-57.7155
-72.6278
-88.974
-106.574
-126.879
-136.775
78.1883
77.6818
77.2069
75.3467
73.2612
69.7864
66.8153
62.0314
57.6765
51.2116
44.6718
35.8768
25.7675
13.6807
-2.4119
-19.5756
-46.2553
-72.9093
-116.182
-163.731
78.5247
78.004
77.7453
75.7712
73.8671
70.4435
67.5891
62.8976
58.667
52.3177
45.9469
37.3119
27.441
15.5987
-0.189566
-16.8113
-43.2273
-69.0011
-112.253
-159.105
78.9003
78.3644
78.2443
76.2225
74.4609
71.0982
68.3729
63.773
59.6651
53.438
47.2378
38.7572
29.1355
17.538
2.08166
-14.1345
-40.1962
-64.9632
-107.745
-153.095
79.2976
78.757
78.7529
76.725
75.1186
71.8243
69.2137
64.7161
60.7364
54.6323
48.614
40.2911
30.9444
19.5746
4.51056
-11.2247
-36.7796
-60.7272
-103.195
-147.195
79.7353
79.1907
79.267
77.2612
75.7707
72.5477
70.0621
65.6698
61.8162
55.8419
50.0064
41.8405
32.7748
21.6361
6.97925
-8.38211
-33.3529
-56.3547
-97.8439
-139.961
80.2224
79.6861
79.8252
77.8408
76.4803
73.3435
70.9721
66.6906
62.9664
57.1242
51.4802
43.4755
34.7137
23.795
9.60982
-5.30329
-29.5782
-51.709
-92.3744
-132.757
80.7491
80.2417
80.4072
78.4498
77.1942
74.1355
71.8866
67.7236
64.1267
58.424
52.9695
45.1309
36.6743
25.9831
12.2733
-2.27566
-25.7827
-46.9275
-86.1488
-124.239
81.3197
80.8636
81.0151
79.0985
77.9511
75.0003
72.8631
68.8219
65.354
59.7935
54.5359
46.8682
38.7352
28.2667
15.0947
0.979683
-21.6479
-41.8276
-79.7347
-115.61
81.9262
81.5374
81.6483
79.7683
78.7138
75.857
73.8451
69.934
66.5921
61.1828
56.1167
48.6303
40.8174
30.5845
17.9474
4.19771
-17.4904
-36.6082
-72.6492
-105.742
82.5689
82.2602
82.3007
80.4699
79.5859
76.7876
74.8915
71.1093
67.894
62.6373
57.7693
50.4696
42.9902
32.9947
20.9438
7.62879
-13.0013
-31.0381
-65.3091
-95.5362
83.229
83.006
82.9662
81.1829
80.4345
77.7201
75.9385
72.2989
69.2061
64.1132
59.4357
52.3369
45.1837
35.4432
23.9709
11.0364
-8.48882
-25.3791
-57.4042
-84.2001
83.9022
83.7469
83.6482
81.9247
81.2887
78.7188
77.0494
73.5485
70.5784
65.6488
61.1671
54.2752
47.4559
37.9785
27.1182
14.635
-3.66083
-19.3611
-49.1912
-72.3072
84.574
84.4594
84.334
82.6589
82.177
79.7147
78.1625
74.8128
71.9603
67.206
62.9129
56.2444
49.7505
40.5574
30.2988
18.2341
1.20261
-13.2816
-40.4993
-59.3672
85.2339
85.1104
85.0216
83.3917
83.0899
80.7777
79.3402
76.1341
73.3998
68.8193
64.7195
58.2816
52.1167
43.2216
33.5768
22.0025
6.35034
-6.88551
-31.501
-45.7409
85.874
85.7138
85.7138
84.1266
84.0365
81.8398
80.5167
77.4674
74.8443
70.4475
66.5338
60.3389
54.4895
45.9039
36.8481
25.7455
11.4742
-0.524123
-22.0675
-30.9836
86.5226
86.2639
86.3734
84.8858
85.0064
82.9603
81.7551
78.8476
76.3335
72.1172
68.3917
62.4472
56.9123
48.6575
40.1972
29.6653
16.9025
6.22202
-12.0437
-15.2258
87.1145
86.726
87.0468
85.6966
86.0227
84.1092
83.0101
80.2654
77.8603
73.8438
70.3158
64.6538
59.4528
51.5751
43.7369
33.8242
22.5736
13.1269
-1.66343
1.01904
87.7841
87.332
87.9177
86.4569
87.0922
85.3145
84.3331
81.7259
79.4341
75.6066
72.2745
66.876
61.9774
54.4201
47.088
37.7556
27.8487
19.5513
8.2833
17.4737
88.255
87.5759
88.2528
87.0418
88.0535
86.4021
85.5169
83.0317
80.8012
77.1189
73.92
68.7163
63.9796
56.6081
49.5845
40.814
32.109
25.2584
19.8061
39.695
88.9372
86.9431
87.8458
87.8052
89.1351
87.7261
86.9244
84.6312
82.463
79.0354
76.0542
71.2739
66.9589
60.2777
54.2793
46.7409
40.5745
35.6037
36.411
63.7184
102.246
97.4354
99.2769
98.5875
98.9134
98.2619
97.8929
97.1254
96.823
96.0471
95.9438
95.0005
96.1115
95.569
99.0349
98.5771
105.463
108.042
119.003
108.123
106.606
105.771
106.314
106.568
106.85
106.951
107.321
107.516
108.153
108.696
110.323
112.077
115.4
118.325
124.415
129.164
140.483
146.429
170.341
180.051
122.366
122.314
122.018
122.885
123.262
124.137
125.078
126.249
127.856
129.7
132.354
134.786
138.494
142.118
147.871
153.673
162.192
170.725
183.827
194.903
128.267
128.545
128.856
129.886
130.914
132.304
133.996
136.041
138.615
141.268
144.49
147.962
152.427
157.044
163.122
168.975
177.422
185.063
196.37
204.999
138.018
138.153
138.968
140.45
141.747
143.464
145.218
147.262
149.426
151.851
154.699
157.864
161.503
165.581
170.105
175.273
180.747
186.789
193.179
200.242
143.658
143.918
145.039
146.47
148.214
150.238
152.477
154.701
157.423
160.075
163.307
166.415
170.246
173.863
178.345
182.471
187.563
192.084
198.142
202.246
149.824
150.428
151.756
153.659
155.891
157.833
160.137
162.218
164.691
166.998
169.686
172.327
175.284
178.311
181.558
184.953
188.443
192.087
195.097
198.532
154.119
154.82
156.779
158.971
161.429
163.557
165.984
168.085
170.588
172.777
175.423
177.752
180.579
183.063
186.042
188.673
191.689
194.473
197.811
200.359
160.241
160.955
163.658
165.667
168.47
170.284
172.674
174.393
176.609
178.381
180.543
182.434
184.631
186.655
188.931
191.071
193.474
195.559
197.472
199.182
166.338
166.788
170.15
171.769
174.539
176.143
178.262
179.764
181.664
183.16
185.006
186.535
188.427
189.975
191.929
193.467
195.383
196.907
198.991
200.496
177.651
175.98
180.664
180.956
183.128
183.943
185.445
186.334
187.673
188.641
189.957
191.022
192.364
193.516
194.92
196.129
197.606
198.854
200.149
201.199
192.149
190.325
190.033
189.839
190.438
190.647
191.224
191.625
192.316
192.858
193.71
194.373
195.362
196.133
197.226
198.033
199.178
199.979
201.146
201.974
203.642
202.799
199.794
199.815
198.426
198.318
197.813
197.778
197.803
197.908
198.24
198.508
199.05
199.454
200.12
200.647
201.406
201.997
202.802
203.374
211.773
210.582
207.548
205.248
204.045
202.67
202.075
201.3
201.157
200.766
200.947
200.862
201.236
201.371
201.875
202.156
202.753
203.132
203.789
204.22
218.701
214.175
212.515
210.022
208.699
207.037
206.288
205.189
204.879
204.215
204.108
203.812
203.884
203.845
204.076
204.21
204.559
204.805
205.244
205.551
224.202
213.109
212.239
210.347
209.507
208.061
207.539
206.496
206.204
205.62
205.495
205.163
205.163
205.029
205.183
205.227
205.498
205.657
206.007
206.246
216.941
214.344
213.277
211.655
210.955
209.786
209.29
208.465
207.953
207.367
207.104
206.751
206.663
206.463
206.504
206.478
206.628
206.741
206.981
207.176
221.947
212.334
212.192
211.15
210.708
209.884
209.388
208.76
208.514
207.993
207.806
207.406
207.308
207.078
207.068
207.075
207.28
207.349
207.548
207.697
213.24
212.397
212.278
210.928
210.727
210.073
209.802
209.249
208.971
208.598
208.388
208.193
208.02
207.929
207.852
207.811
207.744
207.811
207.939
208.08
219.438
211.937
211.757
211.143
210.788
210.259
209.889
209.449
209.137
208.793
208.562
208.324
208.188
208.067
208.002
207.931
207.941
207.991
208.087
208.241
145.182
159.825
174.057
188.415
201.618
214.682
226.776
238.388
248.929
259.147
268.384
277.274
284.714
291.595
297.731
303.051
307.752
311.681
314.95
317.576
206.922
215.76
223.37
230.354
235.946
241.011
246.036
250.702
255.389
259.573
264.614
270.108
273.914
276.971
280.186
282.619