/*--------------------------------*- C++ -*----------------------------------*\
  =========                 |
  \\      /  F ield         | OpenFOAM: The Open Source CFD Toolbox
   \\    /   O peration     | Website:  https://openfoam.org
    \\  /    A nd           | Version:  9
     \\/     M anipulation  |
\*---------------------------------------------------------------------------*/
FoamFile
{
    format      ascii;
    class       volVectorField;
    location    "9.4";
    object      U;
}
// * * * * * * * * * * * * * * * * * * * * * * * * * * * * * * * * * * * * * //

dimensions      [0 1 -1 0 0 0 0];

internalField   nonuniform List<vector> 
46400
(
(7.7703 -7.43145 5.12279e-19)
(15.1862 -14.7286 -6.26868e-19)
(15.9439 -16.0828 -3.85354e-20)
(15.3098 -16.249 -1.9967e-19)
(14.8135 -16.3056 -2.90496e-20)
(14.2713 -16.4262 1.12861e-18)
(13.778 -16.4807 -6.52729e-19)
(13.2825 -16.5361 1.7881e-19)
(12.8579 -16.6419 -1.80211e-19)
(12.4218 -16.6853 1.81165e-19)
(12.0204 -16.7557 -1.8171e-19)
(11.6386 -16.8108 0)
(11.2523 -16.8698 1.22024e-18)
(10.9178 -16.9478 -1.38015e-18)
(10.6192 -17.0752 -1.58165e-18)
(10.3248 -17.1575 -1.99253e-19)
(9.9731 -17.173 -1.8169e-20)
(9.67671 -17.186 1.19582e-18)
(9.43458 -17.236 1.53351e-18)
(9.02948 -17.4136 -1.41332e-18)
(7.98087 -7.02079 0)
(15.1946 -13.7277 -2.31642e-20)
(15.8507 -14.9433 0)
(15.1398 -15.0285 8.9632e-19)
(14.6037 -15.1309 -7.16326e-19)
(14.0678 -15.258 1.74234e-19)
(13.5553 -15.375 0)
(13.0868 -15.4875 -1.78801e-19)
(12.6286 -15.6103 1.80203e-19)
(12.229 -15.7231 -1.81158e-19)
(11.805 -15.8239 1.71756e-18)
(11.4079 -15.8718 2.19359e-20)
(11.0524 -16.0069 -1.32677e-18)
(10.715 -16.0803 0)
(10.3788 -16.1854 1.81056e-19)
(10.1422 -16.3522 1.80429e-19)
(9.86648 -16.4952 0)
(9.57177 -16.4892 -1.49641e-18)
(9.34488 -16.5832 -3.68842e-19)
(9.0369 -16.8119 1.51501e-18)
(8.14047 -6.58336 5.24111e-19)
(15.0876 -12.6709 -7.34462e-19)
(15.4731 -13.6297 7.76065e-19)
(14.8148 -13.846 8.24651e-19)
(14.2979 -13.9797 -8.0963e-19)
(13.7671 -14.1658 0)
(13.2681 -14.2995 -1.90205e-18)
(12.7837 -14.4284 1.65424e-18)
(12.3663 -14.6237 -1.90169e-18)
(11.9464 -14.7484 1.87279e-18)
(11.5704 -14.9212 1.6718e-18)
(11.1859 -15.0145 -1.96924e-19)
(10.7943 -15.115 -1.423e-18)
(10.4789 -15.2541 0)
(10.1456 -15.3722 1.62668e-18)
(9.84141 -15.4867 -1.60195e-18)
(9.57704 -15.6672 0)
(9.30963 -15.7636 -1.23227e-20)
(9.0345 -15.8085 1.86583e-19)
(8.70418 -16.0798 -1.61241e-18)
(8.33218 -6.12852 -6.39874e-19)
(14.8225 -11.4588 1.96484e-19)
(15.1519 -12.4197 9.06336e-19)
(14.4672 -12.5918 -8.94972e-19)
(13.9094 -12.7931 -6.83823e-19)
(13.407 -13.01 9.07067e-19)
(12.9019 -13.2359 1.14234e-18)
(12.419 -13.3771 -2.7487e-18)
(11.9626 -13.5849 2.26488e-18)
(11.5901 -13.7856 -2.17425e-19)
(11.1945 -13.9889 0)
(10.8287 -14.1249 2.14887e-19)
(10.4598 -14.2814 -2.13293e-19)
(10.1306 -14.3941 0)
(9.81516 -14.5462 1.73681e-18)
(9.55581 -14.7043 -1.4896e-18)
(9.29775 -14.9078 0)
(9.06852 -15.0733 2.0334e-19)
(8.84301 -15.2082 2.11469e-19)
(8.47881 -15.4618 1.72901e-18)
(8.60061 -5.72671 0)
(14.446 -10.2861 0)
(14.6173 -11.143 -1.00689e-18)
(13.9523 -11.4207 7.29782e-19)
(13.4017 -11.6602 -1.25193e-18)
(12.887 -11.9049 9.94131e-19)
(12.412 -12.1672 0)
(11.9582 -12.3754 9.95933e-19)
(11.5223 -12.6112 -1.21584e-18)
(11.122 -12.8056 -2.52172e-19)
(10.7876 -13.0909 -2.49341e-19)
(10.4486 -13.2863 0)
(10.0845 -13.4745 1.89112e-18)
(9.79211 -13.6791 -1.8616e-18)
(9.44742 -13.8049 0)
(9.12005 -13.8934 -2.04028e-18)
(8.85682 -14.0782 1.7923e-18)
(8.61352 -14.2255 1.77118e-18)
(8.40176 -14.3893 -1.94616e-18)
(8.10592 -14.697 0)
(8.89479 -5.35266 0)
(13.8978 -9.15516 0)
(13.9229 -9.89538 0)
(13.325 -10.2184 -2.29952e-20)
(12.7801 -10.539 0)
(12.3253 -10.8372 0)
(11.8474 -11.1578 0)
(11.3991 -11.3754 -2.75404e-19)
(10.9691 -11.6611 0)
(10.5864 -11.8785 2.52163e-19)
(10.2159 -12.1546 -1.55598e-20)
(9.90671 -12.4023 -2.29545e-18)
(9.54358 -12.6032 1.74459e-18)
(9.26997 -12.841 -2.2305e-18)
(9.05113 -13.1558 1.69693e-18)
(8.76742 -13.3166 0)
(8.48468 -13.4923 -1.89041e-18)
(8.25859 -13.6778 1.62419e-18)
(8.02299 -13.8045 0)
(7.71938 -14.1216 -2.46078e-19)
(9.1423 -4.97848 1.112e-18)
(13.2692 -8.1049 3.10856e-19)
(13.1554 -8.77961 1.20289e-18)
(12.6072 -9.14445 -1.20327e-18)
(12.0737 -9.51097 -1.1817e-18)
(11.6114 -9.80202 2.32909e-18)
(11.1966 -10.182 -2.59883e-18)
(10.7936 -10.4581 2.70708e-19)
(10.3818 -10.756 8.31123e-19)
(10.0101 -11.0005 0)
(9.67194 -11.299 -1.47537e-20)
(9.41119 -11.6071 -1.40404e-20)
(9.07003 -11.8412 2.57366e-19)
(8.71621 -11.9894 2.06697e-18)
(8.44119 -12.2311 -1.79791e-18)
(8.22871 -12.5003 -2.27031e-18)
(7.95478 -12.6913 1.98289e-18)
(7.73327 -12.8885 -1.05764e-20)
(7.5356 -13.0727 -2.44713e-19)
(7.2504 -13.3465 -1.77122e-18)
(9.24862 -4.68893 -3.03626e-19)
(12.3844 -7.03789 2.24363e-20)
(12.1291 -7.70745 -3.31898e-19)
(11.7236 -8.12552 -1.29753e-18)
(11.2376 -8.57131 9.30858e-19)
(10.8445 -8.91914 0)
(10.4127 -9.29132 1.83506e-18)
(10.0416 -9.591 -8.9461e-19)
(9.67216 -9.93744 5.92098e-19)
(9.31278 -10.184 2.98502e-19)
(8.93662 -10.4491 -5.74171e-19)
(8.68069 -10.7672 1.40371e-18)
(8.46035 -11.1419 2.83137e-19)
(8.19855 -11.4162 -1.63329e-18)
(7.91332 -11.6536 4.5567e-18)
(7.68366 -11.9065 -1.84952e-18)
(7.47833 -12.1923 2.32806e-18)
(7.24747 -12.3881 -1.52672e-18)
(7.06508 -12.6164 4.9881e-19)
(6.82053 -12.922 2.37182e-18)
(9.07304 -4.28274 1.55573e-18)
(11.5408 -6.13211 -3.3395e-19)
(11.2576 -6.78115 -1.95e-20)
(10.8542 -7.21666 6.74174e-19)
(10.4009 -7.68335 3.23405e-19)
(10.0267 -8.06203 3.35266e-19)
(9.68724 -8.52253 -1.60104e-18)
(9.32828 -8.83428 9.56343e-19)
(8.9871 -9.2086 -3.03665e-19)
(8.70221 -9.53081 -2.98537e-19)
(8.32906 -9.76692 -2.93427e-19)
(8.01098 -9.98326 -3.00384e-19)
(7.7144 -10.2471 -5.7789e-19)
(7.49472 -10.5363 1.98871e-18)
(7.26001 -10.8214 -2.78863e-18)
(7.02588 -11.0561 -2.78203e-19)
(6.81139 -11.3294 9.509e-21)
(6.63146 -11.5835 -2.09465e-18)
(6.43576 -11.8037 1.55589e-18)
(6.23734 -12.1503 -2.44761e-18)
(8.69557 -3.80774 1.34342e-18)
(10.4409 -5.21767 -3.28553e-18)
(10.0637 -5.84667 2.16111e-18)
(9.76862 -6.33296 -3.46303e-19)
(9.36705 -6.87313 -3.56651e-19)
(9.00515 -7.28211 1.38839e-18)
(8.66567 -7.76481 -1.69313e-18)
(8.37686 -8.16108 0)
(8.03651 -8.53468 1.29748e-18)
(7.82639 -8.95463 -1.27582e-18)
(7.58618 -9.35351 -9.2946e-19)
(7.32273 -9.64757 1.21609e-18)
(7.07185 -9.94937 2.94702e-19)
(6.80542 -10.1919 -1.17519e-18)
(6.59786 -10.4828 2.88611e-19)
(6.39692 -10.7348 1.41282e-18)
(6.19663 -10.9899 -2.48781e-18)
(6.01218 -11.2153 1.6382e-18)
(5.84209 -11.4407 -7.93403e-21)
(5.62803 -11.7095 -2.25326e-18)
(8.13601 -3.28262 1.77902e-18)
(9.54717 -4.42591 -1.14716e-18)
(9.18024 -5.03673 7.54677e-19)
(8.84697 -5.49239 1.44491e-21)
(8.46224 -5.99916 -1.46897e-18)
(8.15274 -6.44141 -1.41392e-18)
(7.86426 -6.95658 1.74604e-18)
(7.62236 -7.38925 -1.02278e-18)
(7.27746 -7.7714 1.34901e-18)
(6.971 -8.08732 0)
(6.73073 -8.49847 1.05054e-20)
(6.51804 -8.85721 3.11541e-19)
(6.27881 -9.20476 3.14889e-19)
(6.08201 -9.52519 -3.08339e-19)
(5.85508 -9.83336 0)
(5.67378 -10.1257 2.95701e-19)
(5.49737 -10.435 0)
(5.3422 -10.7043 5.59796e-19)
(5.19647 -10.9766 2.73669e-18)
(5.03297 -11.291 -1.51142e-20)
(7.4055 -2.76167 9.39575e-19)
(8.31686 -3.6927 -1.97719e-19)
(7.86469 -4.31271 -2.75381e-18)
(7.64246 -4.84436 1.54088e-18)
(7.31414 -5.38291 3.70857e-19)
(6.94231 -5.75198 -3.63699e-19)
(6.67077 -6.26415 -1.44873e-18)
(6.51807 -6.78243 1.07424e-18)
(6.32419 -7.28875 0)
(6.10421 -7.69639 0)
(5.84454 -8.06818 -1.6585e-18)
(5.6646 -8.44139 1.30863e-18)
(5.47327 -8.80639 -3.14906e-19)
(5.25856 -9.1022 -9.38548e-19)
(5.09341 -9.44 7.15011e-21)
(4.9037 -9.70868 2.1011e-18)
(4.73811 -10.0112 -1.17695e-18)
(4.58578 -10.2754 8.62024e-19)
(4.44534 -10.5422 -1.40691e-18)
(4.29433 -10.858 0)
(6.51141 -2.23019 -7.85604e-19)
(7.33819 -3.0868 1.22958e-18)
(6.88416 -3.74912 2.0536e-19)
(6.64968 -4.29241 2.01181e-19)
(6.4527 -4.94456 0)
(6.15154 -5.36517 1.52019e-18)
(5.73668 -5.7293 -1.49351e-18)
(5.4961 -6.14228 1.84618e-19)
(5.28348 -6.58965 0)
(5.12916 -7.03485 1.39409e-18)
(4.95843 -7.47731 -1.19845e-18)
(4.76285 -7.85169 1.33412e-18)
(4.63198 -8.27088 -1.31291e-18)
(4.47288 -8.62399 1.27664e-18)
(4.30095 -8.96373 -1.0989e-18)
(4.17212 -9.29698 -1.22191e-18)
(4.01362 -9.60009 2.3993e-18)
(3.89436 -9.90026 -1.02996e-18)
(3.76954 -10.1717 1.44927e-19)
(3.64632 -10.4961 1.21573e-18)
(5.39026 -1.71886 -6.20595e-19)
(5.70613 -2.56751 6.40445e-19)
(5.25205 -3.21012 -2.05336e-19)
(5.04336 -3.81799 -2.01147e-19)
(4.92677 -4.49345 0)
(4.87722 -5.13526 0)
(4.66843 -5.6289 0)
(4.46521 -6.0553 -3.73209e-19)
(4.26564 -6.46724 -1.45703e-18)
(4.06584 -6.8379 2.85688e-18)
(3.90713 -7.23028 -1.57354e-18)
(3.77862 -7.61069 -1.72175e-19)
(3.63181 -7.97191 0)
(3.53191 -8.34335 0)
(3.39992 -8.68381 -3.18976e-19)
(3.27853 -9.00274 0)
(3.16122 -9.32695 1.21696e-18)
(3.04534 -9.61555 -1.49756e-18)
(2.94008 -9.90037 -1.30953e-18)
(2.83154 -10.2217 1.24756e-18)
(4.14989 -1.24598 6.43164e-19)
(4.63519 -2.07301 1.08033e-18)
(4.38384 -2.63186 -1.41239e-21)
(4.14605 -3.11428 -2.09191e-21)
(3.95525 -3.6653 2.02327e-19)
(3.84024 -4.25508 -5.96679e-19)
(3.70974 -4.84535 0)
(3.55414 -5.37855 -5.70394e-19)
(3.42097 -5.88225 1.91489e-19)
(3.28332 -6.35408 7.29413e-19)
(3.1044 -6.77004 7.08423e-19)
(2.94848 -7.17097 -5.24827e-19)
(2.8329 -7.57562 1.35318e-18)
(2.69675 -7.93516 -1.16521e-18)
(2.60997 -8.31595 1.45369e-18)
(2.50469 -8.65117 -2.69646e-18)
(2.39846 -8.98407 1.24502e-18)
(2.3158 -9.29487 1.50497e-19)
(2.21939 -9.58227 1.18203e-18)
(2.13278 -9.90847 -1.26652e-18)
(2.70539 -0.693935 2.21135e-19)
(3.10602 -1.69256 -2.18169e-19)
(2.99054 -2.34573 8.62137e-19)
(2.78021 -2.96517 -8.46315e-19)
(2.5299 -3.48515 -4.12498e-19)
(2.4136 -4.06186 -1.00596e-18)
(2.26916 -4.59458 4.34659e-21)
(2.20422 -5.13181 7.734e-19)
(2.09572 -5.64262 -1.87171e-19)
(2.01843 -6.12126 0)
(1.96933 -6.59544 0)
(1.85685 -7.00458 0)
(1.78441 -7.41289 0)
(1.71918 -7.80187 1.65447e-21)
(1.62844 -8.16123 0)
(1.58535 -8.52645 1.59356e-19)
(1.50716 -8.85922 6.2385e-19)
(1.44031 -9.17524 -1.83489e-18)
(1.37976 -9.47182 1.35283e-18)
(1.2994 -9.7831 -1.26923e-18)
(1.66921 -0.548324 0)
(1.66403 -1.22366 -1.11544e-19)
(1.81547 -2.01206 0)
(1.68325 -2.6872 3.18716e-19)
(1.56868 -3.26668 -2.10378e-19)
(1.40137 -3.81433 -8.13436e-19)
(1.33422 -4.35905 4.34268e-21)
(1.19085 -4.83772 7.81054e-19)
(1.13752 -5.37406 -7.58421e-19)
(1.0625 -5.81015 1.48651e-18)
(0.985374 -6.29838 -5.10196e-21)
(0.932479 -6.71192 -7.11814e-19)
(0.855169 -7.13495 6.90248e-19)
(0.792629 -7.5179 -8.47875e-19)
(0.748778 -7.906 0)
(0.687248 -8.25554 -6.43762e-19)
(0.66964 -8.62474 6.34137e-19)
(0.617907 -8.94573 0)
(0.597891 -9.26514 -1.50369e-19)
(0.544254 -9.59289 0)
(0.0473912 -0.399167 3.56702e-20)
(0.317601 -0.815098 1.11567e-19)
(0.00132069 -1.78749 0)
(0.143956 -2.36127 4.27472e-19)
(0.069243 -3.19607 -5.24808e-19)
(0.0160255 -3.67579 3.05956e-19)
(0.00274289 -4.34378 -9.00135e-19)
(-0.0813986 -4.79003 3.91975e-19)
(-0.0861708 -5.34476 -9.54817e-20)
(-0.107147 -5.78819 0)
(-0.118425 -6.28709 -9.10658e-20)
(-0.120007 -6.69575 -8.89316e-20)
(-0.15176 -7.14861 -8.68648e-20)
(-0.15521 -7.51636 0)
(-0.196993 -7.92087 -6.60092e-19)
(-0.206363 -8.25647 1.37604e-18)
(-0.242364 -8.62193 -1.18651e-18)
(-0.248576 -8.93809 6.21034e-19)
(-0.271056 -9.25577 7.56541e-20)
(-0.274802 -9.57953 6.41492e-19)
(-0.531843 -0.384992 0)
(-1.21391 -0.825231 -2.23061e-19)
(-1.24876 -1.76668 4.69402e-22)
(-1.27429 -2.16341 5.89219e-19)
(-1.20585 -2.99405 -1.57454e-19)
(-1.12652 -3.43568 -1.01955e-19)
(-1.14844 -4.13792 1.01195e-19)
(-1.1195 -4.58926 1.96213e-19)
(-1.17053 -5.16793 9.54745e-20)
(-1.18675 -5.61952 -3.71933e-19)
(-1.19197 -6.11922 4.11456e-19)
(-1.19614 -6.56233 8.89242e-20)
(-1.19363 -7.00964 4.33211e-19)
(-1.1799 -7.41616 -2.65728e-21)
(-1.1678 -7.82304 3.87223e-20)
(-1.15433 -8.19038 -7.29248e-19)
(-1.13785 -8.56007 1.99394e-19)
(-1.13111 -8.8914 0)
(-1.11455 -9.21021 -3.79134e-20)
(-1.11144 -9.54436 -3.21053e-19)
(-2.37095 -0.311222 5.64327e-20)
(-2.76475 -1.11236 -1.11015e-19)
(-2.62517 -1.78632 2.17717e-19)
(-2.55002 -2.40749 -5.37897e-20)
(-2.51819 -3.02165 -5.21354e-20)
(-2.49939 -3.626 0)
(-2.45769 -4.24744 -9.91977e-20)
(-2.40509 -4.78985 1.94375e-19)
(-2.37865 -5.33652 -9.5245e-20)
(-2.30712 -5.82059 9.23989e-20)
(-2.28896 -6.29108 -4.54592e-20)
(-2.23762 -6.72707 -8.81245e-20)
(-2.18544 -7.14094 1.72794e-19)
(-2.14907 -7.54362 -1.68797e-19)
(-2.10851 -7.92552 4.14276e-20)
(-2.07095 -8.29202 2.85198e-34)
(-2.03326 -8.6454 -3.89474e-20)
(-1.98935 -8.98488 2.30618e-19)
(-1.9525 -9.29483 -1.13907e-19)
(-1.90287 -9.63501 -8.06503e-20)
(-0.271741 -0.654997 2.19751e-20)
(0.238463 -2.37538 8.02897e-21)
(1.07016 -7.45081 0)
(3.99229 -16.8649 9.93082e-21)
(5.77422 -23.6843 9.22115e-21)
(6.69407 -26.8678 8.51814e-21)
(6.95365 -27.8462 0)
(7.00742 -28.0654 6.64703e-21)
(6.97931 -28.0347 0)
(6.92891 -27.9273 0)
(6.83327 -27.7436 -4.90738e-21)
(6.80293 -27.6535 1.05185e-21)
(6.72751 -27.5873 8.51848e-21)
(6.69559 -27.4877 0)
(6.61288 -27.4191 2.66341e-21)
(6.58944 -27.3386 2.1601e-21)
(6.49266 -27.2904 1.6897e-21)
(6.46757 -27.213 0)
(6.35815 -27.1715 -1.7826e-21)
(6.33516 -27.1056 1.69372e-21)
(-0.0052522 -0.634366 3.3575e-20)
(0.500214 -3.82291 -3.64361e-20)
(2.44965 -11.6796 0)
(5.28554 -20.752 -3.96665e-20)
(6.65927 -25.7905 4.60677e-20)
(7.18392 -27.5981 -7.4944e-20)
(7.31397 -28.0391 3.02402e-20)
(7.3029 -28.02 1.76248e-20)
(7.27046 -27.9381 -8.10219e-20)
(7.18991 -27.7585 4.52308e-20)
(7.14251 -27.6469 -4.96068e-21)
(7.07586 -27.5281 3.05467e-20)
(7.01482 -27.4424 -4.19357e-21)
(6.96329 -27.3567 -2.54585e-20)
(6.88107 -27.2824 -2.66328e-21)
(6.83194 -27.1743 -2.15994e-21)
(6.73085 -27.0959 -1.68963e-21)
(6.69537 -27.0035 0)
(6.6049 -26.9988 -2.64691e-21)
(6.59495 -26.935 2.93579e-21)
(0.308061 -1.20303 -1.58814e-20)
(1.0773 -5.63931 0)
(3.96804 -15.4073 0)
(6.2631 -23.3562 -1.92331e-20)
(7.40908 -26.9812 1.80802e-20)
(7.65553 -27.9231 0)
(7.695 -27.9957 -1.34934e-20)
(7.67493 -27.9478 3.39595e-20)
(7.59936 -27.7791 -3.5356e-20)
(7.53561 -27.6174 3.67535e-20)
(7.45387 -27.4686 -4.40577e-20)
(7.39346 -27.3483 0)
(7.31513 -27.276 -2.15085e-20)
(7.2618 -27.1664 -1.28793e-20)
(7.16031 -27.063 3.04126e-20)
(7.11906 -26.9606 -1.76633e-20)
(7.02362 -26.9208 1.62724e-20)
(7.00143 -26.8787 0)
(6.90169 -26.8634 3.8028e-21)
(6.86515 -26.7187 -1.22968e-20)
(0.349619 -1.97689 8.43156e-20)
(1.73722 -8.08391 0)
(5.30171 -18.763 2.94786e-20)
(7.26598 -25.3837 5.43457e-20)
(7.90985 -27.6034 -1.06741e-19)
(8.09667 -27.9991 2.94736e-20)
(8.06468 -27.9642 1.30918e-20)
(8.00839 -27.8092 1.20928e-19)
(7.91779 -27.6077 -1.65838e-19)
(7.83832 -27.4469 -5.95154e-21)
(7.76651 -27.3004 7.21824e-20)
(7.68961 -27.1874 1.09287e-20)
(7.6189 -27.0957 -4.22641e-20)
(7.54531 -26.9801 3.93349e-20)
(7.45324 -26.9002 6.91009e-21)
(7.40912 -26.8105 -1.69633e-21)
(7.28746 -26.7529 9.24012e-22)
(7.25363 -26.6452 0)
(7.10759 -26.5967 3.04598e-21)
(7.05004 -26.3739 0)
(0.270459 -2.64763 0)
(2.89368 -10.7975 1.74394e-19)
(6.27063 -21.1037 -2.14204e-19)
(8.07027 -26.4039 1.8342e-19)
(8.51402 -27.8517 -1.4455e-19)
(8.54418 -27.9518 -2.96584e-20)
(8.51331 -27.8295 0)
(8.40403 -27.5917 5.94798e-20)
(8.32452 -27.4288 -8.1308e-20)
(8.23932 -27.2546 7.31978e-20)
(8.14688 -27.1044 -5.56744e-20)
(8.06228 -26.9783 -1.09281e-20)
(7.97116 -26.8781 3.24438e-20)
(7.88553 -26.7646 -4.43836e-20)
(7.77644 -26.6568 1.54922e-20)
(7.70043 -26.5421 -5.14743e-21)
(7.57458 -26.4694 9.8731e-21)
(7.53876 -26.4035 -4.25806e-20)
(7.38779 -26.3486 2.8781e-20)
(7.329 -26.1123 6.49783e-20)
(0.558892 -3.43541 1.87838e-19)
(3.95473 -13.2824 1.77429e-19)
(7.37011 -23.1298 -1.75444e-19)
(8.80172 -27.2163 -3.73269e-20)
(9.04276 -27.9137 3.29742e-20)
(9.03192 -27.8547 1.02173e-19)
(8.91059 -27.6165 -1.03015e-19)
(8.81686 -27.4083 0)
(8.71079 -27.2151 5.98642e-20)
(8.60362 -27.035 -5.88615e-20)
(8.49676 -26.8656 -3.46976e-20)
(8.39197 -26.7343 3.41359e-20)
(8.29308 -26.6316 0)
(8.18718 -26.4915 0)
(8.07361 -26.3976 -9.0668e-21)
(8.00292 -26.3011 1.10401e-20)
(7.87039 -26.2557 4.16751e-20)
(7.82158 -26.1432 -4.09171e-20)
(7.61853 -26.0388 6.82869e-20)
(7.53928 -25.7323 -8.50929e-20)
(1.06131 -4.36777 0)
(5.16131 -15.1489 4.67678e-20)
(8.37929 -24.3552 1.80689e-20)
(9.55892 -27.4609 1.96968e-19)
(9.63441 -27.7909 0)
(9.55532 -27.6278 0)
(9.40799 -27.36 1.60496e-19)
(9.2945 -27.1441 -2.97802e-20)
(9.16252 -26.9519 -1.25757e-19)
(9.03369 -26.7535 7.09642e-20)
(8.90827 -26.5893 -6.97976e-20)
(8.79005 -26.4566 0)
(8.67297 -26.336 2.33329e-21)
(8.55254 -26.2228 -2.29662e-21)
(8.43295 -26.1162 0)
(8.32178 -26.0102 0)
(8.16433 -25.9048 0)
(8.09306 -25.7962 0)
(7.88269 -25.6772 0)
(7.82139 -25.4215 1.06771e-20)
(1.42996 -5.37119 1.39761e-19)
(6.31994 -16.5433 -1.21009e-19)
(9.43205 -25.1836 0)
(10.2979 -27.4812 0)
(10.262 -27.5433 2.34483e-19)
(10.1142 -27.2987 -1.46254e-20)
(9.9321 -27.0582 -1.87914e-19)
(9.76794 -26.8232 0)
(9.61211 -26.6175 8.94118e-21)
(9.45613 -26.4353 -5.30208e-21)
(9.30687 -26.2605 0)
(9.16188 -26.1206 -1.00826e-21)
(9.0237 -26.0083 2.86556e-20)
(8.87799 -25.8636 -7.49307e-20)
(8.73354 -25.7592 -1.83745e-20)
(8.60937 -25.6334 6.09197e-20)
(8.4634 -25.5861 1.2447e-20)
(8.37537 -25.4848 -1.42425e-20)
(8.14629 -25.3541 0)
(8.04492 -25.0494 -1.71863e-20)
(2.12855 -6.30191 8.92303e-20)
(7.12342 -17.9782 6.34251e-20)
(10.4438 -25.7448 -2.58294e-19)
(10.9455 -27.2779 6.03033e-20)
(10.8353 -27.2111 2.02818e-20)
(10.6382 -26.9084 1.61058e-19)
(10.4284 -26.6389 -2.08346e-19)
(10.2565 -26.4277 1.2449e-19)
(10.0696 -26.2397 -5.13505e-20)
(9.88892 -26.0362 4.94404e-20)
(9.71381 -25.8717 -4.19778e-21)
(9.55117 -25.7292 -4.38435e-20)
(9.39125 -25.6052 1.47047e-20)
(9.23511 -25.4918 1.0169e-19)
(9.08466 -25.3906 -9.87611e-20)
(8.94253 -25.3002 0)
(8.75019 -25.1819 -4.51985e-20)
(8.62709 -25.0488 -2.20366e-20)
(8.3741 -24.9032 3.90792e-20)
(8.27631 -24.634 -2.49272e-20)
(2.56877 -6.94668 -1.67069e-19)
(8.28136 -18.6421 1.72861e-19)
(11.2767 -25.7509 -8.83166e-21)
(11.7034 -26.8692 -1.1203e-19)
(11.4644 -26.7219 -8.67021e-20)
(11.2291 -26.4252 -3.71385e-20)
(10.9895 -26.2059 -9.48895e-21)
(10.7564 -25.9636 -1.79642e-20)
(10.5387 -25.7603 0)
(10.3269 -25.5912 -2.43843e-21)
(10.1308 -25.4234 4.1975e-21)
(9.93772 -25.2915 -9.25306e-21)
(9.76022 -25.1778 -9.95667e-20)
(9.57113 -25.0474 3.88478e-20)
(9.39358 -24.9379 1.51285e-19)
(9.20452 -24.7981 -1.24313e-19)
(9.03369 -24.7345 -1.22987e-19)
(8.89796 -24.6373 1.89699e-19)
(8.63453 -24.5024 -3.90163e-20)
(8.52821 -24.2175 -3.38377e-19)
(3.21316 -7.6568 -3.77134e-19)
(9.26543 -19.3258 3.76947e-19)
(12.1789 -25.7076 -3.3725e-19)
(12.3293 -26.3734 2.64223e-19)
(12.0357 -26.1552 1.52389e-19)
(11.7695 -25.8663 -1.12116e-19)
(11.4724 -25.6079 -5.57035e-20)
(11.2314 -25.4155 3.406e-20)
(10.984 -25.2429 -2.76374e-21)
(10.7443 -25.0599 4.38469e-20)
(10.5163 -24.9127 -1.46993e-19)
(10.3031 -24.777 1.04496e-19)
(10.0919 -24.6657 2.47771e-20)
(9.89712 -24.5567 -1.17287e-19)
(9.70475 -24.4635 3.07681e-19)
(9.5287 -24.3792 -1.60594e-19)
(9.31693 -24.2737 0)
(9.15017 -24.1457 4.04208e-19)
(8.87229 -24.0058 -3.97429e-19)
(8.76492 -23.7328 3.86704e-19)
(3.73615 -8.05122 6.67409e-20)
(10.2214 -19.5084 8.91148e-20)
(12.8913 -25.197 2.75448e-19)
(12.996 -25.6941 1.4036e-19)
(12.6249 -25.4938 -9.66549e-20)
(12.3209 -25.2264 2.52501e-20)
(11.9974 -25.0153 -1.50087e-20)
(11.6953 -24.7921 -5.02015e-20)
(11.4147 -24.616 1.29755e-19)
(11.1433 -24.4727 -6.13466e-20)
(10.8936 -24.3299 0)
(10.6503 -24.2127 0)
(10.4284 -24.1198 0)
(10.2019 -24.0234 3.77749e-19)
(9.98371 -23.9297 -3.71896e-19)
(9.74454 -23.7925 0)
(9.53797 -23.7237 0)
(9.36273 -23.6563 6.35702e-20)
(9.08498 -23.5439 0)
(8.96091 -23.2866 5.79372e-19)
(4.31426 -8.40929 -1.1092e-19)
(11.1397 -19.6023 -2.52661e-19)
(13.6695 -24.7151 -1.07277e-19)
(13.5889 -24.9295 2.41108e-20)
(13.1546 -24.7007 4.72869e-20)
(12.8137 -24.459 -4.4901e-20)
(12.4427 -24.2446 -3.7489e-20)
(12.1201 -24.085 9.9105e-20)
(11.8146 -23.9352 0)
(11.5151 -23.7971 1.14675e-19)
(11.2384 -23.6872 -2.04059e-19)
(10.9739 -23.5808 0)
(10.7149 -23.4909 -4.36446e-19)
(10.4755 -23.4014 4.29609e-19)
(10.2477 -23.3312 -4.95884e-19)
(10.0327 -23.2673 9.39672e-19)
(9.80034 -23.1822 -5.12499e-19)
(9.59659 -23.0861 -6.35683e-20)
(9.30716 -22.983 7.55274e-20)
(9.18725 -22.729 -5.95343e-19)
(4.86237 -8.59632 -8.76177e-20)
(11.9696 -19.4467 3.79754e-20)
(14.2425 -23.936 5.40734e-20)
(14.0875 -24.0672 2.80007e-20)
(13.63 -23.8928 -4.64524e-20)
(13.2502 -23.673 8.39093e-20)
(12.8629 -23.4869 1.3165e-19)
(12.4936 -23.3148 3.72544e-21)
(12.1575 -23.1812 -2.11262e-19)
(11.8318 -23.0727 3.14108e-19)
(11.5301 -22.9732 -1.6093e-19)
(11.2408 -22.888 5.73202e-19)
(10.9752 -22.834 -4.25836e-19)
(10.7227 -22.7873 5.66635e-19)
(10.4639 -22.7292 -4.79511e-19)
(10.1883 -22.611 -5.44481e-19)
(9.94724 -22.5649 6.04273e-19)
(9.73844 -22.5304 -5.63022e-19)
(9.45234 -22.4699 5.60922e-19)
(9.30959 -22.2331 7.70565e-19)
(5.36282 -8.68292 -5.5264e-20)
(12.7077 -19.0518 3.86722e-20)
(14.8119 -23.0598 1.66771e-20)
(14.6001 -23.0825 8.57998e-20)
(14.0748 -22.9221 -8.4245e-20)
(13.6642 -22.7476 -2.79871e-20)
(13.2325 -22.5873 0)
(12.8352 -22.4628 6.16381e-20)
(12.4721 -22.3485 -2.00193e-19)
(12.1197 -22.2638 7.3711e-19)
(11.7992 -22.2021 -5.38178e-19)
(11.4895 -22.14 -1.49888e-19)
(11.1858 -22.0866 -7.16805e-20)
(10.9017 -22.0298 0)
(10.6438 -22.0134 1.32249e-20)
(10.3898 -21.9835 -7.11562e-19)
(10.126 -21.9175 -2.64141e-20)
(9.8875 -21.8757 -2.05762e-19)
(9.59401 -21.8231 7.25405e-19)
(9.46477 -21.6111 -1.91864e-19)
(5.85823 -8.70281 -2.78076e-20)
(13.4252 -18.6397 9.67022e-20)
(15.2694 -22.1557 -6.82703e-20)
(14.9337 -22.091 -1.66127e-19)
(14.4055 -21.9608 -4.28797e-20)
(13.9393 -21.8152 1.36732e-19)
(13.5073 -21.6711 -7.30987e-20)
(13.0828 -21.5725 -6.16348e-20)
(12.7 -21.4832 0)
(12.327 -21.416 0)
(11.9811 -21.3734 7.08657e-19)
(11.652 -21.3306 -1.25477e-18)
(11.3477 -21.3232 7.25865e-19)
(11.0709 -21.3287 0)
(10.7768 -21.3136 1.39711e-20)
(10.4764 -21.2459 9.23574e-19)
(10.2064 -21.238 -9.12846e-19)
(9.96752 -21.2444 9.7325e-20)
(9.68569 -21.2497 9.56116e-19)
(9.53277 -21.0432 -6.35546e-19)
(6.30094 -8.5823 1.16647e-19)
(13.9586 -17.9635 -1.59645e-19)
(15.5692 -20.9693 0)
(15.2342 -20.9562 0)
(14.7002 -20.8675 -7.84835e-20)
(14.2162 -20.7912 3.85416e-19)
(13.7542 -20.6932 1.25188e-20)
(13.2955 -20.6154 -3.40443e-19)
(12.8867 -20.5515 7.77759e-19)
(12.4881 -20.5092 -1.57607e-18)
(12.1277 -20.4954 7.9797e-19)
(11.7839 -20.4903 -2.11751e-19)
(11.4409 -20.4816 -1.00054e-18)
(11.12 -20.4677 -1.49168e-19)
(10.8407 -20.521 6.61399e-19)
(10.5554 -20.5282 -1.07297e-19)
(10.2573 -20.4984 1.04263e-18)
(9.98503 -20.5238 -9.18183e-19)
(9.70604 -20.5314 1.26543e-20)
(9.56856 -20.3851 -9.54476e-19)
(6.72295 -8.44299 0)
(14.5026 -17.3129 -2.02088e-19)
(15.9102 -19.9412 1.73688e-19)
(15.4051 -19.8657 0)
(14.8681 -19.7947 7.84753e-20)
(14.3308 -19.738 -4.0263e-19)
(13.8576 -19.6581 4.88364e-19)
(13.403 -19.6381 0)
(12.9777 -19.601 -9.23779e-19)
(12.5701 -19.5749 9.08342e-19)
(12.1848 -19.582 -1.28422e-19)
(11.8224 -19.5783 1.13985e-19)
(11.4897 -19.6268 1.16445e-19)
(11.1873 -19.6724 1.18476e-19)
(10.8654 -19.7102 1.15256e-18)
(10.5534 -19.7096 -2.05651e-18)
(10.2524 -19.7322 2.06835e-18)
(9.98245 -19.8073 -2.06623e-18)
(9.71494 -19.8779 9.03777e-19)
(9.54441 -19.7346 -1.27614e-19)
(7.10665 -8.13373 0)
(14.8154 -16.493 3.29373e-19)
(15.977 -18.6009 -1.64998e-19)
(15.4614 -18.6595 -3.20895e-19)
(14.9545 -18.6342 -3.55381e-20)
(14.4223 -18.6637 -3.14492e-20)
(13.9419 -18.638 4.80074e-19)
(13.4487 -18.6207 0)
(13.0165 -18.6277 0)
(12.5842 -18.6201 0)
(12.1914 -18.6472 1.28414e-19)
(11.8248 -18.6916 0)
(11.4507 -18.7256 1.28965e-18)
(11.1054 -18.7561 -1.12251e-18)
(10.8101 -18.8723 1.1541e-18)
(10.5077 -18.9291 -2.2941e-18)
(10.1624 -18.9254 1.14019e-18)
(9.85447 -18.9942 1.29207e-18)
(9.57787 -19.0906 -2.27112e-18)
(9.42724 -19.0038 1.17933e-18)
(7.46414 -7.85517 0)
(15.0813 -15.6143 0)
(16.1331 -17.4789 -1.08777e-19)
(15.4737 -17.4783 -1.17105e-19)
(14.9424 -17.4842 0)
(14.3804 -17.5222 -5.76282e-19)
(13.8763 -17.5326 5.66176e-19)
(13.4107 -17.5886 0)
(12.9574 -17.6213 -1.22914e-18)
(12.5343 -17.6439 1.2086e-18)
(12.1131 -17.6832 0)
(11.7202 -17.7021 1.2679e-18)
(11.3689 -17.807 -1.22006e-19)
(11.0335 -17.8682 -1.25498e-18)
(10.6817 -17.9366 0)
(10.3751 -18.0076 0)
(10.0338 -18.0723 0)
(9.71964 -18.1352 1.13313e-18)
(9.39475 -18.2051 -1.26607e-18)
(9.16999 -18.1348 0)
(5.7575 -26.6368 0)
(5.15864 -25.6195 0)
(4.62968 -25.6796 1.3391e-21)
(4.15711 -25.1489 1.62364e-21)
(3.70787 -25.2444 0)
(3.38632 -24.8633 9.96112e-23)
(3.11606 -24.8859 -2.31629e-21)
(2.81504 -24.6086 0)
(2.5597 -24.661 -2.78315e-21)
(2.33114 -24.4859 0)
(2.0324 -24.5363 3.01833e-21)
(1.83872 -24.5627 1.57503e-21)
(1.56467 -24.6595 -1.58338e-21)
(1.3706 -24.5846 -3.28984e-21)
(1.06833 -24.7034 0)
(0.968133 -24.5657 8.55042e-22)
(0.730254 -24.6722 -3.63603e-21)
(0.705378 -22.3697 0)
(0.195272 -16.5493 0)
(0.324593 -7.00071 0)
(5.92284 -26.4084 -4.87113e-23)
(5.29442 -25.4333 0)
(4.77539 -25.5822 -7.3942e-21)
(4.25433 -25.0223 4.4624e-21)
(3.75484 -25.1516 0)
(3.41827 -24.784 1.14084e-20)
(3.13668 -24.8266 -4.71774e-21)
(2.81776 -24.5428 0)
(2.54931 -24.5852 -2.92123e-21)
(2.3122 -24.3954 5.72053e-21)
(2.02264 -24.4626 -9.16627e-21)
(1.83042 -24.4883 1.2511e-20)
(1.55775 -24.5716 -9.60498e-21)
(1.35672 -24.5058 3.23901e-21)
(1.06021 -24.6501 3.32743e-21)
(0.97422 -24.5273 -3.42241e-21)
(0.737895 -24.637 5.81398e-21)
(0.722898 -22.2836 4.6434e-21)
(0.188927 -16.479 1.90793e-21)
(0.293328 -6.92088 2.7769e-21)
(6.02153 -26.1195 -4.72546e-21)
(5.47461 -25.2631 1.87079e-21)
(4.85691 -25.3874 6.04955e-21)
(4.28205 -24.8346 0)
(3.82448 -25.0155 0)
(3.47925 -24.6722 -1.40782e-20)
(3.2075 -24.7217 -7.32745e-22)
(2.87966 -24.439 -5.61994e-22)
(2.61562 -24.5197 -5.01615e-22)
(2.38109 -24.335 1.15338e-20)
(2.08885 -24.3948 0)
(1.88646 -24.4303 0)
(1.60566 -24.5202 0)
(1.38839 -24.445 1.3246e-20)
(1.09756 -24.59 0)
(0.994785 -24.475 1.36846e-20)
(0.745835 -24.6025 -1.16701e-20)
(0.710123 -22.2398 -4.98288e-21)
(0.205061 -16.4503 0)
(0.333308 -6.86983 0)
(6.24017 -25.8615 -6.75999e-21)
(5.59355 -25.0797 1.51989e-20)
(4.98602 -25.2689 9.41182e-22)
(4.38569 -24.6991 -1.34855e-20)
(3.91012 -24.93 0)
(3.52963 -24.5984 -1.95258e-20)
(3.23014 -24.6592 5.09648e-20)
(2.87797 -24.3676 -3.22299e-20)
(2.60292 -24.4399 2.26165e-20)
(2.36303 -24.2456 -1.20119e-20)
(2.07833 -24.3173 -2.01879e-22)
(1.87537 -24.3508 1.27827e-20)
(1.59505 -24.4281 -1.28441e-20)
(1.36896 -24.3647 -6.58507e-21)
(1.09051 -24.5382 -6.69212e-21)
(1.00156 -24.4344 -1.36776e-20)
(0.753552 -24.568 1.4595e-20)
(0.72091 -22.1654 -6.97969e-21)
(0.20253 -16.3971 2.1419e-21)
(0.29786 -6.80012 9.63637e-21)
(6.39952 -25.5827 -6.5421e-21)
(5.78574 -24.8848 -4.42158e-21)
(5.03968 -25.0566 1.37686e-20)
(4.43907 -24.5145 -2.18907e-20)
(3.98867 -24.7847 0)
(3.58644 -24.472 9.66445e-21)
(3.29506 -24.5466 -1.03415e-20)
(2.94254 -24.2624 0)
(2.66874 -24.3765 1.13461e-22)
(2.42922 -24.1877 0)
(2.14681 -24.2516 2.47445e-20)
(1.92993 -24.2922 0)
(1.64081 -24.3723 0)
(1.39875 -24.3032 2.66952e-20)
(1.12764 -24.4807 -1.34205e-20)
(1.02504 -24.3758 1.05268e-20)
(0.761533 -24.5337 0)
(0.718279 -22.1291 -3.48437e-21)
(0.21082 -16.3744 1.07923e-21)
(0.313763 -6.74467 0)
(6.5763 -25.285 -8.16813e-21)
(5.86988 -24.6756 1.07001e-20)
(5.15189 -24.9206 -3.73304e-20)
(4.54521 -24.3797 3.75765e-20)
(4.08603 -24.6916 -1.8544e-20)
(3.65448 -24.3959 -9.69534e-21)
(3.32221 -24.4819 2.13942e-20)
(2.93948 -24.1881 2.24839e-20)
(2.65274 -24.2928 -1.16263e-20)
(2.41083 -24.1015 -2.44029e-20)
(2.13603 -24.1706 1.22134e-20)
(1.91585 -24.207 0)
(1.62601 -24.2764 0)
(1.37593 -24.2231 3.45144e-23)
(1.12233 -24.4299 1.34507e-20)
(1.0213 -24.3386 -1.11647e-20)
(0.768601 -24.4989 0)
(0.724213 -22.0687 2.79847e-20)
(0.211743 -16.3358 2.61077e-20)
(0.280366 -6.69058 6.2771e-22)
(6.81125 -24.9939 2.82172e-20)
(6.09176 -24.4628 -3.08511e-20)
(5.24189 -24.6993 1.45064e-20)
(4.63414 -24.2081 0)
(4.1801 -24.5413 1.86178e-20)
(3.71043 -24.256 -4.1655e-20)
(3.37397 -24.358 2.0331e-20)
(2.9974 -24.0801 -2.2537e-20)
(2.71606 -24.2296 0)
(2.47114 -24.0463 0)
(2.205 -24.1068 -2.54098e-20)
(1.96888 -24.1473 2.55358e-20)
(1.66938 -24.2163 0)
(1.40475 -24.161 -3.955e-20)
(1.16031 -24.3741 1.3487e-20)
(1.04809 -24.2765 9.94515e-21)
(0.7728 -24.4668 -8.90701e-21)
(0.725397 -22.0397 -3.48445e-20)
(0.214026 -16.3177 -1.73287e-20)
(0.280415 -6.64013 -9.73917e-22)
(6.965 -24.6769 0)
(6.13367 -24.2202 2.8022e-20)
(5.35014 -24.546 -2.80808e-20)
(4.71245 -24.0635 0)
(4.26075 -24.4335 0)
(3.76448 -24.166 4.26554e-20)
(3.39422 -24.2882 -4.27591e-20)
(2.98561 -24.0035 0)
(2.69545 -24.1439 -2.43435e-20)
(2.45076 -23.9655 4.91232e-20)
(2.19215 -24.0232 -2.50692e-20)
(1.95302 -24.0567 -2.61664e-20)
(1.65063 -24.1171 2.6244e-20)
(1.38011 -24.0822 0)
(1.15646 -24.3253 0)
(1.0417 -24.2379 1.28952e-20)
(0.779311 -24.4338 -1.07575e-20)
(0.729789 -21.9937 -1.00366e-24)
(0.210293 -16.2897 9.91907e-21)
(0.257848 -6.59653 -1.57041e-21)
(7.20672 -24.2861 -2.17939e-20)
(6.3688 -23.978 2.53936e-20)
(5.49621 -24.3294 5.18285e-20)
(4.82048 -23.8958 -7.26855e-20)
(4.36948 -24.283 7.9409e-20)
(3.82948 -24.0171 2.28216e-21)
(3.43901 -24.1555 -4.37398e-20)
(3.03614 -23.8955 0)
(2.75549 -24.0809 0)
(2.5034 -23.9127 -2.50219e-20)
(2.25686 -23.9635 0)
(2.0038 -23.9954 0)
(1.6931 -24.0531 0)
(1.41149 -24.0179 0)
(1.1951 -24.2707 0)
(1.06972 -24.1732 0)
(0.784335 -24.4044 1.1713e-20)
(0.729462 -21.9703 -1.38633e-20)
(0.212254 -16.2738 3.28607e-21)
(0.260309 -6.55677 -1.65988e-21)
(7.30012 -24.0402 1.34129e-21)
(6.4002 -23.7172 4.35108e-20)
(5.59048 -24.1244 1.71411e-20)
(4.89316 -23.7302 2.20303e-20)
(4.43484 -24.157 -1.81713e-20)
(3.86178 -23.907 -6.47401e-20)
(3.44459 -24.0745 -2.31883e-20)
(3.01408 -23.8151 0)
(2.73002 -23.9946 2.51995e-20)
(2.47998 -23.8383 -5.00464e-20)
(2.23862 -23.879 -2.5864e-20)
(1.98386 -23.9016 -2.64455e-20)
(1.67296 -23.9518 0)
(1.38785 -23.9475 -2.71611e-20)
(1.19051 -24.2246 -2.55871e-20)
(1.057 -24.1322 0)
(0.791901 -24.3725 0)