/*--------------------------------*- C++ -*----------------------------------*\
  =========                 |
  \\      /  F ield         | OpenFOAM: The Open Source CFD Toolbox
   \\    /   O peration     | Website:  https://openfoam.org
    \\  /    A nd           | Version:  9
     \\/     M anipulation  |
\*---------------------------------------------------------------------------*/
FoamFile
{
    format      ascii;
    class       volScalarField;
    location    "10";
    object      nut;
}
// * * * * * * * * * * * * * * * * * * * * * * * * * * * * * * * * * * * * * //

dimensions      [0 2 -1 0 0 0 0];

internalField   nonuniform List<scalar> 
46400
(
0.0166297
0.0035542
0.00113233
0.00137637
0.00126724
0.00129397
0.00121156
0.0011746
0.00112452
0.00109014
0.00105073
0.00100702
0.0009659
0.000947119
0.000926278
0.000910971
0.000877435
0.000774254
0.0010593
0.000893724
0.0161114
0.00373942
0.00121091
0.00144983
0.00130113
0.00130897
0.00123601
0.00120884
0.00116075
0.00112566
0.00108041
0.0010329
0.00100765
0.000980532
0.000949734
0.000913226
0.000882518
0.000820742
0.00101509
0.000888009
0.0155127
0.00480258
0.00127907
0.00144831
0.00132975
0.00133942
0.00126287
0.00122086
0.00116849
0.00112192
0.00108044
0.00101889
0.000968641
0.000935491
0.000923145
0.000898919
0.000832306
0.000792656
0.00106461
0.000929928
0.0150057
0.00449225
0.00136885
0.0015152
0.00136841
0.00135917
0.00129535
0.00124914
0.00121689
0.00117018
0.00114035
0.0010933
0.00104104
0.000990577
0.000958758
0.000957987
0.000907515
0.000788191
0.0010449
0.00095526
0.0141526
0.00411623
0.00138656
0.00147903
0.00136014
0.00133469
0.00128292
0.00123357
0.00119128
0.00114666
0.00111652
0.00108964
0.00105678
0.000989229
0.000943157
0.000914573
0.00091735
0.000832777
0.00106038
0.00101708
0.0125936
0.00327331
0.00138479
0.00147255
0.00137526
0.00133369
0.00129546
0.00123238
0.00121172
0.00114961
0.0011107
0.00107627
0.00109151
0.001087
0.00102993
0.000970762
0.000921507
0.000840442
0.00103236
0.000977618
0.00983426
0.00245386
0.00146739
0.00138061
0.00133067
0.00126007
0.00125256
0.00119627
0.00117762
0.00115777
0.00109315
0.00101945
0.000974595
0.000969056
0.000985696
0.000975399
0.00094642
0.000872872
0.00104578
0.00100856
0.00815682
0.00211801
0.00147851
0.00142802
0.00137506
0.00128495
0.00124305
0.0011779
0.0011376
0.00113872
0.00117009
0.0011092
0.00105774
0.000983335
0.00094552
0.000933588
0.00090585
0.000843994
0.000984643
0.000966843
0.0064867
0.00185852
0.00150982
0.00141185
0.00139207
0.00130741
0.00128997
0.00121813
0.00113023
0.0010423
0.00104017
0.00104851
0.00103544
0.00102613
0.000988198
0.00095523
0.000928687
0.000865102
0.000975902
0.000966383
0.00528142
0.00164551
0.001523
0.00144563
0.00143763
0.00133338
0.001307
0.00132609
0.00129477
0.00120001
0.00110641
0.00105045
0.00101084
0.000973637
0.000965619
0.000937184
0.000909427
0.000862113
0.000950025
0.000933429
0.00425304
0.00147287
0.00148255
0.00142648
0.00143468
0.00135719
0.00121621
0.00115566
0.0012263
0.0012094
0.00120325
0.00113938
0.00111544
0.00106878
0.00102981
0.00101089
0.000966269
0.000909267
0.000989389
0.000955796
0.00360133
0.00146496
0.00152824
0.00142278
0.00147261
0.00153363
0.00146577
0.00126717
0.0011987
0.00114471
0.00111511
0.00108105
0.00103258
0.00101596
0.000981605
0.000970329
0.000951287
0.00089408
0.000963143
0.000940556
0.00340234
0.00147426
0.00150824
0.00135427
0.00125972
0.00126392
0.00135602
0.00133089
0.00127508
0.00121517
0.00118637
0.00114644
0.00110205
0.00106338
0.00102867
0.000994348
0.000982632
0.000923688
0.000989505
0.000966098
0.00420054
0.00164909
0.00161074
0.00159856
0.00136752
0.00122517
0.00120854
0.00118711
0.00118934
0.00114499
0.00111926
0.00110544
0.00107011
0.00103145
0.00100858
0.000968337
0.000948199
0.000894661
0.000939405
0.000925797
0.00370787
0.001609
0.00129787
0.00131895
0.00145341
0.00133511
0.00132
0.00123653
0.00123005
0.00119164
0.00116664
0.00112936
0.00112709
0.00107707
0.00106143
0.00102608
0.000997261
0.000941145
0.000976783
0.000938455
0.00198659
0.00184763
0.00156405
0.00144013
0.00150901
0.00142143
0.00138356
0.00133035
0.00125258
0.00119257
0.00116405
0.00110265
0.00109959
0.00105331
0.00103873
0.000997474
0.000983449
0.000915923
0.000946218
0.000918623
0.000911723
0.00161003
0.00174751
0.00157244
0.0014354
0.00138922
0.0013531
0.00133181
0.00132829
0.00127708
0.00123904
0.00118666
0.00114412
0.00109924
0.00106454
0.00102568
0.000997739
0.000934318
0.000974746
0.000923545
0.00204072
0.00152604
0.00155679
0.0015392
0.00148998
0.00147669
0.00138965
0.00136697
0.00128815
0.00124179
0.00119725
0.00114401
0.00111737
0.00107249
0.00105179
0.00102141
0.00100329
0.000949497
0.000973035
0.000941357
0.00262594
0.00157149
0.00154693
0.00162964
0.00149126
0.00147055
0.00138709
0.0013044
0.00125774
0.00123064
0.00119157
0.00117005
0.00113372
0.00111719
0.00107973
0.00106689
0.00103284
0.000980382
0.000999963
0.000949873
0.00279711
0.00167411
0.00159507
0.0015648
0.00153413
0.00144292
0.00142796
0.00136124
0.00135939
0.0012985
0.00124979
0.00122476
0.00115987
0.00113173
0.00107438
0.00105741
0.00100271
0.000957345
0.000972943
0.000935728
0.00130339
0.00468425
0.00929018
0.00932995
0.0052605
0.00170335
0.000202899
0.000167914
0.000254062
0.000360663
0.000342309
0.000284782
0.000317303
0.000325117
0.000281786
0.000221968
0.000196716
0.000247855
0.00028768
0.000379814
0.00139113
0.00727977
0.0103311
0.00772005
0.00327236
0.000556064
0.000162596
0.000263851
0.000362133
0.00037416
0.000344795
0.000363624
0.000315789
0.00027469
0.000257341
0.000292143
0.00028785
0.000277706
0.000350024
0.000444353
0.00343125
0.00913959
0.0103216
0.00613511
0.00150847
0.000172475
0.000241659
0.000330909
0.000384448
0.000402486
0.000391535
0.000329448
0.00031034
0.000339768
0.00034397
0.000315361
0.000258482
0.000318232
0.000470486
0.00052279
0.00535514
0.0102244
0.00965389
0.00429923
0.000379847
0.000179478
0.000371933
0.00042163
0.000446491
0.000431955
0.000388418
0.000395276
0.000397318
0.000372947
0.000308534
0.000322
0.000333099
0.000436002
0.000541848
0.00053331
0.0074097
0.0109898
0.00857839
0.00212602
0.000242556
0.00035267
0.000472014
0.000480871
0.000464651
0.000479809
0.000467951
0.00042973
0.000379969
0.000375653
0.000387196
0.000405967
0.000367132
0.000474798
0.000559518
0.000542943
0.00926308
0.0113151
0.00757777
0.00079281
0.000260346
0.000529501
0.000565759
0.000525857
0.000564555
0.00053193
0.000479559
0.000452991
0.00046268
0.000462545
0.000401431
0.000399548
0.000412104
0.000555634
0.000591662
0.000526602
0.0114165
0.0114984
0.00589317
0.000339867
0.000389691
0.000622427
0.000619688
0.000570729
0.000579965
0.000564908
0.000541334
0.000527493
0.000479507
0.0004528
0.000456065
0.000491068
0.000475354
0.000576306
0.000586818
0.000550422
0.013803
0.0113285
0.00389799
0.000341184
0.000601739
0.00072943
0.000656221
0.00063127
0.000655473
0.000626287
0.000578378
0.000530485
0.000531223
0.000542768
0.000495455
0.000485158
0.000488504
0.000634358
0.000628512
0.000571888
0.0146336
0.0110506
0.00247262
0.000284045
0.000759372
0.00079664
0.000730567
0.000696082
0.000705246
0.000661431
0.000620455
0.000615226
0.000576481
0.000541682
0.000538644
0.000565313
0.000552271
0.000647933
0.000593436
0.000565233
0.0155297
0.0107309
0.00160527
0.000301251
0.000886853
0.000856067
0.000779571
0.000743432
0.000745245
0.00071642
0.000673317
0.000618088
0.000610543
0.000622642
0.000586143
0.000564308
0.000553667
0.000685266
0.000635975
0.000602969
0.0162905
0.010325
0.00101542
0.000540392
0.000933137
0.000903058
0.00083403
0.000786145
0.000803986
0.000751706
0.000697937
0.000694625
0.000660413
0.000623634
0.00061588
0.000622828
0.000601068
0.000683176
0.000584295
0.000580653
0.0168104
0.00990901
0.000939166
0.000691281
0.00104113
0.000939014
0.000910512
0.000853863
0.00083712
0.000807965
0.000764615
0.000710594
0.000696934
0.000700954
0.000668557
0.00063009
0.000607616
0.000715547
0.000634506
0.000635285
0.0173554
0.00950242
0.00110803
0.000877967
0.00108206
0.00100261
0.000947495
0.000885294
0.000891506
0.000845883
0.000782646
0.000774966
0.000738777
0.000700338
0.00068825
0.000675958
0.000652799
0.000716456
0.000572303
0.000610961
0.0175929
0.00926837
0.00158961
0.000938278
0.00115408
0.00102655
0.00100882
0.000956651
0.000919588
0.00089481
0.000848357
0.000798319
0.000781039
0.000775814
0.000746911
0.000691304
0.000668368
0.000739564
0.000606968
0.00065431
0.0178087
0.00907965
0.00189973
0.00103835
0.00119196
0.00108811
0.00103689
0.000988281
0.000973435
0.000938864
0.000872991
0.000860107
0.000823199
0.000787884
0.000776865
0.000751939
0.000737455
0.000758244
0.000557138
0.000653324
0.0178363
0.00862543
0.00162318
0.00104249
0.00122825
0.00112709
0.00108017
0.00104459
0.00099401
0.000972416
0.000923915
0.000875169
0.000859721
0.00085194
0.000826061
0.000761523
0.000753154
0.000791514
0.00057459
0.000668615
0.0177907
0.00749914
0.00154528
0.00115379
0.00123205
0.00117331
0.00109879
0.00107122
0.00104258
0.0010161
0.000956796
0.000937677
0.000898909
0.000869649
0.000862528
0.000831514
0.000841443
0.000815774
0.000556748
0.000702734
0.0176244
0.0063865
0.00135702
0.00119294
0.00122667
0.00121246
0.00113276
0.00111347
0.00105944
0.00104324
0.000993272
0.000945444
0.000930902
0.00092144
0.000889582
0.000840515
0.000857731
0.000874416
0.000603508
0.00072843
0.0173535
0.00537643
0.00145891
0.0012974
0.00125746
0.00124864
0.00116044
0.00113188
0.0010966
0.00107327
0.00103121
0.0010037
0.000964917
0.000942908
0.000937523
0.000914823
0.000923421
0.000938754
0.000677888
0.000750994
0.0170265
0.00443922
0.00119531
0.00135867
0.00124603
0.00127057
0.00118324
0.00116583
0.00111478
0.0010992
0.00105792
0.00102096
0.00101828
0.00100952
0.000979893
0.000979023
0.000991073
0.000989054
0.000879563
0.000921319
0.00358987
0.00211804
0.0014597
0.00129899
0.00121511
0.00105148
0.000890826
0.000811541
0.000837164
0.000661547
0.000654529
0.00062301
0.000528689
0.00060413
0.000452661
0.000595935
0.00022939
0.00560929
0.0101602
0.0151219
0.00369253
0.0020545
0.0015439
0.00131971
0.00126417
0.00109039
0.000925289
0.000865092
0.000870609
0.000659106
0.000654354
0.000614438
0.000518339
0.000578891
0.000421642
0.00056499
0.000149502
0.00560587
0.0101165
0.01501
0.0037774
0.00206906
0.0016051
0.00137999
0.00126246
0.001077
0.000867752
0.000843258
0.000879261
0.00066646
0.000667995
0.000628613
0.000540784
0.000586425
0.000438826
0.000592242
0.000152174
0.00562456
0.0101604
0.0149335
0.00368871
0.002081
0.00169417
0.00142902
0.00132368
0.00113272
0.000932842
0.000900805
0.000895148
0.000671871
0.000669548
0.000622097
0.000530972
0.000571349
0.000399424
0.000542819
0.000156321
0.00561964
0.0101166
0.0148441
0.00391703
0.00205724
0.00173479
0.0014929
0.00132232
0.00110304
0.000888053
0.000874806
0.000882452
0.000687405
0.000694319
0.000641556
0.00055269
0.000586561
0.000430702
0.000552134
0.000150035
0.00562979
0.0101559
0.0147709
0.00383187
0.00214098
0.00186376
0.00154894
0.00137772
0.00115914
0.000936951
0.000904014
0.000873776
0.000699275
0.000708378
0.000637375
0.000548041
0.000570847
0.000400253
0.000505303
0.000127099
0.00562612
0.0101222
0.014697
0.00397753
0.00208756
0.00184591
0.0016269
0.00138533
0.00111719
0.000901498
0.000892217
0.00085894
0.000719768
0.00075219
0.000657221
0.000563623
0.000594149
0.000435794
0.000513871
0.000108526
0.00564621
0.0101594
0.0146434
0.00403384
0.00214555
0.00200295
0.00166902
0.00141992
0.00117042
0.000925275
0.000902044
0.00084193
0.000731339
0.000775077
0.000655963
0.000554992
0.000574696
0.000399748
0.00048037
0.000107965
0.00562467
0.0101283
0.0145996
0.00428518
0.00216135
0.0019235
0.00176607
0.00144926
0.00110848
0.000869755
0.000902034
0.000839012
0.000752276
0.000816667
0.0006787
0.000571226
0.000585564
0.000415967
0.000497952
0.000173993
0.00566234
0.0101571
0.0145649
0.00427024
0.00226056
0.00213855
0.0017927
0.00143978
0.00114738
0.000897083
0.000913499
0.000826957
0.000759261
0.000825252
0.000674319
0.000560218
0.000564396
0.000374278
0.000463633
0.000294474
0.00567648
0.010129
0.0145488
0.00456503
0.00231692
0.00201951
0.0018735
0.00146863
0.00108337
0.000849651
0.000917745
0.000832935
0.000774941
0.00085228
0.000697543
0.000578144
0.00057663
0.000397444
0.000479283
0.000417841
0.0057113
0.010138
0.0145287
0.00450011
0.00240095
0.0022056
0.0019063
0.00145683
0.00111577
0.000876082
0.000932843
0.000821763
0.000770797
0.000845602
0.000688955
0.000573696
0.000563046
0.000374728
0.000456404
0.000454986
0.00571683
0.0101387
0.0144983
0.00485545
0.00246743
0.00207589
0.00190587
0.0014473
0.00106936
0.000857483
0.000941521
0.000820256
0.000779183
0.00086422
0.000704422
0.000598063
0.00057975
0.000411298
0.000484698
0.000473578
0.00571476
0.0101427
0.0144869
0.00476632
0.00253013
0.00221821
0.00194971
0.00147948
0.00111976
0.000883579
0.00095882
0.000799629
0.00077102
0.000849317
0.000696067
0.000602955
0.000563167
0.000402902
0.000476788
0.000495658
0.00571845
0.0101471
0.0144617
0.00507347
0.00262456
0.00209596
0.00188214
0.00142723
0.0010853
0.000890935
0.000970879
0.000795841
0.000786239
0.000861427
0.000698863
0.000628861
0.000577324
0.000443832
0.0005108
0.000528748
0.00572972
0.0101755
0.0144463
0.00508822
0.0026561
0.00215635
0.00191362
0.0014864
0.00115671
0.000919862
0.000982129
0.000776617
0.000778413
0.000828583
0.000677519
0.000639665
0.000570156
0.00044713
0.000505322
0.000538743
0.00575709
0.0101901
0.0144636
0.00529642
0.00281317
0.00213135
0.00183325
0.00141503
0.00113237
0.00094831
0.000988068
0.000777611
0.000794606
0.000821879
0.000679148
0.000680272
0.000599657
0.0004894
0.000527952
0.000545598
0.00565486
0.0101713
0.0144956
0.00534378
0.00278314
0.00202835
0.00182454
0.00147547
0.00123314
0.00100111
0.00100196
0.000788824
0.000808569
0.000774664
0.000701357
0.000699588
0.000596485
0.000506408
0.000531409
0.000557219
0.00564587
0.010225
0.0144497
0.00513534
0.00274675
0.00203165
0.00176642
0.00140772
0.00116416
0.00100722
0.000991436
0.000779891
0.000804108
0.000764735
0.000669575
0.000698793
0.0005975
0.0005552
0.000534814
0.000572586
0.00566039
0.010312
0.0147447
0.00536645
0.00293274
0.00211027
0.00177004
0.00146171
0.00124629
0.00111942
0.0010109
0.000804942
0.000816895
0.000722574
0.000678916
0.000733074
0.000618632
0.000576464
0.000533985
0.000544843
0.00528022
0.010192
0.0142248
0.0202461
0.0275591
0.0128153
0.0187922
0.0131948
0.0140109
0.0120547
0.0112054
0.00894354
0.00887318
0.00762419
0.00705658
0.00746685
0.00647303
0.00679369
0.00645632
0.00927741
0.0498716
0.0964211
0.130121
0.0260843
0.0202624
0.0184108
0.0142296
0.0131121
0.0113412
0.0105176
0.00908272
0.00814962
0.00754819
0.00580228
0.00654263
0.00433573
0.00563747
0.00400543
0.00413933
0.0132746
0.0486837
0.0951237
0.128108
0.0102017
0.0138965
0.0134616
0.0116673
0.00928972
0.00797571
0.00777293
0.00691732
0.00673556
0.00607562
0.00577784
0.00569285
0.00524073
0.00541374
0.00492888
0.00465877
0.00908529
0.046988
0.0939415
0.126365
0.0113755
0.0104049
0.00837332
0.00770479
0.00752502
0.00653788
0.00618303
0.00596219
0.00566878
0.00535861
0.00513564
0.00480659
0.00451559
0.00417052
0.0041733
0.0028286
0.00856043
0.0434819
0.0943985
0.12246
0.00593967
0.00649374
0.00634338
0.00670388
0.00579354
0.00528203
0.00473683
0.00470625
0.00468327
0.00438401
0.00421959
0.00407101
0.00400044
0.00397163
0.00377645
0.0029182
0.00424337
0.0402242
0.094859
0.120894
0.00519385
0.00493664
0.00485823
0.00439623
0.00378955
0.0040479
0.00387637
0.00353603
0.00375445
0.00379002
0.00372287
0.00359204
0.00351528
0.00359253
0.0036603
0.00220871
0.00446649
0.034683
0.0954465
0.121232
0.00299829
0.00301808
0.00303245
0.00315265
0.00303113
0.0032717
0.00334727
0.00327034
0.00332257
0.00309727
0.00301828
0.00313193
0.00308036
0.00294329
0.00344043
0.00267244
0.00139822
0.0290454
0.0960625
0.123336
0.00239615
0.00243539
0.0025454
0.00243295
0.00212754
0.00231343
0.00229519
0.00227121
0.00239896
0.00271797
0.00265669
0.00285021
0.00297424
0.0034313
0.00346597
0.00288171
0.000784478
0.0227438
0.0957499
0.129755
0.00138623
0.00139113
0.00138058
0.0014983
0.00151023
0.00166126
0.00194183
0.00217959
0.00218362
0.00227976
0.00218988
0.0024741
0.00250665
0.0027596
0.00338342
0.00357392
0.00142576
0.0162373
0.0940439
0.137328
0.000958177
0.00103348
0.00105412
0.00109701
0.00112373
0.00120968
0.00119624
0.00130377
0.00146448
0.00184432
0.00194271
0.00216981
0.00240737
0.00272018
0.00323793
0.00374137
0.00201043
0.00862131
0.088811
0.151849
0.000422861
0.00045399
0.000396446
0.000376997
0.000648749
0.000796497
0.0010163
0.00123611
0.00121877
0.0014774
0.00158307
0.00175816
0.00192794
0.00224379
0.00258576
0.00365967
0.00253896
0.0032906
0.0711841
0.163601
0.000233297
0.000225256
0.000205621
0.000384404
0.000425481
0.000436646
0.000558741
0.000828479
0.000833102
0.00108634
0.00120945
0.00156601
0.00139203
0.00206226
0.00168103
0.00330846
0.00367637
0.00344009
0.057376
0.183136
8.96181e-05
9.98668e-05
4.91009e-05
0.000178144
0.000220397
0.000439143
0.000260402
0.000632032
0.00037758
0.000812913
0.000426453
0.00120795
0.000765258
0.00165897
0.00184147
0.00276606
0.00326959
0.0086046
0.0326459
0.15602
0.000329253
0.000283694
0.00028296
0.000293984
0.00026217
0.0003507
0.000313526
0.000460797
0.00043094
0.000789045
0.000677946
0.001156
0.000937104
0.00162979
0.00156761
0.00233823
0.00203503
0.00531528
0.0199266
0.110074
0.000459344
0.000476831
0.000465533
0.000419959
0.000423795
0.000465061
0.000467767
0.000562653
0.000548001
0.000711124
0.000709023
0.000887752
0.000949363
0.00125927
0.00165257
0.0015773
0.00153103
0.00354014
0.00678824
0.063712
0.000534181
0.000565024
0.000550618
0.000553606
0.000558647
0.00060188
0.000596174
0.000610768
0.000644935
0.000667431
0.000693933
0.000763198
0.000826849
0.000946966
0.00111552
0.000967443
0.000934668
0.00177607
0.00610788
0.0345703
0.000607242
0.000563163
0.00052549
0.000606222
0.000651967
0.000638157
0.000638351
0.000662395
0.000640416
0.000720008
0.000715782
0.000886981
0.000899007
0.00100438
0.000831986
0.000980677
0.000516741
0.00133163
0.00226954
0.0203949
0.000558021
0.000576028
0.000599677
0.000621931
0.000634806
0.000633514
0.000629882
0.000636086
0.000634623
0.000633801
0.000720364
0.000622673
0.000773419
0.000544233
0.000851313
0.000529448
0.000412657
0.000142737
0.00251339
0.00893226
0.000427631
0.000428612
0.000514635
0.000503013
0.000523937
0.000537862
0.000542984
0.000555152
0.000556962
0.000540681
0.000547897
0.000485842
0.000518841
0.000509767
0.000419464
0.000691419
0.000486487
0.000258266
0.00191465
0.00559163
0.00034207
0.000357599
0.000361135
0.000364351
0.000378453
0.000392857
0.000395534
0.000416676
0.000428827
0.00043731
0.000449367
0.000479261
0.00052581
0.000478175
0.000533636
0.000411267
0.000303858
0.000133361
0.000401097
0.00409391
0.014256
0.0141722
0.0140492
0.0139898
0.0137473
0.0137162
0.01343
0.0131755
0.0129491
0.0125465
0.0123946
0.0120435
0.0109235
0.010866
0.0105177
0.0105326
0.0092927
0.00848042
0.00688276
0.00784381
0.00700155
0.00698916
0.00693803
0.0069044
0.00681974
0.00674051
0.00667672
0.00654447
0.00637644
0.00633391
0.00610552
0.00609782
0.00615379
0.00682172
0.00748154
0.00628768
0.0054449
0.00614542
0.00564026
0.00700595
0.00428906
0.00423799
0.00420707
0.00420402
0.00421022
0.00422132
0.00427341
0.00434735
0.0043726
0.00430242
0.00425847
0.00422009
0.00404584
0.00404385
0.00367108
0.00396924
0.0038273
0.00365631
0.003074
0.00321381
0.00282234
0.00278
0.00274239
0.00268796
0.00263559
0.00258665
0.00252088
0.00245393
0.00239058
0.00241685
0.0023755
0.00237152
0.00236465
0.00237375
0.00238464
0.00230435
0.00221615
0.00265506
0.00242135
0.00260993
0.00169629
0.00168591
0.00167543
0.00166036
0.00165102
0.00164214
0.00163191
0.00164165
0.00175182
0.00177717
0.00171608
0.00176187
0.0016949
0.00172897
0.00166603
0.00169295
0.00161855
0.00152584
0.00141818
0.0014629
0.00122306
0.00121021
0.00120452
0.00119226
0.00118384
0.00117582
0.00116799
0.00115617
0.00111754
0.0010341
0.00103818
0.000992656
0.000970868
0.000966006
0.000932657
0.000973584
0.00103396
0.00117333
0.00101682
0.00104743
0.000718879
0.000708281
0.000706798
0.000704087
0.000697354
0.000692993
0.000688935
0.000686077
0.000683474
0.000689062
0.000700077
0.000742243
0.000736159
0.000753166
0.0007658
0.000763257
0.000702519
0.000681315
0.000701391
0.000725369
0.000536661
0.000524947
0.000517331
0.000515781
0.000505682
0.000500202
0.000495357
0.000491648
0.00048853
0.000479934
0.000469001
0.000453755
0.000450943
0.000453467
0.000442937
0.000437183
0.000448489
0.00046858
0.000461421
0.000467051
0.000325505
0.000322726
0.000314031
0.000313132
0.00030462
0.000304092
0.000294034
0.000292415
0.000289164
0.00028833
0.00028179
0.000280497
0.000279032
0.000283332
0.00027836
0.000284959
0.000279248
0.00029354
0.000290205
0.000306413
0.000239132
0.00024258
0.000248075
0.000241173
0.000234033
0.000227267
0.000225396
0.000223537
0.000221057
0.000215357
0.000210399
0.000202313
0.000199644
0.000196748
0.000197786
0.000195829
0.000195219
0.00019858
0.000212254
0.000219338
0.000189812
0.000182304
0.000166721
0.000154921
0.000149468
0.000143434
0.000139867
0.000139202
0.000135862
0.000137925
0.000131503
0.000121331
0.000114998
0.000109459
0.000106962
0.000103886
0.000100948
9.70916e-05
0.000100046
9.81979e-05
0.000137405
0.000129227
0.000123562
0.000119835
0.00011801
0.000120802
0.000122535
0.000120664
0.000108824
8.85045e-05
6.37148e-05
5.58609e-05
5.69957e-05
5.86013e-05
5.94189e-05
6.09953e-05
6.09965e-05
5.04796e-05
5.26367e-05
4.26838e-05
0.000134026
0.00012963
0.000126446
0.000124567
0.000120186
0.000114699
0.000106143
9.85422e-05
9.21197e-05
8.25366e-05
7.89441e-05
8.281e-05
8.06093e-05
7.93687e-05
7.86319e-05
7.96774e-05
7.22742e-05
5.6575e-05
4.20977e-05
3.42774e-05
0.000145278
0.000142896
0.000140793
0.000139232
0.000135724
0.000133806
0.000132561
0.000132487
0.000132918
0.000129215
0.000121985
0.000113904
0.000112396
0.000110268
0.000108656
0.000103273
9.76414e-05
8.688e-05
7.56451e-05
7.10651e-05
0.000138666
0.000141381
0.000141426
0.000140085
0.000138465
0.000133372
0.000131818
0.000129916
0.000130825
0.000133872
0.000128826
0.000121739
0.00012139
0.000119663
0.00011976
0.000114459
0.000117128
0.000112404
0.000118087
0.000112768
0.000163812
0.000153284
0.000147658
0.000145165
0.000144559
0.00014548
0.000142078
0.000135911
0.000127041
0.000119358
0.000129309
0.000135689
0.000131996
0.000128882
0.000126582
0.000120282
0.000122898
0.000127138
0.000136244
0.000132855
0.000129097
0.00013855
0.000143105
0.000144422
0.000146035
0.000147631
0.000151317
0.000154148
0.000160839
0.000165111
0.000152132
0.000144361
0.000144899
0.000143842
0.000143633
0.000143784
0.000146034
0.000144636
0.000144871
0.000141786
0.000137112
0.000129148
0.000125405
0.000124821
0.000122655
0.000119069
0.000117775
0.000119495
0.000113395
0.000106018
0.000119508
0.000131033
0.000133954
0.000133295
0.000134369
0.000134229
0.000134592
0.000132523
0.000130252
0.000125019
8.90717e-05
9.34647e-05
9.60916e-05
9.67389e-05
9.84547e-05
0.00010071
9.96638e-05
0.0001016
0.000110167
0.000115718
0.000111445
0.00010648
0.000106561
0.000106446
0.00010712
0.000105761
0.000103895
0.00010286
0.000110956
0.000111958
6.32704e-05
6.39461e-05
6.4978e-05
6.53257e-05
6.63609e-05
6.65551e-05
6.73533e-05
6.81774e-05
6.61912e-05
6.60195e-05
6.84545e-05
6.97505e-05
7.03046e-05
7.07483e-05
7.17626e-05
7.24371e-05
7.49736e-05
7.59832e-05
7.77921e-05
7.58763e-05
0.00123857
0.00151421
0.00113251
0.00122627
0.00126583
0.00125193
0.00128543
0.00132666
0.00138536
0.00141991
0.00147244
0.001507
0.00158318
0.00161739
0.00166618
0.00174097
0.00171814
0.00286925
0.00964355
0.0232748
0.00117918
0.00129402
0.0010104
0.00110175
0.00117226
0.00121719
0.00128049
0.00131918
0.00135386
0.00138744
0.00144676
0.00150153
0.0015709
0.00161413
0.00168492
0.00173649
0.00171126
0.00265088
0.00872601
0.0228082
0.00118135
0.00138588
0.00105499
0.00113654
0.00121444
0.00123048
0.00126091
0.00130465
0.001367
0.0014115
0.00147317
0.00150762
0.00158057
0.00160609
0.00167635
0.00172211
0.00177249
0.00201991
0.00786138
0.0223179
0.00124888
0.00138961
0.00104045
0.00112355
0.00117635
0.00121157
0.00126951
0.00131745
0.00134851
0.00138429
0.00144239
0.00148934
0.00155482
0.00158794
0.00167455
0.00170267
0.00174946
0.00161625
0.00684689
0.0218037
0.00122662
0.00139917
0.00107397
0.00114321
0.00121245
0.00124082
0.00127223
0.00130708
0.00136137
0.00141257
0.001468
0.00150136
0.00156797
0.00159388
0.00167982
0.0016982
0.00180021
0.00156103
0.00600248
0.0212193
0.0012495
0.00139106
0.00107614
0.00114803
0.00120562
0.00124016
0.00128069
0.00132625
0.00135696
0.00138422
0.00143081
0.00147648
0.00153894
0.00157477
0.00166031
0.00166821
0.0017688
0.00154328
0.00522425
0.0205827
0.00126296
0.0014038
0.00109358
0.00118167
0.00124907
0.00125117
0.00127494
0.00130418
0.00134277
0.00139505
0.00144777
0.00149607
0.00156328
0.00159257
0.00167402
0.00168777
0.00181112
0.00159344
0.00505907
0.0198742
0.00126894
0.00136688
0.00108125
0.00117501
0.00119471
0.00121207
0.0012633
0.00130642
0.00135049
0.00138818
0.001445
0.00149804
0.00154034
0.00157479
0.00166075
0.00166719
0.00177812
0.00163328
0.00566328
0.0190654
0.00124996
0.00131645
0.00108947
0.00116152
0.00119243
0.00125081
0.00128171
0.00131134
0.00134802
0.00140225
0.0014507
0.00147809
0.00153146
0.00158578
0.00166501
0.00168714
0.00185504
0.00171188
0.00517931
0.0182935
0.00118742
0.0012597
0.00107072
0.00112223
0.00118348
0.00121693
0.00123415
0.00128569
0.0013341
0.00138815
0.0014154
0.00146691
0.00153122
0.00158082
0.00165041
0.00167944
0.00180895
0.00166547
0.00466449
0.017342
0.00117067
0.00124296
0.00108247
0.00115352
0.00121966
0.00123574
0.00127213
0.0013291
0.00136801
0.00138813
0.00141122
0.00148291
0.00151967
0.00158136
0.00164267
0.00170221
0.00186182
0.00172449
0.00387715
0.0155494
0.00117567
0.00124712
0.00110313
0.00115972
0.00118294
0.00118901
0.00122422
0.00125882
0.00127348
0.00131276
0.00139035
0.00144792
0.00147519
0.0015572
0.00160772
0.00168262
0.00171825
0.00167622
0.00318912
0.0136929
0.00113081
0.00115848
0.00103676
0.00108338
0.00111842
0.00115369
0.00120468
0.00123965
0.00128615
0.00138725
0.0014159
0.00143445
0.00149171
0.00156995
0.00159247
0.00165464
0.00174161
0.00179265
0.00275267
0.0112271
0.00109458
0.00114912
0.00107144
0.00113788
0.0011762
0.00120824
0.00123957
0.00126977
0.0013246
0.00134552
0.00133313
0.0014025
0.00146107
0.00150787
0.00152732
0.00163547
0.00165894
0.00168649
0.00221625
0.00879565
0.00108121
0.0011265
0.00106606
0.00110233
0.00111822
0.00115055
0.00118441
0.00122966
0.00125972
0.00127179
0.00134517
0.00144893
0.00145429
0.00147341
0.00152104
0.00161042
0.00162722
0.00172047
0.00200319
0.00726122
0.00103017
0.00108325
0.00103531
0.00107381
0.00112179
0.00117594
0.00119907
0.00123108
0.00123113
0.00129525
0.00134017
0.0013422
0.00134136
0.00145138
0.00156286
0.00161005
0.00161547
0.00168163
0.00177061
0.00579463
0.00102784
0.00109217
0.00104696
0.00109437
0.00113769
0.00114259
0.00114963
0.00117481
0.00122079
0.00129391
0.00130161
0.0013702
0.00144919
0.00155706
0.0015122
0.0015383
0.00158218
0.00167472
0.00174416
0.00526577
0.00103145
0.00107455
0.00102955
0.00107203
0.00109719
0.00110648
0.00115355
0.00121482
0.00127495
0.00128905
0.00133374
0.00138981
0.00140818
0.00140203
0.00135954
0.00143323
0.00144738
0.00164068
0.00176164
0.00437673
0.000975653
0.00101639
0.000985635
0.0010432
0.0010703
0.00110686
0.00115824
0.00118634
0.00119266
0.00121231
0.00125989
0.00125879
0.00129165
0.00134408
0.00145643
0.00158731
0.00171093
0.00175029
0.00170815
0.00393315
0.000975469
0.00102416
0.000996214
0.00106005
0.00108132
0.00112319
0.00114927
0.00116952
0.00121655
0.0012648
0.00130591
0.00134653
0.00144078
0.00145186
0.00149332
0.00150497
0.00141813
0.00154905
0.00165693
0.00351684
0.000928983
0.00111434
0.00111803
0.000989708
0.000918063
0.000864982
0.000850822
0.000816147
0.000838167
0.00084467
0.000850428
0.000877644
0.000947823
0.000831446
0.000428335
0.000302194
0.00601033
0.0140102
0.0151475
0.00471779
0.000902389
0.00106623
0.00111064
0.00103298
0.000964411
0.000857327
0.000870366
0.000877202
0.000853104
0.000863994
0.000889419
0.000923718
0.000976881
0.000950372
0.000520373
0.00020194
0.00342157
0.012977
0.0158716
0.00784178
0.000922686
0.00109622
0.00118494
0.00107503
0.00101227
0.000948692
0.000931536
0.000903523
0.000931517
0.000946711
0.000954293
0.000997915
0.00105861
0.0011096
0.000948025
0.000569877
0.00149126
0.0118206
0.0163284
0.0107546
0.000917959
0.00107348
0.00117556
0.0011052
0.00105259
0.000944306
0.00094437
0.000956575
0.000944868
0.000966723
0.00100653
0.00104683
0.00107075
0.00114531
0.00109162
0.000550903
0.000603336
0.0107311
0.0163976
0.0136158
0.000931739
0.00108317
0.00123429
0.00114236
0.00109037
0.00102387
0.00101304
0.000990899
0.00101714
0.00103892
0.00104952
0.00110384
0.00117157
0.00124472
0.00122633
0.000885346
0.000442831
0.00967803
0.0164518
0.0168089
0.00095096
0.00108876
0.00122906
0.00115293
0.00111357
0.00102294
0.00101146
0.00102617
0.00102997
0.00105799
0.00110397
0.00114782
0.00117804
0.00121973
0.00128037
0.00105399
0.000257912
0.00688934
0.0163064
0.018804
0.000955582
0.00108445
0.00127659
0.0011938
0.00114516
0.00108029
0.00107898
0.00106685
0.00109184
0.00111952
0.00113782
0.00120061
0.00126724
0.00132879
0.00140827
0.00129848
0.000283492
0.00543041
0.0161989
0.020004
0.000983038
0.00109835
0.00127578
0.00117819
0.00114458
0.00108698
0.00107152
0.0010871
0.0011057
0.00113595
0.00118437
0.00123601
0.00126729
0.00130934
0.00139224
0.00131644
0.000448511
0.00374792
0.0157856
0.0212598
0.000987039
0.00109134
0.00130984
0.00122638
0.00118047
0.00112125
0.00112726
0.00113081
0.00115441
0.0011864
0.00121873
0.00127749
0.00133383
0.00142016
0.0014747
0.00147541
0.000509709
0.00291742
0.0155691
0.0218949
0.00101093
0.00109908
0.0013133
0.00118747
0.00115332
0.00113381
0.0011269
0.00113702
0.00116764
0.00120644
0.00125198
0.00130903
0.00134914
0.00139443
0.00147049
0.00152092
0.000802575
0.00199811
0.0151146
0.0226525
0.00102004
0.00109373
0.0013225
0.00122816
0.00119704
0.00115264
0.00115769
0.00118215
0.00121354
0.00124295
0.00128827