/*--------------------------------*- C++ -*----------------------------------*\
  =========                 |
  \\      /  F ield         | OpenFOAM: The Open Source CFD Toolbox
   \\    /   O peration     | Website:  https://openfoam.org
    \\  /    A nd           | Version:  9
     \\/     M anipulation  |
\*---------------------------------------------------------------------------*/
FoamFile
{
    format      ascii;
    class       volScalarField;
    location    "10";
    object      p;
}
// * * * * * * * * * * * * * * * * * * * * * * * * * * * * * * * * * * * * * //

dimensions      [0 2 -2 0 0 0 0];

internalField   nonuniform List<scalar> 
46400
(
103.11
107.905
115.639
122.811
128.825
134.51
139.398
143.872
147.819
151.385
154.578
157.451
160.086
162.481
164.703
166.814
168.752
170.78
173.188
173.37
126.775
130.464
137.662
144.42
149.95
155.082
159.475
163.407
166.864
169.929
172.65
175.051
177.199
179.119
180.836
182.374
183.7
184.998
186.302
185.626
149.114
153.247
160.028
166.134
170.995
175.423
179.125
182.391
185.202
187.641
189.771
191.601
193.221
194.621
195.858
196.94
197.84
198.741
199.497
198.463
172.26
176.739
182.614
187.825
191.935
195.625
198.706
201.33
203.576
205.444
207.039
208.33
209.411
210.29
211.003
211.549
211.934
212.28
212.56
211.161
195.252
200.313
204.823
209.003
212.205
215.012
217.326
219.238
220.835
222.108
223.161
223.961
224.58
225.014
225.313
225.494
225.54
225.544
225.633
224.089
218.446
223.342
226.458
229.506
231.89
233.855
235.487
236.717
237.71
238.391
238.889
239.167
239.297
239.254
239.091
238.805
238.417
238.004
237.759
236.065
240.181
243.706
246.207
248.198
249.85
251.065
252.041
252.679
253.119
253.298
253.319
253.141
252.852
252.435
251.942
251.348
250.641
249.914
249.294
247.448
260.188
262.864
264.774
266.09
267.092
267.667
268.031
268.069
267.957
267.608
267.127
266.459
265.671
264.765
263.797
262.751
261.64
260.523
259.517
257.457
277.288
279.412
280.816
281.632
282.172
282.271
282.178
281.769
281.208
280.445
279.591
278.599
277.526
276.336
275.083
273.748
272.34
270.93
269.606
267.389
293.702
295.315
296.315
296.652
296.726
296.353
295.786
294.913
293.878
292.609
291.245
289.752
288.203
286.577
284.908
283.194
281.427
279.672
277.995
275.585
306.789
307.908
308.623
308.649
308.483
307.824
306.983
305.829
304.596
303.157
301.611
299.917
298.138
296.273
294.358
292.387
290.371
288.353
286.431
283.8
320.536
321.021
321.237
320.764
320.091
318.996
317.645
316.03
314.277
312.387
310.421
308.356
306.249
304.08
301.889
299.667
297.412
295.165
293.009
290.299
330.129
330.135
330.047
329.317
328.4
327.169
325.814
324.156
322.364
320.356
318.263
316.041
313.756
311.395
309.007
306.578
304.126
301.674
299.346
296.439
340.251
340.062
339.316
338.11
336.616
334.868
333.005
330.937
328.787
326.485
324.142
321.692
319.226
316.689
314.157
311.593
309.029
306.477
304.081
301.162
345.509
345.219
344.524
343.306
341.985
340.285
338.429
336.337
334.118
331.744
329.291
326.727
324.128
321.447
318.764
316.031
313.303
310.567
307.996
304.918
351.046
350.465
349.469
348.081
346.4
344.41
342.274
339.889
337.451
334.849
332.221
329.505
326.781
324.009
321.238
318.458
315.667
312.903
310.288
307.281
352.393
351.873
351.276
349.926
348.458
346.529
344.487
342.187
339.761
337.17
334.504
331.718
328.925
326.047
323.199
320.305
317.438
314.567
311.91
308.729
353.041
352.242
351.51
350.131
348.418
346.491
344.272
341.904
339.382
336.75
334.036
331.267
328.452
325.624
322.771
319.936
317.07
314.245
311.567
308.485
349.201
349.538
348.869
348.014
346.594
344.884
342.855
340.617
338.202
335.652
333
330.266
327.472
324.638
321.777
318.912
316.022
313.163
310.463
307.323
345.659
345.518
344.971
343.901
342.501
340.789
338.806
336.65
334.302
331.852
329.284
326.647
323.955
321.223
318.482
315.719
312.957
310.206
307.642
304.6
-102.157
-102.47
-101.517
-100.247
-95.5201
-91.6413
-87.3654
-82.9099
-78.316
-73.9004
-69.6151
-65.3872
-61.3241
-57.281
-53.3581
-49.5682
-45.8567
-42.175
-38.6094
-35.1443
-102.854
-102.804
-99.6752
-98.3442
-93.8367
-88.8062
-84.1291
-79.2207
-74.4634
-69.855
-65.3741
-60.9706
-56.7488
-52.5496
-48.5769
-44.6409
-40.8353
-37.1626
-33.5799
-30.1253
-101.777
-101.767
-100.189
-96.1019
-91.677
-86.3619
-80.98
-75.8621
-70.8027
-65.8757
-61.1539
-56.5371
-52.1134
-47.7709
-43.6492
-39.5483
-35.6904
-31.8963
-28.2409
-24.7613
-103.383
-102.505
-100.913
-95.3531
-89.6283
-83.9986
-77.9762
-72.3779
-66.9166
-61.7017
-56.6577
-51.8125
-47.1829
-42.6411
-38.3803
-34.1441
-30.2176
-26.2396
-22.5621
-18.9932
-105.963
-104.946
-101.752
-95.6638
-88.4919
-81.5893
-75.1877
-68.9144
-62.9979
-57.3389
-51.9734
-46.8227
-41.9283
-37.2088
-32.7674
-28.3852
-24.3432
-20.2852
-16.5965
-12.9002
-110.061
-108.284
-102.095
-94.6259
-86.355
-78.6367
-71.4217
-64.6853
-58.2426
-52.2511
-46.5443
-41.159
-36.0602
-31.1715
-26.596
-22.1098
-18.0291
-13.9021
-10.232
-6.60187
-109.529
-107.968
-99.6882
-91.2799
-82.499
-74.3594
-66.6259
-59.469
-52.7057
-46.3507
-40.3986
-34.7602
-29.4468
-24.3986
-19.6619
-15.0849
-10.8845
-6.66813
-2.97138
0.760768
-105.916
-105.583
-97.2583
-87.2344
-77.814
-69.0195
-60.8193
-53.235
-46.1019
-39.499
-33.2891
-27.4799
-22.023
-16.8647
-12.0431
-7.4024
-3.18675
1.0705
4.69807
8.4591
-103.862
-101.707
-92.4633
-81.6468
-71.3702
-62.1386
-53.5404
-45.6457
-38.2709
-31.437
-25.084
-19.1323
-13.564
-8.32905
-3.43329
1.21156
5.48506
9.75451
13.3551
17.2726
-96.7729
-94.4433
-84.2243
-73.2604
-62.839
-53.3438
-44.5966
-36.5604
-29.0532
-22.1462
-15.7122
-9.71611
-4.12897
1.10544
5.99758
10.6404
14.8827
19.1163
22.6664
26.6066
-88.6539
-85.4747
-74.7375
-63.279
-52.6922
-43.0911
-34.1634
-26.0614
-18.5064
-11.5508
-5.12964
0.846963
6.39683
11.5713
16.3948
20.8958
25.0587
29.1388
32.5157
36.406
-78.0999
-74.1913
-62.75
-51.3174
-40.5083
-30.9908
-22.0536
-13.9839
-6.49148
0.385632
6.71687
12.6037
18.0425
23.0991
27.8092
32.1956
36.2386
40.1739
43.4233
47.226
-64.541
-60.2602
-48.5779
-37.2337
-26.5608
-17.1886
-8.40811
-0.457155
6.85456
13.5913
19.7514
25.4575
30.7166
35.5875
40.099
44.2504
48.1134
51.8152
54.8309
58.5688
-49.2313
-44.4414
-32.5117
-21.5603
-10.9479
-1.82135
6.72172
14.4528
21.5389
28.0403
33.9666
39.4508
44.4752
49.1088
53.3969
57.3145
60.9682
64.3826
67.1735
70.7791
-31.6862
-26.5325
-14.3314
-3.95608
6.27316
15.0997
23.2534
30.6958
37.4301
43.6429
49.2698
54.4543
59.1974
63.5614
67.5628
71.1934
74.6052
77.6983
80.2386
83.7737
-12.7268
-7.26816
5.36592
15.0265
24.7563
33.2011
40.899
47.9561
54.3318
60.1756
65.4613
70.3172
74.7327
78.7698
82.4658
85.7881
88.9135
91.6587
93.9004
97.2515
8.19273
13.8966
26.2125
35.4149
44.4029
52.4469
59.6303
66.2621
72.1924
77.6477
82.554
87.0367
91.1114
94.8231
98.1723
101.17
104.009
106.258
108.214
111.486
30.605
36.2948
47.6966
56.5612
64.8154
72.3375
78.9872
85.1261
90.6146
95.63
100.136
104.238
107.942
111.293
114.311
116.995
119.457
121.355
122.879
125.689
53.96
59.634
70.0665
78.4454
85.9667
92.9494
99.0313
104.656
109.655
114.22
118.313
122.011
125.364
128.378
131.058
133.461
135.64
137.2
138.524
141.441
78.2095
84.1079
92.9814
100.787
107.472
113.796
119.295
124.37
128.906
133.051
136.796
140.218
143.353
146.241
148.925
151.448
153.76
155.843
158.322
161.307
-18.0865
-0.65912
21.0973
32.4695
46.2917
53.5059
62.3219
67.7992
73.0394
77.1099
80.2959
83.3126
85.3607
87.5256
89.1409
90.8038
92.1173
92.5202
92.72
92.8042
-12.9719
3.38535
24.673
35.2363
48.5808
55.5064
63.9179
69.1863
74.1688
78.1035
81.0955
84.0671
85.904
88.1024
89.505
91.1533
92.2702
92.7454
92.7786
92.9075
-7.44498
7.58541
28.2779
38.0875
50.8204
57.4706
65.4394
70.5286
75.2829
79.1167
81.9263
84.8652
86.4814
88.7382
89.9329
91.5926
92.4465
92.9973
92.8809
93.0614
-1.94957
11.9685
32.0831
41.0794
53.2385
59.6124
67.1387
72.0079
76.4768
80.1609
82.7627
85.6796
87.0088
89.3809
90.2395
92.0468
92.5979
93.2663
92.9135
93.1759
3.9534
16.5024
35.9288
44.1771
55.5994
61.7343
68.7601
73.4205
77.6581
81.2385
83.6397
86.5326
87.5933
90.1479
90.6985
92.5924
92.7794
93.5877
93.0248
93.342
9.66999
21.1957
39.9193
47.3493
58.1286
63.9972
70.5554
74.9881
78.9111
82.3345
84.5257
87.3887
88.2041
90.8289
91.1615
92.9239
92.9532
93.9157
93.0795
93.4749
16.9229
26.0512
43.7228
50.6557
60.6669
66.2027
72.2782
76.4899
80.1633
83.4627
85.4617
88.2665
88.9319
91.5283
91.6913
93.3109
93.1656
94.2818
93.2058
93.657
24.9452
31.2247
48.3285
54.1301
63.3725
68.5346
74.194
78.1234
81.4717
84.6013
86.3911
89.1185
89.6459
92.1577
92.1557
93.7226
93.3809
94.5906
93.3002
93.8044
32.6512
36.5364
52.8375
57.7053
66.1047
70.8034
76.0339
79.7033
82.7955
85.7715
87.3632
90.0242
90.3498
92.8008
92.7728
94.2492
93.6556
94.9528
93.4361
93.9959
40.1156
42.1292
57.7287
61.3907
68.9712
73.2236
78.0417
81.3933
84.1574
86.946
88.3171
90.8972
91.0556
93.4241
93.3307
94.685
93.949
95.2747
93.503
94.1607
48.3956
48.0577
62.0824
65.1334
71.8819
75.5654
80.0064
83.0516
85.5497
88.155
89.3096
91.8163
91.8269
94.0846
94.0193
95.1808
94.2748
95.7
93.5897
94.3769
56.8073
54.1125
66.5684
68.9531
74.9261
78.0817
82.1031
84.7918
86.9643
89.3646
90.2739
92.6841
92.5837
94.7101
94.6754
95.6229
94.6027
96.0358
93.7603
94.5706
66.1384
60.4813
71.1417
72.8309
78.0154
80.5185
84.1939
86.5284
88.4195
90.6152
91.2681
93.7158
93.4154
95.3805
95.4477
96.1092
94.9644
96.3255
93.9259
94.8196
75.6317
66.979
75.8793
76.77
81.2513
83.1619
86.4121
88.3314
89.8982
91.872
92.2309
94.6174
94.242
96.007
96.2063
96.5558
95.3615
96.6427
94.045
95.028
85.954
73.6237
80.6461
80.7139
84.47
85.7121
88.6089
90.1268
91.4
93.1548
93.209
95.4471
95.1036
96.6646
97.0745
97.0493
95.8144
97.0027
94.0474
95.2944
96.8259
80.6045
85.6967
84.7451
87.8153
88.4646
90.9108
91.9439
92.8918
94.417
94.1158
96.259
95.9433
97.4471
97.9391
97.5
96.2641
97.4438
93.9576
95.6589
108.169
87.7439
90.8655
88.9679
91.2167
91.2535
93.2994
93.9743
94.6396
95.9461
95.1531
97.3542
96.9085
98.3338
98.924
98.0852
96.7498
97.8564
93.7543
95.8812
118.802
93.5344
95.7278
92.7172
94.6911
94.1832
95.7301
95.8144
96.18
97.2659
96.0084
98.45
97.7951
98.7166
99.9441
98.552
97.2291
98.5753
93.6411
96.5353
133.519
100.714
102.937
96.0291
97.6047
96.0794
97.8774
97.1357
97.1963
98.0371
96.542
98.8223
98.2808
98.8881
100.853
98.4783
97.5892
98.7747
93.4109
96.4887
152.423
115.227
111.997
102.681
102.538
100.409
101.363
100.213
99.8163
100.437
98.8703
100.762
100.199
100.828
101.994
100.022
98.0191
99.0694
92.2273
97.3798
178.187
172.592
145.617
146.604
134.252
133.064
125.774
127.252
123.062
123.607
123.056
121.165
119.462
119.233
113.867
118.328
107.929
116.151
95.7263
121.678
200.112
188.53
170.419
162.911
151.268
146.615
139.245
136.968
132.014
130.315
127.133
125.917
123.205
122.868
119.673
119.915
116.743
117.735
115.277
117.421
195.606
185.706
175.631
168.957
161.456
156.446
151.014
147.425
143.704
140.784
138.178
135.904
133.593
132.139
129.836
129.447
126.621
126.697
124.934
125.94
189.626
183.276
177.452
170.803
165.396
159.984
155.527
151.527
147.799
145.002
141.753
139.479
136.97
135.126
133.213
131.646
130.427
129.454
128.559
128.401
180.174
175.043
171.547
167.274
164.051
160.253
157.236
154.009
151.341
148.499
146.269
143.802
141.783
139.667
137.759
135.966
134.1
132.434
131.533
131.615
173.633
170.799
169.39
166.208
163.739
160.729
158.069
155.412
152.833
150.605
148.083
146.109
143.861
142.015
140.099
138.245
136.671
135.034
133.869
133.594
167.736
165.843
164.628
162.528
160.929
158.804
157.225
155.231
153.496
151.63
149.839
147.912
146.175
144.245
142.492
140.507
138.692
136.628
135.471
134.814
164.191
163.175
162.748
161.515
160.479
159.179
157.476
156.173
154.433
153.04
151.264
149.946
147.959
146.647
144.487
143.007
140.62
138.875
136.864
136.375
161.22
160.611
160.261
159.375
158.592
157.789
156.927
155.989
154.878
153.907
152.55
151.52
149.921
148.707
146.844
145.426
142.992
141.296
138.508
138.141
159.883
159.843
159.788
159.608
159.192
158.682
157.799
157.097
156.123
155.584
154.466
153.867
152.563
151.912
150.261
149.446
147.111
146.273
143.745
143.472
158.847
158.903
158.819
158.662
158.407
158.323
158.129
158.146
157.668
157.417
156.737
156.464
155.623
155.282
154.242
153.803
152.252
151.972
148.428
149.477
158.478
158.78
159.01
159.326
159.388
159.57
159.346
159.432
159.129
159.351
159.021
159.269
158.919
159.257
158.761
159.29
158.663
159.316
159.479
161.312
158.715
159.128
159.369
159.745
159.963
160.308
160.437
160.843
160.887
161.335
161.405
162.032
162.222
163.066
163.579
164.598
165.723
166.756
169.242
170.672
158.904
159.356
159.699
160.154
160.405
160.958
161.178
161.833
162.038
162.871
163.08
164.138
164.467
165.943
166.46
168.595
169.988
172.445
175.42
176.346
159.463
159.979
160.396
160.955
161.333
161.991
162.301
163.149
163.359
164.509
164.59
166.201
166.499
168.484
168.978
171.893
172.435
177.836
179.416
182.691
159.775
160.287
160.758
161.313
161.786
162.418
162.901
163.647
164.141
165.057
165.549
166.719
167.163
168.593
169.069
170.928
171.209
181.478
180.019
187.376
160.294
160.831
161.332
161.936
162.436
163.141
163.624
164.478
164.927
165.99
166.398
167.701
168.143
169.744
170.251
172.666
173.313
176.557
176.977
179.634
160.524
161.039
161.567
162.136
162.698
163.332
163.927
164.651
165.261
166.125
166.701
167.8
168.246
169.703
170.104
171.237
171.519
180.017
179.344
182.729
160.788
161.317
161.862
162.467
163.029
163.687
164.264
164.998
165.581
166.413
167.001
167.947
168.479
169.573
169.969
171.605
171.932
173.349
174.017
174.723
160.917
161.442
161.973
162.53
163.104
163.734
164.348
165.043
165.692
166.453
167.104
167.935
168.581
169.478
170.039
171.097
171.44
180.008
176.656
181.964
267.865
269.902
271.07
271.743
271.681
271.102
269.744
267.931
265.254
262.218
258.231
254.049
248.827
243.436
237.393
230.664
223.593
216.268
206.354
197.811
240.575
241.744
242.573
243.128
243.36
243.314
242.965
242.392
241.504
240.464
239.081
237.659
235.839
234.183
231.767
227.762
223.695
220.924
216.99
214.319
203.472
204.396
205.302
206.039
206.68
207.228
207.602
207.957
208.06
208.209
208.031
207.96
207.496
207.221
206.455
206.017
204.974
204.261
202.843
202.228
191.109
191.79
192.433
193.003
193.509
193.953
194.315
194.621
194.811
194.971
194.988
195.041
194.878
194.835
194.484
194.347
193.789
193.599
192.866
192.709
175.344
175.947
176.501
177.034
177.506
177.976
178.371
178.788
179.11
179.488
179.745
180.072
180.247
180.528
180.609
180.861
180.846
181.089
180.914
181.152
169.357
169.81
170.252
170.662
171.06
171.427
171.781
172.105
172.415
172.696
172.934
173.165
173.339
173.536
173.641
173.82
173.841
174.02
173.947
174.152
162.841
163.246
163.623
163.993
164.331
164.665
164.965
165.264
165.527
165.793
166.027
166.277
166.484
166.713
166.882
167.093
167.228
167.429
167.497
167.72
160.007
160.326
160.627
160.922
161.203
161.476
161.735
161.988
162.224
162.457
162.669
162.88
163.061
163.252
163.407
163.586
163.702
163.876
163.963
164.132
157.524
157.812
158.082
158.345
158.594
158.834
159.059
159.278
159.483
159.679
159.861
160.037
160.196
160.356
160.493
160.638
160.751
160.889
160.967
161.096
156.578
156.812
157.04
157.262
157.475
157.681
157.876
158.066
158.245
158.42
158.581
158.736
158.879
159.02
159.146
159.274
159.383
159.5
159.591
159.717
155.634
155.842
156.04
156.235
156.436
156.638
156.841
157.045
157.245
157.453
157.632
157.789
157.93
158.058
158.178
158.294
158.397
158.503
158.588
158.687
155.95
156.116
156.277
156.434
156.585
156.732
156.874
157.012
157.144
157.273
157.399
157.517
157.627
157.736
157.837
157.938
158.03
158.124
158.204
158.292
156.002
156.165
156.325
156.482
156.636
156.788
156.936
157.081
157.223
157.362
157.496
157.627
157.753
157.874
157.99
158.101
158.206
158.307
158.402
158.495
156.414
156.554
156.691
156.826
156.957
157.087
157.214
157.339
157.461
157.581
157.699
157.813
157.931
158.05
158.165
158.274
158.379
158.477
158.576
158.665
156.973
157.099
157.225
157.35
157.474
157.598
157.72
157.842
157.963
158.082
158.2
158.316
158.431
158.544
158.656
158.764
158.874
158.979
159.086
159.186
157.333
157.449
157.566
157.682
157.798
157.913
158.029
158.144
158.259
158.373
158.487
158.6
158.713
158.825
158.938
159.048
159.16
159.268
159.379
159.483
157.861
157.97
158.078
158.188
158.298
158.409
158.521
158.632
158.745
158.857
158.97
159.083
159.197
159.31
159.424
159.537
159.652
159.764
159.88
159.99
158.119
158.221
158.324
158.428
158.533
158.64
158.747
158.856
158.965
159.075
159.186
159.297
159.41
159.523
159.637
159.75
159.867
159.98
160.099
160.212
158.401
158.5
158.601
158.702
158.806
158.91
159.016
159.122
159.23
159.339
159.449
159.56
159.672
159.785
159.899
160.013
160.129
160.245
160.364
160.481
158.498
158.595
158.694
158.794
158.895
158.998
159.103
159.209
159.317
159.426
159.536
159.649
159.762
159.877
159.994
160.112
160.231
160.352
160.473
160.596
19.9617
16.4227
8.93876
1.82149
-5.1224
-12.5082
-20.2531
-28.4412
-37.1456
-46.4766
-56.4387
-67.2331
-78.8227
-91.4988
-105.192
-120.177
-136.622
-154.321
-174.589
-184.444
36.3694
33.9167
28.4829
22.7856
16.9747
10.6724
3.93657
-3.29468
-11.0538
-19.4481
-28.4987
-38.3375
-48.9551
-60.5833
-73.167
-86.975
-102.099
-118.453
-137.735
-147.753
55.2035
54.0367
49.7888
44.9318
39.9563
34.487
28.5743
22.1726
15.2436
7.72049
-0.3926
-9.24859
-18.8275
-29.3915
-40.8088
-53.4819
-67.272
-82.3535
-100.098
-110.529
75.248
74.3753
70.5905
66.4802
62.2347
57.5471
52.4426
46.8943
40.8702
34.2809
27.1135
19.2235
10.6437
1.15377
-9.12712
-20.5725
-32.9489
-46.6731
-62.7958
-72.7272
95.2061
94.8786
91.9027
88.4905
84.9763
81.0457
76.7141
71.965
66.728
60.9744
54.6782
47.7372
40.1643
31.7473
22.6096
12.3423
1.25523
-11.2237
-25.6696
-34.7565
115.292
115.279
112.771
109.947
107.018
103.733
100.082
96.0457
91.5961
86.6717
81.2442
75.1994
68.5524
61.1041
52.9776
43.7899
33.912
22.5914
9.83093
2.26933
135.304
135.624
133.604
131.383
129.073
126.431
123.441
120.13
116.405
112.267
107.645
102.486
96.7539
90.2922
83.1665
75.0135
66.107
55.767
44.0095
37.5944
154.6
155.077
153.478
151.744
149.957
147.874
145.529
142.894
139.918
136.569
132.774
128.477
123.627
118.079
111.907
104.732
96.9125
87.6302
76.7063
70.4836
173.047
173.818
172.745
171.612
170.445
169.009
167.337
165.395
163.118
160.501
157.466
154.004
150.017
145.472
140.318
134.281
127.637
119.481
110.023
103.332
190.339
191.33
190.751
190.119
189.451
188.553
187.459
186.129
184.552
182.676
180.447
177.836
174.762
171.173
166.982
162.014
156.467
149.444
141.719
135.014
206.71
208.014
208.003
207.922
207.821
207.543
207.08
206.419
205.514
204.332
202.829
201.004
198.749
196.096
192.886
189.119
184.722
179.178
173.472
165.991
221.797
223.394
223.87
224.267
224.628
224.826
224.865
224.73
224.394
223.868
223.08
222.018
220.604
218.828
216.553
213.808
210.409
206.308
201.666
195.224
235.907
237.692
238.56
239.379
240.201
240.904
241.488
241.953
242.251
242.37
242.23
241.859
241.132
240.123
238.671
236.842
234.465
231.577
228.022
223.261
248.722
250.853
252.196
253.506
254.79
255.956
256.992
257.908
258.646
259.223
259.588
259.773
259.665
259.323
258.551
257.483
255.854
253.79
250.995
247.219
260.512
262.805
264.397
265.986
267.568
269.07
270.483
271.819
273.017
274.116
275.021
275.769
276.23
276.466
276.339
275.92
274.967
273.672
271.662
268.727
271.167
273.669
275.589
277.535
279.476
281.341
283.118
284.804
286.365
287.822
289.088
290.225
291.101
291.843
292.201
292.356
291.954
291.278
289.771
287.56
280.269
282.927
285.05
287.219
289.389
291.49
293.545
295.54
297.473
299.306
301.031
302.603
303.999
305.177
306.017
306.612
306.706
306.638
305.772
304.274
288.65
291.472
293.779
296.182
298.589
300.954
303.278
305.552
307.732
309.812
311.758
313.547
315.145
316.53
317.69
318.639
319.267
319.647
319.28
318.474
295.098
297.957
300.371
302.913
305.455
307.978
310.462
312.915
315.297
317.618
319.833
321.958
323.925
325.77
327.361
328.825
329.791
330.622
330.658
330.38
300.728
303.716
306.302
309
311.753
314.445
317.152
319.791
322.404
324.921
327.359
329.677
331.82
333.804
335.518
337.006
338.137
339.019
339.34
339.452
-268.163
-276.298
-284.824
-293.95
-303.255
-313.168
-323.268
-333.853
-344.775
-356.101
-367.821
-379.961
-392.471
-405.363
-418.716
-432.331
-445.665
-455.795
-458.085
-458.61
-263.596
-271.984
-280.704
-290.151
-299.785
-310.089
-320.665
-331.805
-343.351
-355.415
-368.011
-381.11
-394.866
-409.288
-424.108
-439.903
-456.025
-469.279
-475.023
-475.684
-257.949
-266.601
-275.52
-285.286
-295.274
-306.011
-317.097
-328.783
-341.014
-353.834
-367.29
-381.456
-396.411
-412.199
-428.826
-446.805
-465.843
-482.17
-492.216
-493.316
-252.259
-261.162
-270.243
-280.277
-290.553
-301.607
-313.097
-325.254
-338.006
-351.447
-365.647
-380.625
-396.538
-413.416
-431.558
-451.056
-471.873
-490.755
-505.818
-507.109
-245.053
-254.182
-263.409
-273.688
-284.247
-295.637
-307.537
-320.123
-333.406
-347.431
-362.269
-377.99
-394.705
-412.49
-431.561
-451.875
-473.323
-494.159
-513.713
-516.149
-237.632
-246.934
-256.209
-266.639
-277.368
-288.935
-301.078
-313.969
-327.593
-342.043
-357.403
-373.713
-391.157
-409.839
-429.89
-451.443
-474.664
-499.065
-517.327
-521.184
-228.469
-237.909
-247.198
-257.741
-268.615
-280.346
-292.719
-305.84
-319.756
-334.533
-350.228
-366.931
-384.811
-403.888
-424.357
-446.599
-470.486
-495.146
-516.096
-522.528
-218.649
-228.182
-237.44
-247.976
-258.905
-270.671
-283.114
-296.352
-310.412
-325.376
-341.335
-358.349
-376.592
-396.1
-417.128
-439.818
-463.686
-489.574
-511.835
-516.929
-207.08
-216.649
-225.855
-236.348
-247.284
-259.018
-271.492
-284.756
-298.861
-313.895
-329.93
-347.077
-365.485
-385.224
-406.56
-429.559
-454.502
-481.747
-504.05
-509.289
-194.628
-204.183
-213.245
-223.595
-234.428
-246.059
-258.426
-271.605
-285.644
-300.633
-316.649
-333.782
-352.194
-371.926
-393.311
-416.449
-441.346
-468.648
-492.455
-498.867
-180.587
-190.066
-198.953
-209.103
-219.777
-231.186
-243.371
-256.363
-270.208
-285.016
-300.844
-317.82
-336.079
-355.685
-376.955
-399.762
-424.666
-451.765
-475.836
-483.062
-165.418
-174.788
-183.439
-193.316
-203.742
-214.909
-226.83
-239.553
-253.137
-267.681
-283.243
-299.937
-317.904
-337.178
-358.108
-380.664
-405.118
-431.856
-456.42
-464.386
-148.919
-158.117
-166.497
-176.023
-186.144
-196.94
-208.493
-220.856
-234.055
-248.2
-263.348
-279.642
-297.163
-316.033
-336.544
-358.47
-382.539
-408.844
-433.362
-442.111
-131.171
-140.174
-148.235
-157.383
-167.136
-177.561
-188.728
-200.67
-213.436
-227.149
-241.845
-257.647
-274.665
-292.97
-312.838
-334.189
-357.708
-383.071
-407.626
-416.652
-112.222
-121.016
-128.763
-137.455
-146.804
-156.772
-167.445
-178.907
-191.171
-204.342
-218.466
-233.698
-250.075
-267.774
-286.975
-307.606
-330.437
-354.7
-379.335
-388.748
-92.1857
-100.726
-108.095
-116.335
-125.242
-134.743
-144.944
-155.892
-167.598
-180.208
-193.744
-208.325
-224.043
-240.978
-259.347
-279.183
-301.003
-324.109
-348.837
-358.222
-71.2126
-79.461
-86.4309
-94.152
-102.589
-111.598
-121.251
-131.644
-142.79
-154.788
-167.661
-181.575
-196.521
-212.711
-230.267
-249.217
-269.986
-292.16
-316.329
-326.023
-49.8516
-57.7999
-64.2221
-71.3415
-79.2766
-87.7536
-96.8469
-106.665
-117.181
-128.531
-140.729
-153.893
-168.082
-183.422
-200.064
-218.04
-237.773
-258.9
-282.226
-291.91
-25.3779
-33.8249
-40.1621
-46.8082
-54.3619
-62.4889
-71.1467
-80.4615
-90.4543
-101.214
-112.735
-125.209
-138.59
-153.135
-168.877
-185.944
-204.64
-224.739
-247.11
-256.9
2.18608
-6.39111
-14.1807
-21.2105
-28.7458
-36.8207
-45.2406
-54.1731
-63.658
-73.8163
-84.6755
-96.3704
-108.933
-122.562
-137.317
-153.304
-170.877
-189.77
-211.103
-220.907
14.5259
14.0969
13.3298
11.3599
8.7587
5.11681
1.68849
-3.31895
-8.13039
-14.8552
-21.8886
-30.8597
-41.5459
-53.6798
-70.4058
-87.4734
-114.192
-140.257
-182.905
-228.52
15.027
14.5768
13.97
11.9578
9.54956
5.97838
2.69023
-2.21346
-6.87534
-13.4607
-20.2877
-29.0713
-39.4731
-51.2898
-67.7115
-84.204
-110.581
-135.89
-178.296
-223.15
15.5789
15.1372
14.64
12.5853
10.324
6.83836
3.68426
-1.10381
-5.61171
-12.0606
-18.6864
-27.2877
-37.3989
-48.9563
-64.9781
-80.9608
-106.996
-131.244
-173.281
-216.912
16.1622
15.7511
15.3216
13.2663
11.1681
7.76388
4.749
0.0719812
-4.28246
-10.5884
-16.9953
-25.4173
-35.2103
-46.5154
-62.0726
-77.5753
-103.174
-126.342
-168.248
-210.704
16.7884
16.4126
16.0303
13.9761
11.9999
8.68814
5.80656
1.25252
-2.9444
-9.11038
-15.3039
-23.5494
-33.0186
-44.0811
-59.1727
-74.2305
-99.2677
-121.485
-162.788
-203.442
17.4488
17.1316
16.7487
14.7348
12.8931
9.67721
6.93434
2.49911
-1.54291
-7.56123
-13.5273
-21.5958
-30.7186
-41.5427
-56.105
-70.7197
-95.0856
-116.36
-156.962
-196.117
18.1455
17.9021
17.4972
15.4912
13.7772
10.6654
8.05579
3.75078
-0.132587
-6.00449
-11.7501
-19.641
-28.4129
-39.0065
-53.039
-67.2411
-90.8946
-111.223
-150.68
-187.833
18.8725
18.7194
18.246
16.3109
14.7338
11.7172
9.24623
5.06787
1.33827
-4.37925
-9.89445
-17.6035
-26.0088
-36.3715
-49.8146
-63.5934
-86.4029
-105.738
-144.026
-179.288
19.6102
19.5524
19.0271
17.1265
15.6706
12.7697
10.4311
6.3899
2.81769
-2.74472
-8.03723
-15.5607
-23.5968
-33.7336
-46.5839
-59.9726
-81.9095
-100.217
-136.965
-169.758
20.3536
20.3707
19.7898
17.9811
16.6849
13.8829
11.6826
7.77579
4.35418
-1.04574
-6.10979
-13.4394
-21.0985
-31.0018
-43.2111
-56.1892
-77.1146
-94.3383
-129.534
-159.759
21.0857
21.1542
20.5817
18.8519
17.6694
14.9984
12.93
9.16645
5.89875
0.663634
-4.17964
-11.3088
-18.5914
-28.2613
-39.8264
-52.4258
-72.3049
-88.4007
-121.701
-148.744
21.8053
21.8828
21.3686
19.7252
18.7157
16.1713
14.2411
10.6183
7.49624
2.43194
-2.18847
-9.106
-16.0118
-25.4339
-36.321
-48.5151
-67.2042
-82.136
-113.536
-137.138
22.4999
22.5544
22.1544
20.599
19.7546
17.3497
15.5504
12.0746
9.1012
4.2109
-0.19336
-6.88994
-13.4229
-22.5894
-32.7999
-44.6084
-62.065
-75.7971
-104.95
-124.416
23.19
23.186
22.9441
21.4981
20.8531
18.5842
16.9213
13.5901
10.7566
6.04508
1.85716
-4.60505
-10.7698
-19.6601
-29.1757
-40.5653
-56.6495
-69.1982
-96.1042
-111.114
23.8491
23.7796
23.7354
22.3939
21.9481
19.8265
18.2911
15.1073
12.4149
7.88389
3.90561
-2.31409
-8.1225
-16.7288
-25.5685
-36.5475
-51.237
-62.601
-86.8106
-96.4626
24.5134
24.3363
24.5113
23.3159
23.0954
21.1187
19.7125
16.6719
14.1104
9.76189
5.9908
0.0262841
-5.43509
-13.7309
-21.8849
-32.3879
-45.5318
-55.7089
-77.0404
-81.0382
25.1433
24.8191
25.2762
24.2582
24.2767
22.441
21.1573
18.2644
15.8439
11.6899
8.13449
2.45015
-2.65033
-10.5901
-18.0451
-28.0231
-39.5933
-48.6708
-66.8414
-64.811
25.8642
25.4525
26.2368
25.184
25.5219
23.8217
22.6588
19.9084
17.6151
13.6497
10.3059
4.89917
0.119819
-7.4903
-14.3325
-23.8394
-33.9532
-42.1199
-57.1302
-48.6507
26.3339
25.7332
26.863
26.034
26.6436
25.0851
24.0085
21.3728
19.1577
15.3291
12.1304
6.94156
2.35435
-5.0263
-11.4258
-20.4484
-29.2218
-36.2945
-45.8993
-26.4633
27.1377
25.1298
26.9295
27.3283
27.8997
26.5672
25.5776
23.0888
21.0323
17.4478
14.4775
9.65475
5.52182
-1.22492
-6.64529
-14.4563
-20.7143
-26.1349
-29.8445
-3.19376
42.2848
36.6698
39.2613
38.267
39.1164
37.8863
38.0455
36.9612
36.9356
35.9541
36.0785
34.871
35.8702
34.9746
38.3795
37.233
44.3029
45.822
55.7451
42.5015
47.1348
46.0053
46.9804
46.693
47.379
47.5098
47.9404
48.24
48.889
49.5424
51.0819
52.9438
56.4156
59.5647
65.5391
70.4475
81.9437
86.855
112.677
120.384
64.9288
64.9434
64.638
65.3436
65.8538
66.6994
67.8207
68.9942
70.7603
72.5377
75.3959
77.9888
81.8192
85.4518
91.2454
97.0732
105.53
114.211
127.377
138.797
70.9997
71.2796
71.803
72.672
73.8593
75.348
77.1546
79.3193
81.9682
84.8912
88.2552
91.8372
96.4419
101.25
107.563
113.634
122.48
130.409
142.027
150.829
81.9983
82.2151
83.1151
84.8086
86.2704
87.9862
89.9452
91.9058
94.3634
96.7467
99.835
102.999
106.93
111
115.796
120.898
126.796
132.704
139.686
146.762
88.3362
88.7492
89.8551
91.4801
93.3425
95.3628
97.7044
100.056
102.921
105.671
109.076
112.288
116.303
120.067
124.816
129.217
134.539
139.529
145.437
150.429
95.5919
96.2447
97.6891
99.6998
101.914
103.897
106.25
108.361
110.876
113.247
116.001
118.739
121.796
124.948
128.326
131.841
135.5
139.278
142.702
146.489
100.702
101.375
103.567
105.517
108.144
110.097
112.678
114.7
117.376
119.545
122.373
124.746
127.755
130.356
133.512
136.357
139.498
142.606
145.959
148.905
107.554
108.263
111.023
112.846
115.62
117.344
119.747
121.453
123.7
125.502
127.732
129.667
131.977
134.044
136.492
138.639
141.24
143.409
145.602
147.375
114.011
114.528
117.978
119.31
122.113
123.538
125.727
127.141
129.141
130.608
132.578
134.124
136.131
137.746
139.803
141.449
143.528
145.218
147.367
149.119
125.217
123.95
128.086
128.348
130.543
131.403
132.9
133.863
135.202
136.256
137.597
138.739
140.15
141.381
142.879
144.176
145.751
146.98
148.428
149.464
139.294
137.491
137.192
137.716
137.82
138.387
138.763
139.322
139.97
140.611
141.505
142.243
143.323
144.147
145.316
146.197
147.406
148.312
149.565
150.533
151.234
150.88
147.681
147.644
146.256
146.074
145.638
145.57
145.677
145.762
146.176
146.47
147.063
147.53
148.286
148.88
149.752
150.41
151.335
151.94
159.245
157.723
154.878
152.792
151.585
150.33
149.747
149.056
148.991
148.67
148.891
148.864
149.273
149.486
150.046
150.397
151.052
151.494
152.207
152.703
165.854
161.564
159.965
157.663
156.317
154.781
154.086
153.022
152.7
152.125
152.081
151.829
152.008
151.972
152.303
152.467
152.901
153.19
153.704
154.052
171.105
160.771
159.946
157.913
157.252
155.833
155.348
154.463
154.215
153.669
153.568
153.295
153.305
153.281
153.469
153.568
153.881
154.101
154.485
154.783
164.684
162.068
161.091
159.578
158.806
157.706
157.181
156.237
155.914
155.315
155.167
154.815
154.827
154.672
154.747
154.791
154.98
155.132
155.427
155.667
169.34
160.262
160.085
158.964
158.609
157.753
157.396
156.835
156.535
156.062
155.879
155.514
155.499
155.3
155.384
155.451
155.629
155.776
156.011
156.241
161.056
160.219
160.09
158.886
158.684
158.058
157.777
157.27
157.034
156.703
156.527
156.343
156.209
156.148
156.13
156.092
156.178
156.254
156.41
156.571
167.057
159.857
159.677
159.081
158.746
158.237
157.898
157.489
157.203
156.894
156.696
156.494
156.386
156.307
156.271
156.232
156.311
156.414
156.582
156.774
80.221
95.3482
110.249
125.093
139.301
153.03