/*--------------------------------*- C++ -*----------------------------------*\
  =========                 |
  \\      /  F ield         | OpenFOAM: The Open Source CFD Toolbox
   \\    /   O peration     | Website:  https://openfoam.org
    \\  /    A nd           | Version:  9
     \\/     M anipulation  |
\*---------------------------------------------------------------------------*/
FoamFile
{
    format      ascii;
    class       surfaceScalarField;
    location    "10";
    object      phi;
}
// * * * * * * * * * * * * * * * * * * * * * * * * * * * * * * * * * * * * * //

dimensions      [0 3 -1 0 0 0 0];

internalField   nonuniform List<scalar> 
92080
(
-0.00599626
-0.412163
0.41816
-0.0342085
-0.784474
0.812686
-0.0738488
-0.825623
0.865263
-0.114494
-0.809651
0.850297
-0.155196
-0.798797
0.839498
-0.195549
-0.786861
0.827214
-0.235116
-0.775801
0.815368
-0.274024
-0.765655
0.804562
-0.312245
-0.756473
0.794694
-0.349394
-0.746962
0.784111
-0.386005
-0.737324
0.773936
-0.422405
-0.728871
0.76527
-0.459139
-0.721824
0.758558
-0.495901
-0.714752
0.751514
-0.530881
-0.709815
0.744795
-0.565677
-0.702359
0.737155
-0.601829
-0.695957
0.732109
-0.63443
-0.69332
0.725922
-0.663077
-0.687016
0.715663
-0.680104
0.708487
-0.69146
-0.00534669
-0.406817
-0.0393867
-0.750434
-0.0814175
-0.783592
-0.124024
-0.767045
-0.166178
-0.756642
-0.207651
-0.745388
-0.248971
-0.734482
-0.289985
-0.72464
-0.330346
-0.716111
-0.3698
-0.707508
-0.408473
-0.698651
-0.446981
-0.690363
-0.48436
-0.684445
-0.522412
-0.676699
-0.56093
-0.671297
-0.596742
-0.666547
-0.63373
-0.658969
-0.672959
-0.654091
-0.707534
-0.652442
-0.648658
-0.73898
-0.000759126
-0.406058
-0.0381747
-0.713018
-0.0822285
-0.739538
-0.126594
-0.72268
-0.171325
-0.711911
-0.215374
-0.701339
-0.258353
-0.691503
-0.301026
-0.681967
-0.343129
-0.674009
-0.38409
-0.666547
-0.423888
-0.658854
-0.463093
-0.651157
-0.501686
-0.645853
-0.538887
-0.639498
-0.576863
-0.633322
-0.614095
-0.629314
-0.648211
-0.624853
-0.684159
-0.618143
-0.722432
-0.614169
-0.611972
-0.759118
0.00122442
-0.407282
-0.0389121
-0.672882
-0.0864465
-0.692003
-0.133044
-0.676082
-0.179076
-0.665879
-0.225013
-0.655401
-0.270365
-0.646152
-0.314752
-0.637579
-0.359195
-0.629567
-0.402997
-0.622744
-0.446093
-0.615758
-0.488831
-0.60842
-0.53016
-0.604523
-0.570499
-0.599159
-0.610798
-0.593022
-0.652256
-0.587857
-0.692548
-0.584561
-0.729695
-0.580995
-0.767683
-0.576182
-0.573694
-0.805961
0.002228
-0.40951
-0.0394912
-0.631163
-0.0894809
-0.642014
-0.137682
-0.627881
-0.185135
-0.618427
-0.231283
-0.609253
-0.27699
-0.600444
-0.322104
-0.592465
-0.366381
-0.58529
-0.410157
-0.578968
-0.452849
-0.573066
-0.496353
-0.564916
-0.540032
-0.560844
-0.580641
-0.55855
-0.619508
-0.554155
-0.658319
-0.549046
-0.698831
-0.54405
-0.73902
-0.540806
-0.778417
-0.536785
-0.533301
-0.81881
-0.000886931
-0.408623
-0.0472988
-0.584751
-0.0983326
-0.59098
-0.147004
-0.579209
-0.195426
-0.570005
-0.243332
-0.561348
-0.29038
-0.553396
-0.336486
-0.546359
-0.382609
-0.539166
-0.427798
-0.533779
-0.471337
-0.529527
-0.51419
-0.522063
-0.559641
-0.515393
-0.606376
-0.511815
-0.650974
-0.509557
-0.693221
-0.506799
-0.734099
-0.503171
-0.775023
-0.499882
-0.814832
-0.496976
-0.493924
-0.854208
-0.00929444
-0.399329
-0.0582096
-0.535836
-0.111322
-0.537868
-0.160382
-0.530149
-0.207997
-0.522389
-0.254395
-0.51495
-0.301217
-0.506574
-0.347125
-0.500451
-0.392764
-0.493528
-0.439406
-0.487137
-0.483837
-0.485096
-0.525509
-0.480392
-0.565879
-0.475023
-0.607604
-0.47009
-0.651283
-0.465878
-0.695067
-0.463015
-0.738234
-0.460003
-0.780967
-0.45715
-0.823474
-0.454469
-0.452039
-0.865359
-0.01983
-0.379499
-0.071549
-0.484117
-0.124747
-0.48467
-0.176414
-0.478482
-0.226676
-0.472127
-0.274789
-0.466837
-0.321677
-0.459686
-0.367903
-0.454226
-0.412714
-0.448717
-0.459309
-0.440542
-0.508006
-0.436399
-0.555057
-0.433341
-0.600738
-0.429343
-0.644216
-0.426612
-0.686586
-0.423507
-0.729264
-0.420338
-0.771561
-0.417706
-0.813704
-0.415006
-0.855401
-0.412772
-0.410342
-0.897098
-0.0254961
-0.354003
-0.0784087
-0.431204
-0.133155
-0.429923
-0.185139
-0.426499
-0.236675
-0.420591
-0.286813
-0.416699
-0.336429
-0.41007
-0.384896
-0.405759
-0.430013
-0.403599
-0.472508
-0.398047
-0.516177
-0.39273
-0.561269
-0.388249
-0.606401
-0.384211
-0.652354
-0.380659
-0.697435
-0.378426
-0.741717
-0.376055
-0.78563
-0.373794
-0.829034
-0.371602
-0.871895
-0.369912
-0.367762
-0.914475
-0.0322918
-0.321711
-0.0852218
-0.378274
-0.140112
-0.375033
-0.193771
-0.37284
-0.246963
-0.367399
-0.297809
-0.365853
-0.347888
-0.35999
-0.400817
-0.352831
-0.453226
-0.35119
-0.503024
-0.34825
-0.549651
-0.346103
-0.595139
-0.34276
-0.639835
-0.339515
-0.683883
-0.336611
-0.728452
-0.333857
-0.772539
-0.331968
-0.816262
-0.330071
-0.8599
-0.327964
-0.90313
-0.326681
-0.324989
-0.945904
-0.0332015
-0.288509
-0.0831224
-0.328353
-0.136565
-0.321591
-0.190118
-0.319286
-0.243949
-0.313568
-0.297002
-0.3128
-0.344017
-0.312975
-0.391077
-0.30577
-0.440872
-0.301395
-0.491383
-0.297739
-0.542306
-0.29518
-0.591601
-0.293465
-0.640565
-0.290552
-0.688669
-0.288507
-0.735894
-0.286632
-0.783061
-0.284801
-0.829113
-0.284019
-0.874779
-0.282299
-0.919979
-0.281481
-0.280445
-0.964523
-0.0394657
-0.249044
-0.0920758
-0.275743
-0.147014
-0.266653
-0.200876
-0.265423
-0.256413
-0.258032
-0.316037
-0.253176
-0.373881
-0.255132
-0.425201
-0.25445
-0.474741
-0.251855
-0.523301
-0.249178
-0.571439
-0.247042
-0.619276
-0.245629
-0.665796
-0.244031
-0.712483
-0.24182
-0.758497
-0.240618
-0.804655
-0.238643
-0.85072
-0.237953
-0.896117
-0.236902
-0.941608
-0.23599
-0.235661
-0.986392
-0.0474051
-0.201639
-0.101252
-0.221896
-0.1563
-0.211606
-0.208274
-0.213448
-0.256471
-0.209836
-0.306655
-0.202992
-0.360667
-0.20112
-0.415121
-0.199995
-0.467751
-0.199225
-0.519333
-0.197597
-0.570366
-0.196009
-0.620797
-0.195197
-0.670143
-0.194685
-0.718801
-0.193161
-0.766735
-0.192685
-0.813995
-0.191384
-0.861329
-0.190619
-0.908146
-0.190085
-0.954807
-0.189329
-0.188997
-1.00147
-0.064533
-0.137106
-0.124348
-0.16208
-0.184136
-0.151818
-0.244781
-0.152803
-0.297979
-0.156638
-0.346973
-0.153998
-0.395953
-0.152139
-0.445297
-0.150651
-0.495282
-0.149241
-0.544629
-0.14825
-0.593485
-0.147153
-0.642836
-0.145846
-0.691299
-0.146222
-0.73922
-0.145239
-0.786749
-0.145156
-0.833455
-0.144678
-0.879829
-0.144245
-0.925901
-0.144012
-0.971505
-0.143725
-0.143496
-1.01701
-0.0634135
-0.073692
-0.121886
-0.103608
-0.169602
-0.104102
-0.220687
-0.101718
-0.276677
-0.100648
-0.329738
-0.100936
-0.382881
-0.0989962
-0.434052
-0.0994806
-0.485564
-0.0977289
-0.536645
-0.097169
-0.587379
-0.0964183
-0.637629
-0.0955971
-0.688271
-0.0955803
-0.737957
-0.095553
-0.787477
-0.095636
-0.836462
-0.0956932
-0.884697
-0.09601
-0.932643
-0.0960666
-0.979856
-0.0965124
-0.0966113
-1.02674
-0.0509871
-0.0227049
-0.116808
-0.0377871
-0.17534
-0.0455701
-0.229956
-0.0471025
-0.287974
-0.0426295
-0.344272
-0.0446384
-0.399663
-0.043606
-0.454514
-0.0446289
-0.506937
-0.0453066
-0.558344
-0.0457619
-0.609179
-0.0455829
-0.658694
-0.046082
-0.70859
-0.0456844
-0.757539
-0.0466045
-0.806539
-0.0466355
-0.85455
-0.0476824
-0.902584
-0.0479761
-0.949573
-0.0490775
-0.996478
-0.0496079
-0.0506845
-1.0424
-0.0372996
0.0145947
-0.0967029
0.0216162
-0.16024
0.0179666
-0.22068
0.0133383
-0.275742
0.0124324
-0.331144
0.0107636
-0.385473
0.0107229
-0.440215
0.0101125
-0.495445
0.00992386
-0.549804
0.00859712
-0.603324
0.0079367
-0.655966
0.00655996
-0.707394
0.00574379
-0.758214
0.00421592
-0.808049
0.00319917
-0.857301
0.00157007
-0.905729
0.000451885
-0.953773
-0.00103363
-1.00124
-0.00214002
-0.00353572
-1.04839
-0.0578002
0.0723948
-0.115517
0.0793328
-0.172222
0.0746724
-0.230308
0.0714239
-0.287953
0.0700772
-0.345739
0.0685495
-0.40179
0.0667737
-0.457686
0.0660086
-0.511673
0.0639115
-0.564617
0.0615412
-0.616807
0.0601259
-0.667593
0.0573462
-0.718281
0.056432
-0.767759
0.0536941
-0.81736
0.0527997
-0.866135
0.0503456
-0.914961
0.0492779
-0.963183
0.0471881
-1.01116
0.0458398
0.0439472
-1.05865
-0.0564371
0.128832
-0.111883
0.134778
-0.170374
0.133164
-0.231475
0.132525
-0.289514
0.128116
-0.347238
0.126274
-0.403126
0.122661
-0.456623
0.119506
-0.509235
0.116524
-0.561735
0.114041
-0.613562
0.111953
-0.665364
0.109149
-0.716522
0.10759
-0.767692
0.104864
-0.818197
0.103304
-0.86862
0.100769
-0.918434
0.0990911
-0.96774
0.0964947
-1.0164
0.0944982
0.091981
-1.06443
-0.0492189
0.178051
-0.109953
0.195512
-0.16898
0.192191
-0.227827
0.191372
-0.286275
0.186564
-0.342861
0.18286
-0.399769
0.179569
-0.455199
0.174936
-0.511678
0.173003
-0.566526
0.168889
-0.620411
0.165838
-0.673988
0.162726
-0.725917
0.159518
-0.777488
0.156435
-0.827542
0.153358
-0.877612
0.15084
-0.926013
0.147492
-0.974502
0.144984
-1.02192
0.141917
-1.06923
0.139287
-0.000956984
-0.0256878
0.0266448
0.0553018
-0.1426
0.0863415
0.210355
-0.433198
0.278144
0.37515
-0.787879
0.623085
0.471423
-0.991232
0.894959
0.515912
-1.06978
1.02529
0.534911
-1.09002
1.07102
0.544491
-1.09219
1.08261
0.550987
-1.08976
1.08326
0.554698
-1.08418
1.08047
0.558702
-1.07872
1.07472
0.563449
-1.07457
1.06983
0.566644
-1.0709
1.0677
0.56938
-1.06685
1.06411
0.572624
-1.06495
1.0617
0.576974
-1.06209
1.05774
0.581558
-1.06132
1.05674
0.584615
-1.05887
1.05582
0.586955
-1.05762
1.05528
-1.05196
0.587048
1.05187
0.0210079
-0.0466957
0.0963425
-0.217935
0.254766
-0.591621
0.3746
-0.907714
0.436107
-1.05274
0.460183
-1.09385
0.469935
-1.09977
0.475598
-1.09785
0.478871
-1.09303
0.481602
-1.08692
0.48441
-1.08153
0.486394
-1.07656
0.488656
-1.07316
0.491529
-1.06972
0.494181
-1.0676
0.495913
-1.06383
0.497165
-1.06258
0.498289
-1.06
0.498523
-1.05785
-1.04898
0.495548
0.027317
-0.0740128
0.121642
-0.31226
0.259518
-0.729497
0.345206
-0.993402
0.380728
-1.08826
0.393756
-1.10688
0.400064
-1.10608
0.403735
-1.10152
0.406186
-1.09548
0.408421
-1.08915
0.410045
-1.08315
0.412044
-1.07855
0.413494
-1.07461
0.414072
-1.0703
0.413723
-1.06725
0.413653
-1.06375
0.413697
-1.06262
0.412782
-1.05908
0.409896
-1.05496
-1.04362
0.404528
0.0265586
-0.100571
0.135371
-0.421072
0.245474
-0.839601
0.303722
-1.05165
0.324739
-1.10928
0.332376
-1.11452
0.336441
-1.11014
0.338032
-1.10311
0.339503
-1.09695
0.340132
-1.08978
0.340645
-1.08367
0.34032
-1.07823
0.339184
-1.07348
0.338045
-1.06916
0.336952
-1.06616
0.335632
-1.06243
0.333251
-1.06024
0.329705
-1.05554
0.324299
-1.04956
-1.03806
0.318744
0.0311064
-0.131678
0.133095
-0.52306
0.215293
-0.921798
0.25513
-1.09149
0.267525
-1.12167
0.272684
-1.11968
0.273916
-1.11138
0.274988
-1.10418
0.274933
-1.0969
0.274234
-1.08908
0.272677
-1.08211
0.270775
-1.07633
0.268739
-1.07144
0.266234
-1.06665
0.26271
-1.06263
0.258757
-1.05848
0.254321
-1.0558
0.24906
-1.05028
0.242333
-1.04283
-1.03152
0.235793
0.0395291
-0.171207
0.127332
-0.610864
0.192738
-0.987204
0.21528
-1.11403
0.220474
-1.12687
0.220909
-1.12011
0.219517
-1.10998
0.217882
-1.10255
0.215412
-1.09443
0.212206
-1.08587
0.208938
-1.07884
0.205238
-1.07263
0.200747
-1.06695
0.195776
-1.06168
0.190549
-1.05741
0.185115
-1.05305
0.178787
-1.04948
0.171416
-1.0429
0.163602
-1.03502
-1.0241
0.156183
0.0429864
-0.214193
0.115871
-0.683748
0.162402
-1.03374
0.173452
-1.12508
0.174271
-1.12769
0.171169
-1.11701
0.167893
-1.10671
0.16401
-1.09867
0.159502
-1.08992
0.15461
-1.08098
0.148988
-1.07322
0.142792
-1.06643
0.136399
-1.06056
0.129699
-1.05498
0.122253
-1.04996
0.1143
-1.04509
0.10575
-1.04093
0.0966401
-1.03379
0.0870539
-1.02543
-1.01434
0.0772889
0.0372685
-0.251462
0.0952162
-0.741696
0.127066
-1.06559
0.131236
-1.12925
0.128963
-1.12541
0.124002
-1.11205
0.118736
-1.10144
0.112882
-1.09281
0.106125
-1.08316
0.0986475
-1.0735
0.0910187
-1.06559
0.0831533
-1.05857
0.0747336
-1.05214
0.0657507
-1.046
0.0563509
-1.04056
0.0466309
-1.03537
0.0364181
-1.03071
0.0257253
-1.0231
0.014866
-1.01457
-1.00367
0.00419394
0.0362509
-0.287713
0.0831534
-0.788598
0.102126
-1.08456
0.100584
-1.12771
0.0937079
-1.11854
0.0858441
-1.10419
0.0773572
-1.09295
0.0681126
-1.08357
0.0585309
-1.07358
0.0487222
-1.06369
0.0384552
-1.05533
0.0277256
-1.04784
0.0167929
-1.04121
0.00555606
-1.03476
-0.00619859
-1.02881
-0.018399
-1.02317
-0.0309616
-1.01815
-0.043644
-1.01042
-0.0562316
-1.00198
-0.990866
-0.0690312
0.0315355
-0.319248
0.0696193
-0.826682
0.0782688
-1.09321
0.070559
-1.12
0.0597744
-1.10775
0.0485631
-1.09298
0.0367576
-1.08115
0.0248569
-1.07167
0.0125874
-1.06131
-5.14237e-05
-1.05106
-0.0128299
-1.04255
-0.0256981
-1.03497
-0.0389046
-1.028
-0.0524229
-1.02125
-0.0663186
-1.01491
-0.0804979
-1.00899
-0.0948178
-1.00383
-0.109109
-0.996128
-0.123404
-0.987688
-0.976671
-0.137599
0.0257601
-0.345008
0.0529603
-0.853882
0.0529601
-1.09321
0.04127
-1.10831
0.0278236
-1.09431
0.0142669
-1.07942
0.00021176
-1.06709
-0.014526
-1.05693
-0.029509
-1.04633
-0.0446402
-1.03592
-0.0599678
-1.02722
-0.0755499
-1.01939
-0.0912628
-1.01229
-0.107242
-1.00527
-0.123412
-0.998742
-0.139787
-0.992619
-0.15624
-0.987378
-0.17227
-0.980097
-0.18785
-0.972108
-0.961071
-0.203449
0.0218023
-0.366811
0.0405747
-0.872655
0.0339932
-1.08663
0.0188842
-1.0932
0.00217542
-1.0776
-0.0147112
-1.06253
-0.0324063
-1.0494
-0.0502164
-1.03912
-0.0681576
-1.02839
-0.0863011
-1.01778
-0.104589
-1.00893
-0.122885
-1.00109
-0.141292
-0.993879
-0.159721
-0.986837
-0.178342
-0.980121
-0.197105
-0.973857
-0.215815
-0.968668
-0.234376
-0.961537
-0.252546
-0.953938
-0.943095
-0.270522
0.017641
-0.384452
0.0292165
-0.88423
0.0161198
-1.07353
-0.00360587
-1.07347
-0.0233238
-1.05788
-0.0432304
-1.04263
-0.0633717
-1.02926
-0.0840875
-1.0184
-0.104798
-1.00768
-0.125528
-0.99705
-0.146329
-0.988131
-0.167144
-0.980275
-0.187975
-0.973048
-0.208869
-0.965943
-0.229573
-0.959417
-0.250319
-0.95311
-0.271016
-0.947971
-0.29112
-0.941432
-0.310572
-0.934486
-0.92389
-0.329777
0.0138836
-0.398335
0.0182541
-0.888601
0.000359995
-1.05564
-0.0221079
-1.051
-0.045007
-1.03498
-0.0678399
-1.01979
-0.0909321
-1.00617
-0.114273
-0.995061
-0.137793
-0.984156
-0.161355
-0.973488
-0.185014
-0.964472
-0.208733
-0.956556
-0.232444
-0.949337
-0.25618
-0.942206
-0.27996
-0.935637
-0.30358
-0.92949
-0.327128
-0.924423
-0.350327
-0.918234
-0.37258
-0.912233
-0.902185
-0.394285
0.0105087
-0.408844
0.00982207
-0.887914
-0.0133286
-1.03248
-0.0395354
-1.0248
-0.0650401
-1.00948
-0.0905943
-0.99424
-0.116468
-0.980292
-0.142685
-0.968844
-0.168841
-0.958
-0.195116
-0.947213
-0.22138
-0.938208
-0.247484
-0.930451
-0.273568
-0.923253
-0.299702
-0.916072
-0.325851
-0.909488
-0.352092
-0.903248
-0.377999
-0.898516
-0.403254
-0.892979
-0.427789
-0.887698
-0.878731
-0.451243
0.00728976
-0.416134
0.00152653
-0.882151
-0.0257088
-1.00525
-0.0550435
-0.995462
-0.083939
-0.98058
-0.112383
-0.965796
-0.140459
-0.952216
-0.168866
-0.940436
-0.197445
-0.929421
-0.225945
-0.918713
-0.254641
-0.909512
-0.283355
-0.901737
-0.311982
-0.894626
-0.340539
-0.887515
-0.369062
-0.880966
-0.397711
-0.874599
-0.426621
-0.869607
-0.455044
-0.864556
-0.482037
-0.860705
-0.853034
-0.507733
0.00417491
-0.420308
-0.0062046
-0.871771
-0.0367743
-0.974679
-0.0694251
-0.962811
-0.100741
-0.949264
-0.131806
-0.934732
-0.162717
-0.921305
-0.193491
-0.909662
-0.224318
-0.898595
-0.255399
-0.887632
-0.286535
-0.878377
-0.317579
-0.870693
-0.348499
-0.863707
-0.379571
-0.856442
-0.410696
-0.849841
-0.441829
-0.843466
-0.472835
-0.838601
-0.504225
-0.833166
-0.53502
-0.82991
-0.824305
-0.56375
0.00129948
-0.421608
-0.0144859
-0.855986
-0.0483647
-0.940801
-0.0832277
-0.927948
-0.117191
-0.9153
-0.150523
-0.9014
-0.183359
-0.888469
-0.216301
-0.87672
-0.249071
-0.865824
-0.281864
-0.854839
-0.314955
-0.845285
-0.348178
-0.83747
-0.38119
-0.830694
-0.413882
-0.82375
-0.446542
-0.817181
-0.479979
-0.810029
-0.513732
-0.804848
-0.547376
-0.799523
-0.581911
-0.795375
-0.791433
-0.614782
-0.000592044
-0.421016
-0.0202597
-0.836318
-0.0560937
-0.904967
-0.0939585
-0.890083
-0.130928
-0.87833
-0.167199
-0.865129
-0.202885
-0.852783
-0.237854
-0.84175
-0.27264
-0.831039
-0.307445
-0.820034
-0.342654
-0.810076
-0.377997
-0.802128
-0.413389
-0.795301
-0.449085
-0.788054
-0.484446
-0.78182
-0.519516
-0.774958
-0.555376
-0.768988
-0.592527
-0.762372
-0.631649
-0.756253
-0.753151
-0.669931
-0.00285621
-0.0264882
-0.066192
-0.105978
-0.14481
-0.182725
-0.22014
-0.257328
-0.293673
-0.329596
-0.365737
-0.402594
-0.439337
-0.475877
-0.512903
-0.550706
-0.587585
-0.624036
-0.664626
-0.70929
0.498927
-9.13141
9.21953
0.435389
-8.73922
8.80276
0.392634
-8.8428
8.88555
0.350454
-8.69819
8.74037
0.31638
-8.73328
8.76735
0.28137
-8.58889
8.6239
0.252318
-8.65006
8.67911
0.224795
-8.60598
8.63351
0.196533
-8.65312
8.68138
0.174611
-8.62989
8.65181
0.152837
-8.6801
8.70188
0.132681
-8.64103
8.66118
0.115798
-8.71229
8.72917
0.0964877
-8.63283
8.65214
0.0835496
-8.72364
8.73658
0.0675499
-8.59735
8.61335
0.0629193
-8.58389
8.58852
0.0423266
-7.7273
7.74789
0.0214128
-5.56414
5.58506
-2.35886
2.38027
0.412708
-9.04857
0.356603
-8.68312
0.315854
-8.80205
0.276803
-8.65914
0.244167
-8.70064
0.211908
-8.55663
0.18636
-8.62451
0.162076
-8.5817
0.13767
-8.62871
0.120933
-8.61315
0.104208
-8.66338
0.0895202
-8.62634
0.0779974
-8.70077
0.0648157
-8.61964
0.0580291
-8.71685
0.0479999
-8.58732
0.0495559
-8.58545
0.0346901
-7.71244
0.0191466
-5.5486
-2.33971
0.327355
-8.9714
0.273153
-8.62891
0.234096
-8.76299
0.197735
-8.62278
0.170485
-8.67339
0.14423
-8.53037
0.125476
-8.60575
0.106796
-8.56302
0.0869297
-8.60884
0.0749306
-8.60115
0.0627227
-8.65117
0.0526911
-8.61631
0.0453931
-8.69347
0.037203
-8.61145
0.0345097
-8.71416
0.0289037
-8.58172
0.035827
-8.59237
0.0272316
-7.70384
0.0175733
-5.53894
-2.32214
0.246468
-8.89912
0.195891
-8.57834
0.158401
-8.7255
0.124896
-8.58927
0.0997167
-8.64821
0.0764595
-8.50712
0.0601436
-8.58944
0.0446114
-8.54749
0.0290906
-8.59332
0.0218562
-8.59392
0.0145535
-8.64387
0.00986109
-8.61162
0.00776786
-8.69138
0.00532361
-8.60901
0.00873565
-8.71757
0.00978312
-8.58277
0.0224166
-8.60501
0.0194062
-7.70083
0.0151561
-5.53469
-2.30698
0.162468
-8.8258
0.11512
-8.53099
0.0796022
-8.68998
0.0482558
-8.55793
0.0276286
-8.62759
0.010289
-8.48978
-0.000102787
-8.57905
-0.00983838
-8.53775
-0.0202537
-8.58291
-0.0231872
-8.59098
-0.0264556
-8.6406
-0.0266965
-8.61137
-0.024701
-8.69337
-0.0223378
-8.61137
-0.0152691
-8.72464
-0.00937187
-8.58866
0.00858713
-8.62297
0.0116879
-7.70393
0.0133926
-5.5364
-2.29359
0.0873127
-8.75693
0.0400618
-8.48374
0.00363294
-8.65355
-0.0249915
-8.5293
-0.0437216
-8.60886
-0.0582081
-8.47529
-0.065567
-8.57169
-0.0711375
-8.53218
-0.0764946
-8.57755
-0.0750626
-8.59241
-0.0739943
-8.64167
-0.0690319
-8.61634
-0.0620656
-8.70034
-0.0540367
-8.6194
-0.0410366
-8.73764
-0.0287848
-8.60091
-0.00511401
-8.64664
0.00368333
-7.71273
0.010916
-5.54363
-2.28267
0.00387794
-8.68352
-0.0390249
-8.44084
-0.0713771
-8.6212
-0.0989494
-8.50173
-0.113254
-8.59455
-0.121572
-8.46697
-0.123337
-8.56992
-0.123845
-8.53167
-0.124143
-8.57725
-0.118737
-8.59782
-0.114386
-8.64602
-0.105183
-8.62554
-0.0938126
-8.71171
-0.0815594
-8.63165
-0.0649359
-8.75426
-0.0479256
-8.61792
-0.0191668
-8.67539
-0.0040165
-7.72788
0.00910605
-5.55675
-2.27357
-0.0689312
-8.61039
-0.113324
-8.39644
-0.146273
-8.58825
-0.17208
-8.47592
-0.184174
-8.58246
-0.189894
-8.46125
-0.187967
-8.57185
-0.183681
-8.53596
-0.178782
-8.58215
-0.169131
-8.60747
-0.160859
-8.65429
-0.146848
-8.63955
-0.130375
-8.72818
-0.112558
-8.64947
-0.089825
-8.77699
-0.0666383
-8.64111
-0.0328715
-8.70916
-0.0118657
-7.74888
0.0065245
-5.57514
-2.26704
-0.147265
-8.53216
-0.191783
-8.35192
-0.218849
-8.56118
-0.243373
-8.4514
-0.251984
-8.57385
-0.251098
-8.46214
-0.243207
-8.57974
-0.234503
-8.54466
-0.22504
-8.59161
-0.211464
-8.62105
-0.200029
-8.66573
-0.182071
-8.65751
-0.16137
-8.74888
-0.139233
-8.67161
-0.112261
-8.80397
-0.0847794
-8.66859
-0.0466731
-8.74727
-0.0194333
-7.77612
0.00443129
-5.59901
-2.26261
-0.217206
-8.45255
-0.262985
-8.30615
-0.292933
-8.53123
-0.315495
-8.42884
-0.320868
-8.56847
-0.317247
-8.46576
-0.305843
-8.59114
-0.292581
-8.55793
-0.278299
-8.6059
-0.260365
-8.63898
-0.244739
-8.68135
-0.222127
-8.68012
-0.19647
-8.77454
-0.168926
-8.69915
-0.135753
-8.83714
-0.10285
-8.7015
-0.0602843
-8.78983
-0.0270313
-7.80938
0.00168386
-5.62772
-2.26093
-0.29161
-8.36439
-0.338847
-8.25891
-0.362579
-8.5075
-0.383478
-8.40794
-0.385758
-8.56619
-0.37587
-8.47565
-0.359061
-8.60795
-0.341705
-8.57528
-0.323245
-8.62436
-0.301262
-8.66096
-0.282154
-8.70046
-0.255966
-8.70631
-0.226288
-8.80422
-0.194633
-8.73081
-0.157616
-8.87416
-0.121007
-8.7381
-0.0739959
-8.83684
-0.0344549
-7.84892
-0.000740768
-5.66144
-2.26167
-0.358901
-8.27601
-0.406897
-8.21091
-0.433349
-8.48105
-0.452373
-8.38891
-0.452121
-8.56645
-0.439846
-8.48792
-0.419542
-8.62826
-0.397901
-8.59692
-0.374828
-8.64743
-0.348309
-8.68748
-0.32464
-8.72413
-0.294115
-8.73683
-0.259895
-8.83844
-0.223393
-8.76731
-0.180974
-8.91658
-0.139298
-8.77978
-0.0874729
-8.88867
-0.0417176
-7.89467
-0.00319662
-5.69996
-2.26486
-0.430046
-8.17574
-0.480417
-8.16054
-0.501181
-8.46029
-0.516834
-8.37326
-0.512874
-8.57041
-0.495408
-8.50539
-0.470929
-8.65273
-0.445485
-8.62237
-0.418054
-8.67486
-0.387436
-8.7181
-0.360122
-8.75145
-0.326017
-8.77094
-0.288257
-8.8762
-0.248129
-8.80744
-0.202433
-8.96227
-0.157418
-8.8248
-0.101033
-8.94505
-0.0489328
-7.94677
-0.00538098
-5.74351
-2.27024
-0.492447
-8.07758
-0.543958
-8.10903
-0.565957
-8.43829
-0.580179
-8.35904
-0.575643
-8.57494
-0.556869
-8.52416
-0.529029
-8.68057
-0.499667
-8.65173
-0.467504
-8.70702
-0.432336
-8.75327
-0.400323
-8.78346
-0.361968
-8.80929
-0.320114
-8.91805
-0.27539
-8.85216
-0.224915
-9.01275
-0.175468
-8.87424
-0.11477
-9.00575
-0.0565158
-8.00503
-0.0072661
-5.79276
-2.27751
-0.561106
-7.96772
-0.61514
-8.055
-0.632024
-8.4214
-0.641221
-8.34984
-0.63209
-8.58407
-0.609165
-8.54709
-0.578226
-8.71151
-0.545392
-8.68456
-0.508951
-8.74346
-0.46996
-8.79226
-0.434126
-8.81929
-0.392139
-8.85128
-0.346894
-8.9633
-0.298858
-8.9002
-0.245347
-9.06626
-0.192958
-8.92663
-0.128409
-9.0703
-0.0639202
-8.06952
-0.00856877
-5.84811
-2.28608
-0.618969
-7.85648
-0.675759
-7.99821
-0.691953
-8.40521
-0.699595
-8.3422
-0.690959
-8.59271
-0.667659
-8.57039
-0.633646
-8.74553
-0.597152
-8.72106
-0.55636
-8.78426
-0.512936
-8.83568
-0.472075
-8.86015
-0.425975
-8.89738
-0.376989
-9.01228
-0.324665
-8.95252
-0.266921
-9.124
-0.210317
-8.98323
-0.141404
-9.13922
-0.0709903
-8.13993
-0.0100288
-5.90907
-2.29611
-0.681591
-7.73864
-0.742053
-7.93775
-0.755224
-8.39204
-0.756735
-8.34069
-0.742997
-8.60645
-0.716656
-8.59673
-0.680401
-8.78178
-0.640409
-8.76105
-0.595776
-8.82889
-0.548632
-8.88283
-0.503682
-8.9051
-0.454142
-8.94692
-0.402708
-9.06371
-0.347482
-9.00775
-0.286944
-9.18454
-0.227169
-9.04301
-0.154111
-9.21227
-0.0786539
-8.21539
-0.0118649
-5.97586
-2.30797
-0.73956
-7.61386
-0.803334
-7.87397
-0.813979
-8.38139
-0.812967
-8.3417
-0.798091
-8.62132
-0.771438
-8.62338
-0.732882
-8.82034
-0.689433
-8.8045
-0.641106
-8.87721
-0.589622
-8.93431
-0.539141
-8.95558
-0.485369
-9.00069
-0.430572
-9.11851
-0.371873
-9.06645
-0.307499
-9.24892
-0.243661
-9.10685
-0.166463
-9.28947
-0.0851318
-8.29672
-0.0122435
-6.04875
-2.32022
-0.789999
-7.49379
-0.860054
-7.80392
-0.869779
-8.37167
-0.867932
-8.34355
-0.848294
-8.64096
-0.819316
-8.65236
-0.778162
-8.86149
-0.731579
-8.85108
-0.679874
-8.92892
-0.624925
-8.98926
-0.570539
-9.00997
-0.513178
-9.05805
-0.454481
-9.17721
-0.393373
-9.12755
-0.326253
-9.31604
-0.25969
-9.17341
-0.178639
-9.37052
-0.0931332
-8.38222
-0.015074
-6.12681
-2.33529
-0.831091
-7.37199
-0.910242
-7.72477
-0.921909
-8.36
-0.916912
-8.34854
-0.895702
-8.66217
-0.866213
-8.68185
-0.825302
-8.9024
-0.775471
-8.90091
-0.720792
-8.9836
-0.66208
-9.04797
-0.60192
-9.07013
-0.540856
-9.11912
-0.479655
-9.23841
-0.415193
-9.19202
-0.345676
-9.38555
-0.274599
-9.24449
-0.190302
-9.45482
-0.0995809
-8.47295
-0.0143823
-6.21201
-2.34967
5.65618
-7.07007
-5.9581
5.21188
-7.28046
4.65261
-7.80073
4.22076
-7.9167
3.76941
-8.21082
3.38718
-8.29962
2.99475
-8.50997
2.65126
-8.55742
2.36039
-8.69272
2.07183
-8.75942
1.83081
-8.82911
1.61425
-8.90256
1.3578
-8.98197
1.17345
-9.00766
0.905975
-9.11808
0.75714
-9.09565
0.483395
-9.18107
0.318791
-8.30834
0.193387
-6.0866
-2.15629
2.94204
-7.09487
-2.91724
2.93821
-7.27663
2.75186
-7.61439
2.63171
-7.79655
2.44178
-8.0209
2.26688
-8.12471
2.04754
-8.29064
1.86781
-8.37769
1.68373
-8.50864
1.5064
-8.58209
1.3479
-8.67061
1.18346
-8.73811
1.01273
-8.81124
0.867385
-8.86231
0.691892
-8.94259
0.562609
-8.96637
0.345043
-8.96351
0.231041
-8.19434
-0.020162
-5.8354
-2.17645
1.76737
-7.25856
-1.60367
1.91024
-7.41951
1.9265
-7.63065
1.92227
-7.79231
1.8599
-7.95853
1.79769
-8.0625
1.68029
-8.17324
1.57321
-8.27061
1.42998
-8.36541
1.29334
-8.44544
1.14648
-8.52375
1.00379
-8.59543
0.858961
-8.6664
0.717849
-8.7212
0.562558
-8.7873
0.418563
-8.82237
0.278592
-8.82354
0.18836
-8.10411
0.043864
-5.6909
-2.13258
0.85075
-7.47507
-0.634241
1.02866
-7.59741
1.10605
-7.70804
1.13226
-7.81852
1.11478
-7.94105
1.09548
-8.04319
1.04963
-8.1274
0.988308
-8.20929
0.91734
-8.29444
0.84195
-8.37006
0.763095
-8.44489
0.678258
-8.51059
0.584826
-8.57297
0.48831
-8.62469
0.382925
-8.68191
0.296093
-8.73554
0.195482
-8.72293
0.141442
-8.05007
0.0917374
-5.6412
-2.04085
0.40338
-7.64407
-0.234385
0.532048
-7.72608
0.617678
-7.79367
0.695284
-7.89613
0.724462
-7.97023
0.729006
-8.04774
0.723449
-8.12184
0.693259
-8.1791
0.643721
-8.24491
0.585665
-8.312
0.513249
-8.37248
0.434147
-8.43149
0.346586
-8.48541
0.262213
-8.54031
0.186453
-8.60615
0.112596
-8.66168
0.0397503
-8.65008
0.033761
-8.04408
0.0512075
-5.65865
-1.98964
0.0296272
-7.79005
0.116354
0.148478
-7.84493
0.23804
-7.88324
0.298295
-7.95638
0.321005
-7.99294
0.320959
-8.04769
0.313926
-8.11481
0.299399
-8.16457
0.277246
-8.22275
0.246938
-8.28169
0.208904
-8.33444
0.16585
-8.38844
0.121422
-8.44098
0.0709629
-8.48986
0.00885671
-8.54404
-0.0458922
-8.60694
-0.101841
-8.59413
-0.0731469
-8.07277
0.02197
-5.75376
-1.96767
-0.15676
-7.88632
0.25303
-0.0826285
-7.91906
-0.021288
-7.94458
0.0181235
-7.99579
0.0551415
-8.02996
0.0723406
-8.06489
0.0775503
-8.12002
0.0734929
-8.16051
0.0604528
-8.20971
0.0342116
-8.25545
0.00205055
-8.30228
-0.0427609
-8.34363
-0.0910313
-8.39271
-0.143247
-8.43764
-0.194803
-8.49249
-0.243527
-8.55821
-0.272727
-8.56493
-0.213384
-8.13212
-0.0360198
-5.93113
-2.00369
-0.324646
-7.95756
0.395891
-0.265291
-7.97842
-0.211171
-7.9987
-0.179938
-8.02702
-0.151908
-8.05799
-0.138248
-8.07855
-0.142675
-8.11559
-0.151657
-8.15153
-0.174273
-8.1871
-0.200293
-8.22943
-0.233591
-8.26899
-0.270369
-8.30685
-0.31262
-8.35046
-0.354769
-8.39549
-0.399992
-8.44726
-0.444602
-8.5136
-0.470018
-8.53952
-0.39906
-8.20307
-0.127217
-6.20297
-2.1309
-0.412862
-8.00181
0.457108
-0.376812
-8.01447
-0.346628
-8.02888
-0.328961
-8.04469
-0.317993
-8.06896
-0.30871
-8.08783
-0.30997
-8.11433
-0.319637
-8.14186
-0.333691
-8.17304
-0.359362
-8.20376
-0.390606
-8.23774
-0.431043
-8.26641
-0.477295
-8.30421
-0.534979
-8.33781
-0.605925
-8.37632
-0.673059
-8.44647
-0.72204
-8.49053
-0.656167
-8.26895
-0.295815
-6.56332
-2.42672
-0.47186
-8.03113
0.501182
-0.446188
-8.04014
-0.424352
-8.05072
-0.410853
-8.05819
-0.403595
-8.07621
-0.404127
-8.0873
-0.408272
-8.11018
-0.424085
-8.12605
-0.448781
-8.14835
-0.485013
-8.16753
-0.528422
-8.19433
-0.575949
-8.21888
-0.636453
-8.2437
-0.698499
-8.27576
-0.774409
-8.30041
-0.857479
-8.3634
-0.930076
-8.41794
-0.891096
-8.30793
-0.48989
-6.96453
-2.91661
-0.498157
-8.04415
0.511172
-0.489675
-8.04862
-0.48376
-8.05663
-0.482745
-8.05921
-0.485437
-8.07352
-0.49414
-8.0786
-0.511957
-8.09237
-0.530701
-8.10731
-0.55534
-8.12371
-0.586579
-8.13629
-0.62705
-8.15386
-0.672481
-8.17345
-0.729543
-8.18664
-0.796663
-8.20864
-0.874876
-8.2222
-0.971519
-8.26675
-1.06606
-8.32339
-1.06772
-8.30627
-0.727333
-7.30491
-3.64394
-0.511347
-8.05039
0.517593
-0.50943
-8.05054
-0.509335
-8.05673
-0.510385
-8.05816
-0.517598
-8.06631
-0.525362
-8.07084
-0.539397
-8.07833
-0.560633
-8.08607
-0.588394
-8.09595
-0.621644
-8.10304
-0.662983
-8.11252
-0.713868
-8.12257
-0.771929
-8.12858
-0.842923
-8.13765
-0.922444
-8.14268
-1.02582
-8.16338
-1.15532
-8.19389
-1.23038
-8.23121
-0.985948
-7.54935
-4.62989
-0.507702
-8.05032
0.507629
-0.510032
-8.04821
-0.514204
-8.05255
-0.519947
-8.05241
-0.53109
-8.05517
-0.544924
-8.057
-0.560625
-8.06263
-0.581308
-8.06539
-0.605582
-8.07167
-0.632565
-8.07605
-0.6637
-8.08139
-0.704218
-8.08205
-0.746583
-8.08622
-0.800678
-8.08355
-0.865486
-8.07787
-0.962007
-8.06686
-1.07612
-8.07978
-1.16099
-8.14634
-0.97
-7.74033
-5.59989
-0.475198
-8.04449
0.469371
-0.480845
-8.04256
-0.488448
-8.04495
-0.49481
-8.04605
-0.500643
-8.04933
-0.508741
-8.0489
-0.518422
-8.05295
-0.531046
-8.05276
-0.545172
-8.05755
-0.567732
-8.05349
-0.589935
-8.05919
-0.623053
-8.04893
-0.653027
-8.05624
-0.695896
-8.04068
-0.735694
-8.03807
-0.802107
-8.00044
-0.874757
-8.00713
-0.957983
-8.06312
-0.832108
-7.86621
-6.432
-0.421132
-8.03905
0.415692
-0.425466
-8.03823
-0.432473
-8.03794
-0.441249
-8.03727
-0.450547
-8.04004
-0.459716
-8.03973
-0.469454
-8.04321
-0.480787
-8.04143
-0.493001
-8.04533
-0.506874
-8.03962
-0.521422
-8.04464
-0.53658
-8.03377
-0.554486
-8.03834
-0.572855
-8.02231
-0.59104
-8.01989
-0.607222
-7.98426
-0.624388
-7.98997
-0.691346
-7.99616
-0.64737
-7.91018
-7.07937
-0.346926
-8.03378
0.341659
-0.3514
-8.03376
-0.354877
-8.03447
-0.358373
-8.03378
-0.363645
-8.03476
-0.36949
-8.03389
-0.377286
-8.03542
-0.385171
-8.03355
-0.395236
-8.03527
-0.403332
-8.03153
-0.414156
-8.03381
-0.420848
-8.02708
-0.432004
-8.02718
-0.439623
-8.01469
-0.444211
-8.0153
-0.429908
-7.99857
-0.408089
-8.01178
-0.411251
-7.993
-0.381355
-7.94008
-7.46072
-0.264653
-8.02821
0.259075
-0.270828
-8.02758
-0.277169
-8.02813
-0.282606
-8.02834
-0.288342
-8.02903
-0.294009
-8.02822
-0.300245
-8.02918
-0.306606
-8.02719
-0.3132
-8.02867
-0.319713
-8.02501