/*--------------------------------*- C++ -*----------------------------------*\
  =========                 |
  \\      /  F ield         | OpenFOAM: The Open Source CFD Toolbox
   \\    /   O peration     | Website:  https://openfoam.org
    \\  /    A nd           | Version:  9
     \\/     M anipulation  |
\*---------------------------------------------------------------------------*/
FoamFile
{
    format      ascii;
    class       volVectorField;
    location    "10";
    object      U;
}
// * * * * * * * * * * * * * * * * * * * * * * * * * * * * * * * * * * * * * //

dimensions      [0 1 -1 0 0 0 0];

internalField   nonuniform List<vector> 
46400
(
(7.52372 -7.1544 4.18762e-19)
(14.2935 -13.9963 -5.19762e-19)
(14.7997 -15.07 -3.15255e-20)
(14.1637 -15.2223 -1.66794e-19)
(13.6818 -15.32 -2.395e-20)
(13.1538 -15.4526 9.34363e-19)
(12.6643 -15.5505 -5.40914e-19)
(12.2026 -15.6413 1.49094e-19)
(11.7767 -15.7642 -1.50096e-19)
(11.354 -15.8242 1.507e-19)
(10.9512 -15.9097 -1.50953e-19)
(10.5692 -15.9619 0)
(10.2278 -16.0683 1.00191e-18)
(9.93378 -16.192 -1.13449e-18)
(9.61805 -16.2953 -1.29752e-18)
(9.2882 -16.3074 -1.62658e-19)
(9.00871 -16.4321 -1.33235e-20)
(8.77533 -16.5423 9.76483e-19)
(8.47268 -16.4469 1.25542e-18)
(8.05942 -16.5713 -1.15519e-18)
(7.70384 -6.72769 0)
(14.2338 -12.9392 -2.1886e-20)
(14.6293 -13.9197 0)
(13.9173 -14.0424 7.52915e-19)
(13.4266 -14.1918 -6.02456e-19)
(12.8885 -14.3298 1.45528e-19)
(12.4021 -14.4688 0)
(11.9526 -14.6139 -1.49085e-19)
(11.5079 -14.7533 1.50086e-19)
(11.1064 -14.8819 -1.50691e-19)
(10.6816 -14.9795 1.43404e-18)
(10.3275 -15.0988 1.65206e-20)
(9.9746 -15.2241 -1.10791e-18)
(9.61747 -15.2835 0)
(9.33543 -15.4644 1.49563e-19)
(9.0497 -15.5727 1.48848e-19)
(8.72796 -15.6322 0)
(8.52461 -15.8122 -1.24037e-18)
(8.346 -15.9817 -3.03536e-19)
(7.99528 -16.1593 1.2565e-18)
(7.94626 -6.29562 4.61246e-19)
(14.0287 -11.7484 -6.64276e-19)
(14.2458 -12.5935 6.61795e-19)
(13.5934 -12.7943 7.02745e-19)
(13.1008 -12.9972 -6.89941e-19)
(12.5963 -13.2153 0)
(12.0976 -13.3941 -1.61427e-18)
(11.6414 -13.5539 1.40312e-18)
(11.2277 -13.7664 -1.60798e-18)
(10.828 -13.916 1.58318e-18)
(10.4435 -14.0864 1.40738e-18)
(10.0623 -14.1915 -1.68981e-19)
(9.75906 -14.3791 -1.1952e-18)
(9.44965 -14.5042 0)
(9.12843 -14.6127 1.36023e-18)
(8.86834 -14.7751 -1.33957e-18)
(8.5633 -14.8625 0)
(8.2687 -14.8837 -1.12866e-20)
(8.0546 -15.0415 1.55444e-19)
(7.75782 -15.3225 -1.34431e-18)
(8.2332 -5.95738 -5.60781e-19)
(13.735 -10.6066 1.74464e-19)
(13.8781 -11.4443 7.827e-19)
(13.1626 -11.6194 -7.72083e-19)
(12.6238 -11.8543 -5.86336e-19)
(12.1142 -12.0676 7.78928e-19)
(11.6348 -12.332 9.76415e-19)
(11.2 -12.5313 -2.34772e-18)
(10.7587 -12.7585 1.93259e-18)
(10.3916 -12.9782 -1.84334e-19)
(9.99312 -13.1791 0)
(9.64962 -13.3723 1.81488e-19)
(9.31054 -13.5726 -1.79814e-19)
(8.99656 -13.7263 0)
(8.69947 -13.9057 1.46316e-18)
(8.44299 -14.0786 -1.25462e-18)
(8.21146 -14.3152 0)
(7.96807 -14.4396 1.70039e-19)
(7.72937 -14.5383 1.76836e-19)
(7.4331 -14.8353 1.43576e-18)
(8.5437 -5.59897 0)
(13.251 -9.47409 0)
(13.1977 -10.1455 -8.77854e-19)
(12.5927 -10.4349 6.34042e-19)
(12.1036 -10.7513 -1.08106e-18)
(11.6254 -11.01 8.58671e-19)
(11.1497 -11.2771 0)
(10.7343 -11.5207 8.54001e-19)
(10.3287 -11.7796 -1.04192e-18)
(9.95531 -11.9992 -2.15957e-19)
(9.60073 -12.2404 -2.13124e-19)
(9.22823 -12.4072 0)
(8.96696 -12.7001 1.60626e-18)
(8.68497 -12.9087 -1.58118e-18)
(8.36386 -13.0558 0)
(8.07318 -13.1928 -1.72441e-18)
(7.80583 -13.3586 1.51509e-18)
(7.58757 -13.5626 1.49313e-18)
(7.36559 -13.6833 -1.64298e-18)
(7.06152 -13.9932 0)
(8.79881 -5.27128 0)
(12.688 -8.46401 0)
(12.5311 -9.09797 0)
(11.9266 -9.35106 -2.04249e-20)
(11.3995 -9.70552 0)
(10.9659 -9.98759 0)
(10.5061 -10.3272 0)
(10.1119 -10.5789 -2.37431e-19)
(9.71131 -10.8815 0)
(9.38046 -11.1488 2.15957e-19)
(9.03807 -11.4215 -1.39112e-20)
(8.6852 -11.6087 -1.96045e-18)
(8.35414 -11.8378 1.48953e-18)
(8.14669 -12.1575 -1.89818e-18)
(7.91297 -12.4481 1.44366e-18)
(7.66273 -12.665 0)
(7.39364 -12.8555 -1.60033e-18)
(7.16335 -13.0336 1.37486e-18)
(6.95575 -13.1953 0)
(6.66055 -13.4691 -2.07858e-19)
(8.87049 -4.99004 9.4692e-19)
(11.9001 -7.39206 2.72485e-19)
(11.6164 -8.05831 1.04962e-18)
(11.1683 -8.40244 -1.04971e-18)
(10.697 -8.79635 -1.02526e-18)
(10.2743 -9.08347 2.0183e-18)
(9.85467 -9.41847 -2.24709e-18)
(9.49265 -9.72566 2.35357e-19)
(9.11064 -10.0109 7.16422e-19)
(8.78067 -10.3044 0)
(8.50311 -10.6347 -1.30256e-20)
(8.17167 -10.8482 -1.23866e-20)
(7.84603 -11.0501 2.19818e-19)
(7.53798 -11.2257 1.76273e-18)
(7.30047 -11.4836 -1.53394e-18)
(7.09459 -11.7424 -1.93087e-18)
(6.87828 -11.9938 1.68615e-18)
(6.67039 -12.2135 -9.31518e-21)
(6.48519 -12.4154 -2.07375e-19)
(6.23712 -12.731 -1.49433e-18)
(8.66333 -4.54207 -2.66583e-19)
(11.0167 -6.48417 1.92092e-20)
(10.6921 -7.11303 -2.89607e-19)
(10.283 -7.50575 -1.12884e-18)
(9.83401 -7.96366 8.1019e-19)
(9.47396 -8.31456 0)
(9.03309 -8.66185 1.58718e-18)
(8.70087 -8.97147 -7.73713e-19)
(8.34503 -9.29793 5.10484e-19)
(8.00712 -9.54621 2.57028e-19)
(7.76555 -9.93743 -4.92234e-19)
(7.52729 -10.2638 1.20435e-18)
(7.26419 -10.5694 2.42592e-19)
(7.03961 -10.846 -1.39372e-18)
(6.76982 -11.0689 3.88699e-18)
(6.54147 -11.2978 -1.57651e-18)
(6.31614 -11.53 1.97829e-18)
(6.118 -11.7462 -1.29712e-18)
(5.92784 -11.9414 4.23074e-19)
(5.69925 -12.2352 2.00123e-18)
(8.2853 -4.02631 1.3787e-18)
(10.051 -5.52714 -2.91955e-19)
(9.73823 -6.21007 -1.67443e-20)
(9.38433 -6.62889 5.86791e-19)
(8.98518 -7.13056 2.8103e-19)
(8.66514 -7.5275 2.90769e-19)
(8.30912 -7.95239 -1.38531e-18)
(7.99171 -8.31232 8.27714e-19)
(7.68225 -8.6819 -2.6195e-19)
(7.31593 -8.91115 -2.57071e-19)
(6.98972 -9.1727 -2.52224e-19)
(6.73834 -9.46392 -2.57949e-19)
(6.46953 -9.75428 -4.95263e-19)
(6.251 -10.0402 1.70141e-18)
(6.06684 -10.3605 -2.385e-18)
(5.86884 -10.615 -2.37401e-19)
(5.68391 -10.8957 8.30843e-21)
(5.50133 -11.1272 -1.781e-18)
(5.34489 -11.365 1.32377e-18)
(5.13596 -11.6516 -2.07154e-18)
(7.72257 -3.47423 1.1891e-18)
(8.95934 -4.66476 -2.86816e-18)
(8.59698 -5.29365 1.88394e-18)
(8.3383 -5.79942 -3.01341e-19)
(7.94863 -6.30971 -3.0963e-19)
(7.66282 -6.76728 1.20302e-18)
(7.27993 -7.15916 -1.46682e-18)
(7.00408 -7.57658 0)
(6.8015 -8.06698 1.1187e-18)
(6.57693 -8.46616 -1.10012e-18)
(6.32657 -8.83071 -7.98553e-19)
(6.06947 -9.11763 1.04508e-18)
(5.84071 -9.4337 2.52679e-19)
(5.61511 -9.69414 -1.00502e-18)
(5.40126 -9.97661 2.48256e-19)
(5.22775 -10.2489 1.2061e-18)
(5.03889 -10.5121 -2.11742e-18)
(4.88039 -10.7611 1.39427e-18)
(4.72628 -10.9976 -6.85854e-21)
(4.55289 -11.2926 -1.90535e-18)
(7.07297 -2.92099 1.57318e-18)
(8.02566 -3.85142 -1.00031e-18)
(7.68838 -4.47967 6.55366e-19)
(7.41288 -4.96649 -2.89935e-22)
(7.06619 -5.50917 -1.27486e-18)
(6.86471 -6.01664 -1.22436e-18)
(6.5667 -6.49085 1.5118e-18)
(6.1695 -6.75314 -8.83026e-19)
(5.89422 -7.18697 1.16451e-18)
(5.63847 -7.54828 0)
(5.43512 -7.98508 8.84451e-21)
(5.23638 -8.35117 2.67573e-19)
(5.00783 -8.70743 2.69893e-19)
(4.82558 -9.04688 -2.63898e-19)
(4.63714 -9.3718 0)
(4.46926 -9.67487 2.52348e-19)
(4.31554 -9.98932 0)
(4.14938 -10.2485 4.76356e-19)
(4.0219 -10.523 2.32574e-18)
(3.85258 -10.826 -1.62034e-20)
(6.29005 -2.40853 8.30622e-19)
(6.82922 -3.17284 -1.74104e-19)
(6.35541 -3.78051 -2.39309e-18)
(6.14054 -4.30558 1.3382e-18)
(5.79047 -4.84361 3.2155e-19)
(5.56932 -5.38548 -3.14875e-19)
(5.46489 -6.04958 -1.25099e-18)
(5.22116 -6.50117 9.27966e-19)
(4.96009 -6.91149 0)
(4.74946 -7.30289 0)
(4.52549 -7.66863 -1.42406e-18)
(4.36376 -8.04174 1.1233e-18)
(4.18168 -8.38369 -2.69931e-19)
(4.01337 -8.703 -8.01673e-19)
(3.86148 -9.03208 7.6409e-21)
(3.71312 -9.32221 1.79136e-18)
(3.59073 -9.64346 -1.00281e-18)
(3.46759 -9.91933 7.31889e-19)
(3.35017 -10.1916 -1.19524e-18)
(3.23628 -10.5089 0)
(5.4213 -1.97232 -7.02241e-19)
(5.81793 -2.67359 1.07057e-18)
(5.403 -3.31183 1.77707e-19)
(5.20472 -3.84243 1.73928e-19)
(4.8257 -4.33172 0)
(4.48715 -4.70401 1.31264e-18)
(4.2927 -5.24391 -1.28936e-18)
(4.18089 -5.75175 1.58889e-19)
(4.00108 -6.25396 0)
(3.80446 -6.66773 1.19786e-18)
(3.64926 -7.11142 -1.03005e-18)
(3.48726 -7.49832 1.14316e-18)
(3.34303 -7.89845 -1.125e-18)
(3.1806 -8.23726 1.09088e-18)
(3.04543 -8.59731 -9.39213e-19)
(2.89679 -8.90307 -1.04122e-18)
(2.77295 -9.22979 2.04305e-18)
(2.65546 -9.52717 -8.76612e-19)
(2.54611 -9.80694 1.22983e-19)
(2.43108 -10.139 1.02716e-18)
(4.01924 -1.49804 -5.55998e-19)
(4.23965 -2.31862 5.54235e-19)
(3.7802 -2.92742 -1.77661e-19)
(3.73873 -3.61447 -1.73873e-19)
(3.61762 -4.27469 0)
(3.38898 -4.68874 0)
(3.20428 -5.18578 0)
(3.0104 -5.58181 -3.20823e-19)
(2.88004 -6.05895 -1.25017e-18)
(2.76466 -6.46489 2.44986e-18)
(2.59768 -6.8796 -1.34867e-18)
(2.50326 -7.25804 -1.47132e-19)
(2.3938 -7.66429 0)
(2.28681 -7.99992 0)
(2.191 -8.36865 -2.71835e-19)
(2.09692 -8.68016 0)
(1.99537 -9.00707 1.03378e-18)
(1.91722 -9.29899 -1.27196e-18)
(1.82667 -9.58228 -1.10991e-18)
(1.7414 -9.89243 1.05413e-18)
(2.48011 -1.01257 5.63628e-19)
(3.14582 -1.84269 9.30097e-19)
(2.75989 -2.50869 -2.02909e-21)
(2.59822 -2.84906 -2.6458e-21)
(2.56236 -3.60736 1.73012e-19)
(2.43904 -4.05456 -5.1365e-19)
(2.2572 -4.65257 0)
(2.17051 -5.07996 -4.88699e-19)
(1.98732 -5.5899 1.64524e-19)
(1.85591 -5.98557 6.24522e-19)
(1.74977 -6.46672 6.05178e-19)
(1.59919 -6.82431 -4.48268e-19)
(1.52364 -7.26871 1.15316e-18)
(1.41525 -7.62158 -9.93244e-19)
(1.3254 -8.01199 1.23589e-18)
(1.24114 -8.34732 -2.2904e-18)
(1.15828 -8.70205 1.0569e-18)
(1.08297 -9.00844 1.27623e-19)
(1.01833 -9.31872 9.99371e-19)
(0.94215 -9.63767 -1.06821e-18)
(0.922617 -0.454438 1.49675e-19)
(1.46161 -1.27841 -1.59052e-19)
(1.58329 -2.18053 7.40372e-19)
(1.46671 -2.64809 -7.26966e-19)
(1.17228 -3.33417 -3.53805e-19)
(1.12487 -3.85436 -8.62011e-19)
(0.972532 -4.47251 4.46264e-21)
(0.912262 -4.93961 6.61837e-19)
(0.79652 -5.50144 -1.60132e-19)
(0.746535 -5.89233 0)
(0.62159 -6.38895 0)
(0.588772 -6.74738 0)
(0.487784 -7.18732 0)
(0.455353 -7.53147 1.01092e-21)
(0.391679 -7.93094 0)
(0.346628 -8.25156 1.35221e-19)
(0.301957 -8.61359 5.27832e-19)
(0.257277 -8.91458 -1.55127e-18)
(0.220602 -9.22218 1.143e-18)
(0.17376 -9.53327 -1.06703e-18)
(0.140761 -0.208846 0)
(0.142212 -0.779811 -9.52683e-20)
(0.134049 -1.63701 0)
(0.145593 -2.30434 2.7266e-19)
(-0.00998793 -2.96287 -1.79539e-19)
(-0.0301755 -3.48593 -6.94401e-19)
(-0.130327 -4.09248 4.28594e-21)
(-0.171777 -4.56392 6.66185e-19)
(-0.2052 -5.14216 -6.45566e-19)
(-0.267584 -5.59105 1.26465e-18)
(-0.313404 -6.10924 -5.02822e-21)
(-0.375837 -6.51373 -6.04591e-19)
(-0.437413 -6.97452 5.84941e-19)
(-0.468785 -7.33812 -7.18663e-19)
(-0.53171 -7.75264 0)
(-0.534595 -8.08321 -5.43639e-19)
(-0.591029 -8.45943 5.35516e-19)
(-0.583997 -8.76148 0)
(-0.62046 -9.08728 -1.26815e-19)
(-0.617173 -9.40484 0)
(-0.944778 -0.31118 0)
(-1.45618 -0.938791 9.52402e-20)
(-1.43739 -1.60633 0)
(-1.3685 -2.28505 3.64203e-19)
(-1.3097 -2.91355 -4.46211e-19)
(-1.33706 -3.52539 2.60196e-19)
(-1.3704 -4.11289 -7.64415e-19)
(-1.41281 -4.63391 3.32843e-19)
(-1.50044 -5.17868 -8.07766e-20)
(-1.47634 -5.62658 0)
(-1.51659 -6.12118 -7.69121e-20)
(-1.48122 -6.52264 -7.50468e-20)
(-1.48581 -6.9642 -7.32278e-20)
(-1.46639 -7.33363 0)
(-1.44933 -7.73031 -5.56327e-19)
(-1.44693 -8.07365 1.15896e-18)
(-1.42416 -8.4372 -9.98555e-19)
(-1.43109 -8.75777 5.22301e-19)
(-1.41401 -9.07437 6.33893e-20)
(-1.42424 -9.40036 5.36021e-19)
(-2.64066 -0.13342 -1.442e-19)
(-2.65336 -0.942459 -1.88879e-19)
(-2.53781 -1.5166 4.0413e-22)
(-2.57052 -2.27822 4.98444e-19)
(-2.66743 -2.88971 -1.32832e-19)
(-2.6648 -3.51264 -8.59215e-20)
(-2.6387 -4.08894 8.58419e-20)
(-2.64307 -4.62388 1.65778e-19)
(-2.53384 -5.11607 8.07814e-20)
(-2.51295 -5.59847 -3.13546e-19)
(-2.47681 -6.05172 3.47126e-19)
(-2.43824 -6.49077 7.50442e-20)
(-2.45507 -6.9117 3.6442e-19)
(-2.39604 -7.31155 -2.50322e-21)
(-2.42923 -7.70645 3.21574e-20)
(-2.36201 -8.06822 -6.11729e-19)
(-2.38759 -8.44174 1.67107e-19)
(-2.32495 -8.76958 0)
(-2.32374 -9.09751 -3.18933e-20)
(-2.26979 -9.42755 -2.67075e-19)
(-3.84833 -0.170074 4.68212e-20)
(-4.17292 -0.899155 -9.33456e-20)
(-4.2582 -1.62874 1.83051e-19)
(-4.23731 -2.27166 -4.53812e-20)
(-3.96501 -2.94336 -4.37152e-20)
(-3.91901 -3.53388 0)
(-3.80655 -4.11609 -8.33447e-20)
(-3.68606 -4.67047 1.63266e-19)
(-3.68418 -5.18384 -7.99784e-20)
(-3.62093 -5.71916 7.74941e-20)
(-3.58799 -6.16706 -3.80459e-20)
(-3.52298 -6.64824 -7.37978e-20)
(-3.46202 -7.06093 1.44647e-19)
(-3.41809 -7.48068 -1.41188e-19)
(-3.33921 -7.85925 3.4576e-20)
(-3.30974 -8.22619 2.37523e-34)
(-3.23117 -8.5816 -3.23987e-20)
(-3.19094 -8.89934 1.92233e-19)
(-3.1202 -9.215 -9.50297e-20)
(-3.07443 -9.53232 -6.68841e-20)
(-0.231504 -0.587181 0)
(0.254705 -2.77285 1.3758e-20)
(1.3475 -8.61829 0)
(4.19293 -17.9105 1.07564e-20)
(5.58296 -23.7156 1.1997e-20)
(6.29641 -26.2483 1.10861e-20)
(6.49071 -26.964 0)
(6.52788 -27.0933 9.32987e-21)
(6.50058 -27.065 0)
(6.45614 -26.9607 0)
(6.37537 -26.79 -7.79512e-21)
(6.34568 -26.7118 9.41781e-22)
(6.27586 -26.6353 1.41631e-20)
(6.22778 -26.5094 0)
(6.14561 -26.4422 5.52018e-21)
(6.11317 -26.3742 4.93422e-21)
(6.05816 -26.3856 4.35199e-21)
(6.03573 -26.3366 0)
(5.94952 -26.3109 -7.38348e-21)
(5.9168 -26.1984 7.07572e-21)
(0.130094 -0.730496 0)
(0.697228 -4.33158 -4.28442e-21)
(2.83004 -12.8582 0)
(5.21592 -21.1186 -6.21602e-20)
(6.43428 -25.4215 5.95334e-20)
(6.77876 -26.7657 -9.96845e-20)
(6.86934 -27.0507 4.07706e-20)
(6.84654 -27.0272 2.58057e-20)
(6.79928 -26.941 -1.20904e-19)
(6.72429 -26.7716 6.77698e-20)
(6.66837 -26.6744 -7.7922e-21)
(6.60535 -26.5484 5.34856e-20)
(6.52655 -26.4464 -3.76488e-21)
(6.4897 -26.3724 -4.81029e-20)
(6.41502 -26.3517 -5.52048e-21)
(6.3916 -26.2782 -5.00754e-21)
(6.29224 -26.2336 -4.53895e-21)
(6.26487 -26.1637 0)
(6.16958 -26.1339 -2.55359e-20)
(6.11884 -25.9664 2.64217e-21)
(0.338985 -1.53107 -2.05665e-21)
(1.10082 -6.42118 0)
(4.11451 -16.2921 0)
(6.12163 -23.499 -2.46773e-20)
(6.96069 -26.3177 2.34714e-20)
(7.16895 -27.0012 0)
(7.15658 -27.003 -1.81532e-20)
(7.13608 -26.9378 5.08263e-20)
(7.06693 -26.7916 -5.23433e-20)
(7.01166 -26.6631 5.96505e-20)
(6.93539 -26.5007 -7.22686e-20)
(6.87972 -26.3865 0)
(6.81656 -26.3289 -4.46612e-20)
(6.76494 -26.2378 -3.65078e-20)
(6.67315 -26.1643 7.03343e-20)
(6.62184 -26.0539 -6.4206e-20)
(6.52839 -26.0514 5.63197e-20)
(6.5028 -25.9955 0)
(6.38206 -25.9338 -4.73888e-20)
(6.3001 -25.6674 7.66869e-20)
(0.229135 -2.15242 1.3994e-19)
(1.98172 -8.94008 0)
(5.23749 -19.3354 4.67981e-20)
(6.94652 -24.9789 7.10494e-20)
(7.45336 -26.7626 -1.39467e-19)
(7.56813 -26.9864 4.02672e-20)
(7.54161 -26.9473 1.87044e-20)
(7.47774 -26.7918 1.84789e-19)
(7.4127 -26.6489 -2.55901e-19)
(7.3349 -26.476 -1.83118e-20)
(7.26389 -26.353 1.22928e-19)
(7.19469 -26.2509 2.24046e-20)
(7.10689 -26.1284 -1.00237e-19)
(7.03392 -26.0164 9.66271e-20)
(6.94244 -25.9585 2.42963e-20)
(6.90393 -25.9039 -1.32845e-20)
(6.78994 -25.874 1.83083e-20)
(6.75589 -25.7575 0)
(6.58531 -25.6469 -2.79738e-21)
(6.51464 -25.3598 0)
(0.268135 -2.85281 0)
(3.07731 -11.5826 2.19127e-19)
(6.10993 -21.3782 -2.69398e-19)
(7.64488 -25.9718 2.40754e-19)
(7.95705 -26.9713 -1.87876e-19)
(7.97962 -26.9759 -4.05095e-20)
(7.92233 -26.8127 0)
(7.84732 -26.631 9.38638e-20)
(7.77303 -26.4841 -1.25994e-19)
(7.68866 -26.317 1.30599e-19)
(7.59618 -26.1565 -1.00963e-19)
(7.50579 -26.0072 -2.24038e-20)
(7.41736 -25.9159 9.06849e-20)
(7.34698 -25.8322 -1.48814e-19)
(7.24677 -25.7677 8.53604e-20)
(7.17263 -25.6513 -2.80758e-20)
(7.04719 -25.6069 -4.89732e-20)
(7.00036 -25.4988 9.77702e-20)
(6.81448 -25.3631 -5.20569e-20)
(6.74686 -25.0884 -3.93203e-20)
(0.705385 -3.7585 0)
(4.14052 -13.6931 1.98635e-19)
(7.18444 -22.9902 -2.20646e-19)
(8.42576 -26.4818 -4.83536e-20)
(8.52548 -26.9369 4.37704e-20)
(8.50177 -26.8321 1.46834e-19)
(8.36938 -26.6036 -1.47582e-19)
(8.29213 -26.4502 0)
(8.17789 -26.2607 1.05526e-19)
(8.06381 -26.0701 -1.03758e-19)
(7.95703 -25.914 -8.10049e-20)
(7.85883 -25.8069 7.96929e-20)
(7.75646 -25.6877 0)
(7.64773 -25.5631 0)
(7.53427 -25.4658 9.72717e-20)
(7.45774 -25.4008 -9.3898e-20)
(7.3289 -25.3606 -5.36797e-20)
(7.25933 -25.2103 5.28749e-20)
(7.04703 -25.0462 -2.74716e-20)
(6.98385 -24.7731 3.18448e-20)
(1.06977 -4.6163 -8.95843e-20)
(5.26146 -15.4368 4.23279e-20)
(8.16952 -24.0573 1.75415e-20)
(9.07663 -26.581 2.47407e-19)
(9.09485 -26.7668 0)
(8.98911 -26.5619 0)
(8.84512 -26.3383 2.49347e-19)
(8.72916 -26.156 -2.70481e-20)
(8.60313 -25.9883 -2.14259e-19)
(8.47117 -25.7966 1.6292e-19)
(8.34578 -25.6482 -1.60237e-19)
(8.21619 -25.4894 0)
(8.0884 -25.3713 9.6296e-20)
(7.98123 -25.2767 -9.47852e-20)
(7.8593 -25.2097 0)
(7.75015 -25.0952 0)
(7.59927 -25.0175 0)
(7.50931 -24.8678 0)
(7.29268 -24.7283 0)
(7.21854 -24.4719 -1.16812e-21)
(1.62175 -5.68556 1.6736e-19)
(6.07662 -16.8718 -2.81003e-19)
(9.12501 -24.7937 0)
(9.70544 -26.5787 0)
(9.64945 -26.5384 3.31734e-19)
(9.49173 -26.2588 -1.2018e-21)
(9.32362 -26.0347 -2.84991e-19)
(9.19368 -25.8672 0)
(9.03265 -25.6598 2.01388e-20)
(8.87182 -25.4706 -1.6648e-20)
(8.7187 -25.2934 0)
(8.57858 -25.176 1.05857e-20)
(8.44745 -25.0624 -7.75009e-20)
(8.30228 -24.9388 1.24887e-19)
(8.15807 -24.8206 -1.63947e-20)
(8.03909 -24.7464 -3.31969e-20)
(7.89 -24.6935 4.82755e-22)
(7.78086 -24.5292 -2.23973e-21)
(7.53901 -24.3646 0)
(7.4578 -24.0907 -5.17122e-21)
(2.13321 -6.36481 9.80554e-20)
(7.14358 -17.8427 7.99578e-20)
(9.99063 -25.0245 -3.16925e-19)
(10.4394 -26.2548 7.9938e-20)
(10.2634 -26.1591 3.02039e-20)
(10.0652 -25.8523 2.57793e-19)
(9.8617 -25.6375 -3.48063e-19)
(9.68313 -25.4512 2.32632e-19)
(9.49095 -25.2664 -1.5327e-19)
(9.30002 -25.0608 1.72702e-19)
(9.13019 -24.9277 1.88329e-20)
(8.95793 -24.7766 6.19412e-20)
(8.78611 -24.6502 -4.26179e-20)
(8.63591 -24.5468 -2.94394e-20)
(8.48098 -24.4758 1.92887e-20)
(8.33127 -24.3651 0)
(8.15474 -24.2776 -9.03839e-21)
(8.02163 -24.1204 -9.70715e-21)
(7.77808 -23.9937 1.46888e-20)
(7.70216 -23.7431 -1.25197e-20)
(2.64508 -7.14734 -2.00205e-19)
(8.15321 -18.5184 2.06467e-19)
(10.8672 -25.0524 -9.37392e-21)
(11.1164 -25.876 -1.50934e-19)
(10.8503 -25.655 -1.26965e-19)
(10.6028 -25.3618 -5.80822e-20)
(10.3547 -25.1477 -9.57468e-21)
(10.1452 -24.9782 -3.99175e-20)
(9.92229 -24.7843 0)
(9.70426 -24.6154 -2.51472e-20)
(9.49678 -24.4416 -1.88317e-20)
(9.30567 -24.3279 -9.07343e-21)
(9.13342 -24.2284 -3.49088e-21)
(8.945 -24.1136 -7.7429e-21)
(8.7631 -23.9916 2.99119e-20)
(8.59834 -23.9169 -2.83631e-20)
(8.42827 -23.8649 -4.85533e-20)
(8.27611 -23.7147 6.8203e-20)
(8.01673 -23.5765 -1.46658e-20)
(7.92032 -23.2984 -1.63341e-19)
(3.23685 -7.70602 -4.65255e-19)
(9.1077 -19.0755 4.65627e-19)
(11.6315 -24.8034 -4.49183e-19)
(11.706 -25.2859 3.57826e-19)
(11.3954 -25.0832 2.54326e-19)
(11.1211 -24.7927 -1.9274e-19)
(10.838 -24.5847 -1.85759e-19)
(10.6019 -24.4254 3.0412e-20)
(10.3479 -24.2563 8.5123e-20)
(10.0943 -24.0646 -2.61052e-20)
(9.8762 -23.9546 3.87673e-20)
(9.65963 -23.8269 -1.18362e-20)
(9.44146 -23.711 1.01343e-21)
(9.24907 -23.6181 -4.36068e-20)
(9.05638 -23.5526 1.12998e-19)
(8.86867 -23.4547 -6.35916e-20)
(8.66965 -23.3802 0)
(8.50114 -23.2475 2.04075e-19)
(8.24377 -23.1445 -2.01021e-19)
(8.15925 -22.9016 2.10939e-19)
(3.74085 -8.07478 8.33642e-20)
(9.99739 -19.1302 1.04034e-19)
(12.3257 -24.3345 3.6287e-19)
(12.3545 -24.641 2.37432e-19)
(11.9447 -24.4004 -1.53496e-19)
(11.6438 -24.138 1.30974e-19)
(11.3173 -23.9488 -7.71e-20)
(11.0291 -23.7903 3.98036e-20)
(10.7463 -23.6233 -5.08186e-20)
(10.4699 -23.4874 6.25776e-21)
(10.2073 -23.3399 0)
(9.96508 -23.2477 0)
(9.74672 -23.1741 0)
(9.51372 -23.0766 1.79079e-19)
(9.29183 -22.9738 -1.76314e-19)
(9.08517 -22.9151 0)
(8.89652 -22.8797 0)
(8.70524 -22.7767 3.8064e-20)
(8.43764 -22.6807 0)
(8.31131 -22.4134 3.47413e-19)
(4.31707 -8.38682 -1.43914e-19)
(10.8708 -19.195 -3.36857e-19)
(13.0144 -23.7244 -1.81449e-19)
(12.8629 -23.8467 -2.45612e-22)
(12.4376 -23.6427 1.66828e-19)
(12.0791 -23.3954 -6.07379e-20)
(11.7195 -23.1984 -3.30657e-20)
(11.4114 -23.0837 -1.04655e-20)
(11.1022 -22.951 0)
(10.7864 -22.7934 4.30127e-20)
(10.5171 -22.7156 -8.63115e-20)
(10.2562 -22.6247 0)
(9.99266 -22.5394 -2.36958e-19)
(9.7627 -22.4779 2.33244e-19)
(9.53312 -22.4345 -2.92159e-19)
(9.31123 -22.3612 5.59459e-19)
(9.09082 -22.3143 -3.10323e-19)
(8.88671 -22.2189 -3.8065e-20)
(8.62117 -22.1613 4.96965e-20)
(8.52103 -21.9348 -3.88006e-19)
(4.81504 -8.53251 -1.3726e-19)
(11.614 -18.8843 3.55021e-20)
(13.5357 -22.9262 4.84302e-20)
(13.3725 -22.9785 1.80717e-19)
(12.8811 -22.798 -2.12285e-20)
(12.4941 -22.5892 -1.90591e-20)
(12.1143 -22.4337 4.17902e-20)
(11.75 -22.3033 2.19796e-20)
(11.4154 -22.1812 -9.67911e-20)
(11.0875 -22.0909 1.695e-19)
(10.7745 -21.9838 -8.96374e-20)
(10.4895 -21.93 3.47413e-19)
(10.228 -21.8953 -2.53604e-19)
(9.9556 -21.8314 3.60587e-19)
(9.69639 -21.7742 -3.0265e-19)
(9.45318 -21.7461 -3.60155e-19)
(9.2455 -21.7384 3.97409e-19)
(9.01911 -21.7005 -3.76678e-19)
(8.75485 -21.6565 3.78831e-19)
(8.60666 -21.4158 5.30133e-19)
(5.31298 -8.60779 -1.22456e-19)
(12.3394 -18.5339 1.87386e-20)
(14.0479 -22.0636 8.65378e-20)
(13.757 -22.0183 4.76576e-21)
(13.2605 -21.8675 -4.67953e-21)
(12.8201 -21.6928 -6.6752e-21)
(12.4089 -21.5351 0)
(12.0319 -21.4685 3.81747e-20)
(11.6731 -21.3775 -1.26554e-19)
(11.3036 -21.2695 4.67125e-19)
(10.9863 -21.2345 -3.42929e-19)
(10.683 -21.1854 -9.92737e-20)
(10.3784 -21.1437 -4.63156e-20)
(10.1119 -21.1196 0)
(9.84537 -21.1143 1.25855e-20)
(9.58874 -21.0887 -4.97285e-19)
(9.34201 -21.0777 -2.1858e-20)
(9.09755 -21.0413 -1.47013e-19)
(8.84388 -21.0508 5.13514e-19)
(8.72163 -20.866 -1.37951e-19)
(5.78009 -8.56821 4.20872e-20)
(12.9204 -17.9847 -2.78479e-20)
(14.3848 -21.0182 4.11226e-21)
(14.0839 -21.001 -8.29005e-20)
(13.5737 -20.9019 -3.72194e-20)
(13.0936 -20.7766 7.34298e-20)
(12.6671 -20.6555 -4.96467e-20)
(12.2432 -20.5697 -3.81715e-20)
(11.8613 -20.5028 0)
(11.4931 -20.4559 0)
(11.1354 -20.4005 5.01144e-19)
(10.8207 -20.3961 -8.91699e-19)
(10.5238 -20.4073 5.18331e-19)
(10.2189 -20.382 0)
(9.92443 -20.3661 1.32516e-20)
(9.65137 -20.3706 6.75568e-19)
(9.42619 -20.4128 -6.67938e-19)
(9.17318 -20.4475 7.00674e-20)
(8.91338 -20.4643 7.05961e-19)
(8.77064 -20.2889 -4.6978e-19)
(6.21286 -8.4279 4.6444e-20)
(13.4381 -17.3732 -6.90272e-20)
(14.727 -19.9483 0)
(14.2696 -19.9097 0)
(13.7742 -19.8232 -5.58987e-20)
(13.2602 -19.7563 2.68346e-19)
(12.8184 -19.6697 8.48422e-21)
(12.3894 -19.6471 -2.44342e-19)
(11.989 -19.6029 5.71783e-19)
(11.5812 -19.5517 -1.16335e-18)
(11.2238 -19.5583 5.9125e-19)
(10.885 -19.5577 -1.58247e-19)
(10.5502 -19.566 -7.53319e-19)
(10.2549 -19.5875 -1.15467e-19)
(9.95952 -19.628 4.98163e-19)
(9.67014 -19.6391 -7.97018e-20)
(9.39388 -19.6518 7.87338e-19)
(9.11358 -19.6954 -6.87637e-19)
(8.89266 -19.7887 1.16784e-20)
(8.75499 -19.6879 -7.2429e-19)
(6.61449 -8.21055 0)
(13.8238 -16.6332 -1.37732e-19)
(14.8867 -18.7618 1.15356e-19)
(14.3854 -18.7972 0)
(13.9185 -18.7798 5.58975e-20)
(13.379 -18.7536 -3.04192e-19)
(12.9187 -18.6964 3.67303e-19)
(12.4597 -18.6785 0)
(12.0396 -18.6645 -7.10688e-19)
(11.6371 -18.6571 6.9881e-19)
(11.2427 -18.6541 -1.00781e-19)
(10.9065 -18.6976 8.68193e-20)
(10.585 -18.7625 8.89106e-20)
(10.2533 -18.7735 9.06203e-20)
(9.93048 -18.8 8.92963e-19)
(9.64088 -18.8397 -1.59519e-18)
(9.39037 -18.9345 1.60316e-18)
(9.10075 -18.9927 -1.58808e-18)
(8.83871 -19.0767 6.95064e-19)
(8.71324 -19.0388 -9.82915e-20)
(6.97094 -7.90517 0)
(14.0941 -15.806 2.42438e-19)
(15.0061 -17.5604 -1.25795e-19)
(14.4151 -17.6138 -2.49314e-19)
(13.921 -17.6191 -2.96938e-20)
(13.3789 -17.6541 -2.62703e-20)
(12.9039 -17.6603 3.79141e-19)
(12.4482 -17.687 0)
(12.0175 -17.7125 0)
(11.5882 -17.7087 0)
(11.1961 -17.7564 1.00774e-19)
(10.8306 -17.8003 0)
(10.4786 -17.8666 1.02663e-18)
(10.17 -17.948 -8.92398e-19)
(9.85462 -18.0387 9.15929e-19)
(9.52708 -18.0599 -1.8196e-18)
(9.21597 -18.1074 9.03819e-19)
(8.92257 -18.2053 1.02258e-18)
(8.64425 -18.3217 -1.79341e-18)
(8.51268 -18.3176 9.33759e-19)
(7.3091 -7.55518 0)
(14.2456 -14.9226 0)
(14.9767 -16.3275 -8.62305e-20)
(14.309 -16.425 -9.34247e-20)
(13.8568 -16.4982 0)
(13.3062 -16.5766 -4.68545e-19)
(12.8276 -16.6113 4.6032e-19)
(12.3647 -16.6825 0)
(11.9222 -16.7333 -9.99535e-19)
(11.5004 -16.7724 9.82826e-19)
(11.0735 -16.8008 0)
(10.7166 -16.879 1.02953e-18)
(10.3727 -16.9867 -9.8488e-20)
(10.0099 -17.0263 -1.01839e-18)
(9.67174 -17.1066 0)
(9.36771 -17.1922 0)
(9.05828 -17.3025 0)
(8.72194 -17.3232 9.18302e-19)
(8.38386 -17.3335 -1.02428e-18)
(8.16994 -17.3973 0)
(5.32611 -25.4913 0)
(4.69285 -24.3632 0)
(4.21901 -24.6336 5.11548e-22)
(3.83203 -24.2327 7.62869e-22)
(3.47416 -24.3065 0)
(3.13838 -23.902 7.76498e-23)
(2.83042 -24.0603 -1.32668e-21)
(2.55387 -23.9392 0)
(2.29748 -24.076 -1.70516e-21)
(1.98927 -24.0039 0)
(1.84998 -24.1443 1.88775e-21)
(1.54437 -24.0326 9.9116e-22)
(1.42358 -24.2246 -9.96039e-22)
(1.18518 -24.0039 -2.08428e-21)
(1.00614 -24.2492 0)
(0.892969 -23.9021 4.9088e-22)
(0.64728 -23.8469 -2.21739e-21)
(0.748191 -21.4997 0)
(0.177741 -15.4924 0)
(0.276304 -6.58542 -2.27063e-21)
(5.42494 -25.2439 2.51878e-21)
(4.87243 -24.1897 0)
(4.33762 -24.4894 -3.19373e-21)
(3.94485 -24.0878 1.94011e-21)
(3.54699 -24.2066 0)
(3.17327 -23.8077 6.53925e-21)
(2.84988 -23.9881 -2.73801e-21)
(2.56006 -23.8642 0)
(2.27868 -23.9889 -1.82314e-21)
(1.97215 -23.9317 3.54713e-21)
(1.83166 -24.07 -5.75408e-21)
(1.52597 -23.9638 7.88079e-21)
(1.41029 -24.1676 -6.07277e-21)
(1.17155 -23.9462 2.04287e-21)
(1.00905 -24.2053 2.11756e-21)
(0.898735 -23.8527 -1.94143e-21)
(0.660994 -23.8297 3.78117e-21)
(0.760578 -21.4194 5.62721e-21)
(0.170249 -15.4119 2.8227e-21)
(0.286232 -6.5172 2.83674e-21)
(5.59576 -24.9955 -4.10714e-21)
(4.97598 -24.0222 -8.60728e-22)
(4.43712 -24.3803 2.7089e-21)
(3.98051 -23.9856 0)
(3.58858 -24.0962 0)
(3.2033 -23.6934 -8.18983e-21)
(2.89836 -23.8881 -5.99257e-22)
(2.6253 -23.7722 -4.54294e-22)
(2.33528 -23.9059 -3.98297e-22)
(2.02984 -23.8742 7.19747e-21)
(1.88211 -24.0134 0)
(1.57323 -23.9123 0)
(1.45091 -24.1203 0)
(1.20223 -23.8902 8.46536e-21)
(1.04451 -24.1684 0)
(0.90954 -23.8026 7.78368e-21)
(0.67707 -23.814 -7.60588e-21)
(0.76283 -21.3808 -3.37432e-21)
(0.17583 -15.377 -5.63636e-21)
(0.296641 -6.46671 -9.09375e-21)
(5.75893 -24.7656 -8.94681e-22)
(5.15104 -23.8325 3.05469e-21)
(4.55732 -24.2113 8.08519e-22)
(4.08545 -23.826 -6.63469e-21)
(3.66218 -23.9906 0)
(3.24783 -23.5976 -1.15997e-20)
(2.92526 -23.8172 3.0706e-20)
(2.62302 -23.6942 -1.97245e-20)
(2.32034 -23.8126 1.40521e-20)
(2.01478 -23.7997 -7.60168e-21)
(1.86162 -23.9366 -1.63032e-22)
(1.55518 -23.8418 8.13372e-21)
(1.43413 -24.0609 -8.17285e-21)
(1.18801 -23.8343 -4.19954e-21)
(1.03688 -24.1251 -4.29187e-21)
(0.916767 -23.7537 -7.23308e-21)
(0.69402 -23.7995 9.50816e-21)
(0.768811 -21.3105 -4.50264e-21)
(0.167838 -15.315 2.04836e-21)
(0.303163 -6.40289 9.07902e-21)
(5.90624 -24.5017 4.01532e-21)
(5.25846 -23.6586 -1.28327e-21)
(4.6705 -24.0875 6.8941e-21)
(4.13725 -23.7127 -1.14518e-20)
(3.70667 -23.8712 0)
(3.28173 -23.4786 5.77017e-21)
(2.97549 -23.7112 -6.26467e-21)
(2.68092 -23.5985 0)
(2.38228 -23.7289 1.13236e-22)
(2.07893 -23.7406 0)
(1.91134 -23.8779 1.5696e-20)
(1.60095 -23.7908 0)
(1.47055 -24.0112 0)
(1.21777 -23.7764 1.50653e-20)
(1.06414 -24.0854 -7.79229e-21)
(0.921846 -23.7078 5.08024e-21)
(0.710849 -23.7858 0)
(0.765751 -21.2767 -2.25315e-21)
(0.170854 -15.2876 2.24902e-21)
(0.311372 -6.3555 0)
(6.12559 -24.2672 -2.39941e-21)
(5.43872 -23.4605 4.28234e-21)
(4.78057 -23.8968 -2.00361e-20)
(4.21779 -23.5389 2.01254e-20)
(3.76228 -23.7564 -1.08926e-20)
(3.30657 -23.3823 -5.78683e-21)
(2.98591 -23.6372 1.32045e-20)
(2.66968 -23.5179 1.40606e-20)
(2.37097 -23.6336 -7.29559e-21)
(2.0704 -23.6628 -1.56133e-20)
(1.88901 -23.7968 7.77345e-21)
(1.58035 -23.7175 0)
(1.45175 -23.9482 0)
(1.19808 -23.7256 7.84129e-23)
(1.0558 -24.0393 7.68402e-21)
(0.919879 -23.6654 -7.22816e-21)
(0.725364 -23.7736 0)
(0.763941 -21.2167 1.81468e-20)
(0.164357 -15.2448 8.30034e-21)
(0.313571 -6.29733 1.13129e-21)
(6.26292 -23.9569 9.76026e-21)
(5.52206 -23.2625 -1.21406e-20)
(4.90281 -23.7569 7.64953e-21)
(4.28253 -23.413 0)
(3.80848 -23.6262 1.09331e-20)
(3.35153 -23.2587 -2.55736e-20)
(3.04929 -23.5293 1.24391e-20)
(2.73438 -23.4255 -1.41005e-20)
(2.43657 -23.5531 0)
(2.14284 -23.6 0)
(1.93795 -23.7332 -1.63346e-20)
(1.6209 -23.6674 1.60669e-20)
(1.48763 -23.8945 0)
(1.22661 -23.6685 -2.36962e-20)
(1.07595 -24.0026 8.7298e-21)
(0.921359 -23.6238 8.77496e-21)
(0.738123 -23.7635 -6.68325e-21)
(0.755351 -21.1881 -2.25548e-20)
(0.170651 -15.2265 -8.90332e-21)
(0.316628 -6.25389 -2.259e-21)
(6.43654 -23.675 0)
(5.69236 -23.0588 1.45924e-20)
(4.99198 -23.5357 -1.4637e-20)
(4.33216 -23.2186 0)
(3.85168 -23.504 0)
(3.36111 -23.1637 2.64608e-20)
(3.04712 -23.4504 -2.65486e-20)
(2.72288 -23.3395 0)
(2.42427 -23.4572 -1.55562e-20)
(2.13913 -23.5181 3.16672e-20)
(1.91412 -23.6451 -1.61008e-20)
(1.59819 -23.593 -1.68585e-20)
(1.46468 -23.8326 1.58922e-20)
(1.20833 -23.6174 0)
(1.06636 -23.9539 0)
(0.927405 -23.5822 8.93393e-21)
(0.751015 -23.7532 -1.13942e-20)
(0.749395 -21.1416 1.95977e-24)
(0.167475 -15.2024 3.12949e-21)
(0.311656 -6.20178 -2.25345e-21)
(6.59986 -23.3749 -1.2093e-20)
(5.73341 -22.833 1.27789e-20)
(5.11335 -23.3849 2.83798e-20)
(4.40428 -23.0783 -4.35218e-20)
(3.89135 -23.3647 4.84436e-20)
(3.40091 -23.0353 1.84841e-21)
(3.12098 -23.3457 -2.74282e-20)
(2.79564 -23.2536 0)
(2.49104 -23.3804 0)
(2.21112 -23.4516 -1.6268e-20)
(1.96396 -23.5747 0)
(1.63833 -23.5398 0)
(1.49847 -23.7808 0)
(1.23489 -23.5622 0)
(1.09142 -23.9162 0)
(0.941576 -23.5442 0)
(0.762787 -23.7421 7.67076e-21)
(0.740363 -21.1178 -8.98814e-21)
(0.173441 -15.1931 1.185e-21)
(0.307528 -6.16329 -2.24779e-21)
(6.76168 -23.0602 -2.69409e-21)
(5.90541 -22.6018 2.37434e-20)
(5.18018 -23.1495 1.0773e-20)
(4.41928 -22.8659 1.39279e-20)
(3.92651 -23.2325 -1.09535e-20)
(3.41225 -22.9439 -4.05394e-20)
(3.12146 -23.2656 -1.48272e-20)
(2.78216 -23.1608 0)
(2.47792 -23.2834 1.6268e-20)
(2.20141 -23.3664 -3.25489e-20)
(1.94303 -23.4804 -1.67938e-20)
(1.61803 -23.464 -1.72361e-20)
(1.48029 -23.7156 0)
(1.2201 -23.5095 -1.77572e-20)
(1.0882 -23.8715 -1.77813e-20)