/*--------------------------------*- C++ -*----------------------------------*\
  =========                 |
  \\      /  F ield         | OpenFOAM: The Open Source CFD Toolbox
   \\    /   O peration     | Website:  https://openfoam.org
    \\  /    A nd           | Version:  9
     \\/     M anipulation  |
\*---------------------------------------------------------------------------*/
FoamFile
{
    format      ascii;
    class       volScalarField;
    location    "10.1";
    object      nut;
}
// * * * * * * * * * * * * * * * * * * * * * * * * * * * * * * * * * * * * * //

dimensions      [0 2 -1 0 0 0 0];

internalField   nonuniform List<scalar> 
46400
(
0.0194096
0.00476144
0.00130352
0.00160466
0.00148843
0.00148403
0.00140766
0.00138636
0.00131891
0.00127355
0.00121837
0.00118811
0.00116246
0.00111257
0.00107742
0.001096
0.0010427
0.00097537
0.00130289
0.00102045
0.0188972
0.00386954
0.00133844
0.00160355
0.00143495
0.00148294
0.00138452
0.00137592
0.00130929
0.00126589
0.00123389
0.00119172
0.00114774
0.00111533
0.00106967
0.00102486
0.000960747
0.000867746
0.00114391
0.000992939
0.0182216
0.0049952
0.00135819
0.00163173
0.0015081
0.00149123
0.00141488
0.00138498
0.00133791
0.00128046
0.00123812
0.00119015
0.00115778
0.00109785
0.00105498
0.00104241
0.000974359
0.000913162
0.00119696
0.000989791
0.0176468
0.00525586
0.00151141
0.00167379
0.00149219
0.00149821
0.00141173
0.00136672
0.00131785
0.00126045
0.00121739
0.00118849
0.00114764
0.00112775
0.00108821
0.00105139
0.000977473
0.000905034
0.00120429
0.00103408
0.0168569
0.00509771
0.00149719
0.00164169
0.00152464
0.00149448
0.00142451
0.00137687
0.00132752
0.00128566
0.00123639
0.0011901
0.00115622
0.00109478
0.00105787
0.00105365
0.00100105
0.000921981
0.00120548
0.00103312
0.0159058
0.00421604
0.0015423
0.00168307
0.00150995
0.00148137
0.00143315
0.00136986
0.00133355
0.00127158
0.00122991
0.00117832
0.00115533
0.00113309
0.00109775
0.0010658
0.00103624
0.000949803
0.00121546
0.00109423
0.0131179
0.00315092
0.00152332
0.00157449
0.00149108
0.00142271
0.00138328
0.00132658
0.00127807
0.0012475
0.00123041
0.00118521
0.00113781
0.0010967
0.00105865
0.00104698
0.00102596
0.000965689
0.00121514
0.00110319
0.0106323
0.00254799
0.00156404
0.00158807
0.00152437
0.00142095
0.00139136
0.00134454
0.00129526
0.00122473
0.00120607
0.00118925
0.00115257
0.00111266
0.00106844
0.00103309
0.000991767
0.000936011
0.001179
0.00108677
0.00854592
0.00214518
0.0015661
0.00149434
0.0014882
0.00141361
0.00134615
0.00131003
0.00127031
0.00117619
0.00112821
0.00111358
0.00111817
0.00110952
0.00107183
0.00103717
0.000987783
0.000903496
0.00111316
0.00108316
0.00707828
0.00185697
0.00154379
0.00150753
0.00152259
0.0014612
0.00138726
0.00133022
0.00134923
0.00129934
0.00120417
0.00111625
0.00106633
0.00105918
0.00105895
0.00103974
0.00100193
0.000919703
0.00103422
0.00101213
0.00600856
0.00173611
0.00153573
0.00143902
0.00141737
0.00143105
0.00139362
0.00126692
0.00123933
0.0012182
0.00121056
0.00115556
0.00108904
0.00102592
0.00100857
0.00100906
0.000993939
0.000956551
0.00106326
0.00101803
0.00534782
0.00174011
0.00160435
0.0014306
0.00138364
0.00136922
0.00144723
0.0013833
0.00131825
0.00126248
0.00122976
0.00119614
0.00115732
0.00108746
0.00102191
0.000984438
0.000943583
0.000900811
0.00100105
0.000976632
0.00484191
0.00168564
0.00161519
0.00153062
0.00138207
0.00123679
0.00125899
0.00126256
0.0012682
0.00122373
0.00120582
0.00117036
0.00115944
0.00113439
0.00109716
0.00105815
0.00101952
0.00096041
0.00102854
0.00100484
0.00446785
0.00160431
0.00158015
0.0016061
0.00165617
0.00149449
0.00136765
0.00129863
0.0012483
0.00121379
0.00117779
0.00113602
0.00109977
0.00106568
0.00104558
0.00101371
0.000991406
0.000950178
0.000999591
0.000979791
0.00422903
0.00158507
0.00148157
0.00137822
0.00147811
0.00148094
0.00144802
0.00139876
0.00132838
0.00127934
0.00122954
0.00120047
0.00116583
0.00112683
0.00109017
0.00105549
0.00101608
0.000966841
0.00101306
0.000974939
0.00391143
0.0016447
0.00174637
0.00158875
0.00143565
0.00142885
0.00135515
0.00133444
0.00128141
0.00123194
0.00118079
0.00113658
0.00110436
0.00108379
0.00105486
0.00103897
0.00101176
0.000966661
0.00100799
0.000964179
0.00369815
0.00147256
0.00146981
0.00158474
0.00154744
0.00149821
0.00135484
0.00129466
0.00125727
0.00122868
0.00121489
0.00117741
0.00115144
0.00111213
0.00108256
0.0010501
0.00101873
0.000957272
0.000999529
0.000934837
0.0023915
0.00198345
0.00157911
0.00146892
0.00143861
0.00133824
0.00136516
0.00131068
0.00130403
0.00126375
0.00121805
0.00117306
0.00113111
0.0010878
0.00104977
0.00101356
0.000979451
0.000917586
0.000964701
0.000897279
0.00117088
0.0016428
0.00163462
0.00152781
0.00144432
0.00137711
0.00144813
0.00141481
0.00139396
0.00131319
0.00126481
0.00121732
0.00117761
0.00112927
0.00109953
0.00104621
0.00102938
0.000953371
0.000989416
0.000929701
0.00155524
0.00170759
0.00182334
0.0016857
0.001546
0.00151798
0.00135776
0.00133228
0.0012219
0.00119613
0.00119231
0.00117153
0.00114516
0.00110616
0.00107319
0.0010324
0.00102155
0.000952545
0.000986275
0.000936543
0.0103381
0.013153
0.00975514
0.00157172
0.000483902
0.000822038
0.00097124
0.000937771
0.000923827
0.00088545
0.00084638
0.000871567
0.000835249
0.000815767
0.000798629
0.000862458
0.000931871
0.000962393
0.00094095
0.000843877
0.0137304
0.0133833
0.00906811
0.00057469
0.000547642
0.000939179
0.00102152
0.00100047
0.000958274
0.000900611
0.000898937
0.000844608
0.000815926
0.000840764
0.000863108
0.000921142
0.000930241
0.000982151
0.00095606
0.000852764
0.0150049
0.0136568
0.00759793
0.000272065
0.00068126
0.00104048
0.00106257
0.000967655
0.000962374
0.00093844
0.000866063
0.000888823
0.000897878
0.000880264
0.000857102
0.000907071
0.000961715
0.00101867
0.00093931
0.000829824
0.0162968
0.0135563
0.00584753
0.000523069
0.000891775
0.00110316
0.00109616
0.00107285
0.00102573
0.00094353
0.000948625
0.000921278
0.000863526
0.000866829
0.000884523
0.000973759
0.000999206
0.00102038
0.000935644
0.00084818
0.0175525
0.0134216
0.00414967
0.000160685
0.00103965
0.00116986
0.00109216
0.00103832
0.00101029
0.000984769
0.000922914
0.000910945
0.000926845
0.000925042
0.000925303
0.000978759
0.000993424
0.00104565
0.000949096
0.000847325
0.0182284
0.0132467
0.00275175
0.000255921
0.00110309
0.00117653
0.00114312
0.00109889
0.00106097
0.000982622
0.00096187
0.000971513
0.000927641
0.000906736
0.000904863
0.000988748
0.00103544
0.00106413
0.00092842
0.000851809
0.0188991
0.0129196
0.00205053
0.000410047
0.00121224
0.00122453
0.00115679
0.00110927
0.00107357
0.00102182
0.000983921
0.000948669
0.000937394
0.000944481
0.000959168
0.00102111
0.00102535
0.00107482
0.000940071
0.000858789
0.0196935
0.012729
0.0011712
0.000720649
0.00125189
0.00122399
0.00120079
0.00112311
0.00108547
0.00102958
0.00097656
0.000993459
0.000976827
0.00094837
0.0009336
0.000993562
0.0010405
0.00109517
0.000924207
0.000844353
0.020104
0.0122504
0.0011195
0.000784426
0.00129069
0.00124532
0.0012099
0.00115836
0.00112289
0.0010498
0.00102403
0.000990514
0.000949462
0.000947818
0.000961129
0.00102286
0.00104127
0.00109067
0.000924522
0.000867461
0.0206978
0.0120234
0.000762188
0.00106015
0.0013633
0.00126313
0.00124859
0.00115845
0.00111211
0.00107533
0.00100202
0.00100349
0.000999681
0.000973148
0.000951757
0.000984567
0.00103393
0.00111074
0.000911509
0.000842754
0.0209091
0.0114831
0.00171542
0.001041
0.00135071
0.00127033
0.00126337
0.00120086
0.00116325
0.00108681
0.00105474
0.0010317
0.000979085
0.000960158
0.000956473
0.000997471
0.00103544
0.00110317
0.000903491
0.000865861
0.0212261
0.0112341
0.00115233
0.00122754
0.00144345
0.00130233
0.00127789
0.00120185
0.00114231
0.00111828
0.00104133
0.00102237
0.00101121
0.000992032
0.000969046
0.000968658
0.00102132
0.00112693
0.000904423
0.000853804
0.0213215
0.0110118
0.00230468
0.0012284
0.00142487
0.00129996
0.00130786
0.00123783
0.0011888
0.00112662
0.00107884
0.00106492
0.00101756
0.000983817
0.000964193
0.000968277
0.00100846
0.00110079
0.000874335
0.000860744
0.0213711
0.0107449
0.00219481
0.00125271
0.0015022
0.00134766
0.00130644
0.00126331
0.00118959
0.00116709
0.00109941
0.00105902
0.0010297
0.00101482
0.000991605
0.000956008
0.000986087
0.00110691
0.000878597
0.000859257
0.0213477
0.0105777
0.00200649
0.00134027
0.00147742
0.00136688
0.00133314
0.00127599
0.00121187
0.00117207
0.00111269
0.00110549
0.00106759
0.00102605
0.00100509
0.000973887
0.000988758
0.00107339
0.000835779
0.000862824
0.0211555
0.00934695
0.0017601
0.00131275
0.00148679
0.00139779
0.0013409
0.00131675
0.00124123
0.00121238
0.00116134
0.00111029
0.00106839
0.00105141
0.00103239
0.000976224
0.000966106
0.00106223
0.000838736
0.000874661
0.0209731
0.00881642
0.00192153
0.00146227
0.00151112
0.00142869
0.00135826
0.00132404
0.0012465
0.00122353
0.00115691
0.00114801
0.00112061
0.00107588
0.00106249
0.00102506
0.00101036
0.00103325
0.000776038
0.000867821
0.0206517
0.00709992
0.00144838
0.00141195
0.00146536
0.00145684
0.0013707
0.00135566
0.00128093
0.00124819
0.00121528
0.001161
0.00111588
0.00109522
0.00107819
0.0010304
0.00101295
0.00104097
0.000777297
0.000897235
0.0202988
0.00679337
0.00180101
0.00155468
0.00151115
0.00147526
0.00139001
0.00137419
0.00129445
0.00127378
0.00121388
0.00119908
0.00117664
0.00113167
0.00111577
0.00110476
0.00111143
0.00109108
0.000771691
0.000879005
0.0198936
0.00494602
0.00131367
0.00153555
0.00143342
0.00148585
0.0013784
0.00137087
0.00129966
0.00126548
0.0012511
0.00120974
0.00118077
0.00116338
0.00114754
0.00114688
0.00114839
0.00114559
0.00097019
0.00103758
0.005814
0.00315779
0.00262852
0.00180765
0.00151457
0.00120119
0.00099311
0.000749138
0.000605493
0.000473029
0.000370464
0.000311625
0.00017802
0.000126691
0.000221602
0.000244105
0.000585331
0.0057613
0.00995068
0.0145114
0.00590023
0.00323794
0.00258824
0.00177463
0.0014499
0.00119698
0.00101133
0.000783832
0.000622153
0.000480596
0.000370571
0.000292589
0.000171971
0.000101259
0.000218319
0.000216379
0.000630816
0.00576187
0.0100173
0.0144918
0.0058326
0.00325387
0.0026517
0.00183522
0.0014667
0.00119747
0.00100015
0.000767227
0.000617241
0.000460038
0.000364098
0.000279011
0.000168799
7.43704e-05
0.000203755
0.00019916
0.000683299
0.00574742
0.0100129
0.014452
0.00546926
0.00326046
0.00266994
0.00186251
0.00146228
0.00122162
0.001032
0.000791983
0.000635773
0.000462008
0.000370294
0.000252048
0.000165517
5.63227e-05
0.000176954
0.000174284
0.00072119
0.00571681
0.0100731
0.0144469
0.00551955
0.00339915
0.00272359
0.00190567
0.00148978
0.00119752
0.00104007
0.000791466
0.000637003
0.000452992
0.000358204
0.000308823
0.000158875
4.46181e-05
0.000164566
0.000161349
0.000772376
0.00568415
0.0100318
0.0144023
0.00571879
0.00341818
0.00282445
0.00197072
0.00154291
0.0012291
0.001069
0.000808867
0.000658895
0.000460562
0.000373635
0.000319719
0.000130949
4.41278e-05
0.00015901
0.000162083
0.00080797
0.00567132
0.0100676
0.0144
0.0061159
0.00346708
0.00283668
0.00199523
0.0015711
0.00123006
0.00109407
0.0008202
0.000659264
0.000463909
0.000382286
0.00032552
0.00010875
4.62732e-05
0.000167843
0.000168299
0.000830127
0.00564931
0.0100271
0.0143841
0.00611785
0.00354004
0.00286205
0.00199655
0.00157141
0.00124162
0.00110757
0.000849108
0.000688141
0.000481585
0.000401013
0.000328225
0.000113282
9.81694e-05
0.000157213
0.000191318
0.000849626
0.00561073
0.0100528
0.014406
0.00611802
0.00355633
0.00288213
0.00203848
0.00159892
0.00126872
0.00112814
0.000861475
0.000693545
0.000494157
0.000415109
0.000338134
0.000181828
0.000196784
0.000169483
0.00018957
0.000863975
0.00556837
0.0100199
0.01437
0.00614623
0.0035596
0.00287548
0.00203216
0.00158276
0.00130592
0.00113959
0.000905356
0.000724755
0.000527765
0.000438327
0.000349037
0.000190079
0.00024846
0.000157778
0.000219322
0.000877665
0.00553118
0.00999805
0.014325
0.00613055
0.00354963
0.002867
0.00204226
0.0016046
0.00132385
0.00117146
0.000914069
0.000739328
0.000549395
0.000459606
0.000369481
0.000194425
0.000316497
0.000176348
0.000202016
0.000881621
0.00548652
0.0099752
0.0142651
0.00612538
0.00354097
0.00287325
0.00201613
0.00161226
0.00135611
0.00119222
0.00095768
0.000765518
0.00060437
0.000488987
0.000388875
0.000205457
0.00033563
0.000164222
0.000225087
0.000883919
0.00546182
0.00998085
0.0142768
0.00618916
0.00350108
0.00281974
0.00202429
0.00160156
0.00138723
0.00118984
0.000960826
0.000769395
0.000625628
0.000520234
0.000416467
0.00022833
0.000343722
0.000169273
0.000208978
0.000862602
0.00544546
0.00999931
0.0143037
0.00613554
0.00347491
0.00280953
0.00199802
0.00159192
0.00138804
0.00120263
0.000996418
0.000794248
0.000676306
0.000549557
0.000439139
0.000247933
0.000354009
0.000154311
0.000223695
0.000835262
0.00542769
0.0100057
0.0143368
0.00615328
0.00340387
0.00274257
0.00201331
0.00159041
0.00141814
0.00120647
0.000997988
0.000789089
0.000690155
0.000577931
0.000464575
0.000276229
0.000365534
0.000165321
0.000208619
0.000765878
0.00532683
0.0100026
0.0143709
0.00619717
0.00336529
0.00270394
0.0020058
0.00157157
0.00140877
0.00121684
0.00103107
0.000814437
0.00073033
0.000603601
0.000487558
0.000297492
0.000377805
0.000143531
0.000220742
0.0006485
0.00515434
0.0100097
0.0144248
0.00613063
0.0032921
0.00264241
0.00201899
0.00157972
0.00142534
0.00121021
0.00103328
0.000807779
0.000738509
0.000627791
0.000516619
0.000332451
0.000390731
0.000156598
0.000197528
0.000527536
0.00499213
0.010045
0.0143933
0.00621767
0.00324932
0.00258977
0.00203222
0.00159022
0.0014383
0.00121419
0.00107195
0.000838193
0.000767588
0.00064756
0.000544075
0.000363891
0.000405207
0.000141781
0.000199468
0.000487445
0.00502045
0.0100969
0.0143888
0.00596033
0.00320608
0.00250101
0.00201943
0.00158108
0.00144927
0.00119464
0.0010643
0.000840899
0.000779539
0.00065888
0.00056387
0.000400528
0.000428241
0.000188802
0.000216152
0.000426869
0.00491187
0.0101852
0.0145759
0.00635937
0.00333772
0.00249436
0.00202796
0.00160697
0.00146315
0.00119093
0.00106524
0.000847997
0.000788943
0.000672433
0.000576686
0.000433133
0.000444834
0.00022395
0.000242545
0.000357522
0.00458017
0.00999175
0.0140658
0.017008
0.0314324
0.0234744
0.0223492
0.0184029
0.0167906
0.013386
0.0118527
0.00966103
0.00866942
0.007361
0.00668006
0.00548887
0.00548032
0.00386018
0.00367286
0.00229766
0.0448158
0.0948563
0.129539
0.027572
0.0209058
0.0190537
0.0163404
0.0147804
0.0119498
0.00983076
0.00859698
0.00763446
0.00644758
0.00575573
0.00510535
0.00473759
0.00409388
0.00320054
0.00218998
0.00720673
0.0477452
0.0939466
0.128036
0.0152992
0.0148908
0.013196
0.0108662
0.00999601
0.00859914
0.00749408
0.006481
0.00592082
0.00547754
0.00487986
0.00456951
0.00432521
0.00402783
0.00380624
0.00262933
0.00416318
0.0492366
0.0933903
0.126003
0.0114834
0.00959955
0.00800308
0.00761275
0.00703684
0.00731853
0.00652615
0.00584178
0.00544961
0.00485738
0.00451036
0.00411619
0.00372921
0.00327165
0.00308194
0.00198936
0.00636597
0.0466915
0.0937756
0.122491
0.00545787
0.00661371
0.00736793
0.00691398
0.00524348
0.00481975
0.00491427
0.00428301
0.00422151
0.00397445
0.00366051
0.00350064
0.00334274
0.00345672
0.00353486
0.00230634
0.00407235
0.0416424
0.0944451
0.121536
0.00549352
0.0051328
0.00410494
0.00352851
0.00370325
0.00399878
0.00400462
0.00402164
0.00367898
0.00360299
0.00349945
0.00339931
0.00339087
0.00301628
0.00329082
0.00235078
0.00237486
0.0371241
0.0951549
0.121779
0.00282072
0.00299593
0.00313514
0.00379415
0.00342101
0.00314576
0.00301293
0.00303332
0.00297595
0.00308283
0.00284371
0.00288184
0.00292563
0.00322285
0.00338443
0.0026146
0.00127782
0.0313519
0.096192
0.124884
0.00239135
0.00241941
0.00232991
0.00212749
0.00204467
0.00218316
0.00233108
0.00239597
0.00240646
0.00260511
0.00272846
0.00273384
0.00280134
0.00294022
0.00347498
0.0029765
0.00209761
0.0237092
0.0959754
0.131178
0.00120739
0.00130727
0.00132457
0.00158226
0.00180911
0.00188939
0.0019816
0.00213519
0.00200766
0.00211794
0.00219573
0.00241251
0.00239644
0.00258265
0.00314007
0.00363402
0.00128772
0.016651
0.0941438
0.140494
0.000899335
0.000992943
0.00100074
0.0011119
0.00110267
0.0012438
0.00121229
0.00134019
0.00154057
0.00182714
0.00194741
0.0021489
0.0023057
0.0028239
0.00292024
0.00375475
0.00213972
0.00904599
0.0894282
0.152435
0.000375865
0.000427186
0.000495086
0.000690289
0.000746795
0.000940928
0.00107757
0.00134333
0.00121132
0.00147135
0.00155257
0.00191211
0.00193756
0.00242318
0.00285874
0.00400032
0.00299785
0.00397218
0.0725511
0.165624
0.000147871
0.000191014
0.000312632
0.000430756
0.000380923
0.000621587
0.000282821
0.000822138
0.000681203
0.00129498
0.000841825
0.0017063
0.00138339
0.00231233
0.00217292
0.00353978
0.00367734
0.00373086
0.0570759
0.185152
0.00029204
0.000317547
0.000306734
0.000409717
0.000390027
0.000579858
0.000435384
0.00074708
0.000582373
0.00107048
0.00105285
0.00143131
0.00151749
0.00219045
0.00232334
0.00269679
0.00348307
0.0085739
0.0314439
0.157941
0.000352959
0.000363967
0.000345056
0.000423116
0.00043589
0.000553106
0.00059821
0.000849362
0.000823669
0.00106228
0.000948135
0.00138778
0.00128847
0.00186633
0.00158349
0.00228061
0.00229868
0.00549427
0.019129
0.113387
0.000469243
0.00050262
0.000498006
0.00053482
0.000565373
0.000657806
0.000698768
0.000771091
0.000776766
0.000913247
0.000947628
0.00117628
0.0012208
0.00132382
0.00148048
0.0015829
0.00166154
0.00356194
0.0057929
0.068501
0.000481615
0.00047869
0.000487439
0.000519592
0.000529688
0.000578795
0.000582037
0.000655284
0.000706251
0.000812323
0.000873109
0.000907277
0.000916382
0.000870753
0.00101176
0.00122548
0.00119575
0.00171318
0.0046294
0.0393877
0.000385512
0.000424605
0.000447744
0.000494326
0.000497891
0.000542549
0.000543994
0.000610029
0.000594907
0.000682731
0.000680497
0.000781884
0.000851933
0.00107544
0.00110772
0.00131582
0.000543734
0.00123776
0.00208043
0.0216136
0.000306689
0.000335055
0.000370072
0.000388867
0.000397435
0.000432653
0.000461378
0.000485851
0.000527106
0.000557252
0.000553359
0.000571734
0.000614776
0.000615253
0.000735568
0.000635587
0.000324712
0.000499972
0.00246735
0.00969671
0.000200665
0.000225494
0.000209308
0.000226958
0.000256713
0.000286281
0.000305483
0.000347731
0.000359548
0.000403029
0.000409044
0.000494105
0.000481375
0.000462718
0.000444529
0.000519168
0.000238291
0.000116834
0.00127509
0.00616555
4.66953e-05
8.14442e-05
0.000107518
0.000144961
0.000165807
0.000200479
0.000212156
0.000256672
0.000257716
0.000312537
0.000319858
0.00035961
0.00037499
0.000360108
0.000453241
0.000333193
0.000124156
6.41975e-05
0.000323965
0.00432501
0.0139026
0.0139516
0.0139568
0.0139338
0.0137307
0.0136497
0.0135005
0.0134
0.0131386
0.0131233
0.0125033
0.0124521
0.0117607
0.0116046
0.0107081
0.00989684
0.00995395
0.00943038
0.00979128
0.0095172
0.00687805
0.0068607
0.00681727
0.0067567
0.00664217
0.00662882
0.00655246
0.006593
0.00633581
0.00634777
0.00685094
0.00698007
0.00669255
0.00653187
0.00604355
0.00669939
0.00676779
0.0069857
0.00646602
0.00704612
0.00409501
0.00407158
0.00406408
0.00406944
0.00410873
0.00419864
0.00420684
0.00422582
0.00423158
0.00428811
0.00414907
0.00396883
0.00392774
0.00414347
0.0037381
0.00350361
0.00321745
0.00353643
0.0031389
0.00368026
0.00260571
0.00259694
0.00258983
0.00257203
0.00254293
0.0025046
0.00245596
0.00245453
0.00238858
0.00231743
0.00223033
0.0023343
0.00235065
0.00238117
0.00256326
0.00257067
0.00232446
0.00253379
0.00226309
0.00267675
0.00160786
0.00159591
0.0015873
0.00158003
0.00157256
0.00157088
0.00156723
0.00158627
0.00163196
0.00164386
0.00161321
0.001626
0.00160282
0.00160682
0.00143748
0.00159679
0.00169516
0.00165734
0.00144185
0.00141269
0.00113962
0.00113089
0.00112544
0.00112061
0.00111806
0.0011169
0.00111246
0.00110477
0.00107866
0.00104039
0.00100557
0.00101078
0.000996815
0.00102706
0.00110369
0.00101995
0.00091004
0.00109175
0.0011632
0.00119264
0.000689606
0.000685715
0.000682182
0.000680408
0.000676313
0.000674462
0.000669742
0.000665958
0.000661838
0.000666869
0.000720579
0.000737047
0.000719899
0.000719398
0.000658337
0.000717436
0.000711267
0.00065496
0.000623779
0.000686911
0.000516488
0.000510255
0.000504895
0.000504065
0.0004997
0.000496162
0.000491186
0.000487009
0.000484746
0.000479814
0.000468265
0.000431546
0.000416877
0.000397907
0.000418355
0.00042888
0.000458346
0.000594037
0.000557865
0.000488528
0.000295129
0.000287119
0.000279788
0.000275966
0.000272819
0.000268048
0.000264506
0.000260759
0.000258361
0.000259323
0.000260845
0.000264366
0.00028802
0.000323617
0.000311097
0.000308278
0.000298957
0.000276735
0.000233594
0.000264688
0.000165656
0.000166361
0.000164772
0.000164511
0.000163239
0.000164861
0.000163866
0.000175513
0.000170691
0.000166741
0.000168053
0.000165049
0.000164227
0.000150488
0.000144722
0.000141008
0.000145163
0.000146742
0.000169237
0.00018842
0.000143458
0.000127616
0.000124272
0.000129455
0.000116885
8.96983e-05
7.83103e-05
6.60054e-05
5.5228e-05
5.01007e-05
4.71766e-05
4.79375e-05
4.79982e-05
5.18695e-05
5.36194e-05
6.15945e-05
6.50932e-05
8.00335e-05
8.82332e-05
9.52681e-05
0.000141843
0.000140333
0.000147002
0.000141925
0.000121606
0.000100149
9.45606e-05
7.78488e-05
7.39516e-05
6.85497e-05
6.13156e-05
5.51693e-05
5.10184e-05
4.51469e-05
3.84736e-05
3.21775e-05
3.16383e-05
1.57633e-05
1.1966e-05
2.01911e-05
0.000140988
0.000134694
0.000122283
0.000111869
0.000114302
0.000126736
0.00012975
0.000127373
0.000125668
0.000121135
0.000113549
0.000100935
9.62445e-05
9.09486e-05
9.11417e-05
8.12505e-05
8.29184e-05
7.12397e-05
7.4422e-05
6.79595e-05
0.000164945
0.000163134
0.000161111
0.000158492
0.00015731
0.000154757
0.000149902
0.000139143
0.000128281
0.00012011
0.000117661
0.000114413
0.000113386
0.000105598
0.000100037
9.37852e-05
9.77497e-05
0.000102334
0.000114605
0.000107141
0.000156906
0.000153636
0.000148305
0.000137903
0.000127337
0.00011341
0.000109381
0.000109091
0.000109448
0.000110257
0.000117219
0.000117996
0.000116604
0.000114068
0.00011726
0.000116014
0.000116839
0.000110596
0.000113031
0.000116167
0.000131831
0.000131138
0.000132439
0.000130998
0.000128198
0.000126775
0.000129131
0.00013329
0.000134864
0.0001305
0.000123467
0.000120227
0.000123169
0.000120149
0.000121296
0.000119109
0.000118762
0.000112116
0.000110644
0.000112464
9.00529e-05
9.09529e-05
9.05401e-05
8.99431e-05
8.76508e-05
8.299e-05
7.77872e-05
7.66782e-05
7.82797e-05
8.11339e-05
8.26011e-05
8.17776e-05
8.32259e-05
8.4345e-05
8.63309e-05
8.69501e-05
8.97907e-05
8.96108e-05
9.38409e-05
9.45166e-05
2.87071e-05
2.88271e-05
3.53707e-05
4.22068e-05
4.46062e-05
4.75634e-05
4.91254e-05
4.99579e-05
5.32065e-05
5.68533e-05
6.07539e-05
6.22471e-05
6.34394e-05
6.35721e-05
6.45716e-05
6.33809e-05
6.53024e-05
6.5921e-05
7.0314e-05
7.21718e-05
1.35997e-05
1.75069e-05
2.23774e-05
2.56495e-05
2.93187e-05
2.86391e-05
2.92508e-05
2.91828e-05
2.85121e-05
2.8727e-05
2.84192e-05
3.09874e-05
3.19858e-05
3.34641e-05
3.55982e-05
3.76811e-05
4.0194e-05
4.3422e-05
4.31729e-05
4.49383e-05
3.83471e-06
4.16671e-06
3.90765e-06
4.38081e-06
3.83188e-06
5.73668e-06
5.12729e-06
1.1144e-05
1.07931e-05
1.27636e-05
8.0934e-06
6.38285e-06
5.4339e-06
4.85531e-06
4.51145e-06
4.38142e-06
4.9153e-06
6.29647e-06
6.21073e-06
6.10632e-06
0.00113322
0.0012979
0.00098067
0.00107175
0.00107942
0.00110125
0.00115516
0.0011815
0.00120883
0.00124605
0.0013027
0.0013341
0.00141081
0.00145386
0.0015046
0.00158116
0.00157463
0.0025391
0.00877213
0.0210487
0.00103516
0.00112976
0.000916122
0.00102578
0.00107486
0.00111542
0.00115644
0.00119812
0.00126382
0.00132361
0.00135893
0.00137413
0.00142722
0.00146412
0.00153509
0.00157479
0.00157137
0.0018558
0.00758581
0.0206019
0.0011326
0.00125494
0.000965596
0.00105222
0.00109698
0.0011251
0.00117458
0.00120788
0.00123996
0.00127145
0.00131238
0.00135531
0.00143504
0.001473
0.00153376
0.00157245
0.0016335
0.00184809
0.00684369
0.020141
0.00113004
0.00122758
0.000950897
0.00105203
0.00108715
0.00112055
0.00115267
0.00119046
0.00125099
0.00129628
0.00133759
0.00136894
0.00143438
0.00146618
0.00154914
0.00158188
0.00166903
0.00150914
0.00585626
0.0196535
0.00117239
0.00126892
0.000995985
0.00107557
0.0011129
0.00113895
0.00117767
0.00122545
0.00125675
0.00129469
0.00134268
0.00139604
0.00146238
0.00148636
0.00155056
0.00155737
0.00164479
0.0014317
0.0050635
0.0190916
0.00118171
0.00126882
0.000988666
0.00107653
0.00111337
0.00114047
0.00118472
0.0012226
0.00127221
0.00131358
0.00135429
0.00138114
0.00143605
0.00147252
0.00154885
0.00158564
0.00171096
0.00151008
0.00468495
0.0184477
0.00117904
0.00124184
0.00100683
0.00109844
0.00113496
0.00116495
0.0012039
0.00124661
0.00127456
0.00131525
0.00135654
0.00140964
0.00147492
0.00149556
0.00156415
0.0015759
0.00165301
0.00152902
0.00517438
0.0177134
0.00114195
0.00119572
0.00101135
0.00109085
0.00112531
0.00115831
0.00120068
0.00123787
0.00128188
0.00132644
0.00135853
0.00140191
0.00144866
0.00149008
0.00157282
0.00161106
0.00173389
0.00162063
0.0050935
0.016931
0.00114438
0.00121702
0.00105155
0.00111899
0.00115249
0.0011862
0.00121493
0.00124881
0.00128015
0.00131353
0.00135509
0.00141076
0.00146152
0.00149776
0.00156793
0.00158966
0.00171214
0.00165551
0.00455722
0.0161304
0.00113396
0.00117329
0.00102883
0.00108375
0.00111873
0.00114782
0.00117826
0.00122144
0.00126266
0.0013116
0.00134249
0.00140074
0.00143548
0.00150053
0.00157612
0.00162859
0.00174739
0.00163657
0.0038626
0.0146407
0.00106828
0.00111987
0.00101405
0.00107384
0.00111409
0.00114212
0.00117863
0.00121358
0.00124709
0.00126398
0.00131135
0.00137388
0.00141447
0.00150144
0.001542
0.00161139
0.00170416
0.00171523
0.00310612
0.0129092
0.00102204
0.00108224
0.000996198
0.00104896
0.00108071
0.00111071
0.00114004
0.0011844
0.00121973
0.00127263
0.0013545
0.00141116
0.00146892
0.00153642
0.00154532
0.0016268
0.00165413
0.00166813
0.00259684
0.0104867
0.00104557
0.00112198
0.00102924
0.00107962
0.00111114
0.00114562
0.00118537
0.001237
0.00126517
0.00132144
0.00136184
0.00136806
0.00139787
0.0014269
0.00146519
0.00157431
0.00160552
0.00167752
0.00216688
0.00830024
0.00105665
0.0010922
0.00099979
0.00105432
0.00108203
0.0011208
0.00114769
0.00118303
0.00118855
0.00124435
0.00125217
0.00130139
0.00137467
0.00145988
0.00151649
0.00159502
0.00159931
0.00167328
0.00192028
0.00673313
0.000983513
0.000997628
0.000959432
0.00101897
0.00106118
0.00109005
0.00112148
0.00115831
0.00120089
0.00128688
0.00132129
0.00141629
0.00146156
0.00147404
0.00147665
0.00157021
0.00153888
0.00160439
0.0017323
0.00542237
0.000982405
0.00102067
0.00100811
0.00106322
0.00110318
0.00112969
0.00117009
0.00121518
0.00126218
0.00131416
0.00129678
0.00135332
0.00132834
0.00138049
0.00148085
0.00153021
0.00152957
0.00166235
0.00171091
0.00484391
0.000997549
0.0010514
0.00101642
0.00106511
0.00109198
0.0011141
0.00116144
0.00118189
0.00121412
0.00120677
0.00121558
0.00129016
0.00130889
0.00142258
0.00144721
0.00144376
0.00144586
0.00165705
0.00173243
0.00453203
0.000979972
0.000996829
0.000971177
0.00102497
0.00104647
0.00108131
0.00110718
0.00111439
0.00114071
0.00115554
0.00122867
0.0013148
0.00132619
0.00141849
0.00140952
0.0014763
0.001663
0.00168699
0.00170697
0.00409536
0.000965913
0.000992976
0.000991613
0.00104359
0.00107105
0.00110769
0.00111461
0.00115746
0.00119485
0.00125695
0.00134888
0.00136925
0.00140054
0.00146292
0.0014945
0.00160149
0.00157534
0.0014469
0.00143662
0.00401546
0.000964195
0.00101703
0.000994997
0.00104118
0.00106641
0.00108652
0.00110838
0.00116487
0.00119726
0.00126303
0.00129516
0.00128306
0.00135384
0.00138833
0.00142239
0.00146922
0.00143135
0.00154157
0.00181881
0.00304406
0.00067138
0.000669743
0.000544303
0.000544674
0.000557465
0.000489572
0.000529156
0.000520359
0.000462339
0.00046948
0.000609676
0.000526575
0.000321626
0.000147312
0.00161189
0.00623033
0.0119326
0.01357
0.00900649
0.00109365
0.000693908
0.000741422
0.000642764
0.000540739
0.000531392
0.000521637
0.000540694
0.000545793
0.000595015
0.000518004
0.000499159
0.00057818
0.00047631
0.000156906
0.000280091
0.0037735
0.0100219
0.0141554
0.010827
0.00232654
0.000674364
0.00071891
0.000665903
0.000628103
0.000626439
0.000523028
0.000542715
0.000539702
0.000545877
0.000587874
0.000602634
0.000618477
0.000577722
0.000403
0.000200767
0.00164339
0.0078931
0.013868
0.0122323
0.00307373
0.000706929
0.000765405
0.000706036
0.00059015
0.0006149
0.00061611
0.000614517
0.000605619
0.000625266
0.000565969
0.000574593
0.000649323
0.000685939
0.000584774
0.000250812
0.000460386
0.0057408
0.012725
0.0134701
0.00350311
0.00070617
0.000768636
0.000768296
0.000691675
0.000685786
0.000582331
0.000603315
0.000624008
0.000663152
0.000690901
0.000668754
0.000663476
0.000727823
0.000688758
0.000503447
0.000289955
0.00297644
0.0116615
0.0142722
0.00666225
0.000725492
0.000777793
0.000777338
0.000664831
0.000706311
0.000711523
0.000688522
0.000663715
0.000685417
0.000679057
0.000712344
0.000775356
0.000793991
0.000826793
0.000703154
0.000364475
0.00141455
0.0102687
0.0146322
0.00955698
0.00075628
0.00081542
0.000847571
0.000741543
0.000744283
0.000669081
0.000699725
0.000733488
0.000771156
0.000781452
0.000762238
0.000789713
0.000834873
0.00090076
0.000885127
0.000498799
0.000545704
0.00918659
0.0147274
0.0122495
0.000761649
0.00079984
0.000854897
0.000743163
0.000789093
0.000790108
0.000756658
0.000732106
0.000770333
0.000803674
0.000843548
0.00089538
0.000919025
0.000961164
0.00096312
0.000719539
0.000394012
0.00686832
0.0146006
0.0152777
0.0008017
0.000836957
0.000901115
0.000784735
0.000801848
0.000758672
0.000794898
0.000837339
0.000860135
0.000861683
0.000861673
0.000911983
0.000965515
0.00100516
0.00109729
0.000953947
0.000206017
0.00485967
0.014464
0.0171487
0.000788923
0.000813764
0.000925012
0.000802235
0.000848994
0.000853516
0.000824473
0.000809699
0.000861503
0.000916255
0.000954198
0.0010069
0.00103201
0.00107319
0.00112959
0.0010666
0.000373876
0.00337497
0.0141253
0.0184045
0.000805393
0.000820424
0.000922588
0.000806835
0.000854075
0.000841303
0.0008706
0.000920415
0.000938145
0.000936708
0.000963867
0.00102758
0.00107509
0.00113485
0.0012187
0.00118262
0.000500769
0.00234379
0.0137348
0.0193358
0.000808495