/*--------------------------------*- C++ -*----------------------------------*\
  =========                 |
  \\      /  F ield         | OpenFOAM: The Open Source CFD Toolbox
   \\    /   O peration     | Website:  https://openfoam.org
    \\  /    A nd           | Version:  9
     \\/     M anipulation  |
\*---------------------------------------------------------------------------*/
FoamFile
{
    format      ascii;
    class       volVectorField;
    location    "1.4";
    object      U;
}
// * * * * * * * * * * * * * * * * * * * * * * * * * * * * * * * * * * * * * //

dimensions      [0 1 -1 0 0 0 0];

internalField   nonuniform List<vector> 
46400
(
(7.73756 -7.57823 -1.56427e-19)
(16.1889 -15.3752 1.00756e-19)
(17.5445 -17.4477 -5.93054e-20)
(16.9953 -17.5107 -6.27943e-20)
(16.4923 -17.5234 -4.46946e-20)
(15.9393 -17.5713 1.25126e-19)
(15.4404 -17.5665 -9.74092e-20)
(14.964 -17.6032 4.88893e-20)
(14.5347 -17.6492 -5.50381e-20)
(14.0848 -17.6545 6.036e-20)
(13.688 -17.6973 -6.49327e-20)
(13.3225 -17.7527 0)
(12.9708 -17.8158 4.47259e-19)
(12.6295 -17.8476 -5.11448e-19)
(12.3256 -17.9346 -6.46856e-19)
(12.0224 -17.9761 -1.09323e-19)
(11.7018 -18.0273 -2.8395e-20)
(11.4142 -18.0075 5.16307e-19)
(11.1342 -17.9973 7.05367e-19)
(10.7202 -18.1948 -6.51319e-19)
(8.06568 -7.27411 0)
(16.3747 -14.4727 -2.91703e-20)
(17.533 -16.2531 0)
(16.9174 -16.3532 1.46664e-19)
(16.3512 -16.3611 -1.31175e-19)
(15.7931 -16.4447 3.35902e-20)
(15.3046 -16.5133 0)
(14.8433 -16.5993 -4.88871e-20)
(14.3834 -16.6558 5.50357e-20)
(13.9303 -16.6815 -6.03584e-20)
(13.5556 -16.7967 6.88072e-19)
(13.1733 -16.8486 3.57863e-20)
(12.8187 -16.9433 -5.66259e-19)
(12.4967 -17.0231 0)
(12.178 -17.1049 7.78357e-20)
(11.8902 -17.1732 8.00731e-20)
(11.6069 -17.2627 0)
(11.3674 -17.3043 -7.51531e-19)
(11.1183 -17.3398 -1.93466e-19)
(10.7998 -17.5536 7.65197e-19)
(8.32638 -6.81711 5.95542e-20)
(16.4109 -13.5613 -1.68866e-19)
(17.323 -14.9159 1.6249e-19)
(16.6773 -15.0917 2.51002e-19)
(16.1978 -15.1951 -2.4642e-19)
(15.6406 -15.3234 0)
(15.1295 -15.4087 -7.61244e-19)
(14.6609 -15.5252 6.56678e-19)
(14.2439 -15.6691 -8.42182e-19)
(13.7732 -15.7163 8.32999e-19)
(13.3617 -15.8163 7.90698e-19)
(13.001 -15.9316 -7.80363e-20)
(12.6375 -16.0411 -6.85477e-19)
(12.3017 -16.1375 0)
(12.0067 -16.2931 8.45019e-19)
(11.7066 -16.3888 -8.32203e-19)
(11.3981 -16.4958 0)
(11.1398 -16.5578 -1.52676e-20)
(10.866 -16.6382 9.75959e-20)
(10.5079 -16.8803 -8.94155e-19)
(8.52954 -6.38673 -1.89293e-19)
(16.3392 -12.5578 4.41171e-20)
(17.0879 -13.7436 3.35662e-19)
(16.4116 -13.9367 -3.31538e-19)
(15.8416 -14.039 -2.8691e-19)
(15.3011 -14.202 3.88883e-19)
(14.8016 -14.3561 5.29013e-19)
(14.3411 -14.5038 -1.3297e-18)
(13.9018 -14.6607 1.11253e-18)
(13.4679 -14.7664 -1.04788e-19)
(13.0768 -14.9262 0)
(12.6992 -15.0327 1.0937e-19)
(12.3574 -15.1939 -1.10952e-19)
(12.0209 -15.2955 0)
(11.7045 -15.4305 9.81089e-19)
(11.4499 -15.589 -8.359e-19)
(11.1766 -15.7457 0)
(10.9458 -15.8613 1.13947e-19)
(10.7003 -15.9747 1.26828e-19)
(10.3563 -16.2518 1.01795e-18)
(8.67681 -5.9472 0)
(16.1523 -11.4884 0)
(16.6506 -12.444 -4.55677e-19)
(16.0025 -12.6956 3.17952e-19)
(15.5227 -12.8997 -6.15382e-19)
(14.9794 -13.0952 4.9729e-19)
(14.4661 -13.2709 0)
(14.0082 -13.4582 5.46509e-19)
(13.6152 -13.6992 -6.62174e-19)
(13.1447 -13.8031 -1.49006e-19)
(12.732 -13.9698 -1.49507e-19)
(12.3771 -14.1437 0)
(12.02 -14.3163 1.12822e-18)
(11.7026 -14.4816 -1.11058e-18)
(11.3834 -14.6515 0)
(11.0765 -14.7792 -1.24585e-18)
(10.7867 -14.9501 1.09895e-18)
(10.5429 -15.0843 1.09987e-18)
(10.291 -15.2263 -1.19994e-18)
(9.94854 -15.5209 0)
(8.86984 -5.49082 0)
(15.7956 -10.317 0)
(16.2263 -11.2815 0)
(15.5389 -11.5381 -2.96649e-20)
(14.9579 -11.7504 0)
(14.4486 -11.9921 0)
(13.9443 -12.2323 0)
(13.4803 -12.4325 -1.70421e-19)
(13.0865 -12.7062 0)
(12.6987 -12.907 1.49008e-19)
(12.2865 -13.0972 -2.05874e-20)
(11.9162 -13.2554 -1.45224e-18)
(11.5902 -13.4827 1.09461e-18)
(11.26 -13.6287 -1.43414e-18)
(10.971 -13.8432 1.08281e-18)
(10.7261 -14.0527 0)
(10.4395 -14.2309 -1.23326e-18)
(10.216 -14.4088 1.05527e-18)
(9.98628 -14.576 0)
(9.65128 -14.8915 -1.66455e-19)
(9.10778 -5.09801 6.21431e-19)
(15.3288 -9.17074 1.79842e-19)
(15.5349 -9.97842 7.01635e-19)
(14.9259 -10.3237 -7.21249e-19)
(14.4515 -10.6554 -7.26944e-19)
(13.9408 -10.9279 1.44631e-18)
(13.4445 -11.202 -1.64832e-18)
(12.9883 -11.4385 1.57738e-19)
(12.6188 -11.763 5.29456e-19)
(12.2022 -11.9675 0)
(11.8234 -12.2206 -1.99885e-20)
(11.4592 -12.4184 -1.90466e-20)
(11.1233 -12.6551 1.68051e-19)
(10.8276 -12.8743 1.39013e-18)
(10.4737 -13.0236 -1.2207e-18)
(10.2048 -13.2244 -1.55255e-18)
(9.93766 -13.4376 1.35284e-18)
(9.68738 -13.5925 -1.45617e-20)
(9.48078 -13.7975 -1.71544e-19)
(9.16994 -14.124 -1.23737e-18)
(9.35656 -4.67098 -2.0293e-19)
(14.743 -8.15062 3.22589e-20)
(14.8305 -8.88881 -2.17651e-19)
(14.1951 -9.2342 -8.60516e-19)
(13.6371 -9.57688 5.97659e-19)
(13.2014 -9.90543 0)
(12.731 -10.2438 1.24181e-18)
(12.2652 -10.4775 -5.99606e-19)
(11.9136 -10.8366 4.06951e-19)
(11.5893 -11.1283 2.11752e-19)
(11.2024 -11.3805 -4.01965e-19)
(10.8571 -11.5945 9.76562e-19)
(10.5335 -11.8528 2.03533e-19)
(10.2811 -12.1206 -1.15633e-18)
(10.0205 -12.3912 3.23326e-18)
(9.73988 -12.5764 -1.31637e-18)
(9.49258 -12.8209 1.66414e-18)
(9.25947 -13.0021 -1.0889e-18)
(9.03058 -13.1913 3.56569e-19)
(8.7658 -13.5425 1.72376e-18)
(9.57528 -4.27173 1.03959e-18)
(13.9731 -7.0787 -2.14707e-19)
(13.8619 -7.72347 -2.88007e-20)
(13.398 -8.15283 4.6582e-19)
(12.9513 -8.61008 2.19534e-19)
(12.5034 -8.94641 2.42633e-19)
(12.0825 -9.32786 -1.13829e-18)
(11.6368 -9.60087 6.8858e-19)
(11.2674 -9.95558 -2.14076e-19)
(10.9418 -10.2681 -2.1174e-19)
(10.641 -10.6207 -2.09189e-19)
(10.29 -10.8435 -2.2371e-19)
(9.92825 -11.0646 -4.23546e-19)
(9.63798 -11.2979 1.46725e-18)
(9.37019 -11.5614 -2.05195e-18)
(9.14107 -11.8149 -2.08605e-19)
(8.88279 -12.0399 1.36526e-20)
(8.67727 -12.2571 -1.54233e-18)
(8.45695 -12.4504 1.15009e-18)
(8.19589 -12.7582 -1.83206e-18)
(9.65316 -3.96694 9.29944e-19)
(13.1249 -6.14239 -2.3526e-18)
(12.9082 -6.8331 1.55728e-18)
(12.4118 -7.22052 -2.46299e-19)
(11.9206 -7.67827 -2.68092e-19)
(11.5805 -8.08822 1.04139e-18)
(11.197 -8.51452 -1.26255e-18)
(10.7673 -8.78491 0)
(10.4232 -9.16898 9.76175e-19)
(10.1215 -9.4846 -9.59883e-19)
(9.83369 -9.85052 -6.99782e-19)
(9.61994 -10.2069 9.12731e-19)
(9.30936 -10.486 2.19991e-19)
(9.03497 -10.7345 -8.93961e-19)
(8.7734 -11.0088 2.15416e-19)
(8.5452 -11.2648 1.07242e-18)
(8.3376 -11.5585 -1.89271e-18)
(8.13001 -11.7812 1.24871e-18)
(7.95044 -12.0418 -1.16076e-20)
(7.71058 -12.3484 -1.74268e-18)
(9.46821 -3.58711 1.28044e-18)
(12.1033 -5.2423 -8.63684e-19)
(11.8053 -5.87826 5.76741e-19)
(11.5115 -6.3643 7.40978e-21)
(11.1168 -6.876 -1.13488e-18)
(10.7252 -7.26336 -1.08159e-18)
(10.4527 -7.77186 1.34361e-18)
(10.057 -8.08367 -7.90394e-19)
(9.68794 -8.44275 1.04762e-18)
(9.39812 -8.78445 0)
(9.07774 -9.10983 1.56826e-20)
(8.82293 -9.42785 2.39788e-19)
(8.58446 -9.76625 2.4954e-19)
(8.31236 -10.0125 -2.44375e-19)
(8.05827 -10.2774 0)
(7.82091 -10.5133 2.34201e-19)
(7.6028 -10.7734 0)
(7.42647 -11.0286 4.37621e-19)
(7.24579 -11.2768 2.13555e-18)
(7.07429 -11.6401 -1.43505e-20)
(9.04157 -3.13419 7.05315e-19)
(11.0929 -4.47941 -1.49652e-19)
(10.7539 -5.14823 -2.17188e-18)
(10.3474 -5.57498 1.21542e-18)
(9.95492 -6.10216 2.89496e-19)
(9.6403 -6.52918 -2.84943e-19)
(9.36949 -7.05334 -1.15715e-18)
(9.0826 -7.4365 8.62017e-19)
(8.7424 -7.8259 0)
(8.49297 -8.19351 0)
(8.25534 -8.60365 -1.3273e-18)
(8.04285 -8.9638 1.05016e-18)
(7.83075 -9.34401 -2.49491e-19)
(7.64857 -9.68765 -7.56065e-19)
(7.41735 -9.98704 6.443e-21)
(7.21419 -10.2577 1.68688e-18)
(6.98503 -10.5046 -9.42978e-19)
(6.79119 -10.7244 6.91516e-19)
(6.5994 -10.9553 -1.12214e-18)
(6.39949 -11.2356 0)
(8.43909 -2.6521 -6.11703e-19)
(9.93163 -3.71125 9.91094e-19)
(9.59004 -4.36398 1.69038e-19)
(9.42903 -4.90829 1.66088e-19)
(9.09602 -5.46039 0)
(8.70859 -5.84082 1.24594e-18)
(8.52127 -6.41555 -1.22407e-18)
(8.26441 -6.83103 1.5337e-19)
(7.93724 -7.20703 0)
(7.63386 -7.52257 1.14524e-18)
(7.33415 -7.84613 -9.82928e-19)
(7.11586 -8.18353 1.09539e-18)
(6.905 -8.5363 -1.07787e-18)
(6.73525 -8.88827 1.04677e-18)
(6.58297 -9.26122 -8.99786e-19)
(6.4217 -9.58572 -9.99672e-19)
(6.27428 -9.92829 1.96172e-18)
(6.11217 -10.1994 -8.40556e-19)
(5.96842 -10.4927 1.19161e-19)
(5.79521 -10.7965 1.0057e-18)
(7.63334 -2.16864 -4.89055e-19)
(8.79389 -3.09704 5.29034e-19)
(8.3888 -3.75843 -1.69036e-19)
(8.05967 -4.22737 -1.6608e-19)
(7.85914 -4.86814 0)
(7.50892 -5.25748 0)
(7.24684 -5.78795 0)
(7.18707 -6.36026 -3.13132e-19)
(6.99156 -6.87077 -1.22359e-18)
(6.82358 -7.30959 2.39899e-18)
(6.58611 -7.70245 -1.31963e-18)
(6.35018 -8.01658 -1.45697e-19)
(6.13315 -8.35633 0)
(5.92662 -8.63933 0)
(5.74206 -8.96245 -2.66457e-19)
(5.58354 -9.25391 0)
(5.42511 -9.56859 1.01257e-18)
(5.29532 -9.85212 -1.24575e-18)
(5.15377 -10.1408 -1.08345e-18)
(5.02148 -10.4708 1.0535e-18)
(6.71626 -1.6898 5.088e-19)
(7.5711 -2.48745 9.21488e-19)
(7.26656 -3.1764 3.00836e-23)
(7.1295 -3.73558 -1.21865e-21)
(6.93943 -4.37789 1.7513e-19)
(6.65334 -4.7962 -5.09134e-19)
(6.2618 -5.18485 0)
(6.0142 -5.58127 -4.89525e-19)
(5.85548 -6.08066 1.65441e-19)
(5.69549 -6.51792 6.23786e-19)
(5.57747 -7.00765 6.04902e-19)
(5.42936 -7.41452 -4.49526e-19)
(5.27662 -7.8231 1.15263e-18)
(5.12948 -8.18302 -9.91568e-19)
(4.97106 -8.53114 1.23336e-18)
(4.82722 -8.85116 -2.28868e-18)
(4.68258 -9.17249 1.0553e-18)
(4.54897 -9.45804 1.26163e-19)
(4.42378 -9.75286 9.95219e-19)
(4.28208 -10.0758 -1.08698e-18)
(5.64624 -1.25545 1.76895e-19)
(6.21368 -2.03049 -1.87449e-19)
(5.82252 -2.70444 7.52436e-19)
(5.50074 -3.18035 -7.38389e-19)
(5.54015 -3.9783 -3.59579e-19)
(5.49493 -4.59778 -8.75964e-19)
(5.31848 -5.15704 4.3856e-21)
(5.10734 -5.58147 6.74582e-19)
(4.88357 -6.00924 -1.61605e-19)
(4.72385 -6.40587 0)
(4.54051 -6.80404 0)
(4.42693 -7.19391 0)
(4.28197 -7.57799 0)
(4.17466 -7.93319 3.50736e-21)
(4.05174 -8.29798 0)
(3.94316 -8.61104 1.36253e-19)
(3.83133 -8.95541 5.35848e-19)
(3.72479 -9.22748 -1.57384e-18)
(3.624 -9.53631 1.16017e-18)
(3.51018 -9.83517 -1.10224e-18)
(4.60761 -0.917451 0)
(4.9465 -1.67582 -9.96306e-20)
(4.91564 -2.43621 0)
(4.54583 -2.84452 2.81607e-19)
(4.19219 -3.31367 -1.87634e-19)
(4.18793 -3.9048 -7.20058e-19)
(4.07171 -4.47191 4.37849e-21)
(4.01865 -5.00853 6.90919e-19)
(3.89125 -5.51793 -6.6937e-19)
(3.7785 -5.9598 1.31112e-18)
(3.66059 -6.42595 -5.5191e-21)
(3.53304 -6.80125 -6.26401e-19)
(3.43453 -7.24035 6.05282e-19)
(3.31264 -7.57262 -7.42427e-19)
(3.22802 -7.98261 0)
(3.11671 -8.28405 -5.61119e-19)
(3.03844 -8.66433 5.52748e-19)
(2.93776 -8.93591 0)
(2.86392 -9.26709 -1.29559e-19)
(2.76323 -9.5693 0)
(3.12732 -0.582417 1.01528e-19)
(3.21966 -1.26796 9.96038e-20)
(3.31348 -2.13727 0)
(3.39166 -2.84977 3.83731e-19)
(3.19046 -3.43979 -4.73377e-19)
(3.00381 -3.90709 2.74537e-19)
(2.91134 -4.48727 -8.09308e-19)
(2.78265 -4.91223 3.5197e-19)
(2.72257 -5.46636 -8.59956e-20)
(2.61621 -5.84858 0)
(2.55777 -6.35136 -8.17265e-20)
(2.46924 -6.69784 -7.9661e-20)
(2.40749 -7.14785 -7.76447e-20)
(2.33363 -7.46714 0)
(2.269 -7.87033 -5.8406e-19)
(2.20641 -8.16732 1.21653e-18)
(2.14223 -8.5339 -1.04605e-18)
(2.08817 -8.80766 5.47079e-19)
(2.03055 -9.12525 6.67115e-20)
(1.97838 -9.42382 5.71107e-19)
(2.33813 -0.577025 -1.5527e-19)
(2.01653 -0.983527 -2.03746e-19)
(1.8945 -1.68977 5.82167e-22)
(1.87304 -2.2168 5.36592e-19)
(1.9443 -2.9935 -1.4427e-19)
(1.87907 -3.48235 -9.31007e-20)
(1.84966 -4.13739 9.16825e-20)
(1.78268 -4.59185 1.78077e-19)
(1.73563 -5.16386 8.59841e-20)
(1.6822 -5.58832 -3.35799e-19)
(1.628 -6.09277 3.70807e-19)
(1.58042 -6.48624 7.96509e-20)
(1.52815 -6.93525 3.88392e-19)
(1.4841 -7.29794 -3.069e-21)
(1.43654 -7.70035 3.41325e-20)
(1.395 -8.03291 -6.5022e-19)
(1.35094 -8.39839 1.77929e-19)
(1.31228 -8.70002 0)
(1.27148 -9.0173 -3.31107e-20)
(1.2342 -9.33071 -2.88512e-19)
(0.292651 -1.06015 0)
(0.882581 -1.04255 -1.00244e-19)
(0.682718 -2.1224 1.19945e-19)
(0.655061 -2.41272 -4.9499e-20)
(0.48753 -3.15727 -4.84425e-20)
(0.52341 -3.54679 0)
(0.456404 -4.19022 -9.11367e-20)
(0.488745 -4.58519 1.78415e-19)
(0.448236 -5.1552 -8.73413e-20)
(0.471299 -5.53692 8.43967e-20)
(0.440781 -6.05001 -4.1802e-20)
(0.455659 -6.40935 -8.01369e-20)
(0.429717 -6.87396 1.5695e-19)
(0.439542 -7.20858 -1.52959e-19)
(0.416346 -7.63064 3.77447e-20)
(0.423142 -7.9401 2.58097e-34)
(0.40288 -8.32772 -3.51319e-20)
(0.407384 -8.60916 2.06834e-19)
(0.391183 -8.94768 -1.02051e-19)
(0.393199 -9.25074 -7.33064e-20)
(-0.139791 1.52126 4.8345e-20)
(-0.10002 1.12246 2.37248e-20)
(0.455398 -0.829571 0)
(1.95938 -5.94078 1.13865e-20)
(5.14603 -15.0099 1.51331e-20)
(7.50279 -22.0933 2.14985e-20)
(8.77112 -25.7716 0)
(9.18071 -27.0779 1.97741e-20)
(9.313 -27.4951 0)
(9.33024 -27.6079 0)
(9.29375 -27.5805 -1.64478e-20)
(9.23084 -27.4937 5.88037e-22)
(9.13421 -27.4103 3.50919e-20)
(9.10298 -27.3684 0)
(9.03572 -27.3823 1.54698e-20)
(8.98811 -27.3281 1.54704e-20)
(8.90856 -27.3326 1.50446e-20)
(8.85074 -27.2588 0)
(8.76804 -27.2844 -2.77717e-20)
(8.73814 -27.2392 2.57727e-20)
(-0.121495 1.43567 0)
(0.251394 0.340754 0)
(1.08505 -3.20715 0)
(3.97888 -11.4728 -7.82478e-20)
(6.9451 -19.8962 1.09861e-19)
(8.70625 -24.7789 -1.93477e-19)
(9.36991 -26.7565 8.29142e-20)
(9.54594 -27.3549 5.92567e-20)
(9.57844 -27.5076 -2.49392e-19)
(9.54858 -27.4762 1.36119e-19)
(9.46166 -27.3924 -1.79143e-20)
(9.39394 -27.2934 1.39132e-19)
(9.3249 -27.2846 -2.58251e-21)
(9.28192 -27.2232 -1.32217e-19)
(9.18188 -27.2008 -1.60813e-20)
(9.14136 -27.1498 -1.52713e-20)
(9.04839 -27.157 -1.47885e-20)
(9.00677 -27.0962 0)
(8.89025 -27.0883 -1.07622e-19)
(8.85449 -27.006 1.77399e-21)
(-0.111483 1.19757 -4.85651e-20)
(0.449812 -1.00606 0)
(2.1725 -6.53417 0)
(5.9648 -16.4422 -2.46777e-20)
(8.26365 -23.1584 4.41052e-20)
(9.38697 -26.2779 0)
(9.6908 -27.2141 -4.04385e-20)
(9.76066 -27.4474 1.09507e-19)
(9.73021 -27.4296 -1.04505e-19)
(9.65198 -27.337 1.4143e-19)
(9.57282 -27.2282 -1.79422e-19)
(9.52334 -27.1858 0)
(9.44042 -27.1122 -1.30745e-19)
(9.38773 -27.037 -1.23212e-19)
(9.30752 -27.0416 2.17865e-19)
(9.27301 -26.9878 -2.30671e-19)
(9.16745 -26.9701 1.99706e-19)
(9.11984 -26.8655 0)
(8.99935 -26.8569 -2.34443e-19)
(8.97768 -26.7834 3.84601e-19)
(0.250603 0.778992 2.43394e-19)
(0.806689 -2.80923 0)
(3.96763 -11.1211 4.55361e-20)
(7.36386 -20.2158 1.28036e-19)
(9.25521 -25.2041 -2.67268e-19)
(9.87011 -26.9065 8.34603e-20)
(10.0233 -27.3326 3.85752e-20)
(10.0039 -27.3248 3.89723e-19)
(9.9568 -27.2702 -5.81514e-19)
(9.8688 -27.1283 -6.40709e-20)
(9.81112 -27.0744 3.17971e-19)
(9.73386 -26.9791 6.60769e-20)
(9.65678 -26.9247 -3.17076e-19)
(9.60828 -26.8854 3.10426e-19)
(9.51129 -26.8583 8.83399e-20)
(9.46445 -26.7752 -5.57862e-20)
(9.33784 -26.7317 8.14843e-20)
(9.29876 -26.6655 0)
(9.18131 -26.6638 -2.25009e-20)
(9.15165 -26.5582 0)
(0.430796 -0.346202 0)
(1.54814 -4.78833 3.81105e-19)
(5.4926 -14.9469 -4.66735e-19)
(8.60782 -22.9087 4.53386e-19)
(9.89121 -26.2899 -3.57309e-19)
(10.219 -27.1913 -8.4349e-20)
(10.2465 -27.2811 0)
(10.2159 -27.2485 2.11608e-19)
(10.1415 -27.1256 -2.96204e-19)
(10.0481 -26.9974 3.53617e-19)
(9.97829 -26.8969 -2.76913e-19)
(9.90578 -26.829 -6.6077e-20)
(9.8321 -26.7643 3.09404e-19)
(9.75897 -26.6848 -5.38367e-19)
(9.66994 -26.6494 3.43064e-19)
(9.61505 -26.5654 -1.12706e-19)
(9.49436 -26.543 -2.60497e-19)
(9.45742 -26.4473 5.90854e-19)
(9.31242 -26.4266 -3.30645e-19)
(9.28054 -26.2806 -3.87499e-19)
(0.369978 -1.31545 4.02102e-19)
(2.51054 -7.43935 3.89603e-19)
(7.07864 -18.4139 -3.83746e-19)
(9.54869 -24.7387 -9.39879e-20)
(10.4006 -26.8396 8.88644e-20)
(10.5871 -27.222 3.20564e-19)
(10.571 -27.2054 -3.04253e-19)
(10.504 -27.0684 0)
(10.4126 -26.9146 2.89981e-19)
(10.3263 -26.7723 -2.85138e-19)
(10.2659 -26.7171 -2.62328e-19)
(10.1762 -26.6137 2.58063e-19)
(10.0878 -26.5274 0)
(10.0164 -26.4783 0)
(9.9175 -26.4283 4.87657e-19)
(9.84238 -26.3315 -4.78522e-19)
(9.70369 -26.2705 -3.93032e-19)
(9.66031 -26.1894 3.81537e-19)
(9.50149 -26.1695 -3.4852e-19)
(9.46691 -26.0098 4.19967e-19)
(0.449878 -2.25771 -3.07742e-19)
(3.83375 -10.5162 1.06955e-19)
(8.18769 -20.7275 8.05926e-21)
(10.3302 -25.8266 4.81282e-19)
(10.858 -27.1092 0)
(10.9104 -27.1987 0)
(10.8602 -27.0796 6.11458e-19)
(10.7564 -26.8921 -2.42188e-20)
(10.6815 -26.7582 -5.92258e-19)
(10.5821 -26.6306 5.38713e-19)
(10.4955 -26.5104 -5.29834e-19)
(10.3924 -26.4019 0)
(10.3092 -26.3318 4.57517e-19)
(10.2119 -26.2443 -4.50311e-19)
(10.1071 -26.1699 0)
(10.0178 -26.0633 0)
(9.88875 -26.0335 0)
(9.84395 -25.9373 0)
(9.65654 -25.894 0)
(9.62012 -25.6894 -4.06775e-20)
(0.783827 -3.12175 3.27677e-19)
(5.06675 -12.9021 -5.31011e-19)
(9.40009 -22.686 0)
(11.0803 -26.5249 0)
(11.3694 -27.1248 7.86203e-19)
(11.3682 -27.074 4.9916e-20)
(11.254 -26.8591 -7.28092e-19)
(11.1699 -26.6924 0)
(11.0494 -26.5113 7.02767e-20)
(10.9295 -26.334 -6.58241e-20)
(10.8412 -26.2528 0)
(10.7254 -26.1367 5.78865e-20)
(10.6136 -26.0319 -4.91185e-19)
(10.5092 -25.9629 8.92882e-19)
(10.393 -25.8879 -1.69581e-20)
(10.2821 -25.7893 -3.82555e-19)
(10.1341 -25.7184 -4.2646e-20)
(10.0665 -25.6209 3.99594e-20)
(9.85948 -25.5722 0)
(9.824 -25.3712 3.49716e-20)
(1.23629 -4.03942 2.18661e-19)
(6.42094 -14.9294 2.03896e-19)
(10.4741 -23.8325 -6.49731e-19)
(11.7867 -26.7249 1.9889e-19)
(11.8943 -27.0181 8.9385e-20)
(11.8181 -26.8693 7.32699e-19)
(11.6541 -26.6178 -1.04057e-18)
(11.5244 -26.4207 7.5771e-19)
(11.3934 -26.2433 -6.10719e-19)
(11.2593 -26.1084 7.23764e-19)
(11.1377 -25.9745 1.17807e-19)
(10.9926 -25.8363 4.93273e-19)
(10.8796 -25.7565 -2.77537e-19)
(10.7486 -25.6574 -5.34093e-19)
(10.6158 -25.5589 4.70752e-19)
(10.4846 -25.4429 0)
(10.3467 -25.4011 1.20967e-19)
(10.2646 -25.303 3.30716e-20)
(10.0466 -25.2399 -6.87418e-20)
(10.0007 -25.0105 2.83152e-20)
(2.04214 -5.22249 0)
(7.61683 -16.3758 3.73225e-19)
(11.5642 -24.7 -1.96983e-23)
(12.4966 -26.7632 -3.87875e-19)
(12.474 -26.7633 -3.51044e-19)
(12.3242 -26.5236 -1.67184e-19)
(12.1381 -26.2817 -4.85815e-21)
(11.9948 -26.0962 -1.46447e-19)
(11.8199 -25.8983 0)
(11.6454 -25.7053 -1.26513e-19)
(11.5082 -25.6044 -1.17796e-19)
(11.3497 -25.4802 -7.23511e-21)
(11.1996 -25.3691 3.77613e-19)
(11.055 -25.2875 -1.95416e-19)
(10.9071 -25.2002 -4.23047e-19)
(10.7581 -25.1053 3.28588e-19)
(10.5958 -25.0288 2.11909e-19)
(10.4808 -24.928 -3.59128e-19)
(10.2546 -24.8615 6.89073e-20)
(10.1951 -24.6477 4.08896e-19)
(2.52331 -5.82615 -2.26897e-19)
(8.74225 -17.4304 9.57577e-19)
(12.5258 -24.9623 -1.24237e-18)
(13.1632 -26.4389 9.92998e-19)
(13.0474 -26.3927 8.5335e-19)
(12.8353 -26.1219 -6.74754e-19)
(12.6101 -25.8833 -8.78463e-19)
(12.4069 -25.6722 3.75384e-20)
(12.2067 -25.4747 5.23183e-19)
(12.0191 -25.3403 -3.38425e-19)
(11.8473 -25.2057 8.57145e-19)
(11.6503 -25.0587 -5.10293e-19)
(11.4938 -24.979 -9.4949e-20)
(11.3201 -24.8779 2.37197e-19)
(11.1475 -24.7746 -6.20419e-19)
(10.9711 -24.6619 2.95718e-19)
(10.8091 -24.6172 0)
(10.6743 -24.5275 -4.75449e-19)
(10.4428 -24.4587 4.68044e-19)
(10.3583 -24.2287 -3.61129e-19)
(3.18108 -6.85691 2.23581e-19)
(9.84953 -18.2969 2.50734e-19)
(13.4713 -25.1027 1.06781e-18)
(13.8516 -26.0923 9.02281e-19)
(13.6131 -25.8924 -5.42742e-19)
(13.3587 -25.606 7.50911e-19)
(13.0964 -25.3766 -4.44044e-19)
(12.8764 -25.1923 4.96959e-19)
(12.6356 -24.9983 -9.41243e-19)
(12.3967 -24.8098 3.33554e-19)
(12.2039 -24.7084 0)
(11.9931 -24.5872 0)
(11.7954 -24.4815 0)
(11.6066 -24.4005 -5.72784e-19)
(11.4179 -24.316 5.63919e-19)
(11.2253 -24.231 0)
(11.0398 -24.1542 0)
(10.8702 -24.0672 -4.64266e-20)
(10.6288 -24.0011 0)
(10.5386 -23.7895 -3.82449e-19)
(3.73817 -7.30741 -4.35401e-19)
(10.8855 -18.7005 -1.08155e-18)
(14.263 -24.7657 -7.4456e-19)
(14.4565 -25.4372 -1.19513e-19)
(14.1531 -25.269 9.63499e-19)
(13.8728 -25.0178 -2.00784e-19)
(13.5617 -24.795 -4.51935e-20)
(13.2819 -24.5978 -6.04314e-19)
(13.0112 -24.4082 0)
(12.7615 -24.2894 -2.78539e-19)
(12.5335 -24.1698 4.42282e-19)
(12.2822 -24.0341 0)
(12.0777 -23.9684 5.39345e-19)
(11.8597 -23.8779 -5.30867e-19)
(11.6422 -23.786 4.36614e-19)
(11.4234 -23.6858 -7.76965e-19)
(11.2335 -23.6454 3.86415e-19)
(11.0497 -23.5801 4.64259e-20)
(10.8056 -23.5213 -3.12408e-20)
(10.7009 -23.3059 2.5452e-19)
(4.38507 -7.82611 -5.92447e-19)
(11.9123 -18.9501 4.28514e-20)
(14.9954 -24.4243 6.3012e-20)
(15.0941 -24.8089 1.3264e-18)
(14.6651 -24.5749 9.69989e-20)
(14.3449 -24.3212 -6.78928e-19)
(14.0035 -24.1194 -4.48999e-19)
(13.7057 -23.9614 1.52641e-19)
(13.4004 -23.7883 4.79155e-19)
(13.0957 -23.6204 -4.818e-19)
(12.8493 -23.5413 2.31076e-19)
(12.5848 -23.4376 -5.55758e-19)
(12.3368 -23.3493 4.38484e-19)
(12.1052 -23.2875 -3.86737e-19)
(11.874 -23.2231 3.42517e-19)
(11.6397 -23.1501 2.51172e-19)
(11.4197 -23.0837 -2.92035e-19)
(11.2065 -23.0287 1.99597e-19)
(10.9633 -22.9926 -1.87408e-19)
(10.8467 -22.7923 -1.82274e-19)
(4.93757 -8.05392 -7.3969e-19)
(12.7743 -18.8369 -1.29716e-19)
(15.6237 -23.7448 6.74753e-19)
(15.5823 -23.9384 -5.68818e-19)
(15.1348 -23.7671 5.58361e-19)
(14.7782 -23.5659 1.2418e-19)
(14.3987 -23.3706 0)
(14.043 -23.2103 -8.09832e-20)
(13.7102 -23.0511 2.09974e-19)
(13.3997 -22.9591 -7.30303e-19)
(13.1172 -22.8661 5.06633e-19)
(12.8166 -22.7584 1.01815e-19)
(12.5658 -22.7182 5.09775e-20)
(12.3063 -22.6497 0)
(12.0484 -22.5854 1.39704e-20)
(11.7932 -22.5097 1.92488e-19)
(11.5712 -22.4856 -3.37979e-20)
(11.3443 -22.4494 3.95391e-21)
(11.0992 -22.4283 -1.20978e-19)
(10.9814 -22.2421 1.8302e-20)
(5.5221 -8.22616 6.64114e-19)
(13.6237 -18.6474 -1.132e-18)
(16.239 -22.984 6.18233e-19)
(16.0882 -23.0913 4.9298e-19)
(15.5703 -22.8859 -5.74663e-20)
(15.1601 -22.6935 -3.31175e-19)
(14.758 -22.5379 7.45596e-20)
(14.3889 -22.4255 8.09749e-20)
(14.0216 -22.2889 0)
(13.6559 -22.1562 0)
(13.3626 -22.1206 -3.18034e-19)
(13.0486 -22.0458 5.01424e-19)
(12.7529 -21.9878 -2.54957e-19)
(12.4851 -21.962 0)
(12.2153 -21.9304 1.51095e-20)
(11.9424 -21.8747 -8.29179e-20)
(11.6871 -21.8281 7.74478e-20)
(11.4362 -21.8136 -1.03894e-20)
(11.2003 -21.8246 2.12482e-20)
(11.0665 -21.6498 -6.54617e-21)
(6.03927 -8.25173 -5.78331e-19)
(14.3085 -18.2096 7.21677e-19)
(16.7012 -21.9847 0)
(16.4226 -22.0358 0)
(15.9158 -21.9159 8.04833e-20)
(15.4728 -21.7858 -3.74737e-19)
(15.0351 -21.6395 2.36688e-20)
(14.6155 -21.5359 2.33406e-19)
(14.2318 -21.4284 -3.09797e-19)
(13.8649 -21.3695 5.45386e-19)
(13.5338 -21.3157 -2.36799e-19)
(13.1941 -21.2535 3.65984e-20)
(12.9002 -21.2446 7.8554e-20)
(12.6041 -21.2087 -4.46743e-20)
(12.3155 -21.1933 -2.87932e-20)
(12.0321 -21.1535 4.407e-21)
(11.7746 -21.1526 7.25922e-20)
(11.5034 -21.1459 -7.14396e-20)
(11.2672 -21.1702 1.43397e-20)
(11.1405 -21.0344 -1.26554e-19)
(6.52424 -8.22072 0)
(14.972 -17.698 3.09341e-19)
(17.0786 -21.0504 -3.52869e-19)
(16.7597 -21.0215 0)
(16.1839 -20.8881 -8.04698e-20)
(15.703 -20.7814 1.98361e-19)
(15.2595 -20.6884 -2.4877e-19)
(14.8361 -20.6376 0)
(14.4182 -20.5513 1.50404e-19)
(14.0039 -20.465 -1.47902e-19)
(13.6737 -20.4842 -2.92069e-21)
(13.3209 -20.4477 -9.49464e-21)
(12.9862 -20.4317 -3.35897e-21)
(12.6894 -20.4465 2.1189e-21)
(12.3891 -20.4557 1.46815e-19)
(12.0865 -20.4274 -3.08566e-19)
(11.7977 -20.4131 3.65599e-19)
(11.5149 -20.4406 -4.1167e-19)
(11.2752 -20.4841 1.94243e-19)
(11.146 -20.3769 -2.52069e-20)
(6.95553 -8.07843 0)
(15.48 -16.9806 -3.3035e-19)
(17.3119 -19.8585 1.85011e-19)
(16.9156 -19.8539 1.61784e-19)
(16.3881 -19.7973 -5.14457e-20)
(15.8722 -19.7567 -4.52372e-20)
(15.3975 -19.6745 -1.01431e-19)
(14.9349 -19.6382 0)
(14.5155 -19.5994 0)
(14.0993 -19.5724 0)
(13.7277 -19.5673 2.92043e-21)
(13.3631 -19.5629 0)
(13.0308 -19.5902 2.47103e-19)
(12.7035 -19.5965 -2.09915e-19)
(12.3968 -19.6432 2.79739e-19)
(12.0934 -19.6464 -5.82671e-19)
(11.7931 -19.6722 3.02576e-19)
(11.4839 -19.6896 3.93505e-19)
(11.2212 -19.7494 -7.0442e-19)
(11.0995 -19.6451 3.77949e-19)
(7.37 -7.89991 0)
(15.9432 -16.2378 0)
(17.509 -18.7399 5.92211e-20)
(17.0347 -18.7442 4.45451e-20)
(16.4603 -18.6761 0)
(15.9214 -18.6668 3.42491e-21)
(15.4501 -18.6496 -3.36504e-21)
(14.9972 -18.6674 0)
(14.5452 -18.6441 -1.95144e-19)
(14.098 -18.6072 1.91896e-19)
(13.7394 -18.6755 0)
(13.36 -18.6802 3.3271e-19)
(12.9965 -18.7073 7.0357e-21)
(12.6719 -18.7518 -3.62533e-19)
(12.3465 -18.8004 0)
(12.0239 -18.8119 0)
(11.694 -18.8468 0)
(11.3949 -18.8752 4.44627e-19)
(11.071 -18.8847 -4.88626e-19)
(10.9114 -18.8336 0)
(8.09643 -27.0513 0)
(7.70519 -26.6224 0)
(6.9116 -26.6299 -2.22738e-21)
(6.46207 -26.5351 -2.13623e-21)
(5.88491 -26.6506 0)
(5.39023 -26.576 -9.31104e-24)
(4.90664 -26.5921 1.94913e-21)
(4.42719 -26.6041 0)
(4.00275 -26.7144 1.73396e-21)
(3.57999 -26.7214 0)
(3.18668 -26.7077 -1.63516e-21)
(2.82927 -26.6979 -7.99503e-22)
(2.47765 -26.6849 8.03898e-22)
(2.18957 -26.6759 1.4987e-21)
(1.88352 -26.6512 0)
(1.64598 -26.5643 -3.5393e-22)
(1.36067 -26.3803 1.3798e-21)
(1.18426 -24.7857 0)
(0.708858 -19.7645 0)
(0.239522 -10.6705 1.31156e-21)
(8.16374 -26.8115 1.16619e-20)
(7.791 -26.4424 0)
(6.96753 -26.4486 1.0671e-20)
(6.47292 -26.3535 -6.35568e-21)
(5.89875 -26.5138 0)
(5.36851 -26.4695 -9.2053e-21)
(4.85494 -26.471 3.66516e-21)
(4.35837 -26.4691 0)
(3.94241 -26.5838 1.57884e-21)
(3.52062 -26.5975 -3.32896e-21)
(3.1354 -26.5919 4.76596e-21)
(2.78414 -26.5939 -6.19765e-21)
(2.44321 -26.597 4.54928e-21)
(2.1657 -26.6001 -1.54691e-21)
(1.86928 -26.5812 -1.45168e-21)
(1.64115 -26.497 1.36319e-21)
(1.37473 -26.3182 -2.19212e-21)
(1.18614 -24.6832 -3.24423e-21)
(0.69417 -19.5984 -1.58088e-21)
(0.250563 -10.5253 -1.6355e-21)
(8.26609 -26.5819 -2.97554e-21)
(7.87441 -26.2463 -1.05783e-20)
(6.95834 -26.2509 -7.82767e-21)
(6.51428 -26.206 0)
(5.92496 -26.3325 0)
(5.39774 -26.268 1.04885e-20)
(4.92525 -26.3044 -2.76277e-22)
(4.43994 -26.3345 -2.11065e-22)
(4.0239 -26.4677 -2.14056e-22)
(3.59672 -26.4864 -6.2825e-21)
(3.20794 -26.492 0)
(2.85087 -26.4986 0)
(2.50129 -26.5043 0)
(2.21526 -26.5111 -5.45775e-21)
(1.90805 -26.5002 0)
(1.67616 -26.4219 -5.21532e-21)
(1.38795 -26.2566 4.0601e-21)
(1.19802 -24.6119 1.9575e-21)
(0.716318 -19.5186 3.191e-21)
(0.260198 -10.4151 4.896e-21)
(8.35362 -26.3304 1.82686e-20)
(7.95645 -26.0526 -3.5911e-20)
(7.01135 -26.057 3.01091e-22)
(6.53317 -26.024 1.4917e-20)
(5.94046 -26.1894 0)
(5.37997 -26.1602 1.28147e-20)
(4.87944 -26.1855 -3.13263e-20)
(4.3737 -26.2 1.84919e-20)
(3.96414 -26.3368 -1.18651e-20)
(3.5379 -26.363 5.75411e-21)
(3.15674 -26.3774 -2.35984e-22)
(2.80484 -26.3944 -5.5022e-21)
(2.46542 -26.4165 5.52974e-21)
(2.18904 -26.4358 2.82377e-21)
(1.89184 -26.4314 2.64632e-21)
(1.66869 -26.3562 5.21219e-21)
(1.39935 -26.1958 -5.04533e-21)
(1.1988 -24.5172 2.45131e-21)
(0.703824 -19.3709 -1.21937e-21)
(0.269647 -10.2743 -4.88831e-21)
(8.46766 -26.0819 4.06318e-20)
(8.03298 -25.8295 8.49131e-21)
(7.02088 -25.8484 -1.43835e-20)
(6.58526 -25.8732 2.04326e-20)
(5.97151 -26.0014 0)
(5.4101 -25.9573 -5.87803e-21)
(4.95066 -26.0187 6.08012e-21)
(4.45565 -26.0645 0)
(4.04571 -26.2202 3.81168e-22)
(3.61376 -26.2526 0)
(3.22829 -26.2779 -1.07704e-20)
(2.87072 -26.3004 0)
(2.52223 -26.3247 0)
(2.23735 -26.3475 -9.93926e-21)
(1.92839 -26.3513 5.03412e-21)
(1.70166 -26.2823 -4.76664e-21)
(1.4099 -26.1358 0)
(1.20908 -24.4527 1.17065e-21)
(0.722906 -19.2987 -1.17222e-21)
(0.278826 -10.164 0)
(8.57461 -25.8042 1.54342e-20)
(8.11662 -25.6185 -1.47264e-20)
(7.08521 -25.6458 3.11262e-20)
(6.60944 -25.6878 -3.22142e-20)
(5.9896 -25.85 1.10076e-20)
(5.39792 -25.8476 5.89624e-21)
(4.9096 -25.901 -1.04631e-20)
(4.39162 -25.9298 -1.0256e-20)
(3.98667 -26.0889 5.42901e-21)
(3.55547 -26.1297 1.0166e-20)
(3.1771 -26.1643 -4.97872e-21)
(2.824 -26.1965 0)
(2.48507 -26.2373 0)
(2.20904 -26.2725 3.60781e-22)
(1.91033 -26.2837 -4.78463e-21)
(1.6916 -26.2181 4.76199e-21)
(1.41876 -26.0768 0)
(1.20878 -24.3668 -8.85437e-21)
(0.71204 -19.1697 -8.25031e-21)
(0.287015 -10.0279 -5.59286e-22)
(8.68815 -25.5298 -4.31633e-20)
(8.17623 -25.3716 4.45185e-20)
(7.11299 -25.4288 -1.24409e-20)
(6.65541 -25.5303 0)
(6.01887 -25.656 -1.10542e-20)
(5.43022 -25.6443 2.04708e-20)
(4.9808 -25.7341 -1.00458e-20)
(4.47325 -25.7934 1.02847e-20)
(4.06771 -25.972 0)
(3.6311 -26.0198 0)
(3.24766 -26.0653 9.36942e-21)
(2.88888 -26.1031 -9.4038e-21)
(2.54039 -26.1459 0)
(2.25572 -26.1846 1.38428e-20)
(1.9444 -26.2043 -4.52919e-21)
(1.72204 -26.1455 -4.38974e-21)
(1.42676 -26.0188 3.53203e-21)
(1.21757 -24.3102 1.09961e-20)
(0.727861 -19.1052 5.5517e-21)
(0.295862 -9.91852 1.07314e-21)
(8.8067 -25.2255 0)
(8.26463 -25.1423 -2.37085e-20)
(7.20052 -25.2176 2.3778e-20)
(6.69137 -25.3381 0)
(6.04535 -25.4986 0)
(5.42378 -25.5333 -1.87197e-20)
(4.94219 -25.6161 1.87756e-20)
(4.41116 -25.6582 0)
(4.00969 -25.8404 8.93232e-21)
(3.57346 -25.8974 -1.78037e-20)
(3.19634 -25.9526 8.87071e-21)
(2.8417 -25.9997 8.68353e-21)
(2.50225 -26.0589 -8.70992e-21)
(2.22559 -26.1098 0)
(1.92462 -26.1377 0)
(1.70932 -26.0825 -4.18951e-21)
(1.4332 -25.9619 5.03585e-21)
(1.21621 -24.2336 -1.05485e-23)
(0.71807 -18.9953 -3.09629e-21)
(0.303152 -9.78774 1.03024e-21)
(8.93093 -24.9334 2.43195e-20)
(8.31521 -24.8829 -2.44144e-20)
(7.24176 -24.9908 -2.80368e-20)
(6.72259 -25.1693 3.73551e-20)
(6.0721 -25.2973 -3.55094e-20)
(5.45923 -25.3284 2.61143e-22)
(5.01223 -25.4492 1.70839e-20)
(4.49185 -25.5216 0)
(4.08956 -25.7229 0)
(3.64853 -25.7883 7.83626e-21)
(3.26566 -25.854 0)
(2.90523 -25.9067 0)
(2.55576 -25.9676 0)
(2.2703 -26.0223 0)
(1.95599 -26.0589 0)
(1.7366 -26.0114 0)
(1.43878 -25.9062 -3.17949e-21)
(1.22367 -24.1855 3.96686e-21)
(0.730282 -18.9385 -9.85198e-22)
(0.311953 -9.68034 9.85885e-22)
(9.07399 -24.5707 -2.31614e-20)
(8.40941 -24.6338 -3.13547e-20)
(7.33763 -24.7666 -7.84819e-21)
(6.76554 -24.9656 -7.20605e-21)
(6.10602 -25.1401 8.01491e-21)
(5.45593 -25.2151 2.26272e-20)
(4.97306 -25.3288 7.19041e-21)
(4.43158 -25.3857 0)
(4.03252 -25.591 -7.87322e-21)
(3.59196 -25.6666 1.4418e-20)
(3.2145 -25.7419 7.26578e-21)
(2.85805 -25.804 7.21133e-21)
(2.51703 -25.8809 0)
(2.23867 -25.9475 7.26425e-21)
(1.93462 -25.9929 7.37338e-21)
(1.721 -25.9497 0)
(1.443 -25.8515 0)
(1.22122 -24.1191 0)
(0.72097 -18.8476 0)
(0.318932 -9.55538 0)
(9.2124 -24.2442 8.31708e-20)