/*--------------------------------*- C++ -*----------------------------------*\
  =========                 |
  \\      /  F ield         | OpenFOAM: The Open Source CFD Toolbox
   \\    /   O peration     | Website:  https://openfoam.org
    \\  /    A nd           | Version:  9
     \\/     M anipulation  |
\*---------------------------------------------------------------------------*/
FoamFile
{
    format      ascii;
    class       volScalarField;
    location    "3.6";
    object      p;
}
// * * * * * * * * * * * * * * * * * * * * * * * * * * * * * * * * * * * * * //

dimensions      [0 2 -2 0 0 0 0];

internalField   nonuniform List<scalar> 
46400
(
-88.9603
-82.3151
-69.0429
-58.4808
-48.7054
-39.7776
-31.7949
-24.4346
-17.7925
-11.6945
-6.1035
-0.938509
3.84052
8.30183
12.5094
16.4966
20.2147
24.1382
28.1057
29.3315
-63.0424
-56.3921
-44.2269
-34.3684
-25.4627
-17.2298
-9.92199
-3.18777
2.84717
8.38593
13.4114
17.9912
22.1919
26.0332
29.5668
32.8183
35.7854
38.7739
41.4851
42.148
-36.4037
-29.81
-19.0516
-9.82884
-1.80646
5.67812
12.2796
18.3424
23.7655
28.6878
33.1627
37.2257
40.9148
44.277
47.3417
50.1106
52.5578
54.9946
56.8995
56.6167
-9.27326
-3.39989
5.97547
14.4537
21.6954
28.439
34.3464
39.7238
44.4987
48.7942
52.641
56.0877
59.1956
61.9768
64.4898
66.7433
68.7355
70.7112
72.3721
71.9639
17.3061
21.9753
30.6009
38.5577
45.1743
51.254
56.5237
61.2597
65.4232
69.1112
72.3943
75.2912
77.8478
80.1026
82.0838
83.795
85.2434
86.6913
87.7414
86.9009
42.5401
47.5288
55.4951
62.6555
68.5153
73.8101
78.3308
82.3361
85.8312
88.8719
91.5406
93.8631
95.9008
97.6562
99.1954
100.5
101.584
102.66
103.449
102.401
68.5823
73.7676
80.7086
86.9143
91.8854
96.344
100.121
103.387
106.205
108.598
110.654
112.387
113.847
115.059
116.063
116.862
117.463
118.079
118.474
117.198
94.1087
99.6923
105.25
110.422
114.482
118.029
121.01
123.525
125.664
127.426
128.904
130.104
131.086
131.843
132.444
132.857
133.105
133.367
133.535
132.097
119.663
125.42
129.515
133.452
136.587
139.216
141.413
143.161
144.599
145.702
146.559
147.164
147.58
147.807
147.895
147.836
147.642
147.488
147.205
145.619
143.846
148.602
151.854
154.664
157.011
158.838
160.338
161.453
162.295
162.845
163.188
163.317
163.284
163.077
162.75
162.285
161.708
161.162
160.513
158.687
166.76
170.223
172.793
174.739
176.325
177.456
178.286
178.767
179.011
178.989
178.788
178.403
177.896
177.247
176.502
175.64
174.686
173.767
172.754
170.767
186.411
189.174
191.201
192.585
193.629
194.22
194.551
194.561
194.362
193.903
193.272
192.457
191.526
190.478
189.348
188.122
186.811
185.526
184.15
181.932
204.894
207.039
208.505
209.282
209.782
209.808
209.614
209.106
208.441
207.557
206.524
205.33
204.027
202.623
201.162
199.629
198.047
196.508
194.943
192.588
220.883
222.508
223.552
223.912
224.011
223.666
223.074
222.205
221.147
219.913
218.546
217.028
215.413
213.68
211.89
210.021
208.114
206.238
204.33
201.863
235.525
236.608
237.174
237.056
236.723
235.968
234.991
233.724
232.319
230.719
229.041
227.228
225.353
223.38
221.353
219.252
217.096
214.957
212.771
210.07
248.546
248.994
249.113
248.581
247.873
246.789
245.527
243.975
242.277
240.402
238.425
236.35
234.211
232.013
229.782
227.506
225.197
222.922
220.667
217.848
259.257
259.127
258.822
257.946
256.874
255.528
254.012
252.29
250.406
248.364
246.21
243.943
241.614
239.211
236.786
234.318
231.831
229.382
226.987
224.116
267.661
267.614
267.023
266.014
264.639
263.019
261.212
259.213
257.117
254.86
252.555
250.13
247.683
245.155
242.627
240.05
237.467
234.919
232.455
229.477
273.097
273.094
272.418
271.46
270.157
268.501
266.638
264.53
262.306
259.925
257.472
254.928
252.339
249.703
247.048
244.377
241.687
239.055
236.521
233.534
278.324
277.856
276.953
275.668
274.123
272.288
270.277
268.046
265.722
263.243
260.723
258.099
255.464
252.765
250.078
247.356
244.635
241.957
239.402
236.356
-219.361
-219.117
-219.511
-218.767
-218.195
-215.366
-212.4
-209.163
-206.105
-203.092
-199.991
-196.943
-194.063
-191.232
-188.498
-185.743
-183.042
-180.466
-177.954
-175.423
-219.816
-219.622
-219.955
-218.275
-216.383
-214.095
-210.586
-207.005
-203.68
-200.25
-196.98
-193.718
-190.648
-187.576
-184.611
-181.734
-178.953
-176.217
-173.612
-170.978
-220.018
-220.111
-219.819
-219.319
-215.642
-212.292
-208.868
-205.315
-201.43
-197.763
-194.185
-190.671
-187.307
-183.943
-180.782
-177.641
-174.645
-171.662
-168.851
-166.059
-222.166
-222.207
-220.758
-219.541
-216.183
-211.948
-207.707
-203.311
-199.201
-195.12
-191.199
-187.368
-183.71
-180.071
-176.685
-173.27
-170.079
-166.964
-163.989
-160.997
-224.174
-223.928
-223.165
-220.014
-215.716
-211.1
-206.202
-201.567
-196.968
-192.534
-188.23
-184.067
-180.063
-176.15
-172.481
-168.792
-165.423
-162.07
-158.953
-155.82
-228.299
-227.548
-226.529
-222.002
-216.614
-211.043
-205.372
-200.058
-194.825
-189.816
-185.026
-180.42
-176.023
-171.769
-167.785
-163.835
-160.251
-156.637
-153.387
-150.107
-235.104
-234.073
-231.01
-225.004
-217.804
-210.874
-204.414
-198.203
-192.319
-186.732
-181.423
-176.377
-171.575
-166.999
-162.694
-158.482
-154.679
-150.821
-147.458
-144.014
-241.763
-240.685
-234.593
-227.012
-218.454
-210.305
-202.828
-195.807
-189.188
-182.976
-177.13
-171.604
-166.387
-161.44
-156.79
-152.31
-148.242
-144.106
-140.581
-136.912
-247.799
-245.821
-236.487
-227.055
-217.339
-208.279
-199.835
-192.121
-184.891
-178.147
-171.846
-165.924
-160.353
-155.119
-150.193
-145.495
-141.187
-136.858
-133.185
-129.209
-248.432
-246.072
-235.855
-224.867
-214.355
-204.586
-195.496
-187.154
-179.405
-172.189
-165.466
-159.175
-153.293
-147.776
-142.607
-137.732
-133.253
-128.826
-125.09
-120.99
-245.979
-243.694
-232.617
-220.622
-209.398
-198.982
-189.341
-180.521
-172.319
-164.731
-157.701
-151.135
-145.014
-139.312
-133.97
-128.968
-124.354
-119.827
-116.059
-111.812
-242.041
-239.465
-228.125
-214.691
-202.703
-191.676
-181.512
-172.271
-163.742
-155.853
-148.56
-141.779
-135.485
-129.618
-124.144
-119.055
-114.327
-109.785
-105.927
-101.59
-235.389
-231.799
-218.942
-205.225
-192.845
-181.693
-171.32
-161.924
-153.231
-145.209
-137.824
-130.952
-124.581
-118.672
-113.164
-108.054
-103.288
-98.7739
-94.8948
-90.4976
-224.899
-220.647
-207.722
-194.065
-181.447
-170.164
-159.621
-150.054
-141.27
-133.15
-125.678
-118.76
-112.366
-106.43
-100.921
-95.8328
-91.0799
-86.6402
-82.7778
-78.3688
-212.203
-207.033
-193.692
-180.26
-167.377
-156.115
-145.611
-136.098
-127.37
-119.328
-111.96
-105.128
-98.8214
-92.9912
-87.5871
-82.5981
-77.9265
-73.6256
-69.8501
-65.4462
-196.417
-190.957
-177.539
-164.262
-151.668
-140.489
-130.147
-120.721
-112.128
-104.185
-96.9052
-90.1904
-84.0004
-78.2738
-72.9937
-68.1349
-63.5809
-59.4593
-55.766
-51.3936
-178.574
-172.821
-158.997
-145.902
-133.578
-122.74
-112.69
-103.557
-95.2259
-87.5523
-80.543
-74.062
-68.0988
-62.6017
-57.5401
-52.8739
-48.5071
-44.6482
-41.1436
-36.8504
-158.462
-152.531
-138.513
-126.199
-114.285
-103.782
-94.1291
-85.2689
-77.2552
-69.8393
-63.0648
-56.8387
-51.1055
-45.8293
-41.0021
-36.5538
-32.4143
-28.8765
-25.6075
-21.4354
-136.962
-130.752
-116.397
-104.637
-93.2925
-83.2252
-74.0605
-65.6525
-58.0272
-51.0112
-44.6011
-38.6858
-33.2462
-28.2413
-23.6406
-19.3619
-15.4499
-12.1867
-9.08711
-4.51656
-113.743
-107.069
-93.0207
-82.0149
-71.4592
-61.9263
-53.3126
-45.351
-38.1675
-31.5059
-25.4077
-19.7847
-14.5667
-9.72974
-5.22038
-0.965456
2.90564
6.53106
10.4567
15.0007
-164.064
-151.08
-138.443
-132.686
-125.434
-121.961
-117.426
-114.21
-110.914
-107.849
-105.16
-102.305
-99.9952
-97.4017
-95.347
-93.0906
-91.0026
-89.4616
-88.6249
-87.9604
-158.742
-146.468
-133.593
-128.109
-120.828
-117.513
-113.203
-110.301
-107.33
-104.516
-102.103
-99.4872
-97.4271
-95.0434
-93.1893
-91.112
-89.1913
-87.7807
-87.0407
-86.4373
-153.326
-141.643
-128.438
-123.4
-116.266
-113.286
-109.258
-106.502
-103.775
-101.186
-99.029
-96.6296
-94.7975
-92.6085
-90.9948
-89.0717
-87.2875
-86.1305
-85.4309
-84.8554
-147.536
-136.617
-123.367
-118.723
-111.637
-108.842
-105.083
-102.643
-100.255
-97.9069
-96.0161
-93.8498
-92.2599
-90.2748
-88.862
-87.1047
-85.5468
-84.4557
-83.8575
-83.3413
-141.62
-131.368
-117.969
-113.888
-107.073
-104.627
-101.199
-98.8974
-96.7552
-94.6289
-92.987
-91.0331
-89.6614
-87.8672
-86.6955
-85.0841
-83.7138
-82.8069
-82.2753
-81.7881
-135.53
-125.919
-112.693
-109.074
-102.431
-100.171
-97.0772
-95.0848
-93.2921
-91.4007
-90.0152
-88.2891
-87.1514
-85.5575
-84.5843
-83.1398
-82.0473
-81.1421
-80.7381
-80.2968
-129.082
-120.232
-107.098
-104.085
-97.8644
-95.9533
-93.2267
-91.3807
-89.8405
-88.1666
-87.0312
-85.5095
-84.5843
-83.1712
-82.4459
-81.1404
-80.279
-79.5013
-79.2064
-78.7824
-121.308
-114.205
-101.573
-99.1351
-93.1836
-91.4866
-89.1652
-87.6203
-86.4261
-84.9845
-84.0979
-82.7982
-82.0958
-80.8827
-80.3522
-79.2178
-78.6431
-77.8489
-77.7261
-77.326
-113.399
-108.145
-95.7394
-93.9848
-88.6141
-87.2465
-85.3301
-83.9493
-83.0179
-81.7975
-81.1494
-80.058
-79.5561
-78.5253
-78.229
-77.2401
-76.9296
-76.2112
-76.2451
-75.8591
-105.779
-101.694
-90.0427
-88.8266
-83.9349
-82.7632
-81.322
-80.2436
-79.6484
-78.6624
-78.2502
-77.379
-77.086
-76.2551
-76.1482
-75.3366
-75.3291
-74.5916
-74.8423
-74.4474
-98.0078
-94.9854
-84.1377
-83.4935
-79.3575
-78.4937
-77.4922
-76.6078
-76.2815
-75.5205
-75.3387
-74.6747
-74.574
-73.9211
-74.0359
-73.3788
-73.6273
-73.0226
-73.403
-73.0327
-89.4949
-87.9486
-78.2395
-78.1629
-74.6491
-74.007
-73.5211
-72.9557
-72.9536
-72.4291
-72.4736
-72.0278
-72.1217
-71.6651
-71.964
-71.4913
-72.0222
-71.4777
-72.0786
-71.6682
-80.6192
-80.7178
-72.1353
-72.672
-70.0412
-69.7059
-69.6877
-69.3575
-69.6257
-69.3312
-69.597
-69.3569
-69.6344
-69.3507
-69.8563
-69.5471
-70.3225
-69.9617
-70.7365
-70.3049
-70.8643
-73.2346
-66.0383
-67.1829
-65.3025
-65.2257
-65.7411
-65.7607
-66.3415
-66.2848
-66.7679
-66.7432
-67.2013
-67.1068
-67.7884
-67.6696
-68.715
-68.4576
-69.5292
-68.9888
-60.5253
-65.4974
-59.7741
-61.5693
-60.6719
-60.9193
-61.9165
-62.2224
-63.0724
-63.2463
-63.9396
-64.1185
-64.7486
-64.8192
-65.69
-65.7422
-67.0177
-66.9669
-68.282
-67.6659
-49.1575
-57.3187
-53.4247
-55.8822
-55.8533
-56.4117
-57.9436
-58.6494
-59.8102
-60.2262
-61.1313
-61.5259
-62.3264
-62.5772
-63.6157
-63.8645
-65.4034
-65.4552
-67.109
-66.4177
-37.6913
-49.0785
-46.9641
-50.0734
-51.0859
-52.0151
-54.0291
-55.0754
-56.5178
-57.1728
-58.2851
-58.8865
-59.8527
-60.2606
-61.4704
-61.8878
-63.6753
-63.8665
-65.9179
-65.0998
-25.9002
-41.2022
-41.005
-44.5788
-46.5004
-47.7877
-50.3031
-51.7599
-53.4836
-54.344
-55.6346
-56.4322
-57.5415
-58.1035
-59.4509
-60.0569
-62.0358
-62.4651
-64.964
-63.7719
-9.28734
-31.3652
-34.6744
-39.0868
-42.0469
-43.729
-46.7092
-48.6115
-50.6065
-51.6604
-53.1195
-54.1093
-55.3537
-56.0518
-57.5438
-58.3777
-60.5136
-61.3456
-64.4412
-62.9422
9.07745
-18.212
-26.0041
-31.7227
-35.5923
-37.79
-41.3348
-43.9205
-46.41
-47.8808
-49.6525
-50.9431
-52.4195
-53.3256
-55.0288
-56.0831
-59.0369
-59.8674
-63.6377
-61.2763
39.3667
35.9889
20.4585
11.8999
1.46179
-4.70522
-10.7901
-15.3377
-20.5809
-24.6931
-28.1663
-31.0461
-33.9917
-35.901
-38.569
-39.2245
-43.0258
-44.3187
-48.9293
-44.2752
83.7988
71.2583
50.0871
39.0475
26.4245
17.322
8.65681
2.14193
-2.96853
-7.61304
-12.0014
-15.7483
-19.1135
-22.4477
-25.3061
-28.6382
-30.68
-33.1768
-34.3375
-34.5483
91.0872
77.8682
64.6636
54.5392
44.8274
36.6194
29.0191
22.2471
16.0809
11.1842
6.74073
3.09214
-0.229476
-2.75873
-5.21618
-7.04857
-8.9172
-10.4737
-11.2144
-11.4795
92.3377
84.2272
74.1702
64.8623
56.1678
48.2798
41.2647
35.0723
29.5675
24.2379
19.5678
15.1785
11.4082
7.69496
4.73055
1.77417
-0.456472
-2.62208
-3.61722
-3.90469
87.0681
79.3284
72.4606
65.726
59.7194
53.7102
48.2905
43.0976
38.3333
34.136
30.1653
26.7267
23.4999
20.7334
18.1903
15.9275
14.0708
12.1767
10.9982
10.7031
85.5119
80.3391
75.7257
69.9301
64.8538
59.6557
54.814
50.2006
45.9024
41.7324
37.9133
34.2992
30.9751
27.9084
25.0846
22.6281
20.3004
18.6041
17.2491
16.8208
80.1681
76.0427
72.1397
68.3731
64.5926
60.9119
57.2676
53.7968
50.3718
47.2355
44.0938
41.2789
38.4852
35.9414
33.544
31.1473
29.1183
26.8763
25.5373
25.3683
79.1804
76.8811
74.2054
71.0247
67.5997
64.3369
61.231
58.153
55.089
52.1817
49.24
46.5527
43.7705
41.3055
38.7347
36.4898
34.2548
32.116
30.7197
30.136
76.8308
74.1288
72.0307
69.7728
67.7598
65.4635
62.9872
60.6969
58.2243
56.0133
53.5651
51.4328
49.0151
46.9521
44.5555
42.4689
40.1062
37.9568
36.2284
35.5036
77.1432
75.7615
73.9937
72.1984
70.0509
68.0129
65.876
63.9011
61.8123
59.8639
57.6743
55.7699
53.4647
51.585
49.1215
47.1788
44.4185
42.333
39.83
39.1201
76.3852
74.9523
73.6058
72.3468
71.0324
69.706
68.165
66.7158
64.9766
63.5569
61.783
60.3583
58.4619
57.0116
54.8555
53.2872
50.5387
48.8637
45.9471
45.2948
77.3905
76.476
75.4619
74.2867
73.045
71.8834
70.5902
69.4697
68.2055
67.0898
65.7423
64.6446
63.1348
62.0445
60.2594
59.1344
56.6616
55.5934
50.7425
51.0975
77.636
76.9281
76.1874
75.5288
74.7403
74.0535
73.1863
72.4861
71.573
70.9505
70.0798
69.5233
68.7039
68.199
67.2895
66.8479
65.245
65.5451
63.85
66.2179
78.7454
78.2896
77.5977
77.0961
76.459
76.0073
75.4358
75.0754
74.5834
74.339
73.9877
73.852
73.7584
73.7465
74.0879
74.1731
75.1527
75.1631
77.563
79.749
79.5451
79.2469
78.8335
78.5503
78.1717
77.9612
77.6266
77.5625
77.3182
77.47
77.3112
77.7849
77.8472
78.771
79.2216
80.6128
81.9493
83.4569
86.7544
87.0468
80.4992
80.2854
80.0023
79.8592
79.667
79.636
79.5559
79.6817
79.7329
80.0677
80.3423
81.0077
81.4817
82.5635
83.3263
84.955
86.2444
89.1243
91.6934
96.1604
81.2017
81.0553
80.8725
80.8118
80.7198
80.7734
80.7842
81.0003
81.1481
81.5593
81.8526
82.5131
83.1062
84.1243
84.8959
86.4942
87.501
89.556
90.37
102.83
81.8908
81.7935
81.7411
81.7518
81.8041
81.9351
82.111
82.3755
82.6253
83.0977
83.5433
84.326
84.8128
85.8221
86.4081
87.8693
88.5254
90.4965
91.3358
94.0783
82.3259
82.2665
82.2629
82.3034
82.36
82.4953
82.6231
82.8995
83.2067
83.6709
84.0698
84.6812
85.3024
86.1492
86.9273
87.97
88.7261
89.9697
90.3388
96.0562
82.5136
82.4943
82.4136
82.4816
82.5559
82.7245
82.9618
83.2652
83.6335
84.0692
84.5754
85.1893
85.8148
86.5928
87.3155
88.2567
89.0098
90.1059
90.7447
92.0245
201.213
199.394
196.971
193.938
190.303
185.978
181.097
175.42
169.458
162.593
155.352
147.131
138.232
129.389
119.735
109.58
99.3492
88.4009
77.8413
66.5557
172.402
171.352
169.989
168.382
166.44
164.301
161.756
159.135
155.929
152.847
149.016
143.913
139.277
135.529
131.067
126.784
121.848
117.036
111.578
105.17
135.387
134.67
133.826
132.904
131.808
130.679
129.327
127.999
126.361
124.823
122.879
121.1
119.125
117.073
114.804
112.571
109.775
106.947
103.922
101.501
123.035
122.524
121.953
121.315
120.599
119.832
118.946
118.035
116.999
115.946
114.757
113.59
112.224
110.992
109.449
108.153
106.43
104.394
101.942
99.917
104.81
104.402
103.966
103.482
102.977
102.422
101.842
101.225
100.561
99.8862
99.1291
98.4057
97.5822
96.7872
95.8507
94.976
93.8666
92.8833
91.5942
90.6424
98.8584
98.5302
98.174
97.807
97.4001
96.9933
96.5341
96.0845
95.5725
95.0707
94.5081
93.933
93.2837
92.675
91.9575
91.3169
90.5347
89.8636
89.0198
88.3605
90.589
90.3218
90.0413
89.7401
89.4277
89.0962
88.7496
88.3929
88.0118
87.6342
87.2052
86.7938
86.3129
85.8807
85.3319
84.8657
84.2022
83.6649
82.6893
81.7275
87.5565
87.3396
87.1061
86.8707
86.6119
86.3574
86.0742
85.8021
85.4945
85.2042
84.8705
84.5644
84.2032
83.867
83.4741
83.1127
82.6774
82.2966
81.833
81.178
84.0067
83.8158
83.6122
83.3998
83.1718
82.9398
82.6895
82.4388
82.1637
81.8994
81.5967
81.3263
80.9848
80.6684
80.2583
79.8251
79.1927
78.6813
78.0801
77.5802
82.5377
82.3744
82.1978
82.0184
81.8239
81.6359
81.4185
81.2007
80.973
80.7442
80.5095
80.2694
80.0327
79.7744
79.5282
79.2601
78.9769
78.6844
78.37
78.1033
81.4753
81.3242
81.1644
80.9981
80.8259
80.6483
80.4274
80.1911
79.9576
79.7323
79.5063
79.2874
79.0474
78.8173
78.5603
78.3163
78.0484
77.7783
77.5116
77.2257
80.9755
80.8614
80.7374
80.6128
80.4917
80.3599
80.225
80.086
79.9391
79.7889
79.6285
79.4661
79.2874
79.1041
78.8985
78.7045
78.4961
78.2984
78.0731
77.8638
81.0525
80.9502
80.8439
80.733
80.6085
80.4824
80.3446
80.2093
80.061
79.911
79.7561
79.5916
79.4211
79.2519
79.0585
78.8738
78.679
78.4775
78.2552
78.0354
81.3902
81.294
81.1964
81.0949
80.9934
80.8901
80.7855
80.6746
80.5651
80.45
80.3359
80.2159
80.0969
79.9715
79.8476
79.7145
79.5825
79.4435
79.3026
79.1581
81.716
81.6276
81.5376
81.4464
81.3533
81.2594
81.1637
81.0669
80.9681
80.8695
80.7682
80.6671
80.5637
80.4599
80.3555
80.251
80.1462
80.039
79.9348
79.8253
82.2322
82.1549
82.0772
81.9992
81.9209
81.8421
81.7635
81.6846
81.6053
81.5248
81.4453
81.3639
81.2841
81.2017
81.1215
81.0383
80.9577
80.874
80.7934
80.7094
82.6144
82.5418
82.4701
82.3987
82.3283
82.2583
82.1894
82.1206
82.053
81.9857
81.9193
81.8534
81.7883
81.7239
81.6603
81.5975
81.5354
81.4737
81.4134
81.3526
83.0292
82.9641
82.8989
82.8346
82.7707
82.7086
82.6485
82.5902
82.5327
82.4769
82.422
82.3687
82.3165
82.2659
82.2163
82.1673
82.1211
82.0745
82.0322
81.988
83.2738
83.2106
83.1511
83.0927
83.037
82.982
82.9278
82.8751
82.8246
82.7758
82.7288
82.6841
82.6408
82.6002
82.5617
82.5258
82.4905
82.4574
82.4256
82.3957
83.4217
83.3622
83.3039
83.248
83.1937
83.1418
83.0916
83.0434
82.9976
82.9532
82.9095
82.867
82.8252
82.7848
82.7455
82.7081
82.6727
82.6392
82.6078
82.5775
93.4391
92.6906
89.7924
87.0801
84.4589
81.609
78.5678
75.3067
71.7522
67.8837
63.6343
58.9305
53.8048
48.0215
41.7327
34.5974
26.7749
18.2777
7.32715
1.86497
103.64
103.481
101.596
99.581
97.542
95.2551
92.7371
89.9515
86.8765
83.4744
79.6997
75.508
70.8683
65.6518
59.933
53.4278
46.3565
38.3807
28.5339
23.051
114.65
115.254
114.037
112.528
110.97
109.145
107.069
104.749
102.14
99.2245
95.9491
92.2654
88.1869
83.5276
78.4158
72.5291
66.198
58.7883
50.2494
44.8405
127.062
127.815
126.804
125.655
124.459
123.028
121.384
119.509
117.366
114.934
112.152
109.019
105.457
101.393
96.868
91.6385
85.9559
79.1639
71.7432
67.1771
138.624
139.642
139.09
138.365
137.618
136.662
135.492
134.108
132.468
130.554
128.317
125.721
122.74
119.251
115.307
110.653
105.517
99.2566
92.2932
88.5497
150.724
151.989
151.705
151.336
150.945
150.361
149.586
148.623
147.425
145.99
144.244
142.211
139.775
136.916
133.607
129.653
125.213
119.611
113.276
109.199
162.192
163.561
163.578
163.55
163.525
163.344
163.008
162.514
161.823
160.913
159.746
158.294
156.496
154.318
151.702
148.523
144.853
140.158
134.831
130.344
172.937
174.547
174.98
175.354
175.737
175.984
176.076
176.032
175.792
175.374
174.705
173.815
172.593
171.065
169.13
166.746
163.894
160.174
156.217
151.286
183.258
185.064
185.84
186.545
187.262
187.853
188.327
188.688
188.91
188.977
188.849
188.52
187.913
187.05
185.8
184.21
182.105
179.48
176.456
172.025
192.643
194.625
195.733
196.792
197.865
198.858
199.748
200.555
201.22
201.751
202.085
202.251
202.159
201.835
201.173
200.215
198.815
197.058
194.714
191.564
201.51
203.678
205.109
206.489
207.897
209.224
210.461
211.61
212.633
213.547
214.312
214.938
215.33
215.524
215.385
215.002
214.177
213.045
211.305
208.875
209.235
211.592
213.328
215.022
216.73
218.366
219.929
221.425
222.829
224.151
225.327
226.359
227.151
227.742
228.036
228.112
227.765
227.155
225.887
224.001
216.756
219.239
221.112
223.006
224.939
226.828
228.675
230.471
232.197
233.823
235.308
236.641
237.765
238.745
239.46
239.991
240.092
239.957
239.133
237.773
222.711
225.278
227.441
229.62
231.829
234.007
236.129
238.2
240.173
242.045
243.787
245.395
246.858
248.177
249.26
250.14
250.588
250.813
250.339
249.429
227.949
230.72
233.089
235.458
237.844
240.178
242.46
244.688
246.842
248.931
250.923
252.836
254.618
256.26
257.67
258.843
259.623
260.22
260.134
259.857
232.31
235.14
237.569
240.047
242.556
245.033
247.487
249.905
252.287
254.608
256.86
259.017
261.036
262.891
264.504
265.872
266.947
267.773
268.147
268.229
235.297
238.19
240.758
243.385
246.044
248.677
251.287
253.863
256.39
258.847
261.211
263.456
265.546
267.465
269.172
270.681
271.943
272.942
273.542
273.565
237.468
240.461
243.051
245.728
248.438
251.131
253.795
256.443
259.038
261.587
264.052
266.434
268.697
270.83
272.813
274.609
276.185
277.439
278.263
278.38
238.256
241.236
243.847
246.556
249.311
252.051
254.776
257.487
260.156
262.788
265.338
267.822
270.176
272.416
274.471
276.295
277.849
278.933
279.675
280.036
237.933
240.946
243.566
246.301
249.071
251.845
254.585
257.339
260.019
262.696
265.244
267.769
270.084
272.351
274.294
276.168
277.549
278.875
279.45
280.211
-63.2319
-64.2321
-65.2418
-66.2265
-67.1991
-68.2525
-69.1044
-70.0228
-71.118
-71.8823
-72.4807
-73.4467
-74.7489
-75.8834
-76.474
-76.4304
-76.8803
-76.8849
-78.0452
-78.0561
-59.1929
-60.3683
-61.4875
-62.6781
-63.8449
-65.0866
-66.3237
-67.4707
-68.6445
-70.022
-71.1829
-72.292
-73.4739
-74.535
-75.617
-77.2679
-77.5351
-77.8507
-77.9153
-78.0564
-54.9078
-56.2273
-57.5713
-59.0052
-60.3943
-61.7907
-63.2418
-64.7778
-66.2601
-67.8072
-69.4568
-71.0732
-72.5753
-74.4592
-76.2973
-77.3027
-77.6158
-78.9061
-78.3057
-78.8955
-51.0127
-52.5922
-54.032
-55.5735
-57.2101
-58.8757
-60.5349
-62.3017
-64.0439
-65.8934
-67.7236
-69.663
-71.6685
-73.372
-75.1774
-76.8433
-78.6518
-78.5697
-78.5643
-78.712
-46.8439
-48.5824
-50.2128
-51.9541
-53.7446
-55.6913
-57.6009
-59.67
-61.7375
-63.8809
-66.0869
-68.368
-70.6566
-72.9879
-75.2088
-77.4369
-79.0822
-79.0032
-80.0919
-79.9933
-42.585
-44.51
-46.3391
-48.3647
-50.3745
-52.5807
-54.7687
-57.1063
-59.4901
-61.9772
-64.5297
-67.1821
-69.9196
-72.6595
-75.372
-77.9862
-80.1288
-81.6532
-82.2597
-82.4119
-38.178
-40.2786
-42.2449
-44.4561
-46.6804
-49.1423
-51.6237
-54.2865
-57.0499
-59.9356
-62.9598
-66.0947
-69.3787
-72.696
-76.2399
-79.5446
-82.716
-85.6457
-85.8991
-86.4658
-33.4266
-35.6736
-37.8039
-40.2907
-42.7185
-45.4436
-48.2363
-51.217
-54.3599
-57.6807
-61.1816
-64.89
-68.7911
-72.9077
-77.1852
-81.7332
-86.4096
-90.5244
-92.0767
-92.8867
-28.2182
-30.6549
-32.885
-35.5609
-38.2158
-41.156
-44.2459
-47.5519
-51.0814
-54.8377
-58.8577
-63.1473
-67.763
-72.702
-77.9917
-83.7523
-89.9065
-95.6123
-99.7344
-100.635
-22.4268
-25.0221
-27.3713
-30.2258
-33.0719
-36.2221
-39.5706
-43.161
-47.0189
-51.1664
-55.6136
-60.4242
-65.6234
-71.2101
-77.3955
-84.0671
-91.395
-98.6438
-105.28
-105.888
-16.1346
-18.8595
-21.2193
-24.141
-27.1476
-30.4316
-33.9908
-37.8239
-41.973
-46.4507
-51.2972
-56.5497
-62.2514
-68.442
-75.2634
-82.6675
-90.7353
-99.1006
-107.244
-109.285
-8.62071
-11.5028
-13.9624
-16.9634
-20.1269
-23.5674
-27.3064
-31.3483
-35.7261
-40.4851
-45.6262
-51.2363
-57.3509
-63.9802
-71.3233
-79.2997
-87.9466
-97.5066
-106.651
-108.802
-0.185636
-3.246
-5.82836
-8.88327
-12.174
-15.7078
-19.5715
-23.7556
-28.3048
-33.2494
-38.626
-44.5059
-50.9163
-57.9193
-65.713
-74.1374
-83.5063
-94.1053
-103.499
-105.521
8.78059
5.69687
3.12417
0.117617
-3.19015
-6.755
-10.6585
-14.9099
-19.5349
-24.5946
-30.0823
-36.111
-42.698
-49.8748
-57.8911
-66.5104
-76.375
-86.9945
-97.456
-100.61
18.9044
15.7702
13.1737
10.2104
6.87659
3.3092
-0.60784
-4.88208
-9.54882
-14.6423
-20.2051
-26.3258
-32.997
-40.339
-48.5243
-57.2812
-67.4445
-77.8395
-88.2037
-92.005
29.5786
26.4378
23.9071
21.0838
17.84
14.3497
10.5213
6.31956
1.73325
-3.30663
-8.79653
-14.8605
-21.4909
-28.81
-36.9457
-45.7573
-55.9481
-66.4322
-77.2118
-81.6107
41.0966
38.0675
35.6407
32.9633
29.824
26.4346
22.7093
18.6131
14.1182
9.20117
3.81437
-2.13436
-8.60975
-15.7904
-23.7315
-32.3564
-42.1673
-52.7198
-63.9464
-68.4012
53.1336
50.2541
47.9634
45.4921
42.5238
39.2905
35.7446
31.8221
27.5246
22.7928
17.6196
11.8903
5.63327
-1.32382
-9.00017
-17.3527
-27.0419
-37.0194
-48.4389
-53.3319
66.8564
63.6892
61.4846
59.1413
56.2963
53.1606
49.746
45.9918
41.8617
37.3497
32.3989
26.926
20.9775
14.3197
7.04895
-1.01897
-10.1618
-19.6013
-31.4848
-36.5699
82.8271
79.4126
76.4229
73.7411
70.8487
67.688
64.3365
60.711
56.7863
52.5097
47.8487
42.7121
37.1058
30.8561
24.024
16.417
7.87913
-1.02974
-12.637
-18.0901
-38.8452
-39.2344
-39.7161
-40.3129
-41.3622
-42.2585
-42.9045
-43.6226
-43.9679
-44.4517
-44.633
-44.7594
-44.9788
-44.6427
-45.2742
-44.4521
-46.4266
-47.1731
-51.4372
-59.0914
-37.4398
-37.78
-38.1479
-38.6387
-39.5287
-40.2232
-40.6692
-41.1868
-41.3219
-41.6113
-41.5761
-41.4901
-41.4373
-40.8635
-41.4274
-40.576
-42.5583
-42.9816
-47.8686
-54.4478
-36.0016
-36.3324
-36.6274
-36.8981
-37.6271
-38.1547
-38.4072
-38.7459
-38.6761
-38.7824
-38.5392
-38.2938
-38.102
-37.4176
-37.7516
-36.5767
-38.711
-38.8498
-44.1473
-49.8419
-34.6457
-34.9373
-35.1044
-35.2915
-35.8503
-36.1752
-36.2285
-36.3776
-36.0967
-36.0171
-35.5598
-35.1077
-34.6362
-33.7203
-33.9618
-32.7181
-34.79
-34.533
-40.2831
-45.117
-33.2682
-33.5579
-33.624
-33.614
-34.0005
-34.1626
-34.0232
-33.9946
-33.516
-33.2588
-32.5982
-31.995
-31.3771
-30.3413
-30.3185
-28.7385
-30.8928
-30.2591
-36.2541
-40.2481
-31.9721
-32.2314
-32.141
-32.0817
-32.2765
-32.2345
-31.8985
-31.6854
-30.9986
-30.5627
-29.6928
-28.8898
-27.9898
-26.7329
-26.5653
-24.8894
-26.9193
-25.8453
-32.0843
-35.3247
-30.6654
-30.9264
-30.6969
-30.4737
-30.4791
-30.2722
-29.7435
-29.3572
-28.4765
-27.8688
-26.8004
-25.8485
-24.7919
-23.4051
-22.9493
-20.9418
-22.9475
-21.4512
-27.7277
-30.0894
-29.4366
-29.6771
-29.2517
-29.0187
-28.8072
-28.3902
-27.6679
-27.0986
-26.0155
-25.2355
-23.9635
-22.8223
-21.4838
-19.8778
-19.2219
-17.091
-18.9005
-16.9577
-23.2022
-24.7982
-28.2065
-28.4526
-27.8397
-27.486
-27.0618
-26.4709
-25.557
-24.8183
-23.548
-22.6016
-21.1368
-19.842
-18.3406
-16.5953
-15.6256
-13.1658
-14.8852
-12.4076
-18.4669
-19.1856
-27.049
-27.2853
-26.4192
-26.1153
-25.4413
-24.6267
-23.5244
-22.6008
-21.1379
-20.0251
-18.364
-16.8802
-15.1041
-13.1423
-11.9066
-9.3262
-10.7568
-7.79344
-13.6484
-13.3526
-25.8961
-26.1424
-25.0519
-24.6511
-23.7494
-22.741
-21.4533
-20.3608
-18.718
-17.4479
-15.6024
-13.9631
-12.014
-9.89909
-8.31465
-5.45511
-6.60512
-3.16314
-8.4912
-7.23553
-24.811
-25.0671
-23.7143
-23.3124
-22.1801
-20.9253
-19.4576
-18.1814
-16.3514
-14.9231
-12.8903
-11.0632
-8.84724
-6.50514
-4.60324
-1.62758
-2.39011
1.56146
-3.15447
-1.043
-23.7322
-23.966
-22.4222
-21.8667
-20.5401
-19.0633
-17.4183
-15.9764
-13.9758
-12.3986
-10.19
-8.20438
-5.80683
-3.28713
-1.005
2.21795
1.84212
6.35457
2.40979
5.72541
-22.7169
-23.0104
-21.1388
-20.539
-19.0227
-17.2687
-15.4533
-13.8305
-11.6515
-9.92643
-7.53975
-5.36691
-2.70971
0.0587827
2.70078
6.02351
6.10697
11.2324
8.07609
12.9268
-21.6968
-22.0727
-19.907
-19.1105
-17.4518
-15.4334
-13.4482
-11.665
-9.32729
-7.46527
-4.91246
-2.58004
0.26655
3.24848
6.29422
9.81844
10.387
16.1659
13.9759
20.8282
-20.7897
-21.2552
-18.6832
-17.7766
-15.977
-13.6517
-11.4958
-9.53756
-7.03022
-5.02861
-2.30364
0.217218
3.32396
6.59144
10.0267
13.6211
14.7536
21.2557
20.1724
29.5279
-19.7505
-20.3046
-17.2882
-16.3058
-14.3847
-11.7852
-9.46533
-7.3599
-4.70816
-2.57861
0.307761
2.99444
6.31204
9.83122
13.6906
17.4443
19.1795
26.3654
26.4982
38.4351
-18.7178
-19.4587
-16.0251
-14.9391
-13.0852
-10.0681
-7.60888
-5.33902
-2.55011
-0.321819
2.70282
5.55784
9.11909
12.9646
17.211
20.9734
23.2377
31.1164
32.3144
47.3074
-18.3739
-18.9636
-15.1772
-13.7147
-12.0581
-8.4999
-5.84207
-3.39967
-0.467876
1.86863
5.04037
8.07137
11.8348
16.0681
20.6734
24.4054
27.363
36.3002
39.6943
60.8596
-16.8014
-18.2731
-13.7949
-12.5504
-9.74543
-6.32456
-3.3179
-0.79645
2.35186
4.94274
8.39928
11.7214
15.9122
20.5453
25.5337
29.2408
33.7109
43.4099
50.259
77.2702
2.18999
-4.51375
2.65858
2.46061
9.33194
9.85949
13.2645
15.1639
18.5541
22.2306
27.1265
31.4671
36.925
41.6993
48.6981
55.1989
67.2797
74.5683
90.3343
97.1351
9.14152
9.10806
10.5609
13.2123
16.0335
19.1523
22.6651
26.3667
30.4334
34.3843
38.4691
43.4192
49.4356
56.3404
64.5158
73.2049
84.4912
95.225
111.821
124.839
27.3163
27.5334
28.5682
30.2142
32.4113
34.3719
36.9673
39.5634
42.86
46.3498
50.7565
55.6903
61.3887
67.5135
74.0512
81.3443
89.3682
98.1391
108.319
119.793
32.484
32.7217
33.8039
35.8987
38.0975
40.8994
43.8167
47.3048
50.898
55.0673
59.3497
64.064
68.8615
74.4386
80.3405
87.2992
93.941
102.01
108.549
115.68
42.7297
43.0565
44.143
45.9181
47.6703
49.7657
52.102
54.5749
57.4566
60.445
63.8449
67.4172
71.3258
75.5258
79.7697
84.4814
88.8035
94.0281
98.8748
104.913
45.9049
46.2561
47.5603
49.1838
51.33
53.5521
56.0631
58.781
61.6626
64.7538
67.9565
71.3736
74.8417
78.5671
82.2247
86.185
89.8219
93.889
96.0014
99.6088
50.896
51.0223
52.2416
54.2998
56.0902
58.2019
60.3022
62.4413
64.773
67.0345
69.5259
71.937
74.5018
77.0372
79.5616
82.1415
84.4625
87.3785
89.5864
92.1943
52.8984
53.4426
54.7344
56.7349
58.8074
60.8351
63.0608
65.1476
67.4478
69.6018
71.903
74.1189
76.3538
78.6031
80.6443
82.894
85.0258
86.8241
87.8448
89.4358
55.2865
55.9702
57.6527
59.7041
61.9203
63.7434
65.8453
67.5127
69.4877
71.0769
72.9335
74.4643
76.2008
77.6569
79.2384
80.6031
81.5931
82.9549
84.0708
85.2928
56.9686
57.5958
60.0755
62.0738
64.6809
66.3903
68.5434
70.0572
71.9065
73.3103
74.9203
76.2342
77.6549
78.8231
80.1021
81.3247
82.4189
83.1604
83.7088
84.2211
60.6352
61.1232
64.2328
65.8787
68.5453
69.9423
71.8128
72.9493
74.4166
75.4044
76.6242
77.5128
78.5535
79.3722
80.2281
80.6982
81.1779
81.6678
82.1335
82.6665
67.0891
65.7385
70.6429
71.551
73.4863
74.3645
75.6794
76.4087
77.4447
78.08
78.9043
79.4574
80.1352
80.6033
81.1642
81.6147
82.1153
82.289
82.4972
82.3659
80.7928
78.7861
79.1844
78.564
79.756
79.8097
80.3288
80.4734
80.8233
81.0019
81.3417
81.5184
81.8483
82.0161
82.2931
82.3417
82.4666
82.4365
82.5565
82.365
91.5225
89.686
87.0457
86.9757
85.7461
85.4169
84.7683
84.4419
84.1366
83.8852
83.7745
83.5742
83.5407
83.3862
83.3687
83.2465
83.2363
83.1514
83.0686
82.9616
98.4729
97.9793
94.6409
92.5587
91.0669
89.4135
88.629
87.4488
86.9715
86.1958
85.9129
85.3745
85.1656
84.7652
84.5922
84.2772
84.0999
83.8022
83.6066
83.294
106.044
101.399
98.5204
95.8246
94.1608
92.4904
91.3631
90.163
89.3497
88.4095
87.7535
87.0571
86.5661
86.0262
85.6218
85.1787
84.8385
84.4639
84.1649
83.8287
109.665
99.2048
98.3616
96.3314
95.1176
93.4063