/*--------------------------------*- C++ -*----------------------------------*\
  =========                 |
  \\      /  F ield         | OpenFOAM: The Open Source CFD Toolbox
   \\    /   O peration     | Website:  https://openfoam.org
    \\  /    A nd           | Version:  9
     \\/     M anipulation  |
\*---------------------------------------------------------------------------*/
FoamFile
{
    format      ascii;
    class       volScalarField;
    location    "2.9";
    object      nut;
}
// * * * * * * * * * * * * * * * * * * * * * * * * * * * * * * * * * * * * * //

dimensions      [0 2 -1 0 0 0 0];

internalField   nonuniform List<scalar> 
46400
(
0.0179955
0.00685275
0.00201132
0.00126731
0.00131456
0.00126454
0.00116914
0.00116787
0.00109948
0.00106548
0.00102214
0.000988453
0.000954372
0.000935465
0.000910145
0.000900376
0.000863186
0.000809025
0.00115751
0.000949154
0.0176963
0.00573258
0.00147478
0.00129948
0.00126055
0.00124812
0.00119422
0.0011972
0.00113403
0.0010944
0.00105337
0.00100938
0.000975347
0.000940724
0.000901316
0.000877006
0.000809399
0.000726876
0.000990198
0.000908461
0.0173773
0.00488937
0.00125272
0.0013944
0.00132567
0.00130769
0.00119912
0.00120183
0.00114123
0.00110382
0.00106288
0.00102749
0.000992677
0.000965078
0.000936768
0.00091811
0.000856262
0.000797029
0.00109571
0.000939494
0.0169703
0.00392612
0.00116771
0.00139875
0.00127232
0.00129117
0.00122296
0.00121434
0.00116649
0.00112106
0.00108459
0.00104066
0.00100552
0.000972261
0.000938956
0.000921066
0.000877547
0.000805544
0.00111796
0.00101406
0.0164719
0.0038686
0.00126551
0.00147128
0.00135993
0.00134073
0.00123882
0.00123003
0.0011809
0.00114028
0.00109987
0.00106699
0.00103131
0.000998582
0.000974429
0.000944513
0.000891336
0.000852053
0.00114601
0.00101243
0.0158748
0.00481253
0.001318
0.00147855
0.00133889
0.0013492
0.00127075
0.00123686
0.00120026
0.00115087
0.00111805
0.0010759
0.00104924
0.00101324
0.000990135
0.000981846
0.000917566
0.000855819
0.00117431
0.00107681
0.0153531
0.00442562
0.0014153
0.0015327
0.00140917
0.00137757
0.00129294
0.00125665
0.00121328
0.00116872
0.00112426
0.00108867
0.00105499
0.00102179
0.000987971
0.000971669
0.000936683
0.000847582
0.00112433
0.00106511
0.0143178
0.00397213
0.00141814
0.00152927
0.00139118
0.00137654
0.00131033
0.00125173
0.00121918
0.0011713
0.00114244
0.00109467
0.00107474
0.0010477
0.0010241
0.000996433
0.000957631
0.000897209
0.00110829
0.00106398
0.0130836
0.00326273
0.00144224
0.00152806
0.00143508
0.00137561
0.00133034
0.0012687
0.00121988
0.00117403
0.00113267
0.00108995
0.00104126
0.00101477
0.000997749
0.000983702
0.000943825
0.000899083
0.00108674
0.00101088
0.0105543
0.00256742
0.0014869
0.00146695
0.0014111
0.00135589
0.00131892
0.00127319
0.00122176
0.00116864
0.00115349
0.00111857
0.00108864
0.00103419
0.00100657
0.000986532
0.000950228
0.000910207
0.00108945
0.00105019
0.0086074
0.0021668
0.00151517
0.00146256
0.00141114
0.00134884
0.00131664
0.00127405
0.00124121
0.00115066
0.00109613
0.00107207
0.00104675
0.00102903
0.000990663
0.0009684
0.000926501
0.000877631
0.00101283
0.000978894
0.00684558
0.00184323
0.00148314
0.00144978
0.0014192
0.00133225
0.00131399
0.00128396
0.00128506
0.00124667
0.00116468
0.00109548
0.00105803
0.00101744
0.00100875
0.000981691
0.000960301
0.000922255
0.001037
0.00100198
0.00580267
0.00170374
0.00151561
0.00143208
0.00142616
0.00133575
0.00126694
0.00121738
0.00121929
0.00121204
0.00120107
0.00113234
0.00107446
0.00101589
0.000962313
0.000941396
0.000890523
0.000867501
0.000960851
0.00094626
0.00483117
0.00161397
0.00150996
0.00144513
0.00143768
0.00137295
0.00132825
0.00123478
0.00120475
0.0011898
0.00119026
0.00119119
0.00115402
0.00111962
0.00106306
0.00101272
0.000957477
0.000890235
0.000946041
0.000889334
0.00435587
0.0015667
0.00148157
0.00141434
0.00145481
0.00136529
0.00131692
0.00124335
0.00115845
0.00112033
0.00108701
0.00108156
0.00108926
0.00107683
0.00108391
0.00105586
0.0010406
0.000990329
0.00105728
0.000988609
0.00434583
0.00166688
0.00153484
0.00138141
0.00141458
0.00145541
0.00140694
0.00136348
0.00128934
0.00119851
0.00114354
0.00106635
0.00104011
0.000994361
0.000984276
0.000962896
0.000944417
0.000911615
0.000976093
0.000935628
0.0037285
0.00162237
0.00147567
0.00132069
0.00122199
0.0012314
0.0012805
0.00127353
0.00129846
0.00125633
0.00123692
0.00118325
0.00114564
0.00109845
0.00106011
0.00102901
0.000989316
0.000942887
0.000983203
0.00092996
0.00377882
0.00177589
0.00171749
0.001585
0.00143298
0.0012689
0.00122612
0.00116513
0.00115315
0.0011317
0.00111964
0.00109884
0.00107622
0.0010515
0.00102549
0.00100358
0.000975035
0.000927345
0.000977922
0.000911698
0.00260893
0.00132935
0.00147693
0.00148646
0.00153424
0.00144264
0.00139435
0.00131713
0.00126733
0.00120577
0.00117195
0.00112776
0.00109942
0.00106054
0.00103302
0.00100118
0.000970333
0.000913212
0.000955231
0.000897675
0.000722427
0.000571758
0.00131503
0.00123082
0.00138587
0.00129825
0.0013245
0.00125263
0.00125381
0.00118509
0.00116893
0.00111545
0.00109712
0.00105339
0.0010344
0.000999893
0.000975042
0.00091475
0.000962517
0.000884818
0.0005641
0.000152999
0.00337348
0.00767527
0.0105758
0.00848377
0.00438344
0.00168253
0.000455792
7.43793e-05
0.000113108
0.000206355
0.000268564
0.000187375
0.000128677
0.000195489
0.000216457
0.000206325
0.000168529
0.000233607
3.15155e-05
0.0015496
0.00597975
0.0101518
0.00959844
0.00561165
0.00220733
0.000591038
0.000102214
0.000133049
0.00023119
0.000298012
0.000215324
0.000167569
0.000215635
0.000234488
0.000188736
0.000196333
0.000210524
0.000271364
0.00026896
0.00374263
0.00861288
0.0108237
0.00744714
0.00323313
0.00087293
7.65189e-05
0.000124789
0.000247368
0.000311905
0.000245022
0.000181483
0.000238738
0.000229623
0.000190832
0.000196681
0.000266969
0.000260476
0.000281631
0.000847735
0.00629847
0.0104757
0.00965572
0.00514093
0.00151291
0.000140258
7.76156e-05
0.000251675
0.000322425
0.000269338
0.000235795
0.000256158
0.00024534
0.000212505
0.00024816
0.000276723
0.000301864
0.000251815
0.000292104
0.0018322
0.00855588
0.0112165
0.00788522
0.00290307
0.000471987
0.000134777
0.000247832
0.000333352
0.000314347
0.000287214
0.000291666
0.000236342
0.000267616
0.000261694
0.000286283
0.000275904
0.000283103
0.000275674
0.000329327
0.00261772
0.00977918
0.0110066
0.0059909
0.00132319
0.000157342
0.000230197
0.000350404
0.000374114
0.000342992
0.000327549
0.00027434
0.000304367
0.000316864
0.000270274
0.000316744
0.000312296
0.000350109
0.000324744
0.000347886
0.00484309
0.011057
0.00991477
0.00376411
0.000354276
0.000174827
0.000359443
0.000416978
0.000412895
0.000371144
0.00034002
0.000357724
0.000327132
0.000322603
0.000323669
0.000371858
0.000331933
0.000359458
0.000337104
0.000375336
0.00704464
0.0116393
0.00877158
0.0019524
0.00023929
0.000339326
0.000477212
0.000512911
0.000444985
0.000428873
0.000423528
0.000363937
0.000380075
0.000393678
0.000359275
0.000393253
0.00035408
0.000422833
0.000389552
0.00039894
0.00943934
0.0119351
0.0076285
0.000768211
0.000266575
0.00053555
0.000587863
0.000526838
0.000525555
0.0004868
0.000434355
0.000446281
0.000430115
0.000404229
0.000406691
0.000449955
0.000395453
0.000451237
0.000398396
0.000419484
0.0119426
0.0117802
0.00558487
0.000421846
0.00041007
0.00060856
0.00064429
0.000639231
0.000570216
0.000536943
0.000530464
0.00047566
0.000476991
0.000482323
0.000459861
0.000473668
0.000426487
0.000507574
0.000451734
0.000458244
0.0138868
0.0117356
0.00398602
0.000261245
0.000645435
0.00076268
0.000727291
0.000664357
0.000642159
0.000608578
0.000547938
0.000549173
0.000534134
0.000498503
0.000499297
0.000523815
0.000473695
0.00053206
0.000461106
0.000491422
0.0153225
0.0113241
0.00248253
0.000262729
0.000737995
0.000777619
0.000765771
0.000763051
0.00069453
0.000651542
0.000638228
0.000590197
0.000582531
0.000580277
0.000563022
0.000558475
0.000524
0.000592789
0.000498506
0.00052139
0.0160281
0.0110327
0.00168535
0.000406661
0.000873588
0.000878189
0.00086713
0.000789652
0.000756392
0.000726606
0.000666061
0.000660298
0.000641003
0.000604115
0.000602768
0.000612367
0.000580109
0.000619657
0.000500844
0.000556712
0.0167417
0.0105487
0.00108078
0.000550904
0.000995474
0.000883792
0.00089915
0.000883686
0.000812348
0.000768696
0.000744564
0.000699946
0.000687156
0.000678403
0.000658119
0.000642741
0.000625987
0.000664416
0.0005155
0.000580743
0.0174163
0.0102038
0.00110462
0.000758361
0.0010746
0.000981947
0.000982092
0.000910485
0.00086541
0.000836618
0.000779217
0.000767989
0.0007425
0.00070802
0.00070162
0.000695957
0.00068189
0.000687039
0.000519088
0.000620381
0.0176911
0.00974909
0.00178165
0.000878143
0.00113716
0.000998628
0.00101261
0.000995936
0.000920156
0.000880989
0.000846533
0.0008034
0.000788433
0.000775016
0.000746843
0.000726001
0.000736774
0.000733008
0.000525167
0.000652028
0.0181218
0.00941262
0.0022673
0.00105301
0.00118484
0.00109281
0.00107349
0.00102027
0.000963771
0.000934527
0.000881609
0.000863761
0.000833163
0.000804522
0.000789032
0.000769407
0.000776451
0.000752605
0.000522962
0.000681149
0.0181441
0.00910557
0.00225828
0.00105588
0.00123116
0.00108679
0.00109718
0.00108954
0.00101138
0.00097863
0.000938264
0.000897383
0.000882175
0.000865784
0.000829913
0.000809271
0.000838697
0.000807667
0.00054154
0.000729441
0.0182804
0.00866232
0.00214446
0.00115206
0.0012801
0.00118998
0.00113341
0.0011118
0.00104617
0.00101631
0.000969528
0.000944025
0.000913497
0.000894023
0.000869743
0.000847838
0.000865515
0.000857937
0.000565205
0.000706787
0.0181213
0.00782894
0.00196167
0.00116687
0.00126517
0.00117856
0.00115751
0.0011617
0.00108935
0.00105887
0.00102006
0.000982936
0.000968888
0.000953567
0.000922074
0.000931461
0.00093738
0.000934769
0.000729718
0.000791333
0.00201913
0.00169705
0.00177298
0.00145716
0.00168249
0.00161659
0.00152448
0.00143331
0.00136815
0.00130569
0.00119419
0.00113174
0.0010239
0.000979602
0.000880397
0.000846194
0.000974117
0.00407599
0.00997508
0.022595
0.00220085
0.00183795
0.00177959
0.0014216
0.00175474
0.00167788
0.00161442
0.00147116
0.00135555
0.00128097
0.00116875
0.00110483
0.000988593
0.000938823
0.000836681
0.000794713
0.000957866
0.00417529
0.0100019
0.0223492
0.00210136
0.00185297
0.00191529
0.00153394
0.00176005
0.00159533
0.00150229
0.00141308
0.00134981
0.00128778
0.00117673
0.0011169
0.00101046
0.000968487
0.000865648
0.000834638
0.000974372
0.00419963
0.0100417
0.0221997
0.0022763
0.00197071
0.0019339
0.00152606
0.00182119
0.00164945
0.00159698
0.00145873
0.00134006
0.0012638
0.00115288
0.00109256
0.000978467
0.000930182
0.000824181
0.000782529
0.000952654
0.00428207
0.0100676
0.0219514
0.00224557
0.00197236
0.00203752
0.00164272
0.00183085
0.00157305
0.00147933
0.00139685
0.00133286
0.00127118
0.00116178
0.00110437
0.000999701
0.000960197
0.000853369
0.000824137
0.000976584
0.00429341
0.0101034
0.0218068
0.00248489
0.00209359
0.00209728
0.00166344
0.0018582
0.00162191
0.00158547
0.00145634
0.00132615
0.00124822
0.00113961
0.00108199
0.000970259
0.000924295
0.000814335
0.000772005
0.000949954
0.00435814
0.0101286
0.0215747
0.00254342
0.00209483
0.00215398
0.00175661
0.00187686
0.00156413
0.00146061
0.00138419
0.00131421
0.00125565
0.00114929
0.0010939
0.00099156
0.000954442
0.000843631
0.000814883
0.000981708
0.00435438
0.0101627
0.0214375
0.00289022
0.00221812
0.0022384
0.00179716
0.00186288
0.00160979
0.00157524
0.00145843
0.0013142
0.00123506
0.00112871
0.00107303
0.000964122
0.000920853
0.000807089
0.000763699
0.000951034
0.00439968
0.0101816
0.0212226
0.00305855
0.00224527
0.00226473
0.00186078
0.00188928
0.00157278
0.00145061
0.00137767
0.00129504
0.0012412
0.00113905
0.00108553
0.000986008
0.000950839
0.000836655
0.000807568
0.000983718
0.00438047
0.0102227
0.02109
0.00349257
0.00237644
0.0023491
0.00188866
0.00184463
0.001621
0.00156217
0.00145375
0.00130138
0.00122409
0.00112018
0.00106576
0.000960312
0.000919672
0.000803039
0.000758429
0.000954456
0.00440801
0.0102296
0.0208955
0.00369797
0.00241093
0.00237053
0.00193998
0.00187183
0.00159524
0.00145039
0.00137727
0.00128015
0.00122873
0.00113067
0.00107898
0.000983081
0.000949208
0.000833484
0.000802837
0.000980583
0.00437031
0.0102754
0.020771
0.00390014
0.00255513
0.00242948
0.00193915
0.00182537
0.00164671
0.00154566
0.00143973
0.00128742
0.00121433
0.00111341
0.0010604
0.000959074
0.000920731
0.000803354
0.000756309
0.000951846
0.00437121
0.0102791
0.0205974
0.00405717
0.00256072
0.0024685
0.00199365
0.00183756
0.00161792
0.00145196
0.00137773
0.00127063
0.00121782
0.00112372
0.00107403
0.000982536
0.000949753
0.000834707
0.000800993
0.000975105
0.00432477
0.0103253
0.0204826
0.00428957
0.00268622
0.00249697
0.00197478
0.00181241
0.00167324
0.00153022
0.00142418
0.00127531
0.00120471
0.00110803
0.0010568
0.000960254
0.000924421
0.000808421
0.000758008
0.00094692
0.0043018
0.0103268
0.0203324
0.00439042
0.00267648
0.00254631
0.00203276
0.0017985
0.00163269
0.00145069
0.00137583
0.00126361
0.00120642
0.00111729
0.00107005
0.000983761
0.000952874
0.000840938
0.000802935
0.000968751
0.00424008
0.0103663
0.0202423
0.00466438
0.00278237
0.00255227
0.0020124
0.00179102
0.00168595
0.00151842
0.00140999
0.00126403
0.00119249
0.00110209
0.00105339
0.00096257
0.000930428
0.000818292
0.00076344
0.000943093
0.00418358
0.010358
0.0201093
0.00483683
0.00279808
0.00259943
0.00207147
0.00176343
0.00164203
0.00145555
0.00137573
0.00125883
0.00119512
0.00111185
0.0010675
0.000986612
0.000959305
0.000852454
0.000809502
0.000963153
0.00413525
0.0104057
0.0199952
0.00500685
0.00284723
0.00256665
0.00205734
0.00177039
0.00169469
0.00152582
0.00140908
0.00126069
0.00118496
0.0011007
0.00105557
0.000969956
0.000943965
0.000838238
0.000778765
0.000938282
0.00405596
0.0104329
0.0199883
0.00492154
0.00290427
0.00254249
0.00206739
0.00170825
0.00161515
0.00144717
0.00135499
0.00123378
0.00116664
0.00109496
0.00105667
0.000984016
0.000963751
0.000869207
0.000811897
0.000977899
0.00396756
0.0104199
0.0198365
0.00575099
0.00319048
0.0026094
0.00207487
0.00172733
0.00168044
0.00155012
0.00142721
0.0012725
0.00119188
0.00111158
0.00106395
0.000978514
0.000956231
0.000855139
0.000788174
0.000933893
0.00372793
0.0101402
0.0192617
0.0166068
0.0320019
0.0160495
0.0232736
0.0197162
0.0180569
0.0158727
0.0144326
0.0130595
0.0120867
0.0112082
0.0107888
0.0103559
0.010308
0.0098442
0.00987333
0.0107691
0.0344635
0.0970786
0.170173
0.0324503
0.0231699
0.0201797
0.0185116
0.0169177
0.0147489
0.0133535
0.0121131
0.0110325
0.00993109
0.0094473
0.00956412
0.00904466
0.00827882
0.0079585
0.00691989
0.011062
0.039726
0.0960724
0.157202
0.0156814
0.0150033
0.0157093
0.0132697
0.0119726
0.0111788
0.0107145
0.00990405
0.00904751
0.00859812
0.00821115
0.00791041
0.00752311
0.00743373
0.0072567
0.00696447
0.0108106
0.0370434
0.0952634
0.153803
0.0132995
0.0117072
0.0100697
0.0097257
0.00968242
0.00906119
0.00859256
0.00832936
0.00817633
0.00768347
0.00726362
0.00680054
0.00664048
0.00617046
0.00602429
0.0051771
0.00934597
0.0393349
0.0953537
0.142661
0.00659493
0.00734091
0.00848753
0.00824897
0.00745608
0.0070127
0.0067227
0.00638409
0.00598059
0.00590452
0.00582747
0.00583803
0.00559253
0.00560021
0.00544446
0.00467942
0.00970768
0.0367309
0.0951037
0.140666
0.00587483
0.00651214
0.00585968
0.00531009
0.00529278
0.00549236
0.00548708
0.00555128
0.00557979
0.00541276
0.00517811
0.00487841
0.00479984
0.00456422
0.00442399
0.00372645
0.00697171
0.0353188
0.0959002
0.13562
0.00331047
0.00369734
0.00419412
0.0048607
0.00476558
0.00447607
0.00432308
0.00421155
0.00408165
0.00417285
0.00429426
0.00446107
0.00437562
0.00434575
0.0042899
0.00321097
0.0053547
0.0325835
0.0962321
0.13421
0.00298278
0.00333576
0.00351958
0.00326793
0.00303896
0.00326709
0.00344868
0.00370202
0.00390469
0.00399007
0.0038403
0.00373651
0.00377228
0.00378394
0.00378153
0.00310528
0.00545952
0.0288885
0.0962065
0.133783
0.00166948
0.00208215
0.00228122
0.00261053
0.00288479
0.0030345
0.00307735
0.00306716
0.00293736
0.00314313
0.00337153
0.00370826
0.0036725
0.00380603
0.00377159
0.00296225
0.0022076
0.0247899
0.0965654
0.137009
0.00171925
0.00178627
0.00194506
0.00201308
0.00193037
0.00202531
0.00223154
0.00263387
0.00290947
0.00307203
0.00302077
0.00311594
0.00323699
0.00353276
0.00365004
0.00345383
0.00358091
0.0185169
0.0946536
0.142856
0.000815908
0.00122017
0.00134253
0.00159054
0.00177795
0.00203385
0.00216517
0.00227782
0.00230438
0.00260794
0.00286242
0.00330657
0.00337984
0.00374117
0.00379443
0.00381656
0.00227489
0.0142247
0.0917455
0.151807
0.000866072
0.00102338
0.00112924
0.00122829
0.00129128
0.00149186
0.00162895
0.00189308
0.00215552
0.00243258
0.00252273
0.00275214
0.00298695
0.00348404
0.00375713
0.00440603
0.00289728
0.00713076
0.0758761
0.164061
0.00061346
0.000744901
0.000900949
0.00110328
0.00122058
0.00139427
0.00158333
0.00180939
0.0018402
0.00207312
0.00232207
0.00275112
0.00294972
0.00335189
0.00369795
0.00455761
0.004272
0.00530291
0.0614345
0.179009
0.000541214
0.000675157
0.000693901
0.000833014
0.000912721
0.0010889
0.00112235
0.00134004
0.00156045
0.0017653
0.00186242
0.00213748
0.00257667
0.00292653
0.00357347
0.00399974
0.00511873
0.00953431
0.0384594
0.17308
0.000491802
0.000599379
0.000671082
0.000777774
0.000838288
0.000975864
0.00106684
0.00120303
0.0012378
0.00157988
0.00166561
0.00194723
0.00181679
0.00240931
0.00214246
0.00316512
0.00355046
0.00692534
0.0173731
0.117872
0.00032917
0.000457991
0.000495714
0.000579615
0.000625779
0.000734595
0.0008081
0.000973373
0.00101226
0.00123994
0.00127262
0.00158955
0.00159101
0.00204464
0.00201437
0.00253744
0.0024363
0.00371627
0.00524504
0.0662754
0.000354768
0.000401283
0.000422765
0.000475352
0.000503699
0.000568106
0.000602588
0.000666276
0.0007405
0.000780713
0.000766931
0.000906041
0.00108096
0.00112022
0.00133313
0.00141767
0.00190754
0.00250157
0.0030238
0.032182
0.000257428
0.000281933
0.000313559
0.000345457
0.000393327
0.000425051
0.000539038
0.000611507
0.000598267
0.000651223
0.000767441
0.000896184
0.000885744
0.000977088
0.000964576
0.00110772
0.00119665
0.000981374
0.00135081
0.0145029
0.00020558
0.000232878
0.000255777
0.000297483
0.000317622
0.000387428
0.000385357
0.000347041
0.000459547
0.000528485
0.000501925
0.000542257
0.000643517
0.00070833
0.000771982
0.000864593
0.000869434
0.00106685
0.00112893
0.0018033
0.000111003
0.000127697
0.000142006
0.000163059
0.000183066
0.000224848
0.000298299
0.000356141
0.00035189
0.000380656
0.000432627
0.000529858
0.000522874
0.000581311
0.000558267
0.000565406
0.00050638
0.000451214
0.000669771
0.00117473
0.0138548
0.013863
0.0138076
0.0137101
0.013721
0.0136157
0.0133662
0.0139615
0.0131391
0.0132951
0.0125165
0.0122555
0.0124718
0.0112262
0.0111953
0.00986218
0.00959373
0.00916639
0.00919059
0.00785161
0.00701855
0.00701103
0.00694741
0.00696969
0.00685169
0.00679053
0.00686823
0.0066306
0.00666485
0.0066192
0.00636411
0.00778208
0.00716314
0.00666199
0.00613648
0.0067054
0.00663922
0.00658091
0.00673599
0.00749873
0.00436776
0.00437874
0.00442065
0.00445452
0.00445544
0.00460999
0.00447865
0.00460445
0.00454277
0.00451553
0.00467138
0.00427226
0.00409732
0.00426852
0.00417278
0.00429798
0.00378685
0.00394524
0.00348389
0.0037928
0.00278714
0.00278491
0.00278371
0.00275103
0.00276192
0.0027293
0.00268019
0.00265017
0.00264667
0.00270009
0.00247068
0.00272539
0.0027534
0.00285559
0.00273997
0.00279183
0.00266595
0.00297914
0.00279674
0.00306796
0.00176153
0.00175805
0.0017659
0.00176016
0.00177191
0.0017714
0.00176655
0.00186345
0.00184349
0.00179561
0.00198318
0.00193758
0.00186743
0.00191467
0.00186119
0.0019459
0.0018359
0.00195818
0.00184081
0.00177789
0.00126672
0.00126316
0.00126949
0.0012632
0.00127406
0.00126333
0.00126864
0.00127618
0.00122985
0.00127648
0.00124259
0.00126461
0.0012936
0.00135063
0.00131081
0.00133255
0.0012898
0.00144977
0.00134019
0.00126215
0.000787316
0.000786962
0.000788958
0.000792523
0.000796682
0.000796886
0.000799353
0.000805937
0.000804442
0.000811198
0.000818437
0.000851344
0.000873169
0.000907275
0.000866892
0.000876621
0.000894338
0.000966157
0.000879044
0.000765968
0.000576478
0.000577533
0.000580932
0.000588349
0.000592448
0.000594069
0.00059341
0.000597488
0.000596984
0.00060442
0.000598867
0.000624105
0.000645634
0.000676198
0.000640899
0.000638211
0.000639111
0.000697252
0.000627963
0.000546141
0.000326565
0.000327819
0.000331798
0.000337596
0.000339332
0.000337044
0.000335893
0.000339856
0.000341342
0.000349047
0.000350154
0.000389653
0.000418178
0.000458625
0.00042587
0.000426913
0.000430781
0.000505638
0.000422388
0.000301603
0.000220734
0.00022383
0.000229348
0.000235637
0.000234092
0.000232775
0.000232433
0.000236514
0.000237749
0.000242892
0.000240563
0.000256304
0.000259487
0.000286051
0.000257087
0.000249144
0.000237898
0.000223925
0.000313075
0.000359235
8.35759e-05
8.70068e-05
9.71479e-05
0.000107445
0.000108757
0.000110789
0.000115383
0.000124314
0.000131482
0.000141162
0.000143829
0.00016377
0.000175253
0.000228444
0.00019851
0.000202086
0.000180131
0.000245217
0.000182658
0.000141493
1.04135e-05
1.7509e-05
3.50333e-05
4.91958e-05
4.70836e-05
5.67386e-05
6.5008e-05
7.77572e-05
8.87239e-05
9.09496e-05
0.000100152
0.000100132
0.000100951
7.06656e-05
0.00010898
0.000151919
0.000176056
0.000127234
0.000198084
0.000258577
1.70733e-05
3.22679e-05
4.64299e-05
6.04358e-05
4.61666e-05
4.29976e-05
4.67415e-05
5.56939e-05
5.93812e-05
7.17539e-05
6.73851e-05
7.23786e-05
6.92694e-05
0.00010457
8.22534e-05
9.14425e-05
0.000105908
0.000105261
0.000134787
0.000101948
4.82912e-05
4.84504e-05
5.09308e-05
5.08785e-05
5.17033e-05
5.75108e-05
6.35066e-05
6.60048e-05
7.57585e-05
7.27996e-05
8.12523e-05
9.09917e-05
0.000104573
9.69049e-05
0.000117979
0.000100732
9.83026e-05
0.0001006
0.000106667
0.000127193
5.84819e-05
6.01742e-05
6.70563e-05
7.3707e-05
7.06604e-05
6.6249e-05
6.34008e-05
6.76772e-05
6.66575e-05
7.1024e-05
6.79305e-05
6.77198e-05
6.68941e-05
7.84548e-05
8.0384e-05
8.6884e-05
9.61305e-05
9.5527e-05
0.000106358
0.000110471
6.30323e-05
6.42038e-05
6.64359e-05
6.89472e-05
6.91031e-05
6.7829e-05
7.16346e-05
6.97484e-05
7.58261e-05
7.67877e-05
8.73121e-05
9.2951e-05
8.35131e-05
7.62966e-05
8.23792e-05
7.85917e-05
8.29142e-05
8.31721e-05
8.7501e-05
9.4186e-05
5.80706e-05
5.75108e-05
5.83696e-05
6.63323e-05
6.07945e-05
5.63102e-05
5.55798e-05
5.78831e-05
5.77908e-05
6.17047e-05
6.24703e-05
6.32355e-05
6.80499e-05
6.84569e-05
7.23609e-05
7.29561e-05
7.62237e-05
7.58436e-05
8.0533e-05
8.32837e-05
4.03694e-05
3.99095e-05
4.22263e-05
4.92825e-05
4.98842e-05
4.89e-05
5.00015e-05
4.97815e-05
5.13349e-05
5.34823e-05
5.3045e-05
4.73899e-05
4.86357e-05
4.93157e-05
5.12381e-05
5.17736e-05
5.41427e-05
5.42577e-05
5.72927e-05
5.91681e-05
2.89056e-05
2.91752e-05
2.84765e-05
2.62905e-05
2.26431e-05
2.41193e-05
2.37287e-05
2.52507e-05
2.67664e-05
3.18164e-05
3.36758e-05
3.68565e-05
3.89121e-05
3.96568e-05
4.15014e-05
4.17242e-05
4.39733e-05
4.40611e-05
4.63044e-05
4.75491e-05
7.74848e-06
7.92583e-06
6.21707e-06
8.01637e-06
9.27702e-06
1.11811e-05
1.23975e-05
1.36759e-05
1.51997e-05
1.53136e-05
1.60108e-05
1.75102e-05
1.85699e-05
1.99505e-05
2.05178e-05
2.17155e-05
2.2471e-05
2.36281e-05
2.43393e-05
2.57279e-05
0.00093901
0.00114292
0.000803571
0.000857315
0.000897167
0.000905487
0.00092889
0.000950593
0.000982733
0.00101599
0.0010548
0.00107896
0.0011556
0.00117322
0.00125658
0.00129578
0.00126003
0.00195531
0.0066836
0.0178479
0.00090641
0.000979105
0.000722337
0.000803798
0.000870682
0.00089192
0.000928725
0.000964495
0.000999076
0.00104386
0.00107832
0.00111133
0.00118151
0.00119355
0.00123979
0.0012519
0.00130103
0.00144128
0.00558834
0.0175507
0.000929125
0.00108041
0.000790746
0.000845933
0.000907282
0.000925837
0.000955538
0.000985541
0.00102004
0.00105411
0.00108959
0.00112305
0.00119539
0.00120461
0.00129664
0.00130971
0.0013908
0.00123264
0.00472289
0.0172236
0.00101121
0.00110365
0.000797086
0.000866112
0.000911658
0.000930858
0.000963234
0.000998186
0.00103326
0.00107617
0.00110688
0.00115292
0.00121048
0.00122609
0.00128173
0.00126779
0.0013953
0.00116288
0.00384297
0.0168156
0.000994491
0.00111876
0.00083683
0.000877971
0.000934171
0.000965097
0.000991277
0.00102605
0.00105988
0.00109107
0.0011296
0.00117239
0.00122977
0.00124057
0.00132518
0.00134992
0.00146731
0.00126914
0.00395308
0.0163058
0.00106517
0.00115375
0.000851401
0.000914088
0.000976525
0.000987634
0.00100893
0.00104337
0.00106864
0.00111167
0.00114242
0.00119398
0.00123461
0.00126768
0.0013368
0.00133666
0.00147427
0.00131776
0.00477356
0.0157178
0.00104935
0.00110964
0.000848526
0.000930406
0.000967565
0.000983982
0.00101396
0.00104874
0.00108348
0.00111951
0.00116247
0.00120868
0.00125347
0.00129045
0.00136398
0.00140744
0.00152877
0.00141079
0.00439089
0.0151787
0.00107022
0.00111735
0.000900412
0.000959432
0.000998931
0.00101943
0.0010425
0.00107523
0.00109447
0.00114404
0.00117057
0.001217
0.00124838
0.00130355
0.00136259
0.00139016
0.00151765
0.00141272
0.00387589
0.0140924
0.0010204
0.00108546
0.000892236
0.000939133
0.000973477
0.000986837
0.00101379
0.00104245
0.00109068
0.00113382
0.00116583
0.00120966
0.00125653
0.00132134
0.00136695
0.00143488
0.0015119
0.00144993
0.00314501
0.0128643
0.00105782
0.00107987
0.000902689
0.000947384
0.000981886
0.0010161
0.00104726
0.00110144
0.00112975
0.00115736
0.00116355
0.00121442
0.00126511
0.00131734
0.00135088
0.00141111
0.00145834
0.00148446
0.00249512
0.0102423
0.000982418
0.00100272
0.000882745
0.000933269
0.000988348
0.00101588
0.00104829
0.00106233
0.00107273
0.00108651
0.0011285
0.00122232
0.00126666
0.00132022
0.00134523
0.00140578
0.00144227
0.00149919
0.00211679
0.00835603
0.00101863
0.00105626
0.000948338
0.000991569
0.00101316
0.00102549
0.00102397
0.00104642
0.00107054
0.0011322
0.00121756
0.00127908
0.00129059
0.00131867
0.00132717
0.00140971
0.00143361
0.00148847
0.0018239
0.00672937
0.000997696
0.000991158
0.000890202
0.000908279
0.000939436
0.000947599
0.000987096
0.00103867
0.00109888
0.00118207
0.00121608
0.00123947
0.0012342
0.00127113
0.00132135
0.00140532
0.00141551
0.00152022
0.00168696
0.00569541
0.000901518
0.000909757
0.000865326
0.000918836
0.000973485
0.00102042
0.00108647
0.00113201
0.00119125
0.00120806
0.00121562
0.00122726
0.00123645
0.00132118
0.00135069
0.0014275
0.00145817
0.00151399
0.00158378
0.00481019
0.000973988
0.00101256
0.000970711
0.00102179
0.00105076
0.00108423
0.00109723
0.00111377
0.00111939
0.00111225
0.00113916
0.00115439
0.00122801
0.00128752
0.00133253
0.00145846
0.00142819
0.00150674
0.00155111
0.00439132
0.00095599
0.000974106
0.000928292
0.0009617
0.000979832
0.00100118
0.00101158
0.00104789
0.00106742
0.00112572
0.00117715
0.00125014
0.00133587
0.00137735
0.00147392
0.00146709
0.00141288
0.00153059
0.00163035
0.00431221
0.00095279
0.000975951
0.000953123
0.000989939
0.00102815
0.00105486
0.00109404
0.00113288
0.00117459
0.0012225
0.00125425
0.00130475
0.00130558
0.00133139
0.0013104
0.00126502
0.00131679
0.00141521
0.00156657
0.00359818
0.000930373
0.00096784
0.00093815
0.000976449
0.00101139
0.00102856
0.00106198
0.00108201
0.00111632
0.00113329
0.00116827
0.00118261
0.00120911
0.00124458
0.00127943
0.00137683
0.00153956
0.00169301
0.00181096
0.00361716
0.000921842
0.000959029
0.000932044
0.000979176
0.00101143
0.00103691
0.00106886
0.0011008
0.00113611
0.00117214
0.00121562
0.00125375
0.00131987
0.00136925
0.00145298
0.00152459
0.00161554
0.00156777
0.00151794
0.00198166
0.000915232
0.000955305
0.000927388
0.000975218
0.00100376
0.00103169
0.00106057
0.00109566
0.00112863
0.00116511
0.00119963
0.00123913
0.00127375
0.00132545
0.00136919
0.00141611
0.00145422
0.00146515
0.00160652
0.00200338
0.000230193
0.000176666
0.00020789
0.000203936
0.000189289
0.000111686
0.000108107
0.000246216
0.000182371
0.000110353
5.24885e-05
0.000494319
0.00175641
0.00454314
0.00858326
0.0104837
0.00745671
0.00320784
0.000199396
0.000597298
0.000264798
0.000203809
0.000199737
0.000188715
0.000224435
0.000205398
0.000158857
0.000187263
0.000263056
0.000203465
0.000103124
4.64931e-05
0.000613858
0.00226311
0.00569938
0.00961544
0.0100135
0.00584241
0.00148771
6.30334e-23
0.00027558
0.000251892
0.00026303
0.000195625
0.000187536
0.000214812
0.000227649
0.000179787
0.000218391
0.000272611
0.000225842
0.000101805
6.24599e-05
0.000903622
0.00328282
0.00746023
0.0107443
0.00848164
0.0036418
0.000273108
0.000286898
0.000239685
0.000291834
0.000274209
0.000244996
0.000208631
0.00022789
0.000232574
0.000230203
0.000242696
0.000286597
0.000234144
6.33716e-05
0.000174896
0.00152863
0.00515885
0.00964155
0.0103688
0.00615631
0.000805246
0.000327085
0.000268457
0.000273936
0.000270672
0.000283363
0.000257188
0.000266318
0.000230253
0.00026697
0.000271795
0.000284969
0.000301463
0.000241524
0.000129429
0.00049542
0.00292971
0.00784519
0.011122
0.00846091
0.00171362
0.00034776
0.000318058
0.000342241
0.000307614
0.000313769
0.000267493
0.000303079
0.000294055
0.000274957
0.000304351
0.000315682
0.000349448
0.000324649
0.000218718
0.000154969
0.00135541
0.00598619
0.0109425
0.00965703
0.00266483
0.000376886
0.000333937
0.000348196
0.000323853
0.000367976
0.000322629
0.000322608
0.00031637
0.00034024
0.000334863
0.000347949
0.000376992
0.000399169
0.000353616
0.000182523
0.000369624
0.00373604
0.00985681
0.0109758
0.00475532
0.00040487
0.000395352
0.000421065
0.00034948
0.000391985
0.000358731
0.000386792
0.000377233
0.000363026
0.000403642
0.000414303
0.000412753
0.00048152
0.000469143
0.000332998
0.000232396
0.00200041
0.00869841
0.0115376
0.00696441
0.000421805
0.000403692
0.00044753
0.000387941
0.000446141
0.000406765
0.000404498
0.00042057
0.000436404
0.000432624
0.000466639
0.000495088
0.000502948
0.000576039
0.000530382
0.000286451
0.00074706
0.00756651
0.0118545
0.00934162
0.000460171
0.000461664
0.000514167
0.000424397
0.000474148
0.000462002
0.000480244
0.000476781
0.000474407
0.000516946
0.000530582
0.000540423
0.00060456
0.000639324
0.00060086
0.000389647
0.000425011
0.00549488
0.0116742
0.0118344
0.00049077
0.000471641
0.000537345
0.000471549
0.000521811
0.000501349
0.000500112