/*--------------------------------*- C++ -*----------------------------------*\
  =========                 |
  \\      /  F ield         | OpenFOAM: The Open Source CFD Toolbox
   \\    /   O peration     | Website:  https://openfoam.org
    \\  /    A nd           | Version:  9
     \\/     M anipulation  |
\*---------------------------------------------------------------------------*/
FoamFile
{
    format      ascii;
    class       surfaceScalarField;
    location    "2.9";
    object      phi;
}
// * * * * * * * * * * * * * * * * * * * * * * * * * * * * * * * * * * * * * //

dimensions      [0 3 -1 0 0 0 0];

internalField   nonuniform List<scalar> 
92080
(
0.0017364
-0.427297
0.425561
-0.014205
-0.875753
0.891694
-0.0491122
-0.96555
1.00046
-0.0851464
-0.951492
0.987526
-0.11989
-0.936681
0.971424
-0.154271
-0.921958
0.956339
-0.18801
-0.909916
0.943655
-0.221444
-0.896151
0.929585
-0.254425
-0.8838
0.916781
-0.287363
-0.872665
0.905602
-0.320115
-0.862668
0.895419
-0.352736
-0.853372
0.885994
-0.385369
-0.845655
0.878288
-0.417336
-0.837618
0.869585
-0.449233
-0.830116
0.862012
-0.481326
-0.822964
0.855058
-0.512879
-0.816842
0.848395
-0.543458
-0.810058
0.840638
-0.573079
-0.802346
0.831966
-0.797095
0.82481
-0.600793
-0.000286928
-0.42701
-0.0203489
-0.855691
-0.0560687
-0.92983
-0.0928888
-0.914672
-0.129291
-0.900278
-0.165645
-0.885604
-0.201425
-0.874136
-0.236537
-0.86104
-0.271808
-0.848528
-0.306773
-0.8377
-0.341575
-0.827866
-0.376432
-0.818514
-0.410709
-0.811379
-0.444681
-0.803646
-0.478038
-0.796758
-0.510673
-0.790329
-0.54292
-0.784596
-0.573917
-0.779061
-0.603058
-0.773205
-0.768356
-0.631797
-0.00279026
-0.42422
-0.0266016
-0.83188
-0.066523
-0.889909
-0.106652
-0.874543
-0.145519
-0.861411
-0.183893
-0.84723
-0.221695
-0.836334
-0.258829
-0.823906
-0.295342
-0.812015
-0.331852
-0.801191
-0.367937
-0.791781
-0.404034
-0.782417
-0.440368
-0.775044
-0.475876
-0.768139
-0.511429
-0.761205
-0.547005
-0.754754
-0.581991
-0.749609
-0.616034
-0.745018
-0.649245
-0.739993
-0.735133
-0.682469
-0.00535165
-0.418868
-0.0333559
-0.803875
-0.0734336
-0.849831
-0.113983
-0.833994
-0.154263
-0.82113
-0.194344
-0.807149
-0.233723
-0.796955
-0.272247
-0.785382
-0.310732
-0.77353
-0.34883
-0.763093
-0.386703
-0.753908
-0.424304
-0.744816
-0.46181
-0.737538
-0.499277
-0.730672
-0.53576
-0.724721
-0.572268
-0.718246
-0.609762
-0.712115
-0.646838
-0.707943
-0.682266
-0.704565
-0.69974
-0.717659
-0.00487355
-0.413995
-0.0393302
-0.769419
-0.0824155
-0.806746
-0.125414
-0.790995
-0.167545
-0.779
-0.209521
-0.765173
-0.251239
-0.755237
-0.291927
-0.744695
-0.33181
-0.733647
-0.371757
-0.723145
-0.411202
-0.714463
-0.450549
-0.705469
-0.489954
-0.698132
-0.529012
-0.691614
-0.568166
-0.685568
-0.605774
-0.680637
-0.643166
-0.674724
-0.68235
-0.668758
-0.721059
-0.665856
-0.662373
-0.758426
-0.00081897
-0.413176
-0.0383248
-0.731913
-0.0835335
-0.761537
-0.128852
-0.745677
-0.173558
-0.734293
-0.217654
-0.721077
-0.261046
-0.711844
-0.303343
-0.702398
-0.345039
-0.691951
-0.386159
-0.682025
-0.4271
-0.673522
-0.467548
-0.665021
-0.508165
-0.657516
-0.548685
-0.651094
-0.589235
-0.645018
-0.630319
-0.639553
-0.669493
-0.63555
-0.708565
-0.629686
-0.749263
-0.625158
-0.622011
-0.789625
-0.000131689
-0.413044
-0.0409716
-0.691073
-0.0900913
-0.712418
-0.137711
-0.698057
-0.184059
-0.687945
-0.230047
-0.675089
-0.27597
-0.665922
-0.320501
-0.657867
-0.363772
-0.64868
-0.406803
-0.638994
-0.449065
-0.63126
-0.490861
-0.623225
-0.532519
-0.615858
-0.573845
-0.609768
-0.61456
-0.604303
-0.655435
-0.598679
-0.696787
-0.594198
-0.736402
-0.59007
-0.776472
-0.585088
-0.581246
-0.817237
0.00116415
-0.414208
-0.0411654
-0.648744
-0.0923679
-0.661215
-0.142534
-0.64789
-0.191206
-0.639274
-0.238452
-0.627843
-0.285281
-0.619092
-0.331199
-0.611948
-0.375862
-0.604017
-0.419742
-0.595114
-0.463591
-0.587411
-0.506416
-0.5804
-0.549385
-0.572889
-0.592827
-0.566326
-0.635894
-0.561235
-0.678302
-0.556271
-0.720617
-0.551883
-0.76277
-0.547917
-0.803375
-0.544483
-0.540099
-0.844521
-0.000675588
-0.413533
-0.0476391
-0.60178
-0.101001
-0.607853
-0.151858
-0.597033
-0.201737
-0.589395
-0.250638
-0.578943
-0.299546
-0.570185
-0.34721
-0.564284
-0.393206
-0.558021
-0.438354
-0.549966
-0.482852
-0.542913
-0.526583
-0.53667
-0.568792
-0.53068
-0.611102
-0.524016
-0.65394
-0.518397
-0.696822
-0.51339
-0.739628
-0.509076
-0.782517
-0.505028
-0.824977
-0.502023
-0.498932
-0.866144
-0.00670147
-0.406831
-0.0549359
-0.553546
-0.108786
-0.554003
-0.1611
-0.544719
-0.211684
-0.53881
-0.260523
-0.530104
-0.309269
-0.521439
-0.358357
-0.515196
-0.405561
-0.510817
-0.451334
-0.504193
-0.497445
-0.496802
-0.543364
-0.490751
-0.588659
-0.485384
-0.632469
-0.480206
-0.675753
-0.475114
-0.719019
-0.470123
-0.762085
-0.466011
-0.80542
-0.461693
-0.849017
-0.458426
-0.455206
-0.892743
-0.016586
-0.390245
-0.0669924
-0.503139
-0.120635
-0.50036
-0.173009
-0.492346
-0.2242
-0.487619
-0.274278
-0.480025
-0.323724
-0.471993
-0.373326
-0.465594
-0.422524
-0.461619
-0.468711
-0.458006
-0.513183
-0.45233
-0.557978
-0.445956
-0.602584
-0.440778
-0.647482
-0.435308
-0.691449
-0.431146
-0.735073
-0.426499
-0.778293
-0.422791
-0.820906
-0.41908
-0.863527
-0.415806
-0.412818
-0.905915
-0.0241017
-0.366144
-0.0746814
-0.452559
-0.127681
-0.447361
-0.181143
-0.438884
-0.233486
-0.435276
-0.283157
-0.430354
-0.332758
-0.422393
-0.383082
-0.41527
-0.434373
-0.410328
-0.485396
-0.406983
-0.533443
-0.404282
-0.579585
-0.399815
-0.624949
-0.395414
-0.669558
-0.390699
-0.714629
-0.386074
-0.759159
-0.381969
-0.804036
-0.377914
-0.848743
-0.374374
-0.893225
-0.371323
-0.368233
-0.93781
-0.0316251
-0.334519
-0.0841155
-0.400069
-0.137526
-0.393951
-0.190257
-0.386153
-0.243668
-0.381864
-0.295201
-0.378821
-0.343701
-0.373892
-0.391778
-0.367193
-0.440802
-0.361304
-0.49088
-0.356905
-0.541341
-0.353822
-0.589912
-0.351243
-0.636927
-0.348399
-0.682434
-0.345193
-0.726458
-0.34205
-0.770293
-0.338134
-0.813079
-0.335128
-0.856359
-0.331093
-0.899231
-0.328451
-0.324898
-0.942566
-0.0374861
-0.297033
-0.0912697
-0.346285
-0.145457
-0.339763
-0.199505
-0.332105
-0.253295
-0.328075
-0.306532
-0.325584
-0.35842
-0.322005
-0.40771
-0.317903
-0.456519
-0.312495
-0.505861
-0.307563
-0.555852
-0.303831
-0.606949
-0.300145
-0.657133
-0.298216
-0.706947
-0.295378
-0.755129
-0.293868
-0.802077
-0.291187
-0.847902
-0.289303
-0.892218
-0.286777
-0.93615
-0.284519
-0.282309
-0.978739
-0.0415516
-0.255481
-0.095993
-0.291844
-0.148592
-0.287164
-0.201634
-0.279063
-0.256663
-0.273046
-0.310095
-0.272152
-0.362111
-0.269989
-0.41262
-0.267394
-0.460407
-0.264708
-0.507881
-0.260089
-0.5547
-0.257012
-0.602158
-0.252687
-0.650519
-0.249855
-0.699115
-0.246782
-0.748544
-0.244439
-0.797386
-0.242345
-0.846529
-0.240161
-0.894826
-0.23848
-0.942944
-0.236401
-0.23476
-0.990493
-0.0445953
-0.210886
-0.104241
-0.232198
-0.160009
-0.231396
-0.212058
-0.227013
-0.265565
-0.21954
-0.3225
-0.215216
-0.377992
-0.214497
-0.433103
-0.212282
-0.486074
-0.211738
-0.536566
-0.209597
-0.58578
-0.207798
-0.632921
-0.205546
-0.679773
-0.203003
-0.725701
-0.200855
-0.771819
-0.198321
-0.817721
-0.196442
-0.863642
-0.194239
-0.909657
-0.192466
-0.955499
-0.190559
-0.188788
-1.00147
-0.0506819
-0.160204
-0.109761
-0.17312
-0.16424
-0.176916
-0.214828
-0.176425
-0.261864
-0.172505
-0.310753
-0.166327
-0.362129
-0.163121
-0.414254
-0.160157
-0.467881
-0.158111
-0.520856
-0.156622
-0.573692
-0.154962
-0.625393
-0.153845
-0.676251
-0.152145
-0.726181
-0.150924
-0.775203
-0.149299
-0.823685
-0.147961
-0.871398
-0.146526
-0.918695
-0.145168
-0.965405
-0.143849
-0.142406
-1.01179
-0.050517
-0.109687
-0.11483
-0.108807
-0.177939
-0.113807
-0.238222
-0.116143
-0.293336
-0.11739
-0.343745
-0.115918
-0.393191
-0.113675
-0.441686
-0.111662
-0.490217
-0.109579
-0.539065
-0.107774
-0.587877
-0.106149
-0.636898
-0.104825
-0.685487
-0.103556
-0.734035
-0.102376
-0.782055
-0.101278
-0.829865
-0.100151
-0.877263
-0.0991284
-0.924348
-0.0980831
-0.971082
-0.0971145
-0.0961356
-1.01735
-0.0492424
-0.0604444
-0.0969418
-0.0611074
-0.152291
-0.0584574
-0.20858
-0.0598538
-0.267703
-0.0582673
-0.324387
-0.0592346
-0.380205
-0.0578562
-0.43407
-0.057798
-0.486923
-0.0567256
-0.53832
-0.0563781
-0.589252
-0.0552171
-0.639245
-0.0548315
-0.688927
-0.053875
-0.737784
-0.0535185
-0.78632
-0.0527423
-0.834068
-0.0524044
-0.881474
-0.0517222
-0.928164
-0.0513927
-0.974497
-0.0507819
-0.0504116
-1.02022
-0.0747316
0.0142872
-0.125221
-0.0106178
-0.177566
-0.00611243
-0.227669
-0.00975107
-0.280445
-0.0054909
-0.332733
-0.00694633
-0.385705
-0.00488464
-0.43774
-0.00576287
-0.489984
-0.00448199
-0.540989
-0.00537259
-0.591748
-0.00445847
-0.641566
-0.00501313
-0.691119
-0.00432278
-0.739945
-0.00469162
-0.78851
-0.00417759
-0.83641
-0.0045048
-0.884002
-0.00412984
-0.930937
-0.00445756
-0.977521
-0.00419772
-1.02334
-0.00459472
-0.0100053
0.0516534
-0.0416482
0.00417179
0.0412955
-0.0554726
0.0651766
-0.040931
-0.0200739
0.221238
-0.254298
0.0982364
0.455773
-0.592946
0.358412
0.652183
-0.866192
0.669781
0.76176
-1.01232
0.902741
0.813075
-1.06812
1.0168
0.839231
-1.08578
1.05962
0.854929
-1.08956
1.07387
0.866799
-1.08925
1.07738
0.875452
-1.08634
1.07769
0.8826
-1.08308
1.07593
0.891089
-1.08105
1.07256
0.900601
-1.08141
1.0719
0.908704
-1.07952
1.07141
0.915745
-1.07898
1.07194
0.922918
-1.07747
1.0703
0.930429
-1.0778
1.07029
-1.07592
0.937105
1.06925
-0.000857997
0.0525114
0.0334363
0.00700119
0.129772
-0.137267
0.338695
-0.46322
0.540899
-0.795151
0.664324
-0.989617
0.722057
-1.07005
0.748548
-1.09461
0.762781
-1.10001
0.772688
-1.09947
0.780057
-1.09662
0.78548
-1.09177
0.792373
-1.08997
0.799949
-1.08862
0.806026
-1.08749
0.811769
-1.08526
0.81802
-1.08523
0.824167
-1.08362
0.829483
-1.08312
-1.07993
0.833489
0.00944154
0.0430699
0.0633005
-0.0468578
0.207222
-0.281188
0.409967
-0.665965
0.550481
-0.935665
0.62257
-1.06171
0.652652
-1.10013
0.667187
-1.10915
0.676305
-1.10913
0.682702
-1.10587
0.68713
-1.10105
0.692997
-1.09763
0.699405
-1.09638
0.704473
-1.09369
0.709439
-1.09246
0.714872
-1.09069
0.720039
-1.0904
0.72339
-1.08697
0.726187
-1.08591
-1.08262
0.728876
0.0230679
0.020002
0.0949005
-0.11869
0.27096
-0.457248
0.433819
-0.828824
0.527423
-1.02927
0.564723
-1.09901
0.581102
-1.11651
0.590131
-1.11817
0.596179
-1.11518
0.599825
-1.10952
0.604398
-1.10562
0.609139
-1.10237
0.612883
-1.10012
0.616745
-1.09755
0.62047
-1.09618
0.62356
-1.09378
0.625387
-1.09223
0.626982
-1.08857
0.628593
-1.08753
-1.0837
0.629676
0.0378097
-0.0178077
0.124411
-0.205291
0.291976
-0.624813
0.410109
-0.946957
0.466341
-1.0855
0.489347
-1.12201
0.499901
-1.12706
0.506468
-1.12474
0.509833
-1.11854
0.513626
-1.11331
0.517093
-1.10909
0.520082
-1.10536
0.523184
-1.10322
0.525682
-1.10005
0.527492
-1.09799
0.528968
-1.09526
0.529882
-1.09314
0.530842
-1.08953
0.53122
-1.0879
-1.08292
0.530441
0.0387691
-0.0565768
0.152138
-0.318661
0.294684
-0.767359
0.378467
-1.03074
0.411342
-1.11838
0.423813
-1.13448
0.430319
-1.13357
0.433491
-1.12791
0.435863
-1.12091
0.438091
-1.11554
0.439887
-1.11088
0.441751
-1.10723
0.442614
-1.10409
0.443035
-1.10047
0.443207
-1.09816
0.4428
-1.09485
0.441585
-1.09193
0.440052
-1.08799
0.437966
-1.08582
-1.0802
0.435242
0.0345561
-0.0911328
0.156234
-0.440339
0.264754
-0.875878
0.319972
-1.08596
0.339771
-1.13818
0.347828
-1.14254
0.35245
-1.13819
0.35436
-1.12982
0.356145
-1.1227
0.357448
-1.11684
0.358246
-1.11168
0.358169
-1.10715
0.35771
-1.10363
0.356829
-1.09959
0.355215
-1.09655
0.353038
-1.09268
0.35039
-1.08928
0.347692
-1.08529
0.344391
-1.08252
-1.07595
0.34014
0.038643
-0.129776
0.148079
-0.549775
0.233893
-0.961692
0.27176
-1.12383
0.283944
-1.15036
0.289543
-1.14814
0.290834
-1.13948
0.29144
-1.13043
0.291435
-1.12269
0.290599
-1.116
0.288949
-1.11003
0.287051
-1.10525
0.284371
-1.10095
0.281074
-1.09629
0.277366
-1.09284
0.273189
-1.0885
0.268465
-1.08455
0.263433
-1.08026
0.257812
-1.0769
-1.06973
0.251595
0.0424338
-0.17221
0.134225
-0.641566
0.196757
-1.02422
0.218058
-1.14513
0.223762
-1.15606
0.224577
-1.14895
0.224032
-1.13894
0.222818
-1.12921
0.220661
-1.12054
0.217875
-1.11322
0.214634
-1.10679
0.210604
-1.10122
0.206
-1.09634
0.200964
-1.09126
0.195326
-1.0872
0.189176
-1.08235
0.182565
-1.07794
0.175765
-1.07346
0.168506
-1.06964
-1.06181
0.160585
0.0468906
-0.2191
0.119421
-0.714097
0.164717
-1.06952
0.176516
-1.15692
0.178453
-1.158
0.176485
-1.14698
0.173775
-1.13623
0.169873
-1.12531
0.165341
-1.116
0.160094
-1.10797
0.154042
-1.10074
0.14752
-1.0947
0.140397
-1.08922
0.13271
-1.08357
0.124591
-1.07908
0.116057
-1.07381
0.107087
-1.06897
0.0978466
-1.06422
0.0881277
-1.05992
-1.05168
0.0779976
0.0430979
-0.262198
0.101308
-0.772307
0.131089
-1.0993
0.13384
-1.15968
0.130169
-1.15433
0.124485
-1.1413
0.118402
-1.13015
0.111681
-1.11859
0.104272
-1.1086
0.0962918
-1.09999
0.0878898
-1.09234
0.078937
-1.08575
0.0694704
-1.07975
0.0595909
-1.07369
0.0492981
-1.06879
0.0386348
-1.06315
0.0275776
-1.05792
0.0163196
-1.05297
0.00474935
-1.04835
-1.03979
-0.0071368
0.0373413
-0.299539
0.08635
-0.821315
0.103118
-1.11607
0.100153
-1.15671
0.0928821
-1.14706
0.0850099
-1.13343
0.0763252
-1.12146
0.0668557
-1.10912
0.0568274
-1.09857
0.0462539
-1.08942
0.0350709
-1.08115
0.0233289
-1.074
0.0110961
-1.06752
-0.00161296
-1.06098
-0.0147444
-1.05566
-0.0282741
-1.04962
-0.0422203
-1.04397
-0.0563702
-1.03882
-0.070758
-1.03396
-1.02526
-0.0852922
0.0284125
-0.327952
0.0626933
-0.855596
0.0714662
-1.12484
0.0642083
-1.14945
0.0535508
-1.1364
0.0423811
-1.12226
0.030487
-1.10957
0.0179785
-1.09661
0.00494946
-1.08554
-0.00859152
-1.07588
-0.0225652
-1.06718
-0.0368904
-1.05968
-0.0516261
-1.05278
-0.0667707
-1.04584
-0.0821901
-1.04024
-0.0978724
-1.03394
-0.113967
-1.02788
-0.13042
-1.02236
-0.146999
-1.01738
-1.00878
-0.163476
0.0274197
-0.355372
0.0540847
-0.882261
0.0527929
-1.12355
0.0406557
-1.13732
0.0261009
-1.12185
0.0114812
-1.10764
-0.00354679
-1.09454
-0.0190192
-1.08114
-0.0349375
-1.06962
-0.0512298
-1.05958
-0.0678892
-1.05052
-0.0850798
-1.04249
-0.102585
-1.03528
-0.120426
-1.028
-0.138613
-1.02205
-0.157054
-1.0155
-0.17577
-1.00916
-0.194642
-1.00349
-0.213171
-0.998851
-0.990259
-0.231693
0.0193016
-0.374673
0.0350637
-0.898023
0.0271828
-1.11567
0.0108318
-1.12096
-0.00632819
-1.10469
-0.0239034
-1.09006
-0.0418551
-1.07659
-0.0603121
-1.06268
-0.0790912
-1.05084
-0.0982638
-1.04041
-0.117814
-1.03097
-0.13754
-1.02276
-0.157582
-1.01524
-0.178001
-1.00758
-0.198566
-1.00149
-0.219205
-0.994859
-0.240186
-0.988178
-0.261651
-0.982025
-0.282787
-0.977716
-0.969552
-0.303494
0.0175742
-0.392248
0.0284994
-0.908948
0.0145828
-1.10175
-0.00530298
-1.10108
-0.0260828
-1.08391
-0.0471199
-1.06903
-0.0683204
-1.05539
-0.0897066
-1.0413
-0.111458
-1.02909
-0.133447
-1.01842
-0.155613
-1.00881
-0.178239
-1.00014
-0.200963
-0.992514
-0.223895
-0.984646
-0.247171
-0.978213
-0.270579
-0.97145
-0.294031
-0.964726
-0.317712
-0.958344
-0.341316
-0.954113
-0.946685
-0.364183
0.0125081
-0.404756
0.0159006
-0.912341
-0.00363338
-1.08222
-0.0283243
-1.07639
-0.0524973
-1.05973
-0.0766628
-1.04486
-0.100702
-1.03135
-0.125013
-1.01699
-0.149379
-1.00472
-0.173982
-0.993819
-0.19885
-0.983937
-0.223723
-0.975263
-0.24884
-0.967397
-0.274231
-0.959255
-0.299609
-0.952835
-0.324949
-0.946111
-0.35053
-0.939145
-0.376582
-0.932292
-0.402592
-0.928103
-0.921606
-0.427671
0.00996868
-0.414724
0.0080939
-0.910466
-0.0149236
-1.0592
-0.0410731
-1.05024
-0.0677387
-1.03307
-0.0945739
-1.01803
-0.121337
-1.00459
-0.148065
-0.990259
-0.17514
-0.977649
-0.202334
-0.966625
-0.229632
-0.956639
-0.257394
-0.947501
-0.285036
-0.939754
-0.312888
-0.931403
-0.341222
-0.9245
-0.369494
-0.917839
-0.397501
-0.911139
-0.425904
-0.903888
-0.455178
-0.898829
-0.893006
-0.483778
0.00633267
-0.421057
-0.000471118
-0.903662
-0.0291936
-1.03048
-0.0599785
-1.01945
-0.0898258
-1.00322
-0.119586
-0.988265
-0.148901
-0.975271
-0.178298
-0.960862
-0.207564
-0.948383
-0.23698
-0.937208
-0.266493
-0.927126
-0.295946
-0.918049
-0.325699
-0.91
-0.355539
-0.901563
-0.38551
-0.894529
-0.415785
-0.887564
-0.446191
-0.880732
-0.476712
-0.873368
-0.50868
-0.86686
-0.861792
-0.539895
0.00450398
-0.00746397
-0.0374861
-0.0694131
-0.101211
-0.133137
-0.164753
-0.19603
-0.227632
-0.259238
-0.290944
-0.323
-0.354712
-0.38669
-0.419207
-0.451714
-0.484051
-0.516781
-0.551676
-0.588658
0.863161
-9.53054
9.60448
0.802869
-9.41016
9.47045
0.740359
-9.44227
9.50478
0.685918
-9.47151
9.52595
0.627481
-9.5218
9.58024
0.568825
-9.54468
9.60334
0.515518
-9.56451
9.61782
0.464888
-9.59675
9.64738
0.416917
-9.62643
9.67441
0.371514
-9.64632
9.69172
0.329769
-9.66526
9.70701
0.291072
-9.67438
9.71308
0.255701
-9.68783
9.7232
0.222842
-9.69141
9.72427
0.193178
-9.69143
9.7211
0.165767
-9.67691
9.70432
0.141284
-9.63431
9.6588
0.108
-9.13301
9.1663
0.055216
-7.48384
7.53663
-4.0704
4.12562
0.759639
-9.45669
0.699251
-9.34977
0.642269
-9.38529
0.594066
-9.4233
0.538964
-9.4667
0.483846
-9.48956
0.433093
-9.51376
0.386741
-9.5504
0.344858
-9.58455
0.306065
-9.60752
0.270941
-9.63014
0.238946
-9.64239
0.210549
-9.65943
0.184872
-9.66574
0.16245
-9.66901
0.14264
-9.6571
0.125058
-9.61673
0.0974499
-9.1054
0.0513752
-7.43777
-4.01902
0.661563
-9.38938
0.604973
-9.29318
0.548922
-9.32924
0.501799
-9.37618
0.451937
-9.41684
0.405142
-9.44277
0.363731
-9.47235
0.325015
-9.51168
0.288953
-9.54849
0.255612
-9.57418
0.225893
-9.60042
0.199217
-9.61571
0.175776
-9.63599
0.154849
-9.64481
0.137145
-9.65131
0.121603
-9.64155
0.109103
-9.60423
0.0886567
-9.08496
0.0490215
-7.39813
-3.97
0.560595
-9.32029
0.504451
-9.23703
0.453463
-9.27825
0.411502
-9.33422
0.365076
-9.37041
0.321964
-9.39966
0.282876
-9.43326
0.248127
-9.47693
0.217941
-9.5183
0.191069
-9.54731
0.167806
-9.57716
0.147641
-9.59554
0.130963
-9.61931
0.117047
-9.63089
0.106435
-9.6407
0.0984498
-9.63357
0.0928752
-9.59866
0.0783316
-9.07041
0.0454312
-7.36523
-3.92457
0.463912
-9.25377
0.41166
-9.18478
0.362014
-9.2286
0.321001
-9.29321
0.279802
-9.32921
0.244618
-9.36447
0.214699
-9.40334
0.187487
-9.44972
0.163001
-9.49382
0.141423
-9.52573
0.123409
-9.55914
0.108454
-9.58059
0.0966601
-9.60752
0.0873868
-9.62162
0.0813982
-9.63471
0.0775548
-9.62973
0.0769756
-9.59808
0.0695374
-9.06298
0.0430747
-7.33877
-3.8815
0.368142
-9.18667
0.315884
-9.13252
0.269815
-9.18253
0.232803
-9.2562
0.195623
-9.29203
0.164112
-9.33296
0.136049
-9.37528
0.112288
-9.42596
0.0934268
-9.47496
0.0781255
-9.51043
0.0663661
-9.54738
0.0577161
-9.57194
0.0524694
-9.60227
0.0500084
-9.61916
0.0509243
-9.63562
0.0545394
-9.63334
0.0608226
-9.60436
0.0594218
-9.06157
0.0396895
-7.31904
-3.84181
0.272836
-9.11936
0.22406
-9.08375
0.180239
-9.13871
0.145052
-9.22101
0.112645
-9.25963
0.0882162
-9.30853
0.0691873
-9.35625
0.0529973
-9.40977
0.0397738
-9.46173
0.0295954
-9.50025
0.0229089
-9.5407
0.0193148
-9.56835
0.0188268
-9.60179
0.0208681
-9.6212
0.0262825
-9.64104
0.0338931
-9.64095
0.0450754
-9.61555
0.0506922
-9.06719
0.0373454
-7.30569
-3.80446
0.182054
-9.04982
0.13306
-9.03475
0.0915115
-9.09716
0.0595345
-9.18903
0.031878
-9.23197
0.0109731
-9.28763
-0.00665076
-9.33862
-0.0199576
-9.39646
-0.0279449
-9.45375
-0.0321211
-9.49607
-0.0327894
-9.54003
-0.0302967
-9.57084
-0.0244673
-9.60762
-0.015834
-9.62983
-0.00371979
-9.65315
0.0111729
-9.65584
0.0290758
-9.63345
0.0407792
-9.07889
0.0341284
-7.29904
-3.77033
0.0895463
-8.97878
0.0432169
-8.98843
0.00358826
-9.05753
-0.0248897
-9.16056
-0.0483509
-9.20851
-0.063057
-9.27292
-0.071877
-9.3298
-0.0776484
-9.39069
-0.0800266
-9.45137
-0.0792306
-9.49687
-0.0750339
-9.54423
-0.0676774
-9.57819
-0.0572838
-9.61801
-0.0442932
-9.64282
-0.0278786
-9.66957
-0.0091374
-9.67459
0.0135632
-9.65615
0.0321425
-9.09747
0.0318382
-7.29874
-3.7385
0.000803352
-8.90159
-0.0441699
-8.94345
-0.0809989
-9.02071
-0.107182
-9.13437
-0.125257
-9.19044
-0.137113
-9.26106
-0.144786
-9.32213
-0.147927
-9.38755
-0.145483
-9.45381
-0.139026
-9.50333
-0.129073
-9.55418
-0.115872
-9.5914
-0.0994023
-9.63448
-0.080076
-9.66215
-0.0572433
-9.6924
-0.0314201
-9.70041
-0.00216283
-9.68541
0.0224742
-9.12211
0.02871
-7.30497
-3.70979
-0.0843548
-8.82437
-0.130661
-8.89715
-0.164311
-8.98705
-0.187977
-9.11071
-0.202197
-9.17622
-0.208069
-9.25519
-0.207509
-9.32269
-0.203543
-9.39152
-0.195699
-9.46166
-0.184455
-9.51457
-0.169852
-9.56878
-0.152026
-9.60922
-0.131211
-9.65529
-0.10772
-9.68564
-0.0807813
-9.71934
-0.0513172
-9.72987
-0.0173907
-9.71933
0.0139019
-9.1534
0.0264516
-7.31752
-3.68333
-0.165768
-8.74389
-0.214601
-8.84831
-0.246773
-8.95488
-0.266317
-9.09116
-0.27581
-9.16672
-0.279557
-9.25145
-0.277752
-9.32449
-0.270968
-9.3983
-0.258552
-9.47407
-0.241987
-9.53114
-0.221909
-9.58886
-0.198511
-9.63262
-0.171891
-9.68191
-0.142365
-9.71517
-0.109302
-9.7524
-0.0730562
-9.76612
-0.0327877
-9.7596
0.00440814
-9.1906
0.0234781
-7.33659
-3.65986
-0.248377
-8.65899
-0.295033
-8.80166
-0.325491
-8.92442
-0.343322
-9.07333
-0.348665
-9.16138
-0.346309
-9.2538
-0.33712
-9.33368
-0.324033
-9.41139
-0.306635
-9.49147
-0.285503
-9.55227
-0.261004
-9.61336
-0.233231
-9.66039
-0.202512
-9.71263
-0.16904
-9.74864
-0.132106
-9.78934
-0.092452
-9.80577
-0.0476476
-9.80441
-0.00409433
-9.23415
0.0212898
-7.36198
-3.63857
-0.325686
-8.565
-0.375382
-8.75196
-0.403986
-8.89582
-0.417326
-9.05999
-0.419303
-9.1594
-0.415373
-9.25773
-0.404638
-9.34442
-0.388432
-9.42759
-0.366605
-9.5133
-0.340458
-9.57841
-0.31078
-9.64304
-0.277732
-9.69344
-0.241508
-9.74886
-0.202343
-9.7878
-0.159615
-9.83206
-0.113526
-9.85186
-0.0626511
-9.85528
-0.0132615
-9.28354
0.0184941
-7.39373
-3.62007
-0.401282
-8.46721
-0.449677
-8.70357
-0.478133
-8.86736
-0.490447
-9.04768
-0.487628
-9.16222
-0.477591
-9.26777
-0.460393
-9.36162
-0.438728
-9.44926
-0.412363
-9.53966
-0.381873
-9.6089
-0.348003
-9.67691
-0.310832
-9.73061
-0.270764
-9.78892
-0.227901
-9.83067
-0.181573
-9.87839
-0.132334
-9.9011
-0.0771741
-9.91044
-0.0217011
-9.33902
0.0163752
-7.43181
-3.6037
-0.473322
-8.35807
-0.525017
-8.65187
-0.551276
-8.84111
-0.559807
-9.03915
-0.555
-9.16703
-0.54362
-9.27915
-0.524694
-9.38054
-0.499781
-9.47417
-0.469154
-9.57029
-0.433942
-9.64412
-0.395204
-9.71564
-0.353078
-9.77274
-0.307832
-9.83417
-0.259667
-9.87883
-0.207915
-9.93015
-0.152626
-9.95639
-0.0917979
-9.97127
-0.0306879
-9.40013
0.0139542
-7.47645
-3.58974
-0.542665
-8.24308
-0.594148
-8.60039
-0.620942
-8.81431
-0.628289
-9.0318
-0.618308
-9.17701
-0.601217
-9.29624
-0.576743
-9.40502
-0.547089
-9.50383
-0.512315
-9.60506
-0.472998
-9.68343
-0.430306
-9.75834
-0.384317
-9.81873
-0.335493
-9.88299
-0.283906
-9.93042
-0.228873
-9.98518
-0.170694
-10.0146
-0.105933
-10.036
-0.0391267
-9.46693
0.0120801
-7.52766
-3.57766
-0.612515
-8.11434
-0.665756
-8.54715
-0.68932
-8.79075
-0.693938
-9.02718
-0.682639
-9.18831
-0.664035
-9.31484
-0.637792
-9.43126
-0.604853
-9.53676
-0.565957
-9.64396
-0.522143
-9.72725
-0.474841
-9.80564
-0.424185
-9.86938
-0.370496
-9.93668
-0.314002
-9.98691
-0.253924
-10.0453
-0.190102
-10.0784
-0.119968
-10.1062
-0.0477229
-9.53918
0.00995479
-7.58533
-3.56771
-0.668054
-7.98618
-0.729241
-8.48596
-0.754239
-8.76575
-0.757795
-9.02363
-0.741675
-9.20443
-0.717722
-9.3388
-0.686638
-9.46234
-0.649569
-9.57383
-0.606772
-9.68676
-0.559039
-9.77498
-0.507964
-9.85671
-0.453666
-9.92368
-0.396629
-9.99372
-0.337009
-10.0465
-0.273939
-10.1083
-0.207483
-10.1448
-0.133928
-10.1797
-0.0563074
-9.6168
0.0082905
-7.64993
-3.55942
-0.720479
-7.85436
-0.789667
-8.41677
-0.812168
-8.74325
-0.814863
-9.02093
-0.798502
-9.22079
-0.772813
-9.36448
-0.740666
-9.49449
-0.700919
-9.61358
-0.654935
-9.73274
-0.603294
-9.82662
-0.548421
-9.91159
-0.48993
-9.98217
-0.428803
-10.0548
-0.364636
-10.1107
-0.297457
-10.1755
-0.225288
-10.217
-0.147999
-10.257
-0.0645176
-9.70028
0.00602963
-7.72048
-3.55339
8.06877
-7.49352
-8.42961
7.44647
-7.79447
6.8788
-8.17558
6.27909
-8.42122
5.72911
-8.67081
5.22165
-8.85702
4.76393
-9.03677
4.34007
-9.18972
3.93825
-9.33092
3.56112
-9.44949
3.19834
-9.54881
2.84541
-9.62924
2.49469
-9.70413
2.15438
-9.77039
1.81003
-9.83116
1.49684
-9.90382
1.16067
-9.92084
0.799546
-9.33915
0.343518
-7.26445
-3.20987
4.76526
-7.4125
-4.84629
4.6189
-7.64811
4.39542
-7.9521
4.15909
-8.18489
3.90229
-8.41402
3.64552
-8.60025
3.38086
-8.77211
3.11467
-8.92353
2.84074
-9.05699
2.56182
-9.17057
2.28205
-9.26904
2.01453
-9.36171
1.7592
-9.4488
1.51829
-9.52947
1.2898
-9.60268
1.06936
-9.68338
0.822316
-9.67379
0.553053
-9.06989
0.186524
-6.89792
-3.02334
3.45073
-7.50344
-3.35978
3.49626
-7.69364
3.46443
-7.92027
3.39082
-8.11128
3.26109
-8.28429
3.10618
-8.44534
2.92662
-8.59254
2.73388
-8.7308
2.5288
-8.8519
2.31769
-8.95947
2.10598
-9.05733
1.89477
-9.1505
1.67768
-9.23172
1.45815
-9.30995
1.2324
-9.37692
0.996008
-9.44699
0.758007
-9.43579
0.519956
-8.83184
0.227486
-6.60545
-2.79586
2.22665
-7.66173
-2.06836
2.32959
-7.79658
2.34632
-7.937
2.32261
-8.08757
2.26924
-8.23092
2.19022
-8.36632
2.08529
-8.48761
1.95689
-8.6024
1.81326
-8.70827
1.6618
-8.808
1.5054
-8.90093
1.34481
-8.98992
1.18289
-9.06979
1.02158
-9.14864
0.861724
-9.21706
0.704516
-9.28978
0.547176
-9.27845
0.386963
-8.67163
0.168532
-6.38702
-2.62733
1.59168
-7.79582
-1.45759
1.67967
-7.88457
1.74268
-8.00001
1.77853
-8.12343
1.77148
-8.22387
1.73384
-8.32868
1.67224
-8.42601
1.59359
-8.52375
1.49945
-8.61413
1.39262
-8.70117
1.27585
-8.78416
1.14853
-8.86259
1.01369
-8.93496
0.870397
-9.00535
0.723403
-9.07007
0.569066
-9.13544
0.41423
-9.12362
0.289907
-8.54731
0.148557
-6.24567
-2.47877
1.06345
-7.90767
-0.951605
1.16165
-7.98276
1.21348
-8.05184
1.22699
-8.13694
1.22194
-8.21882
1.19595
-8.30269
1.15441
-8.38446
1.09548
-8.46482
1.0249
-8.54355
0.944408
-8.62068
0.8551
-8.69486
0.76041
-8.7679
0.662346
-8.83689
0.563141
-8.90615
0.461881
-8.96881
0.361692
-9.03525
0.265297
-9.02722
0.19672
-8.47873
0.116456
-6.16541
-2.36231
0.733104
-7.99047
-0.650298
0.789948
-8.03961
0.829766
-8.09166
0.858904
-8.16608
0.875693
-8.23561
0.872758
-8.29976
0.853197
-8.3649
0.816796
-8.42842
0.76691
-8.49366
0.705061
-8.55883
0.633993
-8.62379
0.55439
-8.6883
0.468468
-8.75097
0.377504
-8.81518
0.285802
-8.87711
0.191674
-8.94112
0.0980735
-8.93362
0.0533396
-8.434
0.0607431
-6.17281
-2.30157
0.504365
-8.04674
-0.448098
0.552832
-8.08807
0.590311
-8.12914
0.606504
-8.18227
0.599446
-8.22855
0.580255
-8.28057
0.550583
-8.33523
0.513058
-8.3909
0.467595
-8.4482
0.412477
-8.50372
0.351975
-8.56329
0.285487
-8.62181
0.216548
-8.68203
0.145054
-8.74369
0.0714815
-8.80354
-0.00243616
-8.86721
-0.0665389
-8.86952
-0.0725034
-8.42803
0.0234177
-6.26873
-2.27815
0.312984
-8.08214
-0.277589
0.337435
-8.11252
0.35399
-8.14569
0.357236
-8.18551
0.355433
-8.22675
0.344611
-8.26975
0.322808
-8.31342
0.29148
-8.35957
0.251914
-8.40863
0.204196
-8.456
0.149827
-8.50892
0.0886649
-8.56065
0.0238158
-8.61718
-0.0465224
-8.67335
-0.117522
-8.73254
-0.188164
-8.79656
-0.25005
-8.80763
-0.233747
-8.44433
-0.0506153
-6.45186
-2.32877
0.204315
-8.10097
-0.185478
0.218339
-8.12655
0.225735
-8.15309
0.224605
-8.18439
0.213612
-8.21575
0.190376
-8.24651
0.157596
-8.28065
0.116703
-8.31868
0.0687845
-8.36071
0.0169631
-8.40418
-0.0403371
-8.45162
-0.102881
-8.4981
-0.16957
-8.55049
-0.240769
-8.60215
-0.312913
-8.66039
-0.386923
-8.72255
-0.444776
-8.74978
-0.421316
-8.46779
-0.164936
-6.70824
-2.4937
0.0957644
-8.10654
-0.0901999
0.0952437
-8.12603
0.0893878
-8.14723
0.0750119
-8.17001
0.0537083
-8.19445
0.0276047
-8.22041
-0.00121113
-8.25183
-0.0383015
-8.28159
-0.0838202
-8.3152
-0.138088
-8.34991
-0.200473
-8.38923
-0.270595
-8.42798
-0.347673
-8.47341
-0.431371
-8.51845
-0.518779
-8.57298
-0.61238
-8.62895
-0.692654
-8.6695
-0.679705
-8.48074
-0.343952
-7.044
-2.83766
0.0353404
-8.10491
-0.0369657
0.0272473
-8.11793
0.0151861
-8.13517
-0.00245298
-8.15237
-0.025049
-8.17185
-0.0549634
-8.19049
-0.0936892
-8.2131
-0.138743
-8.23653
-0.189591
-8.26435
-0.248937
-8.29056
-0.317264
-8.3209
-0.393172
-8.35207
-0.47861
-8.38798
-0.57258
-8.42448
-0.679018
-8.46655
-0.797252
-8.51072
-0.90958
-8.55718
-0.932951
-8.45737
-0.608161
-7.36879
-3.44582
-0.0142349
-8.09418
0.00349965
-0.0289383
-8.10323
-0.048989
-8.11512
-0.0751328
-8.12623
-0.106001
-8.14098
-0.141739
-8.15476
-0.182483
-8.17236
-0.230822
-8.18819
-0.286143
-8.20903
-0.348767
-8.22794
-0.419395
-8.25028
-0.500728
-8.27074
-0.593085
-8.29562
-0.697835
-8.31973
-0.820835
-8.34355
-0.964232
-8.36732
-1.12467
-8.39673
-1.21283
-8.36922
-0.971408
-7.6102
-4.41722
-0.0452222
-8.08024
0.0312841
-0.0617066
-8.08675
-0.0810065
-8.09582
-0.104155
-8.10308
-0.131732
-8.11341
-0.164424
-8.12206
-0.20219
-8.13459
-0.246094
-8.14429
-0.297383
-8.15774
-0.354694
-8.17063
-0.41945
-8.18552
-0.494506
-8.19568
-0.584818
-8.20531
-0.689755
-8.2148
-0.81424
-8.21906
-0.959928
-8.22163
-1.13583
-8.22084
-1.27961
-8.22543
-1.08269
-7.80712
-5.49992
-0.0591528
-8.06407
0.0429786
-0.0784115
-8.06749
-0.100943
-8.07329
-0.126333
-8.07769
-0.155176
-8.08456
-0.187523
-8.08972
-0.223706
-8.09841
-0.26322
-8.10478
-0.308374
-8.11258
-0.362054
-8.11695
-0.423681
-8.12389
-0.489399
-8.12997
-0.557475
-8.13723
-0.637619
-8.13465
-0.721533
-8.13515
-0.822656
-8.12051
-0.935029
-8.10846
-1.06431
-8.09615
-0.93526
-7.93617
-6.43518
-0.0615485
-8.05013
0.0476137
-0.0769448
-8.05209
-0.0947927
-8.05544
-0.114728
-8.05775
-0.13743
-8.06186
-0.162872
-8.06428
-0.191977
-8.0693
-0.225109
-8.07165
-0.261729
-8.07596
-0.303283
-8.07539
-0.347911
-8.07927
-0.398439
-8.07944
-0.451405
-8.08427
-0.510785
-8.07527
-0.568514
-8.07742
-0.631019
-8.05801
-0.686773
-8.05271
-0.761267
-8.02166
-0.720985
-7.97645
-7.15616
-0.0567208
-8.03729
0.0438804
-0.0706931
-8.03812
-0.085978
-8.04016
-0.102503
-8.04123
-0.120612
-8.04375
-0.140051
-8.04484
-0.16205
-8.04731
-0.184827
-8.04887
-0.209569
-8.05122
-0.233945
-8.05102
-0.258835
-8.05437
-0.286556
-8.05172
-0.316518
-8.0543
-0.343569
-8.04822
-0.371202
-8.04979
-0.393104
-8.0361
-0.411767
-8.03405
-0.43201
-8.00142
-0.42143
-7.98703
-7.57759
-0.0431708