/*--------------------------------*- C++ -*----------------------------------*\
  =========                 |
  \\      /  F ield         | OpenFOAM: The Open Source CFD Toolbox
   \\    /   O peration     | Website:  https://openfoam.org
    \\  /    A nd           | Version:  9
     \\/     M anipulation  |
\*---------------------------------------------------------------------------*/
FoamFile
{
    format      ascii;
    class       volScalarField;
    location    "16";
    object      nut;
}
// * * * * * * * * * * * * * * * * * * * * * * * * * * * * * * * * * * * * * //

dimensions      [0 2 -1 0 0 0 0];

internalField   nonuniform List<scalar> 
46400
(
0.0185994
0.00421826
0.00125255
0.0015573
0.00139383
0.00140372
0.00131539
0.00129738
0.00124278
0.0012109
0.00116233
0.0011237
0.00108134
0.00105215
0.00104116
0.00104816
0.00102904
0.000933719
0.00123627
0.00100862
0.0180777
0.00394372
0.00125795
0.0015357
0.00142309
0.00143605
0.00134281
0.00132446
0.00125889
0.00122517
0.0012023
0.00114298
0.00112745
0.00108785
0.00103195
0.000991275
0.00094205
0.000842432
0.00107468
0.000964434
0.0174313
0.00490844
0.00136598
0.00160063
0.00143894
0.00142541
0.00134529
0.00130604
0.00126483
0.00121437
0.00118123
0.00113632
0.00108627
0.00105382
0.00103311
0.00100979
0.000962816
0.000876293
0.00112386
0.000977483
0.0168668
0.0050037
0.00145638
0.0015874
0.00146039
0.00145739
0.00136996
0.00133543
0.00127445
0.00122364
0.00118414
0.00114233
0.00111539
0.0010738
0.00104177
0.00102341
0.000976141
0.000870688
0.00112515
0.00100382
0.0160247
0.00472361
0.00145132
0.00162776
0.00146571
0.00143856
0.00137446
0.00131784
0.00128978
0.00123743
0.0011987
0.00113935
0.00111107
0.00105341
0.00101802
0.000999959
0.000989861
0.000896632
0.00112508
0.00102944
0.0147545
0.00389417
0.00147915
0.00158166
0.00146506
0.00143359
0.00137874
0.00132192
0.00129198
0.00125217
0.0012137
0.00116179
0.00113548
0.00112012
0.00106271
0.00102472
0.00100419
0.000917698
0.00113688
0.00103941
0.0119469
0.00297482
0.00146704
0.00153599
0.00147217
0.00138432
0.00135679
0.00128031
0.00123356
0.0012153
0.00119725
0.00114461
0.00109622
0.00106769
0.00104607
0.00101505
0.000990746
0.000906304
0.00113947
0.00106839
0.00999707
0.00244869
0.0015348
0.00150549
0.00145973
0.00140939
0.00136669
0.00132365
0.00124077
0.00118728
0.00119118
0.00116594
0.00113855
0.00109794
0.00106508
0.00101929
0.000993732
0.00088296
0.00105234
0.00103988
0.00815273
0.0021179
0.00152021
0.00145934
0.00143845
0.00136828
0.00134173
0.00133122
0.0012768
0.00116838
0.00112818
0.00110421
0.00108825
0.00106998
0.00107632
0.0010516
0.001022
0.000944277
0.00103185
0.00100283
0.00682241
0.00186001
0.00156121
0.00148825
0.00142971
0.00135872
0.0012791
0.00127194
0.00132754
0.00127074
0.0011887
0.00111669
0.00108024
0.00102584
0.00100708
0.00101951
0.00100647
0.000966825
0.00107923
0.00101954
0.00564556
0.00174664
0.00160872
0.00150074
0.00150859
0.00144153
0.00131358
0.00117769
0.00115412
0.0011684
0.0011646
0.0011145
0.00108254
0.00104404
0.000979351
0.000955972
0.000944815
0.000892686
0.00102087
0.0010198
0.00454399
0.00156917
0.00160286
0.00147954
0.00145918
0.00149865
0.00150891
0.00138862
0.00126977
0.00119437
0.00116276
0.00112258
0.0010757
0.00105005
0.0010081
0.000957344
0.000920567
0.000856395
0.000907882
0.000935115
0.00390634
0.00145183
0.00157384
0.00148448
0.00135661
0.00131028
0.00135121
0.00137473
0.00133976
0.00127489
0.00122717
0.00118927
0.00115363
0.00110666
0.00108596
0.00104371
0.0010184
0.000948414
0.000989974
0.00097116
0.00402482
0.00157761
0.00158472
0.00161034
0.00155616
0.00136404
0.00128631
0.00124448
0.00122806
0.00120694
0.00116984
0.00113269
0.00110557
0.00107139
0.00104555
0.00101814
0.00100008
0.000946514
0.000992572
0.000974232
0.00466662
0.00178071
0.00148679
0.00137344
0.00139933
0.00134715
0.00132689
0.00126447
0.00125059
0.00120875
0.00119198
0.00116061
0.00112753
0.00109307
0.00106341
0.00103462
0.00101563
0.000962281
0.00101402
0.00099266
0.00396054
0.00172204
0.00157625
0.00153246
0.00149619
0.00145594
0.00138988
0.00131829
0.00126021
0.00121416
0.00117316
0.0011471
0.00112067
0.00109297
0.00105687
0.00102842
0.000995348
0.000931757
0.000974258
0.000961228
0.00287043
0.00133293
0.00140528
0.00148858
0.00146001
0.00146989
0.00144192
0.00143645
0.00137083
0.00132357
0.00126312
0.00120022
0.00115456
0.00110686
0.00106539
0.00103497
0.0010021
0.000930846
0.000978533
0.000923691
0.00188369
0.00189382
0.00177556
0.00147602
0.00145831
0.00135251
0.00135389
0.0012745
0.00125877
0.00120168
0.00117791
0.00113929
0.00111509
0.00107775
0.00106215
0.00101742
0.00101251
0.000912244
0.000983443
0.000904865
0.001609
0.00161554
0.00173222
0.00159633
0.00158329
0.00142093
0.00142739
0.00125268
0.00128848
0.00122359
0.00124542
0.00120575
0.00118348
0.0011448
0.00110491
0.00106647
0.00104214
0.000972429
0.000998464
0.000979149
0.00220624
0.0017162
0.00161213
0.0016765
0.00150011
0.00150715
0.00143266
0.00139174
0.0013846
0.00130208
0.00125518
0.00115626
0.00112815
0.00106556
0.00103857
0.00102506
0.00100493
0.000955265
0.000996569
0.000966665
0.00726609
0.0117044
0.0103361
0.00399006
0.000176791
0.000382754
0.000757274
0.000802992
0.000704404
0.00070081
0.00069435
0.000687833
0.000652792
0.000652719
0.000652424
0.000700757
0.000718715
0.000770086
0.000830958
0.000744244
0.00908634
0.0122763
0.00951735
0.00190817
0.000230717
0.000620682
0.000794586
0.00082335
0.000772889
0.000727112
0.000713213
0.000681069
0.000678215
0.000698148
0.000708567
0.000724863
0.000722918
0.000826849
0.000845743
0.000737316
0.0113604
0.0127574
0.00869082
0.000757032
0.000495431
0.000824957
0.000936907
0.00082968
0.000785956
0.00075809
0.000723021
0.000742371
0.000729691
0.000719238
0.000699866
0.000750531
0.000793223
0.000856848
0.000812585
0.000712794
0.0140604
0.0127807
0.00784394
0.000290634
0.000536027
0.000904981
0.000904353
0.000882224
0.000835232
0.00077419
0.000791579
0.000759193
0.000713066
0.000723085
0.00075965
0.000800749
0.000789691
0.000853012
0.000821851
0.000741969
0.0151835
0.012933
0.00537669
0.000461367
0.000751674
0.00101513
0.0010158
0.000895905
0.00085257
0.000829605
0.000781199
0.000776834
0.000775433
0.000780858
0.000762783
0.000802088
0.000826488
0.000909579
0.000820234
0.000726036
0.0163229
0.0126308
0.00404298
0.000272195
0.000931114
0.00103385
0.000973752
0.000967012
0.00090401
0.000823926
0.000840753
0.000831853
0.00076997
0.000756127
0.000786199
0.000842852
0.000839437
0.000883148
0.000804919
0.000747798
0.017287
0.0125595
0.00254194
0.000271332
0.0010394
0.00111809
0.00104427
0.000963069
0.00091884
0.000887069
0.00084966
0.000814003
0.000798398
0.000811933
0.000808485
0.000833868
0.000832988
0.00092068
0.000829823
0.000752505
0.0177862
0.0121511
0.00181131
0.000345749
0.00109122
0.00109937
0.00107102
0.00102725
0.000968965
0.000885865
0.000873949
0.000880924
0.000830932
0.00080065
0.000808762
0.000867019
0.000875267
0.000930839
0.000806949
0.00075303
0.0187079
0.0119412
0.00116063
0.00064466
0.00119254
0.00116412
0.00108752
0.00102193
0.000983798
0.000931606
0.000910782
0.000863417
0.000821578
0.000829753
0.00083369
0.000852245
0.000843993
0.000929422
0.00082377
0.000763775
0.0191493
0.0114985
0.000985605
0.000790915
0.00119087
0.00114382
0.00114911
0.00106786
0.00102056
0.000954838
0.0009089
0.000913495
0.000885378
0.000846022
0.00083439
0.000879778
0.000896651
0.000984699
0.000832732
0.000757248
0.019643
0.0111409
0.00103983
0.000932825
0.00127959
0.0011945
0.00115134
0.00109351
0.001053
0.000984202
0.000967486
0.000928623
0.000869118
0.000867742
0.00086985
0.00088483
0.000883278
0.000979368
0.000857667
0.000822403
0.0199637
0.0107493
0.00121236
0.00107878
0.00128573
0.00119779
0.00119654
0.00110118
0.00106049
0.00102007
0.000949519
0.000937234
0.000921766
0.000876169
0.000850337
0.000867867
0.000883575
0.000995814
0.000816133
0.000771301
0.0201364
0.0104788
0.00201743
0.00110198
0.00134191
0.00122067
0.00121069
0.00115548
0.00110623
0.00103518
0.00101264
0.00098721
0.000923695
0.000910413
0.000902221
0.000901562
0.000894031
0.00098627
0.000821238
0.000806909
0.0202995
0.0103407
0.00166527
0.00122953
0.00138225
0.00125438
0.00123588
0.001155
0.00110469
0.00108168
0.00099802
0.000967912
0.00095542
0.000909315
0.000875453
0.000861996
0.000866509
0.000991544
0.000805736
0.000797783
0.0202653
0.0100425
0.00189404
0.00118288
0.00139259
0.00127019
0.00125404
0.00120853
0.00114807
0.00108837
0.00105443
0.00103236
0.000974259
0.000951015
0.000938985
0.000917439
0.000895463
0.000975079
0.00076802
0.000792892
0.0202304
0.0093539
0.00180667
0.00130919
0.00142589
0.00131367
0.00126286
0.00121868
0.0011529
0.00113818
0.00105853
0.00101802
0.00100282
0.000959279
0.000923181
0.000885176
0.000864719
0.000966786
0.000754671
0.000803614
0.0200216
0.00788966
0.00150351
0.00131436
0.00138949
0.00133598
0.00128246
0.00125257
0.00118742
0.00114316
0.00109768
0.00107243
0.00102406
0.000996515
0.000989182
0.000956725
0.000925758
0.00096858
0.000716487
0.000783926
0.0197694
0.00718173
0.00168983
0.00140844
0.00144227
0.00137458
0.00130135
0.00127987
0.00120852
0.00119416
0.00113405
0.00108646
0.00106995
0.00102976
0.000995136
0.000952759
0.000928733
0.000976588
0.000713692
0.000823398
0.0194563
0.00599756
0.00143649
0.00145445
0.00139768
0.00139229
0.00130402
0.00129044
0.00122395
0.00119201
0.00114365
0.00111564
0.00107812
0.0010505
0.00104545
0.0010268
0.00102529
0.00103285
0.0007401
0.000815342
0.0190387
0.0049712
0.0013645
0.00149316
0.00142233
0.00142157
0.00133019
0.00131906
0.0012553
0.00123436
0.00120208
0.00115252
0.00115053
0.00112647
0.00109405
0.00108409
0.00109127
0.00110238
0.000936024
0.000961856
0.00496497
0.00259932
0.00205076
0.00154723
0.00122831
0.000876066
0.000744159
0.00043652
0.000372869
0.000278486
0.000345442
0.000218802
0.000385812
0.0002522
0.000366847
0.000316688
0.000366742
0.00583707
0.0100781
0.014756
0.00499694
0.0026589
0.00205925
0.0015312
0.00120631
0.000922623
0.000804489
0.000502495
0.000386168
0.00031596
0.000274929
0.000184722
0.000336567
0.000265984
0.000364083
0.000301366
0.000389469
0.00585842
0.0100273
0.0147329
0.0048581
0.00283678
0.00213557
0.00160471
0.00124733
0.000928487
0.000781385
0.000540837
0.000426535
0.000461264
0.000322233
0.00016406
0.00026597
0.000269487
0.000390716
0.0003133
0.000449905
0.00584158
0.0100883
0.0146295
0.00503069
0.00290655
0.00228464
0.00169822
0.00130871
0.000977052
0.000822122
0.000591741
0.000472624
0.000496236
0.000217375
0.000140593
0.000185346
0.000204684
0.000391833
0.00028513
0.000482008
0.00587848
0.0101291
0.0146322
0.00528023
0.00297996
0.00231479
0.00172128
0.00136874
0.00100699
0.000833228
0.000613661
0.000499704
0.000486734
0.000298747
0.000128722
0.000217283
0.000162483
0.000413051
0.000271325
0.000521686
0.00587311
0.0101194
0.014607
0.0054453
0.00307889
0.00245871
0.00178496
0.0013935
0.0010563
0.000884101
0.000661676
0.000548666
0.000504767
0.000139165
0.000148736
0.000132705
0.00016232
0.000441753
0.000261455
0.000506245
0.00587518
0.0101741
0.0146233
0.00544195
0.00310892
0.00246206
0.00181407
0.00144508
0.00108296
0.000890989
0.0006818
0.000565027
0.000490815
0.000269088
0.000245242
0.000206
0.000160813
0.00041493
0.000288158
0.000553281
0.00586416
0.0101271
0.0145697
0.00560252
0.003168
0.0025064
0.00183192
0.00143938
0.00111617
0.000927202
0.000719359
0.000620355
0.00051215
0.000274602
0.000261113
0.00020026
0.000200449
0.000354698
0.000277087
0.00054923
0.00584774
0.0101917
0.014585
0.00555754
0.00319026
0.00255382
0.00187822
0.00147153
0.00115234
0.000939944
0.000737444
0.000627152
0.000517523
0.000324663
0.000324085
0.000277307
0.000273218
0.000326119
0.000322748
0.000598317
0.00582342
0.0101627
0.0146065
0.00551326
0.0031663
0.00255734
0.00190815
0.00148417
0.00117616
0.000959277
0.000781848
0.000674291
0.000541696
0.000338881
0.000393101
0.000349807
0.000344662
0.000242675
0.000220689
0.000614422
0.00578563
0.0101563
0.0145928
0.00569115
0.00310549
0.00255018
0.00192674
0.00149726
0.0012041
0.000970249
0.000789133
0.00067102
0.00054401
0.000344994
0.000396629
0.000369695
0.00038657
0.000240576
0.000218841
0.000658833
0.00574015
0.0101374
0.0145806
0.00572818
0.0031537
0.00253721
0.00198449
0.00151837
0.00122632
0.00100641
0.000839344
0.00070614
0.000557517
0.000364747
0.000419086
0.000372264
0.000414613
0.000193904
0.000175594
0.000667357
0.00572321
0.0101043
0.0145366
0.00572139
0.00310421
0.00253776
0.00201234
0.00153498
0.00123101
0.00100138
0.000852138
0.000713856
0.000562515
0.000368066
0.000428957
0.000365164
0.000419826
0.000204476
0.000194163
0.000684699
0.00567584
0.0100566
0.0144456
0.00583662
0.00310663
0.00250096
0.00205391
0.00155807
0.00126357
0.00103646
0.000894371
0.000736274
0.00057649
0.000387044
0.000450875
0.000366226
0.00041655
0.000185362
0.000184705
0.000679764
0.00559733
0.0100281
0.0143983
0.00574981
0.0030697
0.00250965
0.00208642
0.00156959
0.00125793
0.00103285
0.000911501
0.000751987
0.00059723
0.000405277
0.000465885
0.000370289
0.000416716
0.000233699
0.000232606
0.000659899
0.00549462
0.0100227
0.0144181
0.00590483
0.00308938
0.00245667
0.00208615
0.00158505
0.00128674
0.00105422
0.000943218
0.000774327
0.000621752
0.000431807
0.00048152
0.000370095
0.000414267
0.000207683
0.000215957
0.000603272
0.00540648
0.0100862
0.0144293
0.00581438
0.00305442
0.00245918
0.00210162
0.00158668
0.00129687
0.00105671
0.000949181
0.000785201
0.000650843
0.000461757
0.000498522
0.000373168
0.000425568
0.000264848
0.000277656
0.000519023
0.00530275
0.0100438
0.0145153
0.00593874
0.00311069
0.00240567
0.00206682
0.00158464
0.00132464
0.00109004
0.000994098
0.000811539
0.00067815
0.000493441
0.000514144
0.000376783
0.00044178
0.000218073
0.000219528
0.000575698
0.00522026
0.0101423
0.0143715
0.00572318
0.0030354
0.00236272
0.00204251
0.00154134
0.00133654
0.00109159
0.000983378
0.000815001
0.000710431
0.000532044
0.000538488
0.000383877
0.000457273
0.000201261
0.000205529
0.000719973
0.00520992
0.0102469
0.0147271
0.00590558
0.00323565
0.00248171
0.00198222
0.00152693
0.00135364
0.00113975
0.00102715
0.000828693
0.000733096
0.000571405
0.000552005
0.000398645
0.000466332
0.000364837
0.000398174
0.000560221
0.00487049
0.0101336
0.0142918
0.0180252
0.0290829
0.0182581
0.0216
0.0172958
0.0152879
0.0129106
0.0114861
0.00926101
0.00841005
0.00720848
0.00692117
0.00478637
0.00504141
0.00430212
0.00429656
0.00752078
0.0465983
0.095227
0.129775
0.0231417
0.0204975
0.019073
0.0157124
0.0139961
0.0111964
0.0102115
0.008566
0.00747185
0.00677617
0.00628206
0.00536798
0.00460968
0.00429149
0.00286066
0.00277117
0.0123982
0.0460911
0.0943772
0.128424
0.0139304
0.0145193
0.0129744
0.0113032
0.0101079
0.00824029
0.00731418
0.00655856
0.00610908
0.00506835
0.00520145
0.00472208
0.00467154
0.00427753
0.00381843
0.00289666
0.00446624
0.0479451
0.0929712
0.125879
0.0117523
0.00990673
0.00791362
0.00732798
0.00726604
0.00715013
0.00627358
0.00588838
0.00551488
0.00506867
0.00477507
0.00447417
0.00403493
0.00349506
0.00323219
0.00190759
0.00609104
0.0455477
0.0933021
0.122326
0.00540466
0.00650329
0.00705324
0.00691816
0.00537161
0.00505462
0.00485035
0.00431493
0.00428989
0.00407187
0.00377606
0.00369345
0.00354245
0.0037418
0.00353969
0.002582
0.00435094
0.0400438
0.0939992
0.121326
0.00529273
0.00515905
0.00446863
0.00368143
0.00348095
0.00384576
0.00404253
0.00387694
0.00363975
0.00353715
0.00354318
0.00344489
0.00334922
0.00309939
0.00332973
0.00232732
0.00347168
0.0344573
0.0946872
0.122481
0.00284915
0.00296704
0.00300344
0.00349501
0.00332751
0.00311719
0.00297833
0.00309625
0.00293358
0.00294066
0.00270901
0.00276728
0.0027424
0.00282761
0.00281927
0.0024485
0.00178535
0.0274017
0.0955881
0.126952
0.00251368
0.00242896
0.00241586
0.00227156
0.00198238
0.00203876
0.0022003
0.00224596
0.00230666
0.00252902
0.00250371
0.00255647
0.00256376
0.00264327
0.00259367
0.00216175
0.00345133
0.0205831
0.0957909
0.1333
0.00121359
0.00129798
0.00130427
0.00150169
0.00169704
0.00177223
0.0019733
0.00218847
0.00197572
0.00193782
0.00204888
0.00210804
0.00205777
0.00208454
0.00231416
0.00245429
0.00113316
0.0148495
0.0925665
0.141817
0.000949928
0.000967638
0.00103307
0.00113261
0.00115571
0.00120753
0.00116652
0.00126922
0.00144232
0.00172341
0.00179319
0.00197551
0.00213707
0.0023513
0.00222463
0.00235519
0.00146928
0.0082197
0.0885901
0.151669
0.000397989
0.000454688
0.000494634
0.000634797
0.000756736
0.000896842
0.00106177
0.00124939
0.00124159
0.00131074
0.00139295
0.00152296
0.00159475
0.00201175
0.00221183
0.00294911
0.00159705
0.00435033
0.0716616
0.163619
0.000181732
0.000264644
0.000311962
0.000427017
0.000402867
0.000586633
0.000574729
0.000773086
0.000908309
0.00113723
0.00109452
0.00144773
0.000985107
0.00185922
0.00151601
0.00309053
0.00156833
0.00217298
0.0569829
0.178028
0.000242082
0.000182166
0.000119908
0.000300043
0.000229262
0.000487442
0.000508323
0.000668642
0.000679238
0.000863357
0.000823168
0.00115143
0.00097602
0.00153699
0.00181849
0.00223576
0.00345193
0.00567549
0.0404775
0.178141
0.000372589
0.000346634
0.000329099
0.000374448
0.000392098
0.000456884
0.000468322
0.000625458
0.000601199
0.00085373
0.000807307
0.00115266
0.00104482
0.00143256
0.00129536
0.00191564
0.00229348
0.00689149
0.0197331
0.12793
0.000497076
0.000503721
0.000499118
0.000514293
0.00052188
0.000582127
0.000617934
0.000695098
0.000731139
0.000882016
0.000879015
0.00112745
0.00104343
0.00142243
0.00121492
0.00202798
0.00188497
0.00446414
0.00794194
0.0810989
0.000549281
0.000541442
0.000538619
0.000549338
0.000567799
0.000611244
0.000644342
0.000693378
0.000760454
0.000806428
0.000853976
0.00101283
0.000940554
0.00128044
0.00107627
0.00163135
0.00144672
0.00304799
0.00430585
0.0451997
0.000507621
0.000502812
0.000518966
0.000538175
0.000575329
0.000607371
0.000619424
0.000686684
0.000666389
0.000768404
0.000796489
0.000887564
0.00099006
0.000982241
0.001422
0.00124101
0.00177708
0.00181568
0.00217559
0.0244316
0.000384484
0.000417345
0.000466689
0.000501322
0.000550347
0.000578175
0.000622568
0.000656614
0.000703528
0.000757584
0.000736729
0.000815493
0.000750064
0.000848166
0.000908369
0.00111746
0.000713565
0.000966902
0.00177528
0.00744113
0.000288964
0.00028769
0.000302061
0.000310316
0.000347068
0.00039564
0.000403959
0.00048739
0.000454625
0.000571801
0.000521547
0.000570698
0.000626496
0.000587025
0.000587985
0.00058398
0.000424757
0.000370827
0.00146738
0.00326548
0.000165031
0.000189742
0.000213908
0.000235198
0.000267752
0.000294447
0.000302075
0.000351734
0.000344704
0.000419194
0.000408477
0.000500688
0.000500079
0.000559613
0.000549365
0.000463982
0.000304122
0.00046755
0.00057913
0.00113535
0.0138984
0.0139019
0.0138884
0.0138748
0.0137428
0.0135824
0.013479
0.0133126
0.0133837
0.013212
0.0123744
0.0120588
0.0115737
0.0112274
0.0103962
0.0103759
0.00967013
0.00959654
0.00942237
0.00884667
0.00685719
0.00684643
0.00678239
0.00674989
0.00669051
0.00660714
0.00654959
0.00648352
0.00625631
0.00633762
0.00680808
0.00697535
0.00646692
0.00607516
0.0061214
0.00676804
0.00648398
0.00659119
0.00611883
0.00710054
0.00413522
0.00410119
0.00407923
0.00407858
0.00409268
0.0041904
0.0042164
0.00423415
0.00423921
0.00426504
0.00416387
0.00398521
0.00388749
0.0039978
0.00348564
0.00351315
0.00351272
0.00368961
0.00313312
0.00342952
0.00264602
0.00262716
0.00261852
0.00258662
0.00255204
0.00251093
0.00244674
0.00243267
0.00234419
0.002299
0.00226403
0.00235081
0.00233708
0.00239324
0.00252966
0.00239936
0.00213198
0.00242316
0.00225621
0.00272784
0.00161438
0.00160533
0.00160067
0.001589
0.00158088
0.00157455
0.00156927
0.001589
0.00164432
0.00167194
0.00166167
0.00165707
0.00161124
0.00160019
0.00142892
0.00159421
0.00172194
0.00157568
0.00135638
0.00139352
0.00113815
0.00113376
0.00112948
0.00112469
0.00111765
0.0011154
0.00110983
0.00110372
0.00107317
0.0010213
0.000970159
0.000960033
0.000963789
0.000976452
0.00103765
0.0010183
0.000945337
0.00116515
0.00115059
0.00111857
0.000692911
0.000686058
0.000681362
0.000678835
0.000674172
0.000672757
0.000670757
0.000668872
0.000667061
0.000667937
0.000717235
0.000767107
0.000755001
0.000795525
0.000744838
0.00073079
0.000687551
0.000644488
0.000626677
0.000679856
0.00052679
0.000521281
0.000513927
0.000511828
0.000505767
0.000506201
0.00050503
0.000502699
0.000499991
0.000494299
0.000483078
0.00044496
0.000433616
0.000414606
0.000396722
0.000419799
0.000460337
0.000532306
0.000482226
0.000487544
0.000315419
0.000312736
0.000308221
0.00030614
0.000300304
0.000300716
0.000293261
0.000290064
0.000285717
0.000282915
0.000279503
0.000278549
0.000288754
0.000307453
0.00031513
0.000322703
0.000304375
0.000307583
0.000326238
0.000324971
0.000201583
0.000203764
0.000200828
0.000199477
0.00019967
0.000199847
0.000197075
0.000204282
0.000195623
0.00019241
0.000192265
0.000186721
0.000185811
0.00017618
0.000178206
0.000171768
0.00017402
0.000176969
0.000170567
0.000164763
0.000120842
0.00010421
0.000105719
0.000101588
9.70555e-05
9.81734e-05
7.64788e-05
8.56531e-05
8.21326e-05
8.76135e-05
8.69923e-05
8.97887e-05
8.49783e-05
8.36358e-05
7.88218e-05
7.78508e-05
7.93427e-05
8.52773e-05
8.5731e-05
9.61228e-05
0.000123811
0.000128262
0.000144887
0.000141251
0.000115326
0.000100296
8.94321e-05
8.50733e-05
7.64761e-05
6.73e-05
6.00896e-05
4.8214e-05
4.53374e-05
3.26858e-05
3.1921e-05
2.64677e-05
1.97611e-05
2.40415e-05
3.19712e-05
4.55413e-05
0.000145573
0.000140113
0.000132853
0.000128167
0.000121664
0.000112758
0.000107826
0.000104682
0.000104387
9.80496e-05
9.33414e-05
9.54459e-05
9.88772e-05
9.74444e-05
9.77471e-05
9.08654e-05
8.8192e-05
7.87061e-05
6.86077e-05
4.42787e-05
0.000168542
0.000164172
0.000161668
0.000156513
0.000156384
0.000156559
0.000156138
0.000150838
0.000145035
0.000137209
0.000133438
0.000125418
0.00011913
0.000111853
0.000110341
0.000103888
0.00010436
9.69163e-05
0.000100824
9.90704e-05
0.000160672
0.000156476
0.000150674
0.000144824
0.000137119
0.000131221
0.000127384
0.000124231
0.000124384
0.000129427
0.000132991
0.00012998
0.000130504
0.000126337
0.000128689
0.000122697
0.00012512
0.00011653
0.000126833
0.000124761
0.000151209
0.000148978
0.000147233
0.000146736
0.000144995
0.000145085
0.000147458
0.000147401
0.000145797
0.000141837
0.000138721
0.000136422
0.000137438
0.000134612
0.000131378
0.000126577
0.000130035
0.000129196
0.000133241
0.000126844
0.000115937
0.000114165
0.000116053
0.00011722
0.000120106
0.000120384
0.000118388
0.000118405
0.000119152
0.000114058
0.000111803
0.000113064
0.000113678
0.000113429
0.00011896
0.000123578
0.000126774
0.000126282
0.000125553
0.000118825
7.722e-05
8.10154e-05
7.89792e-05
7.6891e-05
7.46778e-05
7.57673e-05
7.70228e-05
7.87749e-05
8.05651e-05
8.50039e-05
8.96401e-05
8.96776e-05
9.19922e-05
9.18065e-05
9.09739e-05
8.7383e-05
8.94452e-05
8.84126e-05
9.4408e-05
9.48663e-05
3.77903e-05
3.84553e-05
4.15685e-05
4.46309e-05
5.01939e-05
5.33567e-05
5.58769e-05
5.68688e-05
5.74084e-05
5.85372e-05
5.85423e-05
6.07625e-05
6.07735e-05
6.22311e-05
6.43552e-05
6.64794e-05
6.7461e-05
6.67783e-05
6.55157e-05
6.96485e-05
1.71248e-05
1.82574e-05
2.00854e-05
2.08495e-05
2.22349e-05
2.07406e-05
1.98416e-05
1.46077e-05
1.69238e-05
2.00937e-05
2.30672e-05
2.3916e-05
2.53044e-05
2.65325e-05
2.73393e-05
2.91094e-05
3.10671e-05
3.28046e-05
3.12678e-05
3.25901e-05
0.00115076
0.00133911
0.00102838
0.00114369
0.00114745
0.00116833
0.00121769
0.00124874
0.00128309
0.00131263
0.00136465
0.00141117
0.00146652
0.00151183
0.00158174
0.0016575
0.00157231
0.00253536
0.0088156
0.0217553
0.00107627
0.00115987
0.000945558
0.00106071
0.00109502
0.0011371
0.00119189
0.00123459
0.00127278
0.00131763
0.00137925
0.00141377
0.00148308
0.00150989
0.00157972
0.0016431
0.00165122
0.0023672
0.0082043
0.0214021
0.00112092
0.0012523
0.00098339
0.00109087
0.00112678
0.00116735
0.00121746
0.00124801
0.00128692
0.00132895
0.00137788
0.00142329
0.00148266
0.00151888
0.00161105
0.00163225
0.00163563
0.00156703
0.00685464
0.0209061
0.00116681
0.0012506
0.000976861
0.00109053
0.00112115
0.00116423
0.00120541
0.00124221
0.00128679
0.00133031
0.00138158
0.00141442
0.00147902
0.00151362
0.00159221
0.00162037
0.00171438
0.00149877
0.00625829
0.0203926
0.00116399
0.00126829
0.00101516
0.00112489
0.00116133
0.00119424
0.0012214
0.00125756
0.00129659
0.00133703
0.00138221
0.00142918
0.00149659
0.00152774
0.0016107
0.00160308
0.00167017
0.00147578
0.00513499
0.0198315
0.00120048
0.00128164
0.00103352
0.00112766
0.00115115
0.00117049
0.00120874
0.00126155
0.00129637
0.00134012
0.0013799
0.00142092
0.00147318
0.0015029
0.00157531
0.00160156
0.00173192
0.0014768
0.00483319
0.0191698
0.00120465
0.00127495
0.00103012
0.00113157
0.00115362
0.00118687
0.00124068
0.00126926
0.00129714
0.00133751
0.00138129
0.00143443
0.00149355
0.00152642
0.00160705
0.00160503
0.00169536
0.00155797
0.0052052
0.0184493
0.00119033
0.00121675
0.001032
0.00112713
0.00115746
0.00121026
0.00123876
0.00126344
0.00129206
0.00133575
0.00137326
0.00141861
0.00146296
0.00150807
0.00157907
0.00161942
0.0017483
0.00158942
0.00534957
0.0176617
0.00113936
0.00119296
0.00105362
0.00114377
0.00117928
0.00119443
0.00119288
0.00121554
0.00125382
0.0013131
0.00136475
0.00142698
0.00147927
0.00151906
0.00160901
0.00162997
0.0017698
0.00166865
0.0048962
0.0168712
0.00116783
0.00121425
0.00107429
0.00113045
0.00113078
0.00113758
0.00116728
0.00123322
0.00130504
0.00136566
0.00138738
0.00142677
0.00144927
0.00153185
0.00160873
0.00164478
0.00175635
0.00161797
0.00410484
0.0155264
0.00110196
0.00112427
0.000994987
0.00104032
0.00106782
0.0011195
0.00119011
0.00127358
0.0013142
0.00130473
0.00132079
0.0013779
0.00144616
0.0015475
0.001576
0.00162403
0.00174243
0.00170625
0.00337205
0.0138152
0.0010475
0.00108196
0.000992255
0.00108176
0.00114534
0.00121336
0.00126255
0.00129569
0.00126834
0.00128278
0.00134968
0.00144001
0.00152154
0.00155415
0.00156871
0.00163773
0.00165532
0.00167678
0.00283706
0.0115681
0.00105975
0.00112647
0.00107857
0.00116863
0.00119918
0.0012224
0.00121632
0.00120884
0.00120076
0.00129765
0.0013911
0.00143205
0.00142472
0.00144934
0.00148569
0.00155703
0.00163841
0.00169042
0.00239596
0.0093473
0.00110485
0.00117433
0.00109285
0.00113248
0.00112258
0.00111794
0.00111809
0.00115056
0.00122031
0.00133648
0.00134112
0.00135499
0.00140113
0.00146431
0.0015162
0.00159643
0.00161932
0.00172125
0.00208266
0.00755529
0.00102259
0.00105744
0.000984967
0.00102348
0.00104534
0.00108347
0.00114417
0.00122695
0.00130942
0.00133741
0.00129927
0.00135868
0.00138904
0.00139725
0.00145598
0.00158123
0.00160849
0.00167299
0.00182361
0.00602775
0.0010231
0.00106484
0.000992336
0.00106747
0.0011008
0.00115741
0.00119685
0.0012356
0.00123447
0.00121414
0.00123797
0.00133009
0.00136823
0.00146368
0.00160273
0.00163415
0.00163511
0.00173635
0.00172416
0.00505295
0.00101078
0.00104689
0.00100018
0.00107884
0.00110752
0.00113765
0.00115395
0.00117825
0.00119278
0.00124251
0.00135705
0.00143079
0.00145095
0.00155489
0.00153758
0.00148321
0.00146127
0.00160785
0.00160561
0.00433274
0.000988834
0.00102946
0.000994259
0.00106396
0.00108333
0.00110289
0.00114345
0.00118243
0.00123134
0.00131656
0.0013541
0.00133017
0.00133051
0.00136796
0.00130874
0.00139795
0.0015897
0.00171172
0.00169235
0.00401809
0.000969515
0.000992235
0.000954866
0.00101771
0.00104159
0.00108132
0.00113079
0.00115829
0.0012082
0.00122302
0.00121272
0.00123366
0.00132819
0.00140707
0.00146864
0.00163404
0.00167534
0.00156573
0.00163363
0.00391483
0.000950461
0.00100135
0.000980796
0.00105823
0.00110301
0.00113274
0.00116263
0.00118051
0.00121783
0.00122715
0.00128786
0.00135326
0.00142412
0.00139589
0.00143403
0.00148952
0.00136922
0.00146979
0.00175664
0.00414568
0.000773842
0.00084457
0.000729855
0.000637589
0.000609626
0.000616669
0.000643254
0.000597286
0.000623065
0.000599244
0.000610049
0.000644896
0.00051942
0.000225826
0.000422179
0.00441992
0.0108666
0.0145267
0.0107385
0.00222398
0.000770251
0.000853969
0.000782202
0.000704645
0.000696331
0.000616367
0.000618735
0.000611785
0.000615943
0.000641418
0.000654045
0.000695268
0.000624681
0.00041438
0.000182068
0.00216679
0.00867186
0.0144571
0.012232
0.00330782
0.000755681
0.000847687
0.000812879
0.000709946
0.00069533
0.000686928
0.000703246
0.000643745
0.000650401
0.000646441
0.000654933
0.000681795
0.000719964
0.000616788
0.000321001
0.000644199
0.00677852
0.0134636
0.0136203
0.00374632
0.000781216
0.000874945
0.000857439
0.000762249
0.000753463
0.000677333
0.000697026
0.000715433
0.00071719
0.000725838
0.000737991
0.000735035
0.000784703
0.000735131
0.00047171
0.000218961
0.00372648
0.0123397
0.0145138
0.00684096
0.000768844
0.00086352
0.000900212
0.000796145
0.000783
0.000753758
0.000765613
0.000714379
0.000730217
0.000758117
0.000766613
0.000799254
0.00084065
0.000870584
0.000719237
0.000417832
0.00186708
0.0110258
0.0150689
0.00960495
0.000805061
0.000887066
0.000911487
0.000813709
0.000827322
0.000768029
0.000786504
0.000815384
0.000819425
0.000820939
0.000843648
0.000855731
0.000879559
0.000965072
0.000914406
0.000421475
0.000684278
0.00986922
0.0152188
0.0122836
0.000807222
0.000894479
0.000978477
0.000872141
0.000859632
0.000814219
0.000834846
0.000810483
0.000834291
0.000882819
0.00089382
0.000927066
0.000965794
0.00101915
0.0010117
0.000671871
0.000421718
0.00820146
0.0152437
0.0150278
0.000840526
0.000913202
0.000968935
0.000860352
0.000893984
0.000857389
0.000864443
0.000889393
0.000906596
0.000914004
0.000941885
0.000966438
0.00101391
0.00108699
0.00115169
0.000933165
0.00049621
0.0058844
0.0151226
0.017216
0.00085516
0.000916081
0.00102544
0.000922214
0.000918252
0.0008706
0.000899376
0.000908888
0.000938415
0.00099494
0.00100872
0.00104137
0.00108586
0.00113523
0.00118157
0.00109637
0.000533567
0.00411275
0.0149524
0.0185288
0.000869224
0.000923698
0.00102317
0.000909647
0.000947422
0.000931196
0.000932567
0.000949254
0.000983733
0.00100332
0.00102975
0.00107159
0.00112759
0.00119979
0.00128276
0.00123207
0.000402608
0.00296767
0.0144206
0.0198758
0.000892482
0.000927251
0.0010583
0.000952668
0.00096947
0.00092713
0.000956247
0.000996579
0.00103094
0.00108072
0.00110152
0.0011332
0.0011771