/*--------------------------------*- C++ -*----------------------------------*\
  =========                 |
  \\      /  F ield         | OpenFOAM: The Open Source CFD Toolbox
   \\    /   O peration     | Website:  https://openfoam.org
    \\  /    A nd           | Version:  9
     \\/     M anipulation  |
\*---------------------------------------------------------------------------*/
FoamFile
{
    format      ascii;
    class       volScalarField;
    location    "16";
    object      p;
}
// * * * * * * * * * * * * * * * * * * * * * * * * * * * * * * * * * * * * * //

dimensions      [0 2 -2 0 0 0 0];

internalField   nonuniform List<scalar> 
46400
(
-15.8156
-9.31392
0.623028
9.98729
17.8956
25.4436
32.0648
38.2145
43.7376
48.8141
53.4715
57.7171
61.7073
65.3835
68.8627
72.2068
75.3543
78.557
82.1847
82.9624
14.6165
19.5823
28.7543
37.4913
44.7232
51.5777
57.4848
62.9542
67.7924
72.2095
76.1906
79.801
83.0994
86.1153
88.8942
91.4718
93.8214
96.1079
98.4781
98.494
42.9958
47.8562
56.4799
64.4218
70.9528
76.9754
82.1674
86.8547
91.0093
94.722
98.0911
101.07
103.807
106.251
108.461
110.481
112.259
113.964
115.596
114.868
71.5945
76.9907
84.7213
91.6885
97.2419
102.404
106.734
110.634
114.023
116.999
119.647
121.943
123.991
125.787
127.385
128.77
129.964
131.051
132.15
131.072
100.053
105.978
112.272
118.086
122.653
126.811
130.334
133.386
136.061
138.323
140.325
142.01
143.475
144.72
145.767
146.671
147.383
148.005
148.665
147.317
128.605
134.97
139.393
143.953
147.467
150.616
153.282
155.525
157.468
159.044
160.397
161.463
162.351
163.022
163.563
163.938
164.202
164.342
164.723
163.195
155.837
160.879
164.514
167.72
170.485
172.713
174.628
176.13
177.395
178.348
179.117
179.647
180.015
180.219
180.294
180.27
180.104
179.869
179.897
178.279
180.998
184.835
187.808
190.245
192.203
193.742
194.956
195.793
196.418
196.761
196.956
196.935
196.784
196.468
196.053
195.537
194.924
194.26
193.821
191.989
203.428
206.606
208.945
210.655
212.012
212.91
213.559
213.847
213.935
213.76
213.439
212.96
212.38
211.677
210.887
210.008
209.029
207.988
207.141
205.077
224.388
226.923
228.724
229.798
230.585
230.866
230.935
230.681
230.26
229.582
228.751
227.753
226.666
225.482
224.244
222.946
221.587
220.182
218.945
216.695
242.983
244.947
246.223
246.818
247.101
246.935
246.506
245.796
244.94
243.903
242.752
241.44
240.042
238.536
236.978
235.364
233.706
232.022
230.531
228.126
260.357
261.803
262.666
262.784
262.649
262.051
261.188
259.995
258.601
257.053
255.388
253.624
251.78
249.874
247.915
245.933
243.91
241.891
239.996
237.519
274.725
275.584
276.087
275.843
275.366
274.447
273.4
272.055
270.553
268.816
266.965
264.967
262.896
260.73
258.513
256.242
253.923
251.578
249.336
246.526
289.257
289.44
289.316
288.545
287.489
286.058
284.441
282.627
280.672
278.578
276.388
274.11
271.772
269.38
266.958
264.506
262.03
259.529
257.176
254.243
299.594
299.454
298.989
297.998
296.835
295.321
293.629
291.704
289.637
287.415
285.079
282.641
280.127
277.546
274.924
272.27
269.585
266.876
264.354
261.219
308.996
308.822
308.03
306.783
305.226
303.358
301.296
299.014
296.632
294.11
291.549
288.899
286.239
283.531
280.827
278.116
275.403
272.697
270.25
267.149
314.124
314.091
313.194
312.167
310.715
309.015
307.044
304.826
302.436
299.866
297.198
294.435
291.626
288.774
285.915
283.052
280.193
277.334
274.807
271.528
320.754
319.45
318.412
316.892
315.039
312.864
310.657
308.105
305.621
302.87
300.198
297.349
294.573
291.699
288.883
286.038
283.223
280.402
277.938
274.663
321.776
320.862
320.221
318.554
317.058
314.882
312.787
310.267
307.793
305.086
302.368
299.529
296.658
293.74
290.798
287.871
284.919
281.988
279.299
276.082
321.133
320.65
319.428
318.261
316.531
314.498
312.33
309.872
307.387
304.688
301.983
299.165
296.356
293.491
290.65
287.789
284.941
282.067
279.495
276.239
-356.588
-355.365
-351.262
-341.747
-329.757
-318.087
-306.703
-295.821
-285.458
-275.403
-265.826
-256.544
-247.679
-239.053
-230.871
-222.847
-215.283
-207.871
-200.83
-194.153
-359.044
-357.106
-349.897
-339.05
-326.022
-313.386
-301.757
-290.374
-279.623
-269.399
-259.55
-250.132
-241.132
-232.415
-224.173
-216.079
-208.528
-201.075
-194.128
-187.433
-358.488
-356.658
-346.812
-335.007
-321.277
-308.207
-295.974
-284.39
-273.281
-262.773
-252.744
-243.143
-234.02
-225.212
-216.893
-208.779
-201.23
-193.781
-186.906
-180.224
-354.537
-354.109
-342.51
-329.204
-315.335
-301.869
-289.188
-277.327
-266.048
-255.339
-245.156
-235.447
-226.218
-217.364
-209.012
-200.884
-193.351
-185.915
-179.143
-172.465
-351.764
-350.581
-339.483
-323.663
-308.971
-295.052
-281.83
-269.56
-257.929
-247.018
-236.63
-226.802
-217.501
-208.594
-200.209
-192.073
-184.582
-177.157
-170.484
-163.809
-347.186
-344.789
-331.625
-315.72
-300.094
-285.886
-272.535
-260.09
-248.407
-237.397
-227.013
-217.172
-207.875
-199.021
-190.687
-182.645
-175.24
-167.88
-161.385
-154.702
-337.851
-335.223
-321.737
-305.265
-290.006
-275.503
-262.062
-249.53
-237.709
-226.699
-216.254
-206.43
-197.18
-188.363
-180.11
-172.166
-164.898
-157.675
-151.382
-144.85
-329.568
-325.641
-310.943
-294
-278.056
-263.49
-249.848
-237.303
-225.506
-214.5
-204.167
-194.434
-185.292
-176.628
-168.497
-160.731
-153.595
-146.538
-140.427
-133.999
-315.871
-311.593
-296.241
-279.439
-263.853
-249.389
-235.903
-223.486
-211.821
-200.984
-190.792
-181.224
-172.261
-163.808
-155.88
-148.34
-141.43
-134.624
-128.822
-122.602
-301.633
-296.473
-280.726
-263.824
-248.122
-233.886
-220.436
-208.188
-196.676
-186.002
-176.011
-166.644
-157.888
-149.629
-141.897
-134.569
-127.844
-121.225
-115.65
-109.496
-283.713
-278.131
-261.965
-245.53
-230.06
-216.179
-203.061
-191.105
-179.94
-169.555
-159.891
-150.807
-142.331
-134.368
-126.885
-119.808
-113.254
-106.82
-101.341
-95.1995
-263.986
-257.877
-241.807
-225.752
-210.626
-197.157
-184.401
-172.788
-161.956
-151.933
-142.599
-133.885
-125.783
-118.181
-111.087
-104.419
-98.2824
-92.2777
-87.3255
-81.4637
-242.027
-235.641
-219.367
-203.944
-189.175
-176.203
-163.917
-152.758
-142.412
-132.778
-123.906
-115.573
-107.842
-100.617
-93.8561
-87.5276
-81.6576
-75.971
-71.2536
-65.6346
-218.069
-211.398
-195.081
-180.668
-166.452
-154.05
-142.36
-131.674
-121.84
-112.725
-104.307
-96.4746
-89.2302
-82.479
-76.1949
-70.3551
-64.9528
-59.7478
-55.5015
-50.1422
-192.938
-186.036
-169.34
-155.741
-142.176
-130.342
-119.308
-109.188
-99.9285
-91.3048
-83.4291
-76.0718
-69.2831
-62.9879
-57.1368
-51.728
-46.7098
-41.9292
-38.0637
-33.0212
-165.94
-158.506
-142.098
-129.515
-116.893
-105.706
-95.4072
-85.8897
-77.2443
-69.2152
-61.8655
-55.051
-48.7891
-42.9976
-37.6382
-32.7339
-28.1814
-23.9114
-20.4979
-15.7391
-137.553
-130.219
-114.778
-102.506
-90.7819
-80.1915
-70.589
-61.6835
-53.637
-46.1609
-39.368
-33.0833
-27.3023
-22.0007
-17.1114
-12.67
-8.54596
-4.77619
-1.79136
2.61908
-108.103
-100.836
-86.2015
-74.7837
-63.9109
-54.0311
-45.1649
-36.9168
-29.4998
-22.6195
-16.3681
-10.5994
-5.32808
-0.485368
3.94826
7.95681
11.6641
14.906
17.4567
21.5334
-77.7477
-70.5164
-57.3391
-46.4781
-36.6824
-27.5247
-19.4211
-11.8502
-5.05682
1.23201
6.95514
12.1951
17.033
21.4269
25.4588
29.1165
32.5001
35.302
37.6131
41.8116
-47.1565
-39.8346
-28.0813
-18.0072
-9.14812
-0.753698
6.61614
13.5215
19.7114
25.4554
30.6877
35.5323
40.0146
44.1794
48.0694
51.7513
55.1979
58.2813
61.6299
66.0531
-161.194
-124.445
-88.4462
-66.7697
-43.4894
-29.4147
-14.3073
-4.85751
5.02732
11.5879
17.6156
22.5449
26.0547
29.6967
31.6944
34.3936
35.7934
37.357
37.6349
38.7669
-155.026
-120.254
-84.9508
-64.4341
-41.5609
-27.9517
-13.1016
-3.91803
5.74548
12.2042
18.092
22.9364
26.292
29.8277
31.5887
34.3802
35.5767
37.2452
37.4173
38.3844
-148.378
-115.781
-81.3866
-61.7584
-39.4672
-26.3898
-11.9329
-2.89648
6.50931
12.8279
18.6019
23.2739
26.4865
29.9897
31.5934
34.4242
35.4593
37.1745
37.0866
38.3044
-141.379
-111.008
-77.495
-58.8815
-37.3279
-24.5757
-10.5726
-1.72562
7.36676
13.5977
19.2001
23.7249
26.8736
30.2663
31.5245
34.4816
35.291
37.2805
36.8955
37.9362
-133.748
-105.975
-73.4604
-55.853
-34.9326
-22.7798
-9.17588
-0.546261
8.27761
14.3895
19.8383
24.2018
27.1735
30.4367
31.515
34.7686
35.0589
37.4299
36.7102
37.874
-125.577
-100.59
-69.0839
-52.7284
-32.4436
-20.8013
-7.58921
0.764089
9.29935
15.2997
20.5594
24.7789
27.5984
30.6545
31.614
35.0736
34.6711
37.6001
36.609
37.6096
-116.888
-94.8312
-64.5227
-49.48
-29.7299
-18.8124
-5.95161
2.08577
10.3661
16.2206
21.2852
25.3717
27.9966
31.0454
31.8279
35.4399
34.4424
37.7962
36.4604
37.5886
-107.867
-88.7004
-59.7221
-46.0358
-26.9647
-16.6373
-4.16812
3.53956
11.5478
17.2472
22.1414
26.0707
28.5174
31.561
32.1555
35.6444
34.1507
37.949
36.4063
37.3994
-98.6966
-82.3385
-54.8288
-42.3863
-24.0815
-14.3406
-2.34413
5.04293
12.7759
18.3449
23.0291
26.7783
29.1077
32.2026
32.5825
35.9714
33.9833
38.1994
36.3196
37.4122
-86.8732
-75.3937
-49.6833
-38.5573
-21.1348
-11.903
-0.425828
6.69179
14.1293
19.4063
23.9991
27.5896
29.7932
32.797
33.0228
36.2147
33.7728
38.3508
36.3059
37.5034
-76.1937
-68.3087
-44.4293
-34.5922
-18.0981
-9.34591
1.53727
8.39291
15.4853
20.6071
25.0089
28.4207
30.4948
33.447
33.4591
36.4582
33.6389
38.4222
36.3641
37.5781
-65.1361
-60.7723
-39.0227
-30.4718
-14.9774
-6.69731
3.60246
10.2049
16.9543
21.8738
26.0837
29.3258
31.291
34.0682
33.8917
36.6722
33.4485
38.5944
36.4005
37.7287
-53.1865
-53.1983
-33.453
-26.2404
-11.7784
-3.95504
5.72023
12.0574
18.4242
23.2173
27.2127
30.2723
32.0858
34.6994
34.348
36.9901
33.2665
38.8349
36.3936
37.915
-40.8548
-45.0806
-27.774
-21.8648
-8.49894
-1.12006
7.92938
14.0143
19.9995
24.6288
28.3944
31.2781
32.9574
35.3983
34.7919
37.3511
33.0398
39.0322
36.316
38.105
-27.6921
-37.0455
-21.9629
-17.4364
-5.18618
1.79746
10.1977
16.0036
21.5855
26.1021
29.6449
32.3366
33.8532
36.1464
35.2917
37.8208
32.853
39.2549
36.209
38.282
-13.9381
-28.4662
-16.076
-12.9536
-1.85709
4.74417
12.5163
18.0653
23.2447
27.6194
30.9259
33.4213
34.7699
36.9053
35.7873
38.1644
32.6018
39.4897
36.201
38.6197
0.597543
-19.5327
-9.76989
-8.20147
1.60915
7.87536
14.9606
20.202
24.9461
29.2275
32.2912
34.6117
35.8578
37.8182
36.5033
38.9109
32.3792
39.7911
36.0122
38.7985
14.247
-11.4881
-3.84217
-3.53362
5.08682
11.0924
17.5248
22.4864
26.7632
30.9305
33.7343
35.8422
36.917
38.7399
37.1955
39.6556
32.2327
39.7551
35.9625
39.384
32.3853
-2.98882
1.84303
-0.315827
7.25933
13.2844
19.497
24.2207
28.1444
32.3313
35.033
36.8356
37.6848
39.35
37.5915
39.6502
32.1524
38.976
35.8547
39.39
55.1312
15.1436
11.2658
7.18426
12.3153
17.7683
22.7984
27.0811
30.3607
34.3529
36.6276
38.2799
39.0809
40.7154
39.1842
40.9118
34.1096
38.8462
34.4158
40.1284
95.8188
99.336
70.3117
73.0078
59.2999
58.8334
52.017
53.8945
51.0493
52.6586
51.3195
53.8949
53.9381
55.3068
56.0772
57.5927
58.2465
58.8627
39.2417
64.3861
133.08
123.615
101.333
95.4162
82.0019
78.1435
71.0275
68.8896
65.1638
64.3433
62.2853
61.7849
60.6237
60.5944
59.8652
60.0556
58.7983
59.5004
56.8925
59.3187
140.134
130.432
117.99
110.509
101.652
96.0139
89.9404
86.4092
82.4704
80.4495
78.3432
77.2509
76.1126
75.7543
74.9762
75.3578
74.0616
72.9525
71.2511
72.2751
140.959
132.89
124.23
117.107
110.087
104.644
99.3942
95.351
91.5618
88.5339
85.6365
83.5618
81.4656
80.0348
78.7625
77.6055
76.3711
75.7805
74.7128
75.0372
135.245
129.152
123.918
118.767
114.197
109.861
105.958
102.442
99.2393
96.4883
94.0618
91.8649
89.9092
88.2699
86.4019
85.1657
83.1536
81.6191
80.4616
80.4829
132.176
128.205
124.93
120.759
117.082
113.272
109.967
106.73
103.876
101.223
98.5972
96.4942
94.1942
92.2924
90.4721
88.5411
87.1616
85.428
84.4468
84.0348
128.422
125.471
122.94
119.87
117.366
114.714
112.257
109.867
107.529
105.374
103.179
101.253
99.2309
97.5493
95.5065
93.9643
91.8446
90.2049
88.8316
88.328
126.619
124.758
123.12
121.154
119.057
116.731
114.701
112.63
110.543
108.775
106.672
105.145
103.016
101.581
99.5324
98.057
96.1389
94.657
92.8442
92.3995
125.019
123.614
122.22
120.6
119.118
117.703
116.142
114.735
113.13
111.703
109.99
108.63
106.842
105.622
103.64
102.439
100.118
98.9373
96.7367
96.3375
124.531
123.736
122.882
121.966
120.879
119.724
118.286
117.169
115.736
114.856
113.367
112.523
110.857
109.973
108.123
107.222
104.948
104.066
101.621
101.156
124.5
123.902
123.127
122.401
121.564
120.871
120.11
119.418
118.479
117.701
116.695
115.972
114.897
114.207
112.936
112.173
110.464
109.591
106.483
106.511
124.832
124.514
124.034
123.693
123.199
122.869
122.145
121.774
121.089
120.795
120.115
119.89
119.111
119.059
118.076
118.26
116.672
117.594
115.603
117.359
125.69
125.533
125.223
125.041
124.683
124.543
124.207
124.111
123.78
123.792
123.535
123.716
123.582
123.965
124.131
124.543
125.421
125.91
127.761
129.573
126.357
126.317
126.156
126.131
125.984
126.006
125.889
126.053
125.978
126.324
126.314
126.948
127.031
128.073
128.404
129.83
131.033
131.8
135.338
135.784
127.286
127.35
127.324
127.44
127.436
127.656
127.686
128.069
128.13
128.78
128.846
129.929
129.937
131.659
131.612
134.141
134.24
137.997
140.231
141.88
127.973
128.071
128.139
128.298
128.421
128.669
128.869
129.254
129.538
130.147
130.453
131.561
131.569
133.75
132.894
136.969
137.334
141.73
141.983
148.297
128.685
128.843
128.994
129.215
129.433
129.798
130.069
130.606
130.905
131.697
132.127
133.048
133.677
134.724
135.551
137.13
137.899
141.51
142.291
146.081
129.191
129.365
129.546
129.817
130.074
130.402
130.765
131.179
131.665
132.196
132.712
133.526
133.978
135.202
135.643
137.209
137.695
142.566
142.265
145.831
129.538
129.725
129.952
130.241
130.542
130.934
131.3
131.794
132.234
132.842
133.359
134.08
134.692
135.524
136.145
137.126
137.593
138.368
139.457
140.223
129.717
129.935
130.166
130.439
130.731
131.079
131.46
131.908
132.388
132.935
133.53
134.192
134.85
135.66
136.345
137.298
137.955
139.092
139.354
143.54
235.72
235.725
234.556
233.302
230.943
228.409
224.905
221.003
216.113
210.942
204.895
198.346
190.746
182.83
174.711
165.399
154.894
145.082
135.025
124.11
211.49
211.152
210.707
209.796
208.684
207.232
205.456
203.43
201.012
198.441
195.45
191.858
186.685
182.011
177.789
174.107
169.525
165.189
160.122
155.127
171.495
171.445
171.208
170.914
170.418
169.897
169.105
168.372
167.347
166.395
165.088
163.877
162.401
161.174
159.355
157.843
155.733
154.04
151.533
149.901
160.055
159.936
159.776
159.549
159.257
158.916
158.477
158.002
157.391
156.776
155.977
155.241
154.261
153.42
152.256
151.341
149.999
149.023
147.472
146.502
143.939
143.917
143.85
143.767
143.612
143.466
143.23
143.028
142.723
142.48
142.114
141.838
141.398
141.079
140.54
140.184
139.538
139.15
138.382
137.991
138.75
138.707
138.653
138.566
138.472
138.344
138.207
138.037
137.853
137.633
137.375
137.099
136.761
136.45
136.043
135.708
135.222
134.876
134.315
133.964
132.224
132.227
132.203
132.174
132.108
132.044
131.939
131.842
131.698
131.57
131.394
131.247
131.052
130.89
130.66
130.482
130.215
130.03
129.708
129.518
129.868
129.854
129.825
129.787
129.735
129.671
129.595
129.505
129.407
129.295
129.175
129.041
128.882
128.722
128.53
128.356
128.128
127.94
127.682
127.5
127.312
127.315
127.308
127.289
127.265
127.227
127.175
127.118
127.043
126.964
126.868
126.768
126.654
126.54
126.409
126.28
126.126
125.979
125.789
125.638
126.386
126.374
126.347
126.318
126.282
126.239
126.201
126.153
126.099
126.035
125.965
125.885
125.797
125.702
125.595
125.486
125.361
125.231
125.061
124.923
126.008
126.026
126.037
126.017
125.975
125.943
125.893
125.844
125.79
125.736
125.671
125.604
125.526
125.445
125.352
125.258
125.162
125.061
124.953
124.844
126.146
126.132
126.114
126.09
126.065
126.032
125.997
125.958
125.914
125.867
125.813
125.756
125.694
125.627
125.556
125.477
125.386
125.295
125.201
125.103
126.38
126.382
126.381
126.378
126.369
126.358
126.343
126.325
126.305
126.279
126.253
126.22
126.188
126.149
126.111
126.064
126.02
125.962
125.914
125.845
126.901
126.894
126.887
126.877
126.866
126.852
126.837
126.819
126.8
126.778
126.756
126.73
126.704
126.674
126.645
126.61
126.578
126.537
126.503
126.457
127.427
127.429
127.429
127.43
127.429
127.428
127.426
127.423
127.42
127.415
127.41
127.403
127.397
127.387
127.38
127.366
127.359
127.341
127.332
127.311
127.985
127.982
127.979
127.977
127.975
127.972
127.971
127.969
127.968
127.967
127.967
127.965
127.966
127.964
127.965
127.962
127.965
127.96
127.964
127.958
128.368
128.378
128.388
128.398
128.408
128.419
128.43
128.441
128.454
128.466
128.48
128.493
128.509
128.523
128.54
128.554
128.574
128.588
128.609
128.624
128.867
128.861
128.857
128.856
128.856
128.859
128.862
128.87
128.885
128.905
128.925
128.944
128.964
128.983
129.003
129.023
129.048
129.07
129.096
129.116
129.055
129.07
129.087
129.105
129.123
129.141
129.161
129.179
129.192
129.202
129.214
129.231
129.249
129.271
129.296
129.322
129.348
129.377
129.41
129.445
129.182
129.184
129.19
129.198
129.209
129.223
129.239
129.256
129.275
129.295
129.317
129.341
129.367
129.395
129.425
129.457
129.491
129.527
129.566
129.606
45.796
42.8464
36.6354
31.1606
25.4886
19.4923
13.2143
6.5388
-0.612147
-8.30485
-16.5811
-25.5935
-35.332
-46.0272
-57.6423
-70.3714
-84.5142
-99.6685
-117.594
-125.941
60.1185
58.3086
53.8536
49.4601
44.8331
39.8036
34.401
28.5437
22.2096
15.3297
7.88976
-0.255637
-9.06935
-18.8083
-29.3406
-41.0135
-53.9388
-67.6803
-84.631
-93.5612
76.964
76.2022
72.6147
68.9526
65.0006
60.6483
55.925
50.7743
45.1671
39.0511
32.389
25.055
17.0817
8.23519
-1.34309
-12.0799
-23.6813
-36.5355
-51.8997
-60.6616
94.3516
93.8589
90.7451
87.7212
84.4248
80.7791
76.7844
72.3924
67.5704
62.2768
56.4601
50.0447
43.0252
35.2123
26.6923
17.1255
6.66436
-4.98748
-18.6574
-27.4594
111.883
111.852
109.363
106.948
104.292
101.285
97.95
94.2391
90.1354
85.5747
80.5345
74.9124
68.7409
61.7891
54.241
45.6168
36.4272
25.8521
13.8219
6.30822
129.278
129.453
127.401
125.469
123.317
120.876
118.133
115.086
111.665
107.847
103.566
98.7899
93.4527
87.4462
80.7797
73.2147
64.9157
55.3414
44.6066
38.3917
146.041
146.549
145.017
143.649
142.108
140.296
138.219
135.86
133.144
130.052
126.548
122.553
118.071
112.899
107.192
100.491
93.2089
84.5507
74.5077
69.0823
162.335
163.056
162.01
161.115
160.068
158.778
157.241
155.465
153.355
150.958
148.152
144.955
141.242
136.971
132.096
126.387
120.025
112.415
103.186
97.7987
177.278
178.333
177.873
177.521
177.042
176.343
175.439
174.329
172.94
171.287
169.269
166.894
164.063
160.722
156.871
152.19
147.029
140.398
132.768
126.637
191.936
193.283
193.288
193.384
193.361
193.168
192.809
192.276
191.503
190.497
189.162
187.512
185.432
182.947
179.912
176.264
172.045
166.692
160.836
154.368
204.972
206.552
207.033
207.623
208.128
208.525
208.758
208.855
208.687
208.336
207.659
206.773
205.502
203.909
201.812
199.224
196.066
192.049
187.627
181.633
217.646
219.568
220.533
221.582
222.553
223.396
224.087
224.619
224.954
225.126
225.08
224.833
224.245
223.338
221.979
220.212
217.919
215.091
211.562
207.06
228.442
230.689
232.11
233.594
234.99
236.263
237.398
238.427
239.298
240.067
240.583
240.915
240.884
240.649
239.987
239.05
237.574
235.673
233.086
229.548
239.683
242.174
243.712
245.415
247.032
248.577
250.023
251.411
252.675
253.823
254.773
255.547
256.068
256.379
256.355
256.037
255.24
254.028
252.12
249.335
248.431
250.924
252.76
254.749
256.718
258.647
260.525
262.349
264.053
265.636
267.033
268.289
269.291
270.121
270.59
270.847
270.61
270.081
268.735
266.653
256.378
259.221
261.355
263.672
265.929
268.149
270.271
272.348
274.272
276.14
277.834
279.473
280.873
282.179
283.126
283.834
283.914
283.823
282.927
281.392
263.286
266.188
268.377
270.814
273.231
275.618
277.978
280.298
282.568
284.772
286.889
288.862
290.659
292.212
293.471
294.52
295.067
295.371
294.961
294.122
268.689
271.692
274.075
276.696
279.309
281.889
284.452
286.969
289.428
291.8
294.039
296.151
298.074
299.883
301.373
302.817
303.85
304.846
304.808
304.925
272.52
275.609
278.07
280.794
283.513
286.212
288.907
291.574
294.198
296.762
299.244
301.629
303.904
306.044
307.968
309.699
311.027
312.089
312.608
312.733
275.422
278.596
281.118
283.932
286.763
289.582
292.393
295.202
297.941
300.665
303.261
305.803
308.131
310.328
312.26
313.97
315.332
316.439
316.948
317.113
-199.53
-205.624
-212.029
-218.672
-225.345
-232.396
-239.413
-246.756
-254.143
-261.731
-269.446
-277.406
-285.378
-293.545
-301.137
-308.619
-314.963
-316.897
-317.742
-317.673
-193.938
-200.191
-206.699
-213.577
-220.442
-227.759
-235.042
-242.735
-250.461
-258.49
-266.641
-274.926
-283.515
-292.029
-300.896
-309.187
-316.144
-320.615
-320.89
-321.541
-188.347
-194.788
-201.437
-208.566
-215.675
-223.308
-230.961
-239.016
-247.238
-255.739
-264.485
-273.496
-282.758
-292.116
-301.882
-311.013
-319.843
-326.824
-327.441
-328.631
-182.468
-189.112
-195.899
-203.291
-210.663
-218.618
-226.655
-235.176
-243.91
-253.035
-262.492
-272.303
-282.468
-293.152
-303.98
-315.282
-326.68
-335.841
-338.861
-339.92
-176.3
-183.169
-190.103
-197.763
-205.399
-213.692
-222.127
-231.065
-240.352
-250.081
-260.279
-270.929
-282.183
-293.979
-306.237
-319.338
-333.268
-344.91
-351.917
-353.305
-169.55
-176.615
-183.665
-191.553
-199.447
-208.028
-216.836
-226.203
-235.982
-246.283
-257.139
-268.604
-280.752
-293.597
-307.344
-322.183
-338.035
-351.951
-363.982
-365.351
-162.096
-169.365
-176.523
-184.636
-192.732
-201.578
-210.711
-220.423
-230.647
-241.455
-252.913
-265.025
-277.931
-291.585
-306.33
-322.02
-338.461
-354.357
-371.291
-373.387
-153.896
-161.497
-168.601
-176.855
-185.114
-194.128
-203.511
-213.506
-224.073
-235.286
-247.241
-259.974
-273.596
-288.222
-303.958
-320.925
-338.87
-358.837
-373.697
-377.166
-144.923
-152.483
-159.604
-167.888
-176.233
-185.343
-194.869
-205.05
-215.848
-227.352
-239.636
-252.717
-266.799
-281.835
-298.116
-315.768
-335.093
-355.467
-371.927
-377.217
-134.805
-142.389
-149.517
-157.806
-166.209
-175.359
-184.981
-195.252
-206.195
-217.873
-230.362
-243.756
-258.161
-273.61
-290.325
-308.532
-327.808
-348.886
-366.66
-369.665
-123.634
-131.235
-138.191
-146.383
-154.72
-163.782
-173.386
-183.646
-194.589
-206.303
-218.866
-232.318
-246.864
-262.431
-279.498
-297.878
-317.994
-339.852
-359.015
-363.94
-111.417
-118.926
-125.737
-133.768
-141.999
-150.94
-160.434
-170.581
-181.442
-193.089
-205.598
-219.045
-233.538
-249.093
-266.066
-284.354
-304.036
-326.001
-346.067
-351.471
-97.6999
-105.23
-111.789
-119.604
-127.663
-136.39
-145.709
-155.691
-166.379
-177.862
-190.215
-203.493
-217.846
-233.279
-250.245
-268.242
-288.394
-310.042
-330.386
-336.993
-82.604
-90.067
-96.5651
-104.178
-112.076
-120.589
-129.683
-139.41
-149.84
-161.072
-173.148
-186.171
-200.236
-215.421
-231.999
-249.878
-269.638
-290.575
-310.715
-317.981
-67.3771
-74.6466
-80.6812
-87.8746
-95.3965
-103.508
-112.22
-121.579
-131.636
-142.486
-154.183
-166.808
-180.472
-195.212
-211.423
-228.72
-247.966
-268.9
-289.604
-297.197
-50.2389
-57.3171
-63.1355
-69.9856
-77.2525
-85.0417
-93.4292
-102.438
-112.122
-122.596
-133.862
-146.042
-159.19
-173.445
-189.011
-205.696
-224.384
-244.064
-264.619
-272.501
-32.8549
-39.7481
-45.1121
-51.4841
-58.3314
-65.6567
-73.5731
-82.1076
-91.2973
-101.243
-111.968
-123.587
-136.173
-149.827
-164.771
-180.822
-198.753
-217.701
-238.597
-246.625
-14.3421
-20.9427
-25.9316
-31.8078
-38.3158
-45.2376
-52.7317
-60.8311
-69.5576
-79.0278
-89.2205
-100.281
-112.214
-125.197
-139.343
-154.582
-171.584
-189.5
-209.716
-217.934
5.83138
-1.18028
-5.86689
-11.2295
-17.3963
-23.9333
-30.973
-38.6006
-46.8249
-55.7266
-65.3157
-75.7305
-86.9987
-99.2875
-112.698
-127.18
-143.326
-160.477
-180.209
-188.631
29.7856
22.4785
16.5945
11.0616
4.90012
-1.60218
-8.44436
-15.7626
-23.5806
-32
-41.0167
-50.8106
-61.3531
-72.8816
-85.3755
-98.9455
-114.081
-130.062
-148.861
-157.462
33.3636
33.5063
31.9851
30.3934
27.6506
24.6009
21.5333
17.3386
13.2975
7.705
1.84322
-5.55498
-14.5799
-24.5118
-38.8367
-52.7575
-75.5014
-97.2828
-132.201
-169.148
33.6596
33.9147
32.3925
30.7664
28.1418
25.1807
22.2379
18.1511
14.2497
8.77148
3.09145
-4.14537
-12.9071
-22.5587
-36.5755
-49.9257
-72.3955
-93.2013
-127.765
-163.226
33.9872
34.3497
32.7703
31.1274
28.6099
25.7539
22.9293
18.9537
15.1913
9.847
4.36168
-2.71999
-11.225
-20.6093
-34.3191
-47.1161
-69.1927
-88.8021
-123.207
-157.169
34.2786
34.6789
33.1027
31.4975
29.1313
26.3695
23.6742
19.817
16.1965
10.9753
5.68623
-1.24069
-9.44105
-18.5773
-31.9078
-44.1534
-65.9157
-84.5981
-118.588
-150.926
34.5634
35.0311
33.4914
31.9243
29.6103
26.9792
24.405
20.6704
17.192
12.1102
7.02596
0.246404
-7.65193
-16.5656
-29.4936
-41.2287
-62.5038
-79.9127
-113.528
-144.44
34.8052
35.3087
33.7787
32.3059
30.1689
27.6318
25.1918
21.5862
18.2498
13.301
8.42325
1.79516
-5.76376
-14.4628
-26.9167
-38.1966
-59.0034
-75.4962
-108.644
-137.601
35.0243
35.5573
34.1074
32.7056
30.7031
28.2805
25.9646
22.4939
19.2984
14.4985
9.82808
3.34876
-3.87538
-12.3796
-24.3403
-35.1754
-55.3161
-70.6135
-103.04
-130.34
35.2277
35.7681
34.4381
33.1113
31.3005
28.9737
26.794
23.4646
20.4072
15.7532
11.2915
4.96732
-1.89179
-10.2061
-21.611
-32.0532
-51.5495
-65.9434
-97.5952
-122.757
35.4272
35.9713
34.7428
33.4799
31.8575
29.6639
27.6099
24.4295
21.5076
17.0154
12.7566
6.59073
0.0885243
-8.04833
-18.8791
-28.9383
-47.622
-60.8492
-91.3371
-114.555
35.6062
36.1458
35.0415
33.9095
32.4743
30.4038
28.4828
25.4568
22.6654
18.3349
14.2782
8.28061
2.15652
-5.80241
-16.0041
-25.7227
-43.5679
-55.8301
-85.2087
-106.089
35.7812
36.3159
35.3493
34.299
33.0516
31.1404
29.3448
26.481
23.8163
19.6627
15.7975
9.97673
4.2186
-3.56528
-13.1267
-22.5213
-39.3989
-50.5058
-78.371
-96.8917
35.9405
36.4643
35.6392
34.7417
33.6988
31.932
30.2638
27.5657
25.0213
21.0459
17.3689
11.7387
6.35798
-1.24334
-10.1211
-19.2188
-35.0528
-45.1222
-71.5969
-87.392
36.0955
36.6111
35.9446
35.1467
34.3223
32.7208
31.1749
28.6495
26.2207
22.437
18.9346
13.508
8.4884
1.07751
-7.11639
-15.9352
-30.6167
-39.5258
-64.0835
-75.7906
36.237
36.7295
36.2313
35.6101
35.0173
33.5693
32.1435
29.7913
27.4718
23.8812
20.5489
15.3426
10.6879
3.48385
-3.99931
-12.5461
-25.9734
-33.8361
-56.6671
-64.7732
36.3674
36.8317
36.5575
36.0454
35.6956
34.4181
33.1069
30.9351
28.7192
25.3337
22.1561
17.1874
12.877
5.89556
-0.895064
-9.18442
-21.2768
-28.0656
-48.6606
-52.6909
36.491
36.9966
36.8042
36.5308
36.4332
35.3219
34.1178
32.1238
30.0031
26.8205
23.7901
19.0746
15.1018
8.36022
2.26286
-5.7507
-16.3968
-22.1505
-40.4837
-39.9073
36.5945
37.0124
37.0779
37.0177
37.1942
36.2434
35.1482
33.329
31.3093
28.3353
25.4491
21.0037
17.3641
10.9068
5.50513
-2.18611
-11.2877
-16.0678
-31.6355
-26.1221
36.716
37.2273
37.9461
37.5178
38.045
37.2525
36.2485
34.6133
32.6828
29.931
27.1823
23.0395
19.7203
13.554
8.79205
1.3985
-6.20305
-10.1968
-23.2531
-13.0875
36.7304
37.0737
37.9161
37.8542
38.6193
38.091
37.1066
35.7172
33.7923
31.2801
28.5678
24.7553
21.6334
15.6814
11.3668
4.19165
-1.94413
-4.95662
-14.0636
5.18559
37.51
35.4624
37.6386
38.8532
39.7138
39.1783
38.4031
36.9988
35.2992
32.8441
30.3788
26.7503
24.0485
18.5823
15.19
8.94814
5.09914
3.28172
-1.22559
26.8316
57.3459
42.5853
52.5022
49.3494
52.1438
49.9958
51.2983
49.4253
50.2907
48.6223
49.5571
47.8195
49.1293
47.9854
51.2951
50.5206
57.5771
57.6965
68.3677
61.8194
56.0586
53.1434
56.1509
54.3702
56.4711
55.749
56.9235
56.7376
57.8538
58.2147
59.9824
61.432
65.0292
67.593
73.898
77.3509
88.8516
92.3223
116.565
124.66
69.4341
69.0864
69.3055
69.8372
70.5943
71.1456
72.2097
73.0432
74.5893
75.8313
78.2762
80.3122
83.6156
86.39
91.3406
95.5481
103.232
109.357
121.98
128.413
73.0231
73.2214
73.5524
74.2901
75.1923
76.356
77.8736
79.5932
81.8149
84.2281
87.1119
89.9424
93.7755
97.5236
102.863
107.533
115.083
120.356
130.523
135.005
79.9597
80.0372
80.9081
82.3264
83.6969
85.0603
86.7508
88.2181
90.2801
92.0426
94.4647
96.7795
99.7869
102.742
106.371
110.004
114.39
118.469
123.602
129.298
83.3936
83.7778
84.7409
86.2259
87.8116
89.5148
91.4531
93.3862
95.6858
97.8092
100.492
102.913
105.998
108.805
112.354
115.488
119.428
122.614
127.384
128.825
87.6767
88.3424
89.5957
91.425
93.3042
94.9515
96.9085
98.5099
100.498
102.215
104.296
106.206
108.41
110.547
112.855
115.177
117.573
119.941
121.934
124.778
90.1188
90.8327
92.8384
94.7085
97.0404
98.7121
100.929
102.51
104.695
106.289
108.475
110.136
112.333
114.084
116.248
118.069
120.099
122.033
124.24
125.238
94.5331
95.2734
97.7977
99.6257
102.089
103.603
105.605
106.934
108.685
109.952
111.577
112.837
114.42
115.685
117.268
118.526
120.09
121.191
122.157
123.174
98.8343
99.2193
102.771
104.205
106.713
107.937
109.811
110.863
112.449
113.437
114.887
115.842
117.21
118.137
119.431
120.301
121.507
122.332
123.588
124.21
108.843
107.15
111.683
111.591
113.664
114.171
115.406
115.971
116.936
117.519
118.38
118.97
119.812
120.406
121.253
121.844
122.67
123.169
123.774
124.092
121.892
120.114
119.48
119.304
119.517
119.676
119.854
120.066
120.402
120.619
121.11
121.364
121.951
122.224
122.839
123.081
123.72
123.971
124.569
124.875
131.853
131.474
127.966
128.139
126.472
126.233
125.538
125.229
124.988
124.784
124.78
124.69
124.824
124.824
125.068
125.137
125.477
125.506
125.849
125.793
138.962
137.39
134.646
132.279
131.121
129.495
128.872
127.849
127.5
126.848
126.691
126.261
126.192
125.962
125.964
125.946
126.159
126.093
126.278
126.266
144.977
140.753
138.641
136.305
134.799
133.132
132.142
130.958
130.381
129.51
129.228
128.647
128.512
128.102
128.059
127.71
127.64
127.423
127.473
127.311
150.337
138.635
137.943
135.849
135.102
133.534
132.946
131.733
131.318
130.443
130.089
129.488
129.198
128.77
128.52
128.312
128.224
128.104
128.165
128.024
141.947
139.565
139.05
136.841
136.431
134.734
134.371
133.127
132.727
131.886
131.474
130.902
130.597
130.188
129.992
129.469
129.315
128.985
128.802
128.591
145.902
137.502
138.043
136.123
135.707
134.602
134.194
133.32
132.915
132.244
131.865
131.263
130.961
130.436
130.214
129.749
129.57
129.271
129.162
129.001
138.016
136.912
136.75
135.94
135.623
134.794
134.384
133.646
133.212
132.593
132.206
131.708
131.375
130.99
130.706
130.415
130.206
129.933
129.747
129.55
143.68
136.776
136.564