/*--------------------------------*- C++ -*----------------------------------*\
  =========                 |
  \\      /  F ield         | OpenFOAM: The Open Source CFD Toolbox
   \\    /   O peration     | Website:  https://openfoam.org
    \\  /    A nd           | Version:  9
     \\/     M anipulation  |
\*---------------------------------------------------------------------------*/
FoamFile
{
    format      ascii;
    class       surfaceScalarField;
    location    "16";
    object      phi;
}
// * * * * * * * * * * * * * * * * * * * * * * * * * * * * * * * * * * * * * //

dimensions      [0 3 -1 0 0 0 0];

internalField   nonuniform List<scalar> 
92080
(
-0.00628976
-0.461317
0.467607
-0.0360226
-0.87971
0.909443
-0.080236
-0.927533
0.971746
-0.124012
-0.909653
0.95343
-0.166333
-0.895968
0.938289
-0.208197
-0.880705
0.922569
-0.249905
-0.868118
0.909826
-0.290934
-0.855584
0.896613
-0.331477
-0.843844
0.884387
-0.371715
-0.833291
0.873528
-0.411258
-0.822463
0.862006
-0.450911
-0.813222
0.852874
-0.489412
-0.80544
0.843942
-0.528252
-0.795734
0.834574
-0.566814
-0.789146
0.827709
-0.603689
-0.781301
0.818175
-0.640371
-0.772675
0.809357
-0.677171
-0.764928
0.801728
-0.712811
-0.757276
0.792917
-0.751242
0.783918
-0.745487
-0.00660741
-0.454709
-0.0422269
-0.844091
-0.0861902
-0.88357
-0.130735
-0.865109
-0.175223
-0.851479
-0.219081
-0.836847
-0.262394
-0.824805
-0.305129
-0.81285
-0.347544
-0.801429
-0.389129
-0.791706
-0.430831
-0.780761
-0.472366
-0.771687
-0.513155
-0.764651
-0.553057
-0.755831
-0.593071
-0.749132
-0.631746
-0.742626
-0.669038
-0.735383
-0.705434
-0.728532
-0.739922
-0.722788
-0.717437
-0.773728
-0.00186598
-0.452843
-0.0420527
-0.803904
-0.0892878
-0.836335
-0.135893
-0.818504
-0.181557
-0.805815
-0.22683
-0.791574
-0.271701
-0.779934
-0.315417
-0.769133
-0.358982
-0.757864
-0.401554
-0.749134
-0.44329
-0.739025
-0.485497
-0.72948
-0.526837
-0.723312
-0.567685
-0.714983
-0.608339
-0.708479
-0.647891
-0.703073
-0.686303
-0.696972
-0.724725
-0.690111
-0.762573
-0.68494
-0.680266
-0.799744
0.00073128
-0.453575
-0.0423852
-0.760787
-0.0929451
-0.785775
-0.142362
-0.769087
-0.190564
-0.757612
-0.237464
-0.744674
-0.284222
-0.733177
-0.329958
-0.723397
-0.375095
-0.712727
-0.41957
-0.704659
-0.462395
-0.6962
-0.505761
-0.686114
-0.548665
-0.680407
-0.590269
-0.673379
-0.632969
-0.665779
-0.67599
-0.660052
-0.717088
-0.655873
-0.756763
-0.650436
-0.796449
-0.645254
-0.641104
-0.835611
0.00180783
-0.455382
-0.0422154
-0.716764
-0.0939317
-0.734058
-0.144785
-0.718234
-0.1945
-0.707897
-0.242833
-0.696341
-0.290694
-0.685316
-0.33747
-0.676621
-0.383934
-0.666263
-0.430258
-0.658335
-0.474881
-0.651578
-0.518587
-0.642408
-0.563342
-0.635653
-0.605854
-0.630866
-0.646585
-0.625048
-0.688533
-0.618105
-0.731533
-0.612873
-0.773289
-0.60868
-0.814332
-0.604211
-0.599746
-0.855691
0.000215806
-0.455598
-0.0476704
-0.668878
-0.102387
-0.679342
-0.15426
-0.666361
-0.205307
-0.65685
-0.254661
-0.646987
-0.303687
-0.63629
-0.351557
-0.628751
-0.398749
-0.619071
-0.446596
-0.610488
-0.493252
-0.604921
-0.538481
-0.597179
-0.583921
-0.590213
-0.63066
-0.584127
-0.675531
-0.580177
-0.718554
-0.575081
-0.761686
-0.569742
-0.805596
-0.564769
-0.848134
-0.561673
-0.557969
-0.889911
-0.0070277
-0.448571
-0.0553737
-0.620532
-0.108489
-0.626226
-0.160918
-0.613932
-0.212563
-0.605205
-0.262132
-0.597419
-0.31133
-0.587091
-0.359283
-0.580798
-0.405215
-0.573139
-0.452225
-0.563478
-0.49946
-0.557686
-0.545166
-0.551473
-0.589714
-0.545666
-0.634161
-0.539679
-0.67915
-0.535189
-0.723622
-0.530609
-0.766969
-0.526395
-0.810479
-0.521259
-0.855507
-0.516645
-0.514043
-0.899433
-0.015976
-0.432595
-0.0665513
-0.569957
-0.121115
-0.571663
-0.173745
-0.561302
-0.226417
-0.552532
-0.277695
-0.546141
-0.32824
-0.536547
-0.379033
-0.530004
-0.426431
-0.525741
-0.472849
-0.51706
-0.52071
-0.509825
-0.568757
-0.503426
-0.616221
-0.498202
-0.663188
-0.492712
-0.709411
-0.488966
-0.754413
-0.485607
-0.799065
-0.481743
-0.841634
-0.47869
-0.884329
-0.47395
-0.470085
-0.928287
-0.0221331
-0.410461
-0.0744924
-0.517597
-0.129048
-0.517107
-0.180777
-0.509574
-0.232739
-0.50057
-0.283565
-0.495315
-0.333352
-0.486759
-0.385085
-0.478272
-0.435321
-0.475505
-0.481449
-0.470933
-0.526554
-0.46472
-0.572047
-0.457933
-0.617749
-0.4525
-0.663769
-0.446691
-0.711337
-0.441398
-0.758543
-0.438402
-0.804979
-0.435307
-0.851044
-0.432625
-0.894279
-0.430715
-0.426932
-0.937433
-0.0284661
-0.381995
-0.0817597
-0.464304
-0.137636
-0.461231
-0.192011
-0.455199
-0.244624
-0.447957
-0.296294
-0.443645
-0.344675
-0.438378
-0.394597
-0.428349
-0.447896
-0.422206
-0.50002
-0.418809
-0.549149
-0.415591
-0.596304
-0.410778
-0.642679
-0.406125
-0.687369
-0.402001
-0.732074
-0.396692
-0.778405
-0.392071
-0.824785
-0.388928
-0.871971
-0.385438
-0.918962
-0.383724
-0.381843
-0.964052
-0.0322337
-0.349762
-0.0880146
-0.408523
-0.14594
-0.403306
-0.20116
-0.399979
-0.257242
-0.391874
-0.31275
-0.388137
-0.363509
-0.387619
-0.409451
-0.382408
-0.455944
-0.375713
-0.50475
-0.370002
-0.554017
-0.366324
-0.602086
-0.362709
-0.649611
-0.358601
-0.696509
-0.355103
-0.74126
-0.351941
-0.785688
-0.347643
-0.830163
-0.344453
-0.874826
-0.340775
-0.92052
-0.33803
-0.335908
-0.966454
-0.0365962
-0.313165
-0.0908338
-0.354285
-0.148403
-0.345737
-0.203347
-0.345035
-0.257142
-0.338079
-0.314977
-0.330303
-0.374048
-0.328548
-0.429463
-0.326993
-0.480765
-0.324411
-0.530065
-0.320702
-0.579395
-0.316994
-0.628091
-0.314014
-0.675689
-0.311002
-0.723155
-0.307637
-0.769881
-0.305216
-0.815253
-0.302271
-0.859841
-0.299865
-0.903517
-0.297099
-0.946942
-0.294605
-0.292313
-0.990537
-0.0394505
-0.273715
-0.0911841
-0.302552
-0.148021
-0.2889
-0.204314
-0.288743
-0.255131
-0.287261
-0.305733
-0.279701
-0.358832
-0.275449
-0.414302
-0.271522
-0.469098
-0.269615
-0.522501
-0.267299
-0.574589
-0.264906
-0.626212
-0.262391
-0.677112
-0.260102
-0.72703
-0.257719
-0.77679
-0.255456
-0.825674
-0.253387
-0.87416
-0.251378
-0.921595
-0.249664
-0.968417
-0.247783
-0.246008
-1.01472
-0.0502083
-0.223507
-0.107673
-0.245087
-0.165255
-0.231317
-0.226401
-0.227598
-0.286073
-0.227589
-0.339983
-0.225791
-0.39174
-0.223692
-0.44286
-0.220402
-0.494131
-0.218345
-0.545451
-0.215978
-0.596145
-0.214213
-0.646199
-0.212337
-0.695869
-0.210431
-0.745007
-0.208581
-0.793781
-0.206682
-0.84216
-0.205008
-0.89028
-0.203258
-0.938076
-0.201868
-0.985477
-0.200383
-0.199015
-1.03247
-0.0590989
-0.164408
-0.124115
-0.180071
-0.177899
-0.177533
-0.230213
-0.175284
-0.284184
-0.173618
-0.337668
-0.172307
-0.390938
-0.170422
-0.442995
-0.168345
-0.495262
-0.166078
-0.546856
-0.164384
-0.598529
-0.16254
-0.649804
-0.161062
-0.700529
-0.159706
-0.75067
-0.15844
-0.800364
-0.156988
-0.8496
-0.155772
-0.898541
-0.154318
-0.947304
-0.153105
-0.995782
-0.151904
-0.150508
-1.04429
-0.0528527
-0.111555
-0.11519
-0.117734
-0.173934
-0.118788
-0.232123
-0.117095
-0.289586
-0.116155
-0.346756
-0.115137
-0.402326
-0.114852
-0.456434
-0.114237
-0.509123
-0.113389
-0.561196
-0.11231
-0.612372
-0.111365
-0.663516
-0.109918
-0.714246
-0.108977
-0.764721
-0.107965
-0.814474
-0.107235
-0.863736
-0.10651
-0.912168
-0.105885
-0.960172
-0.105102
-1.00761
-0.104462
-0.103291
-1.05483
-0.0580501
-0.0535049
-0.105922
-0.0698613
-0.15931
-0.0654003
-0.215391
-0.0610142
-0.272225
-0.0593209
-0.330066
-0.0572964
-0.387868
-0.0570503
-0.446384
-0.0557207
-0.503323
-0.0564495
-0.559418
-0.0562155
-0.614079
-0.0567041
-0.667165
-0.0568314
-0.719329
-0.0568129
-0.770403
-0.0568908
-0.820651
-0.0569874
-0.870351
-0.0568095
-0.919147
-0.0570893
-0.967581
-0.0566681
-1.01516
-0.0568851
-0.0563334
-1.06212
-0.0613128
0.00780782
-0.131252
7.83252e-05
-0.196983
0.000330219
-0.253318
-0.00467908
-0.309967
-0.0026721
-0.364249
-0.00301438
-0.418596
-0.00270276
-0.472015
-0.00230173
-0.524612
-0.00385263
-0.576922
-0.00390632
-0.628264
-0.00536136
-0.679628
-0.00546762
-0.730242
-0.00619834
-0.780575
-0.00655842
-0.830693
-0.00686981
-0.879938
-0.00756383
-0.929154
-0.00787361
-0.977132
-0.0086901
-1.02501
-0.0090039
-0.00997289
-1.07137
-0.0443548
0.0521627
-0.105266
0.0609892
-0.167778
0.062842
-0.229703
0.0572464
-0.289734
0.057359
-0.346962
0.0542131
-0.40376
0.0540958
-0.456394
0.0503324
-0.5102
0.0499529
-0.563037
0.0489312
-0.617026
0.0486271
-0.670512
0.0480182
-0.723794
0.0470837
-0.776313
0.0459609
-0.828127
0.044944
-0.878919
0.0432283
-0.929343
0.0425507
-0.978874
0.0408404
-1.028
0.0401271
0.0387149
-1.07669
-0.0503155
0.102478
-0.112233
0.122907
-0.173969
0.124578
-0.236485
0.119763
-0.294655
0.115529
-0.354126
0.113685
-0.411351
0.111321
-0.46855
0.107531
-0.52583
0.107232
-0.581487
0.104589
-0.635791
0.102931
-0.687513
0.0997399
-0.738645
0.0982159
-0.788371
0.0956873
-0.837591
0.0941637
-0.887087
0.0927244
-0.93604
0.091503
-0.985388
0.0901888
-1.03416
0.0888994
-1.08292
0.087473
0.0274827
-0.137772
0.110289
0.124249
-0.531099
0.434333
0.21954
-0.988993
0.893701
0.273081
-1.23125
1.17771
0.291408
-1.28854
1.27022
0.299415
-1.28971
1.2817
0.302486
-1.27953
1.27646
0.304805
-1.26563
1.26331
0.306373
-1.25397
1.2524
0.30844
-1.24402
1.24195
0.309259
-1.23403
1.23321
0.309381
-1.22443
1.2243
0.309419
-1.21576
1.21572
0.309319
-1.2068
1.2069
0.308673
-1.19823
1.19887
0.307055
-1.18799
1.1896
0.304689
-1.17886
1.18123
0.301634
-1.16695
1.17
0.297958
-1.15492
1.15859
-1.1403
0.29445
1.14381
0.0352217
-0.172993
0.125121
-0.620998
0.204795
-1.06867
0.241094
-1.26755
0.25157
-1.29902
0.255827
-1.29397
0.255674
-1.27938
0.255588
-1.26555
0.255609
-1.25399
0.254712
-1.24312
0.254057
-1.23337
0.253597
-1.22397
0.252428
-1.21459
0.250739
-1.20511
0.248501
-1.19599
0.246222
-1.18571
0.243293
-1.17593
0.23938
-1.16303
0.234806
-1.15034
-1.13689
0.231396
0.0408181
-0.213812
0.117475
-0.697655
0.179482
-1.13067
0.201412
-1.28948
0.207244
-1.30485
0.208512
-1.29523
0.208322
-1.27919
0.208134
-1.26536
0.206926
-1.25278
0.205744
-1.24194
0.204121
-1.23175
0.201373
-1.22122
0.198272
-1.21149
0.195319
-1.20215
0.192122
-1.19279
0.188329
-1.18191
0.183608
-1.17121
0.178325
-1.15775
0.173378
-1.14539
-1.13213
0.168614
0.038425
-0.252237
0.107215
-0.766445
0.156891
-1.18035
0.170791
-1.30338
0.1732
-1.30726
0.171151
-1.29318
0.168663
-1.2767
0.165814
-1.26251
0.162692
-1.24966
0.159111
-1.23836
0.154919
-1.22756
0.150703
-1.217
0.146326
-1.20711
0.141625
-1.19745
0.136312
-1.18748
0.130558
-1.17616
0.124529
-1.16518
0.118299
-1.15152
0.111712
-1.13881
-1.12584
0.105424
0.0328899
-0.285126
0.0886864
-0.822242
0.126372
-1.21804
0.133315
-1.31032
0.133029
-1.30697
0.129512
-1.28967
0.12614
-1.27333
0.121752
-1.25812
0.116888
-1.24479
0.111567
-1.23304
0.106364
-1.22236
0.100647
-1.21128
0.0943458
-1.20081
0.0879336
-1.19104
0.081386
-1.18093
0.0748844
-1.16966
0.0676626
-1.15796
0.0600414
-1.1439
0.0524834
-1.13125
-1.11866
0.0453062
0.0360351
-0.321162
0.0865335
-0.87274
0.110545
-1.24205
0.111424
-1.3112
0.106143
-1.30169
0.0994513
-1.28298
0.0928057
-1.26668
0.0864119
-1.25173
0.0791922
-1.23757
0.0719379
-1.22578
0.0640667
-1.21449
0.0558369
-1.20305
0.047747
-1.19272
0.0397373
-1.18303
0.0314841
-1.17268
0.0228276
-1.161
0.0142078
-1.14934
0.00557406
-1.13527
-0.00292614
-1.12275
-1.10947
-0.0121172
0.0283066
-0.349468
0.0686348
-0.913068
0.0840392
-1.25745
0.079547
-1.30671
0.0719091
-1.29405
0.0641433
-1.27521
0.0559503
-1.25849
0.0467426
-1.24252
0.0377124
-1.22854
0.0279747
-1.21604
0.0182557
-1.20477
0.00862577
-1.19343
-0.00149154
-1.1826
-0.0119124
-1.17261
-0.0224273
-1.16216
-0.0326584
-1.15077
-0.0432411
-1.13876
-0.0538992
-1.12461
-0.0649126
-1.11174
-1.09877
-0.0756181
0.0262985
-0.375767
0.0594916
-0.946261
0.0667117
-1.26467
0.0589819
-1.29898
0.0479549
-1.28303
0.0367993
-1.26405
0.0254154
-1.2471
0.0145536
-1.23166
0.00268955
-1.21668
-0.00903948
-1.20432
-0.0209301
-1.19288
-0.0332946
-1.18106
-0.0455845
-1.17031
-0.057606
-1.16059
-0.069548
-1.15022
-0.081531
-1.13879
-0.0936099
-1.12668
-0.105777
-1.11244
-0.117861
-1.09965
-1.08624
-0.130392
0.0220913
-0.397858
0.0485288
-0.972699
0.0489345
-1.26508
0.0365277
-1.28657
0.0226389
-1.26914
0.00914362
-1.25056
-0.00465209
-1.23331
-0.0189871
-1.21732
-0.0327784
-1.20289
-0.0472427
-1.18985
-0.0619262
-1.17819
-0.0761969
-1.16679
-0.0906868
-1.15582
-0.105439
-1.14584
-0.120044
-1.13562
-0.13428
-1.12455
-0.148275
-1.11268
-0.162348
-1.09837
-0.176924
-1.08508
-1.07156
-0.191602
0.0192762
-0.417134
0.0372692
-0.990692
0.0300483
-1.25786
0.0140804
-1.2706
-0.00259782
-1.25246
-0.0188811
-1.23428
-0.0349882
-1.2172
-0.0508322
-1.20148
-0.0674629
-1.18626
-0.0839717
-1.17334
-0.100438
-1.16173
-0.117248
-1.14998
-0.134152
-1.13892
-0.150984
-1.12901
-0.1678
-1.1188
-0.184359
-1.10799
-0.200932
-1.09611
-0.217376
-1.08192
-0.23399
-1.06846
-1.05474
-0.250805
0.0161971
-0.433331
0.0298603
-1.00436
0.0194911
-1.24749
0.000697359
-1.25181
-0.0188844
-1.23288
-0.038548
-1.21461
-0.0585359
-1.19721
-0.0782423
-1.18177
-0.0972887
-1.16721
-0.116737
-1.15389
-0.136353
-1.14211
-0.155536
-1.1308
-0.174563
-1.11989
-0.193609
-1.10996
-0.212417
-1.09999
-0.230946
-1.08947
-0.24891
-1.07814
-0.266837
-1.064
-0.285064
-1.05024
-1.03605
-0.303759
0.0133206
-0.446652
0.0193402
-1.01037
0.00162194
-1.22977
-0.0213179
-1.22887
-0.0438111
-1.21039
-0.0655658
-1.19286
-0.0868213
-1.17596
-0.108369
-1.16023
-0.129964
-1.14562
-0.151437
-1.13242
-0.172783
-1.12077
-0.194125
-1.10945
-0.215556
-1.09846
-0.236862
-1.08865
-0.257877
-1.07898
-0.278297
-1.06905
-0.298271
-1.05817
-0.317667
-1.0446
-0.33673
-1.03117
-1.01761
-0.355173
0.010874
-0.457526
0.0130743
-1.01258
-0.00679281
-1.2099
-0.0317178
-1.20394
-0.0572055
-1.1849
-0.082584
-1.16748
-0.107966
-1.15057
-0.132535
-1.13566
-0.156884
-1.12127
-0.181187
-1.10812
-0.205557
-1.0964
-0.229639
-1.08537
-0.253492
-1.07461
-0.277345
-1.0648
-0.30103
-1.05529
-0.324289
-1.04579
-0.346574
-1.03589
-0.368213
-1.02296
-0.389759
-1.00963
-0.995815
-0.41155
0.00809826
-0.465624
0.0050578
-1.00953
-0.0208684
-1.18398
-0.0495077
-1.17531
-0.0775238
-1.15688
-0.10496
-1.14004
-0.131965
-1.12357
-0.159424
-1.1082
-0.18607
-1.09462
-0.21265
-1.08154
-0.23892
-1.07013
-0.264716
-1.05958
-0.290381
-1.04894
-0.315896
-1.03928
-0.341152
-1.03003
-0.366066
-1.02087
-0.390219
-1.01173
-0.413507
-0.999673
-0.436071
-0.987063
-0.97359
-0.458295
0.00601689
-0.471641
-0.0004293
-1.00309
-0.0288042
-1.1556
-0.0598242
-1.14429
-0.090818
-1.12589
-0.121613
-1.10925
-0.151698
-1.09348
-0.181132
-1.07876
-0.210868
-1.06488
-0.240101
-1.0523
-0.26948
-1.04075
-0.298578
-1.03048
-0.327238
-1.02028
-0.355767
-1.01076
-0.384144
-1.00166
-0.412239
-0.992777
-0.439422
-0.984549
-0.465488
-0.973607
-0.490502
-0.962049
-0.948921
-0.515171
0.00320605
-0.474847
-0.0073572
-0.992525
-0.039119
-1.12384
-0.0731659
-1.11024
-0.106379
-1.09268
-0.139304
-1.07632
-0.171989
-1.0608
-0.204574
-1.04618
-0.236096
-1.03336
-0.267709
-1.02069
-0.299001
-1.00946
-0.329917
-0.999561
-0.360507
-0.989692
-0.390711
-0.98055
-0.420586
-0.971783
-0.450343
-0.963019
-0.479147
-0.955745
-0.506887
-0.945867
-0.53345
-0.935486
-0.922705
-0.559667
0.000624265
-0.475471
-0.0153819
-0.976519
-0.0500842
-1.08914
-0.0861838
-1.07414
-0.121656
-1.0572
-0.156807
-1.04117
-0.191096
-1.02651
-0.225384
-1.01189
-0.259827
-0.998918
-0.293564
-0.986955
-0.327323
-0.975697
-0.360889
-0.965996
-0.394247
-0.956334
-0.427518
-0.94728
-0.460495
-0.938807
-0.493821
-0.929693
-0.526595
-0.922971
-0.557814
-0.914649
-0.587184
-0.906115
-0.894259
-0.61563
-0.000290551
-0.475181
-0.0193274
-0.957482
-0.0553222
-1.05314
-0.093528
-1.03593
-0.131456
-1.01928
-0.169261
-1.00337
-0.206587
-0.989186
-0.243231
-0.975246
-0.279507
-0.962642
-0.315848
-0.950614
-0.352126
-0.939419
-0.387946
-0.930175
-0.423372
-0.920909
-0.458559
-0.912092
-0.493077
-0.904289
-0.52778
-0.89499
-0.562673
-0.888078
-0.596924
-0.880398
-0.630206
-0.872833
-0.862465
-0.662
-0.00287289
-0.472308
-0.0252846
-0.93507
-0.0659968
-1.01243
-0.10663
-0.9953
-0.146241
-0.979663
-0.185557
-0.964052
-0.224125
-0.950618
-0.262696
-0.936675
-0.30069
-0.924648
-0.338248
-0.913056
-0.375871
-0.901796
-0.413675
-0.89237
-0.451269
-0.883315
-0.489116
-0.874245
-0.526608
-0.866797
-0.564388
-0.857209
-0.602791
-0.849675
-0.640683
-0.842506
-0.678908
-0.834609
-0.826081
-0.715292
-0.00470144
-0.0303291
-0.0710117
-0.112883
-0.154257
-0.195739
-0.23653
-0.276593
-0.316854
-0.356382
-0.396172
-0.435668
-0.475041
-0.514713
-0.553801
-0.592835
-0.633153
-0.673931
-0.715623
-0.757786
0.238016
-9.90324
9.95967
0.203781
-9.36253
9.39677
0.180581
-9.31561
9.33881
0.158047
-8.98676
9.00929
0.143498
-8.94654
8.96109
0.131953
-8.75417
8.76572
0.124977
-8.72344
8.73042
0.119911
-8.59384
8.5989
0.118491
-8.58765
8.58907
0.109911
-8.50885
8.51743
0.103388
-8.46641
8.47294
0.0963612
-8.47825
8.48528
0.0838082
-8.46532
8.47787
0.0779441
-8.47097
8.47684
0.0679351
-8.48528
8.49529
0.060257
-8.41241
8.42009
0.0534258
-8.45759
8.46442
0.0337632
-7.52516
7.54482
0.0205809
-5.47017
5.48335
-2.27084
2.29143
0.170731
-9.84257
0.134487
-9.32629
0.110214
-9.29134
0.0887379
-8.96528
0.0772871
-8.93509
0.0689977
-8.74588
0.0650394
-8.71948
0.0638339
-8.59263
0.0657038
-8.58952
0.0616844
-8.50483
0.0608837
-8.46561
0.0577644
-8.47513
0.049464
-8.45702
0.0483356
-8.46984
0.0432455
-8.48019
0.041305
-8.41047
0.039438
-8.45572
0.0261677
-7.51189
0.0170312
-5.46103
-2.25381
0.102474
-9.77643
0.0634198
-9.28723
0.0381564
-9.26608
0.0185661
-8.94569
0.00918519
-8.92571
0.00517745
-8.74188
0.00514734
-8.71945
0.00788884
-8.59537
0.0131508
-8.59478
0.0145673
-8.50625
0.0191677
-8.47021
0.0202819
-8.47625
0.0178191
-8.45456
0.0210357
-8.47306
0.0198234
-8.47897
0.0226918
-8.41334
0.024802
-8.45783
0.0187825
-7.50587
0.0166696
-5.45892
-2.23714
0.0372278
-9.70823
-0.00388826
-9.24612
-0.0322103
-9.23775
-0.0500642
-8.92784
-0.0560276
-8.91975
-0.0570778
-8.74083
-0.0539
-8.72263
-0.0477036
-8.60157
-0.0395087
-8.60298
-0.0336257
-8.51213
-0.0237867
-8.48005
-0.0184874
-8.48155
-0.0158412
-8.4572
-0.00834714
-8.48055
-0.00480557
-8.48252
0.00404351
-8.42219
0.0109829
-8.46477
0.0111038
-7.50599
0.0124882
-5.4603
-2.22466
-0.0316115
-9.63132
-0.0767298
-9.201
-0.102332
-9.21215
-0.117758
-8.91242
-0.122108
-8.9154
-0.120485
-8.74245
-0.113131
-8.72999
-0.103211
-8.61149
-0.0916525
-8.61454
-0.080554
-8.52323
-0.065936
-8.49467
-0.0558928
-8.49159
-0.0473728
-8.46572
-0.0358975
-8.49203
-0.0283882
-8.49003
-0.0145034
-8.43607
-0.00317588
-8.4761
0.00367454
-7.51284
0.0114253
-5.46805
-2.21323
-0.0952763
-9.54816
-0.144936
-9.15134
-0.172211
-9.18488
-0.185992
-8.89863
-0.186606
-8.91478
-0.18141
-8.74764
-0.171124
-8.74027
-0.15845
-8.62416
-0.143923
-8.62906
-0.128605
-8.53855
-0.109462
-8.51381
-0.0944543
-8.5066
-0.0802974
-8.47988
-0.0647825
-8.50754
-0.0535298
-8.50128
-0.0340961
-8.45551
-0.0172788
-8.49292
-0.00391471
-7.52621
0.0072949
-5.47926
-2.20594
-0.159801
-9.46398
-0.212914
-9.09823
-0.238789
-9.159
-0.250919
-8.8865
-0.250145
-8.91556
-0.243264
-8.75453
-0.229467
-8.75407
-0.213376
-8.64026
-0.195134
-8.64731
-0.174956
-8.55872
-0.151491
-8.53728
-0.131432
-8.52666
-0.111886
-8.49942
-0.0923659
-8.52706
-0.076321
-8.51732
-0.0525375
-8.47929
-0.0316745
-8.51378
-0.01167
-7.54621
0.00556151
-5.49649
-2.20037
-0.223761
-9.37061
-0.280171
-9.04181
-0.306496
-9.13268
-0.317075
-8.87593
-0.313506
-8.91913
-0.303583
-8.76445
-0.28643
-8.77122
-0.267626
-8.65906
-0.246415
-8.66852
-0.222286
-8.58285
-0.194261
-8.5653
-0.16921
-8.55171
-0.145216
-8.52342
-0.121741
-8.55054
-0.100751
-8.53831
-0.071708
-8.50833
-0.0454273
-8.54006
-0.0190417
-7.5726
0.00150195
-5.51704
-2.19887
-0.286129
-9.27608
-0.34456
-8.98338
-0.370939
-9.1063
-0.380495
-8.86637
-0.375162
-8.92446
-0.363388
-8.77622
-0.343635
-8.79098
-0.321308
-8.68139
-0.296076
-8.69375
-0.267849
-8.61108
-0.23555
-8.5976
-0.205281
-8.58198
-0.176509
-8.55219
-0.148473
-8.57858
-0.122004
-8.56478
-0.0895297
-8.54081
-0.0593481
-8.57024
-0.0265993
-7.60534
-0.000578326
-5.54306
-2.19945
-0.34581
-9.18107
-0.407419
-8.92177
-0.434036
-9.07968
-0.443426
-8.85698
-0.436546
-8.93134
-0.422183
-8.79059
-0.399254
-8.8139
-0.374037
-8.7066
-0.345922
-8.72186
-0.313786
-8.64322
-0.277
-8.63439
-0.242617
-8.61636
-0.209926
-8.58488
-0.177414
-8.61109
-0.145092
-8.5971
-0.108054
-8.57785
-0.0730615
-8.60523
-0.0339397
-7.64447
-0.0031917
-5.5738
-2.20264
-0.412488
-9.07235
-0.47096
-8.8633
-0.496687
-9.05396
-0.505084
-8.84858
-0.496555
-8.93987
-0.480021
-8.80712
-0.454417
-8.83951
-0.42546
-8.73556
-0.39348
-8.75384
-0.357531
-8.67917
-0.316606
-8.67531
-0.277412
-8.65555
-0.239823
-8.62247
-0.202823
-8.64809
-0.165771
-8.63416
-0.125778
-8.61784
-0.0869213
-8.64409
-0.0414925
-7.6899
-0.00562542
-5.60967
-2.20827
-0.46629
-8.96123
-0.531506
-8.79809
-0.556682
-9.02878
-0.565581
-8.83968
-0.555832
-8.94962
-0.536888
-8.82606
-0.508735
-8.86766
-0.47711
-8.76719
-0.442127
-8.78883
-0.402027
-8.71927
-0.357169
-8.72017
-0.314064
-8.69866
-0.271985
-8.66455
-0.230512
-8.68956
-0.188204
-8.67646
-0.144039
-8.662
-0.100529
-8.6876
-0.0485504
-7.74187
-0.00732998
-5.65089
-2.2156
-0.527595
-8.84518
-0.590362
-8.73532
-0.616171
-9.00297
-0.624604
-8.83125
-0.61366
-8.96056
-0.591911
-8.84781
-0.560618
-8.89895
-0.525661
-8.80214
-0.487328
-8.82716
-0.443657
-8.76294
-0.395013
-8.76882
-0.347691
-8.74598
-0.300849
-8.71139
-0.255024
-8.73539
-0.208487
-8.723
-0.161415
-8.70908
-0.11366
-8.73536
-0.05547
-7.80006
-0.00896587
-5.6974
-2.22456
-0.58184
-8.72164
-0.649702
-8.66746
-0.674198
-8.97847
-0.6825
-8.82295
-0.670586
-8.97247
-0.64688
-8.87152
-0.613369
-8.93246
-0.575678
-8.83984
-0.534072
-8.86876
-0.486598
-8.81041
-0.434587
-8.82083
-0.383623
-8.79695
-0.332439
-8.76257
-0.282052
-8.78577
-0.230728
-8.77432
-0.179443
-8.76036
-0.126955
-8.78785
-0.0625994
-7.86442
-0.0105604
-5.74944
-2.23512
-0.638122
-8.59869
-0.705253
-8.60033
-0.730472
-8.95326
-0.738286
-8.81514
-0.725203
-8.98556
-0.698494
-8.89823
-0.661947
-8.96901
-0.621104
-8.88068
-0.576512
-8.91336
-0.5263
-8.86062
-0.471016
-8.87611
-0.416245
-8.85172
-0.360851
-8.81797
-0.306041
-8.84058
-0.250833
-8.82953
-0.196547
-8.81465
-0.139925
-8.84447
-0.0698827
-7.93446
-0.0123514
-5.80697
-2.24748
-0.691354
-8.467
-0.763201
-8.52848
-0.786942
-8.92951
-0.793308
-8.80877
-0.779405
-8.99946
-0.750965
-8.92667
-0.712041
-9.00793
-0.66834
-8.92438
-0.620824
-8.96087
-0.567561
-8.91389
-0.509279
-8.93439
-0.450894
-8.9101
-0.39135
-8.87751
-0.332341
-8.89959
-0.272682
-8.88919
-0.214006
-8.87332
-0.152811
-8.90566
-0.0772426
-8.01003
-0.0138029
-5.87041
-2.26128
-0.743492
-8.33914
-0.81513
-8.45684
-0.839186
-8.90546
-0.844505
-8.80345
-0.829514
-9.01445
-0.799003
-8.95718
-0.75762
-9.04932
-0.710713
-8.97129
-0.660338
-9.01125
-0.604704
-8.96952
-0.543665
-8.99543
-0.481801
-8.97196
-0.418222
-8.94109
-0.355482
-8.96233
-0.292579
-8.95209
-0.23057
-8.93533
-0.165317
-8.97092
-0.0847212
-8.09062
-0.0156626
-5.93946
-2.27694
-0.799443
-8.2017
-0.873442
-8.38284
-0.894376
-8.88452
-0.896112
-8.80171
-0.879483
-9.03108
-0.847278
-8.98938
-0.804058
-9.09254
-0.754834
-9.02051
-0.701822
-9.06426
-0.643441
-9.0279
-0.579901
-9.05897
-0.514708
-9.03716
-0.447226
-9.00857
-0.380812
-9.02875
-0.313515
-9.01939
-0.246853
-9.00199
-0.17818
-9.03959
-0.0918398
-8.17696
-0.0154939
-6.01581
-2.29243
-0.846627
-8.07036
-0.925078
-8.30439
-0.946362
-8.86324
-0.947038
-8.80104
-0.927681
-9.05044
-0.893401
-9.02366
-0.847564
-9.13837
-0.794858
-9.07322
-0.738773
-9.12034
-0.678146
-9.08853
-0.612249
-9.12487
-0.544233
-9.10517
-0.473248
-9.07956
-0.403603
-9.09839
-0.333144
-9.08985
-0.262784
-9.07235
-0.1907
-9.11167
-0.101205
-8.26646
-0.0184661
-6.09855
-2.3109
-0.887633
-7.94051
-0.969742
-8.22228
-0.99371
-8.83927
-0.989505
-8.80524
-0.969313
-9.07063
-0.934469
-9.05851
-0.889029
-9.18381
-0.834895
-9.12735
-0.776501
-9.17874
-0.713612
-9.15142
-0.645955
-9.19253
-0.574723
-9.17641
-0.500385
-9.1539
-0.42718
-9.1716
-0.354445
-9.16258
-0.280351
-9.14645
-0.201061
-9.19096
-0.106367
-8.36115
-0.0171624
-6.18775
-2.32806
6.18545
-7.45061
-6.67535
5.59494
-7.63178
4.85611
-8.10045
4.26097
-8.2101
3.69951
-8.50916
3.2181
-8.5771
2.75877
-8.72448
2.37849
-8.74708
2.04742
-8.84766
1.76479
-8.86879
1.50089
-8.92863
1.26527
-8.94079
1.09544
-8.98406
0.922943
-8.9991
0.768023
-9.00766
0.613756
-8.99218
0.428718
-9.00592
0.286041
-8.21848
0.178326
-6.08004
-2.14974
3.30055
-7.33389
-3.41727
3.16854
-7.49976
2.8999
-7.8318
2.68088
-7.99108
2.40336
-8.23165
2.16148
-8.33522
1.89594
-8.45894
1.67894
-8.53008
1.45277
-8.62148
1.26053
-8.67655
1.07361
-8.74171
0.921537
-8.78872
0.78159
-8.84412
0.645713
-8.86322
0.539881
-8.90183
0.44627
-8.89857
0.314123
-8.87378
0.219688
-8.12404
-0.0262748
-5.83408
-2.17601
2.01308
-7.41677
-1.93019
2.1098
-7.59649
2.07881
-7.80082
2.02022
-7.93249
1.87557
-8.08699
1.74137
-8.20102
1.59149
-8.30907
1.44745
-8.38604
1.29508
-8.46911
1.15194
-8.5334
1.00687
-8.59664
0.869743
-8.65159
0.721262
-8.69564
0.592154
-8.73412
0.469852
-8.77953
0.378131
-8.80685
0.290993
-8.78664
0.205803
-8.03885
0.0449599
-5.67323
-2.13105
1.07332
-7.58417
-0.905927
1.18342
-7.70659
1.19984
-7.81724
1.20797
-7.94062
1.15891
-8.03793
1.08793
-8.13005
1.00697
-8.2281
0.916722
-8.29579
0.820143
-8.37254
0.723457
-8.43672
0.625868
-8.49905
0.52592
-8.55164
0.435886
-8.6056
0.357722
-8.65595
0.284116
-8.70592
0.227703
-8.75044
0.144298
-8.70323
0.116804
-8.01136
0.0785654
-5.63499
-2.05249
0.506251
-7.72173
-0.368691
0.602948
-7.80329
0.667022
-7.88131
0.7167
-7.99029
0.731584
-8.05281
0.715021
-8.11348
0.674655
-8.18774
0.632319
-8.25346
0.571599
-8.31182
0.507971
-8.37309
0.433411
-8.42449
0.360278
-8.47851
0.284569
-8.52989
0.20496
-8.57634
0.125268
-8.62623
0.0451656
-8.67033
-0.0248289
-8.63324
-0.00877156
-8.02742
0.0357328
-5.6795
-2.01675
0.127649
-7.8472
-0.00217627
0.23107
-7.90671
0.300108
-7.95035
0.317766
-8.00795
0.321212
-8.05626
0.315184
-8.10746
0.290632
-8.16319
0.261365
-8.22419
0.229271
-8.27972
0.187161
-8.33098
0.144126
-8.38146
0.0945205
-8.4289
0.037057
-8.47243
-0.0229418
-8.51634
-0.0954859
-8.55369
-0.16211
-8.60371
-0.207375
-8.58798
-0.153968
-8.08082
-0.00107836
-5.83239
-2.01783
-0.114723
-7.92866
0.196183
-0.0550234
-7.96641
-0.0114466
-7.99393
0.0220547
-8.04145
0.0526729
-8.08688
0.0722523
-8.12703
0.0742965
-8.16523
0.0612249
-8.21112
0.0335574
-8.25205
-0.000143617
-8.29728
-0.0411487
-8.34045
-0.0913712
-8.37868
-0.145639
-8.41816
-0.200863
-8.46112
-0.254752
-8.4998
-0.314208
-8.54425
-0.359945
-8.54224
-0.295447
-8.14532
-0.0655307
-6.0623
-2.08336
-0.278604
-7.99658
0.346524
-0.222984
-8.02203
-0.175061
-8.04185
-0.14523
-8.07128
-0.134063
-8.09804
-0.132828
-8.12827
-0.141155
-8.1569
-0.15424
-8.19803
-0.17215
-8.23414
-0.200477
-8.26895
-0.234872
-8.30606
-0.270387
-8.34317
-0.309328
-8.37922
-0.355354
-8.41509
-0.410374
-8.44478
-0.466103
-8.48852
-0.508634
-8.49971
-0.451328
-8.20263
-0.157039
-6.35659
-2.2404
-0.371692
-8.03303
0.408145
-0.343663
-8.05006
-0.322542
-8.06297
-0.311191
-8.08264
-0.303015
-8.10622
-0.298384
-8.1329
-0.296553
-8.15873
-0.304933
-8.18965
-0.319329
-8.21975
-0.342644
-8.24564
-0.37105
-8.27765
-0.405753
-8.30846
-0.446962
-8.33801
-0.490923
-8.37113
-0.537492
-8.39821
-0.583876
-8.44214
-0.618513
-8.46507
-0.557025
-8.26411
-0.250993
-6.66262
-2.4914
-0.43957
-8.05707
0.463606
-0.420579
-8.06905
-0.403393
-8.08016
-0.391482
-8.09455
-0.385343
-8.11236
-0.38694
-8.13131
-0.394281
-8.15139
-0.411753
-8.17218
-0.438742
-8.19276
-0.466668
-8.21771
-0.502639
-8.24168
-0.541889
-8.26921
-0.58918
-8.29072
-0.636072
-8.32424
-0.683395
-8.35089
-0.734482
-8.39105
-0.771546
-8.42801
-0.724531
-8.31113
-0.399302
-6.98785
-2.8907
-0.465191
-8.06809
0.476218
-0.458335
-8.07591
-0.453227
-8.08526
-0.452318
-8.09546
-0.455878
-8.1088
-0.464698
-8.12249
-0.478544
-8.13755
-0.497053
-8.15367
-0.516852
-8.17296
-0.543292
-8.19127
-0.575493
-8.20948
-0.614508
-8.2302
-0.659309
-8.24592
-0.717356
-8.26619
-0.779774
-8.28847
-0.853965
-8.31686
-0.913033
-8.36894
-0.90475
-8.31941
-0.593147
-7.29946
-3.48384
-0.473965
-8.07384
0.479714
-0.472015
-8.07786
-0.472445
-8.08483
-0.475179
-8.09272
-0.481044
-8.10293
-0.491283
-8.11225
-0.50496
-8.12387
-0.524743
-8.13389
-0.551441
-8.14626
-0.583938
-8.15877
-0.620963
-8.17246
-0.664588
-8.18657
-0.711547
-8.19896
-0.768367
-8.20937
-0.836997
-8.21984
-0.931591
-8.22227
-1.03918
-8.26135
-1.0802
-8.2784
-0.846153
-7.5335
-4.33
-0.453941
-8.07072
0.450814
-0.459001
-8.0728
-0.46568
-8.07816
-0.475545
-8.08286
-0.487725
-8.09075
-0.503237
-8.09674
-0.521744
-8.10536
-0.542908
-8.11272
-0.567062
-8.12211
-0.595391
-8.13044
-0.627383
-8.14046
-0.666637
-8.14732
-0.709981
-8.15562
-0.763077
-8.15628
-0.825577
-8.15734
-0.905669
-8.14218
-1.02377
-8.14325
-1.12962
-8.17255
-0.948245
-7.71487
-5.27824
-0.396961
-8.06219
0.388433
-0.405429
-8.06433
-0.414708
-8.06888
-0.425642
-8.07192
-0.43856
-8.07783
-0.452923
-8.08237
-0.468752
-8.08953
-0.489199
-8.09228
-0.510883
-8.10042
-0.53929
-8.10204
-0.568967
-8.11079
-0.606839
-8.10945
-0.644767
-8.11769
-0.690243
-8.1108
-0.732127
-8.11546
-0.778649
-8.09565
-0.849796
-8.0721
-0.973484
-8.04886
-0.85061
-7.83775
-6.12885
-0.325864
-8.05425
0.31793
-0.334922
-8.05527
-0.345909
-8.05789
-0.35832
-8.05951
-0.373184
-8.06297
-0.390441
-8.06512
-0.410087
-8.06989
-0.430787
-8.07158
-0.454568
-8.07664
-0.480689
-8.07592
-0.509507
-8.08197
-0.541682
-8.07727
-0.575553
-8.08382
-0.611966
-8.07439
-0.646553
-8.08087
-0.684452
-8.05776
-0.703733
-8.05282
-0.772971
-7.97962
-0.709465
-7.90125
-6.83832
-0.241996
-8.04357
0.231317
-0.252839
-8.04443
-0.263763
-8.04697
-0.274788
-8.04849
-0.286366
-8.05139
-0.299449
-8.05203
-0.315143
-8.05419
-0.332056
-8.05466
-0.351717
-8.05698
-0.371463
-8.05617
-0.394377
-8.05906
-0.416548
-8.0551
-0.44312
-8.05724
-0.468721
-8.04879
-0.494937
-8.05465
-0.524972
-8.02772
-0.542173
-8.03562
-0.553564
-7.96823
-0.513217
-7.9416
-7.35153
-0.164031
-8.03412
0.154573
-0.173503
-8.03496
-0.18465
-8.03582
-0.197111
-8.03603
-0.211139
-8.03736
-0.225421
-8.03775