/*--------------------------------*- C++ -*----------------------------------*\
  =========                 |
  \\      /  F ield         | OpenFOAM: The Open Source CFD Toolbox
   \\    /   O peration     | Website:  https://openfoam.org
    \\  /    A nd           | Version:  9
     \\/     M anipulation  |
\*---------------------------------------------------------------------------*/
FoamFile
{
    format      ascii;
    class       volVectorField;
    location    "16";
    object      U;
}
// * * * * * * * * * * * * * * * * * * * * * * * * * * * * * * * * * * * * * //

dimensions      [0 1 -1 0 0 0 0];

internalField   nonuniform List<vector> 
46400
(
(8.4142 -8.00918 -5.32996e-20)
(16.0145 -15.6519 9.36909e-21)
(16.6883 -16.9495 -3.35945e-20)
(15.9084 -17.0449 -4.99879e-20)
(15.3639 -17.1054 -2.60263e-20)
(14.7507 -17.1772 1.34847e-19)
(14.2296 -17.2646 -9.33905e-20)
(13.7192 -17.3479 4.03768e-20)
(13.2267 -17.4244 -4.37558e-20)
(12.7733 -17.4983 4.66869e-20)
(12.3284 -17.5795 -4.91973e-20)
(11.9326 -17.6593 0)
(11.5437 -17.7576 3.20273e-19)
(11.1895 -17.8247 -3.67612e-19)
(10.8503 -17.9472 -4.57904e-19)
(10.4988 -17.9811 -7.55895e-20)
(10.1192 -18.0056 -1.7543e-20)
(9.79343 -18.0319 3.59449e-19)
(9.49556 -18.0287 4.93153e-19)
(9.05813 -18.2261 -4.48135e-19)
(8.61622 -7.53123 0)
(15.9843 -14.5361 -2.25884e-20)
(16.4139 -15.5598 0)
(15.7189 -15.7401 1.61317e-19)
(15.1662 -15.855 -1.38383e-19)
(14.5604 -15.9743 3.18384e-20)
(14.0246 -16.103 0)
(13.5109 -16.2026 -4.03755e-20)
(13.0128 -16.3334 4.37548e-20)
(12.5789 -16.4416 -4.66858e-20)
(12.1136 -16.5497 5.22648e-19)
(11.711 -16.6535 2.06344e-20)
(11.3395 -16.8083 -4.25495e-19)
(10.9294 -16.856 0)
(10.5897 -16.9871 5.61631e-20)
(10.2787 -17.0983 5.73869e-20)
(9.96322 -17.1975 0)
(9.68106 -17.2713 -5.41728e-19)
(9.42805 -17.324 -1.37284e-19)
(9.06059 -17.5299 5.41141e-19)
(8.85009 -7.04803 9.92847e-20)
(15.8093 -13.2364 -1.97963e-19)
(16.1999 -14.2868 1.8136e-19)
(15.4152 -14.4176 2.32111e-19)
(14.8365 -14.5747 -2.27881e-19)
(14.2501 -14.7261 0)
(13.7244 -14.9113 -6.25807e-19)
(13.2362 -15.0655 5.39606e-19)
(12.7431 -15.2149 -6.6333e-19)
(12.3117 -15.3714 6.54831e-19)
(11.8619 -15.4902 6.04507e-19)
(11.463 -15.6257 -6.6178e-20)
(11.0988 -15.7877 -5.18395e-19)
(10.7644 -15.931 0)
(10.4285 -16.0735 6.23559e-19)
(10.1091 -16.1965 -6.14079e-19)
(9.77608 -16.2966 0)
(9.47471 -16.3749 -1.18897e-20)
(9.21995 -16.4722 7.09111e-20)
(8.85263 -16.7161 -6.40517e-19)
(9.17361 -6.65501 -2.00586e-19)
(15.4895 -11.9722 5.41533e-20)
(15.6463 -12.8407 3.07047e-19)
(14.9706 -13.1224 -3.02465e-19)
(14.4292 -13.3652 -2.43536e-19)
(13.8381 -13.5563 3.30073e-19)
(13.3077 -13.7737 4.29783e-19)
(12.8291 -13.973 -1.0642e-18)
(12.3371 -14.1651 8.836e-19)
(11.9341 -14.3629 -8.16742e-20)
(11.5038 -14.5466 0)
(11.0941 -14.6676 8.32485e-20)
(10.7565 -14.9006 -8.36805e-20)
(10.37 -15.0012 0)
(10.0409 -15.1783 7.2954e-19)
(9.76997 -15.3702 -6.2188e-19)
(9.48416 -15.5636 0)
(9.20068 -15.6752 8.33686e-20)
(8.95516 -15.7938 9.32447e-20)
(8.61038 -16.0723 7.3114e-19)
(9.47721 -6.2581 0)
(15.0341 -10.7305 0)
(15.1802 -11.5709 -4.00871e-19)
(14.4458 -11.8118 2.82636e-19)
(13.8832 -12.1117 -5.12507e-19)
(13.3582 -12.3583 4.12454e-19)
(12.8256 -12.6248 0)
(12.3833 -12.8623 4.30119e-19)
(11.9058 -13.0963 -5.2092e-19)
(11.5027 -13.3218 -1.14711e-19)
(11.1019 -13.5615 -1.141e-19)
(10.6904 -13.7118 0)
(10.3455 -13.9316 8.46943e-19)
(10.0539 -14.1652 -8.33687e-19)
(9.69283 -14.2915 0)
(9.36739 -14.431 -9.21349e-19)
(9.10422 -14.6371 8.12431e-19)
(8.83839 -14.8173 8.07531e-19)
(8.59117 -14.9374 -8.82813e-19)
(8.25507 -15.2418 0)
(9.79164 -5.86476 0)
(14.4496 -9.59904 0)
(14.3517 -10.265 0)
(13.7402 -10.6152 -2.12778e-20)
(13.2362 -10.9876 0)
(12.7158 -11.2673 0)
(12.2097 -11.566 0)
(11.7812 -11.85 -1.3236e-19)
(11.3148 -12.0981 0)
(10.9187 -12.3561 1.14709e-19)
(10.56 -12.6461 -1.47179e-20)
(10.1791 -12.8579 -1.09431e-18)
(9.82453 -13.0778 8.25817e-19)
(9.5139 -13.3168 -1.06879e-18)
(9.25452 -13.5955 8.07705e-19)
(8.95203 -13.7733 0)
(8.6442 -13.9509 -9.0771e-19)
(8.40136 -14.1563 7.77167e-19)
(8.1837 -14.3274 0)
(7.84811 -14.6245 -1.19127e-19)
(9.92224 -5.54927 5.15973e-19)
(13.7227 -8.44723 1.52996e-19)
(13.5859 -9.15069 5.80245e-19)
(13.0317 -9.47183 -5.8957e-19)
(12.4929 -9.88562 -5.77804e-19)
(12.0624 -10.2159 1.14182e-18)
(11.5608 -10.5373 -1.28414e-18)
(11.1782 -10.8559 1.27952e-19)
(10.7514 -11.139 4.0814e-19)
(10.3464 -11.3664 0)
(10.005 -11.6854 -1.38717e-20)
(9.65501 -11.9241 -1.32417e-20)
(9.31396 -12.172 1.25771e-19)
(8.99516 -12.3756 1.0308e-18)
(8.7008 -12.6218 -9.0437e-19)
(8.45241 -12.8525 -1.14255e-18)
(8.19384 -13.0879 9.95672e-19)
(7.91504 -13.256 -1.01795e-20)
(7.72061 -13.4608 -1.25251e-19)
(7.44037 -13.8092 -8.80755e-19)
(9.81112 -5.10191 -1.57776e-19)
(12.9308 -7.44695 2.02478e-20)
(12.645 -8.07968 -1.73264e-19)
(12.1024 -8.45024 -6.74263e-19)
(11.6605 -8.89959 4.73761e-19)
(11.2406 -9.28831 0)
(10.775 -9.63925 9.50752e-19)
(10.4141 -10.0054 -4.60305e-19)
(10.0431 -10.3644 3.0766e-19)
(9.63905 -10.5948 1.58375e-19)
(9.29693 -10.9047 -2.99411e-19)
(8.99347 -11.199 7.28711e-19)
(8.69488 -11.5006 1.50303e-19)
(8.40948 -11.7662 -8.51661e-19)
(8.15208 -12.0479 2.37809e-18)
(7.88064 -12.2801 -9.66587e-19)
(7.63374 -12.5174 1.2148e-18)
(7.39867 -12.7428 -7.95249e-19)
(7.14489 -12.8687 2.59726e-19)
(6.89236 -13.2082 1.21752e-18)
(9.54092 -4.57474 8.31304e-19)
(11.9875 -6.42755 -1.73439e-19)
(11.7059 -7.09769 -1.78706e-20)
(11.2735 -7.5007 3.60734e-19)
(10.7739 -7.93018 1.7015e-19)
(10.425 -8.34599 1.83461e-19)
(9.98281 -8.71768 -8.60242e-19)
(9.6112 -9.06683 5.18822e-19)
(9.33027 -9.51647 -1.60993e-19)
(8.97984 -9.80962 -1.58379e-19)
(8.61857 -10.0827 -1.55731e-19)
(8.28396 -10.3336 -1.64529e-19)
(7.98969 -10.6176 -3.11607e-19)
(7.70082 -10.8711 1.07482e-18)
(7.45639 -11.1591 -1.50328e-18)
(7.26233 -11.4682 -1.51789e-19)
(7.03565 -11.7335 9.20807e-21)
(6.84459 -12.0079 -1.12117e-18)
(6.65718 -12.2257 8.36169e-19)
(6.37996 -12.4976 -1.29055e-18)
(9.09414 -4.00418 7.5099e-19)
(10.9945 -5.51328 -1.81682e-18)
(10.6498 -6.1418 1.1947e-18)
(10.2602 -6.62401 -1.88841e-19)
(9.84302 -7.10905 -2.01077e-19)
(9.51118 -7.54562 7.77748e-19)
(9.12206 -7.95785 -9.44198e-19)
(8.72778 -8.25837 0)
(8.44267 -8.70744 7.21603e-19)
(8.21194 -9.13152 -7.09545e-19)
(7.93113 -9.51272 -5.13954e-19)
(7.64046 -9.81256 6.71055e-19)
(7.36566 -10.1189 1.61297e-19)
(7.09657 -10.3863 -6.50542e-19)
(6.80909 -10.6233 1.58537e-19)
(6.57625 -10.885 7.78968e-19)
(6.37793 -11.1734 -1.36926e-18)
(6.17638 -11.4313 9.02942e-19)
(6.03164 -11.7078 -7.84177e-21)
(5.82609 -12.035 -1.21727e-18)
(8.51231 -3.41563 1.0293e-18)
(9.93877 -4.63268 -6.56134e-19)
(9.57279 -5.32065 4.31687e-19)
(9.23095 -5.81272 1.50608e-21)
(8.83265 -6.35017 -8.45052e-19)
(8.54162 -6.85048 -8.03021e-19)
(8.2619 -7.36418 9.95578e-19)
(7.86113 -7.67031 -5.81675e-19)
(7.49273 -7.99271 7.7026e-19)
(7.21977 -8.33517 0)
(7.00025 -8.73411 1.01074e-20)
(6.76276 -9.07429 1.75159e-19)
(6.51984 -9.40404 1.80685e-19)
(6.321 -9.72354 -1.76623e-19)
(6.0989 -10.0198 0)
(5.87252 -10.2606 1.68765e-19)
(5.66675 -10.5351 0)
(5.47337 -10.7729 3.15141e-19)
(5.30744 -11.0182 1.53873e-18)
(5.13581 -11.3482 -1.13397e-20)
(7.80074 -2.8516 5.57182e-19)
(8.69936 -3.80862 -1.15109e-19)
(8.30018 -4.44018 -1.61221e-18)
(8.07008 -5.02166 9.01112e-19)
(7.65966 -5.5062 2.1456e-19)
(7.38016 -6.01583 -2.10382e-19)
(7.21874 -6.62789 -8.46508e-19)
(7.03465 -7.16301 6.30107e-19)
(6.76867 -7.60527 0)
(6.47937 -7.97269 0)
(6.22424 -8.34043 -9.61623e-19)
(6.01184 -8.70511 7.60109e-19)
(5.79238 -9.04257 -1.80687e-19)
(5.57351 -9.35434 -5.43441e-19)
(5.39916 -9.68024 5.61328e-21)
(5.20524 -9.96017 1.21097e-18)
(5.03723 -10.2404 -6.76788e-19)
(4.85554 -10.4887 4.94699e-19)
(4.70094 -10.7196 -8.04168e-19)
(4.53402 -11.0013 0)
(6.99964 -2.33497 -4.75288e-19)
(7.69621 -3.13481 7.33009e-19)
(7.24587 -3.72609 1.23499e-19)
(7.04879 -4.33786 1.20991e-19)
(6.75621 -4.88249 0)
(6.33338 -5.2679 9.06019e-19)
(6.04187 -5.74924 -8.89995e-19)
(5.80974 -6.22691 1.1068e-19)
(5.62137 -6.74588 0)
(5.44649 -7.19497 8.26711e-19)
(5.24039 -7.63549 -7.10061e-19)
(5.04992 -8.02279 7.88171e-19)
(4.86842 -8.42664 -7.75631e-19)
(4.69437 -8.77779 7.51016e-19)
(4.51931 -9.13418 -6.45892e-19)
(4.36109 -9.4629 -7.15464e-19)
(4.20774 -9.7844 1.40308e-18)
(4.06553 -10.0897 -6.01071e-19)
(3.92834 -10.3575 8.49167e-20)
(3.7803 -10.6783 6.93509e-19)
(6.00085 -1.85923 -3.78231e-19)
(6.35089 -2.65517 3.88585e-19)
(5.76853 -3.23005 -1.23489e-19)
(5.61394 -3.85355 -1.20971e-19)
(5.48294 -4.56133 0)
(5.26007 -5.09282 0)
(5.06177 -5.59203 0)
(4.83526 -6.0375 -2.25326e-19)
(4.65646 -6.48904 -8.77723e-19)
(4.46725 -6.91527 1.71946e-18)
(4.30789 -7.33925 -9.45431e-19)
(4.14942 -7.73003 -1.03922e-19)
(3.99148 -8.11117 0)
(3.84146 -8.46978 0)
(3.69982 -8.81774 -1.90005e-19)
(3.56335 -9.14911 0)
(3.43024 -9.46835 7.20522e-19)
(3.30776 -9.78009 -8.86404e-19)
(3.19146 -10.0573 -7.7084e-19)
(3.06249 -10.3873 7.23221e-19)
(4.74149 -1.36838 3.94387e-19)
(5.0888 -2.29901 6.67247e-19)
(4.66564 -2.9518 -1.27116e-21)
(4.36504 -3.41357 -1.84657e-21)
(4.17414 -4.01657 1.24474e-19)
(4.04809 -4.52827 -3.65883e-19)
(3.88124 -5.07316 0)
(3.71521 -5.53805 -3.49462e-19)
(3.56065 -6.01697 1.18379e-19)
(3.41667 -6.45957 4.45249e-19)
(3.27761 -6.89288 4.3084e-19)
(3.14476 -7.30969 -3.19948e-19)
(3.01755 -7.70718 8.19473e-19)
(2.89534 -8.08797 -7.05188e-19)
(2.77058 -8.44742 8.75719e-19)
(2.65883 -8.79718 -1.62382e-18)
(2.54775 -9.12785 7.48547e-19)
(2.44709 -9.45612 8.95574e-20)
(2.35348 -9.74437 7.0489e-19)
(2.24975 -10.0953 -7.43492e-19)
(3.17484 -0.821665 1.36653e-19)
(3.27089 -1.66572 -1.35287e-19)
(3.29512 -2.37802 5.37126e-19)
(3.26162 -3.04313 -5.27174e-19)
(3.13157 -3.66122 -2.56331e-19)
(2.9797 -4.24506 -6.23635e-19)
(2.83704 -4.80475 3.52802e-21)
(2.70786 -5.3194 4.79185e-19)
(2.55972 -5.80141 -1.15009e-19)
(2.44196 -6.25687 0)
(2.31584 -6.69156 0)
(2.20934 -7.10432 0)
(2.10739 -7.50975 0)
(2.0125 -7.89254 2.0301e-21)
(1.91608 -8.26543 0)
(1.82567 -8.61162 9.64867e-20)
(1.72714 -8.95171 3.78599e-19)
(1.63601 -9.26441 -1.11204e-18)
(1.55091 -9.55338 8.19614e-19)
(1.44458 -9.88084 -7.50984e-19)
(2.2724 -0.743915 0)
(2.24913 -1.33195 -7.05094e-20)
(2.07298 -1.89879 0)
(1.80998 -2.49901 1.99643e-19)
(1.68801 -3.11764 -1.32553e-19)
(1.59376 -3.70066 -5.09312e-19)
(1.53034 -4.31106 3.40145e-21)
(1.45462 -4.8529 4.88331e-19)
(1.38827 -5.43626 -4.72534e-19)
(1.30225 -5.90593 9.25263e-19)
(1.22855 -6.43184 -4.12107e-21)
(1.13184 -6.83804 -4.4169e-19)
(1.05061 -7.2984 4.26418e-19)
(0.977295 -7.66164 -5.23216e-19)
(0.914253 -8.07554 0)
(0.863521 -8.4014 -3.94966e-19)
(0.818168 -8.78413 3.8906e-19)
(0.775997 -9.07829 0)
(0.733539 -9.40333 -9.13832e-20)
(0.681781 -9.71708 0)
(0.181323 -0.530899 3.88486e-20)
(0.927444 -1.16175 5.86117e-20)
(0.70118 -2.22664 0)
(0.629322 -2.66467 2.70237e-19)
(0.510365 -3.45308 -3.32527e-19)
(0.395356 -3.85367 1.92899e-19)
(0.299191 -4.53384 -5.6786e-19)
(0.203901 -4.92089 2.46973e-19)
(0.167718 -5.52483 -6.01684e-20)
(0.145562 -5.89075 0)
(0.115895 -6.43534 -5.71613e-20)
(0.131333 -6.7728 -5.57058e-20)
(0.0954953 -7.27372 -5.43e-20)
(0.0924429 -7.57947 0)
(0.0541683 -8.04028 -4.09382e-19)
(0.0221884 -8.32117 8.52655e-19)
(-0.015672 -8.73903 -7.33487e-19)
(-0.0632533 -9.00482 3.83589e-19)
(-0.0915993 -9.34633 4.67131e-20)
(-0.14232 -9.64829 3.85856e-19)
(-0.642617 -0.336215 0)
(-1.07252 -0.70793 -1.42653e-19)
(-1.02448 -1.7321 5.03189e-22)
(-0.771854 -2.22295 3.75134e-19)
(-0.894019 -3.09358 -1.00522e-19)
(-0.830731 -3.53991 -6.48569e-20)
(-0.863119 -4.25753 6.42342e-20)
(-0.853426 -4.68711 1.2434e-19)
(-0.833107 -5.24776 6.01665e-20)
(-0.873136 -5.6875 -2.34343e-19)
(-0.852119 -6.18035 2.58975e-19)
(-0.923826 -6.62075 5.56998e-20)
(-0.924163 -7.06659 2.71167e-19)
(-0.958735 -7.47916 -2.11884e-21)
(-0.970245 -7.88172 2.37852e-20)
(-0.953415 -8.25673 -4.54e-19)
(-0.958653 -8.61916 1.24163e-19)
(-0.916452 -8.96839 0)
(-0.918965 -9.27256 -2.32898e-20)
(-0.871807 -9.62902 -1.94239e-19)
(-1.98996 -0.1709 2.00896e-20)
(-2.04638 -1.02418 -3.51005e-20)
(-2.2517 -1.67208 1.39523e-19)
(-2.28152 -2.41157 -3.4432e-20)
(-2.216 -3.08514 -3.3459e-20)
(-2.16144 -3.65739 0)
(-2.17333 -4.31099 -6.31663e-20)
(-2.02973 -4.80407 1.23657e-19)
(-2.0753 -5.40271 -6.05344e-20)
(-2.01864 -5.87295 5.8504e-20)
(-2.06398 -6.38966 -2.88829e-20)
(-1.99527 -6.80866 -5.5577e-20)
(-1.98366 -7.23629 1.08867e-19)
(-1.92507 -7.62197 -1.06134e-19)
(-1.89517 -7.99203 2.61174e-20)
(-1.85612 -8.34771 1.78922e-34)
(-1.84724 -8.69817 -2.43557e-20)
(-1.8317 -9.02977 1.43777e-19)
(-1.82028 -9.3379 -7.0983e-20)
(-1.82285 -9.68585 -4.91869e-20)
(-0.112101 -3.03807 7.95931e-20)
(1.07376 -12.102 3.89572e-20)
(2.63924 -23.6485 0)
(3.75264 -30.1773 3.62729e-20)
(3.96623 -32.0101 3.45213e-20)
(4.04809 -32.1239 3.1848e-20)
(4.02891 -31.936 0)
(3.98278 -31.5445 2.92241e-20)
(3.94591 -31.2873 0)
(3.89944 -31.0351 0)
(3.86351 -30.7976 -2.46484e-20)
(3.80461 -30.5408 1.69446e-21)
(3.7471 -30.3281 4.63292e-20)
(3.70267 -30.1102 0)
(3.63025 -29.9139 2.02564e-20)
(3.59708 -29.6734 1.92398e-20)
(3.48689 -29.4386 1.8297e-20)
(3.46259 -29.1491 0)
(3.32887 -28.869 -3.31067e-20)
(3.29514 -28.4942 3.21176e-20)
(0.128187 -3.89862 0)
(1.83612 -14.3811 -1.64924e-19)
(3.64848 -25.5972 0)
(4.65752 -31.0985 -1.7847e-19)
(4.81638 -32.1213 1.68383e-19)
(4.81888 -32.059 -2.79929e-19)
(4.76482 -31.7442 1.22336e-19)
(4.69551 -31.4438 8.45592e-20)
(4.61875 -31.1198 -3.8168e-19)
(4.56619 -30.8807 2.11928e-19)
(4.48156 -30.6218 -2.49311e-20)
(4.43414 -30.4032 1.83484e-19)
(4.35826 -30.1874 -6.51164e-21)
(4.30719 -29.9609 -1.71297e-19)
(4.20863 -29.7355 -2.02553e-20)
(4.16987 -29.4659 -1.92393e-20)
(4.04703 -29.2536 -1.82967e-20)
(4.02761 -28.9482 0)
(3.85706 -28.6388 -1.27926e-19)
(3.84257 -28.2838 4.30456e-21)
(0.361525 -4.73436 -3.88061e-20)
(2.73017 -16.3959 0)
(4.62841 -27.3462 0)
(5.527 -31.6759 -7.1066e-20)
(5.58826 -32.2123 6.69736e-20)
(5.569 -32.0265 0)
(5.46647 -31.6179 -5.93162e-20)
(5.40343 -31.2378 1.66632e-19)
(5.32496 -30.9931 -1.64667e-19)
(5.24136 -30.6963 1.98992e-19)
(5.17526 -30.4787 -2.42965e-19)
(5.09139 -30.2349 0)
(4.99768 -29.9937 -1.6877e-19)
(4.92086 -29.7545 -1.53726e-19)
(4.8224 -29.5377 2.7697e-19)
(4.76431 -29.2995 -2.87554e-19)
(4.62775 -29.0417 2.49142e-19)
(4.57774 -28.706 0)
(4.39861 -28.4061 -2.76869e-19)
(4.38526 -28.0892 4.72435e-19)
(0.635601 -5.85249 3.89813e-19)
(3.51063 -17.9615 0)
(5.71632 -28.3377 1.47369e-19)
(6.43606 -31.8143 2.07398e-19)
(6.48881 -32.049 -3.97174e-19)
(6.39935 -31.7644 1.21646e-19)
(6.27257 -31.3938 5.94467e-20)
(6.17627 -31.097 5.99257e-19)
(6.0562 -30.7348 -8.35956e-19)
(5.96344 -30.5074 -8.08177e-20)
(5.85062 -30.2339 4.27248e-19)
(5.74577 -29.9703 8.63125e-20)
(5.64059 -29.7451 -4.07577e-19)
(5.55057 -29.5346 3.97948e-19)
(5.43138 -29.306 1.10774e-19)
(5.34112 -29.0141 -6.88922e-20)
(5.18811 -28.7671 9.93277e-20)
(5.12673 -28.4385 0)
(4.93073 -28.1609 -2.79288e-20)
(4.90149 -27.815 0)
(1.20207 -6.6512 0)
(4.21606 -19.6128 6.02841e-19)
(6.84514 -29.4731 -7.45619e-19)
(7.31922 -32.0085 6.74213e-19)
(7.29831 -31.9593 -5.17747e-19)
(7.17916 -31.5631 -1.2204e-19)
(7.02038 -31.1407 0)
(6.89481 -30.7515 3.12096e-19)
(6.76506 -30.4989 -4.14128e-19)
(6.63631 -30.1885 4.70297e-19)
(6.51357 -29.9509 -3.67206e-19)
(6.4002 -29.7137 -8.63111e-20)
(6.27084 -29.475 3.947e-19)
(6.15539 -29.2285 -6.81011e-19)
(6.01727 -28.9923 4.28081e-19)
(5.92229 -28.74 -1.40523e-19)
(5.75642 -28.4816 -3.15118e-19)
(5.67614 -28.1409 7.19254e-19)
(5.45178 -27.8411 -4.07634e-19)
(5.43439 -27.5383 -4.76692e-19)
(1.49046 -7.37026 6.07023e-19)
(5.41603 -20.3993 5.91135e-19)
(7.8652 -29.6682 -5.87134e-19)
(8.36771 -31.6686 -1.31849e-19)
(8.22161 -31.5703 1.26627e-19)
(8.04974 -31.1432 4.60428e-19)
(7.86315 -30.8042 -4.5382e-19)
(7.70691 -30.4758 0)
(7.53179 -30.1129 3.8138e-19)
(7.38406 -29.8791 -3.7501e-19)
(7.23777 -29.6281 -3.37226e-19)
(7.07682 -29.356 3.31756e-19)
(6.92822 -29.1162 0)
(6.79702 -28.9148 0)
(6.65108 -28.6925 6.01368e-19)
(6.51965 -28.4158 -5.89319e-19)
(6.33446 -28.1476 -4.73999e-19)
(6.23514 -27.8072 4.66974e-19)
(6.00413 -27.5531 -4.23942e-19)
(5.96825 -27.2238 5.2054e-19)
(2.06394 -8.24218 -4.41634e-19)
(6.35572 -21.6177 1.58482e-19)
(9.00905 -30.1359 2.60369e-20)
(9.239 -31.5106 6.66656e-19)
(9.06575 -31.2165 0)
(8.84219 -30.7745 0)
(8.62416 -30.3738 8.31466e-19)
(8.42814 -30.0181 -3.88973e-20)
(8.23259 -29.7402 -7.64999e-19)
(8.05325 -29.447 6.83832e-19)
(7.86784 -29.1951 -6.72577e-19)
(7.70362 -28.9572 0)
(7.53665 -28.7412 5.66731e-19)
(7.37567 -28.5138 -5.57811e-19)
(7.19846 -28.2813 0)
(7.0496 -28.0244 0)
(6.85393 -27.7848 0)
(6.72959 -27.4557 0)
(6.46729 -27.1849 0)
(6.41721 -26.8534 -4.97258e-20)
(2.47721 -8.68174 4.25617e-19)
(7.41958 -21.9672 -7.17558e-19)
(9.95692 -29.864 0)
(10.2129 -30.9064 0)
(9.92714 -30.6546 1.02139e-18)
(9.70382 -30.2443 5.9385e-20)
(9.42665 -29.9121 -9.32951e-19)
(9.20421 -29.5559 0)
(8.96701 -29.2303 8.58185e-20)
(8.75425 -28.9836 -8.01715e-20)
(8.56292 -28.7572 0)
(8.35569 -28.5109 7.0136e-20)
(8.15469 -28.2683 -5.97679e-19)
(7.97741 -28.0727 1.08454e-18)
(7.79291 -27.8642 -2.26433e-20)
(7.62191 -27.6199 -4.61766e-19)
(7.40228 -27.3518 -5.09412e-20)
(7.25141 -27.0233 4.78281e-20)
(6.97774 -26.7757 0)
(6.926 -26.461 4.27084e-20)
(3.03783 -9.23832 2.73554e-19)
(8.49273 -22.578 2.31676e-19)
(11.0568 -29.7654 -8.075e-19)
(11.1118 -30.4334 2.32394e-19)
(10.7798 -30.0611 1.01179e-19)
(10.4806 -29.6442 8.96589e-19)
(10.1775 -29.2781 -1.2512e-18)
(9.91351 -28.9814 9.06035e-19)
(9.64711 -28.684 -7.33904e-19)
(9.40938 -28.4286 8.66762e-19)
(9.16758 -28.1942 1.3922e-19)
(8.94011 -27.961 5.87773e-19)
(8.73144 -27.7719 -3.32592e-19)
(8.52657 -27.5813 -6.3746e-19)
(8.31069 -27.3754 5.61389e-19)
(8.1116 -27.1395 0)
(7.88423 -26.917 1.43938e-19)
(7.71145 -26.6034 3.92173e-20)
(7.41472 -26.3655 -8.19701e-20)
(7.3297 -26.0212 3.46645e-20)
(3.56224 -9.5535 -5.16994e-19)
(9.48662 -22.6442 5.2935e-19)
(11.9189 -29.1984 -1.49297e-20)
(11.9313 -29.6438 -4.51167e-19)
(11.5253 -29.3518 -4.16478e-19)
(11.2399 -28.9942 -1.99846e-19)
(10.884 -28.6806 -1.33415e-20)
(10.5863 -28.332 -1.72332e-19)
(10.2942 -28.0649 0)
(10.014 -27.8156 -1.49335e-19)
(9.76692 -27.6087 -1.39218e-19)
(9.51805 -27.4097 -1.13576e-20)
(9.26445 -27.1845 4.41006e-19)
(9.03538 -27.0024 -2.28837e-19)
(8.80728 -26.827 -4.99823e-19)
(8.59026 -26.6266 3.87769e-19)
(8.33497 -26.3944 2.51081e-19)
(8.12464 -26.0863 -4.26006e-19)
(7.80112 -25.8452 8.19692e-20)
(7.7113 -25.5329 4.96471e-19)
(4.10509 -9.82641 -1.22996e-18)
(10.4903 -22.6819 1.23502e-18)
(12.8723 -28.5871 -1.3401e-18)
(12.7934 -28.8654 1.08955e-18)
(12.3397 -28.5341 9.52966e-19)
(11.9774 -28.1767 -7.38142e-19)
(11.5942 -27.875 -9.69968e-19)
(11.2562 -27.6369 3.69243e-20)
(10.9203 -27.3424 5.82482e-19)
(10.6184 -27.1344 -3.84485e-19)
(10.3287 -26.9363 9.7188e-19)
(10.0389 -26.7228 -5.82604e-19)
(9.7819 -26.5608 -1.10312e-19)
(9.53595 -26.4037 2.75264e-19)
(9.28117 -26.2262 -7.23498e-19)
(9.03913 -26.0313 3.46013e-19)
(8.77737 -25.8326 0)
(8.55298 -25.5516 -5.66588e-19)
(8.22064 -25.3321 5.57133e-19)
(8.10202 -24.9854 -4.38831e-19)
(4.65662 -9.99326 2.30148e-19)
(11.4264 -22.509 2.54813e-19)
(13.6595 -27.8698 1.08981e-18)
(13.4717 -27.9492 9.33067e-19)
(12.9689 -27.6804 -5.66698e-19)
(12.5922 -27.3725 7.85524e-19)
(12.1759 -27.0842 -4.62643e-19)
(11.8007 -26.8006 5.34568e-19)
(11.4614 -26.6033 -1.01824e-18)
(11.1184 -26.3758 3.60468e-19)
(10.8117 -26.1992 0)
(10.5272 -26.0553 0)
(10.2292 -25.8736 0)
(9.95713 -25.7231 -6.63402e-19)
(9.69507 -25.5916 6.53147e-19)
(9.44441 -25.4358 0)
(9.17166 -25.2605 0)
(8.9189 -24.9852 -5.72415e-20)
(8.56545 -24.7683 0)
(8.46246 -24.4389 -4.87323e-19)
(5.1715 -10.0579 -4.30159e-19)
(12.2812 -22.1068 -1.05237e-18)
(14.3696 -26.8509 -7.37035e-19)
(14.1817 -26.9114 -1.32471e-19)
(13.6369 -26.6756 9.59483e-19)
(13.2159 -26.4066 -1.96153e-19)
(12.776 -26.1829 -3.80994e-20)
(12.369 -25.9833 -6.19224e-19)
(11.9763 -25.7351 0)
(11.6161 -25.5798 -3.01476e-19)
(11.286 -25.4283 4.76295e-19)
(10.9434 -25.2563 0)
(10.6394 -25.1271 6.12788e-19)
(10.352 -25.0119 -6.03173e-19)
(10.0606 -24.881 5.16709e-19)
(9.78196 -24.7477 -9.28079e-19)
(9.4944 -24.5958 4.67463e-19)
(9.22809 -24.3723 5.72426e-20)
(8.87573 -24.1919 -4.23981e-20)
(8.74162 -23.8794 3.4499e-19)
(5.68923 -10.0688 -5.45522e-19)
(13.1168 -21.6855 4.00849e-20)
(15.0639 -25.9935 5.35237e-20)
(14.7347 -25.8869 1.24011e-18)
(14.1584 -25.6604 1.0488e-19)
(13.6875 -25.4315 -6.47692e-19)
(13.2258 -25.1921 -4.45284e-19)
(12.7821 -25.0126 1.46306e-19)
(12.398 -24.871 4.84976e-19)
(12.002 -24.6977 -5.08441e-19)
(11.6399 -24.5644 2.42887e-19)
(11.3237 -24.4749 -6.19168e-19)
(10.9891 -24.3461 4.87664e-19)
(10.6821 -24.2331 -4.59131e-19)
(10.3903 -24.1472 4.04567e-19)
(10.1129 -24.0488 3.24242e-19)
(9.83222 -23.9537 -3.73883e-19)
(9.54678 -23.7472 2.7913e-19)
(9.17226 -23.5728 -2.65455e-19)
(9.03435 -23.2464 -2.9156e-19)
(6.16409 -9.97524 -6.57579e-19)
(13.8172 -21.0162 -1.08136e-19)
(15.5118 -24.6964 6.18887e-19)
(15.217 -24.6728 -5.11062e-19)
(14.6378 -24.5257 5.0175e-19)
(14.142 -24.3591 1.17579e-19)
(13.6677 -24.206 0)
(13.197 -24.0452 -7.78651e-20)
(12.7649 -23.8914 2.13162e-19)
(12.3577 -23.7887 -7.55847e-19)
(11.9895 -23.7015 5.30533e-19)
(11.6118 -23.597 1.13372e-19)
(11.2673 -23.5177 5.82376e-20)
(10.9455 -23.4494 0)
(10.622 -23.3693 1.3728e-20)
(10.3115 -23.2898 2.76156e-19)
(10.0072 -23.2063 -2.70749e-20)
(9.71028 -23.0617 3.34563e-20)
(9.34936 -22.9465 -2.13602e-19)
(9.20303 -22.6569 4.43033e-20)
(6.6238 -9.83432 5.63165e-19)
(14.5038 -20.3638 -9.09162e-19)
(16.0797 -23.6681 5.23343e-19)
(15.6035 -23.5353 4.22671e-19)
(15.0117 -23.3624 -4.00985e-20)
(14.4528 -23.2347 -2.91309e-19)
(13.9672 -23.0825 6.74211e-20)
(13.4731 -23.0031 7.78642e-20)
(13.0415 -22.9001 0)
(12.6083 -22.8093 0)
(12.1981 -22.7213 -3.54993e-19)
(11.849 -22.6946 5.77589e-19)
(11.4848 -22.6355 -3.05251e-19)
(11.1437 -22.5745 0)
(10.8242 -22.5378 1.42513e-20)
(10.5185 -22.4959 -1.86831e-19)
(10.2356 -22.478 1.81026e-19)
(9.93277 -22.3661 -2.2403e-20)
(9.56444 -22.2742 -1.04073e-19)
(9.40354 -21.9791 7.66166e-20)
(7.0572 -9.56667 -4.65251e-19)
(14.995 -19.5451 5.35001e-19)
(16.3145 -22.2618 0)
(15.8183 -22.2476 0)
(15.2674 -22.1652 6.51201e-20)
(14.7039 -22.0964 -3.2624e-19)
(14.2035 -22.005 9.66618e-21)
(13.6915 -21.9116 2.11215e-19)
(13.2366 -21.8662 -3.13313e-19)
(12.7953 -21.8088 5.72114e-19)
(12.3937 -21.7928 -2.59695e-19)
(11.9982 -21.7492 4.921e-20)
(11.6231 -21.735 1.56931e-19)
(11.2822 -21.7268 -2.13542e-20)
(10.9314 -21.7088 -8.72571e-20)
(10.5941 -21.6762 1.59192e-20)
(10.278 -21.6797 -4.95167e-20)
(9.96411 -21.629 3.62898e-20)
(9.61262 -21.6024 1.26628e-20)
(9.44836 -21.3439 -3.12307e-22)
(7.45918 -9.25713 0)
(15.4299 -18.6385 2.07195e-19)
(16.6753 -21.0603 -2.63149e-19)
(16.0676 -20.9991 0)
(15.477 -20.9004 -6.51145e-20)
(14.8698 -20.8728 1.64071e-19)
(14.3638 -20.8245 -2.08201e-19)
(13.8374 -20.8062 0)
(13.3615 -20.7599 1.63646e-19)
(12.9115 -20.7589 -1.60911e-19)
(12.4627 -20.7286 3.57163e-21)
(12.0831 -20.7656 -1.6307e-20)
(11.6946 -20.7677 -1.19871e-20)
(11.3198 -20.7635 -8.13096e-21)
(10.979 -20.7878 2.91921e-20)
(10.635 -20.7777 -8.83726e-20)
(10.3415 -20.8276 1.2757e-19)
(10.029 -20.8433 -1.60257e-19)
(9.69404 -20.8695 8.14936e-20)
(9.50917 -20.6518 -8.18461e-21)
(7.83619 -8.91435 0)
(15.7362 -17.6937 -1.99259e-19)
(16.7378 -19.6475 1.22982e-19)
(16.0556 -19.6734 1.15027e-19)
(15.5139 -19.6479 -3.19167e-20)
(14.9047 -19.6684 -2.85488e-20)
(14.3871 -19.6592 -7.63033e-20)
(13.8615 -19.66 0)
(13.3856 -19.6907 0)
(12.9222 -19.6814 0)
(12.4922 -19.7265 -3.57158e-21)
(12.0905 -19.7505 0)
(11.6972 -19.807 1.33949e-19)
(11.3443 -19.8549 -1.1122e-19)
(10.9826 -19.9194 1.55403e-19)
(10.6207 -19.9236 -3.25822e-19)
(10.2715 -19.9706 1.70192e-19)
(9.93133 -20.0126 2.29132e-19)
(9.58928 -20.0764 -4.06632e-19)
(9.40303 -19.928 2.16028e-19)
(8.15313 -8.46671 0)
(15.9254 -16.7002 0)
(16.7817 -18.2879 3.71704e-20)
(16.0881 -18.3715 2.76483e-20)
(15.5176 -18.359 0)
(14.8969 -18.4123 -9.65726e-21)
(14.375 -18.4677 9.48761e-21)
(13.8413 -18.496 0)
(13.3436 -18.5458 -1.41704e-19)
(12.8945 -18.6079 1.39335e-19)
(12.4177 -18.6335 0)
(12.014 -18.7092 2.25558e-19)
(11.6098 -18.7717 4.45847e-21)
(11.2006 -18.8064 -2.43492e-19)
(10.8419 -18.8962 0)
(10.4646 -18.9161 0)
(10.1193 -18.9918 0)
(9.78022 -19.0829 2.94479e-19)
(9.41878 -19.1142 -3.21598e-19)
(9.15993 -19.0473 0)
(2.76426 -27.5928 0)
(2.55355 -26.053 0)
(2.14665 -25.9112 -1.59917e-21)
(2.02161 -24.9971 -1.21629e-21)
(1.73347 -24.8676 0)
(1.66775 -24.319 1.27952e-22)
(1.50842 -24.2315 4.11709e-22)
(1.47225 -23.874 0)
(1.3932 -23.8517 -1.02538e-22)
(1.39553 -23.6468 0)
(1.19776 -23.523 3.43184e-22)
(1.23302 -23.5563 2.33547e-22)
(1.02209 -23.5271 -2.36245e-22)
(0.957617 -23.5374 -5.8223e-22)
(0.86062 -23.583 0)
(0.728196 -23.3755 1.73296e-22)
(0.660553 -23.5002 -7.73374e-22)
(0.548063 -20.9298 0)
(0.202982 -15.2182 0)
(0.239364 -6.34581 -3.3968e-22)
(3.19831 -27.4179 1.34586e-20)
(2.88876 -25.9533 0)
(2.39281 -25.8335 7.11885e-21)
(2.19621 -24.9219 -4.32792e-21)
(1.87049 -24.8272 0)
(1.78163 -24.305 -2.32726e-21)
(1.59169 -24.2209 7.73874e-22)
(1.53278 -23.8593 0)
(1.44247 -23.8473 -2.39439e-22)
(1.41574 -23.6138 3.43716e-22)
(1.22849 -23.5018 -1.13315e-21)
(1.26458 -23.5334 1.73332e-21)
(1.02958 -23.4904 -1.50334e-21)
(0.973337 -23.5126 5.3041e-22)
(0.861038 -23.5471 6.03075e-22)
(0.741116 -23.3489 -6.91036e-22)
(0.67158 -23.4752 1.22929e-21)
(0.545763 -20.8673 6.92523e-22)
(0.208625 -15.1626 9.21591e-22)
(0.206494 -6.27282 9.60207e-22)
(3.61644 -27.2174 -6.58681e-21)
(3.2037 -25.8155 -1.11095e-20)
(2.61293 -25.7408 -5.88165e-21)
(2.35998 -24.8387 0)
(1.99215 -24.7638 0)
(1.87095 -24.2373 2.46094e-21)
(1.67404 -24.1741 -8.87169e-22)
(1.59332 -23.8304 -7.00049e-22)
(1.49102 -23.8244 -5.99714e-22)
(1.43904 -23.5883 7.41499e-22)
(1.27594 -23.4811 0)
(1.2922 -23.5032 0)
(1.05976 -23.4447 0)
(1.01664 -23.4923 2.35718e-21)
(0.877718 -23.5127 0)
(0.760447 -23.3243 2.72248e-21)
(0.681939 -23.4483 -2.46094e-21)
(0.529079 -20.8204 -2.89128e-22)
(0.231171 -15.1442 -1.25481e-21)
(0.226397 -6.23298 -7.96392e-22)
(4.04428 -26.9865 1.85444e-20)
(3.54556 -25.6714 -3.50462e-20)
(2.84544 -25.6228 1.37683e-21)
(2.52861 -24.7477 1.01697e-20)
(2.1324 -24.7102 0)
(1.98988 -24.2137 2.64503e-21)
(1.75992 -24.1514 -4.33387e-21)
(1.66147 -23.807 7.1943e-22)
(1.53699 -23.8094 8.13274e-22)
(1.45958 -23.5537 -1.2584e-21)
(1.30126 -23.4603 -2.40378e-22)
(1.31486 -23.4715 1.95925e-21)
(1.06684 -23.4062 -1.95333e-21)
(1.04003 -23.4613 -1.12163e-21)
(0.869989 -23.4749 -1.21435e-21)
(0.778588 -23.2989 -2.3242e-21)
(0.69135 -23.4195 3.09024e-21)
(0.528123 -20.7693 -5.42332e-22)
(0.229563 -15.1038 7.35957e-22)
(0.18694 -6.17041 3.02945e-21)
(4.44967 -26.7408 4.7452e-20)
(3.8136 -25.4953 8.04469e-21)
(3.05959 -25.4894 -9.9387e-21)
(2.69986 -24.6453 1.37273e-20)
(2.27334 -24.6327 0)
(2.07678 -24.1403 -1.64335e-21)
(1.84032 -24.0989 7.47986e-22)
(1.72307 -23.7725 0)
(1.58334 -23.7759 7.3946e-23)
(1.48355 -23.5284 0)
(1.34376 -23.4423 3.04792e-21)
(1.33173 -23.4396 0)
(1.1009 -23.3684 0)
(1.07467 -23.4418 4.65914e-21)
(0.88309 -23.4363 -2.42637e-21)
(0.798332 -23.2728 9.42376e-22)
(0.700467 -23.3919 0)
(0.519938 -20.7356 -3.02961e-22)
(0.240486 -15.0901 6.74021e-22)
(0.202475 -6.13048 0)
(4.85702 -26.4367 1.79803e-20)
(4.12579 -25.2995 -1.45535e-20)
(3.27869 -25.3536 2.28574e-20)
(2.85536 -24.5406 -2.23458e-20)
(2.40791 -24.5643 4.68134e-21)
(2.19553 -24.0978 1.64767e-21)
(1.93349 -24.0672 -1.02786e-21)
(1.79022 -23.7385 2.17532e-22)
(1.62301 -23.75 -6.73467e-22)
(1.50466 -23.4922 -2.75604e-21)
(1.35955 -23.419 1.20182e-21)
(1.34205 -23.4045 0)
(1.11288 -23.3293 0)
(1.09755 -23.4026 1.49854e-24)
(0.877665 -23.393 2.12537e-21)
(0.797439 -23.2532 -1.30153e-21)
(0.701169 -23.3629 0)
(0.522307 -20.6976 2.41511e-21)
(0.236104 -15.0652 5.41041e-21)
(0.166408 -6.08147 3.67128e-22)
(5.26029 -26.128 -4.97095e-20)
(4.39196 -25.0717 4.63473e-20)
(3.51175 -25.1877 -1.00271e-20)
(3.03229 -24.4199 0)
(2.56338 -24.4759 -4.6993e-21)
(2.28948 -24.0219 3.75665e-21)
(2.01394 -24.0069 -2.73969e-21)
(1.84779 -23.695 -2.18048e-22)
(1.66578 -23.7072 0)
(1.53333 -23.4656 0)
(1.39481 -23.4007 -3.60419e-21)
(1.35617 -23.3749 3.61944e-21)
(1.14589 -23.2999 0)
(1.1225 -23.3757 -5.93653e-21)
(0.891247 -23.3475 1.75791e-21)
(0.820322 -23.2292 8.48581e-22)
(0.697748 -23.332 -1.20079e-21)
(0.517756 -20.6751 -2.2468e-21)
(0.233005 -15.0562 -3.56488e-21)
(0.181182 -6.04477 -5.43092e-23)
(5.63155 -25.7937 0)
(4.66017 -24.8299 -2.23745e-20)
(3.72802 -25.0298 2.24144e-20)
(3.18531 -24.2967 0)
(2.70185 -24.3915 0)
(2.39307 -23.9574 -3.17121e-21)
(2.10606 -23.9643 3.17953e-21)
(1.91128 -23.6498 0)
(1.70559 -23.6727 -2.21608e-21)
(1.55262 -23.4269 5.24364e-21)
(1.40817 -23.3712 -3.04974e-21)
(1.36669 -23.3382 -4.23763e-21)
(1.15686 -23.2604 4.24691e-21)
(1.12499 -23.3322 0)
(0.883325 -23.303 0)
(0.823595 -23.2132 1.79234e-21)
(0.695366 -23.3027 -1.06529e-21)
(0.521573 -20.6524 -1.9489e-23)
(0.228274 -15.0441 1.34756e-21)
(0.145017 -6.01082 -5.51851e-22)
(5.98719 -25.4288 2.74726e-20)
(4.92224 -24.5635 -2.75021e-20)
(3.95919 -24.8389 -2.27347e-20)
(3.35119 -24.1586 2.49677e-20)
(2.85205 -24.2895 -1.60348e-20)
(2.49292 -23.8739 3.33193e-21)
(2.18735 -23.8982 2.56177e-21)
(1.96112 -23.5972 0)
(1.75237 -23.6216 0)
(1.58303 -23.3958 -2.89617e-21)
(1.43723 -23.3539 0)
(1.38393 -23.3121 0)
(1.18835 -23.2311 0)
(1.14063 -23.2999 0)
(0.906953 -23.2579 0)
(0.852435 -23.1852 0)
(0.68916 -23.2717 9.42231e-22)
(0.521529 -20.6378 -6.96331e-22)
(0.223226 -15.0397 4.75311e-23)
(0.150467 -5.97893 -2.42907e-22)
(6.32871 -24.9845 -2.50027e-20)
(5.17467 -24.2782 -3.58799e-20)
(4.19525 -24.6513 -5.51871e-21)
(3.51284 -24.0159 -1.23112e-21)
(2.99324 -24.19 7.12172e-21)
(2.58983 -23.7926 6.7328e-21)
(2.27621 -23.8416 -8.65359e-23)
(2.0204 -23.5425 0)
(1.79518 -23.5804 2.89953e-21)
(1.59937 -23.3558 -5.3483e-21)
(1.45696 -23.32 -3.81376e-21)
(1.39166 -23.2753 -4.3576e-21)
(1.19092 -23.1906 0)
(1.12964 -23.2606 -4.16165e-21)