/*--------------------------------*- C++ -*----------------------------------*\
  =========                 |
  \\      /  F ield         | OpenFOAM: The Open Source CFD Toolbox
   \\    /   O peration     | Website:  https://openfoam.org
    \\  /    A nd           | Version:  9
     \\/     M anipulation  |
\*---------------------------------------------------------------------------*/
FoamFile
{
    format      ascii;
    class       volScalarField;
    location    "18";
    object      nut;
}
// * * * * * * * * * * * * * * * * * * * * * * * * * * * * * * * * * * * * * //

dimensions      [0 2 -1 0 0 0 0];

internalField   nonuniform List<scalar> 
46400
(
0.0228131
0.00931071
0.00270811
0.00164921
0.00172404
0.00165206
0.0016036
0.00154296
0.00147486
0.00143049
0.00138638
0.00135558
0.00129993
0.0012658
0.00123912
0.0012279
0.00121113
0.00109041
0.00141272
0.00120418
0.0223948
0.00856095
0.00250106
0.00170068
0.00169798
0.0016194
0.00157231
0.00153481
0.00146015
0.00141937
0.00135903
0.00133008
0.00129782
0.00124379
0.00117587
0.0011444
0.00112069
0.00100249
0.00121656
0.00112745
0.0219087
0.00734136
0.00172331
0.00169493
0.00168834
0.00165181
0.00158304
0.00154311
0.00147261
0.00142632
0.00137768
0.00133655
0.00129393
0.00127336
0.00122319
0.0011751
0.00114137
0.00103419
0.00130883
0.0011627
0.021384
0.00664123
0.00154444
0.00175707
0.00167691
0.00162481
0.00156057
0.00152956
0.00145747
0.00141119
0.00134971
0.00131859
0.0012776
0.00123709
0.00119858
0.00116525
0.0011473
0.00101954
0.00131907
0.00123451
0.0208269
0.00550028
0.00151177
0.00173352
0.00165735
0.00163887
0.00156311
0.00153548
0.00147117
0.00142928
0.00137537
0.00132882
0.00129287
0.00126069
0.0012117
0.00117301
0.00114266
0.00104625
0.00131226
0.00120251
0.0201752
0.00512148
0.00150407
0.00176869
0.00166799
0.00162596
0.00155442
0.00152462
0.00145962
0.00141575
0.00136769
0.00132624
0.00129085
0.00125541
0.00121655
0.00118281
0.00114674
0.0010447
0.0013122
0.00121758
0.0194661
0.00519833
0.00158462
0.00175025
0.00165521
0.00164028
0.00156004
0.00153689
0.0014775
0.00142586
0.00137733
0.0013325
0.00129105
0.00125843
0.00122107
0.00118866
0.00116392
0.00104877
0.00129652
0.0012182
0.0186692
0.00554355
0.00162157
0.00178637
0.00168316
0.00164704
0.00156127
0.00152288
0.00147933
0.00143488
0.00138352
0.00134427
0.00130745
0.00126444
0.00122304
0.00118961
0.00116449
0.00106164
0.00127357
0.00121485
0.0178835
0.00524803
0.00168484
0.00181062
0.00166187
0.0016526
0.00156818
0.00152629
0.00146277
0.0014217
0.00137667
0.0013228
0.00129207
0.00127583
0.00123259
0.00119006
0.00117304
0.00106991
0.00124975
0.00118756
0.016664
0.00443011
0.00166367
0.00181393
0.00166476
0.00163351
0.00155668
0.00151086
0.00147334
0.00141316
0.00139003
0.00133423
0.00127993
0.00124154
0.00123003
0.00118401
0.00116316
0.0010891
0.0012364
0.00120256
0.0148454
0.00358902
0.00169011
0.00179904
0.00166391
0.00160565
0.00154765
0.00147083
0.00143017
0.00137099
0.00133519
0.00132297
0.00128147
0.00122093
0.0011934
0.0011695
0.00112566
0.00105361
0.00117274
0.00113296
0.0126539
0.00303007
0.00172684
0.00171676
0.00166497
0.00159377
0.00155635
0.00149999
0.00144693
0.00138324
0.00130761
0.00127066
0.00126484
0.00121649
0.00118728
0.00115529
0.00114065
0.00107305
0.0011729
0.00113702
0.0101436
0.00248984
0.00170064
0.00169041
0.00163254
0.00155337
0.00150558
0.00145711
0.00143584
0.00141438
0.00136055
0.00126344
0.00124657
0.00120422
0.00117883
0.00114585
0.00110277
0.00105679
0.00113067
0.00108986
0.00831617
0.00216639
0.00169896
0.00164795
0.00163308
0.00156409
0.00152875
0.00145354
0.00137337
0.00133208
0.00133854
0.00126102
0.0012158
0.00117999
0.00114346
0.00113826
0.00110756
0.00104294
0.00112411
0.00107445
0.00664775
0.00188846
0.00169612
0.00160745
0.00158466
0.00147533
0.00144686
0.00146904
0.00143708
0.00135637
0.00134873
0.00131279
0.00125009
0.00120079
0.00114744
0.00110615
0.00109014
0.00102761
0.00107559
0.00103926
0.00563028
0.00178193
0.00171166
0.00160364
0.00161269
0.00154666
0.00140399
0.00132915
0.00134291
0.00128222
0.00125615
0.00125928
0.00124706
0.00122073
0.00119182
0.00114737
0.00112379
0.00106601
0.00112073
0.00105798
0.00468997
0.00169917
0.00170547
0.00151415
0.00152665
0.00160532
0.00159787
0.00140768
0.00135082
0.00130336
0.00122154
0.00118073
0.00114218
0.00112677
0.0011109
0.00108444
0.00106789
0.0010076
0.00106449
0.00102663
0.00422136
0.00166151
0.00168971
0.00160586
0.00145514
0.00136529
0.00148515
0.00146245
0.00140741
0.0013616
0.00130028
0.00126759
0.00120735
0.00116005
0.00112582
0.00109296
0.00106953
0.00100347
0.00103137
0.000994496
0.00381002
0.00164756
0.00155766
0.00156989
0.00160263
0.00138488
0.0013186
0.00133103
0.00130901
0.0013031
0.00126953
0.00121502
0.00119541
0.00115504
0.00111256
0.00108222
0.00105651
0.00100204
0.00102137
0.000982765
0.00396826
0.00179604
0.00155844
0.00149446
0.0015154
0.00149721
0.00138139
0.00132986
0.00128455
0.00123812
0.00123179
0.00118227
0.00115125
0.001129
0.00109807
0.00108053
0.00103803
0.0009942
0.0010042
0.000964328
0.00271457
0.0138393
0.0144699
0.00793519
0.00113584
0.000285222
0.000589
0.0007784
0.000789022
0.000733548
0.000727922
0.0007259
0.000733436
0.000764655
0.000754725
0.000794479
0.000843239
0.000954347
0.0010037
0.000870261
0.00584955
0.0148755
0.0134232
0.00523237
0.00025375
0.000433598
0.000784035
0.000872179
0.000812662
0.000808336
0.000798426
0.000796173
0.000770679
0.000778119
0.000778996
0.000856076
0.000909438
0.00101277
0.00101247
0.000848931
0.00849901
0.0156265
0.0122799
0.00285075
0.00031362
0.000620255
0.000906628
0.000937219
0.000885501
0.000849014
0.000834021
0.000812035
0.000811283
0.000834432
0.000840633
0.000905129
0.000934687
0.00103161
0.001002
0.000861314
0.011221
0.0159725
0.0111229
0.0011269
0.00056904
0.000938513
0.00105753
0.0009746
0.00093784
0.000908945
0.000893298
0.000881369
0.000861266
0.000868678
0.000857483
0.000921717
0.000970759
0.00107703
0.00100559
0.000854074
0.0138705
0.0160631
0.0100581
0.000486763
0.000621754
0.0010653
0.00110275
0.00105565
0.00102019
0.000976128
0.00094928
0.000918411
0.000900401
0.000910592
0.000923899
0.000999589
0.00101046
0.00109673
0.0010131
0.000876276
0.0173135
0.0159381
0.00817525
0.00053649
0.000937424
0.0012022
0.00118624
0.0010991
0.00104802
0.0010072
0.000984729
0.000959322
0.00095
0.000954661
0.000934105
0.000987679
0.0010239
0.00112934
0.00101237
0.000881275
0.0187457
0.0158983
0.00574028
0.000304833
0.00107274
0.00124157
0.00117943
0.00116091
0.0011201
0.00107192
0.00104366
0.00101121
0.000977211
0.000977298
0.000994336
0.00106404
0.00105891
0.00114808
0.00104412
0.000920448
0.0204259
0.0154997
0.00444556
8.4499e-05
0.00127208
0.00135768
0.00127643
0.00120236
0.00115053
0.00109742
0.00106594
0.00103187
0.00102771
0.00102177
0.000993216
0.00103744
0.00106431
0.00116758
0.00100946
0.000912274
0.0209024
0.015308
0.00290807
0.000437482
0.0012876
0.00134229
0.00127657
0.00124664
0.00120609
0.00115194
0.00112434
0.00108993
0.00104641
0.00104223
0.00105589
0.00109922
0.00109208
0.00120898
0.00106364
0.000951248
0.0217376
0.0148711
0.00233804
0.000560098
0.00148208
0.00143486
0.00138009
0.00129016
0.00124229
0.00117916
0.0011348
0.00109834
0.00108954
0.00106896
0.00103757
0.00107941
0.0010856
0.00119666
0.00102324
0.000946549
0.0225515
0.0145066
0.00158016
0.000913769
0.0014572
0.00142082
0.00135805
0.00131865
0.0012791
0.00122394
0.00119441
0.00115503
0.00111053
0.00110332
0.00109998
0.00111473
0.00110997
0.0012424
0.00106961
0.000985036
0.022954
0.0140585
0.00156247
0.000972581
0.00157918
0.00148619
0.00146162
0.00135475
0.00131434
0.00124734
0.00119415
0.00115889
0.00113756
0.00110736
0.0010833
0.00110783
0.00108892
0.00120674
0.00102142
0.000983137
0.0235086
0.0136507
0.00159479
0.0012452
0.001573
0.00148656
0.00142933
0.00138426
0.00133959
0.00128899
0.00125079
0.00120708
0.00116682
0.00114948
0.00112708
0.00112701
0.00111825
0.00125453
0.00105531
0.00100923
0.0236439
0.0131462
0.00220638
0.00124485
0.00163562
0.00152648
0.00151034
0.00140145
0.00136707
0.0013047
0.00125078
0.00121253
0.00117974
0.00114907
0.0011275
0.00112414
0.00108281
0.00119445
0.00100324
0.00102366
0.0239297
0.0127175
0.00233419
0.00143166
0.00166378
0.0015414
0.00149802
0.00144342
0.0013901
0.00134306
0.0012967
0.00125263
0.00121213
0.00118537
0.00115602
0.00114674
0.00112652
0.00123801
0.00100595
0.00103032
0.0238856
0.0122968
0.00302335
0.0014007
0.00168677
0.00156677
0.00153807
0.00144458
0.00140917
0.00135754
0.0013051
0.00126224
0.00122049
0.0011904
0.00116911
0.00114498
0.00109298
0.0011805
0.000964754
0.00105971
0.0239351
0.0119538
0.00287339
0.00152278
0.00169725
0.00159824
0.00155637
0.00148998
0.00142931
0.00138597
0.00134093
0.00130078
0.0012567
0.001221
0.00118867
0.00117815
0.00115595
0.00120775
0.000921514
0.00105581
0.0237136
0.0115209
0.00266419
0.00153894
0.00169567
0.00159468
0.00156281
0.00148899
0.00144457
0.00140033
0.00135002
0.00130836
0.00126254
0.00123892
0.00121076
0.00116844
0.00114169
0.00119279
0.000897379
0.00107805
0.0235193
0.0110267
0.0026588
0.00160259
0.00171461
0.00163547
0.00159812
0.00152546
0.00146257
0.0014234
0.00138228
0.00135182
0.00130153
0.00125917
0.00123602
0.00122884
0.00123063
0.001226
0.000878088
0.00107278
0.0231873
0.0102539
0.00265772
0.00164193
0.00170714
0.00161022
0.00158145
0.00152917
0.00146804
0.00143028
0.00138243
0.00135348
0.00132592
0.00130721
0.0012589
0.00124699
0.00129101
0.0013022
0.00106697
0.00120547
0.00586306
0.004627
0.00343344
0.00303972
0.00278248
0.00224528
0.00191718
0.00157316
0.00137058
0.00110792
0.000921034
0.000775755
0.000643806
0.000529683
0.000507407
0.000919175
0.00247262
0.00670471
0.0108601
0.0155099
0.005628
0.00458606
0.0037649
0.00297178
0.00278164
0.00226605
0.0019476
0.00158958
0.00137875
0.00111566
0.000927297
0.000784961
0.000648159
0.000539224
0.000510947
0.000929382
0.00246175
0.00665992
0.0107962
0.0154859
0.00608234
0.00464873
0.00383302
0.00302064
0.0027811
0.00220702
0.00190255
0.00155244
0.00135486
0.00109846
0.000911596
0.000773318
0.000634893
0.000524475
0.000493979
0.000886983
0.00244444
0.0066468
0.0107752
0.0154928
0.00596714
0.00458553
0.00377561
0.00294999
0.00279254
0.00223007
0.00193762
0.00157476
0.00136599
0.00111062
0.000919901
0.000782877
0.000640744
0.000533076
0.00050238
0.000895315
0.00242287
0.00661837
0.0108602
0.015495
0.00630799
0.00465315
0.00385183
0.0029822
0.00278198
0.00217183
0.00189264
0.0015391
0.00134156
0.00109441
0.000904007
0.000770424
0.000623802
0.000514406
0.000459104
0.000845966
0.00238575
0.00660761
0.0108436
0.0155386
0.00623838
0.00460531
0.00381091
0.00293614
0.00279836
0.00219914
0.00192841
0.00156643
0.00135413
0.00111017
0.000914326
0.000782818
0.000633294
0.000524989
0.000483523
0.000843441
0.00233433
0.00659145
0.0108367
0.0156092
0.0065232
0.00465802
0.00386198
0.00294383
0.00277261
0.0021429
0.00188174
0.00153471
0.00132853
0.0010952
0.000899098
0.000771076
0.000619572
0.000516309
0.000461052
0.000787095
0.00225121
0.00657366
0.0108326
0.0156237
0.00650751
0.00461654
0.00384067
0.002926
0.0027943
0.00217587
0.00191454
0.00156646
0.00134134
0.00111323
0.000911501
0.00078692
0.000633487
0.000533972
0.000475022
0.000778213
0.00222156
0.00657324
0.0108151
0.0157029
0.00671925
0.00468727
0.00387083
0.00290917
0.00275375
0.00212442
0.00186496
0.0015402
0.0013154
0.00109964
0.000897025
0.000774546
0.000619054
0.000519973
0.00045222
0.000724746
0.00217477
0.00655776
0.0108134
0.0157839
0.00668805
0.00462735
0.0038677
0.00291214
0.00277671
0.00216508
0.00189165
0.00157456
0.00132813
0.00111926
0.000911377
0.000792139
0.000634366
0.000535195
0.000456908
0.000717575
0.00210039
0.00653171
0.0107619
0.0158598
0.00687939
0.00469024
0.0038802
0.00287753
0.00272181
0.00212161
0.00184049
0.00155291
0.00130387
0.00110694
0.000899359
0.000782356
0.000624748
0.000528802
0.000436502
0.000658757
0.00199628
0.0064718
0.0106586
0.0159015
0.00684147
0.0046246
0.00389265
0.00289425
0.00274117
0.00216832
0.00186113
0.00158641
0.00131791
0.00112752
0.000916286
0.000802443
0.000646031
0.00055122
0.000447867
0.00064792
0.0019035
0.00641948
0.0106567
0.0157814
0.00699592
0.00464397
0.00388488
0.00284635
0.00267271
0.00213218
0.00181296
0.00156652
0.00129707
0.00111626
0.000906573
0.000793644
0.000636455
0.000544346
0.000435106
0.000587532
0.00179114
0.00635485
0.0106577
0.0157415
0.00699436
0.00457458
0.00390409
0.00287397
0.00268328
0.00217745
0.00182931
0.00159568
0.0013124
0.00113619
0.000924805
0.00081406
0.00065998
0.000564662
0.000448535
0.000583096
0.00166593
0.00627907
0.010666
0.0157399
0.00711192
0.0045439
0.00387082
0.00282406
0.00260369
0.00214682
0.00178776
0.00157635
0.00129559
0.00112586
0.000916966
0.000807679
0.000655406
0.000565428
0.000441997
0.000531218
0.00155352
0.00621098
0.0106787
0.0157466
0.00714889
0.00446035
0.00387273
0.00286584
0.00260084
0.00218279
0.00180143
0.00159987
0.00131168
0.00114429
0.00093503
0.000826207
0.000677983
0.000588165
0.000467236
0.000529712
0.00142391
0.00614024
0.0106948
0.0157626
0.00730859
0.00440112
0.00379397
0.00282306
0.00251291
0.00215107
0.00176476
0.00157819
0.00129642
0.00113299
0.00092719
0.000819355
0.000673022
0.000585639
0.000466923
0.000500326
0.0012998
0.00604221
0.0106924
0.015779
0.00731795
0.00431438
0.00377294
0.00288479
0.00251213
0.00218182
0.00178352
0.00160237
0.00131676
0.00115401
0.000948478
0.000841765
0.000699741
0.000611144
0.000497576
0.000520552
0.00116743
0.00599864
0.0107147
0.0158153
0.00734723
0.00428778
0.00361983
0.00283708
0.00242255
0.00214598
0.00175449
0.0015843
0.00130819
0.00114713
0.000944577
0.000839898
0.000700881
0.000615914
0.000503638
0.00053479
0.00101709
0.0059542
0.0108015
0.0158572
0.00768452
0.00427136
0.00356418
0.00289362
0.00239657
0.00213431
0.00174382
0.00157368
0.00130612
0.00114351
0.000946792
0.00084067
0.000711874
0.00063287
0.000532737
0.000559644
0.000876639
0.00567442
0.0106411
0.0156819
0.0134207
0.0453472
0.0344148
0.0321752
0.0257757
0.0233691
0.0188819
0.0168251
0.0140351
0.0122586
0.0100194
0.00876957
0.00733702
0.00668905
0.00563524
0.00563412
0.000898581
0.0538416
0.100626
0.144854
0.039075
0.0268569
0.0241161
0.020908
0.017759
0.0157447
0.0131317
0.0113411
0.0095207
0.00834035
0.00741025
0.00675675
0.00611018
0.00571253
0.00510226
0.00518252
0.0166137
0.0552107
0.0990547
0.14121
0.0193752
0.0168763
0.016875
0.0140832
0.0132526
0.0115441
0.0105522
0.00969496
0.00885366
0.00826693
0.00776069
0.00734384
0.00680851
0.00628401
0.00614892
0.00541445
0.00959898
0.054881
0.0973622
0.140812
0.0134406
0.0126218
0.0109411
0.0109943
0.00983765
0.00949758
0.00873757
0.00821098
0.00762326
0.00716303
0.00650751
0.00590656
0.0054396
0.004977
0.00486792
0.00411726
0.0114454
0.0534484
0.0968658
0.136323
0.00830053
0.00818467
0.00892097
0.00797842
0.00768958
0.00691525
0.00668697
0.00641843
0.00611547
0.00580269
0.00560307
0.00533292
0.00523052
0.00504585
0.00498616
0.00436077
0.00857062
0.0499265
0.0968199
0.135693
0.00608425
0.00618383
0.00538422
0.00551064
0.00562287
0.005794
0.00561235
0.00561438
0.00544219
0.00532146
0.005056
0.00491664
0.004628
0.00441456
0.00415028
0.00354383
0.00974983
0.0439108
0.0972177
0.134249
0.00405873
0.00460184
0.00505272
0.00488791
0.00459815
0.00445771
0.00439446
0.00442195
0.00444969
0.00448587
0.00443503
0.00447049
0.00435399
0.00423895
0.00384234
0.00322474
0.0069203
0.0377043
0.0975521
0.134954
0.00336886
0.00325851
0.00295794
0.00320698
0.00343557
0.00387274
0.00386621
0.00399319
0.00394963
0.00415489
0.00405024
0.00421413
0.00410817
0.00438727
0.004167
0.00322101
0.00573307
0.0320134
0.0974038
0.136731
0.00244213
0.00271965
0.00298138
0.00328972
0.0032497
0.00317669
0.00331794
0.00352379
0.00350671
0.00372423
0.00377309
0.00400264
0.00399585
0.00417947
0.00428606
0.00378156
0.00364335
0.0242027
0.0968273
0.142538
0.00203711
0.00202665
0.00198907
0.00208177
0.00236194
0.00284343
0.00288423
0.00313683
0.00329485
0.00350659
0.00356895
0.00386622
0.00393553
0.00439325
0.00448346
0.00469617
0.00420587
0.0176383
0.0937739
0.150521
0.00160779
0.00188074
0.00201938
0.0023593
0.00238756
0.00249419
0.00259319
0.00279748
0.00293177
0.00325823
0.00337378
0.00368897
0.00377537
0.00412434
0.004197
0.00494986
0.00395383
0.00928566
0.0856278
0.163187
0.00138243
0.00146686
0.00157792
0.00169673
0.00186196
0.00212799
0.00237734
0.00257246
0.00262708
0.00282142
0.00303894
0.00330266
0.00356093
0.00399231
0.00413813
0.00480031
0.004612
0.00640722
0.0657574
0.176529
0.00124366
0.00140304
0.00149471
0.00174586
0.00189089
0.00186974
0.00190206
0.00214533
0.00239141
0.00247938
0.00270467
0.00282121
0.00321642
0.00337959
0.00420572
0.00396731
0.00556376
0.00890219
0.0418732
0.197661
0.00105057
0.00111328
0.00114505
0.00122934
0.00133718
0.00161878
0.00171421
0.00172247
0.00186741
0.00212349
0.00224661
0.00250788
0.00267266
0.00295257
0.00323108
0.00380766
0.00419081
0.00742346
0.0211312
0.141423
0.000955749
0.00106997
0.00109693
0.00118443
0.00121192
0.00121742
0.00134616
0.00149066
0.00146464
0.00162023
0.001681
0.00186495
0.00194644
0.00217699
0.00232538
0.0027757
0.00285229
0.00470192
0.0105897
0.0950649
0.00077696
0.000806258
0.000851866
0.000866408
0.000907597
0.0010348
0.00103182
0.00114413
0.00121337
0.00130898
0.00136071
0.00148878
0.00150713
0.00168863
0.00163227
0.00183324
0.00198142
0.00295293
0.00555077
0.0509782
0.00064855
0.000682495
0.00070104
0.000751065
0.000710137
0.000703174
0.000732372
0.000778712
0.000766127
0.000854072
0.000841161
0.000949244
0.000904628
0.00104546
0.000974387
0.0011065
0.00103381
0.00159818
0.00252807
0.0328615
0.000392675
0.000389861
0.000402177
0.00042838
0.00046552
0.000470265
0.000493211
0.000591851
0.000629539
0.000653487
0.000692249
0.000721981
0.000759577
0.000784765
0.000773342
0.000807584
0.000799226
0.000737718
0.00106082
0.0182751
0.000275214
0.00027113
0.00025519
0.000252464
0.000244539
0.00027219
0.000282735
0.000303854
0.000308086
0.000359879
0.000357149
0.000418116
0.000411391
0.000440414
0.000476043
0.000471439
0.000578979
0.000543787
0.000774518
0.00748457
0.000107277
0.000101382
8.70154e-05
0.000100098
0.000123049
0.000141124
0.000189426
0.000231608
0.000278302
0.000338126
0.000371809
0.000426409
0.000460012
0.000512541
0.000562992
0.000620489
0.000694097
0.00048424
0.000481926
0.0046301
0.0141884
0.0144043
0.0144112
0.0145816
0.0146337
0.0146577
0.0151418
0.0153199
0.0152392
0.014808
0.014319
0.012616
0.0134498
0.0131515
0.013096
0.012495
0.0124324
0.0114328
0.011455
0.0108341
0.00695775
0.00702517
0.00700651
0.00698253
0.00696066
0.00702126
0.00785403
0.00819469
0.00754245
0.00703795
0.00680163
0.00724577
0.00756991
0.00535472
0.00735303
0.00760793
0.00736356
0.00650694
0.00679544
0.00802234
0.00425912
0.00435508
0.00433172
0.0045474
0.00454245
0.00469247
0.00474776
0.0046259
0.00462953
0.00525788
0.00565772
0.00565032
0.0042674
0.00444869
0.00318111
0.00318287
0.00300694
0.00365939
0.00397032
0.00458004
0.00278044
0.00279123
0.0027611
0.00283412
0.00272468
0.00276657
0.00268956
0.00255801
0.00235287
0.00319352
0.00378225
0.00313509
0.00273319
0.00270891
0.00240952
0.0032188
0.00285079
0.0026358
0.00191908
0.00280368
0.00167808
0.00167918
0.00170578
0.00173878
0.00176496
0.00171227
0.00176317
0.00188415
0.00210058
0.00228719
0.00230474
0.00270426
0.00251626
0.0017541
0.00127821
0.0011549
0.00111535
0.0012963
0.0011266
0.00116264
0.00118822
0.00120951
0.00124419
0.00126034
0.00121668
0.0011902
0.00120665
0.0012663
0.00129508
0.00143681
0.0012699
0.00127123
0.00119056
0.00116831
0.00148098
0.00161303
0.000876593
0.00106495
0.00120771
0.0014302
0.000693903
0.00072116
0.000760666
0.000794925
0.000740524
0.000768364
0.000772713
0.000880205
0.000875605
0.00104223
0.00122528
0.00119164
0.000881778
0.000936864
0.000738071
0.000687371
0.000560126
0.000407624
0.000433431
0.000407809
0.000536489
0.000568321
0.00058425
0.000603284
0.000586951
0.00059653
0.000593835
0.000605935
0.000593628
0.000580055
0.000598726
0.000468165
0.000590123
0.000706811
0.000707435
0.000833012
0.000698711
0.000728749
0.000666348
0.000752938
0.000348139
0.000376392
0.000402557
0.000438197
0.000450136
0.00043055
0.000429238
0.00041998
0.00042922
0.000399407
0.00037975
0.000414305
0.000424097
0.000307542
0.000406983
0.000409618
0.000446347
0.000473721
0.00045578
0.000489118
0.000253188
0.000251566
0.000247977
0.000253082
0.000271206
0.00032316
0.000316233
0.000323549
0.000339495
0.000353456
0.000360387
0.000363666
0.000363344
0.000382586
0.000384181
0.000410727
0.000409497
0.000435176
0.000428104
0.00045869
0.000208494
0.000212276
0.000218224
0.00020974
0.000192956
0.000186971
0.000200689
0.000211355
0.000221299
0.000234392
0.000245728
0.000261902
0.000280398
0.000292761
0.00029757
0.000311718
0.00031798
0.000329412
0.000317447
0.00032185
0.000158928
0.000172589
0.000184882
0.000201194
0.000222669
0.000235152
0.000238485
0.00023908
0.000242768
0.000252036
0.000263397
0.000263029
0.000268063
0.00026416
0.000267004
0.000263851
0.000261334
0.000248537
0.000239171
0.000304405
0.000170485
0.000172763
0.000174027
0.000178871
0.00017754
0.000173521
0.000177872
0.000178525
0.00018931
0.000188605
0.000195166
0.000209519
0.000213268
0.000220683
0.000227003
0.000234314
0.000240133
0.000247907
0.00024735
0.000271301
0.000169444
0.00017299
0.000174506
0.000176386
0.000180976
0.000188456
0.000190607
0.000193015
0.000193122
0.000193729
0.000196836
0.000200749
0.00020333
0.000205281
0.000206683
0.000210254
0.000211522
0.000218983
0.000217653
0.000235756
0.000147581
0.000153219
0.000159105
0.00016245
0.000162936
0.000161904
0.000165392
0.000169587
0.000175707
0.000182908
0.000186722
0.000189619
0.000193185
0.000198065
0.00020042
0.000202012
0.00020339
0.000213272
0.000218559
0.00022463
0.000155287
0.000154206
0.000154356
0.000155597
0.000157741
0.000158957
0.000156751
0.000154767
0.000153719
0.00015595
0.000157235
0.000158451
0.000161239
0.000164859
0.0001676
0.000173879
0.000174094
0.000173529
0.000170205
0.000180267
0.00012638
0.000127048
0.000127373
0.000129532
0.000133793
0.000139383
0.000144688
0.000146055
0.000145223
0.000142188
0.000140604
0.000140862
0.000140179
0.000141334
0.000141633
0.000143519
0.000144167
0.000145221
0.000145295
0.000153552
0.000102428
0.000100034
9.83919e-05
9.48214e-05
8.90514e-05
8.40671e-05
8.34251e-05
8.68792e-05
9.15987e-05
9.4259e-05
9.49109e-05
9.69548e-05
0.000100064
0.000102654
9.99545e-05
9.59576e-05
9.27829e-05
9.54531e-05
9.2983e-05
9.47376e-05
7.33699e-05
7.62431e-05
7.80063e-05
8.16429e-05
8.43569e-05
8.25395e-05
7.6842e-05
7.23206e-05
7.05075e-05
7.23687e-05
7.16102e-05
6.79501e-05
6.25696e-05
5.65438e-05
5.58409e-05
6.00863e-05
6.19534e-05
6.5016e-05
6.76876e-05
7.14347e-05
4.97236e-05
4.84924e-05
4.5057e-05
4.20034e-05
4.16474e-05
4.57589e-05
4.76663e-05
4.75427e-05
4.67794e-05
4.6043e-05
4.56723e-05
4.51717e-05
4.46989e-05
4.44296e-05
4.40102e-05
4.19931e-05
4.12621e-05
4.07182e-05
3.65201e-05
3.15259e-05
0.000936688
0.00107624
0.000826607
0.000937054
0.000948212
0.000961222
0.000993089
0.00102036
0.0010425
0.00108116
0.00112916
0.00115567
0.00120864
0.00124603
0.00133254
0.00133456
0.00143756
0.00116796
0.00413657
0.0172216
0.000870082
0.000970666
0.000798027
0.000904115
0.000932418
0.000964964
0.0010077
0.00103658
0.00107821
0.00111806
0.00115521
0.00119602
0.0012438
0.00127385
0.00133435
0.00131976
0.001433
0.00121155
0.00362398
0.0167523
0.000955372
0.00104646
0.000830257
0.000932601
0.000953161
0.000995802
0.00102271
0.00104762
0.00108239
0.00112829
0.00117058
0.00119757
0.00124327
0.00128644
0.00136042
0.00137992
0.00147385
0.00130521
0.00468827
0.0161121
0.000983463
0.00106453
0.000866358
0.000966568
0.000988882
0.000996366
0.00100228
0.00103869
0.00109469
0.00113328
0.00116303
0.00120988
0.00125888
0.00129911
0.00136673
0.00137628
0.00150834
0.00142625
0.00471555
0.015561
0.00100469
0.00106482
0.000843377
0.000926565
0.000927733
0.00094742
0.00100957
0.00109836
0.00113433
0.0011483
0.00118117
0.00121723
0.00125593
0.00130795
0.00136668
0.0014065
0.00154946
0.00146182
0.00438703
0.0147731
0.00100291
0.00101834
0.00084575
0.000953405
0.000981914
0.00105001
0.00112792
0.00113515
0.00109592
0.00111527
0.00115524
0.00120358
0.00125267
0.00130611
0.00137815
0.0014336
0.00155865
0.00147036
0.00343709
0.0135541
0.000953484
0.000981598
0.000871685
0.000961554
0.000995231
0.00102306
0.00101653
0.000999887
0.00103229
0.00111134
0.00116275
0.00120126
0.00124023
0.00132122
0.00137287
0.00144573
0.00152401
0.00147413
0.00258317
0.0107059
0.000984881
0.00102151
0.000909628
0.000982168
0.000982377
0.00099123
0.000997709
0.0010511
0.00113103
0.00118862
0.00118604
0.00121384
0.0012965
0.00137023
0.00141108
0.00147468
0.00147556
0.00147453
0.00206139
0.00851425
0.000991753
0.000989453
0.000886975
0.000889553
0.00093523
0.000948701
0.000994655
0.00104449
0.00107069
0.00109751
0.001116
0.00123407
0.00131553
0.00133657
0.00136248
0.00139675
0.00139775
0.00143039
0.00184532
0.00698481
0.00091827
0.000918045
0.000836568
0.000897282
0.000928737
0.00096952
0.00103137
0.00107678
0.00113733
0.0011886
0.00127486
0.00136354
0.00131189
0.00130821
0.00132857
0.00137629
0.00139236
0.00149456
0.00168865
0.00585174
0.000982246
0.000980915
0.000921323
0.000995451
0.00101945
0.00107931
0.00110807
0.00113987
0.00114552
0.00114077
0.00114492
0.00110911
0.00109612
0.00118888
0.00129106
0.00135691
0.00136651
0.00152495
0.00171001
0.00522909
0.000923768
0.000902391
0.000878603
0.000925615
0.000958501
0.000985999
0.000994786
0.00101293
0.00102072
0.00108211
0.00112811
0.00120548
0.00131007
0.00144504
0.00144622
0.00138689
0.00144172
0.00161306
0.00165608
0.00454012
0.000935336
0.000959651
0.000940475
0.000995589
0.00103125
0.0010367
0.00107006
0.00109569
0.00114752
0.00120794
0.00125288
0.00131288
0.00131249
0.00131034
0.00123154
0.00130841
0.0014786
0.00155224
0.00153824
0.00416152
0.000952912
0.000976276
0.00094165
0.00100211
0.00100813
0.00103729
0.00107351
0.00110136
0.00115843
0.00117217
0.00120634
0.00120574
0.00123702
0.00128037
0.00136543
0.001565
0.00164029
0.00147105
0.00144419
0.00383849
0.00099406
0.000998797
0.000957028
0.00100528
0.00100936
0.00104678
0.00106596
0.00111402
0.00113985
0.00117385
0.00120753
0.00124472
0.00130598
0.00136792
0.00141884
0.00148392
0.00134984
0.00131316
0.00161416
0.00401948
0.000916547
0.000921789
0.000915393
0.000963398
0.00101142
0.00103652
0.00108782
0.00111568
0.00115596
0.00117917
0.00122856
0.00125522
0.00131977
0.0013413
0.00141578
0.00143498
0.00149657
0.00176451
0.00189042
0.00260258
0.000913975
0.000977162
0.000931158
0.00101616
0.0010268
0.00106763
0.00108808
0.00113371
0.00115505
0.00121616
0.00124882
0.00131785
0.00135121
0.00141075
0.00144764
0.00151055
0.00159781
0.00166786
0.00156484
0.00161423
0.000913387
0.000965732
0.000935835
0.00100544
0.00102624
0.0010688
0.00108415
0.00113164
0.00114335
0.00120071
0.00119905
0.0012712
0.0012775
0.00136264
0.00137608
0.00145399
0.00149107
0.00166711
0.00170162
0.00184447
0.000950207
0.000979844
0.000958201
0.00103071
0.00105384
0.00109669
0.00114341
0.00117747
0.00121565
0.00123578
0.00128656
0.00130176
0.00134318
0.00138126
0.00142454
0.00147163
0.00150337
0.00153244
0.0015597
0.00241009
0.000953307
0.00100162
0.000966348
0.00103088
0.00104771
0.00107129
0.00110681
0.00114292
0.00119418
0.00122886
0.00127835
0.00134193
0.0013982
0.00145741
0.00150561
0.00152626
0.00163092
0.00164339
0.00161636
0.00333736
0.000501001
0.000448126
0.000329305
0.000339464
0.000383854
0.000369514
0.000357245
0.000348882
0.000408564
0.000373872
0.000388616
0.000392168
0.000294477
0.000165253
0.000711253
0.00388256
0.00853862
0.0107533
0.00755902
0.000594769
0.000558866
0.000567978
0.000419216
0.000343064
0.000361605
0.000379317
0.000404578
0.000377521
0.000378005
0.000425717
0.000438034
0.000437105
0.000393672
0.000252684
0.000171447
0.00185591
0.00683594
0.0109082
0.00952049
0.00215692
0.000517557
0.000547766
0.000487247
0.000427789
0.000434689
0.000397408
0.000420425
0.000434786
0.000452834
0.000426745
0.000450132
0.000515115
0.000485032
0.000402552
0.00022721
0.000593327
0.0051742
0.0104861
0.0103611
0.00460219
0.000575064
0.000584837
0.000475045
0.000390282
0.000425621
0.000443524
0.000458418
0.000438782
0.000464526
0.000492725
0.000485739
0.000465755
0.000542703
0.000524635
0.000316861
0.000190263
0.00279271
0.00935401
0.0113065
0.00683815
0.000561556
0.000633715
0.000596668
0.00048009
0.00046956
0.000443938
0.000483512
0.000501353
0.000510953
0.000517099
0.000549865
0.00059838
0.000582166
0.000596679
0.000511835
0.000323435
0.00120719
0.00837285
0.011817
0.00855277
0.00057821
0.000593628
0.000560984
0.000481001
0.000510106
0.000506376
0.000520838
0.000516672
0.000552713
0.00057149
0.000574939
0.000599075
0.000637168
0.00071144
0.000665483
0.000372163
0.000485855
0.00725288
0.0118715
0.0109518
0.000606195
0.000678113
0.000643454
0.000512741
0.000516279
0.000508208
0.000548653
0.000568348
0.000583568
0.000606805
0.000636627
0.000689964
0.000680818
0.000722868
0.000747785
0.000579804
0.000332094
0.00506222
0.0119559
0.0129437
0.000601717
0.000640749
0.000656344
0.000568703
0.000592517
0.00057296
0.000588811
0.000593634
0.000628837
0.000649684
0.000672925
0.00071116
0.000735015
0.000792143
0.000824015
0.000691698
0.000141581
0.00321109
0.0117043
0.0149079
0.000660523
0.000715741
0.000707049
0.000567283
0.000586586
0.000595253
0.000626976
0.00063989
0.000659502
0.000692303
0.00071719
0.000779769
0.000788061
0.000812477
0.000882439
0.000870335
0.000193646
0.00210734
0.0114212
0.0155771
0.000645373
0.000683197
0.000745893
0.00064513
0.000662826
0.000641031
0.000653922
0.000668758
0.000704608
0.000726983
0.000769107
0.000820395
0.000828619
0.000898367
0.000936965
0.000938064
0.00040136
0.00135885
0.0110535
0.0164145
0.000683551
0.000714503
0.000749381
0.000619143
0.000655955
0.000681456
0.000708968
0.000714336
0.000735228
0.000775011
0.000804374
0.000867939
0.000879293
0.000919256
0.000968207
0.00102538
0.000609921
0.000970272
0.0106756
0.0171094
0.00067795
0.000690602
0.000780242
0.000691612
0.000719657
0.000704704
0.000712877
0.000736914
0.000777361
0.000798305
0.000853294
0.000906694
0.000904182
0.000985797
0.00101325