/*--------------------------------*- C++ -*----------------------------------*\
  =========                 |
  \\      /  F ield         | OpenFOAM: The Open Source CFD Toolbox
   \\    /   O peration     | Website:  https://openfoam.org
    \\  /    A nd           | Version:  9
     \\/     M anipulation  |
\*---------------------------------------------------------------------------*/
FoamFile
{
    format      ascii;
    class       volScalarField;
    location    "18";
    object      p;
}
// * * * * * * * * * * * * * * * * * * * * * * * * * * * * * * * * * * * * * //

dimensions      [0 2 -2 0 0 0 0];

internalField   nonuniform List<scalar> 
46400
(
-195.775
-186.389
-166.595
-149.902
-134.158
-119.985
-106.945
-94.9326
-83.946
-73.7347
-64.3126
-55.5092
-47.3042
-39.6008
-32.3542
-25.3878
-18.7884
-12.4169
-5.26682
-1.71442
-159.752
-150.001
-131.395
-116.045
-101.622
-88.5342
-76.6223
-65.6129
-55.5818
-46.2773
-37.7417
-29.8104
-22.5066
-15.6924
-9.38805
-3.493
1.94689
7.12251
12.3728
14.6376
-123.156
-113.444
-96.3199
-82.0586
-68.9991
-56.9895
-46.1603
-36.1616
-27.1124
-18.7342
-11.0837
-3.99211
2.5216
8.53366
14.07
19.2151
23.9062
28.2443
32.4789
33.548
-86.4245
-76.7628
-61.4411
-48.4267
-36.6526
-25.8389
-16.1155
-7.16333
0.909694
8.33179
15.0821
21.2913
26.9693
32.2011
36.9638
41.3588
45.3754
49.0446
52.9055
53.739
-48.9496
-40.4495
-26.8756
-15.0387
-4.60292
5.11623
13.7321
21.6956
28.8076
35.3403
41.2193
46.6055
51.4815
55.9322
59.9858
63.6743
66.9917
70.0205
73.1607
73.5624
-12.927
-5.90275
6.23301
16.9587
26.3851
35.0205
42.6911
49.6706
55.8983
61.5411
66.6202
71.2059
75.354
79.082
82.4511
85.4854
88.2188
90.6793
93.2749
93.3734
21.4373
27.3317
38.6565
48.4281
56.8032
64.505
71.1545
77.2392
82.5477
87.3377
91.5725
95.3693
98.7595
101.782
104.489
106.876
108.975
110.845
112.88
112.618
53.6108
59.4434
70.0303
78.7703
86.161
92.8562
98.6036
103.739
108.237
112.186
115.686
118.724
121.428
123.761
125.846
127.666
129.23
130.599
132.198
131.741
85.5849
92.2472
101.161
108.873
114.996
120.63
125.316
129.473
133.044
136.125
138.805
141.091
143.078
144.746
146.16
147.34
148.278
149.072
150.01
149.204
117.112
124.292
131.074
137.471
142.455
146.933
150.703
153.909
156.66
158.941
160.874
162.439
163.749
164.796
165.637
166.285
166.719
167.015
167.46
166.339
147.492
154.803
159.832
164.81
168.683
171.999
174.761
177.013
178.899
180.369
181.581
182.46
183.129
183.528
183.762
183.819
183.723
183.5
183.414
182.045
176.688
182.336
186.433
189.956
192.882
195.22
197.137
198.577
199.695
200.44
200.953
201.204
201.281
201.167
200.892
200.475
199.911
199.251
198.687
197.015
203.003
207.258
210.482
213.015
215.064
216.547
217.695
218.402
218.866
218.972
218.878
218.515
218.001
217.312
216.511
215.582
214.55
213.43
212.417
210.487
225.908
229.336
231.793
233.558
234.913
235.726
236.221
236.322
236.189
235.785
235.191
234.39
233.449
232.354
231.169
229.87
228.486
227.015
225.667
223.478
246.631
249.294
251.114
252.135
252.846
253.019
252.943
252.495
251.833
250.893
249.792
248.496
247.08
245.526
243.902
242.201
240.435
238.624
236.923
234.558
264.566
266.584
267.864
268.311
268.534
268.17
267.61
266.679
265.624
264.328
262.903
261.314
259.627
257.806
255.906
253.917
251.87
249.758
247.79
245.135
280.476
281.805
282.565
282.477
282.206
281.443
280.443
279.067
277.503
275.746
273.873
271.894
269.838
267.715
265.547
263.331
261.079
258.785
256.67
253.935
294.261
294.85
295.128
294.56
293.874
292.714
291.437
289.848
288.083
286.094
283.976
281.72
279.389
276.98
274.528
272.044
269.531
266.99
264.647
261.734
305.275
305.235
305.023
304.134
303.048
301.535
299.853
297.939
295.9
293.688
291.38
288.96
286.472
283.935
281.351
278.758
276.131
273.492
271.058
268.083
314.062
313.918
313.259
312.221
310.833
309.161
307.215
305.1
302.794
300.386
297.844
295.229
292.538
289.804
287.038
284.254
281.461
278.64
276.046
272.934
-454.378
-453.151
-452.551
-445.224
-435.522
-424.906
-413.544
-402.667
-391.69
-381.066
-370.721
-360.598
-350.821
-341.201
-332.033
-322.927
-314.357
-305.89
-297.885
-290.262
-466.302
-465.483
-462.933
-452.826
-440.304
-427.382
-414.752
-402.507
-390.669
-379.193
-368.104
-357.388
-347.084
-337.027
-327.496
-318.066
-309.268
-300.535
-292.406
-284.571
-481.203
-480.234
-474.074
-460.923
-445.57
-430.597
-416.627
-402.894
-389.862
-377.419
-365.464
-353.996
-343.039
-332.434
-322.4
-312.561
-303.415
-294.374
-286.059
-277.999
-496.261
-495.153
-484.684
-468.419
-450.234
-433.201
-417.355
-402.433
-388.253
-374.897
-362.192
-350.111
-338.613
-327.57
-317.157
-306.989
-297.603
-288.299
-279.848
-271.549
-505.922
-505.239
-490.415
-471.828
-451.935
-433.582
-416.384
-400.391
-385.336
-371.142
-357.708
-344.99
-332.935
-321.427
-310.6
-300.104
-290.43
-280.878
-272.284
-263.775
-513.328
-509.984
-491.56
-471.329
-450.626
-431.349
-413.312
-396.522
-380.752
-365.989
-352.032
-338.885
-326.445
-314.619
-303.496
-292.754
-282.911
-273.16
-264.442
-255.73
-514.422
-509.441
-491.421
-468.871
-447.051
-426.822
-408.067
-390.569
-374.214
-358.908
-344.504
-330.953
-318.175
-306.083
-294.73
-283.834
-273.853
-263.913
-255.249
-246.311
-510.689
-506.067
-484.551
-462.014
-440.032
-419.337
-400.243
-382.431
-365.71
-350.137
-335.462
-321.699
-308.737
-296.492
-284.991
-274.024
-263.939
-254
-245.424
-236.477
-504.457
-500.102
-479.951
-454.437
-431.747
-410.322
-390.522
-372.229
-355.143
-339.247
-324.358
-310.407
-297.307
-284.976
-273.421
-262.421
-252.3
-242.372
-233.768
-224.744
-495.369
-489.571
-467.209
-442.221
-418.808
-397.471
-377.622
-359.327
-342.212
-326.344
-311.459
-297.545
-284.497
-272.224
-260.716
-249.826
-239.789
-229.959
-221.511
-212.483
-481.133
-475.049
-452.583
-427.04
-404.043
-382.501
-362.584
-344.269
-327.145
-311.256
-296.427
-282.553
-269.573
-257.394
-245.994
-235.223
-225.286
-215.611
-207.314
-198.335
-464.5
-457.042
-433.772
-408.735
-385.478
-364.488
-344.76
-326.704
-309.851
-294.241
-279.663
-266.069
-253.36
-241.444
-230.293
-219.793
-210.082
-200.627
-192.577
-183.652
-443.074
-435.37
-412.049
-387.375
-364.813
-344.02
-324.714
-306.964
-290.419
-275.077
-260.793
-247.445
-234.997
-223.345
-212.454
-202.238
-192.774
-183.644
-175.844
-167.082
-419.807
-411.202
-387.84
-363.739
-341.422
-321.393
-302.502
-285.259
-269.194
-254.323
-240.492
-227.607
-215.596
-204.358
-193.862
-184.021
-174.892
-166.085
-158.622
-150.008
-392.569
-383.947
-360.568
-337.565
-315.952
-296.438
-278.268
-261.553
-246.029
-231.63
-218.262
-205.795
-194.204
-183.38
-173.281
-163.868
-155.105
-146.743
-139.612
-131.188
-363.976
-355.001
-331.516
-309.541
-288.653
-269.947
-252.419
-236.387
-221.505
-207.726
-194.95
-183.054
-171.996
-161.665
-152.04
-143.061
-134.695
-126.752
-120
-111.799
-332.527
-323.58
-300.324
-279.423
-259.591
-241.658
-225.004
-209.672
-195.464
-182.286
-170.085
-158.73
-148.201
-138.378
-129.236
-120.764
-112.823
-105.384
-99.0557
-91.0763
-300.139
-290.839
-268.48
-248.402
-229.516
-212.463
-196.583
-182.045
-168.596
-156.123
-144.584
-133.842
-123.888
-114.605
-105.991
-97.9945
-90.4921
-83.6259
-77.8166
-70.1384
-265.939
-256.703
-235.119
-216.145
-198.252
-182.119
-167.14
-153.358
-140.647
-128.85
-117.954
-107.814
-98.4119
-89.637
-81.5106
-73.944
-66.7769
-60.4988
-55.0197
-46.8439
-231.331
-221.967
-201.35
-183.412
-166.536
-151.328
-137.27
-124.342
-112.435
-101.342
-91.0765
-81.4691
-72.5288
-64.1107
-56.207
-48.6568
-41.5017
-35.0027
-28.1879
-19.5927
-252.726
-208.581
-166.716
-141.104
-113.954
-96.9941
-79.9019
-67.6
-56.6378
-47.4049
-40.1734
-33.1424
-28.1911
-22.8303
-19.3144
-15.2625
-12.6004
-10.2794
-9.30999
-8.98646
-246.535
-203.585
-161.925
-137.334
-110.587
-94.2485
-77.5172
-65.5647
-54.8876
-45.8644
-38.8458
-31.9569
-27.165
-21.9134
-18.5396
-14.5707
-12.0724
-9.77289
-8.89663
-8.55696
-239.477
-198.003
-156.933
-133.481
-107.192
-91.5162
-75.1602
-63.5339
-53.1549
-44.3302
-37.5179
-30.7772
-26.1454
-21.0137
-17.7747
-13.8987
-11.517
-9.13973
-8.38528
-8.08427
-232.669
-192.702
-151.922
-129.595
-103.695
-88.6068
-72.695
-61.3694
-51.3236
-42.6939
-36.1124
-29.5179
-25.0479
-20.0342
-16.9403
-13.1552
-10.913
-8.60284
-7.84296
-7.58784
-224.78
-186.645
-146.583
-125.454
-100.211
-85.6931
-70.2537
-59.2164
-49.5107
-41.0677
-34.709
-28.2624
-23.9603
-19.0718
-16.1182
-12.4299
-10.3027
-8.01512
-7.26185
-7.06412
-216.983
-180.85
-141.348
-121.263
-96.5997
-82.6092
-67.7042
-56.9306
-47.5984
-39.3412
-33.2263
-26.9297
-22.7926
-18.0292
-15.2254
-11.6364
-9.65707
-7.37945
-6.63937
-6.52046
-208.118
-174.096
-135.726
-116.853
-93.0046
-79.5214
-65.1777
-54.6591
-45.7029
-37.6271
-31.7464
-25.601
-21.6346
-17.0032
-14.345
-10.8619
-9.00986
-6.77145
-5.98825
-5.94768
-199.252
-167.544
-130.139
-112.346
-89.2681
-76.2639
-62.5431
-52.2614
-43.7095
-35.8178
-30.1871
-24.1976
-20.3968
-15.8976
-13.3942
-10.0222
-8.32893
-6.14474
-5.33084
-5.38101
-189.275
-160.076
-124.205
-107.672
-85.5611
-73.0052
-59.9289
-49.8798
-41.729
-34.0219
-28.6307
-22.798
-19.1678
-14.8071
-12.4542
-9.19947
-7.64632
-5.53091
-4.67321
-4.80046
-179.201
-152.738
-118.206
-102.83
-81.7032
-69.5811
-57.2084
-47.3827
-39.6539
-32.1386
-26.9966
-21.3278
-17.8603
-13.6384
-11.4452
-8.31495
-6.93884
-4.90288
-4.04846
-4.23464
-167.85
-144.594
-111.943
-97.8718
-77.8858
-66.1594
-54.5024
-44.9033
-37.5867
-30.2686
-25.365
-19.8606
-16.5603
-12.482
-10.444
-7.44348
-6.25002
-4.28135
-3.47401
-3.69497
-156.32
-136.476
-105.526
-92.6894
-73.9169
-62.5851
-51.6938
-42.3225
-35.4301
-28.3204
-23.6596
-18.3277
-15.1845
-11.2496
-9.37467
-6.50107
-5.519
-3.6613
-2.93987
-3.19475
-143.449
-127.69
-98.9444
-87.425
-69.9924
-59.0196
-48.8928
-39.7614
-33.2772
-26.3854
-21.9571
-16.7979
-13.8152
-10.0266
-8.30918
-5.57861
-4.82048
-3.04586
-2.45093
-2.70002
-130.248
-118.813
-92.1466
-81.8912
-65.9136
-55.3164
-45.9901
-37.1123
-31.04
-24.3806
-20.1858
-15.2073
-12.3736
-8.72988
-7.1756
-4.5868
-4.11403
-2.43153
-1.98105
-2.20744
-115.769
-109.452
-85.3312
-76.3148
-61.8797
-51.6328
-43.0859
-34.4811
-28.8001
-22.385
-18.4155
-13.618
-10.9359
-7.43725
-6.04125
-3.56066
-3.39565
-1.81608
-1.54384
-1.73746
-100.515
-99.7659
-78.3112
-70.5055
-57.7427
-47.8807
-40.1215
-31.8056
-26.505
-20.346
-16.5976
-11.985
-9.43979
-6.08331
-4.83329
-2.45996
-2.65209
-1.21346
-1.11282
-1.27626
-84.2602
-89.4218
-71.1157
-64.4546
-53.4699
-44.0481
-37.0768
-29.1
-24.1754
-18.2925
-14.7647
-10.3412
-7.93866
-4.72434
-3.61771
-1.25032
-1.83689
-0.633771
-0.772974
-0.84713
-68.7486
-79.5331
-64.0915
-58.3558
-49.1117
-40.1137
-33.8959
-26.272
-21.7165
-16.1293
-12.8312
-8.60808
-6.34168
-3.27216
-2.28723
0.0747322
-1.08139
0.153803
-0.288642
-0.344238
-47.4674
-68.9678
-58.1473
-53.3218
-45.6877
-37.0278
-31.3371
-23.9679
-19.6366
-14.2951
-11.1707
-7.10265
-4.92747
-1.98001
-1.10025
1.17204
-0.510279
0.503513
-0.0514751
-0.12786
-22.6994
-53.3911
-48.2628
-45.0019
-40.06
-32.5339
-27.858
-21.0718
-17.1616
-12.1511
-9.22436
-5.36024
-3.31815
-0.537756
0.309363
2.19697
0.422055
0.217709
-0.81395
0.521644
18.006
28.2851
16.8014
16.5052
9.07168
10.622
7.11631
8.57728
7.52316
9.26048
9.13011
10.531
10.5968
12.0241
11.8654
13.3949
12.3604
14.3233
10.4872
17.3141
95.1693
87.4955
59.29
55.7972
42.7393
38.6071
31.925
29.1187
25.3824
23.7393
22.1286
21.6406
20.9012
20.8562
20.2179
20.5786
19.36
20.3448
18.3084
20.5473
108.53
99.3625
85.1926
77.1579
68.5012
62.9778
57.2201
53.7553
50.0232
47.5289
44.866
43.2078
41.7055
40.5444
39.7752
38.8471
38.7793
37.8964
38.2724
38.79
121.712
113.383
101.014
93.987
84.6829
79.0587
72.5485
68.017
63.357
59.9756
56.5977
53.8091
51.2345
49.2241
47.5327
46.118
45.1463
44.1343
44.0724
43.9369
116.538
109.402
102.931
97.0289
91.4529
86.4261
81.8407
77.8654
74.1381
71.032
68.175
65.7917
63.5758
61.5412
59.8782
58.0984
56.8093
55.3614
54.4384
54.4153
120.354
115.585
109.711
104.869
99.628
95.3522
90.688
87.0032
83.0793
79.948
76.6565
73.9894
71.2807
69.037
66.8401
64.9834
63.3447
61.8502
61.2193
60.694
115.979
112.225
109
105.312
101.753
98.3323
95.0381
91.989
88.9986
86.3572
83.6835
81.3943
79.0121
76.9738
74.8818
72.9425
71.1977
69.3641
68.3809
67.8601
118.404
115.655
112.38
109.317
106.256
103.439
100.338
97.763
94.7872
92.4424
89.6438
87.5057
84.8736
82.9038
80.408
78.5315
76.1829
74.3293
72.7015
72.21
116.79
115.017
112.842
110.732
108.125
106.02
103.551
101.523
99.163
97.2551
94.9529
93.1549
90.8365
89.0827
86.6473
84.8039
82.151
80.0224
77.7075
77.0194
118.564
116.848
114.701
113.023
110.992
109.287
107.212
105.54
103.453
101.837
99.7229
98.1639
95.9512
94.41
91.9762
90.3244
87.3926
85.5555
82.6862
82.0712
118.761
117.705
116.289
115.004
113.38
112.093
110.512
109.251
107.705
106.497
104.939
103.788
102.122
101.006
99.0606
97.9273
95.2264
94.302
89.9477
89.9215
119.976
119.012
117.726
116.842
115.569
114.63
113.38
112.442
111.216
110.317
109.108
108.302
107.043
106.391
104.878
104.495
102.06
102.573
99.0015
101.036
121.282
120.707
119.758
119.064
118.177
117.517
116.733
116.132
115.497
114.959
114.513
114.01
113.829
113.301
113.482
112.858
113.457
112.83
113.728
115.891
122.297
121.808
121.101
120.639
119.984
119.575
119.013
118.686
118.264
118.13
117.909
117.984
118.048
118.357
118.902
119.454
120.981
121.607
125.053
124.765
123.6
123.281
122.762
122.504
122.074
121.93
121.612
121.623
121.45
121.632
121.678
122.117
122.499
123.279
124.2
125.426
127.052
128.865
132.102
134.097
124.64
124.367
124.004
123.807
123.551
123.482
123.393
123.52
123.594
123.924
124.172
124.767
125.241
126.19
126.967
128.331
129.639
131.612
133.852
137.445
125.448
125.295
125.065
124.995
124.845
124.886
124.806
124.994
125.039
125.471
125.657
126.405
126.755
127.897
128.406
129.963
130.703
132.627
133.214
141.81
126.173
125.991
125.814
125.748
125.713
125.796
125.926
126.173
126.427
126.835
127.236
127.849
128.372
129.228
129.824
131.049
131.649
133.333
133.951
136.412
126.623
126.549
126.447
126.437
126.42
126.531
126.585
126.825
127.004
127.428
127.74
128.356
128.802
129.611
130.182
131.149
131.754
132.757
133.022
138.597
126.804
126.694
126.623
126.647
126.689
126.788
126.945
127.184
127.474
127.872
128.291
128.867
129.402
130.187
130.802
131.844
132.47
133.841
134.363
136.164
235.709
232.727
229.189
224.841
219.92
214.122
207.727
200.468
191.948
182.764
172.792
162.219
150.93
138.922
126.321
112.889
99.3408
84.6909
70.4311
55.404
211.25
209.772
207.842
205.719
203.204
200.422
197.393
193.312
187.676
182.383
177.531
173.364
168.602
163.872
158.861
153.791
147.945
140.385
132.653
123.389
172.144
171.082
169.727
168.436
166.733
165.184
163.068
161.115
158.515
156.122
152.366
148.319
144.218
140.469
136.628
133.225
129.925
127.233
123.744
121.146
160.324
159.542
158.691
157.783
156.779
155.722
154.511
153.332
151.878
150.662
149.059
146.604
144.237
142.116
139.816
138.239
135.842
134.033
131.75
129.928
144.084
143.505
142.793
142.138
141.358
140.57
139.717
138.796
137.801
136.785
135.524
134.17
132.326
130.401
128.599
126.893
125.051
123.497
121.789
120.44
138.478
138.001
137.489
136.993
136.401
135.903
135.213
134.724
133.925
133.391
132.491
131.862
130.843
129.566
128.396
127.242
126.272
125.367
124.415
123.657
131.719
131.31
130.867
130.422
129.933
129.459
128.918
128.409
127.752
127.169
126.308
125.416
124.298
123.38
122.359
121.494
120.587
119.782
118.917
118.156
129.093
128.773
128.42
128.09
127.703
127.296
126.912
126.452
126.069
125.551
125.185
124.63
124.025
123.465
122.867
122.441
121.797
121.32
120.692
120.206
126.534
126.244
125.926
125.596
125.175
124.689
124.189
123.705
123.216
122.736
122.259
121.78
121.327
120.895
120.458
119.98
119.525
119.071
118.599
118.173
125.653
125.413
125.169
124.906
124.646
124.37
124.097
123.804
123.511
123.204
122.885
122.566
122.225
121.893
121.543
121.208
120.845
120.493
120.102
119.719
124.751
124.529
124.298
124.06
123.812
123.559
123.296
123.03
122.756
122.479
122.199
121.915
121.629
121.339
121.046
120.759
120.463
120.181
119.881
119.61
125.205
125.038
124.867
124.691
124.508
124.312
124.106
123.89
123.658
123.403
123.152
122.908
122.666
122.414
122.154
121.888
121.615
121.339
121.054
120.771
125.247
125.086
124.919
124.755
124.58
124.401
124.217
124.018
123.822
123.613
123.426
123.262
123.092
122.923
122.751
122.576
122.396
122.215
122.025
121.838
125.817
125.681
125.542
125.401
125.257
125.11
124.961
124.81
124.652
124.487
124.315
124.142
123.969
123.797
123.627
123.459
123.287
123.118
122.943
122.773
126.321
126.199
126.077
125.954
125.83
125.707
125.582
125.457
125.334
125.217
125.101
124.983
124.863
124.74
124.612
124.483
124.352
124.223
124.09
123.96
126.853
126.746
126.639
126.532
126.426
126.319
126.213
126.107
126.001
125.897
125.793
125.69
125.588
125.488
125.388
125.29
125.191
125.095
124.997
124.902
127.337
127.239
127.142
127.046
126.951
126.856
126.763
126.671
126.579
126.489
126.4
126.312
126.224
126.138
126.052
125.969
125.885
125.804
125.723
125.647
127.717
127.63
127.544
127.459
127.376
127.295
127.215
127.137
127.06
126.986
126.913
126.842
126.773
126.707
126.641
126.579
126.517
126.458
126.393
126.328
127.981
127.898
127.817
127.737
127.659
127.583
127.508
127.435
127.363
127.293
127.223
127.155
127.089
127.027
126.969
126.912
126.857
126.807
126.764
126.729
128.12
128.038
127.958
127.88
127.804
127.73
127.658
127.588
127.521
127.456
127.394
127.335
127.277
127.221
127.164
127.11
127.059
127.009
126.961
126.917
136.881
136.285
133.434
131.236
128.899
126.428
123.844
121.045
118.024
114.703
111.063
107.022
102.593
97.5917
92.1455
85.8829
79.238
71.3966
62.9048
57.1249
148.824
149.227
147.64
146.199
144.614
142.83
140.849
138.653
136.179
133.433
130.348
126.871
123.003
118.589
113.749
108.076
102.024
94.6637
86.9772
82.7874
162.663
163.61
162.485
161.514
160.347
158.999
157.491
155.752
153.794
151.569
149.035
146.158
142.9
139.143
134.919
129.953
124.47
117.838
110.282
106.286
176.225
177.334
176.557
176.064
175.375
174.547
173.549
172.376
170.979
169.355
167.434
165.199
162.608
159.551
156.109
151.906
147.319
141.511
134.846
130.185
189.248
190.57
190.187
190.095
189.836
189.456
188.951
188.282
187.421
186.35
185.004
183.416
181.478
179.193
176.491
173.206
169.546
164.82
159.498
154.386
201.904
203.407
203.406
203.731
203.933
204.037
204.01
203.834
203.467
202.927
202.169
201.203
199.943
198.386
196.482
194.067
191.38
187.621
183.951
178.593
213.402
215.09
215.513
216.189
216.753
217.213
217.556
217.805
217.926
217.934
217.741
217.391
216.749
215.916
214.666
213.132
211.129
208.581
205.865
201.451
224.178
226.139
227.008
228.09
229.084
230.005
230.854
231.623
232.277
232.806
233.145
233.323
233.259
232.982
232.346
231.421
230.045
228.272
226.016
222.808
234.424
236.511
237.641
239.003
240.287
241.512
242.673
243.767
244.751
245.643
246.39
247.018
247.383
247.573
247.378
246.966
246.085
244.946
243.218
240.745
243.133
245.4
246.975
248.704
250.404
252.07
253.683
255.254
256.72
258.106
259.332
260.419
261.254
261.914
262.239
262.412
262.097
261.613
260.402
258.509
251.544
254.068
255.943
257.957
259.93
261.837
263.68
265.442
267.09
268.655
270.061
271.373
272.488
273.512
274.23
274.792
274.915
274.934
274.176
272.934
258.644
261.273
263.358
265.603
267.812
269.99
272.133
274.233
276.277
278.268
280.167
281.996
283.646
285.206
286.414
287.501
288.091
288.603
288.261
287.559
265.102
267.927
270.276
272.764
275.208
277.623
279.994
282.321
284.582
286.76
288.822
290.744
292.479
294.058
295.374
296.627
297.422
298.18
298.041
298.118
270.143
273.061
275.542
278.166
280.772
283.35
285.919
288.46
290.958
293.402
295.763
298.032
300.189
302.205
304.06
305.691
306.982
307.883
308.291
308.451
274.704
277.799
280.364
283.139
285.873
288.603
291.303
293.981
296.586
299.142
301.572
303.933
306.092
308.153
309.875
311.471
312.5
313.534
313.755
313.674
277.413
280.468
283.053
285.866
288.677
291.481
294.302
297.089
299.877
302.585
305.288
307.85
310.392
312.704
314.963
316.863
318.68
319.922
321.012
321.21
279.754
282.962
285.54
288.423
291.29
294.172
297.033
299.908
302.708
305.503
308.173
310.795
313.235
315.557
317.637
319.506
321.051
322.248
322.999
323.129
279.579
282.81
285.424
288.335
291.217
294.113
296.996
299.88
302.717
305.535
308.264
310.96
313.486
315.977
318.162
320.325
321.981
323.654
324.332
325.453
279.033
282.188
284.882
287.813
290.733
293.654
296.568
299.466
302.315
305.111
307.825
310.428
312.929
315.214
317.394
319.188
320.894
322.075
323.093
323.361
276.579
279.722
282.331
285.183
288.013
290.843
293.655
296.471
299.221
301.964
304.589
307.184
309.589
311.915
313.94
315.817
317.241
318.395
318.986
319.076
-76.5609
-80.128
-83.9489
-87.8314
-91.8003
-95.9728
-100.149
-104.551
-108.977
-113.593
-118.26
-123.1
-127.98
-133.147
-137.893
-142.617
-147.822
-149.077
-151.353
-150.119
-71.7911
-75.4491
-79.3495
-83.3929
-87.4788
-91.8389
-96.1854
-100.829
-105.496
-110.422
-115.444
-120.686
-126.076
-131.622
-137.293
-143.328
-148.13
-151.926
-153.583
-153.484
-66.6165
-70.4097
-74.36
-78.5878
-82.7683
-87.3066
-91.8302
-96.665
-101.586
-106.735
-112.079
-117.585
-123.427
-129.251
-135.74
-141.572
-147.357
-153.15
-154.479
-154.982
-61.2711
-65.1745
-69.196
-73.5456
-77.9026
-82.6124
-87.3738
-92.4559
-97.6761
-103.188
-108.898
-114.909
-121.112
-127.652
-134.368
-141.353
-148.552
-154.655
-156.89
-158.146
-55.4542
-59.4489
-63.4933
-67.976
-72.398
-77.2681
-82.1785
-87.4696
-92.9438
-98.7291
-104.855
-111.238
-118.076
-125.317
-132.851
-140.878
-149.743
-157.09
-162.285
-163.228
-49.083
-53.1635
-57.2442
-61.8358
-66.4053
-71.4176
-76.545
-82.0412
-87.7869
-93.8904
-100.329
-107.148
-114.456
-122.123
-130.397
-139.303
-148.936
-157.508
-166.045
-168.039
-42.3342
-46.4064
-50.4443
-55.0565
-59.6329
-64.7175
-69.9369
-75.5676
-81.4938
-87.7987
-94.5399
-101.675
-109.367
-117.504
-126.4
-135.787
-145.986
-155.933
-165.944
-167.763
-34.4269
-38.5784
-42.4913
-47.2403
-51.8944
-57.0758
-62.4387
-68.2126
-74.322
-80.8494
-87.8221
-95.251
-103.287
-111.851
-121.158
-131.114
-141.934
-153.402
-162.928
-163.732
-25.5702
-29.8485
-33.8065
-38.5545
-43.2482
-48.4455
-53.8643
-59.6918
-65.8869
-72.5155
-79.64
-87.2474
-95.5293
-104.365
-114.039
-124.483
-135.974
-148.137
-158.963
-161.396
-15.991
-20.3446
-24.2506
-28.9608
-33.6321
-38.7916
-44.2078
-50.0431
-56.2642
-62.9449
-70.1301
-77.8313
-86.2321
-95.2105
-105.073
-115.7
-127.425
-139.927
-151.518
-154.362
-5.9974
-10.2408
-13.9767
-18.5457
-23.1122
-28.1645
-33.5049
-39.2586
-45.4135
-52.0515
-59.1948
-66.8873
-75.3093
-84.2897
-94.2654
-104.943
-116.793
-129.522
-141.767
-145.387
4.99619
0.808144
-2.72757
-7.1335
-11.5527
-16.4223
-21.6204
-27.2315
-33.2615
-39.7745
-46.8019
-54.4109
-62.7147
-71.6413
-81.5665
-92.0831
-104.007
-116.654
-129.38
-133.636
16.6971
12.6434
9.3341
5.16711
0.943898
-3.71673
-8.71571
-14.1201
-19.9314
-26.2524
-33.0643
-40.474
-48.5852
-57.302
-67.029
-77.3316
-89.0999
-101.6
-114.553
-119.268
29.2575
25.3223
22.309
18.4146
14.4346
10.0712
5.32934
0.193303
-5.37215
-11.4231
-17.9737
-25.1446
-32.9521
-41.4399
-50.8805
-60.8513
-72.4815
-84.4499
-97.6362
-102.739
42.5733
38.7915
36.0574
32.4993
28.788
24.7184
20.2713
15.4364
10.2077
4.46643
-1.73441
-8.55567
-15.9905
-24.1074
-33.0808
-42.6709
-53.8683
-65.173
-78.5234
-84.0346
56.7338
53.0644
50.6589
47.4756
44.0464
40.3326
36.2173
31.7371
26.8342
21.4703
15.6298
9.17373
2.16157
-5.57342
-14.0788
-23.2549
-33.9486
-44.474
-58.325
-64.0838
71.5425
68.0195
65.9189
63.1518
60.0305
56.6405
52.8773
48.7391
44.2317
39.24
33.8177
27.8037
21.2701
14.0153
6.13597
-2.57486
-12.4518
-22.4566
-35.7747
-41.8885
86.6948
83.538
81.8475
79.4917
76.7066
73.6703
70.2553
66.4972
62.3417
57.7717
52.76
47.1858
41.1276
34.3687
27.0168
18.793
9.64754
0.0148042
-12.465
-18.4906
103.054
99.866
98.3838
96.3543
93.8199
91.062
87.9847
84.564
80.8133
76.645
72.0794
66.9991
61.4726
55.2602
48.5646
40.9444
32.6231
23.5713
12.0905
6.10281
123.545
119.909
117.43
115.1
112.436
109.632
106.641
103.415
99.8933
96.0661
91.8773
87.2437
82.2044
76.562
70.4718
63.4512
56.0235
47.4448
37.4609
31.3233
59.628
59.4899
58.9895
58.1826
56.6946
54.797
53.2829
50.9195
48.3915
45.5284
41.5566
37.8071
31.3169
26.4396
16.1393
9.41765
-6.13211
-17.2339
-38.92
-58.2215
59.7164
59.5741
59.1935
58.3081
57.0343
55.1425
53.7843
51.5032
49.1149
46.3779
42.5743
39.0003
32.7851
28.1166
18.1426
11.6586
-3.39421
-13.6765
-35.0284
-53.3256
59.8654
59.7239
59.4775
58.4774
57.417
55.5322
54.3343
52.1406
49.8524
47.2217
43.6126
40.1117
34.2343
29.6744
20.2355
14.1204
-0.471644
-10.0415
-31.2323
-48.1377
59.9727
59.8026
59.7476
58.568
57.7549
55.868
54.8624
52.7622
50.6161
48.1262
44.6991
41.3743
35.8426
31.4417
22.3983
16.4712
2.50477
-6.33162
-27.01
-42.7342
60.1325
59.9607
60.1072
58.7215
58.2846
56.2573
55.4396
53.4419
51.3953
49.0284
45.7917
42.5655
37.3772
33.0794
24.6071
19.1002
5.62802
-2.63353
-22.7275
-37.0345
60.2602
60.0294
60.3872
58.8948
58.734
56.6687
55.9817
54.1137
52.1918
49.9912
46.9358
43.9083
39.071
34.9553
26.9128
21.5834
8.79714
1.38011
-18.1466
-30.9664
60.4317
60.2161
60.7326
59.149
59.208
57.182
56.5803
54.8357
53.01
50.9524
48.0728
45.1909
40.6803
36.7038
29.2055
24.3497
12.1325
5.22538
-13.6111
-24.966
60.5798
60.3148
61.0353
59.3453
59.6219
57.7029
57.1546
55.5495
53.8393
51.9715
49.2712
46.6259
42.4379
38.6791
31.631
27.005
15.444
9.71719
-8.63815
-17.0838
60.7669
60.4084
61.4003
59.5983
60.0602
58.2316
57.7807
56.3051
54.6929
52.9887
50.4575
48.0024
44.1232
40.543
34.015
29.9322
18.9779
14.461
-3.20271
-8.41052
60.9376
60.5339
61.68
59.8071
60.4958
58.7363
58.3865
57.0489
55.5523
54.0599
51.7193
49.5271
45.9469
42.6021
36.5538
32.7245
22.4456
19.5075
2.33511
-0.616843
61.1433
60.6617
61.9471
60.0409
60.9946
59.2717
59.0299
57.8324
56.435
55.1316
52.965
50.9962
47.7086
44.5737
39.0354
35.7319
26.145
24.0043
7.94646
7.44883
61.3358
60.7763
62.197
60.2312
61.3732
59.8269
59.6513
58.5979
57.3198
56.2562
54.3022
52.6027
49.6013
46.7008
41.6753
38.6298
29.7504
28.5141
13.9469
16.3046
61.5764
60.8833
62.4613
60.4786
61.8478
60.431
60.3067
59.4003
58.225
57.3845
55.6146
54.1616
51.4423
48.7796
44.223
41.7086
33.638
33.2283
20.0348
25.5174
61.7889
60.959
62.7901
60.6973
62.2829
61.0415
60.939
60.178
59.1299
58.5735
57.0331
55.8444
53.4001
50.9774
46.9528
44.7309
37.3727
37.9693
26.4859
35.518
62.0577
60.9736
63.1011
60.9628
62.7495
61.7481
61.6064
60.9919
60.0582
59.7781
58.427
57.4965
55.3243
53.1587
49.5675
47.8849
41.3894
42.8894
32.9586
45.8875
62.4734
60.9457
63.3185
61.2197
63.0789
62.4388
62.2096
61.748
60.939
61.018
59.8895
59.2313
57.314
55.41
52.3111
50.9702
45.1581
47.8239
39.7927
57.1685
62.6845
60.8022
63.5077
61.5425
63.688
63.3189
62.9539
62.5655
61.9659
62.4041
61.3886
60.9648
59.3257
57.7016
55.0422
54.2482
49.3835
53.1194
47.0895
69.0494
63.3405
60.7166
64.2502
61.8545
64.2886
64.2408
63.5575
63.3747
62.9351
63.8345
63.0238
62.8712
61.5131
60.1827
58.0003
57.5809
53.2299
57.8824
53.1285
80.2168
63.485
60.58
64.0894
62.0683
63.9664
64.7127
63.9372
63.775
63.4663
64.9214
64.075
64.2718
62.9788
61.9254
59.7713
59.8564
56.038
64.8048
59.8396
95.2299
64.1691
59.2539
63.766
63.2108
65.5014
66.1709
66.0661
65.4896
65.5869
66.729
66.3633
66.4055
65.8418
65.0485
64.2029
64.4839
62.915
74.1589
75.718
115.955
89.1864
62.8089
83.7412
79.7467
86.038
83.1095
87.3676
85.9534
89.1935
84.8492
89.205
86.7056
92.5144
90.9152
100.116
100.045
115.27
112.076
140.119
141.216
84.561
82.1377
85.2697
83.5662
87.2031
86.3805
89.6589
89.3457
92.757
92.3461
96.6541
97.2425
103.299
105.236
113.988
117.793
131.065
136.923
156.478
166.721
93.6853
92.8733
94.1757
94.7008
96.6393
97.758
99.627
101.265
103.45
105.105
108.001
110.352
114.587
117.763
123.666
128.437
136.492
143.051
153.421
162.587
96.0288
95.9953
96.9518
97.8816
99.3101
100.821
102.692
104.529
106.911
109.142
112.31
115.208
118.986
123.073
127.895
133.129
138.992
145.381
151.741
158.257
99.4336
99.4261
100.398
102.022
103.844
105.618
107.584
109.55
111.723
113.938
116.399
118.966
121.822
124.936
128.11
131.879
135.241
139.61
143.169
148.321
101.497
101.979
102.933
104.67
106.179
108.124
109.985
111.943
114.087
116.212
118.604
121.052
123.605
126.441
129.083
132.268
134.864
138.118
139.793
142.626
103.196
103.741
105.069
106.901
108.909
110.649
112.628
114.324
116.215
118.001
119.917
121.686
123.531
125.44
127.158
129.186
130.692
132.978
134.233
136.379
105.021
105.511
107.467
109.151
111.433
112.966
115.046
116.472
118.426
119.84
121.558
123.111
124.741
126.31
127.774
129.479
130.694
131.775
132.306
133.203
107.272
107.752
110.256
111.77
114.202
115.509
117.404
118.546
120.103
121.149
122.48
123.469
124.566
125.492
126.364
127.198
127.99
129.02
129.522
130.263
111.206
111.369
114.58
115.554
117.984
118.908
120.551
121.353
122.637
123.377
124.436
125.11
125.972
126.744
127.638
128.296
128.581
128.808
128.813
128.939
119.117
117.255
121.149
121.07
122.777
123.165
124.163
124.567
125.29
125.683
126.24
126.593
127.09
127.213
127.377
127.559
127.717
127.866
127.993
128.008
131.663
129.529
128.88
128.373
128.485
128.279
128.394
128.26
128.386
128.303
128.415
128.419
128.509
128.555
128.674
128.531
128.426
128.21
127.987
127.725
139.694
138.438
135.432
134.979
133.321
132.796
131.867
131.413
130.914
130.543
130.303
129.991
129.851
129.583
129.406
129.114
128.919
128.609
128.345
127.992
146.039
144.655
141.669
139.402
137.918
136.276
135.343
134.137
133.523
132.629
132.178
131.498
131.126
130.566
130.231
129.789
129.465
129.064
128.704
128.284
151.369
147.153
144.264
141.62
140.049
138.243
137.135
135.834
135.029
134.059
133.446
132.692
132.194
131.576
131.135
130.598
130.183
129.689
129.276
128.799
158.084
144.202
143.705
141.701
140.675
139.015
138.163
136.841
136.115
135.061
134.424
133.578
133.006
132.307
131.786
131.191
130.705
130.181
129.715
129.231
146.914
145.075
144.733
140.425
139.956
138.728
138.105
137.045
136.397
135.491
134.87
134.095
133.514
132.84
132.3
131.702
131.194
130.657
130.175
129.683
144.972
143.069
142.292
141.041
140.392
139.276
138.567
137.58
136.876
136.007
135.334
134.569
133.938
133.262
132.676
132.074
131.531
130.993
130.488
130.002
143.069
142.248
141.675
140.637
139.911
139.04
138.359
137.519
136.86
136.078