/*--------------------------------*- C++ -*----------------------------------*\
  =========                 |
  \\      /  F ield         | OpenFOAM: The Open Source CFD Toolbox
   \\    /   O peration     | Website:  https://openfoam.org
    \\  /    A nd           | Version:  9
     \\/     M anipulation  |
\*---------------------------------------------------------------------------*/
FoamFile
{
    format      ascii;
    class       surfaceScalarField;
    location    "18";
    object      phi;
}
// * * * * * * * * * * * * * * * * * * * * * * * * * * * * * * * * * * * * * //

dimensions      [0 3 -1 0 0 0 0];

internalField   nonuniform List<scalar> 
92080
(
-0.00248636
-0.540579
0.543066
-0.0272632
-1.10812
1.1329
-0.0695479
-1.24209
1.28437
-0.114011
-1.22351
1.26797
-0.157578
-1.20237
1.24593
-0.200211
-1.18282
1.22545
-0.242317
-1.16308
1.20519
-0.284752
-1.14409
1.18653
-0.326394
-1.1277
1.16934
-0.367407
-1.11224
1.15325
-0.407703
-1.09807
1.13837
-0.447193
-1.08398
1.12347
-0.486862
-1.07029
1.10996
-0.526718
-1.05735
1.0972
-0.564996
-1.0468
1.08508
-0.601904
-1.03594
1.07285
-0.639137
-1.02392
1.06115
-0.67526
-1.01254
1.04866
-0.710218
-1.00022
1.03518
-0.991768
1.02377
-0.742218
-0.00381173
-0.536767
-0.0311596
-1.08078
-0.0768106
-1.19644
-0.123009
-1.17731
-0.16835
-1.15702
-0.212826
-1.13834
-0.255767
-1.12014
-0.298158
-1.1017
-0.340953
-1.0849
-0.383457
-1.06973
-0.425431
-1.0561
-0.466742
-1.04267
-0.506833
-1.0302
-0.546886
-1.01729
-0.58801
-1.00568
-0.627099
-0.996853
-0.663742
-0.987277
-0.699426
-0.976857
-0.733539
-0.966109
-0.958602
-0.766705
-0.00595603
-0.530811
-0.0357705
-1.05096
-0.0825352
-1.14967
-0.130249
-1.1296
-0.177008
-1.11027
-0.223243
-1.09211
-0.268856
-1.07453
-0.31334
-1.05722
-0.356932
-1.04131
-0.40056
-1.0261
-0.443777
-1.01288
-0.486449
-0.999999
-0.529191
-0.98746
-0.570509
-0.975976
-0.611432
-0.964755
-0.653549
-0.954736
-0.695074
-0.945752
-0.734126
-0.937805
-0.772616
-0.927618
-0.919275
-0.811944
-0.00692693
-0.523885
-0.0388526
-1.01904
-0.0881903
-1.10034
-0.137638
-1.08015
-0.18632
-1.06158
-0.233923
-1.0445
-0.280257
-1.02819
-0.326433
-1.01104
-0.37198
-0.995764
-0.416675
-0.981409
-0.461223
-0.968331
-0.504783
-0.956438
-0.547614
-0.944629
-0.591254
-0.932336
-0.634597
-0.921412
-0.676318
-0.913016
-0.719075
-0.902994
-0.761487
-0.895393
-0.800822
-0.888283
-0.87918
-0.840918
-0.00937567
-0.514509
-0.0451175
-0.983294
-0.0959149
-1.04954
-0.146371
-1.02969
-0.196055
-1.0119
-0.245341
-0.995218
-0.293519
-0.980013
-0.340297
-0.964263
-0.38713
-0.948931
-0.433653
-0.934886
-0.479752
-0.922232
-0.525623
-0.910567
-0.570326
-0.899926
-0.612935
-0.889727
-0.657229
-0.877117
-0.701875
-0.86837
-0.744774
-0.860094
-0.789688
-0.85048
-0.833531
-0.84444
-0.837261
-0.87545
-0.00989578
-0.504613
-0.0497
-0.94349
-0.101057
-0.998181
-0.152588
-0.978163
-0.203658
-0.960829
-0.254118
-0.944758
-0.303852
-0.930279
-0.352761
-0.915355
-0.400328
-0.901363
-0.447657
-0.887557
-0.495041
-0.874848
-0.541895
-0.863713
-0.589494
-0.852327
-0.636005
-0.843216
-0.679973
-0.833149
-0.725359
-0.822984
-0.769733
-0.815721
-0.813405
-0.806807
-0.858235
-0.79961
-0.793344
-0.902152
-0.00977864
-0.494834
-0.0536618
-0.899607
-0.107382
-0.944461
-0.159952
-0.925593
-0.211864
-0.908917
-0.263647
-0.892976
-0.314547
-0.87938
-0.364681
-0.865221
-0.414596
-0.851448
-0.462895
-0.839258
-0.511057
-0.826685
-0.558625
-0.816146
-0.605183
-0.805769
-0.652536
-0.795863
-0.699602
-0.786083
-0.74615
-0.776436
-0.792785
-0.769085
-0.838724
-0.760869
-0.884771
-0.753563
-0.747605
-0.93051
-0.0077422
-0.487092
-0.0533
-0.854049
-0.107948
-0.889813
-0.162922
-0.87062
-0.216692
-0.855147
-0.269919
-0.839749
-0.322506
-0.826792
-0.373601
-0.814126
-0.424575
-0.800475
-0.47539
-0.788443
-0.525164
-0.776912
-0.575271
-0.766039
-0.624845
-0.756195
-0.672725
-0.747984
-0.718982
-0.739826
-0.766146
-0.729272
-0.812884
-0.722347
-0.858636
-0.715117
-0.904865
-0.707334
-0.701717
-0.950753
-0.00499351
-0.482099
-0.052372
-0.806671
-0.110788
-0.831397
-0.167248
-0.81416
-0.222587
-0.799808
-0.277106
-0.78523
-0.331122
-0.772775
-0.383709
-0.761539
-0.434605
-0.749579
-0.485229
-0.737818
-0.535119
-0.727022
-0.583916
-0.717242
-0.633313
-0.706798
-0.684605
-0.696692
-0.733815
-0.690615
-0.781212
-0.681874
-0.830362
-0.673197
-0.87804
-0.667438
-0.925388
-0.659986
-0.654567
-0.972539
-0.00198534
-0.480113
-0.0529612
-0.755695
-0.113117
-0.771241
-0.171401
-0.755876
-0.227677
-0.743532
-0.282977
-0.72993
-0.337823
-0.71793
-0.392046
-0.707316
-0.445353
-0.696272
-0.497464
-0.685707
-0.549911
-0.674575
-0.601242
-0.66591
-0.649442
-0.658598
-0.697781
-0.648353
-0.748136
-0.640261
-0.796165
-0.633845
-0.843769
-0.625593
-0.892211
-0.618997
-0.939884
-0.612314
-0.60642
-0.98803
-0.00240854
-0.477705
-0.0565806
-0.701523
-0.118689
-0.709132
-0.17846
-0.696105
-0.236548
-0.685444
-0.292528
-0.67395
-0.347644
-0.662814
-0.401096
-0.653864
-0.453584
-0.643785
-0.504662
-0.634629
-0.555001
-0.624237
-0.607735
-0.613176
-0.659745
-0.606588
-0.709168
-0.598929
-0.758456
-0.590973
-0.808229
-0.584073
-0.856633
-0.577188
-0.904442
-0.571188
-0.951886
-0.56487
-0.559157
-0.99915
-0.00828616
-0.469419
-0.0638554
-0.645953
-0.125994
-0.646994
-0.185506
-0.636593
-0.244102
-0.626848
-0.301251
-0.616801
-0.358335
-0.60573
-0.414766
-0.597432
-0.469651
-0.5889
-0.523245
-0.581035
-0.573371
-0.574111
-0.622895
-0.563652
-0.6741
-0.555383
-0.72462
-0.548409
-0.774618
-0.540975
-0.82371
-0.534981
-0.873293
-0.527606
-0.922732
-0.521749
-0.971356
-0.516246
-0.510356
-1.02016
-0.0165201
-0.452899
-0.0728044
-0.589669
-0.133123
-0.586675
-0.193005
-0.576711
-0.251525
-0.568327
-0.30783
-0.560496
-0.362827
-0.550733
-0.418037
-0.542223
-0.473156
-0.533781
-0.529155
-0.525036
-0.583599
-0.519667
-0.63484
-0.512411
-0.686285
-0.503937
-0.736904
-0.497791
-0.787523
-0.490355
-0.83772
-0.484783
-0.886185
-0.479141
-0.935273
-0.472661
-0.983677
-0.467842
-0.462378
-1.03165
-0.0243441
-0.428554
-0.0817267
-0.532287
-0.142208
-0.526194
-0.20141
-0.517509
-0.261102
-0.508636
-0.319725
-0.501872
-0.377227
-0.493231
-0.432979
-0.48647
-0.485915
-0.480845
-0.538872
-0.472079
-0.593214
-0.465324
-0.644908
-0.460717
-0.695578
-0.453267
-0.74616
-0.447208
-0.795678
-0.440838
-0.846236
-0.434226
-0.896042
-0.429335
-0.945116
-0.423587
-0.994323
-0.418635
-0.413626
-1.04307
-0.0321607
-0.396394
-0.0904449
-0.474002
-0.150596
-0.466043
-0.209113
-0.458992
-0.26693
-0.450818
-0.322377
-0.446425
-0.377359
-0.438249
-0.435274
-0.428556
-0.492276
-0.423843
-0.546433
-0.417922
-0.601713
-0.410045
-0.656872
-0.405558
-0.709751
-0.400389
-0.761626
-0.395333
-0.812095
-0.390369
-0.861695
-0.384626
-0.911478
-0.379552
-0.960625
-0.37444
-1.00925
-0.370008
-0.365257
-1.05762
-0.0380699
-0.358324
-0.0968655
-0.415207
-0.158011
-0.404898
-0.217498
-0.399504
-0.277623
-0.390694
-0.337316
-0.386732
-0.390445
-0.38512
-0.442223
-0.376778
-0.496291
-0.369775
-0.549039
-0.365174
-0.600869
-0.358215
-0.654116
-0.35231
-0.707751
-0.346754
-0.761166
-0.341918
-0.81388
-0.337655
-0.865516
-0.33299
-0.916603
-0.328465
-0.967398
-0.323645
-1.01798
-0.31943
-0.31545
-1.06778
-0.0434569
-0.314867
-0.103401
-0.355262
-0.164069
-0.34423
-0.220424
-0.343149
-0.276775
-0.334344
-0.339014
-0.324493
-0.401678
-0.322455
-0.457959
-0.320497
-0.512556
-0.315178
-0.566608
-0.311123
-0.61833
-0.306494
-0.66923
-0.30141
-0.7193
-0.296683
-0.769777
-0.291441
-0.820418
-0.287014
-0.870625
-0.282783
-0.920518
-0.278571
-0.9698
-0.274363
-1.01935
-0.269877
-0.266032
-1.06877
-0.0479851
-0.266882
-0.10775
-0.295498
-0.168956
-0.283024
-0.229962
-0.282143
-0.283707
-0.280599
-0.335721
-0.27248
-0.393697
-0.264479
-0.452461
-0.261732
-0.509575
-0.258065
-0.566016
-0.254681
-0.620716
-0.251793
-0.67515
-0.246977
-0.728032
-0.243801
-0.779697
-0.239776
-0.83084
-0.235871
-0.881464
-0.232158
-0.931627
-0.228409
-0.980964
-0.225026
-1.02951
-0.221326
-0.21746
-1.07809
-0.0549583
-0.211924
-0.115467
-0.234989
-0.171401
-0.227089
-0.231401
-0.222143
-0.292775
-0.219225
-0.347306
-0.217949
-0.399784
-0.212002
-0.454116
-0.2074
-0.508307
-0.203873
-0.563254
-0.199734
-0.617457
-0.197591
-0.670316
-0.194118
-0.723257
-0.19086
-0.775376
-0.187658
-0.8266
-0.184647
-0.877194
-0.181565
-0.92733
-0.178272
-0.977144
-0.175212
-1.02614
-0.172329
-0.168974
-1.07463
-0.0621973
-0.149726
-0.127049
-0.170137
-0.184752
-0.169386
-0.240329
-0.166567
-0.298283
-0.16127
-0.356899
-0.159332
-0.41218
-0.156721
-0.4663
-0.153281
-0.519839
-0.150333
-0.572403
-0.147171
-0.625819
-0.144174
-0.677964
-0.141973
-0.729624
-0.1392
-0.78107
-0.136211
-0.832081
-0.133636
-0.882975
-0.13067
-0.932605
-0.128643
-0.982347
-0.12547
-1.03104
-0.123641
-1.0794
-0.120613
0.0472265
-0.0713905
0.0241639
0.184658
-0.465122
0.327691
0.334037
-1.06031
0.91093
0.423596
-1.43039
1.34083
0.457467
-1.54992
1.51605
0.469224
-1.56702
1.55526
0.475297
-1.56208
1.55601
0.476293
-1.54834
1.54734
0.477998
-1.53544
1.53374
0.479373
-1.5242
1.52283
0.480266
-1.51352
1.51262
0.480382
-1.50304
1.50292
0.479716
-1.49313
1.4938
0.478384
-1.48295
1.48428
0.476057
-1.47313
1.47546
0.473254
-1.46213
1.46493
0.469439
-1.45102
1.45483
0.46445
-1.43571
1.4407
0.45857
-1.42059
1.42648
-1.40339
0.453331
1.40863
0.0459484
-0.117339
0.176826
-0.596
0.299911
-1.18339
0.36587
-1.49635
0.388491
-1.57254
0.397377
-1.57591
0.400429
-1.56514
0.401559
-1.54947
0.402363
-1.53624
0.402192
-1.52403
0.401087
-1.51241
0.399387
-1.50134
0.39716
-1.49091
0.394615
-1.4804
0.391694
-1.47021
0.387945
-1.45838
0.383047
-1.44612
0.377522
-1.43018
0.371493
-1.41457
-1.39814
0.366242
0.0447067
-0.162046
0.162091
-0.713385
0.262709
-1.28401
0.309749
-1.54339
0.324558
-1.58735
0.331455
-1.5828
0.332641
-1.56632
0.333701
-1.55052
0.333754
-1.5363
0.33305
-1.52332
0.331547
-1.51091
0.329247
-1.49904
0.326192
-1.48785
0.322168
-1.47638
0.317127
-1.46517
0.31155
-1.45281
0.305299
-1.43987
0.298351
-1.42323
0.291042
-1.40726
-1.39145
0.284351
0.04752
-0.209566
0.148052
-0.813916
0.227128
-1.36309
0.257609
-1.57387
0.266002
-1.59575
0.267924
-1.58473
0.267568
-1.56597
0.266752
-1.54971
0.265028
-1.53457
0.26244
-1.52074
0.259164
-1.50763
0.255239
-1.49512
0.250671
-1.48328
0.245862
-1.47157
0.240554
-1.45986
0.234572
-1.44682
0.227663
-1.43296
0.220235
-1.4158
0.212407
-1.39943
-1.38376
0.204722
0.0534986
-0.263064
0.137202
-0.89762
0.198354
-1.42424
0.217634
-1.59315
0.221621
-1.59973
0.220206
-1.58331
0.217956
-1.56372
0.214679
-1.54643
0.210479
-1.53037
0.205491
-1.51575
0.199751
-1.50189
0.193428
-1.48879
0.186618
-1.47647
0.178972
-1.46392
0.170748
-1.45164
0.162121
-1.4382
0.153128
-1.42397
0.14386
-1.40654
0.134497
-1.39007
-1.37485
0.125586
0.052181
-0.315245
0.121804
-0.967243
0.166016
-1.46845
0.173702
-1.60084
0.17173
-1.59776
0.166368
-1.57795
0.161337
-1.55869
0.155774
-1.54087
0.149759
-1.52436
0.143267
-1.50926
0.13632
-1.49495
0.128818
-1.48129
0.120712
-1.46837
0.112431
-1.45564
0.103571
-1.44278
0.0942305
-1.42886
0.0843421
-1.41408
0.074166
-1.39636
0.0635144
-1.37942
-1.36395
0.0526144
0.0437533
-0.358998
0.102522
-1.02601
0.136552
-1.50248
0.139575
-1.60386
0.134977
-1.59316
0.128139
-1.57111
0.120625
-1.55117
0.112388
-1.53263
0.103314
-1.51528
0.0935986
-1.49954
0.0833289
-1.48468
0.0727097
-1.47067
0.0617819
-1.45744
0.0503082
-1.44417
0.0387452
-1.43121
0.027066
-1.41718
0.0151438
-1.40216
0.00314812
-1.38436
-0.00874456
-1.36752
-1.3519
-0.0207901
0.0376813
-0.39668
0.0895143
-1.07784
0.10854
-1.52151
0.103943
-1.59926
0.0941006
-1.58332
0.0838854
-1.56089
0.0735818
-1.54087
0.0628739
-1.52192
0.0518778
-1.50429
0.040531
-1.48819
0.0289057
-1.47305
0.0167777
-1.45854
0.00426874
-1.44493
-0.00846054
-1.43144
-0.0217437
-1.41793
-0.0351641
-1.40376
-0.0485576
-1.38876
-0.0619515
-1.37097
-0.075763
-1.35371
-1.33819
-0.0894783
0.0278537
-0.424533
0.067023
-1.11701
0.0811456
-1.53563
0.0737073
-1.59182
0.062409
-1.57202
0.0505563
-1.54904
0.0377048
-1.52802
0.0243892
-1.50861
0.0104103
-1.49031
-0.00409504
-1.47369
-0.018989
-1.45816
-0.0339763
-1.44355
-0.0492899
-1.42962
-0.0647271
-1.416
-0.08002
-1.40264
-0.0954266
-1.38835
-0.111074
-1.37311
-0.126441
-1.3556
-0.14221
-1.33794
-1.32216
-0.158235
0.028328
-0.452861
0.0609087
-1.14959
0.0630383
-1.53776
0.0500687
-1.57885
0.0337414
-1.5557
0.017562
-1.53286
0.00133144
-1.51179
-0.0150711
-1.49221
-0.0316061
-1.47377
-0.04833
-1.45697
-0.0652672
-1.44122
-0.0825808
-1.42624
-0.099921
-1.41228
-0.117599
-1.39833
-0.135513
-1.38472
-0.153019
-1.37084
-0.170022
-1.35611
-0.186817
-1.33881
-0.203591
-1.32117
-1.30529
-0.220465
0.0220504
-0.474912
0.0453781
-1.17292
0.0409503
-1.53333
0.0234377
-1.56134
0.00527515
-1.53753
-0.0131152
-1.51447
-0.0318524
-1.49305
-0.050742
-1.47332
-0.0699267
-1.45459
-0.0894501
-1.43744
-0.109062
-1.42161
-0.128701
-1.4066
-0.148693
-1.39228
-0.168406
-1.37861
-0.188199
-1.36493
-0.208266
-1.35078
-0.228188
-1.33619
-0.247492
-1.31951
-0.266831
-1.30183
-1.2859
-0.286224
0.0197669
-0.494679
0.0373112
-1.19047
0.0268404
-1.52286
0.00632857
-1.54083
-0.0157466
-1.51546
-0.0375655
-1.49265
-0.0595687
-1.47105
-0.0815917
-1.45129
-0.103661
-1.43252
-0.125844
-1.41526
-0.148255
-1.3992
-0.170623
-1.38424
-0.192843
-1.37006
-0.215345
-1.35611
-0.237386
-1.34289
-0.258846
-1.32932
-0.279919
-1.31512
-0.300466
-1.29896
-0.321052
-1.28124
-1.26536
-0.341588
0.0152348
-0.509914
0.0256592
-1.20089
0.00909148
-1.50629
-0.0159919
-1.51575
-0.0407466
-1.4907
-0.0657153
-1.46768
-0.0904881
-1.44627
-0.115085
-1.4267
-0.139527
-1.40808
-0.164042
-1.39074
-0.188519
-1.37472
-0.213206
-1.35955
-0.237984
-1.34529
-0.262573
-1.33152
-0.287522
-1.31794
-0.312307
-1.30453
-0.336457
-1.29097
-0.359546
-1.27587
-0.381987
-1.2588
-1.24267
-0.404672
0.0128887
-0.522802
0.0176102
-1.20561
-0.00330387
-1.48538
-0.0303295
-1.48872
-0.057776
-1.46326
-0.0847999
-1.44066
-0.11216
-1.41891
-0.139597
-1.39926
-0.167008
-1.38067
-0.194404
-1.36335
-0.221833
-1.34729
-0.248852
-1.33253
-0.275713
-1.31843
-0.30241
-1.30482
-0.328595
-1.29176
-0.354722
-1.27841
-0.380559
-1.26513
-0.405683
-1.25074
-0.430129
-1.23436
-1.21854
-0.454266
0.00922565
-0.532028
0.00857236
-1.20496
-0.0171043
-1.4597
-0.0482038
-1.45762
-0.0789786
-1.43248
-0.109836
-1.4098
-0.140119
-1.38863
-0.169952
-1.36943
-0.199452
-1.35117
-0.228869
-1.33393
-0.258425
-1.31773
-0.288305
-1.30265
-0.31798
-1.28875
-0.347599
-1.27521
-0.376996
-1.26236
-0.405949
-1.24945
-0.434432
-1.23665
-0.461628
-1.22355
-0.487808
-1.20818
-1.19222
-0.514125
0.00721314
-0.539241
0.00179855
-1.19954
-0.0279029
-1.43
-0.0607451
-1.42478
-0.0931457
-1.40008
-0.125159
-1.37779
-0.15774
-1.35605
-0.190459
-1.33671
-0.222813
-1.31881
-0.254844
-1.3019
-0.286516
-1.28606
-0.317917
-1.27125
-0.349266
-1.2574
-0.380447
-1.24402
-0.411562
-1.23124
-0.442373
-1.21864
-0.473118
-1.2059
-0.503367
-1.1933
-0.531471
-1.18007
-1.16452
-0.559167
0.00406666
-0.543308
-0.00590837
-1.18957
-0.0383041
-1.39761
-0.0750351
-1.38805
-0.110974
-1.36414
-0.146615
-1.34215
-0.181336
-1.32133
-0.215884
-1.30216
-0.250373
-1.28432
-0.284761
-1.26751
-0.31925
-1.25157
-0.353787
-1.23671
-0.387899
-1.22329
-0.421607
-1.21032
-0.455072
-1.19778
-0.488496
-1.18522
-0.5211
-1.1733
-0.553214
-1.16118
-0.584153
-1.14913
-1.13439
-0.614289
0.00195735
-0.545265
-0.013415
-1.1742
-0.0487039
-1.36232
-0.0861955
-1.35056
-0.123196
-1.32714
-0.159834
-1.30551
-0.197089
-1.28407
-0.234053
-1.26519
-0.270404
-1.24797
-0.30634
-1.23158
-0.341909
-1.21601
-0.377712
-1.20091
-0.413878
-1.18712
-0.449864
-1.17433
-0.485063
-1.16258
-0.520358
-1.14992
-0.556356
-1.1373
-0.591631
-1.12591
-0.624969
-1.1158
-1.10206
-0.657301
-0.000479059
-0.544786
-0.0189128
-1.15576
-0.0563958
-1.32483
-0.0971516
-1.3098
-0.137114
-1.28718
-0.176377
-1.26625
-0.214774
-1.24568
-0.253796
-1.22617
-0.292884
-1.20889
-0.33162
-1.19284
-0.36992
-1.1777
-0.40781
-1.16302
-0.445504
-1.14943
-0.483733
-1.1361
-0.521983
-1.12433
-0.559055
-1.11285
-0.59615
-1.10021
-0.634711
-1.08735
-0.673863
-1.07664
-1.06546
-0.710463
-0.00172051
-0.0245829
-0.0650417
-0.106871
-0.148117
-0.188915
-0.229405
-0.269049
-0.308596
-0.348187
-0.387526
-0.427072
-0.466541
-0.505441
-0.544691
-0.584691
-0.623743
-0.662428
-0.703891
-0.74558
0.356266
-12.2471
12.3441
0.27649
-11.6954
11.7752
0.211672
-11.3251
11.3899
0.163604
-11.0212
11.0693
0.121042
-10.7407
10.7833
0.0896233
-10.4683
10.4998
0.0640658
-10.2436
10.2691
0.0447266
-10.0629
10.0822
0.0292234
-9.8943
9.9098
0.0174923
-9.75834
9.77007
0.0085218
-9.65214
9.66111
0.00170485
-9.56005
9.56687
-0.00298656
-9.48736
9.49205
-0.0050112
-9.42007
9.4221
-0.00606725
-9.37763
9.37868
-0.00578028
-9.28714
9.28686
-0.00357123
-8.99369
8.99148
-0.00266817
-7.94533
7.94443
-0.00262698
-5.63047
5.63043
-2.39015
2.38753
0.275146
-12.156
0.204236
-11.6245
0.143836
-11.2647
0.0987272
-10.9761
0.0587505
-10.7008
0.0303347
-10.4399
0.00815092
-10.2214
-0.00754153
-10.0472
-0.019094
-9.88274
-0.0268293
-9.7506
-0.0315709
-9.6474
-0.0341212
-9.5575
-0.0344838
-9.48699
-0.0321027
-9.42245
-0.0287407
-9.38099
-0.0237087
-9.29218
-0.0162542
-9.00115
-0.00942934
-7.95216
-0.00528873
-5.63461
-2.39544
0.186267
-12.0579
0.110871
-11.5491
0.0528973
-11.2067
0.0124743
-10.9357
-0.0217838
-10.6665
-0.0440642
-10.4177
-0.0603378
-10.2051
-0.0703083
-10.0372
-0.0762016
-9.87685
-0.0784605
-9.74835
-0.0777611
-9.6481
-0.0748714
-9.56039
-0.0697566
-9.49211
-0.0620769
-9.43013
-0.0534115
-9.38966
-0.0425981
-9.30299
-0.0292007
-9.01454
-0.0162778
-7.96508
-0.00780933
-5.64308
-2.40325
0.110356
-11.9635
0.0418472
-11.4806
-0.013829
-11.151
-0.0520529
-10.8974
-0.0836933
-10.6349
-0.103099
-10.3982
-0.115921
-10.1923
-0.122344
-10.0308
-0.124308
-9.87489
-0.122597
-9.75006
-0.117698
-9.65299
-0.110581
-9.56751
-0.101096
-9.50159
-0.0891144
-9.44212
-0.0761094
-9.40266
-0.0604378
-9.31866
-0.0416964
-9.03329
-0.0226667
-7.98411
-0.0101075
-5.65564
-2.41336
0.0208072
-11.8588
-0.0514509
-11.4083
-0.103218
-11.0993
-0.137033
-10.8636
-0.162641
-10.6093
-0.17633
-10.3846
-0.183552
-10.1851
-0.184446
-10.0299
-0.180851
-9.87848
-0.173729
-9.75718
-0.163463
-9.66326
-0.150953
-9.58002
-0.136143
-9.5164
-0.119
-9.45926
-0.100567
-9.42109
-0.0790289
-9.3402
-0.0543359
-9.05798
-0.0292984
-8.00915
-0.012592
-5.67234
-2.42595
-0.0484646
-11.7577
-0.116973
-11.3398
-0.167875
-11.0484
-0.200614
-10.8309
-0.224074
-10.5858
-0.23479
-10.3738
-0.23852
-10.1813
-0.235956
-10.0324
-0.228443
-9.88599
-0.217406
-9.76822
-0.203022
-9.67764
-0.186395
-9.59665
-0.1674
-9.5354
-0.146044
-9.48061
-0.123219
-9.44392
-0.0968712
-9.36655
-0.0666959
-9.08815
-0.0358775
-8.03996
-0.0149665
-5.69325
-2.44092
-0.135617
-11.6428
-0.208788
-11.2667
-0.255839
-11.0013
-0.283343
-10.8034
-0.300985
-10.5682
-0.306372
-10.3685
-0.304755
-10.183
-0.296935
-10.0403
-0.283991
-9.89894
-0.267664
-9.78454
-0.248051
-9.69726
-0.226154
-9.61854
-0.202043
-9.55951
-0.175689
-9.50697
-0.14742
-9.47219
-0.115531
-9.39844
-0.079399
-9.12429
-0.0422432
-8.07712
-0.0167657
-5.71873
-2.45768
-0.200339
-11.532
-0.271177
-11.1958
-0.318899
-10.9536
-0.345955
-10.7763
-0.361547
-10.5526
-0.363984
-10.366
-0.358803
-10.1881
-0.347613
-10.0514
-0.330795
-9.91576
-0.31062
-9.80472
-0.286996
-9.72088
-0.261081
-9.64446
-0.232812
-9.58778
-0.202271
-9.53751
-0.16982
-9.50464
-0.133367
-9.43489
-0.0917603
-9.16589
-0.0486984
-8.12018
-0.0181399
-5.74929
-2.47582
-0.284123
-11.4061
-0.359742
-11.1202
-0.404044
-10.9093
-0.425815
-10.7546
-0.435912
-10.5425
-0.433475
-10.3685
-0.423177
-10.1984
-0.407007
-10.0676
-0.384956
-9.93781
-0.359651
-9.83002
-0.330955
-9.74958
-0.299894
-9.67552
-0.266606
-9.62107
-0.231163
-9.57295
-0.193585
-9.54222
-0.151791
-9.47668
-0.104289
-9.21339
-0.0551126
-8.16936
-0.0189121
-5.78549
-2.49473
-0.344819
-11.2817
-0.419357
-11.0457
-0.465548
-10.8631
-0.487217
-10.7329
-0.495243
-10.5344
-0.489945
-10.3738
-0.47601
-10.2124
-0.456516
-10.0871
-0.430706
-9.96362
-0.401639
-9.85909
-0.369074
-9.78214
-0.334126
-9.71047
-0.296882
-9.65831
-0.257374
-9.61246
-0.215559
-9.58403
-0.169221
-9.52302
-0.116194
-9.26642
-0.0611775
-8.22437
-0.0191239
-5.82754
-2.51386
-0.424821
-11.1431
-0.503709
-10.9668
-0.546906
-10.8199
-0.563626
-10.7162
-0.566551
-10.5315
-0.556888
-10.3834
-0.538111
-10.2311
-0.513884
-10.1113
-0.483112
-9.99439
-0.449101
-9.8931
-0.411676
-9.81957
-0.371834
-9.75031
-0.329802
-9.70034
-0.285594
-9.65667
-0.238793
-9.63083
-0.187385
-9.57443
-0.12856
-9.32525
-0.0673752
-8.28556
-0.0189436
-5.87598
-2.5328
-0.481102
-11.0036
-0.560517
-10.8874
-0.606642
-10.7738
-0.623527
-10.6993
-0.624292
-10.5308
-0.611858
-10.3958
-0.589442
-10.2536
-0.561882
-10.1389
-0.52753
-10.0287
-0.489852
-9.93078
-0.448703
-9.86072
-0.405061
-9.79395
-0.35916
-9.74624
-0.31106
-9.70477
-0.260241
-9.68165
-0.204617
-9.63005
-0.140487
-9.38938
-0.0733774
-8.35267
-0.0188969
-5.93046
-2.5517
-0.557378
-10.8509
-0.640044
-10.8047
-0.683454
-10.7304
-0.696013
-10.6867
-0.692076
-10.5347
-0.675782
-10.4121
-0.648898
-10.2804
-0.616802
-10.171
-0.577797
-10.0677
-0.535384
-9.97319
-0.48958
-9.90652
-0.441232
-9.8423
-0.390683
-9.79679
-0.338118
-9.75734
-0.282809
-9.73696
-0.22245
-9.69041
-0.152722
-9.4591
-0.0795871
-8.4258
-0.0195194
-5.99052
-2.57122
-0.609723
-10.6955
-0.694197
-10.7202
-0.741074
-10.6835
-0.75417
-10.6736
-0.747912
-10.5409
-0.728828
-10.4312
-0.698415
-10.3109
-0.662983
-10.2064
-0.620581
-10.1101
-0.57461
-10.0192
-0.525227
-9.9559
-0.473204
-9.89432
-0.419016
-9.85098
-0.362751
-9.8136
-0.30367
-9.79604
-0.239561
-9.75452
-0.16471
-9.53396
-0.0856857
-8.50483
-0.0202731
-6.05594
-2.59149
-0.681935
-10.5277
-0.768508
-10.6337
-0.812717
-10.6393
-0.822403
-10.6639
-0.811852
-10.5515
-0.789329
-10.4537
-0.754877
-10.3453
-0.715091
-10.2462
-0.668343
-10.1569
-0.617881
-10.0696
-0.564074
-10.0097
-0.507617
-9.95078
-0.449099
-9.9095
-0.388621
-9.87408
-0.325373
-9.85929
-0.256879
-9.82302
-0.176776
-9.61406
-0.0919036
-8.5897
-0.02107
-6.12677
-2.61256
-0.730985
-10.3558
-0.820226
-10.5444
-0.867856
-10.5917
-0.878625
-10.6532
-0.865588
-10.5645
-0.840096
-10.4792
-0.802298
-10.3831
-0.759208
-10.2893
-0.709225
-10.2069
-0.65534
-10.1235
-0.598084
-10.067
-0.538038
-10.0108
-0.475967
-9.97157
-0.412041
-9.938
-0.345581
-9.92575
-0.273683
-9.89491
-0.188632
-9.69911
-0.0981144
-8.68022
-0.0219581
-6.20293
-2.63452
-0.798379
-10.1718
-0.888783
-10.454
-0.933343
-10.5471
-0.9419
-10.6446
-0.9253
-10.5811
-0.896744
-10.5078
-0.855368
-10.4245
-0.808164
-10.3365
-0.754152
-10.2609
-0.69607
-10.1816
-0.634662
-10.1284
-0.570495
-10.075
-0.504424
-10.0376
-0.436465
-10.006
-0.366164
-9.99605
-0.290372
-9.97071
-0.20049
-9.78899
-0.104501
-8.77621
-0.0229746
-6.28445
-2.65749
-0.847782
-9.98127
-0.939387
-10.3624
-0.985765
-10.5007
-0.995547
-10.6348
-0.97641
-10.6003
-0.944619
-10.5396
-0.900147
-10.469
-0.849769
-10.3869
-0.792723
-10.3179
-0.731417
-10.2429
-0.666766
-10.193
-0.599245
-10.1425
-0.529864
-10.107
-0.458578
-10.0772
-0.385425
-10.0692
-0.306711
-10.0494
-0.212354
-9.88335
-0.110895
-8.87767
-0.0239908
-6.37136
-2.68149
-0.905785
-9.78595
-1.00495
-10.2632
-1.04791
-10.4578
-1.05591
-10.6268
-1.03364
-10.6225
-0.998578
-10.5746
-0.950467
-10.5171
-0.895983
-10.4414
-0.835014
-10.3789
-0.769723
-10.3082
-0.70111
-10.2616
-0.629684
-10.2139
-0.556467
-10.1802
-0.481378
-10.1523
-0.404727
-10.1459
-0.322796
-10.1314
-0.224134
-9.98201
-0.11757
-8.98423
-0.0253039
-6.46362
-2.70679
-0.94286
-9.58867
-1.04807
-10.158
-1.09197
-10.4139
-1.10251
-10.6163
-1.07998
-10.6451
-1.04232
-10.6123
-0.992166
-10.5672
-0.9347
-10.4988
-0.871186
-10.4424
-0.802711
-10.3767
-0.731088
-10.3333
-0.656279
-10.2887
-0.579965
-10.2566
-0.501812
-10.2305
-0.422726
-10.2249
-0.338446
-10.2156
-0.235947
-10.0845
-0.124412
-9.09576
-0.0268468
-6.56119
-2.73364
9.33369
-8.66196
-10.2604
8.08699
-8.91133
7.00153
-9.3284
5.95329
-9.56806
5.04209
-9.73387
4.23886
-9.80907
3.55765
-9.88601
2.97059
-9.91178
2.46458
-9.9364
2.03633
-9.94842
1.67622
-9.97316
1.37038
-9.9829
1.10648
-9.99265
0.874416
-9.99842
0.668679
-10.0192
0.477227
-10.0242
0.340392
-9.94767
0.223457
-8.97883
0.110569
-6.4483
-2.62307
5.66858
-8.24458
-6.08596
5.19233
-8.43508
4.67753
-8.8136
4.1228
-9.01332
3.60738
-9.21846
3.14202
-9.34371
2.72167
-9.46566
2.35227
-9.54238
2.02948
-9.61361
1.74885
-9.66779
1.49202
-9.71633
1.25759
-9.74847
1.04088
-9.77594
0.84279
-9.80034
0.659935
-9.83635
0.492261
-9.85651
0.312016
-9.76743
0.162071
-8.82888
-0.00924036
-6.27699
-2.63231
4.24601
-8.09999
-4.39059
4.12168
-8.31075
3.87163
-8.56356
3.58531
-8.727
3.27392
-8.90707
2.96762
-9.03741
2.65702
-9.15506
2.36129
-9.24666
2.07717
-9.32949
1.8055
-9.39612
1.54151
-9.45233
1.29047
-9.49744
1.05648
-9.54195
0.841415
-9.58527
0.63186
-9.62679
0.437972
-9.66262
0.283384
-9.61284
0.170266
-8.71577
0.0616053
-6.16833
-2.5707
2.89384
-8.10083
-2.89299
2.84672
-8.26364
2.71303
-8.42987
2.56481
-8.57877
2.38377
-8.72603
2.1851
-8.83874
1.97576
-8.94572
1.76507
-9.03597
1.55527
-9.11968
1.35251
-9.19336
1.16172
-9.26154
0.98703
-9.32275
0.824375
-9.37929
0.671268
-9.43217
0.51571
-9.47123
0.369229
-9.51614
0.227248
-9.47086
0.145621
-8.63414
0.0867814
-6.10949
-2.48392
2.17567
-8.1558
-2.12069
2.17283
-8.26081
2.13989
-8.39693
2.06322
-8.5021
1.9527
-8.61551
1.82342
-8.70947
1.67833
-8.80063
1.5247
-8.88234
1.36761
-8.9626
1.20984
-9.03558
1.05038
-9.10208
0.892632
-9.165
0.732307
-9.21897
0.570677
-9.27054
0.412074
-9.31263
0.259812
-9.36388
0.121622
-9.33267
0.071222
-8.58374
0.0610081
-6.09928
-2.42291
1.62734
-8.17881
-1.60433
1.64212
-8.27558
1.611
-8.3658
1.56171
-8.45282
1.48174
-8.53554
1.38594
-8.61366
1.27781
-8.6925
1.15846
-8.76299
1.03354
-8.83767
0.904212
-8.90626
0.774291
-8.97216
0.642961
-9.03367
0.516193
-9.0922
0.392484
-9.14683
0.277005
-9.19715
0.156805
-9.24368
0.0301662
-9.20603
-0.00111176
-8.55246
0.0576384
-6.15803
-2.36527
1.25653
-8.20498
-1.23037
1.25139
-8.27044
1.23186
-8.34627
1.1951
-8.41605
1.14266
-8.48311
1.0781
-8.5491
1.00122
-8.61562
0.915625
-8.6774
0.819301
-8.74135
0.714512
-8.80147
0.603984
-8.86163
0.488298
-8.91799
0.371594
-8.97549
0.255017
-9.03025
0.14805
-9.09018
0.0375697
-9.1332
-0.0656812
-9.10278
-0.0794541
-8.53869
0.0311327
-6.26861
-2.33414
1.03122
-8.21665
-1.01955
1.03078
-8.27001
1.00646
-8.32194
0.961723
-8.37132
0.90855
-8.42993
0.840914
-8.48147
0.76529
-8.53999
0.683426
-8.59553
0.595194
-8.65312
0.497465
-8.70374
0.3969
-8.76107
0.290115
-8.8112
0.184076
-8.86945
0.0748647
-8.92104
-0.0312971
-8.98402
-0.129003
-9.03549
-0.207525
-9.02426
-0.186784
-8.55943
-0.0197746
-6.43562
-2.35392
0.81758
-8.21089
-0.82333
0.797048
-8.24947
0.768669
-8.29356
0.731752
-8.3344
0.681814
-8.38
0.625022
-8.42467
0.561098
-8.47607
0.486501
-8.52093
0.404914
-8.57153
0.315215
-8.61404
0.220173
-8.66602
0.119383
-8.71041
0.0150051
-8.76508
-0.0948882
-8.81115
-0.209822
-8.86909
-0.321042
-8.92427
-0.4057
-8.9396
-0.379821
-8.58531
-0.1252
-6.69024
-2.47912
0.688598
-8.19959
-0.699903
0.668821
-8.2297
0.638748
-8.26349
0.596131
-8.29179
0.545085
-8.32895
0.487686
-8.36727
0.420511
-8.4089
0.342038
-8.44246
0.253956
-8.48345
0.160497
-8.52058
0.0610551
-8.56658
-0.0456485
-8.60371
-0.158583
-8.65214
-0.279923
-8.68981
-0.405672
-8.74334
-0.541862
-8.78808
-0.656121
-8.82534
-0.646392
-8.59504
-0.304526
-7.03211
-2.78364
0.556755
-8.1767
-0.57964
0.525075
-8.19802
0.487085
-8.2255
0.446015
-8.25072
0.402497
-8.28543
0.343641
-8.30842
0.275934
-8.34119
0.201703
-8.36823
0.119692
-8.40144
0.0290109
-8.4299
-0.0712431
-8.46633
-0.179873
-8.49508
-0.297632
-8.53438
-0.423424
-8.56402
-0.558184
-8.60858
-0.713808
-8.63246
-0.855715
-8.68344
-0.886153
-8.5646
-0.547707
-7.37055
-3.33135
0.46539
-8.15613
-0.485968
0.438756
-8.17138
0.40477
-8.19152
0.363547
-8.20949
0.309294
-8.23118
0.251189
-8.25031
0.182593
-8.27259
0.107624
-8.29326
0.0265978
-8.32041
-0.0604585
-8.34285
-0.159396
-8.36739
-0.264499
-8.38998
-0.384091
-8.41479
-0.511447
-8.43666
-0.656098
-8.46393
-0.80792
-8.48063
-0.980843
-8.51051
-1.09782
-8.44762
-0.841212
-7.62716
-4.17256
0.361133
-8.12844
-0.388821
0.328724
-8.13897
0.29147
-8.15426
0.247245
-8.16527
0.199008
-8.18294
0.145775
-8.19708
0.0878226
-8.21464
0.0217301
-8.22717
-0.053579
-8.2451
-0.134732
-8.26169
-0.224456
-8.27767
-0.321637
-8.2928
-0.431743
-8.30468
-0.55271
-8.31569
-0.69822
-8.31842
-0.842514
-8.33634
-1.03286
-8.32016
-1.18681
-8.29367
-0.997663
-7.81631
-5.17022
0.289008
-8.10462
-0.312832
0.261767
-8.11173
0.230444
-8.12294
0.194689
-8.12951
0.151428
-8.13968
0.1009
-8.14655
0.0453412
-8.15908
-0.0117229
-8.17011
-0.0757908
-8.18103
-0.148752
-8.18873
-0.228017
-8.1984
-0.316442
-8.20437
-0.41159
-8.20954
-0.516043
-8.21124
-0.629484
-8.20498
-0.762346
-8.20348
-0.899408
-8.1831
-1.02047
-8.17261
-0.900462
-7.93633
-6.07069
0.211777
-8.078
-0.238392
0.182042
-8.082
0.149271
-8.09017
0.114517
-8.09476
0.0774334
-8.1026
0.0388912
-8.10801
-0.00597858
-8.11421
-0.0545522
-8.12153
-0.10592
-8.12967
-0.162141
-8.13251
-0.22249
-8.13805
-0.287976
-8.13888
-0.356996
-8.14052
-0.430878
-8.13736
-0.505411
-8.13044
-0.591601
-8.11729
-0.674658
-8.10004
-0.765555
-8.08171
-0.727589
-7.97429
-6.79828
0.165255
-8.05682
-0.186432
0.14279
-8.05953
0.116926
-8.0643
0.0898442
-8.06768
0.0592807
-8.07204
0.024791
-8.07352
-0.0110854
-8.07834
-0.0508099
-8.08181
-0.0942484
-8.08623
-0.140156
-8.0866
-0.188925
-8.08928
-0.240023
-8.08779
-0.291965
-8.08857
-0.345913
-8.08341
-0.395657
-8.0807
-0.441282
-8.07166
-0.4792
-8.06212
-0.51707
-8.04384
-0.497911
-7.99345
-7.29619
0.0935025
-8.03943
-0.110895
0.0747511
-8.04078
0.0536825
-8.04324
0.0308729
-8.04487
0.00759825
-8.04876
-0.0156817
-8.05024
-0.0410021
-8.05301
-0.0671466
-8.05566
-0.0952462
-8.05813
-0.124384
-8.05747
-0.154921
-8.05875
-0.185667
-8.05704
-0.216075
-8.05817
-0.245373
-8.05411
-0.272096
-8.05398
-0.296755
-8.04701
-0.313847
-8.04503
-0.321909
-8.03578
-0.29403
-8.02133
-7.59022
0.0598247
-8.02926
-0.0699983
0.0483672
-8.02932
0.0354317
-8.0303
0.0213282
-8.03076
0.00530673
-8.03274
-0.011021
-8.03391