/*--------------------------------*- C++ -*----------------------------------*\
  =========                 |
  \\      /  F ield         | OpenFOAM: The Open Source CFD Toolbox
   \\    /   O peration     | Website:  https://openfoam.org
    \\  /    A nd           | Version:  9
     \\/     M anipulation  |
\*---------------------------------------------------------------------------*/
FoamFile
{
    format      ascii;
    class       volVectorField;
    location    "18";
    object      U;
}
// * * * * * * * * * * * * * * * * * * * * * * * * * * * * * * * * * * * * * //

dimensions      [0 1 -1 0 0 0 0];

internalField   nonuniform List<vector> 
46400
(
(9.6523 -9.50807 -6.37711e-19)
(20.2651 -19.3608 7.16985e-19)
(22.339 -22.3316 -5.96365e-20)
(21.72 -22.3973 5.49067e-20)
(20.9827 -22.3784 -4.73909e-20)
(20.2826 -22.3707 -6.67288e-19)
(19.6043 -22.2996 3.46815e-19)
(18.9748 -22.3048 -6.0271e-20)
(18.3951 -22.3053 5.14921e-20)
(17.8407 -22.308 -4.35503e-20)
(17.3196 -22.3199 3.64251e-20)
(16.8081 -22.3012 0)
(16.3212 -22.2965 -2.1618e-19)
(15.8894 -22.3266 2.36539e-19)
(15.459 -22.3573 1.68726e-19)
(15.0321 -22.3128 -2.627e-20)
(14.6116 -22.3031 -3.37118e-20)
(14.2317 -22.3046 -7.82438e-20)
(13.8817 -22.1722 -1.51211e-20)
(13.3707 -22.3677 1.78433e-20)
(9.99049 -9.06249 0)
(20.5042 -18.1516 -2.94712e-20)
(22.3674 -20.7894 0)
(21.6298 -20.8267 -4.58358e-19)
(20.919 -20.8564 3.44805e-19)
(20.2293 -20.9285 -8.10846e-20)
(19.6079 -20.9534 0)
(18.9447 -20.949 6.02727e-20)
(18.3782 -20.9808 -5.14934e-20)
(17.8265 -21.0359 4.35517e-20)
(17.3225 -21.0899 -2.29382e-19)
(16.8392 -21.148 4.28053e-20)
(16.3655 -21.1863 1.20563e-19)
(15.8926 -21.1836 0)
(15.4995 -21.2713 -1.39805e-20)
(15.1445 -21.3692 -9.52597e-21)
(14.7492 -21.385 0)
(14.3724 -21.3763 -6.29082e-20)
(14.0595 -21.3432 -3.51443e-20)
(13.621 -21.5264 6.98767e-20)
(10.2688 -8.5376 -3.10594e-19)
(20.5849 -16.9454 3.02341e-19)
(22.1944 -19.1456 -3.43148e-19)
(21.4961 -19.312 -2.43761e-19)
(20.7954 -19.3745 2.39306e-19)
(20.0981 -19.4869 0)
(19.4503 -19.5458 2.75469e-19)
(18.8272 -19.6368 -2.47331e-19)
(18.2262 -19.679 1.45098e-19)
(17.6736 -19.749 -1.36942e-19)
(17.1581 -19.8388 -4.31033e-20)
(16.6579 -19.898 3.21514e-20)
(16.197 -19.9925 1.43049e-20)
(15.7569 -20.0698 0)
(15.2884 -20.0952 8.91445e-20)
(14.9054 -20.1788 -8.77914e-20)
(14.5462 -20.306 0)
(14.1884 -20.3709 -1.3419e-20)
(13.8387 -20.3506 1.3972e-20)
(13.4017 -20.6207 -1.87481e-19)
(10.4946 -8.0004 1.88025e-19)
(20.5878 -15.7 -7.32643e-20)
(22.0127 -17.6264 -1.79783e-19)
(21.1962 -17.7633 1.77315e-19)
(20.5154 -17.8901 8.269e-20)
(19.8338 -18.0631 -9.72544e-20)
(19.2227 -18.1815 -5.94047e-20)
(18.5865 -18.2912 5.385e-20)
(18.0356 -18.4256 -1.72353e-20)
(17.4827 -18.5309 3.77506e-21)
(16.9866 -18.6565 0)
(16.5203 -18.7842 6.075e-21)
(16.0415 -18.8698 -1.01916e-20)
(15.6092 -18.9715 0)
(15.223 -19.1248 2.09826e-19)
(14.8298 -19.2169 -1.71994e-19)
(14.4435 -19.3088 0)
(14.1199 -19.4651 2.474e-20)
(13.807 -19.4936 3.95063e-20)
(13.3077 -19.7232 2.92093e-19)
(10.6505 -7.43701 0)
(20.4492 -14.4861 0)
(21.5321 -16.0228 6.86164e-20)
(20.8005 -16.2997 -6.84568e-20)
(20.134 -16.4532 1.55691e-20)
(19.4709 -16.6772 7.5262e-22)
(18.8631 -16.8512 0)
(18.248 -17.0043 7.58113e-20)
(17.6615 -17.137 -8.54917e-20)
(17.1333 -17.298 -3.51579e-20)
(16.6201 -17.4496 -3.84919e-20)
(16.1505 -17.5983 0)
(15.7125 -17.7705 2.96926e-19)
(15.2471 -17.8598 -2.92274e-19)
(14.7882 -17.9401 0)
(14.4539 -18.1352 -3.79404e-19)
(14.0698 -18.2531 3.39607e-19)
(13.72 -18.3775 3.66633e-19)
(13.462 -18.5357 -3.99173e-19)
(13.0297 -18.8179 0)
(10.7351 -6.8594 0)
(20.1808 -13.2049 0)
(21.1312 -14.5928 0)
(20.3251 -14.8325 -2.55978e-20)
(19.6681 -15.053 0)
(19.0115 -15.3046 0)
(18.4335 -15.5336 0)
(17.8522 -15.7546 -4.76469e-20)
(17.2984 -15.9472 0)
(16.7616 -16.1166 3.51586e-20)
(16.2779 -16.3165 -1.79732e-20)
(15.8214 -16.5038 -4.70206e-19)
(15.3815 -16.6865 3.44986e-19)
(15.0164 -16.9219 -5.01085e-19)
(14.5783 -17.0491 3.70171e-19)
(14.1728 -17.1735 0)
(13.8426 -17.3781 -4.6498e-19)
(13.4625 -17.4795 3.93595e-19)
(13.1682 -17.6026 0)
(12.7623 -17.9253 -6.73603e-20)
(10.79 -6.29642 6.57284e-20)
(19.7661 -11.8954 3.43542e-20)
(20.4362 -13.089 1.42286e-19)
(19.7069 -13.4354 -1.65373e-19)
(19.0651 -13.6773 -1.92095e-19)
(18.4359 -13.9831 3.99642e-19)
(17.8618 -14.2516 -4.98873e-19)
(17.2848 -14.4909 3.05329e-20)
(16.7471 -14.7426 1.6545e-19)
(16.2361 -14.9618 0)
(15.7293 -15.1641 -1.75134e-20)
(15.2851 -15.3813 -1.66869e-20)
(14.8305 -15.5703 6.01706e-20)
(14.4086 -15.7474 5.46116e-19)
(14.0387 -15.9756 -4.90045e-19)
(13.6658 -16.1497 -6.46897e-19)
(13.3201 -16.3551 5.61026e-19)
(13.0002 -16.5442 -1.27783e-20)
(12.7123 -16.6842 -7.71159e-20)
(12.3403 -17.0348 -5.30869e-19)
(10.8511 -5.72199 -5.52755e-20)
(19.2252 -10.5628 2.64622e-20)
(19.819 -11.6879 -6.99409e-20)
(19.0703 -12.0511 -2.90408e-19)
(18.4397 -12.3689 1.81531e-19)
(17.8044 -12.6899 0)
(17.2613 -13.0207 4.59589e-19)
(16.7271 -13.3171 -2.16291e-19)
(16.186 -13.579 1.59459e-19)
(15.7148 -13.866 9.01113e-20)
(15.2427 -14.1222 -1.69851e-19)
(14.817 -14.3793 4.04438e-19)
(14.4209 -14.6462 9.14075e-20)
(14.0396 -14.8901 -5.11189e-19)
(13.619 -15.0714 1.43911e-18)
(13.2373 -15.2557 -5.91558e-19)
(12.9162 -15.4865 7.65501e-19)
(12.5619 -15.6585 -4.98553e-19)
(12.2693 -15.8034 1.663e-19)
(11.9069 -16.1461 7.92223e-19)
(10.9579 -5.11782 3.36568e-19)
(18.5676 -9.30026 -6.26812e-20)
(18.9235 -10.2562 -2.49749e-20)
(18.1835 -10.6964 1.7502e-19)
(17.5995 -11.0655 7.96475e-20)
(17.0137 -11.4448 1.04046e-19)
(16.4767 -11.8123 -4.74883e-19)
(15.977 -12.1512 2.95058e-19)
(15.4612 -12.4639 -8.90492e-20)
(14.9773 -12.728 -9.01134e-20)
(14.521 -13.0267 -9.08391e-20)
(14.0838 -13.2658 -1.06592e-19)
(13.6618 -13.5213 -1.97444e-19)
(13.3191 -13.7946 7.00301e-19)
(13.0233 -14.1227 -9.74952e-19)
(12.6307 -14.2983 -1.03443e-19)
(12.3159 -14.5558 1.218e-20)
(12.0493 -14.808 -7.5423e-19)
(11.749 -14.9749 5.65498e-19)
(11.4425 -15.3329 -8.83983e-19)
(11.1281 -4.53851 3.98262e-19)
(17.8039 -8.12798 -9.40673e-19)
(17.9963 -8.95007 6.33648e-19)
(17.3503 -9.46197 -9.9347e-20)
(16.7737 -9.89446 -1.23195e-19)
(16.204 -10.2824 4.82932e-19)
(15.6926 -10.6976 -5.79169e-19)
(15.2431 -11.0752 0)
(14.7807 -11.4537 4.65908e-19)
(14.344 -11.7807 -4.58128e-19)
(13.9181 -12.1059 -3.39374e-19)
(13.5514 -12.4425 4.39625e-19)
(13.1538 -12.7177 1.06038e-19)
(12.7167 -12.9279 -4.49621e-19)
(12.3953 -13.2109 1.02433e-19)
(12.0923 -13.4977 5.41359e-19)
(11.7224 -13.6871 -9.69784e-19)
(11.4335 -13.9508 6.41244e-19)
(11.1595 -14.137 -1.05356e-20)
(10.8405 -14.4851 -8.80995e-19)
(11.2965 -4.05352 6.16935e-19)
(16.8286 -6.96692 -3.86937e-19)
(16.8232 -7.73234 2.71609e-19)
(16.2141 -8.24519 1.42854e-20)
(15.7209 -8.7857 -5.48144e-19)
(15.2205 -9.20826 -5.20614e-19)
(14.726 -9.65889 6.5427e-19)
(14.2876 -10.0415 -3.93506e-19)
(13.8382 -10.4242 5.25455e-19)
(13.4275 -10.7645 0)
(12.9874 -11.0758 1.43067e-20)
(12.6157 -11.39 1.21124e-19)
(12.3414 -11.7821 1.32852e-19)
(12.017 -12.0744 -1.3087e-19)
(11.6702 -12.3494 0)
(11.3907 -12.6336 1.26759e-19)
(11.1166 -12.9222 0)
(10.8412 -13.1605 2.34735e-19)
(10.583 -13.3875 1.15343e-18)
(10.3067 -13.7073 -3.45278e-21)
(11.3067 -3.655 3.58663e-19)
(15.8123 -5.9048 -6.48769e-20)
(15.6484 -6.67977 -1.08211e-18)
(15.18 -7.21705 6.07202e-19)
(14.6985 -7.77686 1.4317e-19)
(14.2553 -8.25035 -1.4281e-19)
(13.811 -8.7338 -6.0474e-19)
(13.4588 -9.20016 4.53277e-19)
(13.0685 -9.63785 0)
(12.7185 -10.037 0)
(12.3524 -10.4115 -7.10812e-19)
(11.9205 -10.6768 5.64967e-19)
(11.5751 -11.0124 -1.32857e-19)
(11.2647 -11.3306 -4.16246e-19)
(10.9707 -11.641 9.26718e-22)
(10.6714 -11.9263 9.3109e-19)
(10.3732 -12.1937 -5.20371e-19)
(10.1317 -12.488 3.87024e-19)
(9.88353 -12.7207 -6.22618e-19)
(9.61198 -13.059 0)
(11.1358 -3.21703 -3.27007e-19)
(14.6122 -4.96808 5.14096e-19)
(14.3455 -5.68836 9.08597e-20)
(13.9136 -6.23275 9.00608e-20)
(13.5041 -6.84178 0)
(13.1094 -7.32313 6.75539e-19)
(12.6573 -7.80823 -6.63669e-19)
(12.2841 -8.23329 8.53709e-20)
(11.9306 -8.70293 0)
(11.6047 -9.11224 6.35623e-19)
(11.3327 -9.58172 -5.44148e-19)
(11.016 -9.93174 6.13241e-19)
(10.7047 -10.2831 -6.03483e-19)
(10.4349 -10.6271 5.9036e-19)
(10.138 -10.9356 -5.06271e-19)
(9.92122 -11.2725 -5.67545e-19)
(9.65347 -11.556 1.11531e-18)
(9.40356 -11.829 -4.77544e-19)
(9.19974 -12.0988 6.90969e-20)
(8.95037 -12.4149 5.56891e-19)
(10.7189 -2.74382 -2.71052e-19)
(13.4576 -4.14209 2.8856e-19)
(13.1579 -4.87949 -9.08724e-20)
(12.7636 -5.4233 -9.00651e-20)
(12.3883 -6.04916 0)
(12.0862 -6.5912 0)
(11.739 -7.14062 0)
(11.4158 -7.61572 -1.77147e-19)
(11.0682 -8.07697 -6.96878e-19)
(10.7182 -8.44963 1.36902e-18)
(10.4522 -8.89547 -7.53575e-19)
(10.1807 -9.28928 -8.47995e-20)
(9.85539 -9.629 0)
(9.60776 -9.98223 0)
(9.33886 -10.3057 -1.54547e-19)
(9.08354 -10.6128 0)
(8.8823 -10.95 5.92035e-19)
(8.63996 -11.2271 -7.28331e-19)
(8.43841 -11.5048 -6.35851e-19)
(8.21899 -11.8377 5.95708e-19)
(10.111 -2.26523 2.86736e-19)
(12.1004 -3.38776 5.24851e-19)
(11.7352 -4.11359 2.33741e-21)
(11.4173 -4.68163 1.39837e-21)
(11.0403 -5.29308 1.03945e-19)
(10.7387 -5.81966 -2.92167e-19)
(10.3893 -6.32089 0)
(10.1319 -6.81698 -2.86972e-19)
(9.9466 -7.37284 9.66809e-20)
(9.65342 -7.80838 3.64928e-19)
(9.36328 -8.23754 3.55756e-19)
(9.19504 -8.69634 -2.65206e-19)
(8.96051 -9.09983 6.81023e-19)
(8.72467 -9.46934 -5.8475e-19)
(8.50418 -9.82554 7.30897e-19)
(8.27032 -10.1433 -1.36013e-18)
(8.06337 -10.4619 6.27327e-19)
(7.86916 -10.7722 7.45373e-20)
(7.68463 -11.0443 5.94975e-19)
(7.48801 -11.376 -6.25846e-19)
(9.29474 -1.79215 1.01045e-19)
(10.8505 -2.73662 -1.07579e-19)
(10.5151 -3.49015 4.40727e-19)
(10.2409 -4.08582 -4.32571e-19)
(9.95086 -4.72667 -2.12293e-19)
(9.80213 -5.3391 -5.18142e-19)
(9.52248 -5.90274 1.13929e-21)
(9.1096 -6.29098 4.01314e-19)
(8.8455 -6.77782 -9.55134e-20)
(8.65777 -7.23224 0)
(8.37631 -7.64724 0)
(8.14304 -8.04684 0)
(7.94682 -8.47425 0)
(7.77198 -8.86658 3.77443e-21)
(7.58901 -9.26168 0)
(7.39693 -9.61246 8.1826e-20)
(7.21262 -9.96034 3.2599e-19)
(7.0212 -10.282 -9.58312e-19)
(6.86535 -10.5866 7.07405e-19)
(6.68388 -10.9374 -6.47912e-19)
(8.34531 -1.3569 0)
(9.39082 -2.16803 -6.01438e-20)
(8.96517 -2.92581 0)
(8.77774 -3.52139 1.69612e-19)
(8.42882 -4.10309 -1.14586e-19)
(8.18903 -4.67089 -4.37058e-19)
(8.1869 -5.37643 1.81505e-21)
(8.02964 -5.93056 4.20207e-19)
(7.7894 -6.40909 -4.08471e-19)
(7.59849 -6.88968 8.00677e-19)
(7.39517 -7.3251 -2.75055e-21)
(7.20404 -7.72625 -3.83428e-19)
(6.99104 -8.11393 3.71645e-19)
(6.80241 -8.47216 -4.55217e-19)
(6.64677 -8.85051 0)
(6.49209 -9.19294 -3.46008e-19)
(6.33638 -9.53932 3.40826e-19)
(6.18115 -9.85783 0)
(6.02756 -10.1513 -7.95751e-20)
(5.89546 -10.5031 0)
(7.22813 -0.968725 6.03463e-20)
(8.03109 -1.72807 6.0221e-20)
(7.72358 -2.46956 0)
(7.70713 -3.14413 2.352e-19)
(7.46629 -3.79615 -2.92195e-19)
(7.09012 -4.24586 1.69455e-19)
(6.83896 -4.79594 -5.01837e-19)
(6.75978 -5.38562 2.18274e-19)
(6.61036 -5.91421 -5.38902e-20)
(6.47782 -6.42952 0)
(6.33938 -6.90509 -5.13506e-20)
(6.17459 -7.35015 -5.01102e-20)
(6.05212 -7.78901 -4.88971e-20)
(5.88982 -8.17532 0)
(5.73363 -8.55905 -3.66195e-19)
(5.59431 -8.91279 7.63387e-19)
(5.45671 -9.26539 -6.56353e-19)
(5.32506 -9.59273 3.43558e-19)
(5.18451 -9.88857 4.22539e-20)
(5.0426 -10.221 3.45618e-19)
(6.03155 -0.674375 -9.29314e-20)
(6.54754 -1.44294 -1.27568e-19)
(6.1173 -2.13089 2.25843e-22)
(5.99022 -2.71856 3.36817e-19)
(6.04476 -3.45619 -9.15293e-20)
(5.93284 -4.04672 -5.91839e-20)
(5.70162 -4.55114 5.7185e-20)
(5.55793 -5.06287 1.12259e-19)
(5.44199 -5.57384 5.38983e-20)
(5.32647 -6.05349 -2.12378e-19)
(5.24303 -6.54553 2.33943e-19)
(5.09603 -6.9778 5.01129e-20)
(4.98945 -7.40937 2.46066e-19)
(4.88566 -7.81805 -1.7425e-21)
(4.78364 -8.20769 2.20667e-20)
(4.67857 -8.57219 -4.13272e-19)
(4.57104 -8.92796 1.13341e-19)
(4.47921 -9.26504 0)
(4.38516 -9.57569 -2.06777e-20)
(4.27917 -9.91224 -1.76861e-19)
(4.51771 -0.429614 3.22929e-20)
(5.08744 -1.31026 -6.56362e-20)
(5.07188 -2.00636 1.28735e-19)
(4.90294 -2.63253 -3.13294e-20)
(4.65147 -3.22708 -3.13024e-20)
(4.64964 -3.86565 0)
(4.54157 -4.43597 -5.85028e-20)
(4.41388 -4.95141 1.14571e-19)
(4.31453 -5.46288 -5.61086e-20)
(4.18594 -5.92685 5.42935e-20)
(4.12616 -6.38941 -2.71022e-20)
(4.06553 -6.8393 -5.16172e-20)
(3.97754 -7.24732 1.01122e-19)
(3.89021 -7.65868 -9.86062e-20)
(3.8127 -8.03728 2.451e-20)
(3.73591 -8.41586 1.67683e-34)
(3.65203 -8.76859 -2.28545e-20)
(3.56575 -9.10611 1.33633e-19)
(3.49237 -9.41958 -6.57805e-20)
(3.40573 -9.75291 -4.55529e-20)
(0.138988 -1.16987 9.62305e-20)
(1.28714 -9.91705 4.70657e-20)
(3.81438 -24.7736 0)
(5.44887 -34.7193 4.47829e-20)
(5.99666 -38.3159 4.31403e-20)
(6.11385 -38.9445 3.99603e-20)
(6.10044 -38.8695 0)
(6.02956 -38.5769 3.6555e-20)
(5.94227 -38.2333 0)
(5.86888 -37.9718 0)
(5.7899 -37.7146 -3.23193e-20)
(5.71409 -37.4696 1.74823e-21)
(5.61619 -37.2388 6.14971e-20)
(5.54259 -36.9777 0)
(5.41702 -36.737 2.76203e-20)
(5.3553 -36.4739 2.6433e-20)
(5.19642 -36.2261 2.53279e-20)
(5.14811 -35.865 0)
(4.95019 -35.5073 -4.63737e-20)
(4.89537 -35.0771 4.46734e-20)
(0.131915 -2.40189 1.46983e-19)
(1.92894 -13.2511 -2.37628e-19)
(4.75597 -27.9693 0)
(6.33911 -36.4196 -2.23702e-19)
(6.76756 -38.7586 2.17642e-19)
(6.83432 -38.9636 -3.62743e-19)
(6.80177 -38.7911 1.55478e-19)
(6.7096 -38.3986 1.10775e-19)
(6.63058 -38.1056 -5.02905e-19)
(6.54402 -37.8107 2.79587e-19)
(6.44811 -37.54 -3.29845e-20)
(6.34985 -37.2682 2.47532e-19)
(6.24341 -37.0121 -7.03993e-21)
(6.15262 -36.7704 -2.32816e-19)
(6.02697 -36.5309 -2.76197e-20)
(5.95971 -36.2493 -2.64316e-20)
(5.78576 -35.9551 -2.53262e-20)
(5.73243 -35.5543 0)
(5.51428 -35.1726 -1.81974e-19)
(5.475 -34.745 4.71731e-21)
(0.243727 -3.47331 -1.01916e-19)
(2.76881 -16.2872 0)
(5.807 -30.5626 0)
(7.31846 -37.564 -9.32664e-20)
(7.59932 -38.9894 8.54786e-20)
(7.63352 -38.9458 0)
(7.56299 -38.5897 -7.76604e-20)
(7.47326 -38.2084 2.22218e-19)
(7.37529 -37.8491 -2.20723e-19)
(7.28461 -37.5439 2.69775e-19)
(7.18209 -37.2457 -3.30298e-19)
(7.0813 -36.9758 0)
(6.96821 -36.7243 -2.33544e-19)
(6.8664 -36.4527 -2.15816e-19)
(6.72278 -36.2006 3.85196e-19)
(6.62859 -35.9005 -4.06395e-19)
(6.44333 -35.6065 3.51438e-19)
(6.37229 -35.2174 0)
(6.13405 -34.8511 -4.00427e-19)
(6.09038 -34.4617 6.81837e-19)
(0.521747 -4.63593 5.13672e-19)
(3.82784 -18.8881 0)
(7.00848 -32.6034 1.97431e-19)
(8.36899 -38.3161 2.73913e-19)
(8.51088 -39.0435 -5.31375e-19)
(8.47944 -38.8516 1.6449e-19)
(8.34946 -38.3945 7.94023e-20)
(8.24736 -38.0039 8.20556e-19)
(8.13158 -37.6703 -1.14769e-18)
(8.01442 -37.3466 -1.16518e-19)
(7.89612 -37.0463 5.91448e-19)
(7.77005 -36.7465 1.22104e-19)
(7.64473 -36.4638 -5.76723e-19)
(7.52046 -36.1852 5.63812e-19)
(7.38184 -35.9073 1.58712e-19)
(7.27553 -35.609 -1.00129e-19)
(7.08805 -35.2966 1.44332e-19)
(6.99723 -34.8674 0)
(6.74666 -34.4874 -4.24483e-20)
(6.70113 -34.0905 0)
(0.89896 -5.72258 0)
(5.05396 -20.9126 8.15485e-19)
(8.31004 -33.9724 -1.00523e-18)
(9.51339 -38.5252 9.3336e-19)
(9.56431 -38.8763 -7.1949e-19)
(9.46298 -38.5339 -1.65683e-19)
(9.30471 -38.0872 0)
(9.16687 -37.6914 4.39549e-19)
(9.00976 -37.3027 -5.80293e-19)
(8.86402 -36.9662 6.64713e-19)
(8.70895 -36.6449 -5.20565e-19)
(8.56029 -36.3529 -1.22098e-19)
(8.40674 -36.0796 5.68526e-19)
(8.26325 -35.8063 -9.85864e-19)
(8.08791 -35.5403 6.24607e-19)
(7.95293 -35.2163 -2.0499e-19)
(7.73115 -34.8906 -4.66717e-19)
(7.62686 -34.4822 1.07383e-18)
(7.34444 -34.1175 -6.10811e-19)
(7.30246 -33.7356 -7.22645e-19)
(1.52511 -7.26805 4.34003e-19)
(6.33805 -22.5939 5.013e-19)
(9.64871 -35.0384 -8.1392e-19)
(10.6255 -38.6721 -1.8668e-19)
(10.5632 -38.6687 1.74211e-19)
(10.3754 -38.235 6.4946e-19)
(10.1691 -37.7579 -6.45735e-19)
(9.99128 -37.3366 0)
(9.81218 -36.9737 5.51482e-19)
(9.64084 -36.6294 -5.42258e-19)
(9.47379 -36.3091 -4.93455e-19)
(9.30123 -35.9983 4.85456e-19)
(9.13739 -35.7075 0)
(8.96345 -35.4046 0)
(8.79258 -35.1134 9.01801e-19)
(8.63449 -34.8102 -8.84489e-19)
(8.41925 -34.4978 -7.2261e-19)
(8.28051 -34.0662 7.11865e-19)
(7.99273 -33.7034 -6.56268e-19)
(7.92875 -33.3307 8.03897e-19)
(2.19313 -8.04949 0)
(7.26497 -23.8692 1.95391e-19)
(11.0023 -35.5589 3.30397e-20)
(11.7414 -38.2955 9.531e-19)
(11.6258 -38.1729 0)
(11.3945 -37.6844 0)
(11.1708 -37.2717 1.22107e-18)
(10.9571 -36.8683 -5.0866e-20)
(10.7295 -36.4791 -1.12952e-18)
(10.5197 -36.1364 1.0215e-18)
(10.3056 -35.8115 -1.00469e-18)
(10.1005 -35.5096 0)
(9.89768 -35.2232 8.63202e-19)
(9.70655 -34.959 -8.49623e-19)
(9.49436 -34.6805 0)
(9.31026 -34.35 0)
(9.05418 -34.0158 0)
(8.90622 -33.6041 0)
(8.58196 -33.2433 0)
(8.51719 -32.8502 -7.81522e-20)
(2.52646 -9.23406 6.2118e-19)
(8.74725 -24.8896 -7.31822e-19)
(12.2707 -35.8622 0)
(12.8985 -38.049 0)
(12.6601 -37.7279 1.5221e-18)
(12.3576 -37.2266 9.94526e-20)
(12.07 -36.7534 -1.40405e-18)
(11.8128 -36.3307 0)
(11.5573 -35.9566 1.33067e-19)
(11.3169 -35.6107 -1.25131e-19)
(11.0882 -35.2889 0)
(10.8575 -34.9872 1.11018e-19)
(10.6412 -34.7051 -9.41594e-19)
(10.4111 -34.3989 1.71399e-18)
(10.1953 -34.1248 -3.01062e-20)
(9.98135 -33.8385 -7.3756e-19)
(9.73403 -33.534 -8.38505e-20)
(9.54049 -33.1187 7.94262e-20)
(9.21128 -32.7898 0)
(9.13491 -32.4129 7.20291e-20)
(3.30263 -9.72941 4.08244e-19)
(9.62729 -25.7965 3.54077e-19)
(13.6257 -35.8012 -1.21493e-18)
(13.9256 -37.3474 3.59739e-19)
(13.6638 -36.9876 1.63324e-19)
(13.3539 -36.5 1.39914e-18)
(13.0376 -36.1081 -1.94571e-18)
(12.7504 -35.7064 1.42063e-18)
(12.4485 -35.3317 -1.15851e-18)
(12.1726 -34.996 1.37504e-18)
(11.8963 -34.6844 2.27002e-19)
(11.632 -34.3827 9.56401e-19)
(11.3753 -34.1019 -5.34429e-19)
(11.1336 -33.8516 -1.04842e-18)
(10.8779 -33.5686 9.27049e-19)
(10.6405 -33.2558 0)
(10.3546 -32.9449 2.43697e-19)
(10.1439 -32.5557 7.17294e-20)
(9.77561 -32.2021 -1.43526e-19)
(9.68271 -31.8168 6.46813e-20)
(3.79894 -10.2955 -7.99864e-19)
(11.0742 -26.0895 8.14398e-19)
(14.8162 -35.4954 -1.1192e-20)
(15.1509 -36.7478 -7.09874e-19)
(14.7143 -36.3011 -6.6023e-19)
(14.3421 -35.8241 -3.14194e-19)
(13.9484 -35.363 -1.06757e-20)
(13.6044 -34.9671 -2.74718e-19)
(13.2698 -34.6038 0)
(12.9511 -34.2761 -2.41601e-19)
(12.6578 -33.9712 -2.27e-19)
(12.3633 -33.7023 -9.78343e-21)
(12.0908 -33.4368 7.6015e-19)
(11.804 -33.1571 -3.87904e-19)
(11.5419 -32.9189 -8.62956e-19)
(11.2768 -32.6564 6.73595e-19)
(10.9907 -32.367 4.50567e-19)
(10.7487 -31.99 -7.52519e-19)
(10.3783 -31.6761 1.4347e-19)
(10.2792 -31.2915 9.11735e-19)
(4.54034 -10.7399 -1.95295e-18)
(12.22 -26.4752 1.9652e-18)
(16.0412 -34.9676 -2.17918e-18)
(16.0596 -35.7743 1.76788e-18)
(15.6308 -35.3408 1.56937e-18)
(15.2263 -34.8949 -1.22386e-18)
(14.8199 -34.5442 -1.63365e-18)
(14.4525 -34.1725 5.32379e-20)
(14.0764 -33.8305 9.9144e-19)
(13.732 -33.5204 -6.62557e-19)
(13.392 -33.2343 1.69465e-18)
(13.0691 -32.9466 -1.01719e-18)
(12.7565 -32.6974 -1.91499e-19)
(12.463 -32.4616 5.04867e-19)
(12.1588 -32.1976 -1.31916e-18)
(11.8728 -31.9363 6.34882e-19)
(11.5557 -31.6776 0)
(11.2899 -31.3285 -1.08279e-18)
(10.8816 -31.0099 1.06555e-18)
(10.762 -30.6256 -8.60936e-19)
(5.08809 -10.9886 3.80986e-19)
(13.4356 -26.2787 4.16662e-19)
(17.0776 -34.1758 1.82147e-18)
(17.18 -34.866 1.60285e-18)
(16.6062 -34.4369 -9.60748e-19)
(16.1695 -34.0101 1.379e-18)
(15.6781 -33.5954 -8.13791e-19)
(15.2542 -33.2474 9.56157e-19)
(14.8484 -32.9207 -1.83192e-18)
(14.4544 -32.6294 6.57334e-19)
(14.1001 -32.3649 0)
(13.7453 -32.1409 0)
(13.4187 -31.8979 0)
(13.0821 -31.6726 -1.28394e-18)
(12.7772 -31.4648 1.26408e-18)
(12.4628 -31.2245 0)
(12.1448 -30.9734 0)
(11.8572 -30.6586 -1.2298e-19)
(11.4531 -30.3791 0)
(11.322 -30.0011 -1.03015e-18)
(5.78668 -11.2078 -7.3143e-19)
(14.5713 -26.247 -1.80901e-18)
(18.1509 -33.3291 -1.309e-18)
(17.962 -33.6878 -2.44994e-19)
(17.4001 -33.2841 1.73791e-18)
(16.9003 -32.9004 -3.37946e-19)
(16.4168 -32.6012 -5.66433e-20)
(15.9659 -32.2852 -1.1712e-18)
(15.5236 -31.9895 0)
(15.112 -31.7208 -5.8587e-19)
(14.7119 -31.4675 9.44165e-19)
(14.3334 -31.2237 0)
(13.9696 -31.0219 1.26733e-18)
(13.6248 -30.8104 -1.24744e-18)
(13.2777 -30.6076 1.11118e-18)
(12.9519 -30.4119 -2.00916e-18)
(12.607 -30.2037 1.02661e-18)
(12.2961 -29.9175 1.22976e-19)
(11.8566 -29.6325 -1.05139e-19)
(11.7149 -29.2585 8.28755e-19)
(6.34881 -11.2361 -9.99339e-19)
(15.5898 -25.688 5.24322e-20)
(18.9888 -32.1989 7.76576e-20)
(18.8905 -32.5396 2.35026e-18)
(18.225 -32.1872 2.12594e-19)
(17.7184 -31.8225 -1.27143e-18)
(17.1558 -31.4778 -8.98317e-19)
(16.666 -31.2002 2.72393e-19)
(16.2008 -30.9382 1.00882e-18)
(15.7447 -30.7009 -1.0869e-18)
(15.3353 -30.4903 5.2765e-19)
(14.9286 -30.3064 -1.39752e-18)
(14.5532 -30.1063 1.08384e-18)
(14.1765 -29.9341 -1.08382e-18)
(13.8281 -29.7489 9.441e-19)
(13.4717 -29.5584 8.19691e-19)
(13.129 -29.3745 -9.32855e-19)
(12.8079 -29.1484 7.3131e-19)
(12.3847 -28.9391 -7.11107e-19)
(12.2203 -28.5599 -8.33729e-19)
(6.97914 -11.2336 -1.2607e-18)
(16.5942 -25.2771 -2.51042e-19)
(19.864 -31.0857 1.21849e-18)
(19.5398 -31.2051 -1.05445e-18)
(18.8702 -30.8864 1.03525e-18)
(18.2935 -30.5851 2.40268e-19)
(17.7428 -30.3401 0)
(17.2161 -30.0871 -1.86956e-19)
(16.7185 -29.8485 5.15081e-19)
(16.2468 -29.6375 -1.8234e-18)
(15.7958 -29.4327 1.28483e-18)
(15.3692 -29.2602 2.8876e-19)
(14.9631 -29.1112 1.41623e-19)
(14.5743 -28.9544 0)
(14.1954 -28.8184 1.40068e-20)
(13.833 -28.667 8.41678e-19)
(13.4629 -28.5094 -4.45075e-20)
(13.1169 -28.302 1.47972e-19)
(12.6659 -28.0859 -7.19176e-19)
(12.5038 -27.7369 1.65288e-19)
(7.50833 -11.0933 1.16751e-18)
(17.4259 -24.4596 -2.00645e-18)
(20.4911 -29.7325 1.12309e-18)
(20.2288 -29.8784 9.64955e-19)
(19.5072 -29.6119 -6.27268e-20)
(18.9221 -29.3287 -6.70038e-19)
(18.316 -29.0706 1.82397e-19)
(17.7731 -28.8846 1.86953e-19)
(17.2622 -28.6997 0)
(16.7583 -28.5274 0)
(16.2993 -28.3674 -1.07952e-18)
(15.8483 -28.2206 1.80306e-18)
(15.4321 -28.0841 -9.81695e-19)
(15.0227 -27.9601 0)
(14.6363 -27.8354 1.47513e-20)
(14.2487 -27.7111 -8.19954e-19)
(13.8855 -27.5886 8.02355e-19)
(13.5419 -27.4681 -8.75379e-20)
(13.1179 -27.3444 -6.49432e-19)
(12.9257 -26.9709 4.43536e-19)
(8.04143 -10.92 -1.06548e-18)
(18.2647 -23.7355 1.33065e-18)
(21.1364 -28.3882 0)
(20.6951 -28.4334 0)
(19.9849 -28.2181 1.93668e-19)
(19.3442 -28.013 -9.24889e-19)
(18.7339 -27.8143 2.7555e-20)
(18.1465 -27.6255 6.52839e-19)
(17.6089 -27.4661 -1.11542e-18)
(17.0931 -27.3329 2.11988e-18)
(16.6048 -27.2015 -1.00628e-18)
(16.139 -27.098 2.22763e-19)
(15.697 -27.002 8.86375e-19)
(15.274 -26.904 3.44395e-20)
(14.8679 -26.8145 -5.44088e-19)
(14.4768 -26.7266 8.70119e-20)
(14.0795 -26.6145 -6.47543e-19)
(13.7026 -26.4797 5.58774e-19)
(13.2781 -26.4026 1.32279e-20)
(13.0998 -26.0829 4.69615e-19)
(8.49708 -10.6427 0)
(18.9 -22.7059 6.66793e-19)
(21.5766 -26.932 -7.08622e-19)
(21.1268 -26.9754 0)
(20.3924 -26.8057 -1.93667e-19)
(19.7499 -26.6228 6.36325e-19)
(19.1223 -26.4694 -7.86201e-19)
(18.5352 -26.3649 0)
(17.9889 -26.2442 9.58826e-19)
(17.4498 -26.1398 -9.42807e-19)
(16.9534 -26.0336 9.37081e-20)
(16.4674 -25.9416 -1.0274e-19)
(16.0241 -25.8817 -9.40265e-20)
(15.5912 -25.8288 -8.6053e-20)
(15.1741 -25.7697 -6.25355e-19)
(14.7625 -25.6907 1.03564e-18)
(14.3889 -25.6524 -9.42472e-19)
(14.0116 -25.6106 8.59326e-19)
(13.6041 -25.5786 -3.49632e-19)
(13.402 -25.2666 5.09887e-20)
(8.92779 -10.316 0)
(19.4907 -21.7064 -8.0837e-19)
(21.9716 -25.4409 4.19789e-19)
(21.4278 -25.4764 5.07343e-19)
(20.6946 -25.3603 -5.38992e-20)
(20.0163 -25.2495 -4.83977e-20)
(19.355 -25.0952 -5.3375e-19)
(18.7305 -24.9921 0)
(18.1687 -24.926 0)
(17.6273 -24.8748 0)
(17.1132 -24.8202 -9.37043e-20)
(16.6142 -24.7614 0)
(16.134 -24.7045 -5.78986e-19)
(15.6907 -24.6655 5.11771e-19)
(15.2708 -24.6689 -4.16532e-19)
(14.8519 -24.6282 7.81497e-19)
(14.4138 -24.5316 -3.65733e-19)
(14.0018 -24.5049 -3.24598e-19)
(13.6207 -24.5577 5.45742e-19)
(13.4166 -24.3075 -2.60915e-19)
(9.30506 -9.93005 0)
(19.9245 -20.5571 0)
(22.2112 -23.9305 1.78278e-19)
(21.6038 -23.9326 1.611e-19)
(20.8685 -23.8651 0)
(20.1918 -23.8021 4.48958e-19)
(19.564 -23.7464 -4.41064e-19)
(18.9284 -23.6867 0)
(18.3576 -23.6222 6.31243e-19)
(17.8003 -23.5952 -6.20697e-19)
(17.288 -23.566 0)
(16.7865 -23.5465 -4.32667e-19)
(16.3219 -23.5485 1.07058e-19)
(15.851 -23.5205 3.71859e-19)
(15.4088 -23.5066 0)
(15.0029 -23.5199 0)
(14.5927 -23.5328 0)
(14.1375 -23.4772 -1.31259e-19)
(13.7106 -23.4211 1.59484e-19)
(13.4434 -23.2868 0)
(4.08591 -34.119 0)
(3.64178 -32.6271 0)
(2.61205 -31.5793 -2.85501e-21)
(2.32072 -30.686 -2.43142e-21)
(1.70927 -29.8772 0)
(1.42169 -29.1039 1.26699e-22)
(1.08451 -28.4789 1.56878e-21)
(0.863787 -27.9729 0)
(0.665466 -27.5003 9.99516e-22)
(0.509493 -27.1171 0)
(0.379716 -26.8184 -7.15692e-22)
(0.286831 -26.5599 -2.79211e-22)
(0.18479 -26.3538 2.807e-22)
(0.146833 -26.1637 4.11772e-22)
(0.0818788 -26.046 0)
(0.0773 -25.7953 -6.4784e-23)
(0.0233342 -24.9773 2.95752e-22)
(0.0588313 -22.0703 0)
(-0.031924 -15.6395 0)
(0.00277043 -6.63497 1.66144e-22)
(4.58371 -33.9203 1.9287e-20)
(4.14185 -32.344 0)
(3.05933 -31.328 1.32633e-20)
(2.71381 -30.5317 -8.02652e-21)
(2.04702 -29.7809 0)
(1.69872 -29.0399 -8.00061e-21)
(1.32429 -28.4156 3.04805e-21)
(1.06015 -27.9174 0)
(0.837111 -27.4533 8.06555e-22)
(0.650358 -27.0808 -1.81581e-21)
(0.502755 -26.7895 1.99851e-21)
(0.388824 -26.5362 -2.36609e-21)
(0.271338 -26.3382 1.53158e-21)
(0.219185 -26.1544 -4.91113e-22)
(0.139786 -26.0363 -3.74208e-22)
(0.123452 -25.7843 2.47741e-22)
(0.0551665 -24.9728 -4.79543e-22)
(0.0777156 -22.0587 -4.32515e-22)
(-0.0237567 -15.6326 -1.83144e-22)
(-0.0103943 -6.63987 -2.07353e-22)
(5.09218 -33.5549 -7.63184e-21)
(4.45986 -32.18 -1.67818e-20)
(3.29009 -31.1969 -1.07577e-20)
(2.88696 -30.3902 0)
(2.18622 -29.6102 0)
(1.81506 -28.9022 9.17613e-21)
(1.42672 -28.3113 -9.94102e-22)
(1.14523 -27.8411 -7.85755e-22)
(0.912932 -27.3913 -6.89134e-22)
(0.713039 -27.0293 -3.51591e-21)
(0.558488 -26.7468 0)
(0.436044 -26.5007 0)
(0.314425 -26.3067 0)
(0.257919 -26.1321 -1.51085e-21)
(0.172903 -26.0195 0)
(0.153272 -25.7786 -1.00592e-21)
(0.0834823 -24.9744 8.37985e-22)
(0.0949095 -22.066 2.53647e-22)
(-0.0158643 -15.6329 3.89717e-22)
(-0.0206799 -6.65207 5.92713e-22)
(5.6188 -33.3097 2.93868e-20)
(4.96534 -31.8581 -5.6326e-20)
(3.73187 -30.9291 1.54824e-21)
(3.26879 -30.2292 1.97541e-20)
(2.51664 -29.5095 0)
(2.08354 -28.8345 1.14258e-20)
(1.66221 -28.2445 -2.61087e-20)
(1.3362 -27.7815 1.36166e-20)
(1.08036 -27.3409 -7.67138e-21)
(0.850563 -26.989 2.84482e-21)
(0.67842 -26.7148 -2.89524e-22)
(0.535591 -26.4738 -1.98878e-21)
(0.399535 -26.2882 1.99841e-21)
(0.328566 -26.1188 8.30355e-22)
(0.229116 -26.0064 6.83676e-22)
(0.196515 -25.7668 1.00533e-21)
(0.117509 -24.9725 -1.01938e-21)
(0.113212 -22.0669 3.22258e-22)
(-0.000275296 -15.6333 -1.54315e-22)
(-0.0345905 -6.66331 -5.91735e-22)
(6.08913 -32.9 7.21292e-20)
(5.25004 -31.6725 1.32321e-20)
(3.95017 -30.7686 -1.94332e-20)
(3.43021 -30.0617 2.78314e-20)
(2.65288 -29.3231 0)
(2.19387 -28.6846 -5.97586e-21)
(1.76145 -28.1306 5.0982e-21)
(1.41685 -27.6966 0)
(1.1526 -27.2722 1.34079e-22)
(0.910362 -26.931 0)
(0.731576 -26.6664 -5.03773e-21)
(0.580774 -26.433 0)
(0.441014 -26.2525 0)
(0.364193 -26.0922 -2.66024e-21)
(0.259681 -25.9852 1.30079e-21)
(0.2274 -25.76 -8.93603e-22)
(0.147083 -24.9751 0)
(0.132391 -22.0793 1.38096e-22)
(0.00914643 -15.6373 -1.4341e-22)
(-0.0461903 -6.67994 0)
(6.64808 -32.5922 2.9659e-20)
(5.75974 -31.3236 -2.48771e-20)
(4.39148 -30.5 4.633e-20)
(3.79882 -29.8968 -4.58322e-20)
(2.97612 -29.2195 1.34516e-20)
(2.45276 -28.6116 5.99467e-21)
(1.99253 -28.0595 -9.50419e-21)
(1.60185 -27.6323 -8.01373e-21)
(1.3156 -27.2182 3.50106e-21)
(1.04443 -26.8868 5.25373e-21)
(0.847998 -26.6311 -2.80587e-21)
(0.677322 -26.4032 0)
(0.522296 -26.2307 0)
(0.42993 -26.0746 1.06787e-23)
(0.311925 -25.9696 -1.22859e-21)
(0.268462 -25.7482 8.92742e-22)
(0.178122 -24.9759 0)
(0.153981 -22.0875 -1.02563e-21)
(0.0163124 -15.6421 -8.84572e-22)
(-0.0536007 -6.69707 -6.18028e-23)
(7.08389 -32.1424 -8.35364e-20)
(6.01837 -31.0959 7.89001e-20)
(4.59439 -30.2996 -1.96004e-20)
(3.94779 -29.6986 0)
(3.11008 -29.0172 -1.35092e-20)
(2.55669 -28.4509 2.06941e-20)
(2.08954 -27.937 -1.12318e-20)
(1.67867 -27.5391 8.03653e-21)
(1.38482 -27.1433 0)
(1.10195 -26.8228 0)
(0.898674 -26.5772 4.17445e-21)
(0.720369 -26.357 -4.18937e-21)
(0.561435 -26.1902 0)
(0.461849 -26.0437 3.73099e-21)
(0.339371 -25.9449 -1.15743e-21)
(0.298591 -25.7404 -7.3627e-22)
(0.200954 -24.9805 7.38656e-22)
(0.174833 -22.1072 1.2902e-21)
(0.0278099 -15.6512 5.93776e-22)
(-0.0540598 -6.71844 1.11745e-22)
(7.64404 -31.7543 0)
(6.51684 -30.7198 -4.22455e-20)
(5.03143 -30.0319 4.23759e-20)
(4.30126 -29.5333 0)
(3.42621 -28.9096 0)
(2.80535 -28.3712 -1.99405e-20)
(2.31513 -27.8609 2.00001e-20)
(1.85768 -27.4693 0)
(1.54278 -27.0858 5.76381e-21)
(1.23229 -26.7746 -1.05792e-20)
(1.01109 -26.5384 4.81253e-21)
(0.813598 -26.3242 3.26118e-21)
(0.638984 -26.1645 -3.27098e-21)
(0.525829 -26.0214 0)
(0.389747 -25.9274 0)
(0.33622 -25.7272 -6.79038e-22)
(0.22826 -24.9844 9.4931e-22)
(0.195473 -22.1234 -5.57129e-23)
(0.0365755 -15.6631 -3.13445e-22)
(-0.0435755 -6.73826 9.99067e-23)
(8.05741 -31.2699 4.98675e-20)
(6.75842 -30.4448 -4.99619e-20)
(5.22096 -29.7873 -5.06177e-20)
(4.4381 -29.3052 6.10967e-20)
(3.55804 -28.693 -5.06772e-20)
(2.9033 -28.201 3.70144e-21)
(2.40997 -27.7314 1.92405e-20)
(1.93175 -27.3683 0)
(1.60939 -27.0054 0)
(1.28785 -26.7049 4.82141e-21)
(1.05947 -26.4792 0)
(0.854899 -26.2728 0)
(0.676617 -26.12 0)
(0.55732 -25.9868 0)
(0.416814 -25.8986 0)
(0.362988 -25.7175 0)
(0.250629 -24.9912 -4.87808e-22)
(0.215377 -22.1506 4.88414e-22)
(0.0460691 -15.6816 -8.79e-23)
(-0.0219302 -6.75871 8.79803e-23)
(8.59217 -30.7985 -4.7657e-20)
(7.2376 -30.0409 -6.93333e-20)
(5.64706 -29.5161 -1.44297e-20)
(4.77518 -29.1381 -9.24138e-21)
(3.86628 -28.5799 1.63901e-20)
(3.14186 -28.1129 3.18304e-20)
(2.62812 -27.6499 8.12506e-21)
(2.10538 -27.2925 0)
(1.76161 -26.9442 -4.8418e-21)
(1.41413 -26.6528 1.02201e-20)
(1.16729 -26.437 3.83284e-21)
(0.944147 -26.2372 3.0197e-21)
(0.749728 -26.0905 0)
(0.615759 -25.96 1.92105e-21)
(0.463255 -25.8783 1.61239e-21)
(0.399409 -25.7027 0)
(0.277574 -24.9983 0)