/*--------------------------------*- C++ -*----------------------------------*\
  =========                 |
  \\      /  F ield         | OpenFOAM: The Open Source CFD Toolbox
   \\    /   O peration     | Website:  https://openfoam.org
    \\  /    A nd           | Version:  9
     \\/     M anipulation  |
\*---------------------------------------------------------------------------*/
FoamFile
{
    format      ascii;
    class       volScalarField;
    location    "10.3";
    object      nut;
}
// * * * * * * * * * * * * * * * * * * * * * * * * * * * * * * * * * * * * * //

dimensions      [0 2 -1 0 0 0 0];

internalField   nonuniform List<scalar> 
46400
(
0.0222898
0.00845738
0.00249819
0.00168946
0.00169533
0.00164902
0.00156759
0.00152985
0.00145934
0.00141324
0.00136225
0.00132842
0.00127166
0.00123195
0.00121184
0.00121728
0.00116055
0.00108985
0.00143039
0.00115517
0.0218018
0.00742433
0.00208259
0.00168778
0.00167412
0.0016435
0.00155689
0.0015218
0.00145332
0.00141717
0.00135957
0.00131724
0.00128898
0.00124511
0.00119012
0.0011438
0.0010708
0.000989229
0.00124946
0.00111834
0.0212864
0.00659321
0.00157842
0.00174722
0.00166198
0.00164354
0.00155856
0.0015231
0.00145047
0.00140905
0.00136243
0.00131204
0.00125327
0.00121166
0.00118692
0.001166
0.00107988
0.00103055
0.00134729
0.00112748
0.020738
0.00548457
0.00149372
0.00171863
0.00163402
0.00163218
0.00154122
0.00150992
0.00145077
0.0014047
0.00135957
0.00132334
0.00129706
0.00124635
0.00119387
0.00115914
0.00108697
0.00101626
0.00135367
0.00119944
0.020104
0.00507371
0.00151272
0.00176256
0.00163689
0.001627
0.00155246
0.00151653
0.00145063
0.00140855
0.00136262
0.00130767
0.00125846
0.0012313
0.00120201
0.00118692
0.00112035
0.00104436
0.00137691
0.00120073
0.0194119
0.00504435
0.00155593
0.00173975
0.00162202
0.00162346
0.0015329
0.00150156
0.00145511
0.00140486
0.00136076
0.00132523
0.00129303
0.00124518
0.00120301
0.00116211
0.00111343
0.00105024
0.00135135
0.00121475
0.0186323
0.00549254
0.0016063
0.0017851
0.00164956
0.00163421
0.00156641
0.00151634
0.00145429
0.00141958
0.00137656
0.00131851
0.00127294
0.00124038
0.00123008
0.00120148
0.00113364
0.00106491
0.00136847
0.00122414
0.017849
0.00533367
0.00166932
0.00180434
0.00164008
0.00162521
0.00153987
0.00151041
0.00145907
0.00139211
0.00136244
0.00133241
0.00130124
0.00123587
0.00120099
0.00119069
0.00113876
0.00105948
0.00134133
0.0012305
0.0167497
0.00462757
0.00165559
0.0018202
0.00166629
0.00162811
0.00154986
0.00147981
0.00144595
0.00139531
0.00134955
0.001298
0.00129255
0.00125614
0.00120764
0.00118515
0.00114364
0.00106881
0.00130463
0.00122439
0.0151146
0.00375028
0.00166786
0.00178611
0.00166574
0.00161485
0.00156819
0.00148413
0.00143159
0.00137543
0.00132197
0.00126043
0.00122907
0.0012126
0.00117939
0.00114538
0.00111362
0.00104169
0.00123287
0.00116713
0.0128444
0.00309239
0.00173392
0.00170848
0.0016523
0.00157343
0.00153108
0.00146498
0.00140736
0.0013711
0.00137981
0.00131002
0.00124243
0.00120683
0.00119402
0.00115527
0.00112269
0.00106548
0.00121416
0.00116391
0.0103107
0.00257813
0.00167528
0.00165036
0.00162125
0.00155378
0.00153595
0.00148193
0.00143507
0.00130842
0.00127473
0.00127229
0.00122738
0.00116673
0.00114491
0.00111376
0.00107511
0.00103294
0.00114947
0.00109631
0.00842354
0.00223785
0.00172795
0.00161126
0.0015872
0.0014931
0.001443
0.00139855
0.00143882
0.00140546
0.00132136
0.00127365
0.00126301
0.00120681
0.00116993
0.00114155
0.00108827
0.00104317
0.00113732
0.00107749
0.00672084
0.00191053
0.0016808
0.00162548
0.00160693
0.00153677
0.00147884
0.0013564
0.00131887
0.00131122
0.00128456
0.00121856
0.00119996
0.00116979
0.00112901
0.00111071
0.00107848
0.00103067
0.00112553
0.00108365
0.00572083
0.00172664
0.00163229
0.0015844
0.00153976
0.00150175
0.00157077
0.00152466
0.00141742
0.00133995
0.00133296
0.00125663
0.00120586
0.00117031
0.0011314
0.00109183
0.00105559
0.00100161
0.00105653
0.00101453
0.00507381
0.00176343
0.00170573
0.00158741
0.00157654
0.00138343
0.00132023
0.00131481
0.00132902
0.00127835
0.0012555
0.00125713
0.00122713
0.00119072
0.00116754
0.00113049
0.00109331
0.00104322
0.00108978
0.00104076
0.00469401
0.00173439
0.00166397
0.00154976
0.00163751
0.00159209
0.00149622
0.0013703
0.00133009
0.0012832
0.00122879
0.00118488
0.00115494
0.00111999
0.00108987
0.00107315
0.00104095
0.00100131
0.0010313
0.000996605
0.00400843
0.00171779
0.00162485
0.00143951
0.00138417
0.001399
0.00143184
0.00141562
0.00137687
0.00134744
0.00130213
0.00125298
0.00121023
0.00117754
0.00113732
0.00110298
0.00106798
0.00101543
0.00104465
0.000995635
0.00361709
0.0016799
0.0017447
0.00167991
0.00152942
0.00142833
0.00135343
0.00132727
0.00128154
0.00123829
0.00120566
0.00118626
0.00114515
0.00111557
0.00108915
0.00106501
0.00104022
0.000992843
0.00101646
0.000979638
0.00369736
0.00149822
0.00146457
0.00153684
0.00156537
0.00152778
0.00146611
0.00141554
0.00135362
0.00132085
0.00126406
0.00122653
0.00118685
0.0011449
0.0011066
0.00107171
0.00104087
0.000982604
0.00100568
0.000968076
0.00731928
0.0154101
0.0125987
0.00335047
0.000174173
0.000637896
0.000915937
0.000946024
0.000909849
0.000885741
0.000878772
0.000876885
0.000871871
0.000880873
0.000878721
0.000958441
0.0010225
0.00108776
0.00104762
0.000903406
0.0102166
0.0158699
0.0115394
0.00155224
0.000528943
0.000925331
0.00108259
0.00101653
0.000953356
0.000920207
0.000906834
0.000895813
0.000894571
0.000905985
0.000909451
0.000983054
0.00103249
0.00109558
0.00100646
0.000871273
0.0130054
0.0159985
0.0104592
0.000529285
0.000539557
0.00107233
0.00111132
0.0010454
0.00102828
0.00100072
0.000974104
0.000962271
0.000952226
0.000948649
0.000947363
0.0010309
0.0010782
0.00113635
0.00104562
0.000909939
0.0159504
0.0159444
0.00932604
0.00034679
0.000819177
0.00118871
0.00120215
0.00111351
0.00105488
0.00101887
0.00100793
0.000990935
0.000985326
0.000986032
0.000983139
0.00105445
0.00109135
0.00115045
0.00101775
0.000897692
0.0181424
0.0158603
0.00689772
0.000523075
0.00104745
0.0012641
0.00119724
0.00116367
0.00112674
0.00108817
0.00104882
0.00103057
0.00101775
0.00101169
0.00101282
0.00108739
0.00112084
0.00117947
0.00105009
0.000932045
0.0191771
0.0157689
0.00527852
0.000113069
0.00121097
0.00134545
0.00127052
0.00119873
0.00115021
0.00111353
0.00109877
0.00107487
0.00105995
0.00104262
0.00102949
0.00109575
0.00113633
0.00119929
0.00102872
0.000924391
0.0207633
0.0153713
0.00370683
0.000422721
0.00129913
0.00136791
0.00128299
0.0012443
0.0011989
0.00115241
0.00110984
0.00109046
0.00108134
0.00107431
0.00106939
0.00111697
0.00113973
0.00122295
0.00106573
0.000962433
0.0211069
0.0151421
0.00276836
0.000493959
0.0013875
0.00140753
0.00135032
0.00126935
0.00123133
0.0011935
0.00116693
0.00113344
0.00110624
0.00107806
0.00106592
0.00112587
0.00115679
0.0012244
0.0010255
0.00094072
0.0219215
0.0147711
0.00189998
0.000743468
0.00147915
0.00143701
0.00136977
0.00131638
0.00125936
0.00121283
0.00117251
0.00115174
0.00114159
0.00112697
0.00110025
0.00112587
0.0011607
0.001268
0.00108575
0.000990489
0.0225601
0.0143599
0.00153042
0.000920901
0.00152394
0.00146032
0.0014142
0.00133037
0.00129521
0.00124777
0.00121043
0.00117237
0.00113949
0.00111255
0.00109963
0.00113052
0.00114891
0.0012317
0.00101714
0.000964791
0.0230236
0.0139886
0.00126044
0.00110277
0.00156863
0.00148861
0.00143687
0.00137205
0.00131359
0.00127451
0.00123122
0.00120453
0.00118656
0.00116194
0.00112021
0.00113005
0.00117254
0.0012878
0.00107615
0.00100299
0.0233955
0.0135393
0.00165055
0.00122072
0.00160455
0.00150151
0.0014653
0.00138428
0.0013382
0.00128301
0.00124415
0.00120724
0.00117197
0.0011501
0.0011273
0.00111725
0.0011277
0.00122939
0.00100775
0.000992995
0.0236266
0.0130971
0.00189607
0.00133052
0.0016373
0.00153124
0.00148975
0.00142168
0.00136728
0.00133048
0.00127681
0.00124501
0.00121937
0.00119005
0.00114585
0.00113477
0.00116231
0.00127177
0.00104346
0.00101382
0.023791
0.0126544
0.00214361
0.00140719
0.00167922
0.00153525
0.00149866
0.00143205
0.00136956
0.00131624
0.00128099
0.00124294
0.00120453
0.00118741
0.00115643
0.00111754
0.00111534
0.00120754
0.000982014
0.00102246
0.0238194
0.0122562
0.00290093
0.00143289
0.00168722
0.00158372
0.00152933
0.00146462
0.00141692
0.00137392
0.00131104
0.00128132
0.00124861
0.00121736
0.00117855
0.00114823
0.00115408
0.00123437
0.000991344
0.00103323
0.0238049
0.0119708
0.00282123
0.00151868
0.00169574
0.00157144
0.00152685
0.00147009
0.00139883
0.0013566
0.00131992
0.00127812
0.00124085
0.00122629
0.00119419
0.00114378
0.00112461
0.00117474
0.000934708
0.00105742
0.0236176
0.0115323
0.00238291
0.00154091
0.00169724
0.00161838
0.0015574
0.0014983
0.00145199
0.00140484
0.00134132
0.00131578
0.00127653
0.00124544
0.00121442
0.00118265
0.00117924
0.00119569
0.000906392
0.00106212
0.0234157
0.0111799
0.00267633
0.0016041
0.00170615
0.00160042
0.00155206
0.00150073
0.00142609
0.00139631
0.00135339
0.00130953
0.00127705
0.00126245
0.00123022
0.00118272
0.00116979
0.00117462
0.000862266
0.0010847
0.0230802
0.0101734
0.00230017
0.00162803
0.00171122
0.0016425
0.00157422
0.00152684
0.00147226
0.00142544
0.00136949
0.00134565
0.00130237
0.00127205
0.00124654
0.00123313
0.00124241
0.00120926
0.000841368
0.00105136
0.0227061
0.0094875
0.00273327
0.00164905
0.00171052
0.00163099
0.00156669
0.00152311
0.00145131
0.00142764
0.00138035
0.00134118
0.00132235
0.00131055
0.00128266
0.00127598
0.0012851
0.00126171
0.00103168
0.00121264
0.00630058
0.00474099
0.00347588
0.00290954
0.00267085
0.00223767
0.00187328
0.00152939
0.00129474
0.00109471
0.000892722
0.000721303
0.000564731
0.000454848
0.000428723
0.000807868
0.00202349
0.00642592
0.0106862
0.0148327
0.00624856
0.00469548
0.00369141
0.00287728
0.00272064
0.00226623
0.00190288
0.00154354
0.00130369
0.00109668
0.00088656
0.000722431
0.000573251
0.000459341
0.000424873
0.000798212
0.00199767
0.00644175
0.0106614
0.0148212
0.00569143
0.00473562
0.00352643
0.00285343
0.00267323
0.00219179
0.00184953
0.00150318
0.00127581
0.00107755
0.000868941
0.000702812
0.00054606
0.000434109
0.000394299
0.000760824
0.0019865
0.0064479
0.0106625
0.0148273
0.00643349
0.00468294
0.00374103
0.00284872
0.00271874
0.00222544
0.00187809
0.00152351
0.00128829
0.00108189
0.000867765
0.000709653
0.000559304
0.000440172
0.000396614
0.000759813
0.00194609
0.00644757
0.010659
0.0148251
0.00665295
0.00470666
0.0037817
0.00282317
0.00266275
0.00215449
0.00182437
0.00148496
0.001261
0.00106209
0.000850777
0.000690668
0.00053383
0.00042075
0.00037086
0.000699785
0.00192706
0.00642597
0.0106421
0.0148287
0.00661015
0.00465244
0.00378056
0.00283993
0.00270368
0.00219282
0.0018519
0.00150988
0.00127495
0.0010691
0.00085454
0.000701683
0.000550207
0.000432599
0.000377226
0.000691533
0.00187424
0.00638398
0.010632
0.0148122
0.00687517
0.00469424
0.00380129
0.00280587
0.00263717
0.00212791
0.00179927
0.00147554
0.00124845
0.00105045
0.000837977
0.000683798
0.000501501
0.000416812
0.000356148
0.000628439
0.00184664
0.00637201
0.0106825
0.0147886
0.00674193
0.00464754
0.00381664
0.00283901
0.00267399
0.00216805
0.001825
0.00150335
0.00126247
0.00106169
0.000846294
0.000697891
0.00054711
0.000431807
0.000361639
0.000616448
0.00178057
0.00633332
0.0107401
0.0148082
0.00694951
0.0046867
0.00382062
0.00279346
0.00260135
0.00211214
0.00177446
0.00147245
0.00123652
0.00104447
0.000830734
0.00068193
0.000528114
0.000412792
0.000333263
0.0005599
0.00174175
0.00632891
0.0107387
0.0148561
0.00683473
0.00463849
0.00385161
0.00283781
0.00262985
0.00215199
0.00179938
0.00150145
0.00125098
0.00105968
0.000843667
0.00069909
0.000548127
0.000423075
0.00034421
0.000518703
0.00166999
0.00629314
0.0107465
0.0149605
0.00697924
0.00465413
0.00383604
0.00278539
0.00255562
0.00210413
0.00175179
0.00147409
0.00122691
0.00104466
0.000830566
0.000688071
0.000536225
0.000414632
0.000230487
0.000456565
0.00158465
0.00626899
0.0107466
0.0150265
0.00689307
0.0045961
0.00387295
0.00283008
0.00257475
0.00214271
0.00177517
0.00150192
0.00124207
0.00106173
0.00084642
0.000707981
0.000558811
0.000441071
0.000276404
0.000475275
0.001484
0.0062491
0.0107456
0.0151631
0.00699627
0.00457224
0.0038377
0.00277967
0.00249654
0.00210103
0.0017315
0.00147797
0.00122138
0.00104864
0.00083532
0.000699811
0.000550528
0.000437548
0.000267118
0.000426234
0.00140018
0.00621131
0.0107448
0.0152628
0.00695206
0.00449654
0.00386152
0.00282239
0.00250852
0.00213418
0.00175411
0.00150269
0.00123744
0.00106635
0.000852319
0.000718594
0.00057078
0.000456488
0.000319974
0.000416428
0.00129027
0.00616438
0.0106872
0.0153324
0.00703998
0.00442656
0.00379781
0.00277879
0.00243064
0.00209671
0.00171691
0.00148256
0.00122074
0.00105533
0.000843722
0.000713535
0.000569936
0.000452175
0.000330294
0.000370303
0.00119819
0.00612416
0.010611
0.0153756
0.00707544
0.00433758
0.00377947
0.00281486
0.0024331
0.00211564
0.00173551
0.00150154
0.00123563
0.00107125
0.0008594
0.000730841
0.00059131
0.000481717
0.00037188
0.000353523
0.00108001
0.00605471
0.010632
0.0153595
0.00722609
0.00425081
0.00367647
0.00277385
0.00236378
0.00207892
0.00170251
0.00148237
0.00122083
0.00106035
0.000851635
0.000725471
0.000590161
0.000477599
0.000377025
0.000352223
0.000963679
0.00597698
0.0106405
0.0153289
0.00727612
0.0041688
0.0036264
0.00281473
0.00237839
0.00210254
0.00173123
0.00150952
0.00124421
0.00108277
0.000872558
0.000745729
0.00061182
0.00050341
0.000410014
0.000381754
0.000843703
0.00593499
0.0106814
0.0153565
0.00731987
0.00415232
0.00344769
0.00274686
0.00230691
0.00205631
0.00169724
0.00148935
0.00123262
0.00107282
0.000866012
0.000744509
0.000615634
0.000498241
0.000407711
0.000407456
0.000722898
0.00592517
0.0107593
0.0153996
0.0078684
0.00416312
0.00333721
0.00275789
0.00229703
0.00203138
0.00168205
0.00146995
0.00122231
0.00106453
0.000860246
0.00074098
0.000629492
0.000524076
0.000426677
0.000391246
0.000574701
0.00562232
0.0105867
0.0151671
0.0144957
0.0439062
0.0325594
0.0297969
0.0250273
0.0222925
0.0180724
0.0157767
0.0129781
0.0113315
0.00917233
0.00759438
0.00636987
0.00556797
0.00498614
0.00462511
5.55297e-05
0.0535805
0.100339
0.140298
0.0373424
0.0263951
0.0222308
0.0198508
0.0167091
0.0148153
0.0122863
0.0105307
0.00870685
0.00740326
0.0063953
0.00575149
0.00522229
0.00481995
0.00446986
0.00402953
0.0119045
0.0543642
0.0986801
0.138062
0.0176387
0.0164044
0.0162351
0.013112
0.012176
0.0107617
0.00956654
0.00870551
0.0078694
0.00717476
0.00671176
0.0063414
0.00592461
0.0055851
0.00518746
0.00466679
0.0101778
0.0521389
0.0970592
0.13838
0.0128667
0.0115027
0.0100956
0.00994781
0.00919915
0.00875129
0.00800431
0.00738872
0.00677818
0.00628337
0.00578565
0.00518985
0.00457672
0.004211
0.00416006
0.00362927
0.00954672
0.0478929
0.0972422
0.135032
0.00719343
0.00816273
0.00861753
0.00731438
0.00670726
0.00614484
0.00587623
0.00557365
0.00532918
0.00503629
0.00480331
0.00465379
0.0044705
0.00427562
0.00424631
0.00404756
0.00823085
0.0411785
0.0973729
0.134675
0.00579256
0.00525537
0.00443404
0.00526078
0.00533924
0.00523349
0.00501603
0.00497707
0.00471567
0.00465629
0.00433516
0.00428309
0.0040238
0.00403097
0.00396822
0.00340011
0.00703252
0.0352018
0.0978708
0.134678
0.00347417
0.00426088
0.00474307
0.00413056
0.00389996
0.0038472
0.00381936
0.00398295
0.00388549
0.0039397
0.00382133
0.00384559
0.00375607
0.00373396
0.0037525
0.00353475
0.00477525
0.0284041
0.0983187
0.136624
0.00281938
0.00272661
0.00240786
0.0028448
0.00305173
0.00339759
0.00331525
0.0034323
0.00348494
0.00357482
0.00352886
0.00356827
0.0034692
0.00371763
0.00369008
0.00382899
0.00495308
0.0228314
0.0974262
0.141804
0.00193821
0.00224381
0.00257459
0.00267779
0.00260039
0.00266185
0.00281468
0.00294743
0.00291927
0.00320844
0.00315858
0.00339135
0.00321452
0.00338746
0.00345212
0.00363682
0.00382502
0.015003
0.0954463
0.14894
0.00156722
0.00159558
0.00147025
0.0017497
0.00192983
0.00235505
0.00236891
0.00271587
0.00275043
0.00294185
0.00305868
0.00332646
0.00334442
0.00351628
0.00329755
0.00401643
0.00327388
0.0108217
0.0908453
0.158083
0.00123705
0.0014935
0.00162724
0.00187423
0.00189787
0.0019866
0.00213335
0.00230848
0.00249552
0.00275837
0.00279712
0.00306332
0.0031253
0.00360191
0.00359873
0.00395949
0.00349118
0.00573222
0.0706685
0.169119
0.00104953
0.0011877
0.00120625
0.00137381
0.00155189
0.00187749
0.00191454
0.00219809
0.00216467
0.00250312
0.00261922
0.00292801
0.00313336
0.0035677
0.00384374
0.0040948
0.00387181
0.00412355
0.0588576
0.183965
0.000958414
0.00115314
0.00125653
0.0014536
0.0014222
0.00158025
0.00162775
0.00187831
0.00198432
0.0021536
0.00230989
0.00256071
0.00289139
0.00313759
0.00342706
0.00368565
0.00403004
0.00966218
0.0374708
0.180953
0.000824796
0.000936748
0.00094864
0.00111422
0.00116813
0.00137616
0.00138719
0.00164384
0.00160009
0.001719
0.00159483
0.0015903
0.00175469
0.00246987
0.00260988
0.00317963
0.00369388
0.00628094
0.0235023
0.13371
0.000774003
0.000888442
0.00090676
0.00103573
0.00102947
0.00119879
0.001212
0.00137573
0.00129418
0.00145853
0.00120309
0.00186665
0.00167401
0.00220896
0.00190039
0.00258359
0.00271283
0.00422129
0.0102143
0.0874283
0.000672484
0.000722211
0.000738879
0.00082198
0.000848237
0.000952467
0.000887316
0.00106365
0.0009056
0.00090917
0.00110941
0.00149182
0.0012728
0.00148699
0.00169316
0.00216502
0.00135798
0.00248925
0.00473617
0.0479125
0.000648135
0.000669496
0.000652247
0.000674026
0.000628843
0.000673953
0.000570337
0.000677757
0.000667856
0.000826397
0.000738392
0.000880272
0.00084737
0.0010744
0.00106235
0.00113014
0.00098437
0.00164991
0.00298677
0.0222294
0.000347109
0.000369196
0.000366195
0.00037895
0.000322269
0.000329127
0.000426341
0.000396778
0.000536297
0.000582559
0.000587979
0.000528874
0.000620709
0.000524802
0.000526756
0.000458405
0.000355678
0.000426256
0.0024663
0.0102193
0.000224277
0.000170502
0.000129304
0.00026885
4.99097e-05
0.000269159
7.28687e-05
0.00030527
0.000264028
0.000317093
0.000331677
0.000413113
0.000444433
0.000534845
0.000379856
0.000516387
0.00020122
0.000180778
0.000743543
0.00544012
0.000107352
0.000128723
3.13703e-05
1.36307e-05
0.000147383
9.71126e-05
0.000183552
0.000174311
0.000234287
0.000239347
0.000276319
0.00032881
0.000289907
0.000342868
0.000405232
0.000313189
0.000188313
9.40449e-05
0.000670564
0.0029911
0.0141171
0.0141584
0.014282
0.0143089
0.0144653
0.0144282
0.014878
0.0141525
0.0147454
0.0149534
0.014061
0.0134045
0.013117
0.0126438
0.0124648
0.011967
0.0120234
0.0111741
0.0109354
0.0110193
0.00695324
0.00694654
0.00698486
0.00693019
0.00695757
0.00696274
0.00696152
0.00677053
0.00805308
0.00807823
0.00683085
0.00686722
0.00736388
0.00738179
0.00633733
0.00727838
0.00730276
0.00652481
0.00641297
0.00805018
0.00418884
0.00424539
0.00428294
0.00435819
0.00443532
0.0045356
0.00465298
0.00475541
0.00459591
0.00446165
0.00430864
0.00525356
0.00560725
0.0050072
0.00328455
0.00328585
0.0028161
0.00324102
0.00381602
0.00427097
0.00266522
0.00268575
0.00264445
0.00267795
0.00266866
0.00273398
0.00268667
0.00261564
0.00250524
0.00265692
0.00258623
0.00240785
0.00305694
0.00337968
0.00290653
0.00320236
0.00263384
0.00290274
0.0018854
0.00259449
0.00157254
0.00158839
0.0016066
0.00165417
0.00171678
0.00172395
0.00170046
0.00175783
0.00182539
0.00192485
0.00211091
0.00223889
0.00190027
0.00198138
0.00181194
0.0011828
0.00116217
0.00125165
0.0010872
0.00111558
0.001136
0.00116879
0.00121917
0.00126589
0.00125605
0.00119031
0.00115906
0.00116892
0.00114842
0.00111393
0.000981377
0.00104782
0.00103814
0.00128859
0.00149978
0.00154384
0.00103623
0.000895541
0.000880981
0.0013546
0.000670455
0.000699743
0.000743577
0.00077296
0.000714168
0.000638543
0.000629388
0.000662161
0.000664743
0.00072112
0.000791637
0.000933101
0.000984793
0.00110801
0.000761447
0.000647767
0.000553174
0.000693002
0.000545289
0.000279152
0.000488078
0.000505712
0.00052297
0.00051947
0.000483411
0.000448016
0.000461301
0.000473707
0.000478363
0.000492131
0.00050424
0.000525088
0.000506515
0.000545189
0.000607981
0.00050759
0.000492096
0.000625005
0.000600898
0.000705207
0.00029201
0.000291801
0.000290013
0.000281907
0.000278875
0.000303674
0.000336199
0.00031001
0.00030162
0.000308733
0.000320308
0.000342842
0.000359054
0.00037758
0.000378394
0.000369006
0.000356553
0.000353542
0.000308554
0.000370019
0.000188437
0.000192735
0.000201703
0.000212808
0.000214387
0.000206855
0.000210966
0.000218215
0.00024793
0.000261842
0.000277744
0.000276847
0.000284843
0.000290173
0.000298101
0.000303216
0.000302317
0.000311324
0.000304253
0.000345722
0.000130516
0.000138596
0.000145844
0.00015116
0.000155086
0.00016256
0.000163761
0.000161657
0.00017158
0.000178521
0.000182998
0.000183629
0.000185034
0.000189639
0.000194916
0.000199085
0.000206899
0.000221882
0.000216678
0.000240933
0.000110759
0.000111637
0.000113919
0.000114702
0.00011689
0.00012707
0.0001356
0.000152937
0.000165339
0.000152796
0.000154954
0.000151889
0.00016036
0.000162658
0.000171412
0.000174595
0.000178799
0.000182492
0.000183204
0.000242456
0.000107743
0.000106037
0.000101292
0.000101261
0.000106453
0.000114647
0.000125661
0.000131736
0.000137212
0.000142152
0.000150675
0.000159272
0.000170171
0.000178579
0.00018451
0.000187788
0.000190392
0.000196957
0.000202124
0.000218783
0.000134123
0.000141537
0.000146732
0.000145868
0.000146399
0.000139872
0.000132529
0.00013282
0.000139695
0.000149394
0.000157462
0.000163974
0.000164886
0.000164385
0.00016776
0.000173862
0.000175633
0.000178965
0.00017521
0.000193012
0.000133425
0.000136878
0.000141012
0.00014613
0.000149326
0.000157013
0.000162751
0.000164629
0.000162487
0.000159546
0.000152768
0.000150785
0.000157175
0.000163327
0.000167598
0.000169875
0.000173165
0.000174697
0.000176357
0.000188184
0.000122437
0.000123261
0.000124731
0.000128037
0.000130309
0.000131785
0.000134639
0.000139264
0.000144601
0.000149491
0.000156378
0.000161466
0.000157745
0.000155879
0.000152242
0.000155316
0.000153304
0.000161463
0.000160233
0.000172449
0.000128185
0.000128816
0.000129084
0.00012766
0.000126985
0.000124995
0.000122669
0.00012033
0.000119048
0.000118957
0.000117737
0.000117962
0.000121645
0.000126618
0.0001302
0.000132823
0.00013381
0.000136787
0.000136937
0.000152
9.49442e-05
9.48321e-05
9.47453e-05
9.50558e-05
9.52048e-05
9.67504e-05
9.7951e-05
9.89408e-05
9.88585e-05
9.92052e-05
0.000101631
0.000102802
0.000100326
9.77427e-05
9.39441e-05
9.48029e-05
9.07076e-05
9.27939e-05
8.41965e-05
8.52165e-05
7.75774e-05
7.5492e-05
7.34548e-05
7.10879e-05
6.92391e-05
6.70327e-05
6.52116e-05
6.39273e-05
6.25709e-05
6.20058e-05
6.00006e-05
6.12045e-05
6.10224e-05
6.17877e-05
6.10158e-05
6.19599e-05
6.21292e-05
6.41088e-05
6.27207e-05
6.57237e-05
4.64142e-05
4.29893e-05
4.03929e-05
3.90135e-05
3.82266e-05
3.75971e-05
3.69628e-05
3.62755e-05
3.57192e-05
3.46968e-05
3.33242e-05
3.08459e-05
3.20673e-05
3.31398e-05
3.36186e-05
3.20631e-05
3.09663e-05
2.84208e-05
2.83046e-05
2.90959e-05
0.000976947
0.00119227
0.000870828
0.00093817
0.000970312
0.000994115
0.00100883
0.00102375
0.00107434
0.00110464
0.00113859
0.00116925
0.00123195
0.00126671
0.00133447
0.00133122
0.00143623
0.00131115
0.00484848
0.0179488
0.000914814
0.00104431
0.000814733
0.000892918
0.000953172
0.000975448
0.00100795
0.00105885
0.00109999
0.00113103
0.0011614
0.00118465
0.00125666
0.00128838
0.0013605
0.00135057
0.00148592
0.00124323
0.00407912
0.0175453
0.00093703
0.00109724
0.000829482
0.000893639
0.000966466
0.000988253
0.00101304
0.00104855
0.00108822
0.00111605
0.00115029
0.00119284
0.00125613
0.00129104
0.00135642
0.00135882
0.00148525
0.00124889
0.00390834
0.0170298
0.00104
0.0011447
0.000860081
0.000974117
0.000996426
0.00101066
0.00104311
0.00108857
0.00111809
0.00114874
0.00118985
0.00123444
0.00130375
0.00133782
0.00140613
0.00142175
0.0015564
0.00138711
0.00487725
0.0163723
0.001002
0.00111473
0.000876419
0.000921837
0.000936549
0.000966311
0.00100728
0.00104915
0.00108696
0.0011395
0.00118619
0.00124101
0.00129491
0.00132969
0.00140394
0.00141946
0.00155412
0.00142977
0.0047515
0.0157897
0.00102023
0.00113799
0.000872087
0.000943222
0.00101049
0.00105976
0.00108976
0.00111529
0.00114949
0.00119984
0.0012306
0.00127447
0.00131793
0.00136835
0.00142442
0.00146125
0.00161129
0.00149164
0.00433584
0.0149227
0.00106483
0.00110165
0.000862654
0.00095038
0.000974745
0.000998409
0.00101593
0.00106941
0.001127
0.0011795
0.00119548
0.00124435
0.00129347
0.00134019
0.00139943
0.00145133
0.00153969
0.00145704
0.00341146
0.0136573
0.000966147
0.00101862
0.00087564
0.000965181
0.00102402
0.00107174
0.00111039
0.00116877
0.00120014
0.00119338
0.00119759
0.00127144
0.00129406
0.00135351
0.0013871
0.00144255
0.00152321
0.00154124
0.00270296
0.0108983
0.00104935
0.00111621
0.000974845
0.00103631
0.0010601
0.0010648
0.00105866
0.00107763
0.00106346
0.00107865
0.00115609
0.00121836
0.00123766
0.00129849
0.0013256
0.00140298
0.00144345
0.00150926
0.00215167
0.00857774
0.000999933
0.00103025
0.000900048
0.00093589
0.000954908
0.000956871
0.000984076
0.00103366
0.0010663
0.00117749
0.00122766
0.00124218
0.00124902
0.00133764
0.00138515
0.00146852
0.00151634
0.00155324
0.00193607
0.00698435
0.00098222
0.00100389
0.000897248
0.000948693
0.000977357
0.00100578
0.00105598
0.00107883
0.00113141
0.00115485
0.00114386
0.00118671
0.00127533
0.00140944
0.00140828
0.00144545
0.00145724
0.0015321
0.00164688
0.00556847
0.000967223
0.000982534
0.000902059
0.000941059
0.00096814
0.00100355
0.00102474
0.00107959
0.00113302
0.00117655
0.00125819
0.00136692
0.0014557
0.00142185
0.00133025
0.0014242
0.00145731
0.0014956
0.00154023
0.00469663
0.00096949
0.000998328
0.000919439
0.000975915
0.0010211
0.00105011
0.00111208
0.0011743
0.00119484
0.00124061
0.00125269
0.00126169
0.00121442
0.00116789
0.00125527
0.0014467
0.00149033
0.00158055
0.00151102
0.00412384
0.000946372
0.000959236
0.000916574
0.000974951
0.00100172
0.00104076
0.00107608
0.00106969
0.00109513
0.00109161
0.00110507
0.00114926
0.00118479
0.00133278
0.00152792
0.00162316
0.00153014
0.00162179
0.00162569
0.00414002
0.000954734
0.000996548
0.000960351
0.00100415
0.00104591
0.00107213
0.00108127
0.00111703
0.00114218
0.0011705
0.00125401
0.0013024
0.00137138
0.00143612
0.00142432
0.00131252
0.00125424
0.00142958
0.00159402
0.00431424
0.000939058
0.000974769
0.00094152
0.000985235
0.00102599
0.00102599
0.00106796
0.00109443
0.00112174
0.0011856
0.00122265
0.0012585
0.00129882
0.00131641
0.0013281
0.001359
0.00150695
0.00163194
0.00179581
0.0041419
0.000952655
0.00099753
0.000954724
0.0010156
0.00103161
0.00106419
0.00109487
0.0011267
0.00116699
0.00121616
0.00124017
0.00128215
0.0013133
0.00132196
0.00136702
0.00145681
0.00152693
0.00156043
0.00162187
0.0027997
0.000924391
0.000958469
0.000930406
0.000998869
0.0010195
0.00107333
0.00109539
0.00115876
0.00118533
0.00123641
0.00125698
0.0013109
0.00131031
0.00142992
0.00143165
0.00157018
0.00153043
0.00159374
0.0016945
0.00157962
0.00094973
0.000992809
0.000972803
0.00103041
0.00105968
0.00109255
0.00111851
0.001157
0.00117964
0.0012247
0.00123157
0.00129914
0.00130801
0.00141302
0.00141752
0.0015019
0.00154219
0.00167744
0.00163381
0.00150521
0.000955431
0.000992229
0.000967804
0.00101897
0.0010428
0.00107382
0.00110196
0.00114045
0.00116728
0.00121924
0.00125918
0.00130416
0.00136688
0.00138052
0.00144864
0.00147891
0.00153934
0.00159862
0.00173483
0.00260205
0.000388657
0.000331015
0.00038182
0.000404728
0.000362533
0.000325646
0.000349112
0.000377682
0.000364877
0.000410716
0.000463187
0.00037074
0.000206973
0.000123022
0.00150311
0.00532387
0.00974221
0.0102966
0.00587742
0.000438013
0.000445559
0.000366934
0.000312443
0.000376506
0.000422244
0.000404368
0.000408523
0.000376225
0.00041659
0.000400659
0.00045337
0.000476171
0.000363371
0.000208241
0.000345648
0.00300726
0.00813083
0.0110999
0.00886643
0.00120114
0.000500766
0.000485986
0.00041532
0.000379249
0.000399177
0.000397708
0.0004478
0.000433313
0.000405367
0.00045985
0.000463832
0.000484798
0.000458181
0.000335985
0.000198918
0.00143556
0.00640335
0.0111138
0.00972644
0.00346661
0.000503011
0.00047334
0.000428623
0.000436781
0.000484507
0.000436413
0.000440671
0.000446294
0.000469033
0.00045374
0.000509466
0.000543068
0.000525845
0.000470113
0.00026409
0.000326079
0.00444587
0.0103196
0.0110993
0.00573295
0.000542126
0.000547461
0.000485587
0.000403741
0.000471208
0.000491814
0.000520493
0.000481166
0.000471952
0.000532255
0.000541752
0.000550844
0.000618673
0.000594041
0.000416638
0.00027003
0.00220617
0.00923623
0.0117419
0.00768049
0.000514612
0.0005241
0.000542005
0.000479241
0.000516897
0.000480843
0.000514725
0.000535926
0.000531658
0.000531009
0.0005965
0.000631612
0.000603553
0.000667393
0.000620773
0.00029052
0.00092232
0.00828776
0.0121593
0.00984242
0.000570452
0.000571664
0.000550438
0.00045286
0.000534912
0.000555987
0.000560598
0.000535079
0.000552893
0.000606148
0.000622518
0.000646417
0.000684637
0.000736531
0.000718568
0.000446169
0.000377632
0.00689803
0.0122244
0.0121805
0.000562353
0.000584565
0.000621307
0.000527573
0.000554908
0.000541062
0.000594789
0.000611874
0.000600434
0.000619515
0.000686922
0.000719914
0.000701045
0.000760783
0.000812215
0.000635148
0.000250979
0.00458966
0.01216
0.0146462
0.000620015
0.000618795
0.000638424
0.000522027
0.000606461
0.000622569
0.000617303
0.000615839
0.000646435
0.00069066
0.000707558
0.000734475
0.000776316
0.000821197
0.00088536
0.000800833
9.10611e-05
0.00302521
0.011959
0.0155558
0.000651311
0.000681507
0.000722021
0.000583755
0.000607629
0.000622011
0.000672472
0.000685974
0.000684786
0.000714592
0.000775982
0.000811035
0.00080349
0.000864525
0.000945745
0.000948369
0.000263763
0.00204262
0.0115584
0.0163174
0.000691796
0.000686982
0.000726269
0.000604298
0.000678096
0.00069567
0.000689791
0.000705475
0.000744871
0.000781481
0.000802049
0.000828828
0.00086394
0.000935299
0.00099227
0.000998367
0.000536586
0.00130395
0.0112533
0.0172887
0.000721165
0.000736
0.000801079
0.000663247
0.000683201
0.000712519
0.000753853
0.000766165
0.000774273
0.000806651
0.000859938
0.00089135
0.000898937
0.000978497
0.00103323
0.00110998
0.000686115
0.00109803
0.0107943
0.0177302