/*--------------------------------*- C++ -*----------------------------------*\
  =========                 |
  \\      /  F ield         | OpenFOAM: The Open Source CFD Toolbox
   \\    /   O peration     | Website:  https://openfoam.org
    \\  /    A nd           | Version:  9
     \\/     M anipulation  |
\*---------------------------------------------------------------------------*/
FoamFile
{
    format      ascii;
    class       volScalarField;
    location    "10.3";
    object      p;
}
// * * * * * * * * * * * * * * * * * * * * * * * * * * * * * * * * * * * * * //

dimensions      [0 2 -2 0 0 0 0];

internalField   nonuniform List<scalar> 
46400
(
-144.278
-134.419
-116.168
-100.745
-86.5098
-73.4589
-61.6488
-50.7005
-40.7174
-31.4353
-22.8957
-14.9447
-7.52774
-0.578636
5.99628
12.2457
18.1125
24.2364
30.4788
33.2127
-108.627
-98.9308
-82.0457
-67.7699
-54.7624
-42.7835
-31.9906
-22.029
-12.9685
-4.61556
3.06692
10.151
16.6832
22.7301
28.3499
33.5488
38.3254
43.0651
47.397
49.0041
-72.4743
-62.8077
-47.6534
-34.6308
-22.9825
-12.1895
-2.54714
6.3621
14.4153
21.828
28.5799
34.8014
40.5174
45.7641
50.5944
55.022
59.0073
62.9576
66.1978
66.6319
-35.9963
-27.6167
-14.1342
-2.29495
8.13608
17.8429
26.4777
34.4001
41.5321
48.0405
53.9478
59.2974
64.1654
68.5855
72.6295
76.2812
79.5574
82.7491
85.5205
85.5993
-0.495647
6.58199
18.5843
29.3095
38.6354
47.2632
54.8762
61.8251
68.0351
73.6505
78.7236
83.3105
87.4655
91.1811
94.5427
97.5487
100.175
102.758
104.951
104.616
33.0907
38.928
50.0139
59.8216
68.1748
75.8778
82.5829
88.6403
93.9999
98.7809
103.038
106.796
110.169
113.162
115.838
118.201
120.252
122.26
123.914
123.305
64.8847
70.7057
81.0193
89.847
97.2001
103.875
109.616
114.705
119.196
123.125
126.636
129.697
132.404
134.744
136.798
138.557
140.037
141.465
142.706
141.755
96.0106
102.468
111.322
119.092
125.306
130.949
135.755
139.932
143.558
146.666
149.362
151.656
153.645
155.342
156.804
158.027
159.017
159.976
160.832
159.751
127.21
134.314
141.184
147.586
152.633
157.054
160.816
163.997
166.753
169.047
171.022
172.651
174.004
175.068
175.93
176.565
177.011
177.446
177.784
176.482
157.057
164.244
169.425
174.379
178.377
181.734
184.571
186.843
188.735
190.215
191.404
192.288
192.98
193.441
193.749
193.856
193.796
193.727
193.577
192.005
186.353
191.965
196.067
199.535
202.444
204.747
206.668
208.129
209.285
210.09
210.655
210.95
211.035
210.929
210.684
210.3
209.772
209.258
208.674
206.906
212.231
216.428
219.659
222.153
224.249
225.754
226.919
227.627
228.061
228.185
228.111
227.814
227.374
226.75
226.012
225.146
224.167
223.189
222.152
220.146
235.257
238.589
240.988
242.688
243.985
244.788
245.307
245.463
245.384
244.986
244.391
243.57
242.61
241.498
240.284
238.959
237.549
236.138
234.685
232.421
255.431
258.006
259.882
260.919
261.668
261.817
261.719
261.237
260.592
259.704
258.68
257.454
256.124
254.661
253.113
251.472
249.746
248.027
246.283
243.836
273.3
275.29
276.619
277.136
277.405
277.125
276.638
275.74
274.628
273.246
271.724
270.036
268.25
266.352
264.397
262.37
260.293
258.229
256.176
253.558
288.899
290.236
291.018
290.973
290.659
289.884
288.885
287.636
286.212
284.605
282.844
280.951
278.945
276.845
274.661
272.423
270.107
267.813
265.542
262.715
302.962
303.642
303.964
303.429
302.754
301.55
300.127
298.392
296.516
294.453
292.291
290.021
287.683
285.277
282.837
280.354
277.843
275.349
272.929
270.057
313.991
313.924
313.75
312.881
311.819
310.438
308.851
307.033
305.014
302.819
300.485
298.034
295.497
292.893
290.248
287.567
284.855
282.162
279.554
276.512
322.4
322.339
321.826
320.775
319.35
317.615
315.649
313.494
311.172
308.734
306.181
303.557
300.862
298.127
295.356
292.569
289.755
286.964
284.27
281.218
327.631
327.701
327.168
326.165
324.814
323.103
321.1
318.862
316.432
313.845
311.158
308.366
305.529
302.632
299.725
296.794
293.859
290.946
288.163
285.004
-442.431
-442.122
-437.018
-424.862
-409.786
-394.958
-381.154
-367.675
-354.844
-342.596
-330.858
-319.593
-308.824
-298.452
-288.602
-279.026
-270.062
-261.325
-253.21
-245.446
-459.613
-458.853
-449.756
-434.654
-417
-400.316
-384.83
-370.155
-356.207
-343.018
-330.479
-318.551
-307.193
-296.333
-286.052
-276.094
-266.828
-257.779
-249.48
-241.456
-473.377
-472.951
-459.511
-441.848
-422.358
-404.017
-387.006
-371.145
-356.236
-342.156
-328.852
-316.244
-304.299
-292.936
-282.203
-271.896
-262.312
-252.998
-244.512
-236.263
-483.078
-482.156
-464.75
-444.771
-424.43
-405.232
-387.245
-370.528
-354.814
-340.071
-326.161
-313.035
-300.631
-288.875
-277.788
-267.168
-257.327
-247.759
-239.138
-230.664
-490.824
-487.445
-468.922
-446.232
-424.612
-404.377
-385.544
-367.965
-351.569
-336.196
-321.765
-308.176
-295.383
-283.305
-271.932
-261.095
-251.024
-241.274
-232.544
-223.873
-492.196
-486.493
-467.56
-443.868
-421.189
-400.21
-380.898
-362.922
-346.086
-330.378
-315.629
-301.765
-288.725
-276.437
-264.886
-253.906
-243.782
-233.901
-225.217
-216.424
-488.153
-483.161
-461.816
-437.822
-415.381
-394.042
-374.303
-355.957
-338.793
-322.743
-307.729
-293.635
-280.421
-267.989
-256.296
-245.251
-234.998
-225.11
-216.38
-207.49
-482.096
-477.122
-456.167
-430.334
-406.859
-385.135
-364.989
-346.376
-329.032
-312.892
-297.804
-283.676
-270.438
-258.011
-246.363
-235.384
-225.18
-215.37
-206.762
-197.847
-472.679
-466.638
-444.184
-418.547
-395.054
-373.281
-353.153
-334.545
-317.184
-301.005
-285.912
-271.779
-258.567
-246.173
-234.551
-223.631
-213.458
-203.756
-195.23
-186.332
-458.818
-452.185
-429.553
-403.873
-380.384
-358.817
-338.728
-320.242
-303.039
-287.044
-272.142
-258.216
-245.206
-233.027
-221.632
-210.934
-200.944
-191.429
-183.106
-174.253
-441.903
-434.393
-411.182
-385.942
-362.859
-341.567
-321.804
-303.569
-286.612
-270.837
-256.16
-242.446
-229.663
-217.697
-206.518
-196.065
-186.295
-177.068
-168.951
-160.259
-421.58
-413.43
-390.311
-365.446
-342.749
-322.014
-302.658
-284.876
-268.36
-253.008
-238.744
-225.431
-213.022
-201.422
-190.594
-180.461
-170.972
-162.036
-154.198
-145.627
-398.269
-389.736
-366.492
-342.362
-320.138
-299.968
-281.183
-263.846
-247.797
-232.876
-219.026
-206.115
-194.116
-182.906
-172.472
-162.748
-153.631
-145.12
-137.574
-129.258
-372.177
-363.296
-340.156
-317.172
-295.622
-276.157
-258.063
-241.395
-225.954
-211.616
-198.327
-185.934
-174.412
-163.662
-153.659
-144.332
-135.594
-127.47
-120.264
-112.157
-343.937
-335.03
-311.658
-289.694
-268.979
-250.217
-232.836
-216.8
-202.003
-188.255
-175.529
-163.689
-152.707
-142.464
-132.962
-124.128
-115.841
-108.212
-101.337
-93.5035
-313.502
-304.365
-281.494
-260.59
-240.961
-223.099
-206.579
-191.334
-177.244
-164.17
-152.078
-140.813
-130.368
-120.643
-111.621
-103.232
-95.3761
-88.1872
-81.6632
-74.0906
-281.699
-272.44
-250.239
-230.179
-211.466
-194.46
-178.742
-164.248
-150.915
-138.522
-127.081
-116.45
-106.596
-97.4266
-88.9438
-81.0732
-73.7076
-67.049
-60.9205
-53.6821
-248.38
-239.018
-217.812
-198.898
-181.211
-165.153
-150.362
-136.694
-124.117
-112.457
-101.695
-91.685
-82.4191
-73.8119
-65.8435
-58.4375
-51.5324
-45.3998
-39.7269
-32.7994
-214.504
-205.092
-184.647
-166.701
-150.015
-134.859
-120.96
-108.12
-96.3523
-85.4014
-75.3092
-65.9278
-57.2173
-49.1271
-41.6275
-34.6146
-28.1179
-22.4574
-16.9473
-9.54704
-179.756
-170.121
-150.63
-133.997
-118.454
-104.331
-91.4253
-79.4739
-68.5127
-58.3347
-48.906
-40.0993
-31.877
-24.1602
-16.8657
-9.91501
-3.46542
2.62246
9.37563
16.7834
-207.735
-165.732
-127.47
-103.617
-79.6122
-63.8872
-49.1411
-38.083
-28.7466
-20.6358
-14.5798
-8.57066
-4.53672
-0.06439
2.70697
5.99399
8.02581
9.70352
10.1743
10.6037
-203.139
-161.637
-123.465
-100.343
-76.6303
-61.4549
-47.0142
-36.2518
-27.1551
-19.2368
-13.3509
-7.48649
-3.57561
0.790222
3.43584
6.64989
8.49091
10.242
10.5065
10.9702
-197.267
-156.91
-119.193
-97.0413
-73.7207
-58.9901
-44.9049
-34.4067
-25.566
-17.8293
-12.1186
-6.3936
-2.61161
1.63529
4.15364
7.3029
8.96872
10.7794
10.9387
11.4046
-191.465
-152.479
-114.83
-93.4631
-70.635
-56.3858
-42.6928
-32.4582
-23.8917
-16.3423
-10.8127
-5.23675
-1.57896
2.54726
4.94334
8.00987
9.51016
11.3396
11.3855
11.8416
-184.438
-147.239
-110.331
-89.8622
-67.6078
-53.7529
-40.4894
-30.4973
-22.2173
-14.8487
-9.50392
-4.07165
-0.546226
3.45269
5.72504
8.71964
10.0785
11.9067
11.8523
12.31
-177.581
-141.921
-105.669
-85.9709
-64.3831
-50.9823
-38.1837
-28.4379
-20.459
-13.2765
-8.12107
-2.84305
0.555995
4.42515
6.57702
9.47648
10.6891
12.4976
12.3522
12.8098
-169.472
-135.839
-100.845
-82.0742
-61.2173
-48.1841
-35.8783
-26.3673
-18.6969
-11.6998
-6.73593
-1.60627
1.65806
5.39248
7.42178
10.2287
11.3294
13.1132
12.9007
13.3482
-161.365
-129.653
-95.7873
-77.8722
-57.848
-45.2507
-33.475
-24.2035
-16.8538
-10.0465
-5.27728
-0.30775
2.82988
6.42723
8.33108
11.0432
12.0059
13.7506
13.5169
13.9287
-152.022
-122.775
-90.5899
-73.6692
-54.531
-42.2917
-31.0628
-22.0309
-15.003
-8.39101
-3.81671
0.999033
4.00293
7.45387
9.24103
11.8685
12.709
14.4061
14.1781
14.5383
-142.474
-115.742
-85.108
-69.1593
-51.0159
-39.2051
-28.558
-19.7713
-13.0751
-6.66214
-2.28496
2.36493
5.24611
8.54412
10.2154
12.733
13.4483
15.0836
14.8995
15.1872
-131.741
-108.114
-79.5236
-64.6425
-47.5427
-36.0954
-26.0366
-17.5058
-11.1364
-4.93314
-0.751628
3.73925
6.49092
9.64099
11.1724
13.5901
14.1804
15.7705
15.6357
15.8545
-120.588
-100.277
-73.6376
-59.8335
-43.8847
-32.8737
-23.4291
-15.1621
-9.12608
-3.13545
0.848021
5.16865
7.7982
10.805
12.199
14.504
14.9185
16.4664
16.3809
16.5359
-108.321
-91.9375
-67.6805
-54.9995
-40.2489
-29.6281
-20.7968
-12.8136
-7.10209
-1.33888
2.44942
6.60611
9.10714
11.971
13.2191
15.4133
15.6712
17.1632
17.0925
17.2114
-95.4718
-83.3782
-61.4631
-49.9041
-36.442
-26.2864
-18.0809
-10.3925
-5.0096
0.523648
4.11247
8.09552
10.4721
13.2037
14.314
16.3627
16.4494
17.8645
17.7531
17.8866
-81.4492
-74.3737
-55.2631
-44.8279
-32.6776
-22.9543
-15.3572
-7.98203
-2.91221
2.37753
5.77235
9.58848
11.8393
14.4309
15.4076
17.3666
17.2412
18.5645
18.3588
18.5357
-66.4807
-64.8633
-48.7462
-39.4757
-28.7304
-19.539
-12.5604
-5.5162
-0.761357
4.28379
7.47965
11.1215
13.2528
15.7165
16.5718
18.3984
18.0281
19.2385
18.9069
19.1821
-51.0197
-55.0321
-42.1057
-33.923
-24.6013
-15.9651
-9.62571
-2.9629
1.46487
6.2351
9.22767
12.688
14.6943
17.0132
17.7598
19.5896
18.8639
19.9177
19.3725
19.7846
-35.3209
-45.6593
-36.0093
-28.7319
-20.6638
-12.5485
-6.74631
-0.423266
3.70813
8.22044
11.0014
14.2908
16.1876
18.3697
19.0111
20.7217
19.6896
20.7917
19.9621
20.4677
-13.7479
-34.5989
-30.4857
-24.4043
-17.4803
-9.84132
-4.43376
1.6313
5.59252
9.90462
12.5323
15.7026
17.5401
19.5899
20.1432
21.6219
20.4672
21.1891
20.1941
20.9358
9.64323
-18.6205
-20.4326
-16.3811
-11.6415
-5.2197
-0.815713
4.60568
8.12704
12.0858
14.5068
17.3984
19.0694
20.997
21.4923
22.7043
21.4161
20.9347
19.6445
21.6666
51.5133
59.4005
48.3806
44.1759
37.0543
36.1841
32.5989
32.4316
30.9049
31.334
31.029
31.3878
31.2799
31.8769
31.8309
32.473
31.794
32.4683
30.326
35.4556
118.079
107.284
84.0268
77.3362
65.9643
60.8251
54.5077
51.2003
47.542
45.4351
43.4506
42.5939
41.6208
41.1454
40.4593
40.1675
39.493
39.3456
38.4519
39.5099
129.231
118.638
105.753
97.1311
88.5413
82.5492
76.7272
72.8157
68.9685
66.2779
63.439
61.4381
59.6276
58.3247
57.1846
56.2111
55.6468
54.9109
54.9641
55.1712
137.81
128.87
118.329
110.546
102.49
96.4973
90.5072
85.8288
81.3061
77.7855
74.4438
71.6986
69.0023
66.8791
65.0289
63.557
62.2764
61.4425
60.841
60.6561
132.229
124.867
118.938
113.024
107.699
102.669
98.1762
94.1593
90.5002
87.3305
84.4323
81.968
79.7048
77.6186
75.7375
73.996
72.4849
70.8524
70.0173
69.821
133.126
128.996
123.476
118.945
114.12
110.039
105.71
102.144
98.4088
95.3595
92.1977
89.6036
86.9481
84.7616
82.6032
80.5835
78.9807
77.1456
76.3182
75.8239
129.015
125.439
122.723
119.194
115.893
112.638
109.483
106.586
103.672
101.13
98.4877
96.2477
93.8689
91.8178
89.7024
87.7389
85.812
83.7743
82.5861
81.8355
130.064
127.724
124.655
121.974
119.181
116.65
113.815
111.439
108.722
106.508
103.962
101.897
99.5176
97.5654
95.3146
93.3759
91.1809
89.1992
87.4955
86.7259
128.636
127.056
125.295
123.379
121.04
119.108
116.861
114.996
112.825
111.068
108.949
107.292
105.173
103.558
101.383
99.6994
97.3002
95.4854
93.2164
92.4049
129.693
128.317
126.408
125.021
123.201
121.76
119.902
118.468
116.626
115.215
113.393
112.012
110.157
108.779
106.786
105.356
102.92
101.558
98.7735
98.1302
130.188
129.263
128.04
126.944
125.515
124.453
123.028
122.012
120.615
119.657
118.27
117.373
115.954
115.07
113.512
112.596
110.51
109.816
105.746
106.041
130.884
130.178
129.104
128.407
127.31
126.605
125.515
124.846
123.789
123.19
122.185
121.681
120.709
120.293
119.275
118.954
117.625
117.604
116.339
117.641
132.157
131.689
130.931
130.465
129.704
129.305
128.58
128.292
127.646
127.494
126.998
126.957
126.729
126.772
126.963
127.034
127.863
127.795
129.816
131.333
133.013
132.684
132.081
131.803
131.218
131.033
130.485
130.443
129.987
130.172
129.848
130.302
130.239
131.029
131.377
132.449
133.69
134.695
137.887
138.247
134.272
134.075
133.69
133.571
133.244
133.277
133.024
133.252
133.077
133.54
133.515
134.294
134.492
135.609
136.138
137.797
138.849
141.126
143.267
145.161
135.044
134.914
134.634
134.607
134.331
134.48
134.307
134.679
134.58
135.204
135.192
136.135
136.206
137.632
138.146
140.257
141.178
144.204
145.587
149.52
135.917
135.846
135.662
135.727
135.663
135.807
135.826
136.123
136.213
136.819
136.882
137.895
137.867
139.651
139.872
142.009
142.274
145.669
145.984
154.142
136.498
136.403
136.212
136.234
136.24
136.327
136.48
136.82
137.042
137.546
137.83
138.553
138.895
139.807
140.175
141.374
141.613
148.483
148.832
150.938
136.961
136.93
136.94
137.088
137.024
137.451
137.411
137.859
138.013
138.517
138.767
139.482
139.774
140.757
141.156
142.385
142.808
144.684
145.078
146.242
137.088
137.111
136.995
137.259
137.277
137.524
137.608
137.967
138.161
138.632
138.937
139.551
139.932
140.738
141.096
142.038
142.273
149.089
146.799
151.269
247.889
245.659
243.059
239.42
235.497
230.417
225.11
218.531
211.772
203.807
194.601
185.264
174.786
164
152.471
140.059
127.504
113.992
100.419
86.5204
219.488
218.303
216.894
215.041
213.088
210.533
208.089
204.768
201.922
197.736
192.367
188.113
183.53
179.349
174.598
169.666
164.613
158.558
151.304
143.276
181.977
181.281
180.273
179.36
178.061
176.915
175.316
173.878
171.982
170.124
168.002
165.859
163.284
159.78
155.939
152.541
149.083
146.211
143.069
140.56
169.863
169.333
168.733
168.078
167.323
166.524
165.601
164.627
163.566
162.316
161.206
159.679
158.554
156.808
154.499
152.503
150.126
148.608
146.205
144.732
154.2
153.779
153.3
152.801
152.252
151.673
151.026
150.382
149.598
148.924
148.005
147.247
146.2
145.2
143.908
142.234
140.464
138.892
137.09
135.686
148.712
148.387
148.05
147.687
147.293
146.892
146.41
145.981
145.422
144.953
144.299
143.784
143.094
142.519
141.843
140.841
139.625
138.524
137.475
136.538
141.689
141.405
141.098
140.768
140.409
140.024
139.62
139.184
138.708
138.233
137.68
137.16
136.498
135.998
135.048
134.113
133.067
132.211
131.227
130.437
139.378
139.133
138.88
138.605
138.294
137.953
137.589
137.196
136.792
136.361
135.923
135.463
134.96
134.484
134.06
133.532
132.977
132.573
132.054
131.642
136.256
136.023
135.775
135.497
135.211
134.936
134.651
134.27
133.867
133.468
133.079
132.704
132.329
131.964
131.574
131.182
130.804
130.452
130.068
129.735
135.257
135.078
134.893
134.699
134.501
134.292
134.077
133.852
133.625
133.388
133.149
132.902
132.652
132.395
132.133
131.863
131.572
131.274
130.954
130.639
134.881
134.73
134.571
134.404
134.23
134.046
133.855
133.656
133.451
133.239
133.022
132.798
132.568
132.333
132.092
131.85
131.607
131.373
131.127
130.898
134.822
134.694
134.563
134.425
134.283
134.138
133.98
133.817
133.638
133.458
133.289
133.11
132.929
132.74
132.548
132.349
132.144
131.937
131.721
131.507
135.283
135.168
135.05
134.93
134.806
134.68
134.551
134.418
134.285
134.146
134.006
133.862
133.716
133.567
133.416
133.261
133.105
132.946
132.782
132.62
135.596
135.496
135.395
135.291
135.186
135.078
134.969
134.858
134.745
134.63
134.513
134.395
134.274
134.153
134.028
133.903
133.775
133.647
133.514
133.384
136.276
136.19
136.103
136.015
135.927
135.838
135.749
135.659
135.568
135.477
135.385
135.292
135.2
135.106
135.012
134.917
134.823
134.727
134.63
134.535
136.69
136.611
136.532
136.454
136.375
136.297
136.22
136.142
136.065
135.989
135.912
135.837
135.761
135.687
135.61
135.538
135.462
135.391
135.315
135.246
137.23
137.161
137.091
137.024
136.956
136.89
136.824
136.76
136.696
136.633
136.571
136.509
136.449
136.39
136.332
136.275
136.218
136.164
136.109
136.058
137.58
137.51
137.444
137.381
137.321
137.263
137.208
137.154
137.103
137.052
137.003
136.955
136.906
136.86
136.814
136.771
136.727
136.688
136.645
136.61
137.861
137.804
137.747
137.69
137.634
137.578
137.523
137.47
137.418
137.369
137.322
137.279
137.238
137.2
137.163
137.13
137.098
137.07
137.043
137.021
137.967
137.908
137.851
137.795
137.741
137.689
137.639
137.59
137.544
137.499
137.456
137.415
137.376
137.339
137.304
137.271
137.239
137.208
137.178
137.15
126.003
125.302
122.063
119.139
116.314
113.278
110.086
106.69
103.016
99.0252
94.6704
89.8729
84.6533
78.8263
72.4722
65.2505
57.5437
48.6629
38.4275
31.84
138.618
138.685
136.771
134.697
132.64
130.357
127.831
125.053
121.997
118.604
114.846
110.674
106.079
100.911
95.2538
88.7908
81.9192
73.7812
65.032
59.2296
151.846
152.756
151.668
150.208
148.714
146.974
144.98
142.773
140.272
137.473
134.327
130.798
126.862
122.376
117.389
111.613
105.351
97.8545
89.742
85.4944
166.609
167.766
166.922
165.955
164.939
163.708
162.261
160.61
158.698
156.504
153.983
151.113
147.822
144.023
139.711
134.649
129.069
122.202
114.432
110.104
180.672
181.943
181.426
180.858
180.279
179.523
178.577
177.47
176.12
174.531
172.645
170.441
167.855
164.808
161.297
157.089
152.413
146.485
139.775
134.796
194.101
195.692
195.659
195.59
195.508
195.271
194.867
194.313
193.523
192.531
191.249
189.703
187.774
185.487
182.725
179.428
175.66
170.796
165.503
160.066
207.392
209.072
209.284
209.553
209.821
209.948
209.946
209.833
209.542
209.07
208.369
207.438
206.207
204.664
202.728
200.359
197.554
193.881
190.102
184.615
219.217
221.148
221.836
222.578
223.33
223.981
224.508
224.924
225.156
225.243
225.093
224.765
224.137
223.285
222.026
220.504
218.472
216.01
213.207
208.839
230.874
232.99
234.018
235.057
236.098
237.018
237.849
238.579
239.171
239.668
240.003
240.179
240.117
239.837
239.245
238.379
237.08
235.417
233.175
230.035
240.756
243.047
244.434
245.859
247.291
248.66
249.952
251.197
252.338
253.386
254.26
254.995
255.463
255.778
255.729
255.459
254.689
253.633
251.944
249.447
250.765
253.215
254.874
256.579
258.3
259.962
261.553
263.089
264.515
265.845
267.035
268.105
268.984
269.675
270.044
270.178
269.844
269.235
267.935
266.052
258.715
261.305
263.31
265.345
267.412
269.431
271.418
273.359
275.227
277.031
278.696
280.259
281.582
282.697
283.486
284.072
284.19
284.071
283.212
281.795
266.687
269.537
271.753
274.031
276.329
278.579
280.781
282.912
284.959
286.891
288.688
290.348
291.808
293.162
294.28
295.261
295.734
296.03
295.505
294.735
272.975
275.847
278.213
280.667
283.154
285.605
288.025
290.413
292.737
295.008
297.206
299.314
301.321
303.197
304.894
306.355
307.37
308.197
308.294
308.235
278.801
281.861
284.366
286.979
289.637
292.246
294.843
297.389
299.89
302.327
304.669
306.901
308.967
310.844
312.468
313.84
314.963
315.888
316.326
316.378
282.757
285.819
288.426
291.167
293.924
296.682
299.408
302.141
304.822
307.477
310.05
312.547
314.904
317.135
319.155
321.015
322.592
323.934
324.768
324.851
285.956
289.145
291.877
294.746
297.644
300.529
303.396
306.251
309.046
311.798
314.439
316.989
319.373
321.624
323.66
325.479
327.036
328.15
329.033
329.131
287.618
290.753
293.495
296.386
299.312
302.235
305.149
308.063
310.926
313.772
316.507
319.214
321.742
324.228
326.414
328.538
330.137
331.655
332.625
333.383
288.101
291.324
294.14
297.121
300.107
303.114
306.076
309.059
311.958
314.845
317.605
320.322
322.842
325.306
327.423
329.523
331.015
332.625
333.19
334.085
287.049
290.24
293.021
295.945
298.894
301.831
304.754
307.664
310.532
313.359
316.106
318.78
321.314
323.726
325.921
327.897
329.591
330.91
331.919
332.201
-94.821
-98.9278
-103.121
-107.42
-111.829
-116.395
-120.994
-125.827
-130.709
-135.751
-140.964
-146.298
-152.027
-157.439
-162.636
-167.731
-173.062
-174.303
-175.478
-175.003
-89.6814
-93.8311
-98.1084
-102.477
-106.998
-111.725
-116.491
-121.512
-126.596
-131.927
-137.337
-143.011
-148.757
-154.915
-160.735
-166.815
-171.856
-174.597
-176.753
-176.402
-84.1763
-88.3707
-92.7572
-97.3373
-101.951
-106.898
-111.85
-117.104
-122.455
-128.015
-133.773
-139.691
-145.828
-152.029
-158.681
-165.1
-171.069
-176.125
-177.487
-177.886
-78.3784
-82.7478
-87.1779
-91.9063
-96.6563
-101.743
-106.898
-112.356
-117.97
-123.844
-129.923
-136.275
-142.911
-149.738
-156.979
-164.065
-171.105
-177.096
-178.866
-179.88
-72.194
-76.6574
-81.1302
-86.0146
-90.8772
-96.1765
-101.535
-107.243
-113.156
-119.354
-125.845
-132.645
-139.791
-147.355
-155.173
-163.572
-172.337
-179.706
-183.882
-184.975
-65.5599
-70.1207
-74.6076
-79.6308
-84.5963
-89.9913
-95.5437
-101.431
-107.595
-114.079
-120.915
-128.127
-135.809
-143.9
-152.483
-161.761
-171.578
-180.151
-187.732
-189.491
-58.4166
-63.0155
-67.5147
-72.5886
-77.6491
-83.1669
-88.8556
-94.9241
-101.304
-108.052
-115.177
-122.75
-130.815
-139.33
-148.556
-158.369
-168.839
-178.76
-188.39
-190.316
-50.696
-55.2697
-59.6746
-64.7704
-69.8528
-75.405
-81.2064
-87.3853
-93.9339
-100.876
-108.274
-116.146
-124.565
-133.532
-143.214
-153.506
-164.439
-175.543
-186.226
-187.668
-41.6797
-46.3165
-50.6723
-55.8306
-60.9723
-66.5936
-72.4902
-78.7811
-85.4763
-92.6111
-100.213
-108.36
-117.123
-126.5
-136.65
-147.56
-159.396
-172.368
-182.463
-184.298
-31.6679
-36.4766
-40.8242
-45.9771
-51.1358
-56.7285
-62.6658
-68.9841
-75.7174
-82.9168
-90.6255
-98.8952
-107.816
-117.381
-127.782
-139.086
-151.541
-164.614
-176.663
-179.612
-20.9866
-25.802
-30.0777
-35.1113
-40.2543
-45.7831
-51.675
-57.9763
-64.7146
-71.9464
-79.6873
-88.0339
-97.0593
-106.725
-117.295
-128.712
-141.118
-154.684
-166.908
-170.241
-9.64162
-14.3376
-18.4665
-23.3472
-28.367
-33.761
-39.5591
-45.7505
-52.3862
-59.5297
-67.2059
-75.5036
-84.477
-94.1344
-104.768
-116.18
-128.929
-142.551
-155.714
-160.043
2.41903
-2.18913
-6.08354
-10.7182
-15.5658
-20.7522
-26.3461
-32.3649
-38.8295
-45.8159
-53.3259
-61.4801
-70.3006
-79.8242
-90.2964
-101.532
-114.065
-127.597
-140.95
-145.687
15.5916
11.1654
7.45768
3.09126
-1.54589
-6.50533
-11.9033
-17.7026
-23.9488
-30.7212
-38.0221
-45.9692
-54.5652
-63.883
-74.1573
-85.1439
-97.6224
-110.842
-124.467
-129.787
29.0318
24.7722
21.3721
17.3398
12.9874
8.33437
3.27452
-2.21677
-8.14366
-14.5908
-21.5565
-29.1762
-37.4142
-46.4116
-56.2902
-66.927
-79.0567
-91.7884
-105.457
-111.035
43.9077
39.8562
36.6992
33.0445
28.9781
24.6265
19.8446
14.658
9.04041
2.90415
-3.74314
-11.0253
-18.9077
-27.543
-37.0105
-47.263
-59.0318
-71.0517
-85.0281
-90.8854
58.9332
55.0605
52.2106
48.9258
45.1778
41.1513
36.7578
31.9397
26.7059
20.9864
14.7754
7.94172
0.562245
-7.5909
-16.4609
-26.2067
-37.2498
-48.3676
-62.7479
-69.0247
74.6077
71.1727
68.6974
65.8693
62.5098
58.8442
54.7995
50.3527
45.501
40.1722
34.3621
27.9733
21.0401
13.3815
5.0574
-4.20291
-14.4332
-25.1517
-38.9179
-45.4246
91.9975
88.3104
85.9649
83.4108
80.2624
76.8334
73.1079
69.0015
64.5134
59.6014
54.2473
48.3404
41.9553
34.8545
27.1408
18.5091
9.01835
-1.13993
-14.0023
-20.4558
112.441
108.546
105.281
102.428
99.2963
95.8957
92.2898
88.4069
84.2244
79.6759
74.7336
69.3198
63.4477
56.9223
49.8659
41.8644
33.2795
23.6987
11.9409
5.54099
62.1883
61.332
61.6205
59.7086
58.6889
56.0903
54.7736
51.719
49.1906
45.3752
41.2014
36.2671
29.5208
23.0983
12.2084
3.70665
-13.3652
-26.3908
-51.2128
-74.5973
62.1927
61.4003
61.9023
59.8832
59.0806
56.4402
55.2912
52.3446
49.9474
46.2721
42.2531
37.4732
30.9811
24.8549
14.2045
5.96912
-10.2547
-22.7099
-47.1547
-69.0994
62.3098
61.4717
62.2017
60.1567
59.6844
56.8574
55.8302
53.015
50.7146
47.1582
43.2994
38.6955
32.4264
26.44
16.4268
8.56478
-7.25535
-19.0322
-42.7695
-63.5245
62.3761
61.5605
62.4829
60.4111
60.1876
57.2839
56.3981
53.6811
51.5179
48.1084
44.4209
39.9837
33.9939
28.3074
18.5835
10.976
-3.96429
-15.052
-38.3465
-57.6805
62.5027
61.7119
62.8568
60.6881
60.7787
57.8398
57.0381
54.408
52.3363
49.0559
45.5398
41.2913
35.5439
30.0393
20.8982
13.7663
-0.756263
-11.1974
-33.6399
-51.5411
62.62
61.8482
63.1774
60.9241
61.293
58.4073
57.6518
55.1372
53.1796
50.0585
46.7263
42.6562
37.2042
32.0196
23.1861
16.3496
2.65882
-6.90621
-28.7703
-45.0964
62.7619
62.1165
63.543
61.2315
61.8506
59.0703
58.4039
55.9176
54.0446
51.0668
47.9163
44.0464
38.8679
33.8741
25.6253
19.2926
6.09523
-2.6982
-23.7489
-38.4515
62.8946
62.3286
63.8746
61.4783
62.2753
59.6948
59.0616
56.7056
54.9207
52.1174
49.1624
45.4891
40.6178
35.9388
28.0603
22.0504
9.6941
1.73664
-18.5103
-31.6995
63.0342
62.537
64.2756
61.8064
62.7833
60.3293
59.759
57.5227
55.8229
53.1907
50.4183
46.9584
42.3847
37.9149
30.6103
25.1308
13.3719
6.01239
-12.8844
-22.808
63.1956
62.7185
64.6572
62.0646
63.2531
60.9417
60.417
58.3387
56.7281
54.2847
51.7237
48.4821
44.2267
40.0609
33.2091
28.0831
17.193
10.8394
-7.01802
-13.6609
63.3611
62.9616
65.0986
62.402
63.7833
61.5632
61.1104
59.1766
57.6606
55.4076
53.041
50.0291
46.0822
42.1449
35.8859
31.2883
21.1453
15.6424
-0.894053
-5.2967
63.5176
63.2062
65.5196
62.6681
64.2881
62.1655
61.8019
60.0084
58.59
56.5494
54.4067
51.6366
48.0112
44.3721
38.6465
34.41
25.219
20.7671
5.49707
3.34157
63.7108
63.4219
65.9114
63.014
64.8347
62.8009
62.5199
60.8641
59.5485
57.7409
55.783
53.2656
49.9403
46.5568
41.4523
37.7227
29.3383
25.4806
12.2893
12.8729
63.8864
63.6032
66.3081
63.3062
65.3813
63.4599
63.2535
61.7112
60.5075
58.9302
57.2155
54.9584
51.9503
48.8766
44.3734
41.0127
33.5657
30.4342
19.2023
22.6791
64.0904
63.6957
66.7389
63.6633
65.9026
64.1602
63.9619
62.5705
61.468
60.1335
58.6461
56.6634
53.927
51.1531
47.2876
44.406
37.7726
35.3926
26.3924
33.45
64.2831
63.6593
67.1321
63.9921
66.3937
64.8533
64.5975
63.412
62.4187
61.3596
60.1302
58.4148
55.983
53.5565
50.306
47.8046
42.1001
40.7369
33.8445
44.5976
64.4729
63.4873
67.5404
64.4207
67.3186
65.7194
65.7173
64.3558
63.5483
62.7916
61.7068
60.2687
58.1079
56.037
53.4465
51.4207
46.6125
46.1776
41.58
56.5703
64.8564
63.4102
68.2118
64.8377
68.0568
66.5116
66.6595
65.155
64.4701
64.0315
63.261
62.0846
60.1962
58.5323
56.5214
54.9733
50.635
51.3702
48.1298
67.5999
64.5392
63.0971
68.4461
65.1978
68.1042
66.9759
66.7781
65.5631
65.0396
64.9283
64.3934
63.5175
61.7292
60.578
58.9855
57.8927
54.1177
56.8241
56.5105
83.7166
65.4912
62.0662
68.6419
65.7153
69.5059
68.502
68.4652
67.3215
67.0609
66.8615
66.6649
66.0531
64.841
64.036
63.7175
62.7845
61.0974
65.0498
70.8592
103.655
89.2449
66.9265
83.292
79.151
84.7071
83.8565
86.3993
86.6373
88.0753
86.0425
88.0106
86.5562
90.7151
89.5337
95.8665
95.6672
108.439
109.251
131.79
133.605
85.8065
83.2514
85.8179
85.0196
87.6415
88.1055
90.0935
91.0108
93.0811
94.0883
97.0677
98.4008
102.326
104.983
111.603
116.333
127.546
135.422
153.724
166.054
96.7942
95.6303
97.4893
97.447
99.8929
100.266
102.216
103.293
105.089
106.598
109.021
111.341
115.061
118.863
124.229
129.58
137.167
144.466
154.849
164.872
99.18
99.2745
100.063
100.93
102.258
103.689
105.468
107.316
109.592
112.087
114.975
118.1
121.737
125.681
130.265
135.621
141.549
148.451
155.418
162.106
103.463
103.48
104.448
106.093
107.912
109.518
111.437
113.291
115.371
117.551
119.951
122.582
125.41
128.698
132.02
135.999
139.747
144.33
148.488
153.931
105.026
105.251
106.575
108.371
110.018
112.071
114.008
116.102
118.31
120.597
123.003
125.622
128.255
131.237
134.021
137.447
140.211
144.007
146.051
149.23
107.197
107.843
109.389
111.456
113.624
115.489
117.575
119.302
121.346
123.082
125.116
126.959
128.979
130.997
132.942
135.138
136.935
139.467
141.435
143.616
108.581
109.413
111.476
113.724
116.093
117.962
120.107
121.803
123.792
125.463
127.356
129.021
130.827
132.568
134.258
136.217
137.754
139.354
140.058
141.466
113.346
113.858
116.384
117.824
120.312
121.62
123.591
124.744
126.41
127.492
128.934
129.986
131.233
132.272
133.269
134.14
135.079
136.123
137.179
137.999
117.338
117.419
120.968
122.011
124.3
125.38
126.966
127.931
129.22
130.14
131.279
132.119
133.144
133.974
135.027
135.922
136.519
136.895
137.07
137.277
126.6
124.619
127.953
127.93
129.671
130.119
131.163
131.588
132.422
132.815
133.493
133.878
134.456
134.748
135.062
135.248
135.626
135.808
136.194
136.416
139.429
137.596
136.347
135.96
135.724
135.683
135.609
135.678
135.741
135.818
135.979
136.095
136.326
136.477
136.839
136.921
137.027
136.915
136.832
136.581
146.995
146.182
143.003
142.589
140.947
140.285
139.595
138.983
138.725
138.288
138.242
137.956
138.009
137.788
137.765
137.539
137.489
137.266
137.196
136.932
152.353
150.741
148.483
146.304
145.226
143.722
142.944
141.901
141.351
140.629
140.214
139.691
139.345
138.942
138.667
138.354
138.129
137.843
137.623
137.287
160.618
151.981
151.207
148.69
147.499
145.881
144.915
143.767
143.036
142.195
141.653
141.015
140.605
140.086
139.747
139.307
139.002
138.615
138.319
137.963
156.391
153.267
152.134
149.935
148.919
147.288
146.425
145.184
144.456
143.508
142.885
142.144
141.607
141.013
140.547
140.056
139.647
139.221
138.853
138.463
155.352
152.969
151.859
150.169
149.125
147.837
146.887
145.869
145.05
144.217
143.529
142.833
142.254
141.66
141.165
140.652
140.216
139.769
139.377
138.98
152.425
151.561
150.694
149.725
148.849
147.895
147.097
146.209
145.488
144.695
144.043
143.349
142.761
142.158
141.631
141.107
140.636
140.179
139.76
139.359
150.882
150.382
149.88
149.136
148.497
147.709
147.021
146.257
145.577
144.867
144.228
143.581
142.998
142.415
141.891
141.369
140.891
140.435
140.008
139.605
150.608
150.093
149.615
148.988
148.372
147.687
147.02