/*--------------------------------*- C++ -*----------------------------------*\
  =========                 |
  \\      /  F ield         | OpenFOAM: The Open Source CFD Toolbox
   \\    /   O peration     | Website:  https://openfoam.org
    \\  /    A nd           | Version:  9
     \\/     M anipulation  |
\*---------------------------------------------------------------------------*/
FoamFile
{
    format      ascii;
    class       surfaceScalarField;
    location    "10.3";
    object      phi;
}
// * * * * * * * * * * * * * * * * * * * * * * * * * * * * * * * * * * * * * //

dimensions      [0 3 -1 0 0 0 0];

internalField   nonuniform List<scalar> 
92080
(
-0.00437669
-0.533841
0.538218
-0.0316687
-1.07607
1.10337
-0.0775864
-1.19167
1.23758
-0.124168
-1.17343
1.22001
-0.16919
-1.15353
1.19856
-0.213537
-1.13401
1.17836
-0.257132
-1.11567
1.15927
-0.299614
-1.09859
1.14107
-0.341638
-1.08256
1.12458
-0.383525
-1.06735
1.10924
-0.424631
-1.05341
1.09452
-0.464953
-1.04018
1.0805
-0.504607
-1.02773
1.06739
-0.543544
-1.01555
1.05449
-0.581748
-1.00375
1.04195
-0.61887
-0.9922
1.02932
-0.655163
-0.980807
1.0171
-0.691201
-0.968569
1.00461
-0.72618
-0.95712
0.992099
-0.949708
0.980819
-0.757291
-0.00585795
-0.527983
-0.0349409
-1.04699
-0.0806542
-1.14595
-0.127787
-1.1263
-0.174171
-1.10715
-0.21971
-1.08847
-0.264575
-1.07081
-0.309365
-1.0538
-0.353187
-1.03874
-0.396169
-1.02437
-0.438938
-1.01064
-0.481644
-0.99747
-0.523681
-0.985696
-0.564657
-0.974573
-0.604724
-0.963679
-0.643759
-0.953165
-0.68107
-0.943496
-0.716356
-0.933282
-0.750043
-0.923434
-0.91676
-0.782991
-0.0071281
-0.520855
-0.0388884
-1.01523
-0.0885012
-1.09634
-0.137801
-1.077
-0.185894
-1.05906
-0.233211
-1.04116
-0.279346
-1.02467
-0.324617
-1.00853
-0.36987
-0.993482
-0.414558
-0.979679
-0.457939
-0.967261
-0.500338
-0.95507
-0.542893
-0.943141
-0.585053
-0.932414
-0.626452
-0.92228
-0.667286
-0.912332
-0.707696
-0.903086
-0.747005
-0.893973
-0.786368
-0.884071
-0.877629
-0.8255
-0.00912117
-0.511734
-0.0436529
-0.980699
-0.0929985
-1.04699
-0.142864
-1.02713
-0.191751
-1.01017
-0.239983
-0.992923
-0.287726
-0.976931
-0.334561
-0.96169
-0.380597
-0.947447
-0.426563
-0.933713
-0.473033
-0.920792
-0.518693
-0.90941
-0.56328
-0.898553
-0.607528
-0.888166
-0.651134
-0.878673
-0.694056
-0.86941
-0.735967
-0.861175
-0.776331
-0.85361
-0.815698
-0.844703
-0.836794
-0.856533
-0.0100193
-0.501715
-0.0489998
-0.941718
-0.100161
-0.995833
-0.151095
-0.976199
-0.201472
-0.959794
-0.250894
-0.943501
-0.299681
-0.928143
-0.348046
-0.913325
-0.395692
-0.899802
-0.442012
-0.887392
-0.487415
-0.875389
-0.533084
-0.863741
-0.578611
-0.853026
-0.624077
-0.842701
-0.66895
-0.8338
-0.713932
-0.824428
-0.75939
-0.815716
-0.803956
-0.809044
-0.846774
-0.801886
-0.794594
-0.888974
-0.00956924
-0.492145
-0.0520693
-0.899218
-0.104382
-0.943521
-0.156452
-0.924129
-0.207618
-0.908628
-0.258221
-0.892899
-0.308045
-0.878319
-0.357192
-0.864177
-0.406602
-0.850391
-0.456014
-0.837981
-0.504748
-0.826655
-0.55239
-0.816099
-0.598967
-0.806449
-0.64558
-0.796088
-0.691789
-0.78759
-0.736237
-0.77998
-0.781204
-0.770749
-0.826636
-0.763612
-0.871259
-0.757263
-0.750172
-0.915681
-0.00788317
-0.484262
-0.0532057
-0.853895
-0.106831
-0.889896
-0.160835
-0.870125
-0.2143
-0.855163
-0.266654
-0.840545
-0.318535
-0.826438
-0.369134
-0.813579
-0.418259
-0.801267
-0.467367
-0.788872
-0.516134
-0.777888
-0.565296
-0.766937
-0.613609
-0.758137
-0.661236
-0.74846
-0.71018
-0.738647
-0.758311
-0.731849
-0.804762
-0.724299
-0.851941
-0.716432
-0.898165
-0.71104
-0.704471
-0.943865
-0.00446616
-0.479796
-0.0510622
-0.807299
-0.108593
-0.832366
-0.164467
-0.81425
-0.219245
-0.800386
-0.272834
-0.786955
-0.325473
-0.773798
-0.378542
-0.76051
-0.430507
-0.749302
-0.481293
-0.738087
-0.531551
-0.727629
-0.581266
-0.717223
-0.630674
-0.708728
-0.677867
-0.701268
-0.72487
-0.691644
-0.773413
-0.683305
-0.820776
-0.676936
-0.868031
-0.669177
-0.915886
-0.663186
-0.65792
-0.962437
-0.00221876
-0.477577
-0.0527666
-0.756752
-0.112221
-0.772911
-0.170196
-0.756275
-0.227239
-0.743343
-0.282898
-0.731296
-0.336092
-0.720605
-0.387806
-0.708795
-0.439711
-0.697396
-0.490714
-0.687085
-0.540741
-0.677602
-0.590977
-0.666987
-0.64268
-0.657025
-0.6936
-0.650348
-0.742009
-0.643236
-0.790493
-0.634821
-0.839096
-0.628333
-0.886581
-0.621692
-0.934626
-0.615141
-0.609886
-0.98266
-0.00162029
-0.475957
-0.0549531
-0.703419
-0.116513
-0.71135
-0.175284
-0.697505
-0.232942
-0.685685
-0.290392
-0.673846
-0.347242
-0.663755
-0.401808
-0.654229
-0.454656
-0.644548
-0.507392
-0.634349
-0.558146
-0.626848
-0.605803
-0.61933
-0.653559
-0.609269
-0.703415
-0.600492
-0.752454
-0.594196
-0.800565
-0.586709
-0.84886
-0.580039
-0.896458
-0.574094
-0.943681
-0.567917
-0.562629
-0.990938
-0.00827101
-0.467686
-0.0645629
-0.647127
-0.126805
-0.649108
-0.185994
-0.638316
-0.243691
-0.627988
-0.299628
-0.617909
-0.354757
-0.608626
-0.409262
-0.599724
-0.461927
-0.591883
-0.514347
-0.581929
-0.569131
-0.572064
-0.622372
-0.566089
-0.672339
-0.559301
-0.721947
-0.550884
-0.772152
-0.543992
-0.821212
-0.537649
-0.870443
-0.530808
-0.919153
-0.525384
-0.967277
-0.519793
-0.514404
-1.0155
-0.0165561
-0.45113
-0.0732281
-0.590455
-0.132976
-0.589361
-0.19153
-0.579762
-0.249427
-0.57009
-0.307009
-0.560327
-0.364226
-0.551409
-0.420803
-0.543148
-0.475777
-0.536909
-0.526129
-0.531577
-0.575781
-0.522412
-0.627573
-0.514298
-0.67827
-0.508604
-0.7273
-0.501855
-0.776411
-0.49488
-0.824947
-0.489113
-0.872997
-0.482758
-0.921351
-0.47703
-0.968898
-0.472246
-0.46716
-1.01614
-0.0253558
-0.425774
-0.0843496
-0.531461
-0.145991
-0.527719
-0.203881
-0.521872
-0.260803
-0.513168
-0.315425
-0.505705
-0.368975
-0.497859
-0.423055
-0.489068
-0.480021
-0.479943
-0.536751
-0.474847
-0.589753
-0.46941
-0.64224
-0.461811
-0.695191
-0.455653
-0.746628
-0.450417
-0.797198
-0.444311
-0.847471
-0.438839
-0.896502
-0.433728
-0.945406
-0.428125
-0.994073
-0.423579
-0.419168
-1.04207
-0.0324562
-0.393318
-0.0897841
-0.474133
-0.149855
-0.467649
-0.209911
-0.461816
-0.268766
-0.454313
-0.327544
-0.446927
-0.383721
-0.441682
-0.435613
-0.437175
-0.486485
-0.429072
-0.539781
-0.421551
-0.592727
-0.416464
-0.643703
-0.410835
-0.694901
-0.404454
-0.746
-0.399318
-0.796008
-0.394304
-0.846017
-0.38883
-0.895636
-0.384109
-0.944689
-0.379072
-0.993944
-0.374323
-0.37
-1.04311
-0.0389639
-0.354354
-0.0946436
-0.418453
-0.152239
-0.410053
-0.210769
-0.403286
-0.266881
-0.398201
-0.323825
-0.389984
-0.384475
-0.381032
-0.445202
-0.376448
-0.501763
-0.372511
-0.556307
-0.367007
-0.611414
-0.361357
-0.664779
-0.35747
-0.716555
-0.352678
-0.768103
-0.34777
-0.818719
-0.343687
-0.868408
-0.339141
-0.917607
-0.33491
-0.965999
-0.33068
-1.01399
-0.326334
-0.322244
-1.06174
-0.0439976
-0.310356
-0.104113
-0.358339
-0.165424
-0.348742
-0.225412
-0.343298
-0.284901
-0.338712
-0.338153
-0.336732
-0.388904
-0.33028
-0.44161
-0.323741
-0.495845
-0.318276
-0.548951
-0.313901
-0.601916
-0.308391
-0.655796
-0.30359
-0.709149
-0.299326
-0.761829
-0.29509
-0.814434
-0.291082
-0.866165
-0.287411
-0.917317
-0.283757
-0.967834
-0.280164
-1.01752
-0.27665
-0.272729
-1.06703
-0.0486684
-0.261688
-0.110788
-0.296219
-0.169548
-0.289982
-0.22803
-0.284816
-0.289455
-0.277287
-0.351717
-0.27447
-0.410453
-0.271544
-0.46549
-0.268705
-0.519604
-0.264162
-0.573238
-0.260267
-0.625321
-0.256308
-0.676783
-0.252128
-0.727926
-0.248183
-0.778574
-0.244443
-0.828677
-0.240978
-0.878767
-0.237321
-0.928304
-0.23422
-0.977704
-0.230764
-1.02645
-0.227901
-0.22443
-1.07475
-0.0491661
-0.212522
-0.111411
-0.233974
-0.17046
-0.230932
-0.225168
-0.230108
-0.277528
-0.224927
-0.332048
-0.21995
-0.388801
-0.214792
-0.446091
-0.211415
-0.502558
-0.207695
-0.558777
-0.204048
-0.614194
-0.200891
-0.668479
-0.197843
-0.721828
-0.194834
-0.77475
-0.191521
-0.826842
-0.188886
-0.878271
-0.185892
-0.929077
-0.183414
-0.97931
-0.180531
-1.02895
-0.178258
-0.175373
-1.07801
-0.0567593
-0.155763
-0.117819
-0.172914
-0.181968
-0.166783
-0.245438
-0.166639
-0.304246
-0.166119
-0.360339
-0.163857
-0.414459
-0.160672
-0.468493
-0.157381
-0.52192
-0.154267
-0.57454
-0.151428
-0.626799
-0.148632
-0.679077
-0.145566
-0.730612
-0.143299
-0.78166
-0.140472
-0.832484
-0.138063
-0.882876
-0.135499
-0.93299
-0.1333
-0.982636
-0.130885
-1.03207
-0.128824
-0.126743
-1.0807
-0.0518569
-0.103906
-0.105876
-0.118896
-0.160012
-0.112647
-0.218298
-0.108353
-0.278402
-0.106014
-0.338141
-0.104118
-0.396627
-0.102185
-0.454173
-0.0998345
-0.510301
-0.0981391
-0.566106
-0.0956233
-0.620507
-0.0942312
-0.674384
-0.091689
-0.727423
-0.0902598
-0.779712
-0.0881836
-0.831135
-0.0866397
-0.881944
-0.0846901
-0.93215
-0.0830945
-0.981651
-0.0813839
-1.03077
-0.0797019
-1.07945
-0.0780685
0.0480334
-0.142576
0.0945425
0.163977
-0.67416
0.558216
0.265485
-1.25068
1.14917
0.31506
-1.52925
1.47967
0.331574
-1.58112
1.5646
0.339549
-1.57818
1.57021
0.341691
-1.56169
1.55955
0.343643
-1.54523
1.54328
0.344687
-1.53069
1.52964
0.345068
-1.51738
1.517
0.344766
-1.50453
1.50483
0.34357
-1.49193
1.49313
0.341759
-1.47968
1.48149
0.33918
-1.4671
1.46968
0.335746
-1.45491
1.45834
0.331493
-1.44144
1.44569
0.326314
-1.42665
1.43183
0.320665
-1.40832
1.41397
0.3148
-1.3922
1.39806
-1.37595
0.309624
1.38113
0.0465698
-0.189146
0.148991
-0.776581
0.231131
-1.33282
0.265139
-1.56325
0.275463
-1.59144
0.27935
-1.58207
0.280443
-1.56279
0.281296
-1.54608
0.281294
-1.53068
0.280352
-1.51644
0.278614
-1.5028
0.276409
-1.48973
0.273536
-1.4768
0.27032
-1.46388
0.266596
-1.45119
0.262359
-1.4372
0.257261
-1.42155
0.25179
-1.40285
0.245921
-1.38633
-1.37034
0.240307
0.0496797
-0.238825
0.136391
-0.863292
0.201327
-1.39776
0.223365
-1.58529
0.229013
-1.59709
0.228928
-1.58199
0.227861
-1.56172
0.226345
-1.54456
0.224195
-1.52853
0.221441
-1.51369
0.217982
-1.49934
0.213714
-1.48546
0.208806
-1.4719
0.203151
-1.45823
0.197059
-1.44509
0.190558
-1.4307
0.183605
-1.4146
0.17641
-1.39566
0.169124
-1.37905
-1.36323
0.162018
0.0497325
-0.288558
0.120436
-0.933996
0.170572
-1.44789
0.183085
-1.59781
0.184623
-1.59863
0.181912
-1.57927
0.179499
-1.55931
0.176112
-1.54118
0.171939
-1.52436
0.167126
-1.50887
0.161825
-1.49404
0.156193
-1.47983
0.150136
-1.46584
0.143732
-1.45182
0.136693
-1.43805
0.129123
-1.42313
0.120984
-1.40646
0.112686
-1.38736
0.10413
-1.37049
-1.35494
0.095844
0.0442816
-0.33284
0.103334
-0.993048
0.140746
-1.4853
0.146403
-1.60346
0.143811
-1.59604
0.13874
-1.5742
0.133355
-1.55392
0.12765
-1.53547
0.12147
-1.51818
0.114646
-1.50205
0.107127
-1.48652
0.0990064
-1.47171
0.0903776
-1.45721
0.0814111
-1.44286
0.0724223
-1.42907
0.0633758
-1.41408
0.0540197
-1.3971
0.0443802
-1.37772
0.0344334
-1.36054
-1.34482
0.0243058
0.0405241
-0.373364
0.0918576
-1.04438
0.118372
-1.51182
0.118267
-1.60336
0.111322
-1.58909
0.103395
-1.56628
0.095204
-1.54573
0.0863691
-1.52664
0.0770902
-1.5089
0.0676435
-1.4926
0.0580075
-1.47688
0.0481438
-1.46184
0.0380023
-1.44707
0.0273925
-1.43225
0.016316
-1.41799
0.00511663
-1.40288
-0.00588855
-1.3861
-0.0167427
-1.36686
-0.0277713
-1.34951
-1.33377
-0.0388201
0.0329069
-0.406271
0.0779851
-1.08946
0.0924558
-1.52629
0.085918
-1.59682
0.0757811
-1.57895
0.0656456
-1.55614
0.0551795
-1.53527
0.0446646
-1.51612
0.0337514
-1.49799
0.0221867
-1.48104
0.0101528
-1.46485
-0.00219682
-1.44949
-0.0147539
-1.43451
-0.0272964
-1.4197
-0.0398872
-1.4054
-0.0526208
-1.39015
-0.0657328
-1.37298
-0.0788742
-1.35372
-0.0922577
-1.33613
-1.3203
-0.105726
0.025253
-0.431524
0.0598852
-1.12409
0.0701465
-1.53655
0.0614928
-1.58816
0.0488097
-1.56627
0.0358571
-1.54319
0.0222681
-1.52168
0.00815245
-1.50201
-0.00609037
-1.48374
-0.0202763
-1.46685
-0.0346325
-1.45049
-0.0491688
-1.43496
-0.0638937
-1.41979
-0.0789187
-1.40468
-0.0938155
-1.3905
-0.108155
-1.37581
-0.121982
-1.35916
-0.135712
-1.33999
-0.14989
-1.32195
-1.30599
-0.164201
0.0252579
-0.456782
0.0531259
-1.15196
0.0527121
-1.53614
0.0385395
-1.57399
0.022491
-1.55022
0.0064103
-1.52711
-0.00957582
-1.50569
-0.0255748
-1.48601
-0.0419723
-1.46735
-0.058729
-1.4501
-0.0755838
-1.43364
-0.092521
-1.41802
-0.10949
-1.40282
-0.126519
-1.38765
-0.143914
-1.37311
-0.161424
-1.3583
-0.178674
-1.34191
-0.195337
-1.32333
-0.212108
-1.30518
-1.28922
-0.228879
0.0204085
-0.47719
0.0414826
-1.17303
0.0356224
-1.53028
0.0177362
-1.55611
-0.00151277
-1.53097
-0.020517
-1.5081
-0.0399093
-1.4863
-0.059322
-1.4666
-0.0785352
-1.44813
-0.0976828
-1.43095
-0.116979
-1.41434
-0.136252
-1.39875
-0.155429
-1.38364
-0.174421
-1.36866
-0.192955
-1.35457
-0.210919
-1.34034
-0.228571
-1.32425
-0.246125
-1.30578
-0.263903
-1.2874
-1.27148
-0.281635
0.017551
-0.494741
0.032482
-1.18796
0.020971
-1.51877
-3.57485e-05
-1.5351
-0.021613
-1.5094
-0.0434003
-1.48632
-0.0650006
-1.4647
-0.0868058
-1.44479
-0.1089
-1.42604
-0.130945
-1.40891
-0.152849
-1.39243
-0.174864
-1.37673
-0.196893
-1.36161
-0.219029
-1.34652
-0.241386
-1.33221
-0.263307
-1.31842
-0.284185
-1.30338
-0.304178
-1.28578
-0.324208
-1.26737
-1.25144
-0.344257
0.0143917
-0.509133
0.0233175
-1.19689
0.00596085
-1.50141
-0.0188481
-1.51029
-0.0437987
-1.48445
-0.0684426
-1.46167
-0.0932308
-1.43991
-0.117636
-1.42039
-0.141766
-1.40191
-0.165938
-1.38473
-0.189999
-1.36837
-0.213708
-1.35302
-0.237198
-1.33812
-0.260367
-1.32335
-0.283356
-1.30923
-0.306219
-1.29556
-0.328682
-1.28091
-0.350364
-1.2641
-0.371932
-1.24581
-1.23004
-0.39333
0.0117001
-0.520833
0.0157379
-1.20093
-0.00476036
-1.48091
-0.0318601
-1.48319
-0.0592982
-1.45701
-0.0868052
-1.43416
-0.114006
-1.41271
-0.141508
-1.39288
-0.169056
-1.37436
-0.196262
-1.35753
-0.223427
-1.34121
-0.250641
-1.32581
-0.27759
-1.31117
-0.304344
-1.2966
-0.330934
-1.28264
-0.356898
-1.26959
-0.381864
-1.25595
-0.405753
-1.24021
-0.429204
-1.22235
-1.20651
-0.452734
0.00889742
-0.52973
0.00746533
-1.1995
-0.0192384
-1.45421
-0.0496491
-1.45278
-0.0796593
-1.427
-0.109334
-1.40449
-0.138988
-1.38305
-0.168061
-1.36381
-0.197023
-1.3454
-0.226061
-1.32849
-0.254639
-1.31263
-0.282953
-1.2975
-0.311251
-1.28288
-0.339282
-1.26857
-0.367294
-1.25462
-0.395336
-1.24155
-0.422694
-1.22859
-0.448799
-1.21411
-0.474214
-1.19694
-1.18136
-0.499358
0.00681034
-0.536541
0.00175294
-1.19444
-0.0268369
-1.42562
-0.05996
-1.41966
-0.0927586
-1.3942
-0.125566
-1.37168
-0.158014
-1.3506
-0.19068
-1.33115
-0.223031
-1.31305
-0.255085
-1.29643
-0.287176
-1.28054
-0.318882
-1.26579
-0.35009
-1.25167
-0.381
-1.23766
-0.411639
-1.22399
-0.441992
-1.2112
-0.471931
-1.19865
-0.5004
-1.18564
-0.527704
-1.16963
-1.15406
-0.555011
0.00407537
-0.540616
-0.00662971
-1.18373
-0.0395072
-1.39274
-0.0750734
-1.38409
-0.109801
-1.35947
-0.144098
-1.33739
-0.178204
-1.3165
-0.211718
-1.29763
-0.245294
-1.27947
-0.278843
-1.26289
-0.311986
-1.2474
-0.345215
-1.23256
-0.378379
-1.2185
-0.411131
-1.20491
-0.443737
-1.19138
-0.476209
-1.17872
-0.508381
-1.16648
-0.53975
-1.15427
-0.569164
-1.14022
-1.12512
-0.598104
0.00201788
-0.542634
-0.012516
-1.1692
-0.0475384
-1.35772
-0.0857058
-1.34592
-0.12316
-1.32202
-0.160351
-1.3002
-0.197278
-1.27957
-0.234195
-1.26071
-0.270423
-1.24325
-0.306507
-1.2268
-0.34252
-1.21138
-0.377969
-1.19711
-0.413188
-1.18328
-0.448216
-1.16988
-0.483031
-1.15656
-0.517791
-1.14396
-0.552195
-1.13207
-0.585702
-1.12076
-0.617661
-1.10826
-1.09389
-0.648888
-0.000463205
-0.542171
-0.0192408
-1.15042
-0.056631
-1.32033
-0.0962395
-1.30631
-0.135177
-1.28308
-0.173676
-1.2617
-0.211704
-1.24154
-0.24945
-1.22297
-0.287287
-1.20541
-0.324841
-1.18925
-0.362161
-1.17406
-0.399595
-1.15968
-0.436735
-1.14614
-0.473492
-1.13312
-0.509962
-1.1201
-0.546621
-1.1073
-0.583652
-1.09504
-0.620624
-1.08379
-0.655535
-1.07335
-1.06011
-0.689318
-0.00162099
-0.54055
-0.0241877
-1.12786
-0.0649307
-1.27958
-0.107468
-1.26378
-0.14894
-1.24161
-0.189902
-1.22073
-0.230622
-1.20082
-0.270847
-1.18274
-0.310269
-1.16599
-0.349655
-1.14986
-0.388886
-1.13483
-0.427723
-1.12084
-0.466545
-1.10732
-0.505311
-1.09435
-0.5437
-1.08171
-0.581852
-1.06915
-0.620042
-1.05685
-0.659142
-1.04469
-0.698432
-1.03406
-1.02313
-0.735411
-0.00233193
-0.0268222
-0.0688228
-0.112588
-0.155639
-0.198014
-0.239569
-0.281244
-0.322648
-0.363274
-0.40359
-0.443932
-0.483868
-0.523736
-0.563492
-0.603323
-0.643074
-0.683158
-0.72512
-0.76743
0.224675
-11.9725
12.0574
0.161423
-11.3225
11.3857
0.110413
-10.9772
11.0282
0.0758423
-10.6769
10.7115
0.0440395
-10.4206
10.4524
0.0213995
-10.1317
10.1543
0.00412389
-9.89796
9.91524
-0.00763807
-9.70762
9.71938
-0.0164008
-9.55029
9.55905
-0.0219717
-9.40501
9.41058
-0.0247127
-9.29134
9.29408
-0.0247847
-9.193
9.19307
-0.0231502
-9.12735
9.12571
-0.020397
-9.06022
9.05747
-0.0160456
-9.02762
9.02327
-0.00967599
-8.94447
8.9381
-0.00180571
-8.70253
8.69466
0.00304725
-7.71128
7.70643
0.00421536
-5.44559
5.44442
-2.23707
2.24129
0.160833
-11.893
0.100767
-11.2624
0.0498782
-10.9263
0.0152215
-10.6423
-0.0151241
-10.3903
-0.0350983
-10.1117
-0.0489207
-9.88414
-0.0574861
-9.69906
-0.0628152
-9.54496
-0.0645905
-9.40323
-0.0635191
-9.29241
-0.0596909
-9.19683
-0.0540309
-9.13301
-0.0471079
-9.06715
-0.0386886
-9.03604
-0.0278281
-8.95533
-0.0149658
-8.71539
-0.00412111
-7.72213
0.00156915
-5.45128
-2.2355
0.0719892
-11.803
0.011607
-11.202
-0.0357023
-10.879
-0.0657222
-10.6123
-0.0905142
-10.3655
-0.105431
-10.0968
-0.113803
-9.87577
-0.11716
-9.6957
-0.117244
-9.54488
-0.11374
-9.40674
-0.107453
-9.2987
-0.0986299
-9.20565
-0.0881456
-9.14349
-0.0763513
-9.07894
-0.0629557
-9.04944
-0.0466084
-8.97168
-0.0281643
-8.73383
-0.0111901
-7.7391
-0.000923948
-5.46154
-2.23643
0.00915122
-11.7163
-0.0481901
-11.1447
-0.0958233
-10.8313
-0.126812
-10.5813
-0.149669
-10.3426
-0.161884
-10.0846
-0.166863
-9.87079
-0.166989
-9.69557
-0.163574
-9.54829
-0.156346
-9.41397
-0.146328
-9.30872
-0.133602
-9.21838
-0.119119
-9.15797
-0.103218
-9.09484
-0.0857427
-9.06691
-0.0649815
-8.99244
-0.0413599
-8.75746
-0.0182671
-7.76219
-0.00333305
-5.47648
-2.23976
-0.0745721
-11.6174
-0.135721
-11.0835
-0.179504
-10.7876
-0.20607
-10.5547
-0.223857
-10.3248
-0.231153
-10.0773
-0.230962
-9.87098
-0.226019
-9.70051
-0.217405
-9.55691
-0.204979
-9.42639
-0.189809
-9.32389
-0.172199
-9.23599
-0.153087
-9.17709
-0.13233
-9.1156
-0.109856
-9.08939
-0.0837558
-9.01854
-0.0546072
-8.7866
-0.025544
-7.79126
-0.00593915
-5.49608
-2.2457
-0.133461
-11.5228
-0.193919
-11.0231
-0.239552
-10.7419
-0.266892
-10.5274
-0.282695
-10.309
-0.287288
-10.0727
-0.283742
-9.87452
-0.275547
-9.70871
-0.263364
-9.56909
-0.24733
-9.44243
-0.228511
-9.34271
-0.207011
-9.25749
-0.183873
-9.20022
-0.159022
-9.14045
-0.132521
-9.11589
-0.102125
-9.04894
-0.0678029
-8.82093
-0.0328147
-7.82625
-0.00889669
-5.52
-2.25459
-0.21506
-11.4134
-0.278651
-10.9595
-0.320875
-10.6997
-0.343993
-10.5042
-0.355013
-10.298
-0.354983
-10.0727
-0.34659
-9.88292
-0.333455
-9.72185
-0.316211
-9.58633
-0.29512
-9.46352
-0.271241
-9.36659
-0.245028
-9.2837
-0.21739
-9.22786
-0.187652
-9.17019
-0.15625
-9.14729
-0.120825
-9.08436
-0.0810987
-8.86065
-0.040294
-7.86705
-0.0124179
-5.54788
-2.26701
-0.271528
-11.3061
-0.33551
-10.8955
-0.380358
-10.6549
-0.404206
-10.4804
-0.413217
-10.289
-0.410473
-10.0755
-0.398763
-9.89463
-0.382343
-9.73826
-0.361516
-9.60716
-0.336958
-9.48807
-0.309523
-9.39402
-0.279416
-9.31381
-0.247691
-9.25959
-0.213886
-9.20399
-0.178648
-9.18253
-0.139082
-9.12393
-0.0941291
-8.90561
-0.0473685
-7.91381
-0.0157799
-5.57946
-2.28279
-0.349691
-11.1853
-0.416805
-10.8284
-0.458663
-10.613
-0.478512
-10.4605
-0.483095
-10.2844
-0.476117
-10.0824
-0.459897
-9.91085
-0.438691
-9.75947
-0.413002
-9.63285
-0.383558
-9.51752
-0.351225
-9.42635
-0.316608
-9.34843
-0.280464
-9.29573
-0.241859
-9.2426
-0.201951
-9.22243
-0.157619
-9.16826
-0.107342
-8.95588
-0.0547125
-7.96644
-0.0191795
-5.615
-2.30197
-0.404051
-11.0629
-0.47228
-10.7602
-0.517133
-10.5681
-0.537718
-10.44
-0.540281
-10.2819
-0.530594
-10.0921
-0.511124
-9.93032
-0.486636
-9.78396
-0.457411
-9.66207
-0.424621
-9.55031
-0.388811
-9.46216
-0.350312
-9.38692
-0.310194
-9.33585
-0.267715
-9.28508
-0.223976
-9.26617
-0.175504
-9.21673
-0.120019
-9.01137
-0.061641
-8.02482
-0.0220089
-5.65463
-2.32398
-0.478451
-10.9287
-0.549493
-10.6891
-0.591658
-10.526
-0.608689
-10.4229
-0.607286
-10.2833
-0.5937
-10.1057
-0.57007
-9.95395
-0.541013
-9.81302
-0.507162
-9.69592
-0.469665
-9.58781
-0.429171
-9.50266
-0.386426
-9.42967
-0.342166
-9.38011
-0.295113
-9.33213
-0.246696
-9.31459
-0.193556
-9.26987
-0.132864
-9.07206
-0.0686338
-8.08905
-0.0242178
-5.69904
-2.3482
-0.531096
-10.7909
-0.603674
-10.6165
-0.648798
-10.4809
-0.666402
-10.4053
-0.663015
-10.2867
-0.646797
-10.1219
-0.620001
-9.98074
-0.587703
-9.84531
-0.550406
-9.73322
-0.509638
-9.62857
-0.465702
-9.54659
-0.419097
-9.47628
-0.370934
-9.42827
-0.320364
-9.3827
-0.268344
-9.36661
-0.21116
-9.32705
-0.145453
-9.13777
-0.0753987
-8.1591
-0.0255237
-5.74892
-2.37372
-0.601632
-10.642
-0.676293
-10.5419
-0.718836
-10.4383
-0.733635
-10.3905
-0.72675
-10.2935
-0.706913
-10.1418
-0.676344
-10.0113
-0.639745
-9.88191
-0.598078
-9.77489
-0.552799
-9.67385
-0.504412
-9.59498
-0.45379
-9.5269
-0.401534
-9.48053
-0.346614
-9.43762
-0.290409
-9.42282
-0.228826
-9.38864
-0.157858
-9.20874
-0.0820854
-8.23487
-0.0262071
-5.8048
-2.39993
-0.652948
-10.4884
-0.729399
-10.4654
-0.774264
-10.3934
-0.789444
-10.3753
-0.780701
-10.3023
-0.758233
-10.1642
-0.724609
-10.0449
-0.684823
-9.9217
-0.639839
-9.81987
-0.59136
-9.72233
-0.539569
-9.64677
-0.48511
-9.58136
-0.429034
-9.5366
-0.370818
-9.49584
-0.311291
-9.48234
-0.245959
-9.45397
-0.170088
-9.28461
-0.0885894
-8.31637
-0.0264129
-5.86697
-2.42634
-0.719605
-10.3238
-0.797376
-10.3877
-0.83941
-10.3514
-0.852557
-10.3622
-0.840826
-10.314
-0.815013
-10.19
-0.777998
-10.082
-0.734214
-9.96548
-0.685113
-9.86897
-0.632348
-9.7751
-0.576401
-9.70272
-0.518203
-9.63955
-0.458397
-9.59641
-0.395939
-9.55829
-0.332181
-9.5461
-0.262876
-9.52328
-0.182223
-9.36526
-0.0950532
-8.40354
-0.0265706
-5.93546
-2.45291
-0.769189
-10.1528
-0.849407
-10.3074
-0.892683
-10.3081
-0.906043
-10.3488
-0.892723
-10.3273
-0.864194
-10.2186
-0.824242
-10.1219
-0.777364
-10.0124
-0.725098
-9.92124
-0.669213
-9.83098
-0.609912
-9.76202
-0.54793
-9.70154
-0.484483
-9.65985
-0.418977
-9.6238
-0.352398
-9.61268
-0.27971
-9.59596
-0.194142
-9.45083
-0.101537
-8.49615
-0.0270156
-6.00998
-2.47993
-0.832237
-9.96941
-0.912848
-10.2268
-0.952335
-10.2686
-0.964107
-10.3371
-0.948548
-10.3429
-0.91711
-10.25
-0.874175
-10.1648
-0.823679
-10.0629
-0.767616
-9.9773
-0.707734
-9.89087
-0.644611
-9.82514
-0.579113
-9.76703
-0.51204
-9.72693
-0.442487
-9.69335
-0.372202
-9.68296
-0.296072
-9.67209
-0.20612
-9.54078
-0.108065
-8.5942
-0.0275088
-6.09054
-2.50744
-0.882788
-9.77594
-0.965857
-10.1438
-1.00429
-10.2302
-1.01536
-10.326
-0.998242
-10.36
-0.963916
-10.2843
-0.918045
-10.2107
-0.864556
-10.1163
-0.805488
-10.0364
-0.742589
-9.95377
-0.676201
-9.89153
-0.607027
-9.83621
-0.53658
-9.79738
-0.464099
-9.76583
-0.391175
-9.75589
-0.312172
-9.7511
-0.217836
-9.63512
-0.114361
-8.69768
-0.0281387
-6.17676
-2.53558
-0.933652
-9.5777
-1.0264
-10.051
-1.06206
-10.1946
-1.07102
-10.317
-1.05171
-10.3793
-1.01453
-10.3215
-0.96552
-10.2597
-0.908428
-10.1734
-0.84563
-10.0992
-0.778894
-10.0205
-0.708933
-9.96149
-0.636451
-9.90869
-0.562603
-9.87122
-0.486224
-9.84221
-0.40957
-9.83254
-0.327658
-9.83301
-0.229595
-9.73318
-0.121249
-8.80602
-0.0290682
-6.26894
-2.56464
-0.971209
-9.37392
-1.07046
-9.95177
-1.10478
-10.1602
-1.11356
-10.3082
-1.09524
-10.3977
-1.0562
-10.3606
-1.00559
-10.3103
-0.945873
-10.2332
-0.880748
-10.1643
-0.811091
-10.0902
-0.738187
-10.0344
-0.662235
-9.98464
-0.585601
-9.94786
-0.506493
-9.92132
-0.427162
-9.91187
-0.342595
-9.91758
-0.240947
-9.83483
-0.127866
-8.9191
-0.0301539
-6.36665
-2.5948
8.59521
-8.48408
-9.48505
7.40211
-8.75867
6.36364
-9.12176
5.39416
-9.33876
4.51316
-9.51666
3.74404
-9.59144
3.09223
-9.65852
2.54116
-9.68209
2.07491
-9.69804
1.67929
-9.69454
1.35271
-9.70781
1.08768
-9.71962
0.860976
-9.72115
0.667861
-9.72821
0.48755
-9.73156
0.328999
-9.75902
0.236606
-9.74243
0.151834
-8.83433
0.0759216
-6.29074
-2.51888
5.07084
-8.09382
-5.4611
4.60715
-8.29499
4.13437
-8.64897
3.6364
-8.8408
3.14661
-9.02687
2.70907
-9.1539
2.31449
-9.26394
1.97043
-9.33803
1.67106
-9.39867
1.41887
-9.44235
1.19632
-9.48526
0.99637
-9.51967
0.810512
-9.53529
0.641357
-9.55905
0.483358
-9.57356
0.342019
-9.61769
0.194027
-9.59444
0.0852736
-8.72558
-0.026007
-6.17946
-2.54488
3.69174
-7.98903
-3.79653
3.58164
-8.18489
3.36152
-8.42885
3.10671
-8.58599
2.82354
-8.7437
2.54395
-8.87431
2.26545
-8.98545
1.9997
-9.07228
1.74621
-9.14517
1.51196
-9.20811
1.28377
-9.25706
1.06618
-9.30208
0.860301
-9.32942
0.666778
-9.36553
0.490184
-9.39697
0.328381
-9.45588
0.18081
-9.44687
0.107158
-8.65193
0.0448672
-6.11717
-2.50002
2.37989
-8.00828
-2.36064
2.35909
-8.16408
2.25579
-8.32555
2.13612
-8.46633
1.98778
-8.59535
1.81914
-8.70568
1.63882
-8.80513
1.45691
-8.89037
1.27578
-8.96404
1.10147
-9.0338
0.934308
-9.0899
0.780723
-9.1485
0.641633
-9.19032
0.515791
-9.23969
0.395791
-9.27697
0.275017
-9.33511
0.145726
-9.31758
0.100282
-8.60648
0.0741526
-6.09104
-2.42586
1.71183
-8.07319
-1.64692
1.72625
-8.17851
1.69958
-8.29887
1.63764
-8.40439
1.55606
-8.51378
1.45582
-8.60544
1.33928
-8.68858
1.21457
-8.76566
1.08499
-8.83447
0.954001
-8.90281
0.821766
-8.95766
0.687329
-9.01406
0.556189
-9.05918
0.425373
-9.10887
0.295302
-9.1469
0.159589
-9.1994
0.038722
-9.19671
0.0156448
-8.5834
0.046786
-6.12218
-2.37908
1.22447
-8.12654
-1.17111
1.25735
-8.2114
1.2478
-8.28932
1.21361
-8.3702
1.15194
-8.45211
1.07438
-8.52787
0.982014
-8.59622
0.881859
-8.6655
0.778709
-8.73132
0.669394
-8.79349
0.561397
-8.84967
0.449758
-8.90242
0.341427
-8.95085
0.231208
-8.99865
0.125937
-9.04163
0.0243626
-9.09782
-0.0681335
-9.10422
-0.0633385
-8.5882
0.036306
-6.22182
-2.34277
0.893662
-8.1582
-0.862002
0.901963
-8.2197
0.904146
-8.2915
0.890402
-8.35645
0.85305
-8.41476
0.800686
-8.47551
0.738959
-8.53449
0.664547
-8.59109
0.583166
-8.64993
0.492751
-8.70308
0.398292
-8.75521
0.300212
-8.80434
0.199779
-8.85042
0.096777
-8.89565
-0.00581642
-8.93903
-0.112209
-8.99143
-0.197242
-9.01919
-0.186812
-8.59863
-0.0157922
-6.39284
-2.35856
0.724928
-8.1834
-0.699728
0.735956
-8.23073
0.720368
-8.27592
0.687105
-8.32319
0.646647
-8.3743
0.593068
-8.42193
0.533952
-8.47537
0.466339
-8.52348
0.389219
-8.57281
0.305409
-8.61927
0.218066
-8.66786
0.126867
-8.71314
0.034701
-8.75825
-0.0662968
-8.79465
-0.164554
-8.84077
-0.268936
-8.88705
-0.361644
-8.92648
-0.348048
-8.61222
-0.0982208
-6.64267
-2.45678
0.550892
-8.18543
-0.54886
0.540227
-8.22006
0.524212
-8.2599
0.497974
-8.29695
0.460642
-8.33697
0.413844
-8.37513
0.358702
-8.42023
0.295098
-8.45988
0.227548
-8.50526
0.150001
-8.54172
0.0703498
-8.58821
-0.0170606
-8.62573
-0.106123
-8.66919
-0.198851
-8.70192
-0.294591
-8.74504
-0.398791
-8.78285
-0.50227
-8.823
-0.507771
-8.60672
-0.214568
-6.93587
-2.67135
0.47609
-8.17977
-0.481755
0.463289
-8.20726
0.440665
-8.23728
0.404995
-8.26128
0.363729
-8.29571
0.314972
-8.32637
0.258043
-8.3633
0.191181
-8.39301
0.116117
-8.4302
0.036964
-8.46257
-0.0513582
-8.49989
-0.146818
-8.53027
-0.247713
-8.5683
-0.347419
-8.60222
-0.444991
-8.64746
-0.559082
-8.66875
-0.673196
-8.70889
-0.708646
-8.57127
-0.393943
-7.25058
-3.0653
0.384428
-8.16199
-0.402201
0.358896
-8.18173
0.328646
-8.20703
0.295669
-8.2283
0.257077
-8.25711
0.210448
-8.27974
0.153302
-8.30615
0.090218
-8.32993
0.0177841
-8.35777
-0.0617402
-8.38304
-0.149196
-8.41243
-0.241719
-8.43775
-0.339947
-8.47007
-0.447914
-8.49425
-0.566659
-8.52872
-0.693599
-8.54181
-0.824736
-8.57775
-0.861972
-8.53404
-0.59396
-7.51859
-3.65926
0.338229
-8.14449
-0.355737
0.31449
-8.15799
0.284486
-8.17702
0.248228
-8.19205
0.20192
-8.21081
0.148114
-8.22594
0.0893036
-8.24734
0.0241198
-8.26475
-0.0448599
-8.28879
-0.123955
-8.30395
-0.209943
-8.32645
-0.304064
-8.34363
-0.411884
-8.36225
-0.53166
-8.37448
-0.667758
-8.39262
-0.801281
-8.40829
-0.938588
-8.44044
-1.02701
-8.44562
-0.829063
-7.71653
-4.48832
0.274426
-8.11985
-0.299062
0.245163
-8.12873
0.210658
-8.14252
0.171908
-8.1533
0.129992
-8.16889
0.0831137
-8.17906
0.0314182
-8.19565
-0.027929
-8.2054
-0.0952223
-8.22149
-0.166684
-8.23249
-0.248073
-8.24506
-0.337062
-8.25464
-0.440005
-8.25931
-0.551385
-8.2631
-0.671391
-8.27261
-0.804858
-8.27482
-0.943013
-8.30229
-1.05067
-8.33796
-0.896363
-7.87084
-5.38468
0.236134
-8.09793
-0.258058
0.211269
-8.10387
0.182248
-8.11349
0.148384
-8.11943
0.109285
-8.12979
0.0660071
-8.13578
0.0174525
-8.14709
-0.037015
-8.15093
-0.094354
-8.16415
-0.158307
-8.16853
-0.22621
-8.17715
-0.301224
-8.17962
-0.37812
-8.18241
-0.473571
-8.16765
-0.566363
-8.17982
-0.678209
-8.16298
-0.802526
-8.17797
-0.906311
-8.23418
-0.802766
-7.97439
-6.18745
0.177016
-8.07583
-0.199116
0.152073
-8.07892
0.124351
-8.08577
0.0940007
-8.08908
0.0601765
-8.09597
0.021877
-8.09748
-0.0207907
-8.10443
-0.0658348
-8.10589
-0.11293
-8.11706
-0.164537
-8.11693
-0.219001
-8.12269
-0.282004
-8.11662
-0.342756
-8.12166
-0.415221
-8.09518
-0.482488
-8.11255
-0.561216
-8.08425
-0.660318
-8.07887
-0.768436
-8.12606
-0.717702
-8.02512
-6.90515
0.140848
-8.05626
-0.16041
0.120027
-8.0581
0.0959173
-8.06166
0.0700117
-8.06318
0.0394833
-8.06544
0.00815988
-8.06616
-0.0246657
-8.0716
-0.0597151
-8.07084
-0.0976406
-8.07913
-0.139177
-8.07539
-0.180633
-8.08123
-0.228086
-8.06917
-0.270339
-8.0794
-0.312422
-8.0531
-0.365113
-8.05986
-0.415612
-8.03375
-0.465255
-8.02922
-0.526984
-8.06433
-0.529228
-8.02288
-7.43438
0.085529
-8.03769
-0.104104
0.0657656
-8.03834
0.0443292
-8.04023
0.022988
-8.04184
0.0012825
-8.04373
-0.0205707
-8.0443
-0.0412936
-8.05088
-0.0639031
-8.04823
-0.0893441
-8.05369
-0.115847
-8.04889
-0.1425
-8.05458
-0.167314
-8.04435
-0.193293
-8.05343
-0.208977
-8.03741
-0.233686
-8.03515
-0.244783
-8.02266
-0.250499
-8.02351
-0.277961
-8.03687
-0.291311
-8.00953
-7.72569
0.0494747
-8.02765
-0.0595166
0.03932