/*--------------------------------*- C++ -*----------------------------------*\
  =========                 |
  \\      /  F ield         | OpenFOAM: The Open Source CFD Toolbox
   \\    /   O peration     | Website:  https://openfoam.org
    \\  /    A nd           | Version:  9
     \\/     M anipulation  |
\*---------------------------------------------------------------------------*/
FoamFile
{
    format      ascii;
    class       volVectorField;
    location    "10.3";
    object      U;
}
// * * * * * * * * * * * * * * * * * * * * * * * * * * * * * * * * * * * * * //

dimensions      [0 1 -1 0 0 0 0];

internalField   nonuniform List<vector> 
46400
(
(9.57573 -9.40524 -6.25671e-19)
(19.6902 -18.8605 6.64124e-19)
(21.4248 -21.5326 -7.48612e-20)
(20.7196 -21.6258 2.74008e-20)
(20.0177 -21.6075 -5.89104e-20)
(19.3053 -21.6364 -5.64132e-19)
(18.6655 -21.6223 2.81498e-19)
(18.0403 -21.638 -3.7221e-20)
(17.4533 -21.6244 2.701e-20)
(16.9063 -21.6415 -1.78355e-20)
(16.3974 -21.6778 9.64916e-21)
(15.8989 -21.6749 0)
(15.4273 -21.696 -3.49392e-20)
(14.9964 -21.7095 3.01465e-20)
(14.5666 -21.7207 -8.22666e-20)
(14.1523 -21.7019 -6.41875e-20)
(13.7229 -21.6855 -4.24924e-20)
(13.3531 -21.619 1.18428e-19)
(12.9879 -21.5586 2.46302e-19)
(12.5087 -21.7666 -2.23921e-19)
(9.86506 -8.89345 0)
(19.8372 -17.6542 -3.72704e-20)
(21.3886 -19.9408 0)
(20.6571 -20.0558 -3.62088e-19)
(19.9802 -20.0966 2.64599e-19)
(19.266 -20.1712 -6.16121e-20)
(18.6353 -20.2054 0)
(18.0185 -20.2733 3.72218e-20)
(17.4576 -20.3459 -2.70104e-20)
(16.9091 -20.394 1.78357e-20)
(16.3866 -20.4454 4.17331e-20)
(15.9166 -20.5211 5.21605e-20)
(15.4557 -20.5943 -9.6768e-20)
(15.0065 -20.6385 0)
(14.5827 -20.6863 1.56851e-20)
(14.1921 -20.7333 2.05969e-20)
(13.82 -20.7875 0)
(13.4632 -20.7628 -3.32779e-19)
(13.1358 -20.7515 -1.01643e-19)
(12.704 -20.9486 3.44707e-19)
(10.1144 -8.36198 -2.42567e-19)
(19.8827 -16.4278 1.8669e-19)
(21.2114 -18.3884 -2.45911e-19)
(20.4166 -18.5502 -1.26762e-19)
(19.7387 -18.6261 1.24448e-19)
(19.0453 -18.7653 0)
(18.4148 -18.8521 -2.82469e-20)
(17.789 -18.9313 1.55129e-20)
(17.2185 -19.0266 -1.73944e-19)
(16.6922 -19.1313 1.77934e-19)
(16.1818 -19.2348 2.46684e-19)
(15.6801 -19.2823 6.77147e-22)
(15.2232 -19.3756 -2.34539e-19)
(14.8164 -19.4756 0)
(14.4042 -19.5655 3.85828e-19)
(14.0073 -19.6273 -3.79978e-19)
(13.6206 -19.7141 0)
(13.289 -19.7508 -1.73218e-20)
(12.9305 -19.805 4.79759e-20)
(12.522 -20.0873 -4.9344e-19)
(10.2874 -7.81032 8.92649e-20)
(19.8112 -15.2141 -4.47289e-20)
(20.8594 -16.7909 -3.66472e-20)
(20.1062 -17.031 3.621e-20)
(19.469 -17.1736 -3.07778e-20)
(18.7798 -17.3408 5.50194e-20)
(18.1737 -17.4888 1.39229e-19)
(17.5868 -17.643 -4.35397e-19)
(17.0206 -17.7734 3.88827e-19)
(16.4879 -17.8969 -3.45676e-20)
(16.0014 -18.0541 0)
(15.5572 -18.2236 4.5053e-20)
(15.0911 -18.3399 -4.9324e-20)
(14.6478 -18.4543 0)
(14.2466 -18.5791 5.44005e-19)
(13.8662 -18.7017 -4.57584e-19)
(13.5024 -18.8197 0)
(13.1631 -18.8997 6.36012e-20)
(12.8132 -18.9348 8.07799e-20)
(12.3574 -19.2131 6.3064e-19)
(10.396 -7.24167 0)
(19.6058 -13.945 0)
(20.49 -15.3505 -1.06466e-19)
(19.6777 -15.5782 5.62423e-20)
(19.0286 -15.7637 -2.10625e-19)
(18.3726 -15.9835 1.82072e-19)
(17.7548 -16.162 0)
(17.163 -16.335 2.65814e-19)
(16.6154 -16.5272 -3.16441e-19)
(16.096 -16.6842 -8.53112e-20)
(15.5692 -16.8229 -8.84534e-20)
(15.0913 -16.9516 0)
(14.6662 -17.1351 6.73394e-19)
(14.2696 -17.2911 -6.62859e-19)
(13.8709 -17.4583 0)
(13.4939 -17.5882 -7.89563e-19)
(13.1319 -17.769 7.0079e-19)
(12.8385 -17.9149 7.25266e-19)
(12.5162 -18.0502 -7.89714e-19)
(12.0749 -18.3351 0)
(10.4734 -6.67949 0)
(19.2713 -12.6419 0)
(19.9076 -13.83 0)
(19.1646 -14.1579 -3.32794e-20)
(18.5475 -14.3877 0)
(17.9014 -14.6456 0)
(17.3161 -14.8822 0)
(16.7541 -15.0996 -1.04075e-19)
(16.2118 -15.3199 0)
(15.7266 -15.5483 8.53121e-20)
(15.2768 -15.7919 -2.33166e-20)
(14.8329 -15.9979 -9.44246e-19)
(14.3764 -16.1725 7.03515e-19)
(13.9418 -16.3327 -9.64682e-19)
(13.5641 -16.5275 7.21249e-19)
(13.1841 -16.6876 0)
(12.8086 -16.8253 -8.59565e-19)
(12.4917 -16.9917 7.31698e-19)
(12.1943 -17.141 0)
(11.7832 -17.4728 -1.2025e-19)
(10.5595 -6.11145 2.73968e-19)
(18.7932 -11.3035 9.42005e-20)
(19.3258 -12.4315 3.7972e-19)
(18.5407 -12.7409 -4.08208e-19)
(17.9186 -13.0477 -4.34031e-19)
(17.3042 -13.3436 8.78899e-19)
(16.7136 -13.6325 -1.03971e-18)
(16.1592 -13.8864 8.44558e-20)
(15.6091 -14.1299 3.38509e-19)
(15.0998 -14.3377 0)
(14.5955 -14.5649 -2.25433e-20)
(14.1594 -14.7812 -2.14787e-20)
(13.776 -15.0507 1.143e-19)
(13.3839 -15.2472 9.88e-19)
(13.0064 -15.471 -8.76645e-19)
(12.6909 -15.7182 -1.13573e-18)
(12.3247 -15.9088 9.87422e-19)
(12.0158 -16.0828 -1.64621e-20)
(11.7306 -16.2752 -1.29994e-19)
(11.3213 -16.607 -9.23674e-19)
(10.6885 -5.51697 -1.22262e-19)
(18.2078 -10.008 3.54998e-20)
(18.5581 -10.9894 -1.40539e-19)
(17.8058 -11.3973 -5.69031e-19)
(17.2066 -11.7426 3.77556e-19)
(16.6207 -12.0904 0)
(16.0559 -12.4184 8.56515e-19)
(15.5564 -12.7278 -4.08823e-19)
(15.0726 -13.0707 2.88336e-19)
(14.6076 -13.334 1.56206e-19)
(14.1854 -13.6405 -2.95723e-19)
(13.7439 -13.874 7.112e-19)
(13.3277 -14.1345 1.54384e-19)
(12.9303 -14.3575 -8.70447e-19)
(12.5181 -14.5388 2.4426e-18)
(12.178 -14.7645 -9.9937e-19)
(11.8646 -15.0125 1.2795e-18)
(11.5304 -15.1792 -8.35026e-19)
(11.2761 -15.396 2.75858e-19)
(10.9126 -15.762 1.33408e-18)
(10.8873 -4.95307 6.87333e-19)
(17.4813 -8.81457 -1.33426e-19)
(17.6222 -9.64615 -3.24518e-20)
(16.9271 -10.09 3.23543e-19)
(16.3491 -10.532 1.49997e-19)
(15.8123 -10.9169 1.79581e-19)
(15.2719 -11.3143 -8.31081e-19)
(14.7302 -11.589 5.09426e-19)
(14.2386 -11.9262 -1.56138e-19)
(13.7896 -12.2217 -1.56209e-19)
(13.3229 -12.5048 -1.55923e-19)
(12.9223 -12.7743 -1.74739e-19)
(12.5712 -13.0824 -3.27309e-19)
(12.2707 -13.408 1.14915e-18)
(11.9205 -13.6643 -1.60315e-18)
(11.5661 -13.8856 -1.666e-19)
(11.2647 -14.1446 1.54091e-20)
(10.9684 -14.3625 -1.22571e-18)
(10.6809 -14.5525 9.16775e-19)
(10.3668 -14.9378 -1.45917e-18)
(11.0745 -4.465 6.90096e-19)
(16.6022 -7.62412 -1.68293e-18)
(16.6062 -8.41452 1.12517e-18)
(15.969 -8.87568 -1.76974e-19)
(15.402 -9.36912 -2.05524e-19)
(14.9067 -9.78066 8.01942e-19)
(14.449 -10.2691 -9.66812e-19)
(14.0324 -10.663 0)
(13.5684 -11.0401 7.62715e-19)
(13.1637 -11.3681 -7.50019e-19)
(12.8059 -11.7463 -5.51291e-19)
(12.3859 -11.9943 7.16603e-19)
(11.9402 -12.2269 1.72943e-19)
(11.6009 -12.4917 -7.18425e-19)
(11.2985 -12.8005 1.68082e-19)
(10.9792 -13.035 8.6398e-19)
(10.6805 -13.3027 -1.53793e-18)
(10.4068 -13.5289 1.01538e-18)
(10.1441 -13.7504 -1.32856e-20)
(9.83735 -14.0914 -1.41779e-18)
(11.1243 -4.06985 9.83735e-19)
(15.5915 -6.53097 -6.5509e-19)
(15.3631 -7.30686 4.48441e-19)
(14.8622 -7.80022 1.40263e-20)
(14.3612 -8.34999 -8.92585e-19)
(13.8749 -8.76844 -8.49051e-19)
(13.3975 -9.2232 1.06087e-18)
(12.9729 -9.61478 -6.3159e-19)
(12.5806 -10.0369 8.40174e-19)
(12.1629 -10.3582 0)
(11.797 -10.7431 1.78643e-20)
(11.5368 -11.1511 1.93082e-19)
(11.2062 -11.4792 2.06598e-19)
(10.8493 -11.7492 -2.03029e-19)
(10.5568 -12.0557 0)
(10.2574 -12.3361 1.9586e-19)
(9.97417 -12.6019 0)
(9.72043 -12.8708 3.64689e-19)
(9.46377 -13.0952 1.78827e-18)
(9.19096 -13.4519 -7.63197e-21)
(10.9634 -3.63698 5.56923e-19)
(14.4533 -5.54448 -1.1211e-19)
(14.2186 -6.30538 -1.73347e-18)
(13.7775 -6.79553 9.7159e-19)
(13.3081 -7.37594 2.3032e-19)
(12.9287 -7.84304 -2.28229e-19)
(12.5452 -8.37927 -9.46975e-19)
(12.1909 -8.81705 7.07603e-19)
(11.8356 -9.29407 0)
(11.4707 -9.6605 0)
(11.0558 -9.97017 -1.10126e-18)
(10.7234 -10.3072 8.7333e-19)
(10.4355 -10.6727 -2.06609e-19)
(10.1331 -10.9731 -6.37127e-19)
(9.8357 -11.2684 2.9289e-21)
(9.58382 -11.566 1.42438e-18)
(9.30554 -11.8341 -7.96394e-19)
(9.0734 -12.0998 5.88894e-19)
(8.85479 -12.3574 -9.51593e-19)
(8.59221 -12.6802 0)
(10.5495 -3.14941 -4.98494e-19)
(13.2647 -4.67265 8.07179e-19)
(12.9463 -5.44608 1.40249e-19)
(12.5543 -5.9647 1.38445e-19)
(12.1388 -6.55098 0)
(11.7067 -7.00005 1.03943e-18)
(11.2928 -7.47267 -1.02122e-18)
(10.9324 -7.8885 1.29698e-19)
(10.6476 -8.36413 0)
(10.4486 -8.86678 9.68584e-19)
(10.1449 -9.28542 -8.30319e-19)
(9.82612 -9.64142 9.31262e-19)
(9.57181 -10.0282 -9.16452e-19)
(9.30701 -10.3848 8.93969e-19)
(9.03899 -10.705 -7.67531e-19)
(8.78828 -11.0246 -8.57372e-19)
(8.54897 -11.324 1.68417e-18)
(8.30668 -11.594 -7.21505e-19)
(8.10241 -11.8664 1.03449e-19)
(7.88441 -12.2045 8.59491e-19)
(9.94001 -2.6483 -4.06042e-19)
(11.9493 -3.84941 4.41752e-19)
(11.6455 -4.57942 -1.40278e-19)
(11.4194 -5.17529 -1.38446e-19)
(11.04 -5.7963 0)
(10.8047 -6.3453 0)
(10.5189 -6.91543 0)
(10.1848 -7.3536 -2.67172e-19)
(9.75565 -7.73368 -1.04748e-18)
(9.43597 -8.12977 2.05614e-18)
(9.2117 -8.57589 -1.13177e-18)
(8.92824 -8.94903 -1.26312e-19)
(8.65151 -9.30245 0)
(8.43655 -9.67509 0)
(8.20128 -10.0075 -2.3088e-19)
(7.98371 -10.3337 0)
(7.78168 -10.6529 8.82302e-19)
(7.57262 -10.9463 -1.08547e-18)
(7.38426 -11.2245 -9.46821e-19)
(7.1762 -11.5727 9.08591e-19)
(9.13193 -2.15496 4.26082e-19)
(10.7462 -3.15925 7.86634e-19)
(10.3766 -3.84805 2.07099e-21)
(10.0278 -4.38937 8.65853e-22)
(9.71753 -5.02754 1.53331e-19)
(9.32789 -5.48739 -4.37715e-19)
(9.06049 -6.08376 0)
(8.91751 -6.66113 -4.25985e-19)
(8.70679 -7.21368 1.43621e-19)
(8.44478 -7.64133 5.42234e-19)
(8.1941 -8.09782 5.27387e-19)
(7.99907 -8.52504 -3.92587e-19)
(7.77243 -8.91452 1.00784e-18)
(7.54967 -9.27741 -8.66078e-19)
(7.36223 -9.64099 1.08069e-18)
(7.14469 -9.96378 -2.0087e-18)
(6.95156 -10.2843 9.26474e-19)
(6.76154 -10.5794 1.10519e-19)
(6.57403 -10.8532 8.77238e-19)
(6.40091 -11.1816 -9.46396e-19)
(8.17768 -1.671 1.49132e-19)
(9.4568 -2.56288 -1.60494e-19)
(9.1078 -3.33991 6.52045e-19)
(8.88835 -3.92705 -6.40022e-19)
(8.68031 -4.60875 -3.13532e-19)
(8.4514 -5.15899 -7.64233e-19)
(8.05773 -5.6015 2.34199e-21)
(7.76036 -6.05234 5.90412e-19)
(7.56141 -6.53425 -1.41142e-19)
(7.35938 -7.00356 0)
(7.14354 -7.42306 0)
(6.964 -7.86204 0)
(6.78311 -8.27687 0)
(6.60117 -8.67528 4.3898e-21)
(6.43148 -9.05164 0)
(6.27687 -9.4261 1.20282e-19)
(6.12216 -9.76735 4.76723e-19)
(5.97048 -10.1033 -1.40112e-18)
(5.82279 -10.4007 1.03366e-18)
(5.65034 -10.7491 -9.70942e-19)
(7.06321 -1.22095 0)
(7.93402 -2.06408 -8.77125e-20)
(7.55466 -2.80986 0)
(7.31654 -3.37868 2.48606e-19)
(7.07806 -4.03518 -1.67061e-19)
(7.0181 -4.68984 -6.37976e-19)
(6.91847 -5.31225 3.29005e-21)
(6.7356 -5.83928 6.12869e-19)
(6.51145 -6.31093 -5.949e-19)
(6.34692 -6.79262 1.16579e-18)
(6.1536 -7.21934 -4.3153e-21)
(5.95803 -7.63605 -5.57824e-19)
(5.79816 -8.02345 5.40141e-19)
(5.64256 -8.41395 -6.62095e-19)
(5.49457 -8.76549 0)
(5.34782 -9.12392 -5.02256e-19)
(5.21064 -9.45407 4.94747e-19)
(5.07493 -9.78139 0)
(4.94989 -10.0764 -1.15841e-19)
(4.81603 -10.4133 0)
(5.87467 -0.827232 8.69583e-20)
(6.5576 -1.6331 8.80267e-20)
(6.44842 -2.37909 0)
(6.28471 -3.00406 3.41215e-19)
(6.0031 -3.54089 -4.22581e-19)
(5.77517 -4.0803 2.45168e-19)
(5.58407 -4.62693 -7.24835e-19)
(5.4877 -5.19414 3.15309e-19)
(5.36066 -5.71821 -7.75261e-20)
(5.20793 -6.22457 0)
(5.09162 -6.70861 -7.3824e-20)
(4.97136 -7.16835 -7.2026e-20)
(4.83554 -7.59547 -7.02661e-20)
(4.70769 -8.00694 0)
(4.59357 -8.40005 -5.27881e-19)
(4.47046 -8.7705 1.10014e-18)
(4.37105 -9.12956 -9.46215e-19)
(4.25524 -9.46564 4.95139e-19)
(4.16532 -9.78008 6.06466e-20)
(4.04375 -10.1229 5.10881e-19)
(4.66636 -0.604065 -1.35128e-19)
(4.92824 -1.37649 -1.83745e-19)
(4.77208 -2.08701 4.3752e-22)
(4.78517 -2.86304 4.84193e-19)
(4.71899 -3.4993 -1.31084e-19)
(4.61251 -4.11149 -8.46511e-20)
(4.46638 -4.63478 8.24213e-20)
(4.31244 -5.16039 1.61079e-19)
(4.17667 -5.64646 7.75421e-20)
(4.07076 -6.12541 -3.0437e-19)
(3.95701 -6.56481 3.35642e-19)
(3.85339 -7.00413 7.2037e-20)
(3.77153 -7.4185 3.5262e-19)
(3.66854 -7.81426 -2.55504e-21)
(3.58865 -8.19424 3.14426e-20)
(3.50217 -8.5613 -5.91743e-19)
(3.4202 -8.91207 1.62078e-19)
(3.33701 -9.2514 0)
(3.26286 -9.56066 -2.98618e-20)
(3.18629 -9.90567 -2.59801e-19)
(3.11696 -0.345941 4.67225e-20)
(3.64997 -1.07024 -9.33011e-20)
(3.4393 -1.66748 1.83288e-19)
(3.35656 -2.31644 -4.47964e-20)
(3.33709 -2.966 -4.43915e-20)
(3.27401 -3.61494 0)
(3.21202 -4.20667 -8.33444e-20)
(3.15473 -4.78414 1.6322e-19)
(3.09316 -5.31485 -7.99349e-20)
(3.01817 -5.82441 7.73293e-20)
(2.95576 -6.3115 -3.84977e-20)
(2.87243 -6.76164 -7.35048e-20)
(2.80833 -7.20458 1.43999e-19)
(2.74014 -7.61269 -1.4041e-19)
(2.67025 -8.01103 3.48121e-20)
(2.60127 -8.37938 2.38025e-34)
(2.54642 -8.74243 -3.24627e-20)
(2.48352 -9.07909 1.90273e-19)
(2.43097 -9.3927 -9.37241e-20)
(2.37561 -9.73444 -6.65387e-20)
(0.00651107 -3.00169 1.26176e-19)
(1.47567 -15.4379 6.22015e-20)
(3.37725 -30.0448 0)
(4.39948 -37.6069 5.864e-20)
(4.59089 -39.251 5.58555e-20)
(4.62907 -39.2635 5.08801e-20)
(4.60241 -38.9183 0)
(4.54831 -38.5416 4.72461e-20)
(4.49103 -38.1919 0)
(4.43073 -37.8643 0)
(4.36429 -37.5546 -3.89339e-20)
(4.29443 -37.2408 2.63912e-21)
(4.20966 -36.9473 7.40618e-20)
(4.13972 -36.6361 0)
(4.0309 -36.3538 3.28107e-20)
(3.97062 -36.0274 3.12078e-20)
(3.81981 -35.6764 2.97251e-20)
(3.77929 -35.2223 0)
(3.59104 -34.8288 -5.3608e-20)
(3.57171 -34.402 5.17425e-20)
(0.0818843 -4.15715 1.9447e-19)
(2.27322 -18.1672 -3.15978e-19)
(4.38445 -32.2506 0)
(5.40419 -38.5451 -2.91904e-19)
(5.51552 -39.4777 2.73338e-19)
(5.50891 -39.3187 -4.59264e-19)
(5.44196 -38.8403 2.02566e-19)
(5.37472 -38.4005 1.38791e-19)
(5.30835 -38.0269 -6.24646e-19)
(5.22619 -37.6944 3.46204e-19)
(5.15055 -37.3666 -4.02542e-20)
(5.05527 -37.0573 2.99773e-19)
(4.97452 -36.7445 -1.04741e-20)
(4.874 -36.4336 -2.80027e-19)
(4.77974 -36.1147 -3.28096e-20)
(4.69374 -35.7726 -3.12071e-20)
(4.55759 -35.3953 -2.97251e-20)
(4.49524 -34.9359 0)
(4.30978 -34.5376 -2.1113e-19)
(4.28506 -34.1519 6.54916e-21)
(0.301024 -5.30425 -1.33439e-19)
(3.27304 -20.3761 0)
(5.56453 -33.843 0)
(6.49636 -38.9512 -1.21562e-19)
(6.56401 -39.4114 1.10621e-19)
(6.48896 -39.0991 0)
(6.38253 -38.6195 -1.00879e-19)
(6.28674 -38.2298 2.77594e-19)
(6.1869 -37.8435 -2.76554e-19)
(6.08334 -37.4741 3.3219e-19)
(5.97672 -37.1303 -4.06451e-19)
(5.86862 -36.7982 0)
(5.74992 -36.4771 -2.81519e-19)
(5.63904 -36.1552 -2.56588e-19)
(5.50394 -35.8542 4.61452e-19)
(5.40485 -35.5094 -4.80496e-19)
(5.23064 -35.1254 4.15681e-19)
(5.15647 -34.658 0)
(4.93251 -34.2596 -4.65499e-19)
(4.91138 -33.8475 7.93062e-19)
(0.68978 -6.59191 6.68186e-19)
(4.29594 -22.2056 0)
(6.82302 -35.0443 2.57086e-19)
(7.61234 -39.1766 3.54224e-19)
(7.62877 -39.3141 -6.85185e-19)
(7.49896 -38.8987 2.10447e-19)
(7.36086 -38.39 1.00863e-19)
(7.2309 -37.9453 1.027e-18)
(7.10549 -37.5509 -1.43005e-18)
(6.96927 -37.2024 -1.39011e-19)
(6.84556 -36.8512 7.28493e-19)
(6.70383 -36.5148 1.48771e-19)
(6.58145 -36.1816 -6.96183e-19)
(6.4388 -35.8452 6.79705e-19)
(6.30837 -35.5164 1.8947e-19)
(6.17321 -35.1633 -1.18779e-19)
(5.99969 -34.7777 1.70108e-19)
(5.88898 -34.3124 0)
(5.65797 -33.9284 -4.94244e-20)
(5.62146 -33.5505 0)
(1.34328 -7.78322 0)
(5.35103 -23.606 6.50391e-19)
(8.18063 -35.9282 -1.31466e-18)
(8.75686 -39.1468 1.18174e-18)
(8.70673 -39.048 -9.16617e-19)
(8.5197 -38.5302 -2.1274e-19)
(8.35299 -38.0736 0)
(8.1849 -37.6421 5.47869e-19)
(8.02109 -37.2292 -7.24432e-19)
(7.85971 -36.8379 8.1874e-19)
(7.69607 -36.4819 -6.4067e-19)
(7.53769 -36.145 -1.48763e-19)
(7.37036 -35.815 6.85959e-19)
(7.21248 -35.4888 -1.18482e-18)
(7.04125 -35.1678 7.45953e-19)
(6.8967 -34.8097 -2.4484e-19)
(6.69197 -34.4096 -5.48644e-19)
(6.56912 -33.9449 1.25657e-18)
(6.30377 -33.5525 -7.13642e-19)
(6.26473 -33.155 -8.38239e-19)
(1.95596 -8.52101 0)
(6.3533 -24.6744 9.7327e-19)
(9.49705 -36.2707 -1.05697e-18)
(10.0114 -38.8683 -2.39202e-19)
(9.85309 -38.6186 2.25529e-19)
(9.6106 -38.1072 8.2856e-19)
(9.39297 -37.6088 -8.13979e-19)
(9.18154 -37.1796 0)
(8.98069 -36.7845 6.8104e-19)
(8.7757 -36.4291 -6.69662e-19)
(8.59136 -36.0636 -6.01126e-19)
(8.3903 -35.7181 5.91389e-19)
(8.21375 -35.3778 0)
(8.01778 -35.0428 0)
(7.84043 -34.7304 1.07034e-18)
(7.65499 -34.39 -1.049e-18)
(7.44297 -34.0092 -8.46256e-19)
(7.27908 -33.5417 8.33719e-19)
(7.0072 -33.1673 -7.59745e-19)
(6.95661 -32.7812 9.35392e-19)
(2.26077 -9.61556 -7.97818e-19)
(7.70633 -25.6337 2.22498e-19)
(10.8167 -36.5498 5.03296e-20)
(11.1355 -38.4829 1.22055e-18)
(10.9266 -38.1138 0)
(10.6431 -37.5823 0)
(10.3849 -37.1383 1.52193e-18)
(10.1429 -36.6934 -7.27349e-20)
(9.90465 -36.281 -1.3988e-18)
(9.67544 -35.8996 1.2482e-18)
(9.4484 -35.5535 -1.2277e-18)
(9.23371 -35.2238 0)
(9.0115 -34.899 1.03384e-18)
(8.80182 -34.5683 -1.0176e-18)
(8.58571 -34.2403 0)
(8.38575 -33.8959 0)
(8.14354 -33.5204 0)
(7.96003 -33.0825 0)
(7.64725 -32.7028 0)
(7.58383 -32.3059 -9.05483e-20)
(2.89883 -10.0553 7.83752e-19)
(8.6671 -26.3382 -1.23259e-18)
(12.0967 -36.3581 0)
(12.3241 -37.8948 0)
(12.0259 -37.4531 1.91477e-18)
(11.7174 -36.9616 1.12255e-19)
(11.4047 -36.4771 -1.75025e-18)
(11.1124 -36.076 0)
(10.8383 -35.6902 1.62615e-19)
(10.5615 -35.3355 -1.51902e-19)
(10.3106 -34.9759 0)
(10.0468 -34.6444 1.32996e-19)
(9.81196 -34.3203 -1.12084e-18)
(9.56204 -34.0122 2.0334e-18)
(9.33787 -33.7227 -4.13364e-20)
(9.10156 -33.399 -8.66569e-19)
(8.85437 -33.0225 -9.71308e-20)
(8.63695 -32.573 9.14362e-20)
(8.32359 -32.217 0)
(8.25227 -31.8298 8.23908e-20)
(3.45796 -10.5819 5.10325e-19)
(9.9845 -26.692 4.46762e-19)
(13.3844 -36.1119 -1.54181e-18)
(13.4808 -37.2069 4.50663e-19)
(13.1041 -36.7269 2.0137e-19)
(12.7371 -36.2248 1.72787e-18)
(12.3844 -35.7983 -2.39933e-18)
(12.0562 -35.3681 1.74355e-18)
(11.7391 -34.9854 -1.40714e-18)
(11.438 -34.6377 1.66668e-18)
(11.1448 -34.3121 2.71627e-19)
(10.8685 -34.0005 1.13672e-18)
(10.5877 -33.6931 -6.37686e-19)
(10.3214 -33.373 -1.23115e-18)
(10.0513 -33.0755 1.08648e-18)
(9.80036 -32.7835 0)
(9.51655 -32.4554 2.80659e-19)
(9.27098 -32.0473 8.09859e-20)
(8.91411 -31.6712 -1.62685e-19)
(8.81959 -31.2726 7.24686e-20)
(4.07431 -10.9747 -9.87263e-19)
(11.1605 -26.9004 1.02084e-18)
(14.545 -35.4711 -1.83834e-20)
(14.5755 -36.3378 -8.85507e-19)
(14.1172 -35.854 -8.18446e-19)
(13.7245 -35.4059 -3.8814e-19)
(13.3167 -34.9682 -1.6329e-20)
(12.9452 -34.607 -3.35195e-19)
(12.5968 -34.2412 0)
(12.25 -33.9101 -2.9099e-19)
(11.9339 -33.5845 -2.71614e-19)
(11.6114 -33.2865 -1.40464e-20)
(11.3203 -32.9958 8.87878e-19)
(11.0213 -32.7176 -4.56026e-19)
(10.7495 -32.4416 -9.98537e-19)
(10.4663 -32.1426 7.78129e-19)
(10.1845 -31.8064 5.11628e-19)
(9.91011 -31.4157 -8.57304e-19)
(9.55993 -31.0863 1.6258e-19)
(9.46007 -30.7054 1.02338e-18)
(4.68146 -11.2342 -2.39813e-18)
(12.3379 -26.8558 2.43945e-18)
(15.7058 -34.8089 -2.69211e-18)
(15.6148 -35.3707 2.18932e-18)
(15.1142 -34.8961 1.9227e-18)
(14.6626 -34.4533 -1.49393e-18)
(14.2251 -34.063 -1.97232e-18)
(13.8117 -33.6821 7.20675e-20)
(13.4231 -33.3524 1.18805e-18)
(13.0503 -33.0496 -7.83946e-19)
(12.6923 -32.7537 1.99678e-18)
(12.3543 -32.4795 -1.19478e-18)
(12.0162 -32.2119 -2.23758e-19)
(11.6947 -31.9348 5.78033e-19)
(11.3752 -31.6919 -1.51037e-18)
(11.0822 -31.4587 7.242e-19)
(10.7627 -31.1733 0)
(10.4627 -30.8029 -1.20783e-18)
(10.0676 -30.4462 1.1888e-18)
(9.94603 -30.0579 -9.54458e-19)
(5.29136 -11.4089 4.63549e-19)
(13.4675 -26.6555 5.15627e-19)
(16.7121 -33.8766 2.23773e-18)
(16.5732 -34.3148 1.94774e-18)
(15.9953 -33.8695 -1.17156e-18)
(15.5221 -33.4706 1.65447e-18)
(15.0361 -33.0951 -9.76286e-19)
(14.5889 -32.7787 1.13284e-18)
(14.1722 -32.4487 -2.16316e-18)
(13.7641 -32.1699 7.72803e-19)
(13.3903 -31.8979 0)
(13.0145 -31.6382 0)
(12.6719 -31.3879 0)
(12.3256 -31.143 -1.45474e-18)
(12.0028 -30.8948 1.43228e-18)
(11.6769 -30.6532 0)
(11.3657 -30.4007 0)
(11.0427 -30.0881 -1.34032e-19)
(10.661 -29.7895 0)
(10.5268 -29.417 -1.12119e-18)
(5.8964 -11.4641 -8.83014e-19)
(14.5071 -26.2614 -2.19842e-18)
(17.6956 -32.8456 -1.57913e-18)
(17.4595 -33.0955 -2.87203e-19)
(16.8522 -32.6928 2.07943e-18)
(16.3222 -32.3232 -4.12323e-19)
(15.8112 -31.9858 -7.52602e-20)
(15.3233 -31.6804 -1.37458e-18)
(14.8715 -31.4148 0)
(14.4331 -31.1594 -6.7452e-19)
(14.0166 -30.9145 1.08289e-18)
(13.626 -30.702 0)
(13.2379 -30.4881 1.42128e-18)
(12.8714 -30.267 -1.39903e-18)
(12.5097 -30.0712 1.22474e-18)
(12.1793 -29.8812 -2.2063e-18)
(11.8303 -29.6493 1.12112e-18)
(11.4882 -29.3592 1.34026e-19)
(11.0657 -29.0407 -1.10509e-19)
(10.9182 -28.6727 8.794e-19)
(6.47596 -11.453 -1.18023e-18)
(15.5049 -25.7472 7.11228e-20)
(18.5348 -31.7314 1.02745e-19)
(18.2553 -31.9067 2.79353e-18)
(17.5803 -31.5272 2.43788e-19)
(17.0239 -31.1976 -1.49152e-18)
(16.4851 -30.894 -1.04058e-18)
(15.967 -30.6295 3.24348e-19)
(15.4925 -30.3533 1.15606e-18)
(15.0343 -30.1474 -1.2292e-18)
(14.6096 -29.9293 5.9499e-19)
(14.1848 -29.7165 -1.54783e-18)
(13.797 -29.5259 1.20433e-18)
(13.4074 -29.3352 -1.17752e-18)
(13.0373 -29.1399 1.02848e-18)
(12.6762 -28.9681 8.69102e-19)
(12.3408 -28.8004 -9.92049e-19)
(11.9844 -28.5784 7.62106e-19)
(11.5834 -28.3349 -7.37915e-19)
(11.4148 -27.971 -8.52747e-19)
(7.02986 -11.3393 -1.47627e-18)
(16.3933 -25.0574 -2.839e-19)
(19.2666 -30.3785 1.43955e-18)
(18.9278 -30.496 -1.22824e-18)
(18.2546 -30.1886 1.20626e-18)
(17.6477 -29.9087 2.79006e-19)
(17.0743 -29.6352 0)
(16.5314 -29.4194 -2.08885e-19)
(16.0252 -29.2166 5.70166e-19)
(15.5312 -29.0135 -2.01455e-18)
(15.071 -28.8432 1.41639e-18)
(14.6393 -28.6935 3.13184e-19)
(14.2091 -28.5289 1.54128e-19)
(13.8074 -28.366 0)
(13.4081 -28.2161 1.91967e-20)
(13.0417 -28.0686 8.63408e-19)
(12.6691 -27.9111 -5.6404e-20)
(12.3003 -27.73 1.37914e-19)
(11.8675 -27.4776 -7.17162e-19)
(11.695 -27.1371 1.61697e-19)
(7.54825 -11.1797 1.34368e-18)
(17.2365 -24.2894 -2.32178e-18)
(19.9532 -29.1406 1.30333e-18)
(19.5185 -29.1844 1.10259e-18)
(18.8088 -28.8902 -8.095e-20)
(18.1779 -28.6461 -7.627e-19)
(17.5989 -28.4243 2.00667e-19)
(17.0215 -28.2208 2.08887e-19)
(16.5034 -28.0197 0)
(16.0049 -27.8874 0)
(15.5342 -27.7243 -1.14039e-18)
(15.0722 -27.5834 1.89182e-18)
(14.6494 -27.4678 -1.0223e-18)
(14.2249 -27.3397 0)
(13.8169 -27.2058 2.01006e-20)
(13.4246 -27.0896 -7.97501e-19)
(13.064 -26.9815 7.78797e-19)
(12.6921 -26.8735 -8.57184e-20)
(12.2923 -26.7193 -5.92059e-19)
(12.0947 -26.3695 4.10798e-19)
(8.02201 -10.9252 -1.20593e-18)
(17.928 -23.3278 1.51713e-18)
(20.4284 -27.6009 0)
(19.9564 -27.6742 0)
(19.2564 -27.4673 2.11924e-19)
(18.5967 -27.2825 -1.01265e-18)
(17.9777 -27.0814 3.36665e-20)
(17.3972 -26.9588 7.02226e-19)
(16.8491 -26.813 -1.16509e-18)
(16.3142 -26.6705 2.19701e-18)
(15.8252 -26.5737 -1.03411e-18)
(15.3588 -26.4729 2.22816e-19)
(14.8963 -26.3638 8.58152e-19)
(14.4699 -26.2701 1.39139e-20)
(14.042 -26.1765 -5.18634e-19)
(13.6456 -26.0849 8.28807e-20)
(13.2473 -25.9884 -5.73734e-19)
(12.8587 -25.8957 4.91517e-19)
(12.4482 -25.7703 1.79085e-20)
(12.2608 -25.4667 3.88164e-19)
(8.4595 -10.623 0)
(18.5559 -22.3426 7.3171e-19)
(20.9208 -26.243 -7.91813e-19)
(20.3581 -26.2407 0)
(19.63 -26.0532 -2.11918e-19)
(18.9495 -25.9067 6.69033e-19)
(18.3401 -25.7649 -8.28699e-19)
(17.7198 -25.6343 0)
(17.1756 -25.5281 9.52344e-19)
(16.6472 -25.4626 -9.36464e-19)
(16.1398 -25.3636 8.61337e-20)
(15.6582 -25.3024 -9.9648e-20)
(15.2083 -25.2507 -8.9055e-20)
(14.7587 -25.1818 -7.9415e-20)
(14.3228 -25.1088 -5.24743e-19)
(13.9057 -25.0395 8.42863e-19)
(13.5211 -24.9961 -7.33306e-19)
(13.1337 -24.9809 6.35809e-19)
(12.7503 -24.9395 -2.47186e-19)
(12.5478 -24.6448 3.73902e-20)
(8.84947 -10.2512 0)
(19.0292 -21.2129 -8.67642e-19)
(21.1559 -24.6416 4.56528e-19)
(20.5652 -24.6999 5.311e-19)
(19.8499 -24.59 -6.87478e-20)
(19.1526 -24.5049 -6.1608e-20)
(18.5099 -24.3891 -5.32939e-19)
(17.9023 -24.3463 0)
(17.3231 -24.2583 0)
(16.7663 -24.187 0)
(16.2574 -24.1558 -8.61305e-20)
(15.7639 -24.1047 0)
(15.2825 -24.0626 -4.42876e-19)
(14.8415 -24.0371 3.94625e-19)
(14.3972 -24.008 -2.78566e-19)
(13.9749 -23.9562 5.00051e-19)
(13.5392 -23.8974 -2.22337e-19)
(13.1214 -23.8701 -1.45609e-19)
(12.7436 -23.8873 2.24953e-19)
(12.5574 -23.6313 -9.30053e-20)
(9.22164 -9.85076 0)
(19.4225 -20.036 0)
(21.4072 -23.136 1.86251e-19)
(20.7537 -23.158 1.65221e-19)
(20.0321 -23.0864 0)
(19.3212 -23.0533 4.15101e-19)
(18.6908 -22.9901 -4.07834e-19)
(18.0542 -22.9512 0)
(17.4986 -22.9446 5.10658e-19)
(16.9519 -22.9373 -5.02141e-19)
(16.4211 -22.9034 0)
(15.9321 -22.9057 -2.75749e-19)
(15.4598 -22.9044 1.02055e-19)
(14.9903 -22.8823 2.07966e-19)
(14.5381 -22.8698 0)
(14.105 -22.8464 0)
(13.6794 -22.8541 0)
(13.2489 -22.8246 5.0484e-20)
(12.8423 -22.774 -4.12259e-20)
(12.5759 -22.633 0)
(2.76744 -33.3654 0)
(2.50228 -31.5699 0)
(1.5989 -30.5659 -2.97346e-21)
(1.42498 -29.6759 -2.42953e-21)
(0.942962 -28.954 0)
(0.72332 -28.1505 1.48346e-22)
(0.472919 -27.5021 1.36739e-21)
(0.321144 -26.9722 0)
(0.189348 -26.5331 6.83498e-22)
(0.0956309 -26.1255 0)
(0.0152644 -25.8038 -3.45129e-22)
(-0.00635972 -25.5251 -8.13919e-23)
(-0.0542105 -25.343 8.18252e-23)
(-0.0197889 -25.1594 -9.11535e-24)
(-0.0664649 -25.0663 0)
(0.0199992 -24.8372 4.44835e-23)
(-0.00440009 -24.1589 -2.55351e-22)
(0.11692 -21.4086 0)
(0.0203979 -15.1233 0)
(0.0882111 -6.21982 -2.75558e-22)
(3.42885 -33.1541 2.22639e-20)
(3.08694 -31.3288 0)
(2.10437 -30.4073 1.35907e-20)
(1.83558 -29.6261 -8.23904e-21)
(1.28413 -28.9219 0)
(1.00204 -28.1213 -7.02242e-21)
(0.710554 -27.4706 2.62569e-21)
(0.521105 -26.9432 0)
(0.355818 -26.5081 4.50941e-22)
(0.234198 -26.1086 -1.14057e-21)
(0.132539 -25.7987 8.60122e-22)
(0.0886641 -25.5313 -7.9242e-22)
(0.0248637 -25.3485 3.1095e-22)
(0.0424182 -25.1593 -7.88921e-23)
(-0.0155994 -25.0711 5.33701e-23)
(0.0536644 -24.8389 -1.92117e-22)
(0.0201816 -24.1733 4.03647e-22)
(0.125581 -21.4191 6.70908e-22)
(0.0249957 -15.1219 3.15045e-22)
(0.077095 -6.20548 3.38368e-22)
(3.88706 -32.8515 -1.0386e-20)
(3.39166 -31.1764 -1.8855e-20)
(2.34257 -30.2336 -1.11179e-20)
(2.02517 -29.4404 0)
(1.44715 -28.7432 0)
(1.13144 -27.9948 7.91421e-21)
(0.822076 -27.381 -1.19139e-21)
(0.61457 -26.88 -9.42001e-22)
(0.434503 -26.459 -8.11564e-22)
(0.301727 -26.0711 -2.135e-21)
(0.190511 -25.7654 0)
(0.139555 -25.5021 0)
(0.0663206 -25.3304 0)
(0.0767954 -25.1543 2.10048e-22)
(0.0120357 -25.0696 0)
(0.0777491 -24.8541 7.76813e-22)
(0.0417121 -24.1881 -9.41876e-22)
(0.13578 -21.4311 -3.98834e-22)
(0.0299489 -15.1261 -6.5177e-22)
(0.0682843 -6.19889 -1.15092e-21)
(4.54562 -32.5944 3.24122e-20)
(3.96461 -30.9321 -6.14657e-20)
(2.83992 -30.0663 2.02943e-21)
(2.4176 -29.3755 1.99355e-20)
(1.78064 -28.7005 0)
(1.40093 -27.9578 9.57279e-21)
(1.05473 -27.3441 -2.09524e-20)
(0.807859 -26.8456 1.00793e-20)
(0.596357 -26.4293 -5.02142e-21)
(0.436868 -26.0506 1.33716e-21)
(0.30364 -25.7566 -3.38282e-22)
(0.231285 -25.5039 -3.38785e-22)
(0.142533 -25.3304 3.40392e-22)
(0.135344 -25.1488 -2.19297e-23)
(0.0598276 -25.0694 -1.89031e-22)
(0.108635 -24.8548 -7.76354e-22)
(0.0633036 -24.2027 1.20655e-21)
(0.145183 -21.4493 -5.56714e-22)
(0.0353603 -15.1343 2.88315e-22)
(0.0608625 -6.19298 1.1407e-21)
(5.00714 -32.2318 8.32656e-20)
(4.25881 -30.7307 1.42563e-20)
(3.07253 -29.8562 -1.95693e-20)
(2.59578 -29.1609 2.76597e-20)
(1.93754 -28.509 0)
(1.5243 -27.8187 -5.07236e-21)
(1.16298 -27.2462 4.04665e-21)
(0.897023 -26.7726 0)
(0.672324 -26.3721 1.68543e-22)
(0.502636 -26.0061 0)
(0.359588 -25.7165 -1.87911e-21)
(0.281141 -25.4686 0)
(0.181911 -25.3072 0)
(0.166896 -25.1396 8.5643e-22)
(0.086842 -25.0637 -4.62974e-22)
(0.131799 -24.8668 9.21828e-22)
(0.0834614 -24.2188 0)
(0.153861 -21.4703 -3.03088e-22)
(0.0373269 -15.1459 3.04042e-22)
(0.0527065 -6.19136 0)
(5.65634 -31.9202 3.30304e-20)
(4.81642 -30.4596 -2.65452e-20)
(3.55518 -29.6778 4.62386e-20)
(2.97111 -29.0784 -4.5413e-20)
(2.26363 -28.4535 1.21534e-20)
(1.78393 -27.7734 5.08817e-21)
(1.38974 -27.203 -7.22532e-21)
(1.08237 -26.7326 -5.36854e-21)
(0.829802 -26.3379 2.09878e-21)
(0.633558 -25.9817 2.11306e-21)
(0.468243 -25.7038 -1.24788e-21)
(0.369119 -25.4659 0)
(0.254735 -25.3008 0)
(0.223071 -25.129 3.79024e-23)
(0.132559 -25.059 5.54675e-22)
(0.160873 -24.8661 -9.20939e-22)
(0.103024 -24.2347 0)
(0.162749 -21.4956 2.60891e-21)
(0.0388103 -15.1619 2.41875e-21)
(0.0377284 -6.19277 1.61042e-22)
(6.10775 -31.5039 -9.17431e-20)
(5.09463 -30.2062 8.53815e-20)
(3.77796 -29.4273 -1.99218e-20)
(3.13809 -28.8386 0)
(2.41488 -28.2515 -1.2205e-20)
(1.90278 -27.6226 1.63969e-20)
(1.49467 -27.097 -9.20694e-21)
(1.16815 -26.6506 5.38369e-21)
(0.903781 -26.2735 0)
(0.697168 -25.9301 0)
(0.522347 -25.657 8.28155e-22)
(0.417571 -25.4248 -8.31143e-22)
(0.291691 -25.2732 0)
(0.253376 -25.116 -1.62896e-21)
(0.160202 -25.0493 6.45592e-22)
(0.182978 -24.8747 1.08986e-21)
(0.120664 -24.2512 -1.09335e-21)
(0.169729 -21.524 -3.26425e-21)
(0.0373932 -15.1793 -1.57565e-21)
(0.0138976 -6.19991 -3.34906e-22)
(6.73848 -31.1241 0)
(5.63153 -29.9094 -4.36216e-20)
(4.2427 -29.2344 4.3761e-20)
(3.49595 -28.7372 0)
(2.73121 -28.1819 0)
(2.15243 -27.568 -1.54245e-20)
(1.71452 -27.0468 1.54715e-20)
(1.34583 -26.6049 0)
(1.05667 -26.2349 2.65925e-21)
(0.823394 -25.9017 -4.18668e-21)
(0.626193 -25.6405 1.524e-21)
(0.501326 -25.417 -2.51783e-22)
(0.361381 -25.2603 2.52547e-22)
(0.30806 -25.1008 0)
(0.204448 -25.0403 0)
(0.209135 -24.8708 1.16368e-21)
(0.138773 -24.2683 -1.81861e-21)
(0.179411 -21.556 -3.82743e-23)
(0.0407725 -15.1989 1.04056e-21)
(-0.0120115 -6.21313 -3.48856e-22)
(7.16042 -30.6493 5.35093e-20)
(5.89241 -29.6033 -5.35813e-20)
(4.45142 -28.9439 -4.92811e-20)
(3.65275 -28.475 5.732e-20)
(2.87824 -27.9711 -4.42066e-20)
(2.26797 -27.4069 4.62188e-21)
(1.81608 -26.933 1.44808e-20)
(1.42931 -26.5148 0)
(1.12887 -26.1639 0)
(0.885058 -25.8431 1.49599e-21)
(0.678515 -25.5874 0)
(0.547882 -25.3709 0)
(0.396115 -25.2292 0)
(0.338161 -25.0845 0)
(0.230983 -25.0257 0)
(0.229424 -24.8754 0)
(0.153696 -24.286 1.36956e-21)
(0.186117 -21.5921 -1.37066e-21)
(0.0407789 -15.2198 3.63188e-22)
(-0.0357555 -6.23168 -3.63445e-22)
(7.75337 -30.2048 -5.67242e-20)
(6.40097 -29.2792 -7.27987e-20)
(4.89565 -28.7328 -1.30905e-20)
(3.99252 -28.3541 -6.47461e-21)
(3.18301 -27.8864 1.56664e-20)
(2.50797 -27.3418 2.53281e-20)
(2.02795 -26.8751 5.41524e-21)
(1.59966 -26.4634 0)
(1.27621 -26.1207 -1.51971e-21)
(1.00597 -25.8103 3.59051e-21)
(0.777375 -25.5668 3.02769e-22)
(0.627323 -25.3578 -6.10928e-22)
(0.462579 -25.21 0)
(0.388424 -25.0652 -1.82498e-21)
(0.271186 -25.0119 -2.14971e-21)