/*--------------------------------*- C++ -*----------------------------------*\
  =========                 |
  \\      /  F ield         | OpenFOAM: The Open Source CFD Toolbox
   \\    /   O peration     | Website:  https://openfoam.org
    \\  /    A nd           | Version:  9
     \\/     M anipulation  |
\*---------------------------------------------------------------------------*/
FoamFile
{
    format      ascii;
    class       volScalarField;
    location    "0.9";
    object      nut;
}
// * * * * * * * * * * * * * * * * * * * * * * * * * * * * * * * * * * * * * //

dimensions      [0 2 -1 0 0 0 0];

internalField   nonuniform List<scalar> 
46400
(
0.0184162
0.00664637
0.00195538
0.00131668
0.00133023
0.001288
0.00123267
0.00120695
0.00113736
0.00109616
0.00107382
0.00104707
0.00100388
0.000976845
0.000957284
0.000947405
0.000894863
0.000846877
0.00117153
0.000950581
0.0180874
0.00554691
0.00144685
0.00136841
0.00130534
0.00132873
0.00125446
0.00122375
0.00115821
0.00114492
0.00110241
0.00106595
0.00102076
0.00098374
0.000949668
0.000925838
0.000852021
0.000773356
0.00102186
0.000908652
0.0176848
0.00469481
0.00124627
0.00143547
0.00133022
0.00132063
0.00126184
0.00123663
0.00116529
0.00112188
0.00110434
0.00107362
0.00103323
0.000994801
0.00096569
0.000948129
0.000880793
0.000826983
0.00111896
0.000950174
0.0172584
0.00392619
0.00123926
0.00144702
0.00132706
0.0013474
0.0012762
0.00125429
0.00119361
0.00115743
0.00111389
0.00108606
0.00104727
0.00101217
0.000976864
0.000956256
0.000903166
0.000835862
0.00112968
0.000998819
0.0166735
0.00426731
0.00130047
0.0014856
0.00136081
0.00135427
0.00129892
0.00127331
0.00121549
0.00116624
0.00113637
0.00110029
0.00106718
0.0010298
0.00100787
0.000978542
0.000922732
0.000886786
0.00117806
0.00102288
0.0160565
0.00482297
0.00139063
0.00153368
0.00138748
0.00137575
0.00130168
0.00127328
0.00122681
0.00118307
0.00114286
0.0011071
0.00107153
0.00103447
0.00101303
0.00100097
0.000933725
0.000874644
0.00117276
0.00106296
0.0154684
0.00461348
0.00142473
0.00155188
0.00142447
0.00139824
0.00133834
0.00129394
0.00125061
0.00119925
0.00116531
0.00112866
0.00109503
0.00104974
0.00102211
0.00100962
0.000970794
0.000886503
0.00115072
0.00105492
0.014286
0.00393628
0.00144318
0.00155812
0.00143365
0.0013872
0.00133014
0.0012766
0.00123763
0.00119887
0.00115774
0.00111581
0.00109515
0.0010542
0.00102094
0.00100803
0.000975216
0.000926236
0.00115446
0.00107811
0.0126341
0.00307262
0.00148074
0.00152059
0.00145604
0.00139563
0.00135067
0.00129321
0.00124978
0.00120425
0.00118524
0.00113151
0.00108853
0.00105412
0.00100952
0.000977107
0.000938524
0.000885572
0.00109369
0.00101768
0.0101587
0.00249508
0.00150477
0.00146576
0.00143169
0.00137154
0.00133687
0.00127104
0.00122735
0.00118445
0.00116647
0.00115947
0.0011285
0.00108666
0.00106232
0.00101703
0.000970555
0.000913061
0.00107893
0.00104612
0.00824634
0.00213287
0.00153776
0.00147247
0.00142707
0.00136948
0.00133739
0.00128864
0.0012221
0.00114842
0.00111787
0.00108525
0.00108958
0.00106173
0.00103893
0.0010165
0.000956914
0.000904062
0.0010096
0.000958736
0.00670284
0.00181325
0.00148235
0.00144087
0.00142345
0.00136429
0.00135269
0.00130671
0.00129326
0.00120481
0.00114635
0.0011067
0.00107611
0.00107565
0.00106587
0.00106336
0.00103788
0.000988099
0.00109336
0.00101016
0.00569432
0.00173914
0.001537
0.00143363
0.00140574
0.00133016
0.00131085
0.00126705
0.00124257
0.00120501
0.00112537
0.00105991
0.00101343
0.000960813
0.000956814
0.000951114
0.000954855
0.000938311
0.00107712
0.00103878
0.00477857
0.00159641
0.00152338
0.00147502
0.00143074
0.00134108
0.00133344
0.00130994
0.00131559
0.00129148
0.00127233
0.00119413
0.00113493
0.00105824
0.000977975
0.000934677
0.000875046
0.000838118
0.000905128
0.000914623
0.00439614
0.001584
0.00150309
0.00147133
0.00147566
0.00131742
0.00122841
0.00115559
0.00115094
0.00115001
0.00116454
0.00118571
0.00116528
0.00116079
0.00111918
0.00107673
0.00102878
0.000958069
0.0010126
0.000941789
0.00428281
0.0016096
0.00151388
0.0014667
0.00154903
0.00155098
0.00146716
0.00133807
0.00122695
0.00115038
0.00108304
0.00105324
0.00103897
0.00101514
0.00101898
0.000992744
0.000977609
0.000929946
0.000981431
0.00094916
0.0036113
0.0015975
0.00137655
0.0012283
0.00124174
0.00129897
0.00138256
0.00138433
0.00136372
0.00131112
0.00126495
0.00119027
0.00115218
0.00109964
0.00106717
0.00103895
0.00100178
0.000956934
0.000995592
0.000946482
0.00373049
0.00186337
0.00179236
0.00151298
0.00135519
0.00121334
0.00117921
0.00117018
0.00116836
0.00116005
0.00115619
0.00113242
0.0011069
0.00108213
0.00105521
0.00103665
0.00100937
0.000963631
0.00101214
0.000945596
0.00257773
0.00131925
0.00152571
0.00153622
0.0015299
0.00144466
0.00137901
0.00130449
0.00125041
0.00120024
0.00116526
0.00113165
0.0011035
0.00106598
0.00103927
0.0010077
0.000979493
0.000917104
0.000970239
0.000911957
0.000663907
0.000591006
0.00122533
0.00120822
0.00137677
0.00129543
0.00132909
0.00126054
0.0012716
0.00120471
0.00119404
0.00113955
0.00112287
0.00107777
0.00105808
0.00102183
0.000998183
0.000935718
0.000982
0.000910638
1.38808e-05
0.00202565
0.00677519
0.010717
0.00963982
0.00549895
0.00212105
0.000511981
0.000128029
0.000195314
0.000260312
0.000269443
0.000230914
0.000265131
0.000271592
0.000249955
0.000243502
0.00028393
0.000287041
0.00033691
0.000737138
0.00410034
0.00917659
0.0111568
0.00750254
0.00321129
0.000822501
0.00013032
0.000181115
0.000270032
0.000285187
0.000276546
0.000273181
0.000262847
0.000237359
0.000264716
0.000301046
0.000334297
0.000307648
0.000351041
0.000946084
0.00689332
0.0109985
0.00989719
0.00518864
0.00151642
9.26114e-05
0.000127814
0.000256389
0.000303917
0.000306378
0.000304937
0.000266856
0.000291782
0.000295745
0.000335012
0.000334445
0.000312186
0.000325724
0.000389074
0.00215977
0.00896942
0.0116316
0.00808877
0.0031108
0.000421346
0.00015957
0.000250113
0.000341456
0.000358627
0.000310104
0.000312129
0.0003151
0.000333008
0.000301911
0.00033356
0.000327162
0.000355811
0.000386131
0.00042263
0.00247756
0.01023
0.0114079
0.00619906
0.0013705
0.000167667
0.000272906
0.000382489
0.000401576
0.000327904
0.000353155
0.00037195
0.00034043
0.000343029
0.000343147
0.000404311
0.000377536
0.000388894
0.000419659
0.000447534
0.00501214
0.0114348
0.0102786
0.00402774
0.000354087
0.000183999
0.000378783
0.00040662
0.000388666
0.000413732
0.000406384
0.000379325
0.000372443
0.000399898
0.000385201
0.000410677
0.000357747
0.000425426
0.00046242
0.000471813
0.00723271
0.0120719
0.00917808
0.00202116
0.000226664
0.000353207
0.000502446
0.000526067
0.000496232
0.000445846
0.000439088
0.000450874
0.000434122
0.000423052
0.000412593
0.000464811
0.000420791
0.000492224
0.000498496
0.00048234
0.00971718
0.0123394
0.0079934
0.000864702
0.000322865
0.000570228
0.000610279
0.000520445
0.000499341
0.00051692
0.00051806
0.000477611
0.000458517
0.000478536
0.000476975
0.000492886
0.000422357
0.000529494
0.000527856
0.000509216
0.0122525
0.0122508
0.00606996
0.000424093
0.000423641
0.000635422
0.000660946
0.000629931
0.000624286
0.00057477
0.000542302
0.000541117
0.000532741
0.000516345
0.0004994
0.00052961
0.00048996
0.000595304
0.000567795
0.000539748
0.0142945
0.0121808
0.00438583
0.000273882
0.000628809
0.000789391
0.000750521
0.000659666
0.000622034
0.000629705
0.000628377
0.000582869
0.000554302
0.000562353
0.000563296
0.000564933
0.000498282
0.000608953
0.000584339
0.000581298
0.0157984
0.0118386
0.00277872
0.000316789
0.000777313
0.000820056
0.000769227
0.000743832
0.000742273
0.000694733
0.000649426
0.000637585
0.000629748
0.000611701
0.000591335
0.00059846
0.000566071
0.000673029
0.000614321
0.000599275
0.0164539
0.0115357
0.00190695
0.000362363
0.000870621
0.000919892
0.00088358
0.000785994
0.000744233
0.000744644
0.000736492
0.000690068
0.000654811
0.000655973
0.000655311
0.000642528
0.000590576
0.000691134
0.000629594
0.000638872
0.0172361
0.0110543
0.00128775
0.000551217
0.00100589
0.000938137
0.000907296
0.00085847
0.000853735
0.00080901
0.000757439
0.000739413
0.000726727
0.000708299
0.000687721
0.000679733
0.000654202
0.000733723
0.000639575
0.000657656
0.0179513
0.0106905
0.00107467
0.000743947
0.00105645
0.00101193
0.00100226
0.000900197
0.000854749
0.00085787
0.000840115
0.00079374
0.000755111
0.000753076
0.000748081
0.000724463
0.000686578
0.000751901
0.000644287
0.000690721
0.0182759
0.0102459
0.00154665
0.000868088
0.00116263
0.00104064
0.00102687
0.000973751
0.000952677
0.000914463
0.00086501
0.000843625
0.000823297
0.000804472
0.000784933
0.000769694
0.000751231
0.000781281
0.000629696
0.000703638
0.0186993
0.00986728
0.00203343
0.00103135
0.00117316
0.00111796
0.00109898
0.00100981
0.000955962
0.000960997
0.000936612
0.000891135
0.000851068
0.000847902
0.000836368
0.000809004
0.00079471
0.000813086
0.000632581
0.000732446
0.0187838
0.00958522
0.0023679
0.00107611
0.00126871
0.00113096
0.00112212
0.00107593
0.00103842
0.0010054
0.000962789
0.000940872
0.000913246
0.000893666
0.000873333
0.000855725
0.0008538
0.000837312
0.000609584
0.000749948
0.0189139
0.00927635
0.00220148
0.00114431
0.00127024
0.00120722
0.00116996
0.00110437
0.00104077
0.0010487
0.00101999
0.000975946
0.000938302
0.000934689
0.000914378
0.000890001
0.000904392
0.000884668
0.00062507
0.000789423
0.0188075
0.00867492
0.00201904
0.00118374
0.00132696
0.00122459
0.00119173
0.00116042
0.00110674
0.00107338
0.00104236
0.00101997
0.000984651
0.00096537
0.000945509
0.00093145
0.000947092
0.000925919
0.000643356
0.000790146
0.018672
0.00753557
0.00207767
0.00124779
0.0013001
0.00128295
0.00122074
0.0011763
0.00111056
0.00111734
0.00108705
0.00105123
0.00101957
0.00100985
0.000988273
0.000992351
0.00100134
0.000989252
0.00079401
0.000889782
0.00311606
0.002311
0.00204996
0.00165282
0.00164078
0.00134511
0.00127315
0.00124705
0.00110564
0.00105237
0.0009033
0.000884972
0.00077415
0.000725642
0.000608309
0.000654629
0.00112344
0.00400714
0.00997161
0.0217992
0.00322926
0.00229204
0.00213278
0.0016689
0.00162087
0.00145076
0.00136507
0.00125631
0.00108116
0.00103009
0.000876362
0.000853606
0.00074531
0.000710431
0.000598303
0.000635265
0.0011273
0.00409453
0.0100007
0.0215856
0.0033119
0.00240763
0.00224002
0.00164084
0.00163114
0.00136909
0.00129282
0.0012431
0.00109134
0.00104936
0.000906362
0.000893578
0.000770359
0.000729026
0.000606711
0.000652888
0.00112003
0.00412684
0.0100397
0.021458
0.00343369
0.00243181
0.00229864
0.00164411
0.0016256
0.0014836
0.00137402
0.00125087
0.00107176
0.00103046
0.000880668
0.000862364
0.000741779
0.000713542
0.000596792
0.000633231
0.00111224
0.00419638
0.0100704
0.0212558
0.00351911
0.00255718
0.0023864
0.00159754
0.00163275
0.0014197
0.00130564
0.00123695
0.00108436
0.00105132
0.000909186
0.000900833
0.00076759
0.000732541
0.000606714
0.000649712
0.00109622
0.00421584
0.0101078
0.0211299
0.0036919
0.00258858
0.00241894
0.00161096
0.00164516
0.00153218
0.00137733
0.0012454
0.0010693
0.00103413
0.000885081
0.000870505
0.000739757
0.000717616
0.000597549
0.000628426
0.00108294
0.00426967
0.0101378
0.0209379
0.00377766
0.00270066
0.00246994
0.00155957
0.00164823
0.00147072
0.00131268
0.0012341
0.0010837
0.00105498
0.000911801
0.000906687
0.000766167
0.00073723
0.000609935
0.000644606
0.00105398
0.00427285
0.0101742
0.0208146
0.00397748
0.002697
0.00247875
0.00161155
0.00168381
0.00157554
0.00137346
0.00124239
0.00107229
0.00103956
0.000888971
0.000878309
0.000739697
0.000722935
0.000602226
0.000621991
0.00103809
0.00431171
0.0102023
0.0206307
0.0041378
0.00274529
0.00248458
0.00157866
0.00167644
0.0015165
0.00131879
0.00123578
0.00108814
0.00105951
0.000913774
0.000911239
0.000766363
0.000743621
0.000617508
0.000638716
0.000999314
0.00430068
0.0102367
0.0205093
0.00436112
0.00272644
0.00246447
0.00167113
0.00172617
0.00160353
0.00136167
0.00124066
0.00107888
0.00104558
0.000891652
0.000885646
0.000742168
0.000729472
0.000611337
0.000616639
0.000980451
0.00432569
0.0102588
0.0203308
0.00444824
0.00276414
0.0024497
0.00168106
0.0017097
0.00155439
0.00132618
0.00123847
0.00109502
0.00106391
0.00091497
0.000914773
0.0007689
0.000751195
0.000629141
0.000634377
0.000948828
0.00430304
0.0103
0.0202065
0.00459951
0.00274521
0.0024303
0.00178731
0.00176073
0.00161678
0.00134918
0.0012375
0.00108661
0.00105058
0.000892973
0.000892624
0.000748135
0.000737244
0.000625335
0.000613439
0.000915826
0.00431362
0.010312
0.0200341
0.00468713
0.00274739
0.00242415
0.00182914
0.00174315
0.00157584
0.00132835
0.00123952
0.0011016
0.00106719
0.000914887
0.000917584
0.000774843
0.000759931
0.000646324
0.000633739
0.000884191
0.00428827
0.0103548
0.0199089
0.00480088
0.00273603
0.00243537
0.00191527
0.00178273
0.00162111
0.00134006
0.0012342
0.00109257
0.00105383
0.000893666
0.000898889
0.000758164
0.000747139
0.000645472
0.0006172
0.000848216
0.00428538
0.0103634
0.0197421
0.00489752
0.00273373
0.00243374
0.00195902
0.00176831
0.00158179
0.00132538
0.00123672
0.00110515
0.00106865
0.000913718
0.000919407
0.000784152
0.000771366
0.000669473
0.000640891
0.000823561
0.00424533
0.0104046
0.0196464
0.00500544
0.00275716
0.00247344
0.00200353
0.00179018
0.00161892
0.00133326
0.00122567
0.00109447
0.00105478
0.000893655
0.000902876
0.000770626
0.000760701
0.000670636
0.000628778
0.000796751
0.00422096
0.0103929
0.0195041
0.00518683
0.00279163
0.00247511
0.00203541
0.00177839
0.00157943
0.00132503
0.00122705
0.0011063
0.00106895
0.000912402
0.000919908
0.000796299
0.000786916
0.000696625
0.000656465
0.000792663
0.00420432
0.0104388
0.0193706
0.00525526
0.00281528
0.00250885
0.00206158
0.00179826
0.00161687
0.0013416
0.00122278
0.00110041
0.00106059
0.000897981
0.00091036
0.000788125
0.000782735
0.000703222
0.000651267
0.000781213
0.0041777
0.0104677
0.0193866
0.00522837
0.00291876
0.00247161
0.00202765
0.00174478
0.00154669
0.00131193
0.00120296
0.00109291
0.00106328
0.000907874
0.000912161
0.000805248
0.000801748
0.000724794
0.000674087
0.000810964
0.00412905
0.0104763
0.0192947
0.00598423
0.00321322
0.00252735
0.00208484
0.00178055
0.00161634
0.00137397
0.001227
0.00111674
0.0010734
0.000908359
0.000913256
0.000808288
0.000803373
0.000731996
0.000677863
0.000819015
0.00392191
0.0102272
0.0188143
0.0165655
0.0319514
0.0187246
0.0225135
0.0196231
0.0169874
0.01491
0.013329
0.0117961
0.0114285
0.0100582
0.0098596
0.00898684
0.00896633
0.00832138
0.00810948
0.0114919
0.038999
0.0976674
0.165284
0.0292676
0.0226148
0.0199149
0.0179746
0.0159669
0.0135222
0.0131071
0.01131
0.0101244
0.00915479
0.00875555
0.00847335
0.00778178
0.00700824
0.00730384
0.00570941
0.0127184
0.0478504
0.0962561
0.15026
0.0161679
0.0156283
0.0155139
0.0130445
0.011453
0.0105089
0.00998647
0.00895955
0.00800352
0.00775349
0.0076435
0.0071765
0.00713561
0.00666526
0.00669688
0.00591519
0.0142827
0.0495117
0.0948335
0.145211
0.0135301
0.0114224
0.00949592
0.00943256
0.00930376
0.00857154
0.00841332
0.00804943
0.00741606
0.00689946
0.00742599
0.00679508
0.006509
0.00609807
0.00609997
0.00430535
0.00925111
0.0529403
0.0941983
0.131276
0.0070989
0.00748389
0.00829524
0.00832094
0.00775394
0.00691717
0.00638328
0.00601272
0.00550219
0.00566396
0.00613563
0.00594483
0.00603598
0.00559918
0.00551527
0.00413874
0.00928233
0.0537026
0.0938299
0.128289
0.00611129
0.00625075
0.00532163
0.00501231
0.00538409
0.00564505
0.00567299
0.00562319
0.00527667
0.00512909
0.00561722
0.00538057
0.00529517
0.0053911
0.00523565
0.00306769
0.0070413
0.0538154
0.0947328
0.122236
0.00327959
0.00373378
0.00440233
0.00498265
0.00475052
0.00460312
0.00437638
0.00426201
0.0042741
0.00456854
0.00453313
0.00495417
0.00520231
0.00530053
0.00506399
0.00309671
0.00487889
0.0514196
0.0957534
0.121173
0.00291342
0.00327352
0.00338654
0.00304384
0.00284245
0.00329876
0.00380943
0.0042729
0.00426503
0.00400767
0.00431837
0.00442877
0.00444185
0.00470332
0.0051111
0.00330356
0.00498718
0.0439016
0.0966588
0.122383
0.00153067
0.00208747
0.00226712
0.00272901
0.00302341
0.00307039
0.00308112
0.0031882
0.00333272
0.00335508
0.00346898
0.00389651
0.00415787
0.0041085
0.00420041
0.00355436
0.00245702
0.0362485
0.0977276
0.128199
0.00155745
0.0017549
0.00189724
0.00178101
0.00151182
0.00195312
0.00233114
0.00284659
0.0031484
0.00324985
0.00309202
0.00334456
0.00364124
0.0041282
0.0042212
0.00401723
0.00496969
0.0262614
0.0965996
0.135573
0.000996834
0.00120832
0.00134779
0.00177233
0.00205698
0.00208771
0.00194925
0.00208565
0.00246758
0.00290782
0.00287604
0.00340505
0.00372558
0.00439443
0.00455
0.00452225
0.00398231
0.0163427
0.0929134
0.147603
0.00084193
0.00101107
0.00106822
0.00106914
0.00112296
0.00149525
0.00175184
0.00195063
0.00210706
0.00264811
0.00283957
0.00292354
0.00315531
0.003872
0.00422414
0.00527694
0.00443452
0.010189
0.0766105
0.163802
0.000619265
0.000821866
0.000928389
0.00120506
0.0013703
0.00148381
0.00154834
0.00165819
0.00169362
0.00199559
0.00238117
0.00272185
0.00293155
0.00293794
0.00333495
0.00423127
0.00502997
0.00591251
0.056673
0.184668
0.000538721
0.00062432
0.000689398
0.0007165
0.000810929
0.0010945
0.00134982
0.00165564
0.00165856
0.00167785
0.00185132
0.00218331
0.00244218
0.00258792
0.00318286
0.00314866
0.00408811
0.0092982
0.027659
0.160706
0.000522201
0.000623756
0.00069101
0.000794174
0.000829284
0.000856855
0.000912918
0.00107632
0.00130056
0.00143982
0.00151817
0.00177339
0.00163965
0.00229047
0.00222882
0.00283322
0.00296342
0.00539686
0.0156766
0.11315
0.000390492
0.000454525
0.000501935
0.000581019
0.000682169
0.000723767
0.000749726
0.000755743
0.000848842
0.00101643
0.00114363
0.00122257
0.00153061
0.0017038
0.00190877
0.00225707
0.00248934
0.00331477
0.00392843
0.0664349
0.000356401
0.000391788
0.000412118
0.000465929
0.000455748
0.000549887
0.000575719
0.000705226
0.000709266
0.000825678
0.000821241
0.000984949
0.00102095
0.00114932
0.00121654
0.00133386
0.00133827
0.00212155
0.00343122
0.0353695
0.000267265
0.000294461
0.000327086
0.000383477
0.000444559
0.000477481
0.000546222
0.000620566
0.000679104
0.000698939
0.00080638
0.000852726
0.000968774
0.000994454
0.00101761
0.00102588
0.00100401
0.00114358
0.000740616
0.019096
0.00021052
0.000244576
0.000254844
0.000275886
0.000241607
0.000303287
0.00036689
0.000388454
0.000406106
0.000501001
0.000540175
0.000626539
0.000596071
0.000666237
0.000723742
0.000931516
0.00112272
0.000726575
0.00141558
0.00304707
0.000123764
0.000130015
0.000154777
0.000187845
0.000260157
0.000299785
0.000359356
0.00034873
0.000427519
0.000454852
0.000500951
0.000526221
0.000526188
0.000605543
0.000638517
0.000634356
0.000463695
0.000521189
0.000580044
0.00289263
0.0141444
0.0142347
0.0140025
0.013857
0.0138857
0.0137337
0.0137856
0.0137715
0.0127303
0.0131537
0.0122582
0.012117
0.0122327
0.0113634
0.0114634
0.00983614
0.009365
0.00937515
0.00911453
0.00850258
0.00699633
0.0069743
0.00687112
0.00690863
0.00676999
0.00678747
0.00672893
0.00652303
0.0067819
0.00661489
0.00640122
0.00769029
0.00720734
0.0067588
0.00610478
0.00676676
0.00670368
0.0067012
0.0067429
0.00759222
0.00422092
0.00422933
0.00429598
0.00434232
0.00436904
0.00447082
0.00439557
0.00461511
0.00445286
0.00445899
0.00456637
0.00425154
0.00403848
0.00415384
0.0040664
0.00415048
0.00362868
0.00388235
0.00342083
0.00375983
0.00273776
0.00275628
0.00274017
0.00272338
0.00272643
0.00268255
0.0026846
0.00262904
0.0026103
0.0025854
0.00243277
0.00266707
0.00271598
0.00281275
0.00259852
0.00261885
0.00253354
0.00290541
0.00266183
0.00303473
0.00171529
0.00171852
0.00172129
0.00171921
0.00172068
0.00172211
0.00172274
0.00176395
0.00175232
0.00179225
0.00191178
0.00185615
0.00178038
0.00188345
0.0019221
0.00195562
0.00181421
0.00184516
0.00167383
0.00178933
0.00122763
0.00122894
0.00122991
0.0012242
0.00122754
0.00122321
0.00123175
0.00123351
0.00121829
0.00124031
0.00120101
0.00121477
0.00121739
0.0012985
0.00130929
0.0013208
0.00118516
0.00124455
0.00120075
0.00131839
0.000754876
0.000754599
0.000752881
0.000752529
0.000752768
0.000758316
0.000761768
0.000768162
0.000766413
0.000775648
0.000781544
0.000803296
0.000795114
0.000836659
0.000859363
0.000880069
0.000897031
0.000959922
0.000884127
0.000811199
0.000549674
0.000548938
0.000548431
0.000550815
0.000554709
0.000563883
0.000567222
0.000573516
0.000574998
0.000584097
0.000580591
0.000587125
0.000579923
0.000604735
0.00060859
0.000628767
0.000621691
0.000659849
0.000614823
0.000557662
0.000304271
0.000303714
0.000304051
0.000306307
0.000311251
0.000316588
0.000316482
0.000318612
0.000324965
0.000336557
0.00034149
0.000354078
0.000355112
0.000389756
0.000394619
0.000437293
0.00043334
0.000487254
0.00044378
0.000333105
0.000199704
0.00019967
0.000201793
0.000206077
0.000211451
0.000213328
0.000212588
0.000214586
0.000219478
0.000224677
0.00022854
0.00023773
0.000245255
0.00025752
0.000239352
0.000243426
0.000231737
0.000235779
0.000269598
0.000338306
6.97077e-05
7.14724e-05
7.66079e-05
8.66544e-05
9.38056e-05
9.90773e-05
0.000100948
0.000109599
0.000119512
0.000133386
0.0001446
0.000168948
0.000186174
0.000203489
0.00016888
0.000185708
0.000180579
0.000166173
0.000129541
9.81176e-05
8.70452e-06
1.57899e-05
2.95544e-05
4.40384e-05
5.11574e-05
5.39783e-05
6.2814e-05
6.82545e-05
7.96202e-05
8.93856e-05
0.000100508
0.00010869
0.000114904
0.000115941
0.000135014
0.000151095
0.000158288
0.000172438
0.000161489
0.000185072
3.62113e-05
3.4288e-05
3.71547e-05
4.54355e-05
4.87206e-05
5.06112e-05
5.19945e-05
5.52226e-05
5.95966e-05
6.51352e-05
6.84643e-05
7.56408e-05
8.23654e-05
0.000109083
0.00011487
9.716e-05
9.05611e-05
9.97784e-05
0.000121439
0.000138324
5.80729e-05
5.89876e-05
5.92703e-05
6.13991e-05
6.65019e-05
6.92704e-05
7.35313e-05
8.29959e-05
8.67027e-05
8.77235e-05
8.65747e-05
8.73951e-05
8.96298e-05
8.52532e-05
9.34546e-05
0.000110236
0.000130156
0.000120548
0.000116948
0.000121869
7.09536e-05
7.37578e-05
7.41053e-05
7.1577e-05
7.06698e-05
7.22034e-05
7.10203e-05
7.45161e-05
7.63592e-05
8.08394e-05
8.18656e-05
8.29545e-05
8.45668e-05
8.9326e-05
9.03871e-05
8.58857e-05
9.81053e-05
0.000100231
0.000111794
0.000118683
7.15576e-05
6.85907e-05
6.71039e-05
6.84091e-05
6.91931e-05
6.74937e-05
7.01155e-05
6.90058e-05
7.11149e-05
7.2075e-05
7.62859e-05
7.65706e-05
7.77144e-05
7.4387e-05
7.94995e-05
8.03105e-05
8.22147e-05
8.30014e-05
8.64008e-05
9.39698e-05
6.00496e-05
6.44133e-05
6.17958e-05
6.22297e-05
6.35143e-05
6.47455e-05
6.57976e-05
6.8925e-05
7.04826e-05
7.01984e-05
6.87834e-05
7.04522e-05
7.1648e-05
7.50826e-05
7.09679e-05
7.70281e-05
6.37037e-05
7.63395e-05
6.08071e-05
8.47925e-05
4.5506e-05
5.1032e-05
5.22282e-05
4.77867e-05
5.00549e-05
4.95934e-05
5.0304e-05
5.02598e-05
5.11327e-05
5.20477e-05
5.07866e-05
4.9343e-05
5.19046e-05
5.23046e-05
5.47969e-05
5.31044e-05
5.57456e-05
5.57235e-05
5.905e-05
6.10922e-05
2.88417e-05
2.82027e-05
2.46956e-05
2.56508e-05
2.51881e-05
2.62726e-05
2.74585e-05
2.8041e-05
3.38304e-05
3.83196e-05
3.89491e-05
3.94684e-05
4.19584e-05
4.14664e-05
4.26154e-05
4.33033e-05
4.53248e-05
4.59697e-05
4.82546e-05
4.99892e-05
8.58992e-06
9.86753e-06
1.02239e-05
1.28879e-05
1.36167e-05
1.50497e-05
1.60502e-05
1.717e-05
1.84763e-05
1.7628e-05
1.78111e-05
1.84527e-05
1.98421e-05
2.07117e-05
2.21682e-05
2.2505e-05
2.45448e-05
2.53918e-05
2.71271e-05
2.73601e-05
0.000951648
0.00117108
0.000847352
0.000895807
0.000948913
0.000956619
0.000975773
0.00100295
0.00104554
0.00107255
0.00109292
0.00113595
0.00120515
0.00123215
0.00128981
0.00133363
0.00131914
0.00196343
0.00666686
0.0184139
0.000909653
0.00101719
0.000774678
0.000851426
0.000924998
0.000949159
0.000981917
0.00101874
0.00106427
0.00110025
0.00114065
0.00115767
0.00122129
0.00125224
0.00132614
0.00130145
0.00136545
0.00143786
0.00552839
0.0180793
0.000949065
0.0011161
0.000828935
0.000879593
0.000947679
0.000964383
0.000992657
0.00103157
0.00107113
0.00110152
0.00111888
0.00116453
0.00123451
0.00126211
0.00132154
0.00133322
0.00143777
0.00125225
0.00471735
0.0176788
0.0010008
0.00112609
0.00083516
0.000899116
0.000953476
0.000974133
0.00100866
0.00104463
0.00108385
0.00111275
0.00115564
0.00119464
0.00125305
0.00127587
0.00134535
0.00132348
0.00144146
0.00123799
0.00391665
0.0172529
0.00101701
0.00116548
0.000881715
0.000917081
0.000974794
0.00100487
0.00102744
0.00106595
0.00109877
0.00113484
0.00116463
0.00121543
0.00127074
0.00129917
0.00135285
0.00136158
0.00148593
0.00130266
0.00424702
0.0166654
0.00105557
0.00116302
0.000875785
0.00093245
0.000999628
0.00101339
0.00103396
0.00107183
0.00110694
0.00114413
0.00118393
0.00122866
0.0012733
0.00130275
0.00137423
0.001386
0.00152991
0.00138839
0.0048193
0.0160399
0.00104739
0.00114764
0.000890757
0.000969605
0.00100964
0.001022
0.00104921
0.00109527
0.00112887
0.00116643
0.00119889
0.00125156
0.00129273
0.00133946
0.00139709
0.00142573
0.00155189
0.00142297
0.00461064
0.0154518
0.00109236
0.00116685
0.000928866
0.000980017
0.00101055
0.00102462
0.00105775
0.00110045
0.00112196
0.00116379
0.00120292
0.00124192
0.00127813
0.00133204
0.00138671
0.00143572
0.00155699
0.00144588
0.00394187
0.0142817
0.00102117
0.0010876
0.000884211
0.000938242
0.000979768
0.0010157
0.00106069
0.00109693
0.00113564
0.00118615
0.00120182
0.00124777
0.00128951
0.00135007
0.00139421
0.00145711
0.001518
0.00147904
0.00308697
0.01268
0.00105531
0.00108758
0.0009229
0.000983815
0.00103085
0.00107346
0.00109459
0.00113166
0.00115644
0.00116434
0.00118203
0.00122888
0.00127226
0.00134052
0.00137328
0.00143466
0.00146568
0.00150983
0.0025054
0.0102058
0.000977812
0.00101633
0.000910398
0.000962792
0.00101755
0.00103789
0.00105819
0.00108598
0.00108373
0.00112105
0.00115221
0.00122865
0.00129014
0.00134049
0.00136824
0.00142678
0.00146667
0.00153556
0.00213798
0.00828227
0.00102148
0.00108994
0.000989557
0.00103993
0.0010661
0.00106994
0.00108105
0.00108352
0.00111352
0.00115129
0.00120415
0.00128858
0.00129864
0.00134826
0.00135806
0.00141981
0.00143459
0.00148487
0.00181941
0.00674808
0.00105143
0.00106831
0.000940717
0.000956292
0.000951552
0.000955841
0.000958253
0.00100679
0.00104944
0.00111352
0.0011929
0.00123733
0.00126656
0.00131671
0.00133054
0.00140905
0.00143429
0.00154417
0.00173996
0.00573003
0.000924797
0.000893036
0.000838662
0.000870278
0.000927803
0.000970565
0.00104995
0.00112713
0.00119207
0.00127499
0.0013025
0.00133031
0.00132296
0.0013423
0.0013414
0.00143359
0.00147325
0.00151976
0.0015785
0.00481821
0.000953168
0.00100286
0.000961391
0.00102752
0.00107822
0.00112073
0.00116698
0.00117472
0.00119953
0.00117756
0.0011624
0.00115478
0.00115579
0.00122479
0.00131253
0.00147758
0.00147087
0.00150289
0.00156588
0.00447832
0.000964389
0.000975987
0.000938462
0.00098182
0.000998839
0.00102343
0.00102389
0.00104345
0.00105848
0.00108112
0.00114734
0.00121956
0.00133514
0.00146735
0.00156113
0.00156039
0.00146892
0.0015157
0.00160308
0.0042955
0.000962062
0.000992315
0.000968085
0.0010064
0.00104451
0.00106993
0.00110485
0.00115173
0.00119461
0.00126342
0.00132057
0.00137004
0.00140204
0.00139243
0.00131292
0.00124491
0.00122459
0.00138072
0.0016058
0.00354314
0.000960431
0.00100634
0.000972135
0.00101157
0.00104123
0.00105659
0.00108746
0.00110773
0.0011394
0.00115849
0.00117226
0.00116868
0.0011828
0.00117136
0.0012216
0.00134054
0.00153453
0.00179637
0.00186526
0.00350673
0.00092958
0.000973659
0.000931051
0.000986599
0.00101512
0.00104363
0.00107308
0.00110579
0.0011393
0.00116641
0.00120949
0.00125024
0.00132512
0.00138665
0.00150222
0.00155846
0.00167222
0.00155324
0.00141981
0.00233027
0.0009375
0.000979233
0.000950663
0.00100271
0.00103116
0.00105968
0.00108836
0.00112283
0.00115335
0.00119429
0.00122683
0.00127721
0.00130348
0.00134776
0.00138389
0.00140975
0.00141707
0.00138825
0.00155663
0.00206989
0.00033987
0.00028641
0.000282377
0.00024754
0.000254479
0.000264909
0.000256888
0.000227228
0.00026115
0.000254287
0.000197662
0.000129055
0.000509614
0.00213718
0.00552132
0.00964655
0.0107236
0.00677255
0.00203881
1.72487e-05
0.000361144
0.000311986
0.000334622
0.000302086
0.00026912
0.000244647
0.00025983
0.000262827
0.00027046
0.000280671
0.000268862
0.000182464
0.000131047
0.00082563
0.00322819
0.00752559
0.0111677
0.00913524
0.00409094
0.000734808
0.000396434
0.000333657
0.000313727
0.000335291
0.000337271
0.000297387
0.00029555
0.000264209
0.000294921
0.00029506
0.000298547
0.000257342
0.000129409
9.29128e-05
0.00152282
0.00519214
0.00991137
0.0110036
0.00690742
0.000941104
0.000436879
0.000397645
0.000357084
0.000327604
0.000338166
0.000307461
0.000332686
0.000313757
0.000312712
0.000305043
0.000348961
0.000336793
0.000252068
0.000161236
0.000422262
0.00318261
0.00809866
0.0116402
0.00893543
0.00218684
0.00046135
0.000439979
0.000395265
0.000377317
0.000405638
0.000348285
0.000349557
0.000336684
0.00036329
0.000348431
0.000321967
0.000396059
0.000379797
0.000271267
0.000165319
0.00138672
0.00620707
0.0114201
0.0102354
0.00249043
0.000486506
0.000481863
0.000436799
0.000360627
0.000414713
0.000390141
0.000404313
0.000377391
0.000379247
0.000398445
0.000403197
0.000384941
0.000407803
0.00037565
0.000162874
0.000358527
0.00407693
0.0102811
0.0114268
0.00499478
0.000490703
0.000519864
0.000506904
0.000424454
0.000467061
0.000419148
0.000430175
0.000433487
0.00044872
0.000440053
0.000439551
0.000486695
0.000522861
0.000500881
0.000349463
0.000223471
0.00199958
0.00919167
0.0120829
0.00723272
0.00051906
0.000545732
0.000544345
0.000430852
0.000497884
0.000482503
0.000486167
0.000465443
0.000476381
0.000511243
0.000509808
0.000495619
0.000520467
0.000606445
0.000564562
0.000296632
0.000887435
0.00799126
0.0123363
0.00971252
0.000547011
0.000586989
0.000610781
0.000498566
0.000534814
0.000507225
0.000524453
0.000536356
0.000543988
0.000545793
0.000569316
0.000615936
0.00062739
0.000662582
0.000637108
0.000426558
0.000421398
0.00608808
0.0122602
0.0122518
0.000587118
0.000597855
0.000623114
0.000508258
0.000571322
0.000570142
0.000572007
0.000561667
0.000582047
0.000624899
0.000625872
0.000618512
0.000658446
0.000747149
0.000780415
0.000617206
0.000259117
0.004358
0.0121786
0.0142912
0.000600684
0.000626624
0.000685848
0.00057485
0.000605189
0.000599264
0.000619658
0.000635198
0.000642325
0.000653218
0.000690071
0.000735927