/*--------------------------------*- C++ -*----------------------------------*\
  =========                 |
  \\      /  F ield         | OpenFOAM: The Open Source CFD Toolbox
   \\    /   O peration     | Website:  https://openfoam.org
    \\  /    A nd           | Version:  9
     \\/     M anipulation  |
\*---------------------------------------------------------------------------*/
FoamFile
{
    format      ascii;
    class       surfaceScalarField;
    location    "0.9";
    object      phi;
}
// * * * * * * * * * * * * * * * * * * * * * * * * * * * * * * * * * * * * * //

dimensions      [0 3 -1 0 0 0 0];

internalField   nonuniform List<scalar> 
92080
(
2.2519e-05
-0.441296
0.441274
-0.0196992
-0.892329
0.912051
-0.0561389
-0.979231
1.01567
-0.0937109
-0.965109
1.00268
-0.130495
-0.950597
0.987381
-0.166858
-0.936726
0.973089
-0.202631
-0.923193
0.958967
-0.237978
-0.909762
0.945109
-0.273146
-0.899084
0.934251
-0.308141
-0.888446
0.923441
-0.342458
-0.878621
0.912939
-0.376229
-0.868116
0.901887
-0.410314
-0.859185
0.89327
-0.444145
-0.851025
0.884856
-0.477273
-0.84324
0.876369
-0.510081
-0.835029
0.867837
-0.542526
-0.827808
0.860252
-0.573654
-0.820176
0.851304
-0.603235
-0.811574
0.841156
-0.805912
0.833531
-0.630854
-0.00228596
-0.43901
-0.0248408
-0.869775
-0.063542
-0.94053
-0.1028
-0.92585
-0.141526
-0.911872
-0.179794
-0.898458
-0.217546
-0.885441
-0.255558
-0.87175
-0.293233
-0.861409
-0.330158
-0.851521
-0.366741
-0.842038
-0.403064
-0.831793
-0.438779
-0.82347
-0.474163
-0.815641
-0.509016
-0.808387
-0.542942
-0.801103
-0.575957
-0.794793
-0.607778
-0.788355
-0.637959
-0.781393
-0.77651
-0.667361
-0.00408807
-0.434922
-0.0308155
-0.843047
-0.0722931
-0.899052
-0.113859
-0.884284
-0.154479
-0.871253
-0.194477
-0.85846
-0.233501
-0.846417
-0.271969
-0.833283
-0.31061
-0.822768
-0.349138
-0.812993
-0.386751
-0.804425
-0.423952
-0.794593
-0.461461
-0.785961
-0.49836
-0.778742
-0.534726
-0.772021
-0.571155
-0.764674
-0.607201
-0.758747
-0.641549
-0.754007
-0.675218
-0.747724
-0.742382
-0.709346
-0.0062901
-0.428632
-0.0379297
-0.811408
-0.0805115
-0.856471
-0.123025
-0.841771
-0.165317
-0.82896
-0.207136
-0.816641
-0.248274
-0.805279
-0.289403
-0.792154
-0.329981
-0.782189
-0.369926
-0.773048
-0.409663
-0.764688
-0.448654
-0.755601
-0.487371
-0.747244
-0.526474
-0.739639
-0.56461
-0.733886
-0.601943
-0.727341
-0.64036
-0.720331
-0.678455
-0.715911
-0.714263
-0.711917
-0.706763
-0.749882
-0.00497241
-0.42366
-0.0416237
-0.774756
-0.0860954
-0.811999
-0.130424
-0.797442
-0.17408
-0.785303
-0.217577
-0.773144
-0.259979
-0.762877
-0.301798
-0.750335
-0.344352
-0.739636
-0.386566
-0.730834
-0.42749
-0.723765
-0.467963
-0.715128
-0.508082
-0.707125
-0.548146
-0.699575
-0.588702
-0.693329
-0.627663
-0.68838
-0.666064
-0.681929
-0.706097
-0.675878
-0.745924
-0.67209
-0.668254
-0.784432
-0.00147545
-0.422184
-0.0416402
-0.734592
-0.0895966
-0.764042
-0.137122
-0.749917
-0.183624
-0.738801
-0.22917
-0.727598
-0.273761
-0.718286
-0.317384
-0.706712
-0.360443
-0.696577
-0.403979
-0.687298
-0.447358
-0.680387
-0.489277
-0.673209
-0.530702
-0.665699
-0.571831
-0.658447
-0.613398
-0.651762
-0.655224
-0.646554
-0.695349
-0.641804
-0.735056
-0.636172
-0.775813
-0.631332
-0.627289
-0.816779
0.000138522
-0.422323
-0.0418216
-0.692631
-0.0924462
-0.713418
-0.141674
-0.70069
-0.190087
-0.690388
-0.237965
-0.67972
-0.284328
-0.671923
-0.329473
-0.661567
-0.374624
-0.651425
-0.419233
-0.642689
-0.463509
-0.636111
-0.507573
-0.629144
-0.550535
-0.622737
-0.592584
-0.616398
-0.634509
-0.609837
-0.676874
-0.604188
-0.719308
-0.599371
-0.760545
-0.594935
-0.801262
-0.590615
-0.586495
-0.842055
0.000743617
-0.423066
-0.0439643
-0.647923
-0.0972772
-0.660105
-0.148653
-0.649313
-0.198677
-0.640364
-0.24777
-0.630627
-0.296019
-0.623673
-0.342283
-0.615303
-0.387447
-0.606261
-0.433393
-0.596743
-0.478853
-0.59065
-0.523163
-0.584835
-0.567786
-0.578115
-0.611426
-0.572758
-0.654234
-0.567029
-0.697141
-0.561282
-0.740208
-0.556303
-0.783694
-0.551449
-0.826604
-0.547705
-0.543947
-0.869151
-0.00271103
-0.420355
-0.0509135
-0.599721
-0.105713
-0.605306
-0.158048
-0.596978
-0.209193
-0.589219
-0.259722
-0.580098
-0.309124
-0.574271
-0.357361
-0.567066
-0.404064
-0.559558
-0.45002
-0.550787
-0.497071
-0.543598
-0.54297
-0.538937
-0.587417
-0.533667
-0.631987
-0.528188
-0.675215
-0.5238
-0.717728
-0.51877
-0.759979
-0.514052
-0.802008
-0.50942
-0.844701
-0.505012
-0.50186
-0.886788
-0.0099335
-0.410422
-0.058992
-0.550663
-0.112915
-0.551383
-0.165498
-0.544396
-0.21673
-0.537987
-0.267397
-0.52943
-0.317818
-0.523851
-0.366348
-0.518536
-0.413418
-0.512489
-0.459772
-0.504433
-0.506445
-0.496925
-0.554345
-0.491037
-0.601557
-0.486455
-0.647805
-0.481941
-0.693983
-0.477622
-0.738704
-0.474048
-0.782871
-0.469886
-0.826247
-0.466043
-0.869374
-0.461885
-0.457776
-0.913458
-0.0193847
-0.391037
-0.0712887
-0.498759
-0.126539
-0.496132
-0.179945
-0.49099
-0.231844
-0.486088
-0.282979
-0.478296
-0.333844
-0.472986
-0.384429
-0.467951
-0.432459
-0.464459
-0.478123
-0.458769
-0.523462
-0.451586
-0.568722
-0.445777
-0.615078
-0.440099
-0.661366
-0.435653
-0.707305
-0.431683
-0.753176
-0.428178
-0.797665
-0.425398
-0.841631
-0.422077
-0.884079
-0.419437
-0.415512
-0.926344
-0.026603
-0.364434
-0.0776107
-0.447751
-0.130553
-0.44319
-0.184173
-0.43737
-0.23637
-0.43389
-0.287978
-0.426689
-0.339718
-0.421245
-0.39122
-0.416449
-0.443038
-0.412641
-0.492074
-0.409733
-0.539187
-0.404474
-0.585835
-0.399129
-0.631717
-0.394217
-0.678618
-0.388752
-0.725815
-0.384486
-0.773494
-0.380498
-0.821388
-0.377503
-0.868642
-0.374823
-0.915278
-0.372801
-0.370483
-0.960307
-0.0337811
-0.330653
-0.0880609
-0.393471
-0.143181
-0.38807
-0.196527
-0.384024
-0.249178
-0.381239
-0.300115
-0.375751
-0.351006
-0.370355
-0.401668
-0.365786
-0.452026
-0.362283
-0.5022
-0.359558
-0.549698
-0.356977
-0.595676
-0.353151
-0.64047
-0.349422
-0.683889
-0.345333
-0.727818
-0.340557
-0.772032
-0.336285
-0.817286
-0.33225
-0.863525
-0.328584
-0.910512
-0.325814
-0.32324
-0.957755
-0.0392699
-0.291383
-0.0932704
-0.33947
-0.148039
-0.333302
-0.203899
-0.328164
-0.257449
-0.327689
-0.309505
-0.323695
-0.361244
-0.318616
-0.413632
-0.313397
-0.466841
-0.309074
-0.52017
-0.30623
-0.57352
-0.303627
-0.624659
-0.302011
-0.674341
-0.29974
-0.721896
-0.297778
-0.766953
-0.2955
-0.811027
-0.29221
-0.853705
-0.289572
-0.896278
-0.286012
-0.938763
-0.283329
-0.280262
-0.981741
-0.0417579
-0.249625
-0.0968541
-0.284374
-0.150545
-0.279611
-0.206066
-0.272643
-0.262116
-0.271639
-0.313801
-0.272011
-0.362484
-0.269933
-0.409591
-0.26629
-0.457293
-0.261373
-0.505931
-0.257592
-0.555743
-0.253814
-0.607185
-0.250569
-0.65836
-0.248566
-0.710202
-0.245936
-0.760975
-0.244727
-0.810709
-0.242475
-0.859479
-0.240802
-0.906851
-0.23864
-0.95352
-0.236659
-0.234483
-0.9993
-0.0437453
-0.20588
-0.101773
-0.226346
-0.156697
-0.224687
-0.211958
-0.217382
-0.270923
-0.212674
-0.331149
-0.211785
-0.389035
-0.212046
-0.443174
-0.212152
-0.493795
-0.210752
-0.542638
-0.208748
-0.589621
-0.206831
-0.636387
-0.203804
-0.683346
-0.201607
-0.730074
-0.199208
-0.777632
-0.197168
-0.824648
-0.19546
-0.871875
-0.193575
-0.9186
-0.191915
-0.965079
-0.19018
-0.188458
-1.0111
-0.0488424
-0.157037
-0.106931
-0.168257
-0.15747
-0.174149
-0.204576
-0.170276
-0.252207
-0.165043
-0.30352
-0.160472
-0.35871
-0.156857
-0.414762
-0.1561
-0.470816
-0.154697
-0.525688
-0.153877
-0.579661
-0.152858
-0.631492
-0.151973
-0.682724
-0.150374
-0.732668
-0.149265
-0.782108
-0.147728
-0.831014
-0.146555
-0.879323
-0.145266
-0.927215
-0.144022
-0.974649
-0.142747
-0.141349
-1.02176
-0.050105
-0.106932
-0.117487
-0.100875
-0.183173
-0.108462
-0.241029
-0.11242
-0.293296
-0.112776
-0.342124
-0.111643
-0.389718
-0.109262
-0.438587
-0.107231
-0.487603
-0.105681
-0.537602
-0.103877
-0.587665
-0.102796
-0.638057
-0.10158
-0.687669
-0.100763
-0.737476
-0.0994574
-0.786491
-0.0987125
-0.835657
-0.0973892
-0.88421
-0.0967129
-0.932739
-0.0954924
-0.980692
-0.0947943
-0.0936438
-1.0284
-0.0496955
-0.0572369
-0.0969032
-0.0536678
-0.153758
-0.0516077
-0.211981
-0.0541965
-0.270889
-0.0538682
-0.327692
-0.0548405
-0.38299
-0.0539647
-0.436385
-0.053836
-0.488667
-0.0533997
-0.539833
-0.0527114
-0.590555
-0.0520731
-0.64065
-0.0514858
-0.690535
-0.050878
-0.73955
-0.0504425
-0.788404
-0.0498583
-0.836343
-0.0494504
-0.884155
-0.0489006
-0.931131
-0.0485163
-0.977934
-0.047991
-0.0475582
-1.02402
-0.0763522
0.0191153
-0.125387
-0.0046329
-0.176094
-0.000900976
-0.225063
-0.00522773
-0.277712
-0.00121837
-0.329682
-0.00287123
-0.382876
-0.000770732
-0.435053
-0.00165828
-0.487967
-0.000486458
-0.539586
-0.00109149
-0.591276
-0.000383557
-0.641916
-0.000846247
-0.692425
-0.000368226
-0.742127
-0.000741229
-0.791584
-0.000400836
-0.840322
-0.000712522
-0.888757
-0.000465697
-0.936537
-0.000735983
-0.983957
-0.000571558
-1.03063
-0.000885505
0.00305535
0.0594418
-0.0624971
0.0391629
0.00620044
-0.0423079
0.14168
-0.154057
0.05154
0.358439
-0.504625
0.287866
0.555519
-0.843834
0.646754
0.67418
-1.03886
0.920196
0.730382
-1.11877
1.06257
0.756326
-1.14277
1.11682
0.769939
-1.14742
1.13381
0.778927
-1.14627
1.13728
0.785894
-1.14326
1.13629
0.792725
-1.13972
1.13289
0.799488
-1.13767
1.1309
0.805468
-1.13459
1.12861
0.810828
-1.13336
1.128
0.816413
-1.13071
1.12513
0.821636
-1.13008
1.12486
0.826374
-1.12619
1.12145
0.830249
-1.1251
1.12123
-1.12127
0.833143
1.11838
0.012729
0.0467128
0.0702343
-0.0513049
0.220884
-0.304707
0.423376
-0.707116
0.56156
-0.982019
0.631956
-1.10925
0.661174
-1.14799
0.674596
-1.15619
0.68296
-1.15579
0.689382
-1.15269
0.695107
-1.14898
0.700859
-1.14547
0.70599
-1.1428
0.711292
-1.13989
0.716387
-1.13845
0.720939
-1.13527
0.724148
-1.13329
0.726684
-1.12873
0.729013
-1.12743
-1.12274
0.730479
0.0259644
0.0207484
0.100644
-0.125984
0.280426
-0.484489
0.442202
-0.868892
0.534702
-1.07452
0.571674
-1.14622
0.587483
-1.1638
0.596085
-1.16479
0.60274
-1.16244
0.60722
-1.15717
0.611729
-1.15349
0.615905
-1.14965
0.619919
-1.14681
0.623486
-1.14346
0.626167
-1.14114
0.628235
-1.13733
0.629771
-1.13483
0.631559
-1.13052
0.632908
-1.12878
-1.12241
0.632573
0.0395552
-0.0188067
0.129513
-0.215942
0.299202
-0.654178
0.418188
-0.987878
0.474113
-1.13044
0.497213
-1.16932
0.507606
-1.17419
0.514652
-1.17184
0.518262
-1.16605
0.52196
-1.16087
0.525705
-1.15724
0.529
-1.15294
0.531531
-1.14934
0.533655
-1.14558
0.535362
-1.14284
0.536706
-1.13868
0.537321
-1.13544
0.537555
-1.13075
0.536854
-1.12808
-1.12038
0.534832
0.0392946
-0.0581014
0.15597
-0.332618
0.299523
-0.797731
0.383973
-1.07233
0.41822
-1.16469
0.430703
-1.18181
0.437072
-1.18056
0.440029
-1.17479
0.442651
-1.16867
0.445566
-1.16379
0.447478
-1.15915
0.448669
-1.15413
0.449585
-1.15026
0.450166
-1.14616
0.449971
-1.14265
0.449056
-1.13776
0.447639
-1.13403
0.446259
-1.12937
0.443965
-1.12579
-1.11707
0.440656
0.035856
-0.0939573
0.159335
-0.456097
0.269511
-0.907906
0.326704
-1.12952
0.346921
-1.18491
0.355148
-1.19003
0.360017
-1.18543
0.362804
-1.17758
0.365509
-1.17138
0.366984
-1.16526
0.367798
-1.15996
0.368176
-1.15451
0.367864
-1.14995
0.366832
-1.14513
0.365175
-1.14099
0.3632
-1.13579
0.360798
-1.13162
0.358009
-1.12658
0.353945
-1.12172
-1.11234
0.349209
0.0391263
-0.133084
0.149779
-0.56675
0.237779
-0.995906
0.276804
-1.16855
0.289548
-1.19765
0.295687
-1.19617
0.297131
-1.18688
0.297947
-1.1784
0.297933
-1.17136
0.297411
-1.16474
0.296037
-1.15859
0.293886
-1.15236
0.291224
-1.14729
0.28816
-1.14206
0.284528
-1.13736
0.28034
-1.1316
0.275628
-1.12691
0.27065
-1.1216
0.264622
-1.1157
-1.10606
0.258347
0.0432466
-0.17633
0.137155
-0.660658
0.201846
-1.0606
0.224748
-1.19145
0.231183
-1.20409
0.232401
-1.19739
0.2322
-1.18668
0.231676
-1.17787
0.230419
-1.17011
0.22811
-1.16243
0.225028
-1.15551
0.221472
-1.14881
0.21735
-1.14316
0.21249
-1.1372
0.206969
-1.13184
0.201092
-1.12572
0.194815
-1.12063
0.188084
-1.11487
0.180309
-1.10792
-1.09783
0.17208
0.0481938
-0.224524
0.122039
-0.734503
0.169193
-1.10775
0.181778
-1.20403
0.183885
-1.20619
0.182257
-1.19576
0.179701
-1.18412
0.176113
-1.17428
0.171679
-1.16567
0.166599
-1.15735
0.160844
-1.14975
0.15446
-1.14242
0.147556
-1.13626
0.140225
-1.12987
0.132472
-1.12409
0.124331
-1.11758
0.115725
-1.11203
0.106751
-1.1059
0.0970898
-1.09826
-1.0876
0.0868567
0.043844
-0.268368
0.103587
-0.794246
0.135768
-1.13993
0.139569
-1.20784
0.136971
-1.2036
0.131676
-1.19047
0.12612
-1.17856
0.120035
-1.1682
0.113416
-1.15905
0.106064
-1.15
0.0980856
-1.14177
0.0896696
-1.13401
0.0808584
-1.12745
0.0714894
-1.1205
0.0616297
-1.11423
0.0514889
-1.10744
0.0410229
-1.10156
0.0302845
-1.09516
0.0190252
-1.087
-1.07585
0.00727879
0.0373302
-0.305698
0.0877485
-0.844664
0.106574
-1.15876
0.104546
-1.20581
0.0977128
-1.19676
0.0901124
-1.18287
0.0817169
-1.17017
0.0726159
-1.1591
0.0628763
-1.14931
0.052538
-1.13966
0.041619
-1.13085
0.0302095
-1.1226
0.0183651
-1.1156
0.00612415
-1.10826
-0.00647942
-1.10162
-0.0193289
-1.09459
-0.0324555
-1.08844
-0.045792
-1.08182
-0.0595172
-1.07328
-1.0615
-0.0738736
0.0295987
-0.335297
0.0661042
-0.88117
0.0763986
-1.16905
0.0697282
-1.19914
0.0597177
-1.18675
0.0490403
-1.17219
0.0375091
-1.15864
0.0254177
-1.14701
0.0128906
-1.13679
-0.000135907
-1.12664
-0.0135851
-1.1174
-0.0274536
-1.10873
-0.0416145
-1.10144
-0.0561823
-1.0937
-0.0711458
-1.08666
-0.0864466
-1.07929
-0.102072
-1.07281
-0.117742
-1.06615
-0.133471
-1.05755
-1.04549
-0.149476
0.0285652
-0.363862
0.0576276
-0.910232
0.0574845
-1.16891
0.0452274
-1.18688
0.0306459
-1.17217
0.0161148
-1.15766
0.00112206
-1.14365
-0.0142402
-1.13164
-0.0299174
-1.12111
-0.0460418
-1.11051
-0.0626465
-1.1008
-0.0795758
-1.0918
-0.0967674
-1.08425
-0.11422
-1.07624
-0.131962
-1.06892
-0.149914
-1.06134
-0.168077
-1.05465
-0.186282
-1.04795
-0.204294
-1.03953
-1.02738
-0.222411
0.0207953
-0.384657
0.0386328
-0.92807
0.0318786
-1.16215
0.0159462
-1.17095
-0.00099919
-1.15522
-0.0182322
-1.14043
-0.0359539
-1.12592
-0.0541972
-1.1134
-0.0727348
-1.10257
-0.0915179
-1.09173
-0.110602
-1.08171
-0.130166
-1.07223
-0.14998
-1.06444
-0.170015
-1.05621
-0.190262
-1.04867
-0.210828
-1.04077
-0.231763
-1.03371
-0.252582
-1.02713
-0.272656
-1.01946
-1.00753
-0.292501
0.0182156
-0.402873
0.0301819
-0.940036
0.0170637
-1.14904
-0.00269883
-1.15119
-0.0234307
-1.13449
-0.0442921
-1.11956
-0.0654798
-1.10474
-0.0869665
-1.09191
-0.108572
-1.08097
-0.130491
-1.06981
-0.152712
-1.05949
-0.175138
-1.04981
-0.197801
-1.04177
-0.220673
-1.03334
-0.24372
-1.02562
-0.266839
-1.01765
-0.290195
-1.01036
-0.313635
-1.00369
-0.336253
-0.996843
-0.985513
-0.358269
0.0135149
-0.416388
0.0184221
-0.944943
-0.000104147
-1.13051
-0.0242019
-1.12709
-0.0480305
-1.11066
-0.0719447
-1.09565
-0.0958689
-1.08081
-0.120154
-1.06763
-0.144604
-1.05652
-0.169027
-1.04539
-0.193554
-1.03497
-0.218479
-1.02488
-0.243593
-1.01666
-0.268878
-1.00805
-0.294299
-1.0002
-0.319983
-0.991967
-0.346172
-0.984168
-0.372479
-0.977382
-0.397699
-0.971624
-0.961554
-0.421658
0.0103927
-0.426781
0.00932357
-0.943874
-0.0135278
-1.10766
-0.0400831
-1.10053
-0.0669667
-1.08378
-0.093686
-1.06893
-0.120562
-1.05394
-0.147582
-1.04061
-0.174616
-1.02948
-0.201925
-1.01808
-0.229412
-1.00748
-0.256973
-0.997323
-0.284652
-0.988981
-0.312465
-0.980238
-0.340414
-0.972255
-0.368094
-0.964286
-0.396002
-0.956261
-0.424809
-0.948575
-0.453242
-0.943191
-0.935041
-0.479755
0.00704148
-0.433822
0.00137627
-0.938209
-0.0262038
-1.08008
-0.056174
-1.07056
-0.085768
-1.05419
-0.11537
-1.03933
-0.144644
-1.02466
-0.17423
-1.01102
-0.203837
-0.999877
-0.233215
-0.988698
-0.262602
-0.978092
-0.292393
-0.967532
-0.322324
-0.95905
-0.352332
-0.95023
-0.382657
-0.94193
-0.413235
-0.933708
-0.443653
-0.925842
-0.474532
-0.917696
-0.506066
-0.911656
-0.905062
-0.536046
0.00489261
-0.438715
-0.0061992
-0.927117
-0.0369022
-1.04938
-0.0695978
-1.03787
-0.101845
-1.02194
-0.133859
-1.00731
-0.165798
-0.992722
-0.197611
-0.979209
-0.229309
-0.96818
-0.26115
-0.956857
-0.293005
-0.946237
-0.324791
-0.935746
-0.356593
-0.927248
-0.388342
-0.918481
-0.42025
-0.910022
-0.45228
-0.901678
-0.484579
-0.893543
-0.517592
-0.884684
-0.552152
-0.877095
-0.8717
-0.585514
0.00255885
-0.0125073
-0.0462121
-0.0813978
-0.115956
-0.150181
-0.183937
-0.218036
-0.251965
-0.285381
-0.318679
-0.352538
-0.386515
-0.42014
-0.453793
-0.487634
-0.520925
-0.554305
-0.590245
-0.628414
0.74272
-9.84448
9.93491
0.669435
-9.58809
9.66138
0.603005
-9.59485
9.66128
0.54202
-9.46187
9.52285
0.487635
-9.54357
9.59796
0.439863
-9.43748
9.48525
0.396779
-9.49372
9.53681
0.353419
-9.42654
9.4699
0.315533
-9.46853
9.50642
0.280887
-9.44757
9.48222
0.250103
-9.42177
9.45255
0.220708
-9.469
9.49839
0.194807
-9.46357
9.48948
0.171379
-9.48005
9.50348
0.151349
-9.49692
9.51695
0.132776
-9.52607
9.54464
0.115134
-9.42437
9.44201
0.0890399
-8.90903
8.93513
0.0447351
-7.28564
7.32995
-3.86342
3.90815
0.644103
-9.75811
0.575051
-9.51904
0.511419
-9.53122
0.455631
-9.40608
0.407076
-9.49502
0.361163
-9.39157
0.320567
-9.45312
0.282571
-9.38854
0.250867
-9.43683
0.222507
-9.41921
0.198001
-9.39726
0.175108
-9.44611
0.15563
-9.4441
0.138283
-9.4627
0.12414
-9.48278
0.111931
-9.51386
0.100776
-9.41321
0.0804647
-8.88872
0.0421038
-7.24728
-3.82131
0.5512
-9.67673
0.482827
-9.45067
0.420971
-9.46937
0.371034
-9.35614
0.328077
-9.45206
0.290491
-9.35398
0.25742
-9.42005
0.225291
-9.35641
0.198558
-9.41009
0.175071
-9.39572
0.154972
-9.37716
0.136251
-9.42739
0.121377
-9.42922
0.10889
-9.45022
0.0999088
-9.4738
0.0924994
-9.50645
0.0866482
-9.40736
0.0729861
-8.87506
0.0403533
-7.21465
-3.78096
0.455756
-9.59766
0.389734
-9.38464
0.33129
-9.41092
0.286786
-9.31164
0.248714
-9.41399
0.21254
-9.31781
0.182318
-9.38983
0.15553
-9.32963
0.134663
-9.38923
0.117238
-9.3783
0.103288
-9.36321
0.0909599
-9.41506
0.0824213
-9.42068
0.0759641
-9.44376
0.0728064
-9.47064
0.0716873
-9.50533
0.0723579
-9.40803
0.0646256
-8.86733
0.0379373
-7.18796
-3.74302
0.364662
-9.52166
0.29935
-9.31933
0.242856
-9.35443
0.204396
-9.27318
0.171894
-9.38149
0.143339
-9.28925
0.120224
-9.36672
0.0991283
-9.30853
0.083018
-9.37312
0.0703232
-9.3656
0.0607695
-9.35366
0.052596
-9.40688
0.0485597
-9.41665
0.0468685
-9.44207
0.0487495
-9.47252
0.0523752
-9.50895
0.0583519
-9.41401
0.0572975
-8.86627
0.0363473
-7.16701
-3.70667
0.272581
-9.44504
0.209372
-9.25612
0.156586
-9.30164
0.122764
-9.23935
0.0940019
-9.35273
0.0668011
-9.26205
0.046719
-9.34664
0.0308042
-9.29262
0.0202455
-9.36256
0.0134058
-9.35876
0.00985024
-9.3501
0.00787382
-9.40491
0.0100694
-9.41884
0.0142766
-9.44628
0.0218806
-9.48013
0.0317258
-9.5188
0.0442074
-9.42649
0.0491217
-8.87119
0.0341071
-7.152
-3.67257
0.183401
-9.37009
0.121069
-9.19379
0.0705517
-9.25113
0.0425388
-9.21134
0.0193008
-9.32949
-0.000323059
-9.24243
-0.0139578
-9.333
-0.0245039
-9.28207
-0.0305084
-9.35655
-0.0327345
-9.35654
-0.0319472
-9.35089
-0.0297554
-9.4071
-0.0232224
-9.42538
-0.0143604
-9.45514
-0.00186369
-9.49262
0.0125766
-9.53324
0.0303442
-9.44426
0.0419219
-8.88277
0.0326532
-7.14273
-3.63991
0.0949957
-9.29301
0.035711
-9.13451
-0.0114241
-9.20399
-0.0363803
-9.18639
-0.0568994
-9.30897
-0.0753217
-9.22401
-0.0854969
-9.32283
-0.0910236
-9.27654
-0.091781
-9.3558
-0.0883814
-9.35994
-0.0818024
-9.35747
-0.0736033
-9.4153
-0.0610598
-9.43792
-0.0464076
-9.46979
-0.0284111
-9.51062
-0.00780993
-9.55384
0.0163662
-9.46844
0.0338728
-8.90027
0.030533
-7.13939
-3.60938
0.0056781
-9.21183
-0.0499692
-9.07886
-0.0933121
-9.16065
-0.11408
-9.16562
-0.128727
-9.29432
-0.140211
-9.21252
-0.144465
-9.31857
-0.144997
-9.27601
-0.141403
-9.35939
-0.133524
-9.36782
-0.122642
-9.36835
-0.110333
-9.42761
-0.0935631
-9.45469
-0.0744443
-9.48891
-0.0518302
-9.53323
-0.026735
-9.57894
0.00265475
-9.49783
0.0267377
-8.92435
0.0291371
-7.14179
-3.58024
-0.0770407
-9.12751
-0.131628
-9.02427
-0.170791
-9.12148
-0.190802
-9.14561
-0.20371
-9.28141
-0.213219
-9.20301
-0.21382
-9.31797
-0.209403
-9.28043
-0.200828
-9.36797
-0.187591
-9.38105
-0.171098
-9.38484
-0.153067
-9.44564
-0.130513
-9.47724
-0.105769
-9.51365
-0.0777986
-9.56121
-0.0467637
-9.60997
-0.01121
-9.53338
0.0186902
-8.95425
0.0270107
-7.15011
-3.55323
-0.159529
-9.04185
-0.211932
-8.97187
-0.248127
-9.08529
-0.264773
-9.12896
-0.271931
-9.27426
-0.27521
-9.19973
-0.270862
-9.32232
-0.261819
-9.28947
-0.249059
-9.38073
-0.23148
-9.39863
-0.210788
-9.40554
-0.188691
-9.46774
-0.162071
-9.50386
-0.133063
-9.54266
-0.100725
-9.59354
-0.0653849
-9.64531
-0.0248009
-9.57396
0.011471
-8.99053
0.0255588
-7.1642
-3.52767
-0.239566
-8.95176
-0.289746
-8.92169
-0.322874
-9.05216
-0.339761
-9.11207
-0.345648
-9.26837
-0.346208
-9.19917
-0.33776
-9.33077
-0.323814
-9.30342
-0.306319
-9.39822
-0.283646
-9.42131
-0.257534
-9.43165
-0.230039
-9.49523
-0.197933
-9.53597
-0.163476
-9.57712
-0.126031
-9.63099
-0.084962
-9.68638
-0.0384902
-9.62044
0.00333653
-9.03235
0.0232617
-7.18412
-3.50441
-0.316728
-8.85745
-0.364458
-8.87396
-0.395043
-9.02157
-0.409463
-9.09765
-0.410135
-9.2677
-0.405273
-9.20404
-0.39266
-9.34338
-0.374433
-9.32164
-0.352883
-9.41977
-0.326044
-9.44815
-0.295868
-9.46182
-0.264366
-9.52673
-0.22839
-9.57195
-0.189894
-9.61561
-0.148368
-9.67251
-0.103242
-9.73151
-0.0519405
-9.67174
-0.00402014
-9.08027
0.0215864
-7.20973
-3.48283
-0.392178
-8.75777
-0.43898
-8.82716
-0.467691
-8.99286
-0.482282
-9.08306
-0.481642
-9.26834
-0.473545
-9.21213
-0.456693
-9.36023
-0.433711
-9.34463
-0.407641
-9.44584
-0.375966
-9.47982
-0.340613
-9.49718
-0.304057
-9.56329
-0.262936
-9.61307
-0.219239
-9.65931
-0.172864
-9.71889
-0.122366
-9.78201
-0.065515
-9.72859
-0.0122115
-9.13358
0.0189899
-7.24093
-3.46384
-0.463682
-8.65236
-0.509318
-8.78152
-0.535381
-8.9668
-0.547629
-9.07081
-0.542707
-9.27326
-0.529884
-9.22496
-0.509327
-9.38079
-0.482306
-9.37165
-0.452298
-9.47585
-0.41666
-9.51546
-0.377384
-9.53645
-0.336897
-9.60378
-0.292108
-9.65785
-0.244664
-9.70676
-0.194495
-9.76906
-0.140248
-9.83625
-0.0788618
-9.78997
-0.0197852
-9.19265
0.0169137
-7.27763
-3.44692
-0.533446
-8.54057
-0.580501
-8.73447
-0.605718
-8.94158
-0.617191
-9.05934
-0.6107
-9.27975
-0.59467
-9.24099
-0.570056
-9.4054
-0.538488
-9.40321
-0.504193
-9.51014
-0.464013
-9.55564
-0.419866
-9.5806
-0.37467
-9.64897
-0.325087
-9.70744
-0.272771
-9.75907
-0.218045
-9.82378
-0.158807
-9.89549
-0.0923531
-9.85643
-0.0280933
-9.25691
0.0142542
-7.31997
-3.43267
-0.60011
-8.42022
-0.646983
-8.68759
-0.669364
-8.9192
-0.67825
-9.05045
-0.668117
-9.28988
-0.64788
-9.26122
-0.620049
-9.43323
-0.58459
-9.43867
-0.546565
-9.54817
-0.502672
-9.59953
-0.454783
-9.62849
-0.405762
-9.69799
-0.352749
-9.76045
-0.297006
-9.81481
-0.238779
-9.88201
-0.176104
-9.95817
-0.105553
-9.92698
-0.0359375
-9.32653
0.0121139
-7.36803
-3.42055
-0.667824
-8.28844
-0.716744
-8.63867
-0.737548
-8.8984
-0.744683
-9.04332
-0.732593
-9.30197
-0.709056
-9.28476
-0.677388
-9.4649
-0.637653
-9.47841
-0.59547
-9.59035
-0.547311
-9.64769
-0.494868
-9.68093
-0.441462
-9.7514
-0.383981
-9.81793
-0.323723
-9.87507
-0.261252
-9.94448
-0.193924
-10.0255
-0.118571
-10.0023
-0.0440001
-9.4011
0.00966496
-7.42169
-3.41089
-0.720818
-8.15313
-0.778497
-8.58099
-0.798404
-8.87849
-0.803175
-9.03855
-0.787546
-9.3176
-0.760137
-9.31217
-0.725466
-9.49957
-0.681969
-9.52191
-0.63596
-9.63636
-0.584241
-9.69941
-0.528151
-9.73702
-0.470941
-9.80861
-0.410176
-9.8787
-0.346766
-9.93848
-0.281073
-10.0102
-0.210622
-10.0959
-0.131647
-10.0813
-0.0519931
-9.48075
0.00780414
-7.48149
-3.40308
-0.771837
-8.00971
-0.837982
-8.51485
-0.856549
-8.85992
-0.85928
-9.03582
-0.843214
-9.33367
-0.812891
-9.34249
-0.776205
-9.53626
-0.729104
-9.56901
-0.680013
-9.68545
-0.624509
-9.75491
-0.564835
-9.7967
-0.503416
-9.87003
-0.438986
-9.94313
-0.37132
-10.0061
-0.302269
-10.0792
-0.227194
-10.171
-0.145126
-10.1634
-0.0596847
-9.5662
0.00658356
-7.54776
-3.3965
7.87505
-7.58347
-8.30129
7.20204
-7.84184
6.5835
-8.24139
6.00141
-8.45373
5.40319
-8.73544
4.91726
-8.85656
4.4395
-9.0585
4.03112
-9.16062
3.64191
-9.29624
3.26781
-9.38082
2.92677
-9.45565
2.60814
-9.5514
2.30429
-9.63928
2.01673
-9.71859
1.73761
-9.8001
1.48494
-9.91835
1.20324
-9.88168
0.834208
-9.19716
0.323297
-7.03685
-3.0732
4.64523
-7.46603
-4.76267
4.48308
-7.67969
4.25176
-8.01007
4.02659
-8.22856
3.75144
-8.46029
3.50039
-8.60552
3.21802
-8.77613
2.9687
-8.9113
2.70407
-9.03161
2.44632
-9.12307
2.20595
-9.21528
1.98712
-9.33257
1.78121
-9.43336
1.59278
-9.53016
1.40089
-9.60821
1.21654
-9.734
0.992223
-9.65737
0.68185
-8.88679
0.197678
-6.55268
-2.87553
3.31118
-7.53645
-3.24076
3.37025
-7.73876
3.32906
-7.96888
3.2498
-8.14931
3.10835
-8.31883
2.96676
-8.46393
2.79418
-8.60355
2.62174
-8.73886
2.4387
-8.84857
2.24967
-8.93404
2.06531
-9.03092
1.8891
-9.15635
1.7037
-9.24797
1.51948
-9.34594
1.33521
-9.42394
1.1342
-9.53298
0.915367
-9.43854
0.629526
-8.60094
0.246561
-6.16971
-2.62896
2.16187
-7.69226
-2.00606
2.25962
-7.8365
2.26328
-7.97254
2.22583
-8.11186
2.17047
-8.26347
2.10452
-8.39797
2.00971
-8.50874
1.89749
-8.62664
1.77068
-8.72176
1.63839
-8.80176
1.50841
-8.90095
1.37976
-9.0277
1.24141
-9.10962
1.11379
-9.21832
0.986978
-9.29713
0.843919
-9.38992
0.706582
-9.3012
0.498889
-8.39325
0.19459
-5.86541
-2.43437
1.51859
-7.82071
-1.39015
1.60212
-7.92004
1.65778
-8.02819
1.68361
-8.13769
1.67062
-8.25048
1.63646
-8.36381
1.58748
-8.45976
1.52121
-8.56036
1.4417
-8.64225
1.35585
-8.71591
1.26564
-8.81073
1.15736
-8.91942
1.04111
-8.99337
0.919241
-9.09645
0.793599
-9.17148
0.650589
-9.24691
0.514143
-9.16476
0.363688
-8.2428
0.182715
-5.68444
-2.25166
1.0072
-7.92871
-0.899191
1.09282
-8.00566
1.14088
-8.07626
1.1601
-8.1569
1.15036
-8.24074
1.11638
-8.32984
1.07696
-8.42034
1.0188
-8.5022
0.958905
-8.58236
0.901439
-8.65845
0.836493
-8.74578
0.746412
-8.82934
0.659958
-8.90692
0.564809
-9.0013
0.47056
-9.07724
0.37516
-9.15151
0.281025
-9.07062
0.228888
-8.19066
0.137221
-5.59277
-2.11444
0.679364
-8.00746
-0.600618
0.732309
-8.0586
0.769403
-8.11335
0.806024
-8.19352
0.821818
-8.25654
0.811775
-8.31979
0.783723
-8.39229
0.740622
-8.4591
0.698357
-8.5401
0.645818
-8.60591
0.577472
-8.67744
0.487989
-8.73985
0.401661
-8.82059
0.29534
-8.89498
0.18825
-8.97015
0.0949811
-9.05825
0.0102552
-8.9859
0.026959
-8.20736
0.0576564
-5.62347
-2.05678
0.463153
-8.06137
-0.409239
0.507932
-8.10338
0.541351
-8.14677
0.546859
-8.19903
0.537065
-8.24674
0.515058
-8.29779
0.478404
-8.35563
0.438337
-8.41903
0.387484
-8.48924
0.325981
-8.5444
0.247975
-8.59943
0.171685
-8.66356
0.086893
-8.7358
-0.00818715
-8.7999
-0.0982727
-8.88006
-0.191984
-8.96453
-0.254864
-8.92302
-0.19581
-8.26642
-0.000919098
-5.81836
-2.0577
0.275865
-8.09355
-0.243689
0.296892
-8.12441
0.309358
-8.15924
0.309272
-8.19895
0.300919
-8.23839
0.281007
-8.27787
0.250307
-8.32493
0.205465
-8.37419
0.142411
-8.42619
0.080974
-8.48297
0.0182335
-8.53669
-0.0545779
-8.59075
-0.137862
-8.65252
-0.215436
-8.72233
-0.297416
-8.79808
-0.403869
-8.85808
-0.468099
-8.85879
-0.394534
-8.33998
-0.0716008
-6.14129
-2.1293
0.17579
-8.11173
-0.157608
0.18746
-8.13608
0.192207
-8.16399
0.188115
-8.19485
0.174966
-8.22524
0.150237
-8.25314
0.11536
-8.29006
0.0622213
-8.32105
0.00293818
-8.36691
-0.058673
-8.42136
-0.123966
-8.4714
-0.202999
-8.51172
-0.283813
-8.5717
-0.372269
-8.63387
-0.472973
-8.69738
-0.581949
-8.7491
-0.667872
-8.77286
-0.598864
-8.40899
-0.206593
-6.53356
-2.33589
0.0690314
-8.11482
-0.0659472
0.0655745
-8.13262
0.0559819
-8.15439
0.0354459
-8.17432
0.0104685
-8.20027
-0.017002
-8.22567
-0.0508287
-8.25623
-0.0888508
-8.28303
-0.138021
-8.31774
-0.204286
-8.35509
-0.278781
-8.3969
-0.358482
-8.43202
-0.450595
-8.47959
-0.570055
-8.51441
-0.703663
-8.56377
-0.833955
-8.61881
-0.944659
-8.66216
-0.917324
-8.43633
-0.464491
-6.9864
-2.80038
0.0109485
-8.11053
-0.0152339
0.00165763
-8.12333
-0.0113873
-8.14135
-0.0302433
-8.15546
-0.0568624
-8.17365
-0.0920207
-8.19052
-0.131546
-8.2167
-0.174117
-8.24046
-0.227936
-8.26392
-0.300488
-8.28254
-0.381516
-8.31588
-0.467851
-8.34568
-0.572342
-8.3751
-0.695721
-8.39103
-0.829877
-8.42961
-0.989479
-8.45921
-1.15223
-8.49941
-1.19021
-8.39835
-0.798243
-7.37836
-3.59863
-0.0399062
-8.09745
0.0268205
-0.0579744
-8.10526
-0.0817807
-8.11754
-0.111037
-8.12621
-0.144892
-8.13979
-0.180295
-8.15511
-0.22294
-8.17406
-0.271928
-8.19147
-0.326132
-8.20971
-0.387508
-8.22116
-0.463848
-8.23954
-0.549898
-8.25963
-0.64932
-8.27568
-0.746495
-8.29386
-0.865511
-8.3106
-1.01215
-8.31257
-1.19323
-8.31833
-1.31385
-8.27773
-1.05312
-7.6391
-4.65175
-0.0641105
-8.08257
0.0492291
-0.0810054
-8.08837
-0.101832
-8.09672
-0.124725
-8.10331
-0.152029
-8.11249
-0.18776
-8.11938
-0.232801
-8.12902
-0.287125
-8.13715
-0.343564
-8.15328
-0.401717
-8.16301
-0.466549
-8.1747
-0.544377
-8.18181
-0.630168
-8.18988
-0.723656
-8.20037
-0.833485
-8.20077
-0.946014
-8.20004
-1.07368
-8.19066
-1.19086
-8.16055
-1.00309
-7.82686
-5.65484
-0.0771556
-8.06461
0.0591984
-0.0977797
-8.06774
-0.121349
-8.07315
-0.146876
-8.07779
-0.174424
-8.08494
-0.203796
-8.09001
-0.236659
-8.09615
-0.274245
-8.09956
-0.321029
-8.10649
-0.371386
-8.11265
-0.425958
-8.12013
-0.486711
-8.12105
-0.545823
-8.13077
-0.620576
-8.12562
-0.694921
-8.12642
-0.781436
-8.11353
-0.869367
-8.10273
-0.95239
-8.07752
-0.840126
-7.93913
-6.49497
-0.0683732
-8.0505
0.0542661
-0.0840563
-8.05206
-0.102248
-8.05495
-0.12244
-8.05759
-0.146808
-8.06057
-0.172241
-8.06458
-0.199189
-8.06921
-0.225397
-8.07335
-0.255355
-8.07653
-0.289643
-8.07836
-0.328539
-8.08124
-0.36833
-8.08126
-0.416215
-8.08289
-0.466708
-8.07512
-0.520646
-8.07249
-0.577339
-8.05683
-0.63194
-8.04813
-0.689354
-8.02011
-0.649505
-7.97898
-7.14447
-0.0644013
-8.03757
0.051468
-0.0779943
-8.03847
-0.0929493
-8.04
-0.10898
-8.04156
-0.125748
-8.0438
-0.14461
-8.04571
-0.165376
-8.04844
-0.188984
-8.04974
-0.214136
-8.05138
-0.240486
-8.05201
-0.268751
-8.05297
-0.298138
-8.05187
-0.330493
-8.05053
-0.359186
-8.04643
-0.388549
-8.04312
-0.408825
-8.03656
-0.417948
-8.03901
-0.417492
-8.02057
-0.392478
-8.00399