/*--------------------------------*- C++ -*----------------------------------*\
  =========                 |
  \\      /  F ield         | OpenFOAM: The Open Source CFD Toolbox
   \\    /   O peration     | Website:  https://openfoam.org
    \\  /    A nd           | Version:  9
     \\/     M anipulation  |
\*---------------------------------------------------------------------------*/
FoamFile
{
    format      ascii;
    class       volScalarField;
    location    "5.8";
    object      nut;
}
// * * * * * * * * * * * * * * * * * * * * * * * * * * * * * * * * * * * * * //

dimensions      [0 2 -1 0 0 0 0];

internalField   nonuniform List<scalar> 
46400
(
0.0164065
0.00483502
0.00121168
0.00134188
0.00124898
0.0012401
0.0011795
0.0011741
0.001114
0.00107828
0.00103012
0.000986819
0.000942475
0.000921058
0.000888488
0.000881102
0.000848625
0.000767187
0.0010204
0.00091202
0.016008
0.00391354
0.0011707
0.00138521
0.00129116
0.00128826
0.00121761
0.00118973
0.00113798
0.0011076
0.00107839
0.00106294
0.00102867
0.000989664
0.000957127
0.000912189
0.000876187
0.000786709
0.000994013
0.000891769
0.015545
0.00362505
0.00121333
0.00140284
0.00127998
0.00126705
0.00120494
0.00118993
0.00114544
0.00111259
0.00106864
0.00102523
0.000989826
0.000947538
0.000922881
0.00089303
0.000844307
0.000770837
0.00102001
0.000950926
0.0149092
0.00452734
0.00130568
0.00141659
0.00134421
0.00133088
0.00125774
0.00121992
0.00117096
0.00113824
0.00111784
0.00110206
0.00108484
0.00104516
0.00100638
0.0009931
0.000947538
0.000809403
0.00102799
0.0009549
0.0142707
0.0043288
0.00140577
0.00148634
0.00134242
0.00131431
0.00123982
0.00119985
0.00115204
0.00111393
0.00107591
0.00103643
0.00101976
0.000996227
0.000958437
0.000934123
0.00093819
0.000867569
0.0010619
0.00100094
0.0134719
0.00407572
0.00143726
0.0014965
0.00139394
0.00137633
0.00131716
0.00125741
0.00119536
0.00113091
0.00109891
0.00106293
0.00105248
0.00104885
0.00104302
0.000999131
0.000958437
0.000900717
0.00109877
0.00101419
0.0124678
0.00324823
0.00147078
0.00153616
0.00140039
0.00131884
0.00127096
0.00122784
0.00119377
0.00113698
0.00108799
0.00101647
0.000948946
0.000922419
0.000934833
0.000943011
0.000930367
0.000876454
0.00109301
0.00107442
0.00986898
0.00244823
0.00151322
0.00145763
0.00143096
0.00136734
0.00132086
0.00126629
0.00122509
0.00116448
0.001149
0.0011261
0.00106248
0.000958957
0.00089916
0.000860458
0.000819075
0.000759218
0.000854852
0.000889571
0.00788381
0.00203527
0.00149864
0.00147525
0.00141448
0.00132758
0.00128619
0.00123507
0.00123328
0.0011645
0.00111371
0.00110333
0.00111593
0.00107967
0.00102578
0.000988761
0.000935464
0.000866822
0.000971408
0.000927014
0.00606521
0.00175479
0.00152162
0.00143283
0.00144858
0.00136698
0.00131717
0.0012442
0.00123561
0.00123331
0.00115938
0.00108033
0.00105548
0.00103635
0.000995814
0.000964332
0.000933317
0.000862609
0.000943723
0.000920999
0.00497963
0.0015399
0.0014083
0.0013678
0.00139598
0.00136933
0.00132503
0.00121134
0.00114111
0.00111005
0.00114698
0.00111489
0.00108248
0.0010793
0.00106988
0.00103392
0.00102525
0.000960479
0.00103771
0.000998917
0.00445514
0.00163002
0.00156516
0.00142928
0.00138751
0.0013518
0.00141737
0.00136732
0.00131346
0.00116446
0.00108986
0.00105287
0.00100105
0.000950533
0.000952296
0.000924029
0.000905647
0.000878104
0.000934391
0.000943908
0.00416182
0.0016273
0.00153477
0.00138063
0.00134562
0.001175
0.00118643
0.0011972
0.00124526
0.00127089
0.00120874
0.00116615
0.00113718
0.0010788
0.00103194
0.00101211
0.000965989
0.000917851
0.0009572
0.000942592
0.00429048
0.00166573
0.0016484
0.0015887
0.0015057
0.00140261
0.00127256
0.00119637
0.00112821
0.00112281
0.00112497
0.00108795
0.00107373
0.00105089
0.0010205
0.000991074
0.000969653
0.00091136
0.000942439
0.000928454
0.00357465
0.00140341
0.00130099
0.00133976
0.00148694
0.00150349
0.0014539
0.00140436
0.00131809
0.00125357
0.00120485
0.00115883
0.00112069
0.00108064
0.00105718
0.00102322
0.000999036
0.000946898
0.000976415
0.0009383
0.00283272
0.00177781
0.00154602
0.00148041
0.00139623
0.00140657
0.0013598
0.00133897
0.00129217
0.00124031
0.00120293
0.00115381
0.00112182
0.00107543
0.00104209
0.00100827
0.00097852
0.000921576
0.00094033
0.000922218
0.0015323
0.00169958
0.00185675
0.0015919
0.00143883
0.00136124
0.00133287
0.00126191
0.00126496
0.00120868
0.00119607
0.00115047
0.00112457
0.00109005
0.00105823
0.00102926
0.00100039
0.000946924
0.000962372
0.000939931
0.00164639
0.00164455
0.00153778
0.00152847
0.001512
0.00140308
0.00139473
0.00129456
0.00129486
0.0012178
0.00121807
0.00116115
0.00113696
0.00109737
0.00106588
0.0010386
0.00100709
0.000960248
0.000971143
0.000942114
0.00284875
0.00158574
0.00142726
0.00150244
0.00142477
0.00137894
0.00135194
0.00133129
0.00128104
0.00124684
0.0012098
0.00118505
0.00114765
0.00111945
0.0010853
0.00105277
0.00102651
0.000969284
0.000977423
0.000956727
0.00342127
0.00156023
0.00152071
0.00158611
0.00151559
0.00147655
0.00141179
0.00135667
0.00132034
0.00128049
0.0012341
0.00119005
0.00116427
0.0011177
0.00109395
0.00105948
0.00103047
0.000976599
0.000986667
0.000953678
0.000901419
0.000848595
0.00415745
0.00882984
0.0106942
0.00738483
0.00338676
0.00115336
0.000374967
0.000137445
0.00029701
0.000363396
0.000249211
0.000286577
0.000288908
0.00026653
0.00026641
0.00028281
0.000299974
0.000326866
6.3844e-24
0.00227596
0.00723853
0.0107004
0.00879848
0.00450258
0.00155521
0.000469425
0.000104295
0.000290493
0.000311496
0.000252494
0.000283479
0.000281784
0.000239494
0.000272075
0.000332193
0.000343732
0.000295189
0.00032199
0.000515225
0.00442033
0.00936657
0.0105291
0.00621474
0.00230408
0.00061664
8.30062e-05
0.000261383
0.000290905
0.000243791
0.000294698
0.00025767
0.000270599
0.000270738
0.000314093
0.000303888
0.000260847
0.000263074
0.000345652
0.00122898
0.00741037
0.0108324
0.00866166
0.00409542
0.00104718
6.54715e-05
0.000219347
0.000266315
0.000272764
0.000290826
0.00027231
0.000284878
0.000293348
0.000257434
0.00029552
0.000301323
0.000336249
0.000353441
0.000394131
0.0028648
0.00885471
0.0109981
0.00671681
0.0019583
0.000142712
0.000118094
0.000233529
0.000307865
0.000291535
0.0002675
0.000302131
0.000275784
0.000272286
0.000281653
0.000361153
0.00032673
0.000306473
0.000309692
0.000376955
0.00296613
0.0102567
0.0102004
0.00474025
0.000735391
4.01551e-05
0.0002596
0.000339089
0.000318884
0.000301256
0.000315197
0.000306641
0.000315619
0.000334597
0.000324322
0.000345575
0.000299228
0.000364936
0.000396242
0.00043484
0.00578062
0.0110371
0.00885216
0.00251331
0.000163944
0.000212538
0.000364778
0.00035639
0.000330274
0.000349791
0.000333759
0.000365438
0.000341946
0.000322331
0.000329005
0.000398926
0.000348182
0.000375211
0.000382162
0.000432963
0.00779075
0.0114254
0.00763221
0.000977738
9.19697e-05
0.000385465
0.000446267
0.000426921
0.000423806
0.000402396
0.000403711
0.000384659
0.000382322
0.000400037
0.000398357
0.000400644
0.000337943
0.000439926
0.000460154
0.000474546
0.0099798
0.0114382
0.00595459
0.000435947
0.000284087
0.000543475
0.000572026
0.000485808
0.000463773
0.000452523
0.000439788
0.000468797
0.000444482
0.000412486
0.000414147
0.000458725
0.000396938
0.000469231
0.000454184
0.000488225
0.0125344
0.0111901
0.00381705
0.000261046
0.000541991
0.0006419
0.000600088
0.000562145
0.00055301
0.000536026
0.000524989
0.000497673
0.000483481
0.000488741
0.00047615
0.000464168
0.000415238
0.000529484
0.000510108
0.000520662
0.0140319
0.0109909
0.00249857
0.000341969
0.000677019
0.000745665
0.000722801
0.000648215
0.000611389
0.000574483
0.000561927
0.000582879
0.000552477
0.000518867
0.000521403
0.000528981
0.000469107
0.000551454
0.000483148
0.000525444
0.0151967
0.010426
0.00143855
0.000354974
0.000815602
0.000794042
0.000755768
0.00069204
0.000679024
0.000668205
0.000647156
0.000623903
0.000607159
0.000594094
0.000566426
0.000541322
0.000511967
0.000606244
0.000524047
0.000562839
0.0156819
0.0100146
0.00102763
0.000543052
0.000887301
0.000854208
0.000861432
0.000786092
0.000743394
0.000696863
0.000680656
0.000688295
0.000653096
0.000628927
0.000630152
0.00059879
0.000552357
0.000618218
0.00049174
0.000563373
0.0163827
0.00957901
0.000932034
0.00072967
0.00101946
0.000910242
0.000899219
0.000819971
0.00079661
0.000789187
0.000755513
0.000742406
0.000724338
0.000696661
0.000669032
0.000627467
0.00060968
0.000660433
0.000518333
0.000604829
0.0167179
0.00914213
0.00171626
0.00087297
0.00104217
0.000973619
0.000976591
0.000916023
0.000860449
0.000818387
0.00079401
0.00078159
0.000749678
0.000737286
0.000732822
0.000684573
0.000666036
0.000679132
0.000485408
0.000609876
0.0170303
0.00891298
0.00201524
0.00100314
0.00114247
0.00102532
0.00101717
0.000939937
0.000903057
0.000892062
0.000854501
0.00084593
0.000819888
0.000794005
0.000767749
0.000712813
0.000734456
0.000739397
0.000501346
0.000639426
0.0171113
0.00860466
0.00196521
0.00103753
0.00116829
0.00107669
0.00106566
0.00102948
0.000960278
0.000930686
0.000895375
0.000870523
0.000837604
0.000827445
0.000821958
0.000768875
0.000786409
0.000779861
0.000512744
0.000661963
0.0171108
0.00777898
0.00181796
0.00112231
0.00122929
0.00114242
0.00110557
0.00105113
0.000996942
0.000977532
0.000946575
0.000931866
0.000902204
0.000875584
0.000838915
0.000807645
0.000834638
0.000836389
0.000566923
0.000685662
0.0169776
0.00675349
0.00180621
0.00118935
0.00121878
0.00117705
0.00113353
0.00112143
0.00105221
0.00102693
0.000989168
0.000967599
0.000934053
0.000933845
0.000919198
0.000891157
0.000931296
0.000942835
0.000688688
0.000701535
0.0167185
0.00570278
0.00160503
0.00128199
0.0012635
0.00123877
0.00117537
0.00113931
0.00107815
0.00105079
0.00102309
0.00101465
0.00100025
0.000981458
0.000974485
0.000976192
0.001019
0.000980473
0.000962891
0.000987213
0.00358164
0.00255068
0.00218775
0.00217791
0.00183999
0.00151162
0.00135875
0.00130191
0.00112953
0.00108029
0.000923259
0.000854602
0.000726386
0.000664802
0.000386497
0.000661707
0.00193202
0.00615182
0.010294
0.0148526
0.00350654
0.0026457
0.00239266
0.00204279
0.00172856
0.00154015
0.00141155
0.00131079
0.0011102
0.00106707
0.000903103
0.0008337
0.000711999
0.000651561
0.000387679
0.000650865
0.00188762
0.00617818
0.01023
0.0147707
0.00367256
0.00253662
0.00226786
0.00212673
0.00182346
0.0015235
0.00137455
0.00129167
0.00110741
0.00108914
0.000925645
0.000849094
0.000723063
0.000660363
0.00041769
0.000676078
0.00184838
0.00614853
0.0102929
0.0147015
0.00361103
0.00246756
0.00244586
0.00210658
0.0017518
0.00154108
0.00141594
0.00130763
0.00109774
0.00108024
0.000909049
0.000830484
0.000710946
0.000643908
0.000449688
0.000695932
0.0017833
0.0061642
0.0102424
0.0146342
0.00377538
0.00258107
0.00242587
0.00203052
0.00176077
0.00154397
0.00136917
0.00128927
0.00109373
0.00109806
0.000926672
0.000841164
0.000719856
0.000656668
0.000464549
0.000714701
0.00172078
0.00612925
0.0102933
0.0145751
0.00378371
0.00246095
0.00244464
0.00199717
0.00175837
0.00162618
0.00142113
0.00131444
0.0010947
0.00109203
0.000912031
0.000826228
0.000708824
0.000650132
0.000474559
0.000705789
0.00164714
0.00611563
0.010271
0.0145338
0.00398433
0.00253246
0.0024955
0.00198359
0.00176567
0.00160855
0.00135731
0.00129427
0.00109205
0.00110432
0.000921835
0.000832861
0.000716607
0.000659096
0.000503958
0.000724335
0.00157272
0.00609965
0.0103111
0.0144903
0.00400312
0.00260281
0.00245112
0.00180216
0.0017193
0.00169811
0.00141595
0.0013264
0.00110431
0.00110149
0.000908557
0.000821865
0.000711587
0.00065729
0.000518259
0.000719635
0.00149114
0.0060666
0.0103247
0.0144645
0.00420231
0.00249049
0.00241297
0.00194902
0.00181547
0.00169601
0.00136041
0.00130041
0.00110614
0.00110801
0.000909299
0.000825366
0.000716931
0.0006642
0.000539099
0.000733594
0.00140268
0.00604441
0.0103466
0.014446
0.00426666
0.00265862
0.0024774
0.00177866
0.00166853
0.00172145
0.00141362
0.00132884
0.00112909
0.0011086
0.000895739
0.000818894
0.000717042
0.000664857
0.000535529
0.000728088
0.0013097
0.00599732
0.0103735
0.0144167
0.00442629
0.00256374
0.00235295
0.00191846
0.00178821
0.00173886
0.00137401
0.00129857
0.00113635
0.00111028
0.000887458
0.000820521
0.000719726
0.000672773
0.000543097
0.000730012
0.00121379
0.0059755
0.0103794
0.0144062
0.00451989
0.00266028
0.00249413
0.00188385
0.00163279
0.00171812
0.00141233
0.00132141
0.00116386
0.00111214
0.000873259
0.000818891
0.000717321
0.000677429
0.000550929
0.00073454
0.00111482
0.00591904
0.0104073
0.0143898
0.00470581
0.00267765
0.00234082
0.00191253
0.00170755
0.00172547
0.001377
0.00129528
0.00117101
0.00110742
0.000858276
0.000820306
0.000720276
0.000687014
0.000559182
0.00070861
0.00101348
0.00589214
0.0104264
0.0143812
0.0047693
0.00266996
0.00242643
0.00193321
0.00161638
0.00169318
0.00140517
0.00131789
0.00119429
0.00110565
0.000845891
0.000823026
0.000720021
0.000695401
0.000575207
0.000681667
0.000908541
0.00582231
0.0104475
0.01437
0.00495738
0.00279904
0.00234051
0.0019531
0.00166098
0.00167698
0.00137451
0.00130025
0.00119327
0.00109097
0.000829114
0.000823996
0.000719165
0.0007065
0.000591409
0.000675033
0.000783359
0.00578746
0.0104635
0.0143806
0.00506317
0.0027605
0.0022747
0.00193468
0.00161346
0.00163664
0.00139484
0.0013228
0.00120291
0.00107873
0.000822099
0.000830113
0.00072162
0.000716796
0.000600708
0.000648188
0.00070723
0.00572596
0.0104905
0.0144091
0.00520854
0.00289118
0.00232474
0.00192105
0.00163779
0.0016154
0.00138005
0.00131333
0.00118988
0.00105398
0.00081128
0.000831703
0.000720387
0.00072561
0.000624891
0.000625677
0.000555025
0.00561312
0.010495
0.0143094
0.00523559
0.002389
0.00197286
0.00190038
0.00159671
0.00159788
0.00140909
0.00133912
0.00119713
0.0010426
0.000818651
0.000845863
0.000727927
0.000742941
0.000645916
0.000655711
0.000429284
0.00567668
0.0105403
0.0144343
0.00476968
0.00230717
0.00188774
0.00188916
0.00161692
0.00155116
0.00138422
0.00130722
0.00114945
0.000995556
0.000820984
0.00083502
0.000717852
0.000736426
0.000624246
0.000629721
0.000355225
0.00558574
0.0106369
0.0145534
0.00514006
0.00262751
0.00145131
0.00189669
0.00159082
0.00152462
0.00140451
0.00129552
0.00113618
0.00099127
0.000827613
0.00084592
0.000727887
0.000752246
0.000682807
0.000629997
0.000232427
0.00526204
0.0104521
0.0141528
0.0201286
0.0273122
0.0126132
0.0205626
0.0124967
0.0167707
0.0146711
0.0136683
0.0115336
0.0100884
0.00880779
0.00873322
0.0073953
0.00756287
0.0067315
0.00685685
0.00582395
0.0528736
0.0991036
0.131247
0.0253005
0.0204402
0.0187967
0.0160517
0.0150469
0.0122559
0.011191
0.00959216
0.00872466
0.0078482
0.00748349
0.00680822
0.00637164
0.00612481
0.00553583
0.00496703
0.0161533
0.0522902
0.0973324
0.128814
0.0139609
0.0142551
0.0130169
0.0109338
0.0102274
0.00916837
0.00865303
0.00820442
0.0077657
0.0072294
0.00689381
0.00649649
0.00609634
0.00581899
0.00541644
0.0047412
0.00829822
0.0534423
0.0951463
0.126679
0.0113648
0.0105096
0.00935472
0.00827278
0.00743972
0.00746403
0.0070941
0.0063979
0.00615692
0.00589627
0.00557641
0.00525632
0.00487385
0.00450113
0.00419662
0.00317186
0.00998204
0.0519405
0.0949369
0.122908
0.00569272
0.00673
0.00692999
0.00612931
0.00555648
0.00526627
0.00534639
0.00539802
0.00510297
0.00487602
0.0047334
0.00455061
0.00440014
0.00422566
0.00416611
0.00311698
0.00685956
0.0491356
0.0951687
0.12109
0.00531318
0.00530018
0.00465064
0.00457765
0.00424485
0.0041004
0.00411883
0.00409774
0.00415825
0.00425325
0.00422035
0.00427245
0.00421916
0.00411392
0.00392773
0.00253544
0.00553473
0.0440815
0.095604
0.120474
0.00301408
0.00297049
0.00311319
0.00362697
0.00351138
0.00319491
0.00324616
0.0035463
0.00354547
0.00358126
0.00361557
0.00370611
0.0036631
0.00376521
0.00379684
0.0028333
0.00315936
0.0357111
0.096743
0.122645
0.00234746
0.00250407
0.00255029
0.00251757
0.00243444
0.00259437
0.00258305
0.00265608
0.00299253
0.00312823
0.00326033
0.00340939
0.00359831
0.00365785
0.00377956
0.00311643
0.00312468
0.0283597
0.0967014
0.127425
0.00126395
0.00134696
0.00153112
0.00194672
0.00204462
0.00236059
0.00235057
0.00235203
0.00252512
0.00271355
0.00277211
0.00310448
0.00310002
0.00358305
0.00339433
0.00327624
0.00400388
0.0193153
0.0944699
0.139833
0.00100877
0.0011431
0.00131278
0.00132221
0.00126649
0.00142176
0.0017038
0.00191672
0.00197713
0.00229987
0.00239789
0.00275976
0.00292765
0.00337586
0.00368863
0.00379494
0.00314844
0.0137578
0.0896125
0.148578
0.000516394
0.000685509
0.000750039
0.000985738
0.00123882
0.00137671
0.00141116
0.00167201
0.00169665
0.0019542
0.00205425
0.00237244
0.00256066
0.00292023
0.0033332
0.00384052
0.00350124
0.00737029
0.0687512
0.163375
0.000433918
0.000498409
0.000515279
0.000538229
0.000573012
0.000894093
0.00104727
0.00116794
0.00138213
0.00163416
0.00177565
0.00205148
0.00229129
0.002576
0.00304852
0.00361274
0.00400742
0.00432906
0.0529146
0.184201
0.000203773
0.000340088
0.000467219
0.000630099
0.000654407
0.000733879
0.000870682
0.00101903
0.00101714
0.00126232
0.00135307
0.00160394
0.0018632
0.0021341
0.00247176
0.00265203
0.00360694
0.00828466
0.0266532
0.154957
0.000226253
0.000277452
0.000268313
0.000335473
0.000382028
0.000494046
0.00054656
0.000759171
0.000811722
0.00105248
0.00109748
0.00144279
0.0015028
0.00204384
0.00183157
0.00226603
0.00212473
0.00459893
0.0149363
0.1075
0.000259853
0.000350703
0.000272872
0.000357351
0.000229225
0.000447578
0.000222317
0.000549545
0.000585644
0.000722427
0.000801347
0.00107965
0.00117856
0.00159753
0.00133565
0.00220139
0.00230547
0.00291026
0.00315828
0.0608725
0.000338262
0.000344549
0.000350442
0.000382544
0.000432202
0.000464545
0.000489604
0.000552647
0.000540762
0.000658229
0.000683527
0.000832255
0.000858414
0.00101098
0.001017
0.00135241
0.000970591
0.00167307
0.00300958
0.0350009
0.000382829
0.000345316
0.000356567
0.000379225
0.000391355
0.000411268
0.000441249
0.000477259
0.000521185
0.000490643
0.000510165
0.000496555
0.000482851
0.000676368
0.000521422
0.00147521
0.000600301
0.000688888
0.00228881
0.0163917
0.000443432
0.000473591
0.000476111
0.000486542
0.000489554
0.000515211
0.000503105
0.000539116
0.000531633
0.000574512
0.000583443
0.00063176
0.000645979
0.000662165
0.00097442
0.000293595
0.000804509
0.000996285
0.00263888
0.00573026
0.000486283
0.000472306
0.000530042
0.000519916
0.00053588
0.000532115
0.000547785
0.00054116
0.000554585
0.000553963
0.000564447
0.000623587
0.000561514
0.000680865
0.000585354
0.000731191
0.000537157
0.000456066
0.000779431
0.00357713
0.000507561
0.00050691
0.0005169
0.000520784
0.000534967
0.000539474
0.000549666
0.000556252
0.000559871
0.000585082
0.00057063
0.000573601
0.000507641
0.000519394
0.000574043
0.000321502
0.000240978
6.03968e-05
0.000456241
0.00152237
0.0142092
0.0140553
0.0139546
0.0138706
0.0136163
0.0136255
0.0132796
0.0132413
0.0131895
0.012525
0.0121428
0.0117899
0.012794
0.0113043
0.0101349
0.00856422
0.00873743
0.00991965
0.00883136
0.00859642
0.00706338
0.00701419
0.00696737
0.00693322
0.00683628
0.00680776
0.00677154
0.00672537
0.00636954
0.00635574
0.00627875
0.00629576
0.00615641
0.00578088
0.00546545
0.00605033
0.0088414
0.00801879
0.00558537
0.00707135
0.00427149
0.00425446
0.00423957
0.00425387
0.00426729
0.00430724
0.0043325
0.00434981
0.00441253
0.00441807
0.00419177
0.00433627
0.00427895
0.00439172
0.00417069
0.00392458
0.00320143
0.00326452
0.0034443
0.00353079
0.00277019
0.00274444
0.00271105
0.0026664
0.00261373
0.00255969
0.00249843
0.00244402
0.0023645
0.00230294
0.00232875
0.00231868
0.00230735
0.00237744
0.00225959
0.00242046
0.00258173
0.00279592
0.00228321
0.00255117
0.00166593
0.00165505
0.0016484
0.00163892
0.00162877
0.00162005
0.00161389
0.00162546
0.00165193
0.00181245
0.0017705
0.00173928
0.00168729
0.00169518
0.00164148
0.00165553
0.00153031
0.00161732
0.00160824
0.00153535
0.00121609
0.00119308
0.00118113
0.00117093
0.00116173
0.00115091
0.00114352
0.00112441
0.00112351
0.00105595
0.00100605
0.00100832
0.00102711
0.00103084
0.00101992
0.00103952
0.00102605
0.00106318
0.000925532
0.000987037
0.000730721
0.000721968
0.000700169
0.000695398
0.000690197
0.000684667
0.000678899
0.000677817
0.000674534
0.000683986
0.000699644
0.000697123
0.00067422
0.000692405
0.000673737
0.000676337
0.000703431
0.000712929
0.00065365
0.000711479
0.000510203
0.000514978
0.000508658
0.000501997
0.000499248
0.000493302
0.000487241
0.000483619
0.000481797
0.000481689
0.000469874
0.000469406
0.000473541
0.000486622
0.000490306
0.000502089
0.00048438
0.000494961
0.000507714
0.000500453
0.000246329
0.000252777
0.000258214
0.000257466
0.000258601
0.000260466
0.000259009
0.000257376
0.000257035
0.000258383
0.000258359
0.000259745
0.000258953
0.000266684
0.000272775
0.000297713
0.000263679
0.000266749
0.000262342
0.000259522
0.000138931
0.000132874
0.000129714
0.000125665
0.000122371
0.000123076
0.000125876
0.000129072
0.000131865
0.000134442
0.000135938
0.000137245
0.000135073
0.000136836
0.000134733
0.000137123
0.000121606
0.000131442
0.000135193
0.000158362
8.25187e-05
7.1256e-05
6.14343e-05
4.95204e-05
3.18206e-05
2.13432e-05
1.91524e-05
2.00508e-05
2.33234e-05
2.68026e-05
3.04483e-05
3.35902e-05
3.41954e-05
3.77928e-05
4.06629e-05
5.23765e-05
5.77386e-05
7.33519e-05
5.01387e-05
6.47472e-05
8.13855e-05
7.81415e-05
7.20577e-05
6.31242e-05
5.0434e-05
3.9951e-05
2.88668e-05
2.25593e-05
1.98557e-05
1.29864e-05
8.37338e-06
8.76888e-06
1.47473e-06
1.23604e-05
1.09371e-05
1.79211e-05
3.45935e-05
6.14077e-05
0.000102606
0.000125216
5.95195e-05
4.38241e-05
2.84786e-05
2.09837e-05
3.63693e-05
4.38111e-05
3.82295e-05
3.38487e-05
2.75602e-05
3.05251e-05
2.92847e-05
4.01887e-05
1.41414e-05
1.07093e-05
7.34244e-06
7.96894e-06
1.09525e-05
1.80721e-05
2.61733e-05
4.63155e-05
9.00273e-05
9.98577e-05
0.000105294
8.84133e-05
6.92103e-05
6.39868e-05
6.51785e-05
6.5427e-05
6.4497e-05
6.33795e-05
4.66653e-05
3.78013e-05
3.82866e-05
3.44282e-05
2.54072e-05
3.77422e-05
4.55779e-05
5.2424e-05
4.9692e-05
5.82748e-05
0.000104071
9.50263e-05
8.6231e-05
8.64869e-05
9.01703e-05
9.1562e-05
9.10702e-05
8.91705e-05
8.68446e-05
8.6193e-05
9.54072e-05
0.000103769
9.47058e-05
8.20903e-05
7.86823e-05
8.50604e-05
8.74029e-05
8.20144e-05
5.90412e-05
5.70614e-05
0.000106217
0.000108383
0.000110842
0.00010796
0.000105114
0.000100679
9.78364e-05
9.5476e-05
9.45518e-05
9.03162e-05
8.24602e-05
7.6973e-05
8.0413e-05
8.49157e-05
8.67926e-05
8.89937e-05
8.81765e-05
8.29589e-05
7.2147e-05
6.94742e-05
0.000100894
9.87624e-05
9.78438e-05
9.74613e-05
9.78782e-05
9.89804e-05
9.81237e-05
9.6696e-05
9.66221e-05
9.93085e-05
0.0001039
0.000103488
9.93368e-05
9.66411e-05
9.56202e-05
8.73445e-05
8.35013e-05
7.84593e-05
9.8952e-05
0.000108374
9.92235e-05
9.90508e-05
9.86957e-05
9.94447e-05
9.92346e-05
9.9793e-05
0.000104292
0.000107091
0.000105071
0.00010082
9.65585e-05
9.67012e-05
9.40833e-05
9.50442e-05
9.97788e-05
0.00010013
0.000104948
0.000107531
9.45792e-05
9.17837e-05
0.000104808
0.000105695
0.00010585
0.000107452
0.000109639
0.000109983
0.000104759
0.00010109
0.000103535
0.000109291
0.000114561
0.000117558
0.000122891
0.000121158
0.000116933
0.000118633
0.000113585
0.000115506
0.000133389
0.00012786
0.000106006
0.00010708
0.000107676
0.000108873
0.000109192
0.000110579
0.000111102
0.000113228
0.000114659
0.000115975
0.000117073
0.000118021
0.000117756
0.000118893
0.000120091
0.000120907
0.000123789
0.000122447
0.000119914
0.000122724
0.00117672
0.00156062
0.00118765
0.00119744
0.00127414
0.00129711
0.00133396
0.00135273
0.00140428
0.00143912
0.00148988
0.00153937
0.00160231
0.00162803
0.00169295
0.00171651
0.00169007
0.00222702
0.00852786
0.0233953
0.00121665
0.0013816
0.00102266
0.00109866
0.00119201
0.00120716
0.00124185
0.00130249
0.00135057
0.00140281
0.00145705
0.00148651
0.00157671
0.00162754
0.00172182
0.00178333
0.00179397
0.00239549
0.00814013
0.022894
0.00116921
0.00144547
0.00108615
0.00110565
0.0012204
0.00125925
0.00130174
0.00133534
0.00138043
0.00141231
0.00146323
0.0015291
0.00158631
0.00159926
0.00168404
0.00167028
0.00172775
0.0015664
0.00650342
0.0224072
0.00123541
0.00144936
0.0010571
0.00110572
0.00118006
0.00118882
0.00121201
0.00127251
0.00132323
0.00137822
0.00144101
0.00147044
0.00155163
0.00160361
0.00170721
0.00173224
0.00182388
0.00166695
0.00616883
0.0218171
0.00125435
0.00146316
0.00109489
0.00113038
0.00121699
0.00125314
0.00129954
0.00134683
0.00137175
0.00141423
0.00145383
0.00151818
0.00157002
0.00157995
0.00166779
0.00163347
0.00176975
0.00150391
0.00464357
0.021257
0.00124861
0.00144812
0.00107502
0.00111999
0.00119124
0.00120068
0.00123641
0.00126571
0.00131711
0.00137706
0.00142489
0.00146366
0.0015395
0.00160531
0.00170265
0.00170945
0.00183714
0.00157965
0.00530982
0.0205003
0.00122283
0.00140904
0.00109391
0.00113562
0.00122017
0.00126529
0.00128411
0.00133318
0.00137393
0.00140642
0.00145018
0.00152788
0.00157862
0.00159199
0.00167809
0.0016645
0.00184811
0.00164547
0.00576838
0.019751
0.00126906
0.00143246
0.0010965
0.0011572
0.00122294
0.00121748
0.00124756
0.00131292
0.0013395
0.00139544
0.00145151
0.00149833
0.00154197
0.00162166
0.00170071
0.00170127
0.00185182
0.00160016
0.00555971
0.0190449
0.00123859
0.00138619
0.00109944
0.00117224
0.00121464
0.00125656
0.00131915
0.00133924
0.00135822
0.00140829
0.00144892
0.00149395
0.00153685
0.00157294
0.00163023
0.0016683
0.00186292
0.00170013
0.00490174
0.0179247
0.00127925
0.00138127
0.00111597
0.00116687
0.00121256
0.00124331
0.00123978
0.00126267
0.00130918
0.00137453
0.00139263
0.00144688
0.00149246
0.00156953
0.00162544
0.0016789
0.00178156
0.00159606
0.00404496
0.016267
0.00118648
0.00126769
0.0010556
0.00110841
0.00115892
0.00118184
0.00120647
0.0012742
0.00132357
0.00134424
0.00137336
0.00143871
0.00147073
0.00152582
0.00158317
0.00166459
0.00175959
0.00173786
0.00331483
0.0139891
0.00118187
0.00123456
0.00106763
0.00112684
0.00117036
0.00118588
0.00122392
0.00127224
0.00127227
0.00130937
0.00135484
0.00140464
0.00143898
0.00152576
0.00156737
0.0016128
0.00165505
0.0016935
0.00275877
0.0113967
0.00109685
0.00116387
0.00104701
0.00108371
0.00111241
0.00114831
0.00119851
0.0012189
0.00124771
0.00130705
0.00135704
0.00140677
0.00147219
0.00152656
0.00155189
0.00166229
0.00169324
0.00171431
0.00241711
0.00948471
0.00111827
0.00118871
0.00107045
0.00110434
0.00115632
0.0012021
0.00122549
0.00124517
0.00129264
0.00134364
0.00137374
0.00141477
0.00144826
0.00147755
0.0015348
0.00155821
0.00156223
0.00170567
0.00201961
0.00765958
0.00106528
0.00111784
0.00102259
0.00106952
0.00111656
0.0011355
0.00115055
0.0011884
0.00124843
0.00128095
0.00131804
0.0013721
0.00140432
0.00146446
0.00150455
0.00158719
0.00163249
0.00166964
0.00189082
0.00661504
0.00102462
0.00110429
0.00104973
0.0010878
0.00112765
0.001139
0.0011779
0.00123429
0.00126753
0.00127515
0.00131395
0.00134379
0.00137456
0.00142245
0.00143696
0.0015038
0.00152491
0.00175099
0.00182083
0.0056044
0.00102344
0.00108331
0.00101294
0.00105284
0.00109006
0.00111347
0.00116508
0.00118486
0.00120097
0.00123822
0.00130097
0.00133571
0.0013816
0.00143193
0.00148777
0.00159946
0.00159888
0.00169282
0.00175463
0.00496875
0.00100966
0.00105091
0.00101021
0.0010572
0.00109207
0.00111433
0.00114364
0.00116936
0.00121353
0.00127507
0.00131263
0.00135241
0.00140623
0.00150304
0.00154687
0.00158935
0.00160703
0.00161403
0.00153286
0.00403604
0.000985263
0.00101974
0.000995631
0.00103927
0.001073
0.00110083
0.00114304
0.00117492
0.001226
0.00124814
0.00127836
0.00131139
0.00137395
0.00138196
0.00141572
0.00153065
0.00148102
0.00167166
0.00180771
0.00362037
0.000978551
0.00100296
0.000983738
0.00102758
0.00106221
0.00108631
0.00111973
0.00114783
0.00118508
0.00121864
0.00126396
0.00132927
0.00134783
0.00141149
0.00144416
0.00148011
0.00152133
0.0016534
0.00174464
0.00327119
0.00100918
0.00117382
0.00134915
0.00135264
0.00127392
0.00117592
0.0011695
0.00112057
0.00110792
0.00120298
0.00122548
0.00122473
0.00128771
0.00136951
0.00130456
0.00075858
0.000380589
0.011164
0.0164699
0.0148818
0.00107021
0.00118567
0.00128525
0.00129296
0.00128547
0.00119141
0.00114778
0.00118189
0.00120257
0.00115685
0.00117703
0.00124532
0.00128792
0.0014167
0.00139633
0.000908448
0.00021407
0.010155
0.0164892
0.0173405
0.00102622
0.0011863
0.00138799
0.001377
0.00130753
0.00120838
0.00120011
0.00115342
0.00115929
0.00126068
0.00127753
0.00128033
0.00135697
0.00142184
0.0014673
0.00109645
0.000644139
0.00854692
0.0165904
0.0195899
0.0010774
0.00116426
0.00129781
0.00130613
0.0013146
0.00122862
0.00118482
0.00121832
0.00123019
0.00119522
0.00122558
0.00130287
0.00134651
0.00144621
0.00152127
0.00125578
0.000128916
0.00638193
0.0164139
0.0206065
0.00107046
0.00120904
0.00141549
0.00137858
0.00131645
0.00122902
0.00121951
0.00118407
0.00120302
0.00129773
0.00131474
0.00133113
0.00142153
0.00147788
0.00154991
0.00145579
0.000695517
0.00501452
0.0163635
0.0214252
0.00106177
0.00113905
0.00133928
0.00133255
0.00132885
0.00124437
0.00120525
0.00123682
0.00125343
0.00123744
0.00127444
0.0013542
0.00139375
0.00149927
0.00158648
0.00148234
0.000484717
0.00357131
0.0160243
0.022121
0.00109996
0.00122709
0.00143787
0.00137041
0.00131381
0.00124591
0.00123622
0.00121567
0.0012394
0.00131858
0.00134277
0.00137731
0.00147197
0.00153698
0.00158562
0.00159956
0.000624283
0.00281577
0.0158326
0.0228698
0.00106452
0.00113759
0.00138423
0.00135584
0.00132557
0.00124245
0.00121478
0.00124778
0.00127795
0.0012825
0.00132087
0.00139323
0.00143307
0.00154097
0.00161435
0.00159901
0.000838669
0.00192605
0.0154566
0.0234352
0.00111323
0.00121486
0.00144714
0.00135651
0.0013006
0.00125838
0.00125545
0.00125026
0.00127263
0.00133165
0.00136764
0.00142164
0.00151243
0.00158013
0.00160132
0.00167194
0.0010072
0.00159118
0.0151797
0.0240694
0.00107444
0.0011305
0.0014149
0.00136305
0.00130544
0.00123293
0.00122217
0.00125901
0.00130316
0.00132766
0.00136571
0.00142399
0.00146706
0.00157202
0.00163055
0.00167062
0.00117216
0.00138417
0.0147455
0.0244157
0.0011117
0.00117704
0.0014326
0.00132305
0.00126739
0.00125861
0.0012738
0.00128369
0.00130307
0.00134076
0.00138909
0.00146087
0.00154388
0.00160772
0.00161385
0.00170803
0.00127165
0.00141654
0.0143998
0.0248173
0.00109139
0.0011127
0.00141722
0.00134261
0.00127447
0.00122991