/*--------------------------------*- C++ -*----------------------------------*\
  =========                 |
  \\      /  F ield         | OpenFOAM: The Open Source CFD Toolbox
   \\    /   O peration     | Website:  https://openfoam.org
    \\  /    A nd           | Version:  9
     \\/     M anipulation  |
\*---------------------------------------------------------------------------*/
FoamFile
{
    format      ascii;
    class       volScalarField;
    location    "13";
    object      nut;
}
// * * * * * * * * * * * * * * * * * * * * * * * * * * * * * * * * * * * * * //

dimensions      [0 2 -1 0 0 0 0];

internalField   nonuniform List<scalar> 
46400
(
0.0194507
0.0049225
0.00131898
0.00155718
0.00143867
0.00145781
0.00138048
0.00136036
0.00129607
0.00125513
0.00120871
0.00116292
0.00113676
0.00110626
0.00105621
0.00105611
0.00103355
0.000950729
0.00123329
0.0010081
0.018965
0.00428144
0.00127859
0.00157712
0.00146527
0.00145146
0.00139251
0.00136176
0.00130651
0.00126638
0.00121966
0.00119446
0.00113198
0.0011056
0.00107624
0.00102616
0.000966829
0.000866383
0.00109794
0.000964687
0.0183575
0.00432731
0.00136741
0.00161292
0.00145474
0.00145693
0.0013825
0.00135601
0.00129566
0.00126325
0.0012166
0.00117423
0.00113825
0.00108635
0.00105043
0.00103733
0.00098036
0.000887307
0.00114691
0.000986281
0.0176868
0.00524945
0.00142291
0.00162837
0.00150271
0.00147523
0.00140151
0.00136101
0.00130306
0.00124392
0.00120975
0.00118271
0.0011474
0.00111226
0.00107523
0.00104806
0.00101954
0.000918519
0.00117879
0.00104722
0.017118
0.00511991
0.00152098
0.00168136
0.00151663
0.00148639
0.00142218
0.00137334
0.00132167
0.0012776
0.0012188
0.00117433
0.00113962
0.00109726
0.00104977
0.00101927
0.000991188
0.000927154
0.0011835
0.00105793
0.0161295
0.00470852
0.00151852
0.00164622
0.00153304
0.00148895
0.00141035
0.00137535
0.00131745
0.00126233
0.00122293
0.00116579
0.00114581
0.00112262
0.00110259
0.00105471
0.000996515
0.000926867
0.00118858
0.00107658
0.01471
0.00378003
0.00151339
0.00166819
0.00153216
0.00148671
0.00142864
0.00135833
0.00133261
0.00126872
0.00125048
0.00118086
0.00112172
0.00108685
0.00106364
0.00105831
0.00102257
0.000901669
0.00113535
0.00108536
0.0117063
0.002815
0.00155886
0.00153992
0.00151782
0.00145997
0.00142444
0.00135936
0.00131324
0.00124524
0.00121197
0.00120807
0.00115312
0.00110533
0.00107201
0.00104748
0.00103705
0.000950649
0.00109517
0.00102739
0.00961727
0.00236836
0.00154369
0.00153374
0.00147315
0.00142109
0.00140536
0.00135872
0.00134336
0.00127591
0.00121364
0.00117159
0.00115433
0.0011012
0.00107234
0.00104303
0.00103542
0.000990786
0.00118257
0.00109482
0.00779915
0.00207366
0.00161161
0.00148591
0.00142978
0.00135627
0.00132065
0.00126498
0.00127774
0.0012816
0.00123708
0.00116738
0.00114524
0.00109381
0.00105486
0.00100245
0.000963754
0.000901789
0.00106151
0.00106973
0.00647119
0.00182462
0.00160712
0.00154667
0.00148142
0.00140451
0.00137591
0.00125005
0.00116884
0.00113886
0.00115802
0.00113385
0.00112831
0.00111791
0.00109428
0.00107136
0.00101685
0.000932232
0.00100637
0.000993122
0.00543955
0.00165649
0.00158344
0.00159883
0.00155827
0.00146543
0.00150699
0.00146086
0.00136143
0.00123374
0.00115874
0.00109878
0.0010493
0.00102764
0.0010162
0.00100933
0.000999181
0.000944394
0.00101175
0.000972206
0.00487423
0.00159636
0.0014729
0.00141059
0.00148819
0.00130922
0.00127749
0.00133769
0.00136076
0.00135667
0.00129391
0.00124227
0.00116472
0.00110032
0.00106012
0.00102542
0.00101276
0.00096808
0.00104616
0.00100164
0.00462346
0.00169104
0.00163296
0.00155937
0.00161702
0.00156074
0.0013657
0.00126111
0.00122032
0.001189
0.00118533
0.00115605
0.00114272
0.00108103
0.00104051
0.0010014
0.000976499
0.000934213
0.00100743
0.000989842
0.00435243
0.00170002
0.00165444
0.00139338
0.00135751
0.00143875
0.00143803
0.00136218
0.00130905
0.00125784
0.00122766
0.00118706
0.0011658
0.00114169
0.00109388
0.00105687
0.0010045
0.000948111
0.000992897
0.000964232
0.00412566
0.00164254
0.00168129
0.00160771
0.00142058
0.00136967
0.00135834
0.001333
0.00129031
0.00125145
0.00119976
0.00118193
0.00113099
0.00112409
0.00108102
0.00106844
0.00102146
0.000956261
0.000998629
0.000934454
0.00387452
0.00160021
0.00151908
0.00161579
0.00153141
0.00144554
0.00137107
0.00131695
0.00128045
0.00123703
0.00120077
0.00116339
0.00112697
0.0010949
0.00106824
0.00104604
0.0010284
0.00096993
0.00101739
0.00096731
0.0026424
0.00186178
0.00164161
0.00151146
0.00147782
0.00144001
0.00138066
0.00135544
0.00129543
0.00127125
0.00121285
0.00117689
0.00112874
0.00108864
0.00104679
0.00101955
0.000989626
0.000929318
0.000975265
0.000918682
0.00151483
0.00169145
0.00164659
0.00153417
0.00149934
0.0014321
0.001402
0.00135547
0.00131284
0.00126607
0.0012305
0.00118573
0.00114886
0.00111308
0.0010783
0.00104265
0.00101246
0.00093204
0.000987503
0.000900411
0.00188807
0.00176545
0.00164601
0.00145387
0.00152894
0.00143913
0.00142788
0.00134791
0.00132526
0.00126277
0.00123356
0.00118169
0.00114388
0.00110321
0.00107123
0.00103712
0.001016
0.00095309
0.000980942
0.000942364
0.00759789
0.0124434
0.0108688
0.00393389
0.000172809
0.000431687
0.000765322
0.00088509
0.000775056
0.000771993
0.000779815
0.000707626
0.000716893
0.000759772
0.000738185
0.000750399
0.000782075
0.000923921
0.000959273
0.000809736
0.00951144
0.0131622
0.00999609
0.00184363
0.000429297
0.000734302
0.000901998
0.000846421
0.000835698
0.000806358
0.000753662
0.000787451
0.000788078
0.000766954
0.000742943
0.000789538
0.000849804
0.000964525
0.00090272
0.000753725
0.0120096
0.0133004
0.00908638
0.000795839
0.000401214
0.000858671
0.000954959
0.000917337
0.000867323
0.000835296
0.000855702
0.000806406
0.000767533
0.00080868
0.000804094
0.000845713
0.000872364
0.000946796
0.000875654
0.000774183
0.0148453
0.013591
0.00827168
0.000268822
0.000628847
0.00101045
0.00100876
0.000911216
0.000910108
0.000880982
0.000822841
0.000816136
0.000846981
0.000832753
0.00080456
0.000844444
0.000879751
0.000973983
0.000856888
0.000748312
0.0160162
0.0135798
0.00565368
0.000323268
0.000771609
0.00102283
0.00103124
0.000969547
0.000933691
0.000896195
0.000899622
0.000887468
0.000831885
0.00084067
0.000837434
0.000897197
0.000909385
0.000940726
0.000827172
0.000774243
0.0170964
0.0133672
0.00423518
0.000317584
0.00100743
0.00114806
0.00105387
0.00100558
0.000983245
0.000940165
0.000900245
0.000853411
0.000873821
0.000873204
0.000848471
0.000871117
0.000871983
0.000956238
0.000857469
0.000796476
0.0180458
0.0131875
0.00269957
0.000316061
0.00107914
0.0011414
0.00110016
0.00101784
0.000990931
0.000951909
0.000919691
0.000924708
0.000877165
0.000855325
0.000845522
0.000902695
0.000921191
0.000961062
0.000824183
0.000795875
0.0186799
0.0128522
0.00200917
0.000393575
0.0011658
0.00120145
0.00111737
0.00107321
0.00104601
0.000980771
0.000961375
0.000898923
0.0008894
0.00089487
0.00087605
0.0008872
0.000867834
0.000973777
0.000891724
0.000841841
0.0194428
0.0125867
0.0012405
0.000688669
0.00124058
0.0012039
0.00116339
0.00105321
0.0010349
0.00100195
0.000938308
0.000940395
0.000908833
0.000867968
0.000849841
0.000889431
0.000918003
0.00101236
0.000880895
0.000828138
0.0200205
0.0121565
0.00102423
0.000831207
0.00126313
0.00123174
0.00118194
0.00112321
0.00109374
0.00101957
0.00100491
0.000948385
0.000911516
0.000911375
0.00089311
0.000904184
0.000889926
0.00101842
0.000934358
0.000872697
0.0204327
0.0117945
0.00109703
0.000985917
0.00134288
0.00126021
0.00122827
0.00110803
0.00108931
0.00106014
0.000982344
0.000968612
0.000950563
0.000902413
0.000877932
0.000896333
0.000940552
0.00109256
0.000938275
0.000856325
0.0208237
0.0113873
0.00130849
0.00113558
0.00133977
0.00126793
0.00124231
0.00116383
0.00112606
0.00106365
0.00104214
0.00100162
0.000952568
0.000946458
0.000931006
0.000939852
0.000934144
0.00107483
0.000950948
0.000892385
0.0209452
0.010995
0.00203787
0.00114853
0.00141918
0.00130831
0.00128513
0.00117718
0.00115045
0.00111971
0.00104294
0.00101409
0.00100207
0.000956407
0.000919761
0.000909033
0.000931796
0.00109039
0.000908805
0.000847984
0.0211453
0.010852
0.00172443
0.00130618
0.00142864
0.00131859
0.00130821
0.00121581
0.00116426
0.00112304
0.00108809
0.00105844
0.00100957
0.000997177
0.000984211
0.000974188
0.000950234
0.00106985
0.000928952
0.000896581
0.0210845
0.0105193
0.00213454
0.00122854
0.00147609
0.00135283
0.00132636
0.00124862
0.00120065
0.00117108
0.00110784
0.00106845
0.00105772
0.00102697
0.000980416
0.00094996
0.000940002
0.00106276
0.000876143
0.000873374
0.0210634
0.0103142
0.00203166
0.00137125
0.00147436
0.00137866
0.00135559
0.00127608
0.00121269
0.00118085
0.00113512
0.00110865
0.00105829
0.00104473
0.00104086
0.00101353
0.000968745
0.0010328
0.000866883
0.000896953
0.0208292
0.00885204
0.00170219
0.00133787
0.00147635
0.00140284
0.00136016
0.00130933
0.00124126
0.00121289
0.00116359
0.00111757
0.00110142
0.00108301
0.00103827
0.00101536
0.000992106
0.00103227
0.000802911
0.000886896
0.0205983
0.00831762
0.00202991
0.00146919
0.00149139
0.00142608
0.0013834
0.0013315
0.00126127
0.00123076
0.0011858
0.0011646
0.00110883
0.00109608
0.00109596
0.00106841
0.00103944
0.00103879
0.00079736
0.000916277
0.0202725
0.00686445
0.00145142
0.00145118
0.00146688
0.00145026
0.00138739
0.00135798
0.00128464
0.00125062
0.00120933
0.00116589
0.00114273
0.00112247
0.001079
0.00107213
0.00108319
0.00108598
0.000797857
0.000924863
0.019868
0.00614813
0.00166756
0.00155022
0.00148495
0.00145568
0.00139742
0.00136891
0.00130457
0.00127266
0.0012317
0.00121965
0.00116909
0.00115646
0.00114773
0.00113862
0.00114646
0.00111345
0.000938248
0.00103629
0.00546404
0.00303966
0.00235373
0.00163925
0.00134176
0.00103281
0.000871727
0.000701382
0.000661168
0.000618472
0.00052932
0.000431405
0.000406611
0.000417337
0.000386921
0.000507409
0.000862726
0.00574522
0.0103222
0.014879
0.00550709
0.00307107
0.00232089
0.00165761
0.0013089
0.00105199
0.000880825
0.000718547
0.000690369
0.000647851
0.000540506
0.000443092
0.000410535
0.00040874
0.000361431
0.000495475
0.000806018
0.0057581
0.0103171
0.0148617
0.00564578
0.00325648
0.00237688
0.00174393
0.00142186
0.00107369
0.000870266
0.00072699
0.000709716
0.000639483
0.000519951
0.00043881
0.00040482
0.000418949
0.000301963
0.000476743
0.000765448
0.00571628
0.0103059
0.0147673
0.00540843
0.00330849
0.00212974
0.00174365
0.00143275
0.00111704
0.000909883
0.000757843
0.000744267
0.000669485
0.000535657
0.000449193
0.00040733
0.000402877
0.000259286
0.000432456
0.000704866
0.005693
0.0102801
0.0147583
0.00583405
0.00341664
0.00248111
0.00178658
0.00155533
0.00115028
0.000935556
0.000780622
0.000755542
0.000659509
0.000517359
0.000448934
0.000401038
0.000410106
0.000208672
0.000341673
0.000638396
0.00567494
0.0103087
0.014674
0.00582966
0.00348058
0.00261743
0.00175618
0.00157768
0.00118395
0.000977525
0.000821119
0.000794414
0.000691414
0.000538689
0.000461548
0.000405367
0.000391385
0.000191158
0.000289262
0.000505594
0.00566697
0.0102918
0.0146661
0.00604024
0.00350547
0.00268214
0.00180513
0.00165768
0.00124508
0.00100022
0.000836796
0.000793758
0.000676424
0.000522016
0.000465066
0.000404092
0.00040131
0.000197247
0.000286599
0.000480107
0.00563743
0.0102867
0.0146303
0.00604362
0.00353737
0.0027146
0.00180347
0.00167174
0.00129218
0.00109778
0.000889932
0.000835136
0.000706548
0.000545211
0.000476399
0.000409891
0.000387331
0.000184487
0.0002549
0.00037327
0.00561452
0.0102861
0.0146072
0.00608558
0.00355209
0.0027335
0.00183819
0.0016834
0.00133027
0.00107
0.000902058
0.000823504
0.000688398
0.000531136
0.000478904
0.00040908
0.000407537
0.000189797
0.000250103
0.000335024
0.00558718
0.0102761
0.0145785
0.00599916
0.00350049
0.00276402
0.00182975
0.00171766
0.00140547
0.00112744
0.000964674
0.00086532
0.000722956
0.000554617
0.000488152
0.000408593
0.000397761
0.000178509
0.00022436
0.000264941
0.00556101
0.0102852
0.0145578
0.00595857
0.0034236
0.00280731
0.00190695
0.00167458
0.0014261
0.00113926
0.000971301
0.000840332
0.00069956
0.000541238
0.00049243
0.000404256
0.000419252
0.000169325
0.000202705
0.000217426
0.00554074
0.0102842
0.0145475
0.00594161
0.00331216
0.00272664
0.00192934
0.00169351
0.00148122
0.00118617
0.00103859
0.000887639
0.000735236
0.000557243
0.000500937
0.000402948
0.000410857
0.000163679
0.000184642
0.000145661
0.00552295
0.0102873
0.0145565
0.00599697
0.00327469
0.0027372
0.00203099
0.00169189
0.00148344
0.001193
0.0010407
0.000859155
0.000732861
0.000563141
0.000505217
0.000399738
0.000426639
0.000173488
0.000186922
0.0001064
0.00549548
0.0102842
0.0145634
0.00587445
0.00314492
0.00261123
0.00203388
0.00171339
0.00152231
0.0012276
0.00110193
0.000905373
0.000752233
0.00057398
0.000524151
0.000402112
0.000413414
0.000190315
0.000191385
4.495e-05
0.00544333
0.0102992
0.0145725
0.00599411
0.0031737
0.0026356
0.00208947
0.00175491
0.00151953
0.00122123
0.00110217
0.000881827
0.000761374
0.000579594
0.000528174
0.000409351
0.000430959
0.000208734
0.000207808
3.59828e-05
0.00539421
0.0102874
0.0146026
0.00589926
0.00313611
0.00257289
0.00201717
0.00176271
0.00155952
0.00124206
0.00115281
0.000927
0.000779799
0.000595677
0.00053927
0.000409356
0.000421234
0.00024401
0.00024627
5.95033e-05
0.00537899
0.0103721
0.0145839
0.00598794
0.00314065
0.00259321
0.00206985
0.00178759
0.00155673
0.00122702
0.0011453
0.000912564
0.000797678
0.000602286
0.000544019
0.00041849
0.000440733
0.000277219
0.000280057
7.23986e-05
0.00529274
0.0103048
0.0147058
0.00594448
0.00312391
0.00256974
0.00201289
0.00176209
0.00160621
0.00125342
0.00119431
0.000954233
0.00081982
0.000633304
0.000560316
0.000419199
0.000431078
0.000336782
0.000355096
0.000100781
0.00531542
0.0103876
0.0146258
0.00588583
0.00315754
0.00254314
0.00203181
0.00175509
0.00156866
0.00122727
0.00117743
0.000944662
0.000840112
0.000646484
0.000562539
0.000441695
0.000445218
0.000329896
0.00034141
9.46702e-05
0.00523489
0.0104945
0.0149285
0.00638501
0.00340413
0.00256899
0.00199266
0.0017472
0.00160315
0.00124577
0.00120514
0.000968516
0.000851414
0.000676498
0.000567579
0.000441374
0.000449047
0.000406196
0.000456753
0.000162638
0.00490529
0.0103466
0.0144787
0.0164842
0.0328093
0.023545
0.0230344
0.0196668
0.0173916
0.0137284
0.012954
0.0106227
0.00960283
0.00813271
0.00695066
0.00540791
0.00505176
0.00404737
0.00516916
0.00562959
0.0492125
0.097707
0.132366
0.0266237
0.0216692
0.0199459
0.0168255
0.0143826
0.0121374
0.00995218
0.0092611
0.00805838
0.00711578
0.00617641
0.0056093
0.00489354
0.00416048
0.00353661
0.00340916
0.0128459
0.0461132
0.0955861
0.131658
0.014609
0.0149435
0.0140452
0.0110263
0.00964351
0.00848489
0.00788258
0.00704788
0.0064558
0.00601142
0.00547041
0.00531403
0.00520262
0.00475605
0.00430336
0.0037035
0.00648027
0.047591
0.0950535
0.129821
0.0116279
0.00960425
0.00814719
0.00809885
0.00765479
0.00723623
0.00664354
0.0061693
0.00573805
0.00525227
0.00496577
0.00457217
0.00415699
0.00396055
0.00373592
0.00255623
0.0088685
0.0440723
0.094937
0.126504
0.0045211
0.00678146
0.00716916
0.00660785
0.00583514
0.00525223
0.00492844
0.00480204
0.00473686
0.00456723
0.00429072
0.00406749
0.00391435
0.00382739
0.00373671
0.00297395
0.00592627
0.040056
0.0951049
0.125445
0.00535026
0.00507682
0.00423941
0.00403054
0.00414634
0.00447845
0.00446313
0.00419057
0.00396262
0.0039056
0.00391936
0.00387453
0.00383897
0.00374593
0.0037135
0.00254586
0.00493022
0.0356502
0.0951434
0.125847
0.00249551
0.00311833
0.00338588
0.00373697
0.00376811
0.00358898
0.00332992
0.00364818
0.00350452
0.00354881
0.00338547
0.00343264
0.00332231
0.00353242
0.0035254
0.00294409
0.00219131
0.0291992
0.0958027
0.129222
0.00264055
0.00265076
0.00254844
0.00234055
0.00242307
0.00289862
0.00272866
0.00262907
0.00273613
0.00295705
0.00299103
0.00323717
0.00316679
0.00347094
0.00350291
0.00303206
0.00328793
0.0217049
0.0947759
0.135617
0.00107146
0.00147546
0.00164779
0.00180362
0.00199536
0.00215588
0.00229888
0.00251482
0.00239855
0.00250168
0.00246135
0.00264174
0.00259729
0.00289943
0.0031058
0.00352625
0.00304714
0.0157884
0.0918255
0.145748
0.00110979
0.00119758
0.00125758
0.0012998
0.00130827
0.00148573
0.00140631
0.00159763
0.00185053
0.00208816
0.00226147
0.0024508
0.00256681
0.00288856
0.00292979
0.00339107
0.00305112
0.0100842
0.0795535
0.158087
0.000453972
0.00058414
0.00073027
0.000863665
0.000966522
0.00125809
0.00136391
0.00154301
0.00142437
0.00173826
0.00177536
0.00208172
0.00210603
0.00259221
0.00282084
0.00352293
0.00341497
0.00711791
0.0618165
0.172565
0.000325065
0.000459728
0.000538234
0.000660097
0.000595759
0.000697224
0.000829066
0.00106974
0.00117169
0.00139221
0.00156725
0.00175767
0.00204952
0.0020866
0.00256928
0.00263093
0.00360848
0.00336668
0.0428914
0.192789
0.000171637
0.000294479
0.000364728
0.00050458
0.000613562
0.000714042
0.00073956
0.000844441
0.000898819
0.00101656
0.0011368
0.0013261
0.00147657
0.00175497
0.00196457
0.00236891
0.00297937
0.00750903
0.0212397
0.14111
0.000296153
0.000262373
0.000287364
0.000325683
0.000393699
0.000473192
0.000518418
0.000621849
0.000732066
0.000899394
0.000967844
0.00120817
0.00120191
0.00162396
0.00148515
0.00220228
0.00184473
0.00373288
0.0123543
0.0955439
0.000424043
0.000435039
0.000446053
0.000491726
0.000514808
0.000551116
0.000574379
0.000654605
0.000671737
0.000808393
0.000816455
0.00103842
0.00100855
0.00140029
0.00150401
0.00194139
0.00230997
0.00275411
0.00283102
0.0572389
0.000437611
0.00047616
0.000506801
0.000518878
0.000535648
0.000585743
0.000624446
0.000679602
0.000728467
0.000801482
0.000868262
0.000945559
0.00109038
0.00111455
0.00134171
0.00102368
0.00156584
0.00182263
0.00218434
0.0296112
0.000444487
0.000439548
0.000411739
0.000428085
0.000459024
0.000497335
0.000519744
0.000552954
0.000578835
0.000605313
0.000646646
0.000713456
0.000758639
0.000818178
0.000797766
0.00110986
0.00123882
0.00157962
0.00298157
0.0121242
0.000315433
0.000337642
0.000386926
0.000413109
0.000447404
0.000450508
0.000472958
0.000484195
0.00049919
0.000528954
0.000560258
0.000569166
0.000568095
0.000590504
0.000654382
0.000666708
0.000610374
0.000681411
0.00166573
0.00616525
0.000226989
0.000222491
0.000237263
0.000248607
0.000265943
0.000299143
0.00032861
0.000352649
0.000383138
0.000393694
0.000431865
0.000421437
0.000498235
0.000455784
0.000486325
0.000597245
0.000578149
0.000446305
0.000519733
0.00197651
0.000110204
0.000132378
0.000145636
0.000166674
0.000183451
0.000214859
0.000222614
0.00026438
0.000289992
0.000310845
0.000335537
0.000367801
0.000355396
0.000393193
0.000344179
0.000253097
0.000322694
0.000381439
0.000403059
0.000565507
0.0139854
0.0141395
0.0139678
0.0140137
0.0136984
0.0137298
0.0135829
0.0135416
0.0132882
0.0130306
0.0130181
0.0119794
0.0117535
0.0118308
0.0112156
0.0103778
0.00946743
0.00892182
0.00948756
0.00938346
0.00687818
0.00689607
0.00680544
0.0067529
0.00665686
0.00667771
0.00656399
0.00655358
0.00633294
0.00668049
0.00684771
0.00642324
0.00643108
0.00649639
0.00619012
0.00692253
0.00691767
0.00693019
0.00646282
0.00709041
0.00408396
0.00405979
0.00405402
0.00406695
0.00414429
0.00420657
0.00421391
0.0042096
0.00425546
0.00421456
0.00411192
0.00406849
0.00382938
0.00388491
0.00365614
0.00374123
0.00335339
0.00358973
0.0030714
0.00334183
0.00258917
0.00257048
0.00257577
0.00256178
0.0025352
0.00248795
0.00243441
0.00240794
0.00224674
0.00227154
0.00225889
0.00230082
0.00243209
0.0023797
0.00230585
0.00239051
0.00231739
0.00271509
0.00238754
0.00272503
0.00155325
0.00154771
0.00154638
0.00154434
0.0015388
0.00153711
0.00153062
0.00154015
0.00168237
0.00173194
0.00169045
0.00175976
0.00155635
0.00164139
0.00164847
0.00167461
0.00150695
0.0013741
0.00128749
0.00142068
0.00108425
0.00108097
0.00108155
0.00108197
0.00107975
0.00108045
0.00107917
0.00108751
0.00108995
0.00103062
0.000966042
0.000893388
0.000954418
0.000996185
0.000997022
0.00111115
0.00120741
0.00131723
0.0010548
0.00108021
0.000624688
0.000622974
0.000624662
0.000624899
0.000628152
0.000631806
0.000639289
0.000648303
0.000659563
0.000672783
0.000737161
0.00086996
0.000867555
0.000835444
0.000732825
0.000660353
0.000626489
0.000711891
0.00078152
0.000662764
0.000441158
0.000439721
0.000438676
0.000440035
0.000444677
0.00045332
0.000459163
0.000462182
0.000463651
0.000468098
0.000463589
0.000427937
0.000364984
0.000378513
0.00046115
0.000543937
0.000482137
0.000498704
0.000407327
0.000403176
0.000233736
0.000231081
0.000226899
0.000223517
0.00022213
0.000220226
0.000217731
0.000215695
0.000219231
0.000226261
0.000238333
0.000261984
0.00029127
0.000319394
0.000272357
0.000313089
0.000325626
0.000343899
0.000229574
0.000204758
0.00015258
0.000149141
0.000145802
0.000141846
0.000140108
0.000138622
0.000138018
0.000140883
0.000144293
0.000145019
0.000148089
0.000151724
0.000146579
0.00014463
0.000141031
0.000160338
0.000133504
0.000140591
0.000153
0.000209877
7.51935e-05
7.37563e-05
7.33561e-05
6.93593e-05
6.2376e-05
5.97726e-05
5.70474e-05
5.60751e-05
5.27338e-05
5.38455e-05
5.73648e-05
6.16061e-05
6.4464e-05
6.92274e-05
7.1764e-05
7.80279e-05
8.71386e-05
0.000102934
9.96044e-05
9.96616e-05
7.59237e-05
6.45439e-05
5.76929e-05
4.96538e-05
4.64158e-05
3.69938e-05
1.72289e-05
1.02026e-05
7.84724e-06
4.55412e-06
4.0174e-06
5.17762e-06
7.00317e-06
1.24944e-05
2.00176e-05
2.68633e-05
3.07723e-05
3.46892e-05
4.59821e-05
6.01941e-05
0.000100503
9.55371e-05
9.01582e-05
8.54493e-05
8.45235e-05
8.47616e-05
8.43827e-05
7.85162e-05
7.4464e-05
7.01283e-05
6.75953e-05
6.17771e-05
5.73674e-05
4.3599e-05
3.2794e-05
2.01897e-05
1.42406e-05
1.06776e-05
1.81012e-05
2.75084e-05
0.000125593
0.000120527
0.000115574
0.000112501
0.000110134
0.000109008
0.000107501
0.000104242
0.000102098
0.000100399
9.94107e-05
9.4708e-05
9.17537e-05
8.57777e-05
8.60655e-05
7.84541e-05
7.92159e-05
7.28445e-05
7.94272e-05
7.66671e-05
0.000117591
0.000118225
0.000119562
0.000120004
0.000120096
0.00011931
0.000118117
0.000114789
0.000116475
0.00011345
0.000108632
0.000106105
0.000107372
0.000104664
0.00010695
0.000105136
0.000109969
0.000104033
0.000108395
0.000105129
0.000116643
0.000114985
0.000114221
0.000114443
0.000113267
0.00010891
0.000104829
0.000101683
9.57044e-05
9.60002e-05
0.000102095
0.000102285
0.000104448
0.000104018
0.000106296
0.000100998
0.000103306
9.62674e-05
0.000100065
0.000100225
9.22244e-05
9.17805e-05
9.15677e-05
9.21704e-05
9.33716e-05
9.48646e-05
9.81351e-05
0.000103792
0.000109712
0.000106635
0.000100415
9.86538e-05
9.9174e-05
9.81418e-05
9.90704e-05
9.95547e-05
0.000102521
0.000101676
0.000107344
0.000105979
6.05811e-05
6.19102e-05
6.44583e-05
6.52791e-05
6.47635e-05
6.51878e-05
6.41362e-05
6.06052e-05
5.74113e-05
5.9703e-05
6.5071e-05
6.7658e-05
6.83617e-05
6.86044e-05
6.88534e-05
6.92033e-05
6.88491e-05
7.1594e-05
7.65115e-05
7.30156e-05
2.86853e-05
3.00512e-05
3.0894e-05
3.19847e-05
3.27291e-05
3.34809e-05
3.46188e-05
3.6246e-05
3.82116e-05
3.98077e-05
4.17234e-05
4.22174e-05
4.43035e-05
4.45692e-05
4.78932e-05
4.78818e-05
5.23213e-05
5.1606e-05
5.26941e-05
5.68609e-05
2.57788e-06
3.72905e-06
4.37524e-06
4.83054e-06
5.10017e-06
5.43358e-06
6.03301e-06
6.64268e-06
7.45955e-06
8.08796e-06
8.566e-06
9.12178e-06
1.01823e-05
1.21824e-05
1.44024e-05
1.59842e-05
1.84099e-05
1.81497e-05
1.4445e-05
1.9007e-05
0.00110929
0.00131242
0.0010277
0.00112965
0.00115248
0.00116229
0.00120027
0.00123412
0.00128109
0.00131187
0.00136963
0.00140514
0.00147068
0.00150711
0.00158624
0.00163956
0.00161623
0.00239403
0.00822954
0.0212939
0.00105809
0.00117337
0.000967524
0.00106667
0.00112179
0.00114735
0.00118732
0.00123062
0.00127128
0.00131339
0.00136176
0.00140065
0.00146343
0.00149956
0.0015724
0.00160766
0.00163613
0.00181958
0.00718712
0.0208239
0.0011036
0.00126471
0.000992378
0.0010822
0.00112478
0.00114687
0.00119564
0.00123917
0.00128392
0.00131946
0.00137513
0.00141029
0.00147075
0.00150867
0.0015946
0.00161442
0.00167037
0.00149311
0.0062488
0.0203445
0.00116036
0.00126837
0.000989197
0.00109254
0.00112987
0.00115883
0.00120365
0.00123825
0.00127206
0.00131584
0.00135916
0.00139597
0.00146701
0.00150281
0.00157837
0.00158654
0.00167897
0.00146379
0.00547105
0.0197921
0.00115896
0.0012777
0.00100614
0.00110951
0.00113974
0.00116983
0.00120663
0.00123966
0.00128546
0.00132454
0.00137223
0.00141709
0.00147447
0.0015027
0.00158085
0.00158428
0.00169708
0.00146302
0.00467188
0.0191908
0.00119619
0.0012835
0.00102753
0.00112075
0.00114966
0.0011785
0.00120697
0.00124715
0.00128776
0.00132385
0.00136892
0.00140748
0.00146115
0.00149973
0.00157165
0.0015899
0.00169485
0.00149115
0.00492984
0.0184758
0.00117767
0.00125916
0.00102378
0.00111531
0.00114687
0.00117016
0.00120227
0.00124797
0.0012823
0.00132249
0.00137027
0.00140693
0.00147038
0.0015084
0.00159066
0.00160639
0.0017246
0.00159406
0.00532137
0.017727
0.00116433
0.0012111
0.00102358
0.00110759
0.00113886
0.00116833
0.0012036
0.00125012
0.00127581
0.00132366
0.00135762
0.00140944
0.00146563
0.0015065
0.00158185
0.00161134
0.00174352
0.00161712
0.00510788
0.0169302
0.0011293
0.00119991
0.00104287
0.00111433
0.00114803
0.00116164
0.00119449
0.0012279
0.00125102
0.00130473
0.00135133
0.0014083
0.00145731
0.0015138
0.00159367
0.00164031
0.0017727
0.00164682
0.00439494
0.0158534
0.00111974
0.00116866
0.00101008
0.00107291
0.00109382
0.00111819
0.0011713
0.00120875
0.00125781
0.0013299
0.00136343
0.00141434
0.00145843
0.00152248
0.00157964
0.00162755
0.00171176
0.00165623
0.00357111
0.0142956
0.0010476
0.00109224
0.000979163
0.00106319
0.00110572
0.00116304
0.00121069
0.00123914
0.00128907
0.00132257
0.00132572
0.00138054
0.00142587
0.00149515
0.00154037
0.00161066
0.00168962
0.00170559
0.00298133
0.0121871
0.00108342
0.00115633
0.00106938
0.00114698
0.00116523
0.00120036
0.00120455
0.00122673
0.00125994
0.00127238
0.00130581
0.00140625
0.00144949
0.00152019
0.00154045
0.00159544
0.0016351
0.00167894
0.00250959
0.00988048
0.00111992
0.00116922
0.00105512
0.00109422
0.00110315
0.00112277
0.00112844
0.0011813
0.00121228
0.00124977
0.00134405
0.00139799
0.00139263
0.00144007
0.00146092
0.001545
0.00158501
0.00167918
0.0021491
0.00796107
0.000981041
0.000973868
0.000930439
0.00098275
0.00103332
0.00106917
0.00111446
0.00118391
0.00121205
0.0012918
0.00134886
0.00135414
0.00139508
0.00150198
0.00153161
0.00159883
0.00162917
0.00169921
0.00190308
0.00643338
0.000997086
0.00106367
0.00102788
0.00109988
0.00114177
0.00117753
0.00122278
0.00126489
0.0012981
0.00135409
0.00135327
0.00136864
0.00142577
0.00143854
0.00142048
0.00152749
0.00159154
0.00166102
0.00169635
0.00521889
0.00103178
0.00108979
0.0010351
0.00108905
0.00110535
0.00112334
0.00114373
0.00116527
0.00117809
0.001194
0.0011961
0.00125358
0.00131887
0.0013338
0.00144989
0.0016742
0.00163231
0.00169752
0.00169404
0.00452756
0.000972088
0.000997291
0.000963358
0.00101425
0.00104098
0.00106563
0.00110907
0.00114127
0.00118321
0.00124418
0.00130653
0.00141101
0.00144326
0.00154484
0.00167808
0.00161585
0.00143947
0.00160258
0.00165408
0.00434304
0.000993874
0.00102738
0.000996558
0.0010542
0.00107705
0.00112251
0.00115986
0.00120162
0.00126431
0.00129354
0.00132825
0.00135358
0.0013467
0.00139259
0.00132445
0.00124031
0.00140608
0.00165778
0.00170905
0.00398332
0.000959659
0.00100419
0.000979915
0.00103435
0.0010679
0.00109428
0.00111927
0.0011543
0.00116495
0.00119761
0.00122723
0.00124923
0.00129933
0.00135119
0.00137094
0.00153405
0.00178776
0.00170448
0.00158017
0.00430444
0.000953414
0.000999708
0.000966041
0.00102845
0.00105704
0.00108505
0.00111615
0.00115448
0.00117631
0.00123123
0.00126685
0.00134748
0.00138559
0.00146236
0.00152932
0.00162724
0.00155432
0.00147912
0.00154525
0.00282093
0.000763013
0.0008435
0.000782364
0.000705265
0.000693333
0.000662716
0.000672685
0.000631619
0.000625586
0.000626657
0.000628386
0.000690406
0.000636793
0.000436924
0.000234819
0.00183929
0.0083241
0.0143098
0.0125626
0.0030842
0.000755469
0.0008628
0.000832642
0.000727816
0.00070992
0.000682468
0.000691923
0.000669867
0.000668545
0.000659446
0.000680321
0.000713177
0.000736761
0.000616276
0.00033501
0.000512606
0.0063099
0.0132393
0.0137568
0.00285989
0.00077087
0.000867124
0.000867554
0.000779422
0.000767106
0.00072293
0.000732093
0.000707762
0.00070159
0.000706615
0.000712947
0.000737798
0.000810907
0.000754856
0.000464136
0.000230841
0.00347638
0.0122165
0.0145449
0.00633563
0.000769818
0.000871824
0.00090628
0.000794339
0.000779071
0.000756974
0.000776475
0.000757785
0.000758056
0.00076541
0.000782102
0.000810438
0.00084932
0.000858261
0.00070498
0.000412916
0.00169808
0.010906
0.0150026
0.00913668
0.000800106
0.000894683
0.000941798
0.000843417
0.000834873
0.000791092
0.000803383
0.000798327
0.000799427
0.000808022
0.000829414
0.000872871
0.000908278
0.000976101
0.000913335
0.000490664
0.000607302
0.00980166
0.0151846
0.0117047
0.000803255
0.000892356
0.000974448
0.000863702
0.00085512
0.000832892
0.000859297
0.000849153
0.000850555
0.00087503
0.000896689
0.000933498
0.000978111
0.00103424
0.00101643
0.000725489
0.000387611
0.0080304
0.0151802
0.0141564
0.000850512
0.000922718
0.00100327
0.000894225
0.000891318
0.000862301
0.000879013
0.000886264
0.000894778
0.000910862
0.000939533
0.000987563
0.00103395
0.00108187
0.0011371
0.000951055
0.000325654
0.00588177
0.0149303
0.0170887
0.000829404
0.000896582
0.00102245
0.000906706
0.000908138
0.000888706
0.000916562
0.000917502
0.000924405
0.000958772
0.000985136
0.00103542
0.00108788
0.00112525
0.00118474
0.00112308
0.000217776
0.00413801
0.0148473
0.018302
0.000881815
0.000945316
0.00105704
0.000930197
0.000934633
0.000925628
0.000951978
0.000965841
0.000979017
0.00100056
0.00103275
0.00108177
0.00112279
0.00116788
0.00124709
0.00119781
0.000311588
0.0029401
0.0143007
0.0197239
0.000861796
0.00090347
0.00104718
0.000927028
0.000946177
0.000939816
0.00096312
0.000971225
0.000985556
0.00102762
0.00106135
0.00112184
0.00117331
0.00123674
0.00127921
0.00127848
0.000588975
0.00213009
0.0141171
0.0202526
0.000907626
0.000950505
0.00108376
0.000955852
0.000968139
0.00097363
0.00100636
0.00102755
0.00104972
0.00107779
0.00111598
0.00116718
0.00120913
0.00125956
0.00131678
0.00139553
0.00077589
0.00149092
0.0135904