/*--------------------------------*- C++ -*----------------------------------*\
  =========                 |
  \\      /  F ield         | OpenFOAM: The Open Source CFD Toolbox
   \\    /   O peration     | Website:  https://openfoam.org
    \\  /    A nd           | Version:  9
     \\/     M anipulation  |
\*---------------------------------------------------------------------------*/
FoamFile
{
    format      ascii;
    class       volScalarField;
    location    "13";
    object      p;
}
// * * * * * * * * * * * * * * * * * * * * * * * * * * * * * * * * * * * * * //

dimensions      [0 2 -2 0 0 0 0];

internalField   nonuniform List<scalar> 
46400
(
-48.0024
-40.1517
-28.4174
-17.8695
-8.76873
-0.100897
7.54952
14.6664
21.0675
26.975
32.3709
37.3833
41.9876
46.3188
50.3798
54.2625
57.8912
61.6138
65.6797
66.861
-15.4615
-9.30228
1.14221
10.7243
19.0045
26.789
33.6788
40.0063
45.6974
50.8787
55.5908
59.8787
63.8089
67.3948
70.6917
73.7373
76.5001
79.1945
81.8263
82.0041
15.1057
20.0333
29.7179
38.766
46.2722
53.2808
59.3757
64.9142
69.8328
74.2692
78.2548
81.8651
85.1044
88.0509
90.7163
93.1148
95.2325
97.2816
99.0979
98.4617
44.0568
49.3909
58.504
66.6667
73.3388
79.4714
84.7311
89.4447
93.5854
97.2618
100.52
103.411
105.977
108.237
110.248
112.03
113.545
114.968
116.314
115.331
73.6547
79.5199
87.3832
94.449
100.11
105.23
109.617
113.44
116.789
119.678
122.224
124.428
126.364
128.02
129.469
130.692
131.708
132.656
133.585
132.371
103.185
109.516
115.812
121.651
126.214
130.333
133.793
136.774
139.32
141.475
143.294
144.815
146.082
147.118
147.953
148.614
149.063
149.478
149.85
148.356
132.227
138.805
143.164
147.673
151.208
154.223
156.824
158.921
160.717
162.141
163.322
164.229
164.955
165.463
165.841
166.05
166.113
166.087
166.21
164.52
160.18
165.415
168.963
172.139
174.81
176.954
178.746
180.13
181.21
181.983
182.535
182.829
182.966
182.907
182.737
182.45
182.029
181.583
181.29
179.48
185.406
189.225
192.13
194.37
196.278
197.66
198.781
199.5
199.991
200.172
200.191
199.997
199.677
199.197
198.61
197.921
197.12
196.295
195.58
193.542
208.481
211.626
213.822
215.378
216.571
217.292
217.777
217.901
217.843
217.502
216.997
216.268
215.428
214.446
213.386
212.239
211.019
209.791
208.693
206.503
228.851
231.216
232.954
233.871
234.537
234.677
234.592
234.168
233.562
232.759
231.832
230.759
229.573
228.267
226.876
225.39
223.826
222.237
220.759
218.37
248.063
249.945
251.194
251.659
251.898
251.57
251.026
250.089
248.967
247.596
246.133
244.521
242.867
241.115
239.335
237.49
235.595
233.691
231.868
229.299
263.855
265.206
266.015
266.106
265.939
265.311
264.407
263.28
261.966
260.432
258.729
256.858
254.879
252.801
250.672
248.497
246.273
244.045
241.888
239.084
279.929
280.671
280.966
280.454
279.752
278.517
277.087
275.393
273.578
271.616
269.54
267.373
265.111
262.797
260.422
258.033
255.592
253.168
250.851
247.895
292.478
292.434
292.414
291.571
290.598
289.268
287.729
285.907
283.902
281.732
279.439
277.047
274.568
272.029
269.437
266.823
264.172
261.542
259.071
255.98
303.364
303.37
302.746
301.665
300.128
298.415
296.409
294.268
291.943
289.514
286.988
284.386
281.743
279.047
276.337
273.604
270.854
268.123
265.587
262.398
310.646
310.695
310.082
308.962
307.521
305.722
303.688
301.441
299.021
296.478
293.803
291.075
288.255
285.427
282.543
279.684
276.778
273.913
271.232
267.956
317.829
317.425
316.349
314.834
313.017
310.896
308.605
306.104
303.503
300.763
297.966
295.092
292.189
289.259
286.324
283.4
280.465
277.563
274.898
271.605
320.548
320.307
319.339
318.031
316.359
314.401
312.194
309.773
307.196
304.464
301.653
298.736
295.799
292.797
289.819
286.814
283.837
280.867
278.197
274.761
322.623
321.715
320.916
319.281
317.612
315.423
313.142
310.57
307.92
305.11
302.246
299.309
296.334
293.343
290.325
287.333
284.31
281.326
278.525
275.296
-391.868
-390.759
-385.891
-375.332
-361.859
-348.812
-336.4
-324.261
-312.797
-301.698
-291.082
-280.832
-271.044
-261.529
-252.519
-243.67
-235.355
-227.192
-219.511
-212.217
-394.826
-393.854
-385.847
-373.645
-359.346
-345.327
-332.27
-319.685
-307.691
-296.34
-285.404
-274.985
-265.009
-255.374
-246.263
-237.353
-229.028
-220.829
-213.225
-205.911
-398.072
-395.567
-384.291
-370.95
-355.411
-340.752
-327.098
-314.131
-301.798
-290.08
-278.964
-268.303
-258.182
-248.449
-239.265
-230.315
-221.987
-213.793
-206.275
-198.977
-395.13
-393.458
-379.354
-364.897
-349.716
-334.801
-320.711
-307.554
-294.956
-283.084
-271.735
-260.989
-250.754
-240.948
-231.708
-222.722
-214.414
-206.209
-198.763
-191.416
-391.156
-390.266
-377.862
-360.302
-343.952
-328.462
-313.811
-300.125
-287.213
-275.029
-263.526
-252.603
-242.262
-232.41
-223.137
-214.169
-205.899
-197.719
-190.344
-183.01
-387.94
-385.259
-370.78
-352.838
-335.672
-319.771
-304.906
-291.052
-277.977
-265.737
-254.14
-243.203
-232.863
-223.036
-213.784
-204.86
-196.675
-188.479
-181.327
-173.934
-379.688
-376.662
-361.554
-343.086
-325.858
-309.651
-294.64
-280.632
-267.446
-255.126
-243.51
-232.571
-222.246
-212.471
-203.284
-194.483
-186.364
-178.331
-171.33
-164.073
-370.347
-366.269
-350.122
-331.266
-313.765
-297.527
-282.381
-268.418
-255.254
-242.98
-231.454
-220.594
-210.394
-200.743
-191.675
-183.006
-175.014
-167.142
-160.274
-153.101
-357.482
-352.724
-335.821
-317.032
-299.617
-283.486
-268.461
-254.581
-241.539
-229.421
-218.025
-207.354
-197.312
-187.852
-178.966
-170.523
-162.724
-155.048
-148.415
-141.368
-342.327
-336.826
-319.516
-300.682
-283.381
-267.485
-252.58
-238.945
-226.121
-214.19
-203.066
-192.59
-182.803
-173.584
-164.936
-156.738
-149.157
-141.746
-135.389
-128.55
-324.331
-318.246
-300.559
-282.247
-265.069
-249.576
-234.986
-221.629
-209.121
-197.523
-186.668
-176.534
-167.038
-158.125
-149.767
-141.886
-134.579
-127.463
-121.382
-114.693
-303.738
-297.142
-279.599
-261.535
-244.885
-229.798
-215.65
-202.701
-190.602
-179.341
-168.902
-159.088
-149.95
-141.374
-133.343
-125.783
-118.752
-111.955
-106.151
-99.6759
-281.22
-274.333
-256.567
-239.273
-222.931
-208.424
-194.693
-182.212
-170.572
-159.788
-149.762
-140.417
-131.715
-123.575
-115.976
-108.867
-102.267
-95.9211
-90.5494
-84.3342
-256.236
-249.146
-231.486
-215.153
-199.416
-185.451
-172.401
-160.406
-149.327
-138.999
-129.482
-120.572
-112.299
-104.577
-97.3801
-90.6617
-84.3962
-78.4454
-73.3524
-67.4395
-230.17
-222.927
-205.011
-189.547
-174.441
-161.134
-148.663
-137.304
-126.793
-117.051
-108.059
-99.6889
-91.9495
-84.7324
-78.0406
-71.828
-66.0611
-60.6203
-55.973
-50.3624
-202.419
-194.531
-176.689
-162.386
-148.228
-135.608
-123.976
-113.204
-103.371
-94.1961
-85.776
-77.9439
-70.6873
-63.9577
-57.729
-51.9677
-46.6075
-41.6408
-37.3599
-32.1071
-173.335
-165.494
-148.474
-134.604
-121.361
-109.394
-98.4187
-88.3442
-79.1105
-70.5575
-62.7094
-55.4255
-48.7374
-42.5136
-36.7926
-31.5235
-26.6466
-22.2036
-18.3477
-13.4371
-142.928
-134.993
-118.799
-105.909
-93.5456
-82.3809
-72.2349
-62.83
-54.3163
-46.3896
-39.1312
-32.4254
-26.2261
-20.5073
-15.2565
-10.4266
-5.95817
-2.01599
1.44299
5.94725
-111.775
-104.019
-89.0117
-76.7442
-65.4835
-55.0257
-45.6668
-36.9815
-29.1141
-21.8321
-15.1701
-8.99924
-3.35444
1.90036
6.70387
11.1534
15.2657
18.7735
22.0149
26.7011
-80.4676
-72.4226
-58.75
-47.3927
-37.0904
-27.5245
-18.9558
-11.0155
-3.82286
2.84018
8.9742
14.649
19.9392
24.8661
29.4737
33.8788
38.002
41.7417
45.9649
50.9546
-176.348
-137.094
-99.8652
-76.9706
-53.727
-39.415
-24.7041
-15.0312
-5.75271
0.86781
6.70152
11.4766
15.1483
18.5083
20.7909
23.1709
25.0458
26.4101
27.1351
27.3039
-170.455
-132.882
-96.4675
-74.6039
-51.8666
-37.947
-23.5103
-14.0198
-4.96574
1.63138
7.26297
12.016
15.538
18.8302
20.9463
23.3504
25
26.4267
27.1229
27.1845
-164.074
-128.643
-93.055
-72.0512
-49.8557
-36.2721
-22.2068
-12.9348
-4.11821
2.42184
7.8422
12.562
15.9537
19.2212
21.1532
23.554
24.9433
26.5934
27.1153
27.2421
-157.149
-123.808
-89.2296
-69.2116
-47.7008
-34.4656
-20.7777
-11.7121
-3.16373
3.31582
8.51161
13.1826
16.4363
19.6025
21.3521
23.7451
24.8532
26.7932
27.0929
27.228
-149.647
-118.826
-85.223
-66.2142
-45.3377
-32.6182
-19.3068
-10.4393
-2.19047
4.23663
9.20746
13.8111
16.9402
20.0549
21.6116
23.9671
24.8385
27.1023
27.181
27.2588
-141.502
-113.33
-80.8747
-63.0658
-42.8646
-30.5796
-17.6713
-9.00683
-1.08622
5.26272
9.99982
14.5053
17.5185
20.5024
21.8763
24.3518
24.8541
27.3682
27.1667
27.2833
-132.856
-107.523
-76.2339
-59.793
-40.161
-28.5446
-16.0261
-7.56091
0.0124013
6.30641
10.8127
15.2283
18.116
21.0218
22.2471
24.7615
24.8985
27.6802
27.1106
27.3489
-123.685
-101.116
-71.4754
-56.1462
-37.4582
-26.2158
-14.2271
-5.93013
1.25464
7.46201
11.727
15.9996
18.7879
21.5386
22.623
25.1886
25.0224
27.9656
27.0775
27.4084
-114.144
-94.3077
-66.5504
-52.308
-34.5589
-23.8796
-12.4166
-4.31332
2.48626
8.61435
12.6612
16.7992
19.4777
22.1157
23.08
25.626
25.1641
28.2972
27.0891
27.5104
-104.225
-87.083
-61.3458
-48.24
-31.6153
-21.2904
-10.4614
-2.50899
3.85486
9.89634
13.6896
17.6414
20.2359
22.6794
23.5402
26.0358
25.3255
28.5127
27.0576
27.5965
-93.3869
-79.3821
-56.0186
-43.955
-28.5643
-18.65
-8.48905
-0.726775
5.22844
11.1386
14.7296
18.5269
21.0175
23.404
24.1302
26.4706
25.5183
28.6938
27.0238
27.7489
-82.5181
-71.3569
-50.4662
-39.4843
-25.3886
-15.8691
-6.36453
1.22012
6.76301
12.4979
15.9196
19.4524
21.8683
24.0566
24.727
26.9328
25.7281
28.9054
26.9984
27.8897
-70.3416
-62.921
-44.7447
-34.8318
-22.1006
-13.0403
-4.24305
3.14672
8.27077
13.8705
17.036
20.4184
22.7313
24.7789
25.3683
27.4256
25.9537
29.1209
26.9671
28.0698
-58.0286
-54.1885
-38.79
-30.0347
-18.6967
-10.0862
-1.96645
5.21425
9.92318
15.3399
18.2635
21.4441
23.6614
25.515
25.993
27.9516
26.1482
29.2997
26.9477
28.3415
-44.8159
-45.0875
-32.7465
-25.091
-15.1751
-7.11163
0.290614
7.27097
11.5284
16.8501
19.5171
22.4931
24.617
26.3002
26.6928
28.5015
26.3251
29.4695
26.8919
28.5331
-30.8153
-35.6092
-26.4605
-20.1025
-11.5777
-4.03714
2.66187
9.42756
13.255
18.4097
20.8278
23.5801
25.606
27.0886
27.3952
28.9248
26.4856
29.601
26.9076
28.9337
-16.4302
-25.5968
-19.9112
-14.7807
-7.74534
-0.851442
5.11063
11.6434
15.0006
20.0439
22.1947
24.7318
26.6682
27.9821
28.266
29.8459
26.6596
29.806
26.7199
29.1284
-2.63787
-16.351
-13.67
-9.68457
-3.91536
2.42129
7.63609
13.962
16.8736
21.7542
23.6838
25.9316
27.8019
28.9142
29.1278
30.8148
26.8524
30.0437
26.7445
29.7541
16.0344
-5.62879
-7.64436
-5.3923
-0.750098
4.94828
9.5574
15.8019
18.3165
23.1544
24.9233
26.7624
28.6539
29.4355
29.6162
30.8789
27.0163
29.5153
26.6113
29.808
39.3985
9.96127
2.00285
2.00413
4.50396
9.24448
12.9675
18.6232
20.6951
25.0894
26.4733
28.3322
29.9071
30.8698
31.0044
32.2392
28.4205
29.474
24.9572
30.5624
77.1772
77.0186
59.5734
56.6075
45.8871
47.3052
42.017
43.2836
41.608
43.5391
42.4448
45.5272
44.1697
47.0583
45.558
48.3421
45.6076
49.7084
29.2853
55.5719
123.051
113.084
90.0524
84.3519
72.207
68.0685
61.8835
59.8973
56.0514
55.1767
52.7587
52.878
51.1691
51.9305
50.3984
51.4233
49.3633
51.14
48.2183
50.8987
131.422
121.148
108.923
100.77
92.1656
86.6591
80.663
77.4994
73.8464
71.9433
69.5956
68.542
66.9912
66.5168
65.2862
65.3364
63.9387
63.673
62.645
63.402
133.142
126.161
116.401
109.559
102.281
97.0339
91.726
87.5268
83.5236
80.5019
77.5701
75.3623
73.0829
71.5402
69.9675
68.9259
67.7212
67.1564
66.348
66.4474
129.144
122.931
117.457
112.142
107.309
102.787
98.7815
95.2166
91.9747
89.212
86.6024
84.4589
82.3204
80.5565
78.7132
77.1624
75.488
73.9254
73.1238
73.0115
127.236
123.249
119.306
114.968
111.084
107.216
103.672
100.346
97.2036
94.4061
91.6665
89.3324
86.9666
84.9054
82.9149
80.9443
79.3229
77.519
76.5089
76.0437
123.479
120.479
117.535
114.639
111.897
109.189
106.541
104.086
101.607
99.4411
97.0714
95.0567
92.8692
91.0247
88.8448
86.9856
84.7768
82.8319
81.2547
80.6733
122.945
120.783
119.095
116.538
114.117
111.776
109.549
107.346
105.129
103.074
100.956
99.1176
96.8928
95.1239
92.8539
91.0127
88.5203
86.5378
84.2973
83.6623
120.872
119.065
117.546
116.004
114.598
113.094
111.417
109.97
108.273
106.872
105.049
103.693
101.797
100.449
98.3324
96.8808
94.29
92.7315
90.0613
89.4436
121.182
120.393
119.371
118.358
117.004
115.676
114.158
112.845
111.46
110.263
108.902
107.746
106.272
105.156
103.501
102.344
100.1
99.0144
95.3659
95.438
121.012
120.184
119.266
118.517
117.826
117.16
116.413
115.7
114.742
114.045
113.032
112.458
111.349
110.907
109.553
109.35
107.289
107.86
104.631
106.638
121.917
121.618
121.133
120.656
119.922
119.348
118.668
118.209
117.668
117.316
116.909
116.639
116.388
116.202
116.162
116.12
116.362
116.504
117.88
119.748
122.629
122.391
122.017
121.781
121.451
121.226
120.894
120.718
120.413
120.377
120.219
120.421
120.507
120.988
121.526
122.157
123.614
124.02
127.227
127.704
123.381
123.238
123.002
122.879
122.692
122.669
122.579
122.678
122.688
122.971
123.094
123.689
123.935
124.992
125.476
127.128
128.061
130.589
133.176
134.592
124.321
124.295
124.186
124.213
124.163
124.276
124.298
124.547
124.668
125.137
125.366
126.228
126.459
128.107
128.29
130.698
131.596
134.163
135.538
139.006
125.011
125.02
125.018
125.084
125.156
125.315
125.478
125.764
126.034
126.485
126.877
127.539
128.072
128.993
129.657
130.887
131.64
133.256
134.022
144.962
125.674
125.743
125.8
125.939
126.067
126.296
126.509
126.853
127.171
127.67
128.103
128.819
129.355
130.371
130.99
132.331
133.089
134.66
135.611
137.612
126.202
126.263
126.343
126.473
126.64
126.867
127.122
127.457
127.804
128.253
128.698
129.271
129.816
130.517
131.157
131.995
132.69
133.729
134.356
135.649
126.451
126.553
126.688
126.882
127.089
127.346
127.613
127.944
128.287
128.718
129.149
129.69
130.185
130.837
131.359
132.1
132.602
133.357
133.767
134.282
126.631
126.745
126.866
127.024
127.209
127.45
127.732
128.065
128.435
128.852
129.291
129.783
130.286
130.839
131.381
131.969
132.504
133.085
133.54
134.047
235.968
235.149
233.507
231.512
228.443
225.168
220.788
216.124
210.338
204.077
197.314
189.198
180.75
172.072
162.572
152.531
141.991
130.908
119.705
107.993
209.464
208.973
208.132
207.002
205.541
203.828
201.733
199.437
196.761
193.949
190.438
185.27
180.217
176.303
171.776
167.726
162.891
158.152
152.724
146.736
169.678
169.333
168.942
168.37
167.688
166.895
165.898
164.892
163.573
162.315
160.643
159.13
157.324
155.665
153.53
151.601
148.911
146.603
143.47
141.268
157.789
157.563
157.242
156.896
156.451
155.976
155.388
154.759
154
153.221
152.277
151.375
150.255
149.247
147.957
146.852
145.386
144.016
141.812
139.972
141.399
141.238
141.068
140.844
140.573
140.28
139.909
139.551
139.084
138.666
138.138
137.657
137.043
136.508
135.791
135.201
134.372
133.743
132.808
132.275
136.103
135.992
135.852
135.692
135.508
135.299
135.07
134.811
134.535
134.227
133.855
133.498
133.046
132.644
132.124
131.684
131.092
130.62
129.955
129.484
129.624
129.546
129.434
129.319
129.168
129.018
128.83
128.647
128.424
128.199
127.931
127.671
127.376
127.108
126.764
126.464
126.053
125.716
125.153
124.732
127.311
127.239
127.158
127.062
126.959
126.842
126.717
126.579
126.428
126.268
126.093
125.915
125.686
125.471
125.208
124.981
124.683
124.453
124.125
123.863
124.98
124.919
124.846
124.763
124.67
124.569
124.453
124.327
124.189
124.047
123.888
123.72
123.515
123.326
123.037
122.789
122.377
122.058
121.678
121.371
124.02
123.972
123.913
123.849
123.775
123.697
123.61
123.52
123.42
123.314
123.195
123.073
122.937
122.796
122.638
122.479
122.314
122.139
121.945
121.766
123.63
123.568
123.499
123.43
123.356
123.282
123.205
123.121
123.028
122.929
122.822
122.709
122.587
122.459
122.322
122.179
122.024
121.867
121.699
121.528
123.707
123.653
123.598
123.538
123.475
123.404
123.323
123.239
123.15
123.063
122.98
122.902
122.822
122.74
122.655
122.567
122.477
122.381
122.286
122.186
124.143
124.103
124.061
124.015
123.968
123.917
123.863
123.805
123.744
123.679
123.611
123.539
123.465
123.387
123.308
123.225
123.141
123.053
122.966
122.87
124.436
124.405
124.372
124.337
124.301
124.263
124.223
124.182
124.139
124.094
124.048
123.999
123.95
123.897
123.845
123.788
123.733
123.67
123.612
123.543
125.068
125.039
125.01
124.98
124.949
124.917
124.886
124.853
124.82
124.786
124.752
124.716
124.682
124.644
124.61
124.57
124.535
124.494
124.458
124.414
125.453
125.429
125.405
125.382
125.359
125.337
125.314
125.293
125.271
125.25
125.23
125.208
125.189
125.167
125.149
125.127
125.11
125.086
125.071
125.046
125.982
125.96
125.938
125.916
125.893
125.871
125.849
125.829
125.81
125.792
125.776
125.76
125.747
125.733
125.722
125.71
125.702
125.691
125.687
125.677
126.207
126.185
126.166
126.149
126.136
126.126
126.118
126.113
126.11
126.11
126.112
126.114
126.117
126.12
126.125
126.13
126.137
126.145
126.155
126.164
126.57
126.554
126.539
126.526
126.512
126.5
126.488
126.477
126.466
126.455
126.446
126.439
126.436
126.433
126.435
126.434
126.438
126.438
126.444
126.451
126.677
126.657
126.637
126.619
126.602
126.586
126.571
126.556
126.543
126.531
126.521
126.515
126.513
126.515
126.521
126.529
126.542
126.556
126.575
126.593
65.2264
62.7494
57.2187
52.1873
47.1347
41.7315
36.0679
30.037
23.5892
16.609
9.10466
0.884287
-7.97521
-17.7667
-28.3679
-40.1066
-53.0627
-66.9232
-83.892
-92.4977
79.1715
77.8948
74.1215
70.1935
66.1249
61.6521
56.8239
51.5807
45.8858
39.6807
32.932
25.5429
17.4927
8.60655
-1.04478
-11.8122
-23.5228
-36.4463
-51.7861
-60.6695
95.2272
94.9445
91.9874
88.7923
85.4047
81.6196
77.4894
72.9704
68.0381
62.6168
56.7101
50.1642
43.0497
35.1069
26.4887
16.7844
6.23571
-5.51537
-19.4389
-28.0996
111.972
111.991
109.497
106.953
104.211
101.115
97.6992
93.9207
89.7202
85.0765
79.9371
74.243
67.9669
60.9682
53.305
44.634
35.2994
24.6435
12.4769
4.67393
128.789
129.225
127.252
125.29
123.141
120.654
117.87
114.742
111.241
107.334
102.986
98.0974
92.6962
86.5656
79.8372
72.141
63.8292
54.1718
43.3736
37.008
145.551
146.13
144.536
143.05
141.399
139.472
137.284
134.806
131.981
128.793
125.158
121.054
116.417
111.155
105.277
98.5104
91.0663
82.3195
72.3909
66.9945
161.526
162.361
161.271
160.301
159.195
157.846
156.26
154.41
152.247
149.759
146.875
143.571
139.792
135.405
130.451
124.598
118.132
110.328
101.087
95.8481
176.679
177.739
177.152
176.658
176.06
175.26
174.246
173.009
171.506
169.705
167.548
165.014
162.009
158.493
154.413
149.571
144.131
137.39
129.385
123.627
190.755
192.139
192.091
192.11
192.039
191.789
191.345
190.72
189.842
188.723
187.286
185.537
183.372
180.777
177.657
173.867
169.525
163.932
157.754
151.433
204.205
205.835
206.235
206.703
207.099
207.361
207.456
207.412
207.15
206.687
205.939
204.905
203.488
201.701
199.406
196.62
193.228
188.983
184.25
178.18
216.278
218.192
219.083
220.014
220.912
221.666
222.291
222.774
223.058
223.155
222.996
222.621
221.917
220.928
219.49
217.671
215.27
212.314
208.675
203.943
227.437
229.732
231.078
232.473
233.801
235.001
236.067
237.022
237.795
238.442
238.872
239.117
239.066
238.735
237.993
236.905
235.294
233.243
230.486
226.841
238.564
241
242.407
243.972
245.53
247.002
248.409
249.737
250.945
252.044
252.949
253.678
254.119
254.347
254.204
253.782
252.875
251.584
249.598
246.725
247.201
249.637
251.486
253.446
255.392
257.295
259.121
260.896
262.546
264.102
265.472
266.702
267.666
268.458
268.888
269.08
268.727
268.066
266.603
264.42
254.839
257.681
259.898
262.209
264.494
266.725
268.879
270.977
272.954
274.835
276.532
278.105
279.433
280.586
281.397
282.024
282.094
281.921
280.955
279.321
261.899
264.856
267.163
269.614
272.056
274.445
276.788
279.077
281.275
283.405
285.405
287.319
289.038
290.627
291.942
293.042
293.628
293.916
293.39
292.361
267.022
270.007
272.497
275.144
277.799
280.429
283.042
285.624
288.161
290.632
293.018
295.295
297.404
299.337
300.947
302.297
303.208
304.025
303.997
303.952
271.378
274.549
277.217
280.044
282.875
285.678
288.447
291.195
293.849
296.453
298.907
301.265
303.405
305.418
307.129
308.719
309.991
311.091
311.638
311.796
273.802
277.013
279.712
282.61
285.508
288.401
291.275
294.137
296.95
299.725
302.408
305.032
307.5
309.87
312.014
313.979
315.605
316.868
317.513
317.545
275.757
279.063
281.835
284.819
287.806
290.796
293.757
296.728
299.623
302.51
305.269
307.988
310.495
312.928
315.023
316.979
318.441
319.729
320.494
320.803
-170.393
-176.257
-182.407
-188.889
-195.398
-202.312
-209.239
-216.504
-223.848
-231.43
-239.126
-246.946
-255.024
-263.005
-271.245
-278.852
-285.404
-289.987
-289.772
-290.402
-166.272
-172.326
-178.612
-185.339
-192.078
-199.304
-206.575
-214.249
-222.077
-230.192
-238.541
-247.144
-256.008
-264.958
-274.304
-283.392
-292.114
-298.873
-298.93
-299.915
-161.652
-167.94
-174.426
-181.462
-188.526
-196.12
-203.839
-211.992
-220.393
-229.154
-238.237
-247.654
-257.42
-267.631
-278.049
-288.913
-299.736
-308.521
-311.56
-312.11
-156.959
-163.473
-170.112
-177.424
-184.756
-192.703
-200.823
-209.438
-218.401
-227.799
-237.656
-247.968
-258.863
-270.363
-282.255
-295.094
-308.368
-319.976
-326.559
-327.308
-151.464
-158.212
-165.03
-172.617
-180.253
-188.531
-197.073
-206.15
-215.665
-225.699
-236.28
-247.461
-259.331
-271.879
-285.32
-299.723
-315.046
-329.62
-340.301
-340.797
-145.528
-152.484
-159.416
-167.229
-175.084
-183.639
-192.515
-201.963
-211.932
-222.48
-233.688
-245.571
-258.274
-271.831
-286.53
-302.195
-319.149
-336.3
-349.669
-349.569
-138.753
-145.834
-152.803
-160.781
-168.826
-177.579
-186.735
-196.493
-206.834
-217.822
-229.528
-242.005
-255.369
-269.737
-285.207
-301.886
-320.027
-338.956
-353.832
-357.533
-131.213
-138.466
-145.397
-153.449
-161.581
-170.441
-179.75
-189.689
-200.256
-211.509
-223.541
-236.363
-250.183
-264.997
-280.99
-298.396
-317.328
-337.108
-353.174
-358.454
-122.23
-129.558
-136.512
-144.59
-152.81
-161.738
-171.165
-181.237
-191.971
-203.421
-215.667
-228.774
-242.865
-257.985
-274.302
-292.05
-310.918
-330.688
-349.694
-354.098
-112.808
-120.174
-126.977
-134.973
-143.127
-151.974
-161.361
-171.404
-182.144
-193.641
-205.981
-219.209
-233.526
-248.882
-265.658
-283.769
-303.246
-325.177
-343.219
-347.445
-101.669
-108.949
-115.636
-123.482
-131.559
-140.298
-149.619
-159.602
-170.287
-181.738
-194.021
-207.228
-221.476
-236.835
-253.575
-271.667
-291.594
-313.065
-332.998
-338.841
-90.0874
-97.2826
-103.67
-111.282
-119.143
-127.648
-136.748
-146.52
-157.002
-168.27
-180.397
-193.454
-207.603
-222.826
-239.472
-257.371
-276.844
-298.317
-318.084
-324.064
-76.3461
-83.472
-89.6569
-96.9891
-104.661
-112.924
-121.811
-131.359
-141.608
-152.64
-164.505
-177.311
-191.15
-206.105
-222.475
-240.076
-259.604
-280.741
-301.073
-308.173
-61.6462
-68.7222
-74.777
-81.8666
-89.2913
-97.2674
-105.839
-115.056
-124.955
-135.629
-147.126
-159.545
-173.007
-187.558
-203.482
-220.54
-239.439
-259.993
-280.198
-287.551
-46.5521
-53.3154
-58.914
-65.512
-72.5342
-80.0789
-88.2506
-97.0652
-106.556
-116.817
-127.882
-139.876
-152.851
-166.922
-182.288
-198.83
-217.351
-237.055
-257.309
-265.083
-29.7572
-36.3148
-41.6446
-47.865
-54.5618
-61.7447
-69.5209
-77.9198
-86.9623
-96.7535
-107.314
-118.756
-131.163
-144.623
-159.357
-175.203
-192.926
-211.634
-232.077
-239.931
-12.4649
-18.7422
-23.6378
-29.3363
-35.6038
-42.3164
-49.6238
-57.5465
-66.0984
-75.3767
-85.3963
-96.3049
-108.102
-120.962
-134.953
-150.101
-166.964
-184.773
-204.84
-212.867
5.94103
-0.0487181
-4.58552
-9.81034
-15.7086
-22.031
-28.9005
-36.3673
-44.4233
-53.1715
-62.6262
-72.8977
-84.036
-96.1568
-109.412
-123.759
-139.749
-156.787
-176.241
-184.57
26.1468
19.7946
15.4684
10.7352
5.17553
-0.79771
-7.23761
-14.2424
-21.8005
-30.0119
-38.8632
-48.5351
-58.9701
-70.4275
-82.8572
-96.3952
-111.482
-127.406
-146.123
-154.499
50.3725
43.8505
38.1855
33.017
27.3872
21.3739
15.0676
8.33781
1.15189
-6.57895
-14.8943
-23.9138
-33.6738
-44.3362
-55.9179
-68.6205
-82.6897
-97.7813
-115.612
-123.894
34.8049
34.7477
33.8019
32.8495
30.9606
28.3337
26.3094
22.5994
19.6162
14.6505
9.92871
3.37773
-4.36124
-13.0186
-25.7852
-37.6616
-58.1608
-76.5247
-108.378
-141.393
34.8723
34.8265
34.108
33.0922
31.4251
28.8645
26.9679
23.3706
20.5462
15.6827
11.1331
4.76357
-2.75482
-11.141
-23.6636
-35.0822
-55.3619
-72.9189
-104.581
-136.758
35.0138
35.014
34.4206
33.3484
31.8679
29.3753
27.6509
24.1457
21.447
16.7257
12.3438
6.12592
-1.16573
-9.28912
-21.5315
-32.3822
-52.3103
-69.0749
-100.468
-131.446
35.1076
35.1076
34.6985
33.6475
32.3586
29.9458
28.3547
24.9801
22.4369
17.825
13.6313
7.57977
0.544763
-7.34259
-19.2596
-29.7028
-49.467
-65.1679
-96.4299
-126.322
35.2865
35.2465
34.9777
33.9734
32.849
30.5002
29.0805
25.808
23.402
18.9304
14.9171
9.01099
2.23962
-5.42096
-16.9534
-26.9614
-46.2178
-61.0158
-91.9137
-120.351
35.448
35.4346
35.2994
34.3194
33.3858
31.1281
29.8318
26.7071
24.4519
20.0973
16.2827
10.5315
4.04908
-3.40099
-14.5302
-24.1812
-43.0289
-56.9963
-87.5143
-114.429
35.6483
35.6632
35.6665
34.6484
33.9849
31.7298
30.5876
27.5954
25.4842
21.2674
17.642
12.0339
5.84515
-1.4046
-12.0887
-21.3492
-39.5473
-52.6279
-82.3878
-107.54
35.8565
35.9007
35.9955
35.0058
34.644
32.4156
31.4162
28.5577
26.5967
22.5026
19.081
13.6226
7.7474
0.691445
-9.51997
-18.4489
-36.0826
-48.338
-77.3696
-100.809
36.0793
36.1764
36.3187
35.404
35.2297
33.1491
32.2213
29.5179
27.6944
23.7392
20.51
15.1977
9.63808
2.76605
-6.94365
-15.5249
-32.3822
-43.7012
-71.5872
-92.9597
36.3203
36.4707
36.6553
35.8424
35.8094
33.925
33.1372
30.5443
28.8671
25.0413
22.0162
16.8552
11.6243
4.94047
-4.23704
-12.5128
-28.6301
-39.09
-65.9173
-85.0783
36.5992
36.8041
37.0087
36.3124
36.4296
34.6205
34.0342
31.5598
30.0301
26.3438
23.5097
18.5034
13.6006
7.09798
-1.53196
-9.49823
-24.6974
-34.182
-59.5121
-76.2977
36.9027
37.1662
37.3704
36.8093
37.0782
35.3758
34.9911
32.6424
31.2613
27.71
25.076
20.2291
15.6601
9.35279
1.29529
-6.38637
-20.6574
-29.2482
-53.2386
-67.2524
37.1864
37.5105
37.7478
37.3016
37.7542
36.1023
35.9226
33.7074
32.4867
29.0759
26.6269
21.9481
17.7105
11.5961
4.11178
-3.28529
-16.4891
-24.1176
-46.0752
-55.8317
37.4565
37.8147
38.124
37.8099
38.4576
36.9533
36.9206
34.848
33.7765
30.5035
28.2467
23.7414
19.8358
13.9376
7.04129
-0.0702756
-12.1597
-18.8454
-39.1654
-45.2971
37.7145
38.0573
38.5217
38.3188
39.1881
37.8212
37.9126
35.9823
35.0643
31.9293
29.8488
25.5289
21.9507
16.2669
9.93758
3.11315
-7.72814
-12.9885
-31.5243
-33.6836
37.9806
38.2494
38.9042
38.835
39.9384
38.7374
38.9652
37.1743
36.4034
33.4011
31.4994
27.3675
24.1083
18.6604
12.8914
6.36819
-3.20538
-7.47523
-23.7835
-21.2961
38.1695
38.4128
39.3197
39.4315
40.7382
39.6886
40.0196
38.3654
37.7516
34.8968
33.1616
29.2385
26.3171
21.1354
15.944
9.77801
1.64467
-1.90275
-15.3048
-8.1165
38.5941
38.7405
40.1285
40.0625
41.585
40.7144
41.1577
39.6601
39.1925
36.451
34.9021
31.2036
28.5973
23.676
18.9778
13.1476
6.29463
3.53577
-7.51563
4.60357
38.6529
38.6088
40.2478
40.5658
42.2064
41.6121
42.1294
40.81
40.4815
37.7772
36.3544
32.8441
30.4503
25.6601
21.1916
15.6057
9.91668
7.8183
1.0225
22.6333
39.1903
37.1451
40.3443
41.3074
43.3329
42.7011
43.3282
42.0298
41.8098
39.4926
38.153
34.8453
32.9083
28.6266
25.1438
20.4764
17.1638
16.4356
14.5361
44.1925
59.6558
42.7562
54.7088
50.4417
54.827
52.6785
54.4958
53.3458
54.2626
53.8467
55.05
54.643
56.9533
56.935
61.7341
63.0485
70.5554
74.0448
86.8096
79.7215
57.9036
54.9531
58.2905
55.8698
59.0963
58.4152
60.2895
60.5566
62.2423
63.2765
65.6803
67.9626
71.9121
75.1704
81.6973
85.9397
97.3872
103.685
123.903
132.987
71.4117
71.1175
71.4011
72.1921
72.9118
73.6383
74.8822
75.9159
77.8113
79.3838
82.2245
84.4893
88.1496
91.4455
96.7876
101.683
109.655
116.106
127.89
136.418
75.1096
75.3547
75.6782
76.5934
77.4529
78.7407
80.3531
82.2968
84.6971
87.2626
90.2834
93.379
97.4609
101.463
106.884
111.85
119.085
124.965
134.286
138.99
81.5585
81.7876
82.4618
83.8964
85.3403
86.7817
88.5819
90.3043
92.4133
94.3938
96.9433
99.52
102.614
105.836
109.515
113.418
117.743
122.109
126.966
133.009
84.8533
85.2442
86.2161
87.7456
89.2634
91.0672
93.0681
94.932
97.2702
99.46
102.188
104.67
107.819
110.675
114.25
117.442
121.329
124.685
128.986
131.623
88.5634
89.1181
90.5209
92.1854
94.2687
95.863
97.9053
99.5541
101.653
103.444
105.602
107.605
109.857
112.087
114.425
116.824
119.229
121.636
123.557
126.187
91.0545
91.6064
93.6929
95.4121
97.7937
99.4099
101.629
103.173
105.325
106.911
109.048
110.713
112.844
114.612
116.664
118.539
120.397
122.291
124.204
125.644
95.4808
96.0103
98.7075
100.17
102.762
104.06
106.147
107.341
109.156
110.348
112.008
113.227
114.822
116.052
117.631
118.82
120.35
121.473
122.348
123.265
99.8968
100.217
103.441
104.495
107.046
108.091
109.943
110.889
112.437
113.345
114.732
115.633
116.911
117.804
118.972
119.832
120.855
121.617
122.587
123.215
109.227
107.693
111.886
111.749
113.704
114.104
115.313
115.761
116.728
117.203
118.074
118.567
119.396
119.895
120.693
121.178
121.92
122.366
122.863
123.094
121.468
119.696
119.193
119.178
119.222
119.34
119.522
119.635
119.954
120.085
120.502
120.706
121.179
121.404
121.884
122.111
122.537
122.75
123.114
123.312
131.558
130.98
127.673
127.598
125.997
125.564
124.861
124.458
124.21
123.884
123.916
123.666
123.82
123.692
123.888
123.832
124.05
124.032
124.213
124.175
138.218
136.757
133.92
131.463
130.306
128.664
127.958
126.872
126.454
125.753
125.619
125.115
125.114
124.81
124.845
124.648
124.741
124.612
124.706
124.601
144.415
140.028
138.218
135.692
134
132.251
131.276
130.068
129.413
128.337
128.042
127.348
127.13
126.627
126.477
126.114
126.007
125.732
125.674
125.461
149.334
138.227
137.54
134.83
134.178
132.494
131.881
130.522
130.163
129.169
128.841
128.124
127.857
127.306
127.032
126.683
126.519
126.322
126.247
126.077
141.716
139.49
138.838
135.644
135.247
133.443
133.114
131.72
131.389
130.331
130.011
129.197
128.953
128.485
128.217
127.823
127.599
127.173
126.969
126.62
141.501
138.669
138.867
134.358
134.164
133.004
132.643
131.74
131.379
130.663
130.279
129.668
129.297
128.766
128.457
128.011
127.752
127.396
127.19
126.946
136.237
135.867
134.997
134.27
134.032
133.253
132.879
132.094
131.683
131.001
130.593
130.034
129.655
129.223
128.875
128.52
128.231
127.943
127.72
127.479
138.815
135.608
135.484
134.436
134.118