/*--------------------------------*- C++ -*----------------------------------*\
  =========                 |
  \\      /  F ield         | OpenFOAM: The Open Source CFD Toolbox
   \\    /   O peration     | Website:  https://openfoam.org
    \\  /    A nd           | Version:  9
     \\/     M anipulation  |
\*---------------------------------------------------------------------------*/
FoamFile
{
    format      ascii;
    class       surfaceScalarField;
    location    "13";
    object      phi;
}
// * * * * * * * * * * * * * * * * * * * * * * * * * * * * * * * * * * * * * //

dimensions      [0 3 -1 0 0 0 0];

internalField   nonuniform List<scalar> 
92080
(
-0.00583853
-0.478582
0.48442
-0.0339541
-0.92567
0.953785
-0.078891
-0.986336
1.03127
-0.122767
-0.969184
1.01306
-0.165886
-0.953417
0.996537
-0.208544
-0.93872
0.981378
-0.249821
-0.924732
0.966008
-0.290816
-0.909641
0.950636
-0.331805
-0.896437
0.937426
-0.372124
-0.884261
0.92458
-0.412484
-0.874221
0.914581
-0.451612
-0.863764
0.902892
-0.490725
-0.854338
0.893451
-0.529652
-0.845399
0.884326
-0.568254
-0.836789
0.875392
-0.605548
-0.82935
0.866643
-0.640931
-0.820499
0.855882
-0.675659
-0.810951
0.845679
-0.709439
-0.801889
0.835669
-0.795623
0.826459
-0.740275
-0.00791109
-0.47067
-0.0403095
-0.893272
-0.0844338
-0.942212
-0.129543
-0.924075
-0.173968
-0.908992
-0.217962
-0.894726
-0.261513
-0.881181
-0.303747
-0.867406
-0.345759
-0.854425
-0.388488
-0.841531
-0.430411
-0.832298
-0.472099
-0.822076
-0.512839
-0.813598
-0.552948
-0.80529
-0.592757
-0.796981
-0.631442
-0.790664
-0.668315
-0.783626
-0.703703
-0.775563
-0.737251
-0.768341
-0.762907
-0.769967
-0.00688285
-0.463788
-0.0447263
-0.855428
-0.0919218
-0.895016
-0.1383
-0.877697
-0.18421
-0.863081
-0.22923
-0.849707
-0.273452
-0.836959
-0.317332
-0.823527
-0.359523
-0.812234
-0.401967
-0.799088
-0.444946
-0.789319
-0.487119
-0.779903
-0.529136
-0.77158
-0.569862
-0.764565
-0.610971
-0.755872
-0.652147
-0.749488
-0.691264
-0.744509
-0.728761
-0.738066
-0.765888
-0.731214
-0.72602
-0.802775
-0.00156249
-0.462225
-0.0429813
-0.814009
-0.0918705
-0.846127
-0.140921
-0.828647
-0.189281
-0.814721
-0.236868
-0.80212
-0.283194
-0.790632
-0.32868
-0.778041
-0.373388
-0.767525
-0.416488
-0.755989
-0.460046
-0.74576
-0.503785
-0.736164
-0.547853
-0.727513
-0.590804
-0.721614
-0.632145
-0.714531
-0.674948
-0.706685
-0.718342
-0.701115
-0.759509
-0.696899
-0.798805
-0.691919
-0.68646
-0.838364
0.00125959
-0.463485
-0.0427043
-0.770045
-0.0954658
-0.793365
-0.146877
-0.777235
-0.197378
-0.764221
-0.246792
-0.752705
-0.295253
-0.742172
-0.342799
-0.730495
-0.389221
-0.721103
-0.43494
-0.71027
-0.479201
-0.701499
-0.522893
-0.692472
-0.566991
-0.683414
-0.611535
-0.67707
-0.654222
-0.671844
-0.694954
-0.665954
-0.736889
-0.65918
-0.780391
-0.653397
-0.822336
-0.649973
-0.645741
-0.863055
0.00236518
-0.46585
-0.04273
-0.72495
-0.0971789
-0.738917
-0.149826
-0.724588
-0.202037
-0.71201
-0.253042
-0.7017
-0.302261
-0.692953
-0.351113
-0.681643
-0.398926
-0.67329
-0.445566
-0.66363
-0.492258
-0.654807
-0.53698
-0.647751
-0.581896
-0.638498
-0.627504
-0.631462
-0.673705
-0.625643
-0.71861
-0.62105
-0.760995
-0.616794
-0.803629
-0.610764
-0.848102
-0.605499
-0.602383
-0.89146
0.0011672
-0.467017
-0.0481048
-0.675678
-0.104128
-0.682893
-0.158298
-0.670419
-0.211563
-0.658744
-0.264695
-0.648569
-0.315934
-0.641714
-0.36564
-0.631936
-0.415221
-0.623709
-0.463006
-0.615846
-0.511008
-0.606804
-0.557611
-0.601148
-0.601983
-0.594125
-0.646836
-0.586609
-0.691743
-0.580735
-0.73762
-0.575172
-0.782966
-0.571449
-0.825664
-0.568066
-0.868101
-0.563062
-0.558272
-0.912212
-0.00697819
-0.460039
-0.058307
-0.624349
-0.114979
-0.626221
-0.168017
-0.617381
-0.220654
-0.606108
-0.273436
-0.595787
-0.325783
-0.589367
-0.376265
-0.581454
-0.426051
-0.573923
-0.474238
-0.567658
-0.522196
-0.558847
-0.571492
-0.551853
-0.618713
-0.546904
-0.664619
-0.540703
-0.710266
-0.535089
-0.7558
-0.529637
-0.802167
-0.525082
-0.848292
-0.521942
-0.891526
-0.519828
-0.516395
-0.933402
-0.0166288
-0.44341
-0.0685998
-0.572378
-0.123681
-0.57114
-0.177996
-0.563065
-0.230001
-0.554103
-0.282284
-0.543504
-0.334725
-0.536925
-0.386521
-0.529658
-0.438368
-0.522076
-0.48823
-0.517797
-0.535275
-0.511802
-0.58276
-0.504367
-0.630893
-0.498771
-0.677783
-0.493813
-0.724036
-0.488835
-0.769731
-0.483942
-0.816048
-0.478765
-0.863589
-0.474401
-0.912284
-0.471132
-0.469813
-0.958867
-0.0255189
-0.417891
-0.0810083
-0.516889
-0.138831
-0.513318
-0.192737
-0.509159
-0.244296
-0.502544
-0.294686
-0.493113
-0.344707
-0.486904
-0.393573
-0.480792
-0.443854
-0.471795
-0.496163
-0.465488
-0.546814
-0.461151
-0.595177
-0.456004
-0.643277
-0.450671
-0.690607
-0.446484
-0.737075
-0.442367
-0.782006
-0.439011
-0.825806
-0.434966
-0.869385
-0.430822
-0.914221
-0.426297
-0.42338
-0.960654
-0.0321002
-0.385791
-0.0871016
-0.461887
-0.1448
-0.45562
-0.202409
-0.45155
-0.256867
-0.448086
-0.310303
-0.439678
-0.36358
-0.433627
-0.413122
-0.431251
-0.459484
-0.425432
-0.50619
-0.418782
-0.554838
-0.412503
-0.603542
-0.4073
-0.652664
-0.401549
-0.702155
-0.396992
-0.751497
-0.393025
-0.800659
-0.389849
-0.848334
-0.387291
-0.894519
-0.384636
-0.939138
-0.381678
-0.378464
-0.984054
-0.0389714
-0.34682
-0.0935497
-0.407309
-0.149399
-0.39977
-0.208763
-0.392185
-0.26609
-0.390759
-0.321152
-0.384616
-0.37898
-0.375799
-0.43713
-0.373101
-0.491791
-0.370771
-0.542583
-0.367991
-0.590859
-0.364227
-0.637806
-0.360352
-0.683474
-0.355881
-0.729539
-0.350928
-0.775856
-0.346708
-0.822694
-0.343011
-0.869945
-0.340041
-0.916826
-0.337755
-0.962835
-0.33567
-0.333516
-1.00778
-0.0409161
-0.305904
-0.0948637
-0.353362
-0.1474
-0.347234
-0.200299
-0.339286
-0.256587
-0.334472
-0.306878
-0.334324
-0.35633
-0.326347
-0.40983
-0.319601
-0.465113
-0.315488
-0.521213
-0.311891
-0.575723
-0.309717
-0.629141
-0.306935
-0.680143
-0.304878
-0.729305
-0.301766
-0.777766
-0.298247
-0.825606
-0.295171
-0.873667
-0.29198
-0.92166
-0.289762
-0.969796
-0.287533
-0.286049
-1.01726
-0.0456448
-0.260259
-0.105456
-0.29355
-0.164195
-0.288496
-0.222787
-0.280694
-0.283814
-0.273445
-0.344905
-0.273234
-0.398734
-0.272518
-0.449863
-0.268472
-0.500408
-0.264942
-0.550788
-0.261511
-0.601891
-0.258614
-0.652601
-0.256225
-0.703707
-0.253772
-0.753075
-0.252397
-0.801616
-0.249706
-0.849139
-0.247648
-0.896449
-0.24467
-0.943729
-0.242482
-0.991132
-0.24013
-0.238241
-1.03894
-0.0452598
-0.214999
-0.107367
-0.231443
-0.166617
-0.229246
-0.219423
-0.227888
-0.2711
-0.221767
-0.327749
-0.216585
-0.385045
-0.215222
-0.440514
-0.213003
-0.49468
-0.210776
-0.547815
-0.208375
-0.600594
-0.205835
-0.652648
-0.204171
-0.704655
-0.201766
-0.756452
-0.2006
-0.80724
-0.198918
-0.857125
-0.197764
-0.905665
-0.19613
-0.953761
-0.194386
-1.00107
-0.192826
-0.190794
-1.04851
-0.0565083
-0.158491
-0.115875
-0.172076
-0.178483
-0.166638
-0.239145
-0.167226
-0.294183
-0.16673
-0.347719
-0.163049
-0.402336
-0.160605
-0.456728
-0.15861
-0.510643
-0.156862
-0.563843
-0.155176
-0.615992
-0.153685
-0.668218
-0.151945
-0.719252
-0.150732
-0.77076
-0.149091
-0.821323
-0.148355
-0.871983
-0.147104
-0.92144
-0.146673
-0.970258
-0.145568
-1.01819
-0.144895
-0.143777
-1.06521
-0.0543386
-0.104152
-0.112224
-0.114191
-0.167981
-0.11088
-0.229345
-0.105862
-0.288493
-0.107582
-0.345659
-0.105884
-0.401009
-0.105254
-0.455214
-0.104406
-0.509015
-0.103061
-0.56187
-0.102321
-0.614361
-0.101194
-0.665961
-0.100345
-0.717205
-0.0994879
-0.767634
-0.0986624
-0.81806
-0.097929
-0.867902
-0.0972616
-0.917843
-0.0967327
-0.96721
-0.0962008
-1.01628
-0.0958277
-0.0951783
-1.06488
-0.0549076
-0.0492444
-0.122329
-0.0467701
-0.183592
-0.0496166
-0.241158
-0.0482957
-0.298456
-0.0502839
-0.355522
-0.0488175
-0.411183
-0.0495937
-0.466996
-0.0485924
-0.52133
-0.0487262
-0.575712
-0.0479397
-0.628682
-0.0482239
-0.681112
-0.0479154
-0.732499
-0.0481007
-0.783047
-0.0481149
-0.832805
-0.0481706
-0.881988
-0.0480791
-0.930624
-0.0480959
-0.978843
-0.047982
-1.02662
-0.048053
-0.0480046
-1.07379
-0.0512123
0.00196786
-0.11219
0.0142078
-0.173984
0.012177
-0.232242
0.00996211
-0.290492
0.00796611
-0.347168
0.00785866
-0.403734
0.00697276
-0.459492
0.00716535
-0.514511
0.00629227
-0.568729
0.00627874
-0.622291
0.00533861
-0.675128
0.00492137
-0.727127
0.00389837
-0.778693
0.00345098
-0.82945
0.00258676
-0.879626
0.0020963
-0.928943
0.00122132
-0.977601
0.000675498
-1.0254
-0.000255282
-0.000814273
-1.07259
-0.0567836
0.0587514
-0.122861
0.0802853
-0.182778
0.072094
-0.239222
0.0664064
-0.297713
0.0664565
-0.355148
0.0652943
-0.412344
0.0641682
-0.468057
0.0628783
-0.523454
0.0616892
-0.577598
0.0604232
-0.631355
0.0590952
-0.683942
0.057509
-0.73596
0.0559164
-0.786997
0.0544881
-0.837746
0.0533349
-0.887536
0.0518868
-0.937259
0.0509448
-0.986064
0.0494797
-1.03481
0.0484867
-1.08265
0.0470296
0.0301238
-0.143693
0.113569
0.132623
-0.568006
0.465507
0.230979
-1.05326
0.954904
0.283795
-1.30393
1.25111
0.300521
-1.36068
1.34395
0.306843
-1.36115
1.35482
0.308178
-1.34983
1.3485
0.30892
-1.33508
1.33434
0.309376
-1.32284
1.32239
0.309627
-1.31138
1.31113
0.309007
-1.30011
1.30073
0.30915
-1.29004
1.2899
0.308046
-1.27997
1.28107
0.306187
-1.26924
1.2711
0.303879
-1.25936
1.26167
0.301062
-1.2488
1.25162
0.297363
-1.23883
1.24253
0.292243
-1.22431
1.22943
0.286401
-1.20914
1.21498
-1.19449
0.282477
1.19842
0.0361312
-0.179824
0.126982
-0.658857
0.206296
-1.13257
0.240653
-1.33829
0.250507
-1.37053
0.254479
-1.36512
0.254
-1.34935
0.253881
-1.33497
0.25353
-1.32249
0.252214
-1.31007
0.251214
-1.29911
0.248842
-1.28767
0.246137
-1.27727
0.243355
-1.26646
0.240112
-1.25612
0.236338
-1.24503
0.231301
-1.23379
0.225597
-1.2186
0.22067
-1.20422
-1.19102
0.2172
0.0450691
-0.224893
0.123027
-0.736815
0.184881
-1.19443
0.207653
-1.36106
0.212832
-1.37571
0.213028
-1.36531
0.211537
-1.34786
0.210262
-1.33369
0.207713
-1.31994
0.205226
-1.30758
0.201474
-1.29536
0.197867
-1.28406
0.194073
-1.27347
0.189655
-1.26204
0.184785
-1.25125
0.179341
-1.23958
0.173654
-1.22811
0.167777
-1.21273
0.162486
-1.19892
-1.18639
0.157853
0.0412606
-0.266154
0.111997
-0.807552
0.161209
-1.24364
0.172375
-1.37223
0.172783
-1.37612
0.169135
-1.36167
0.165632
-1.34436
0.161501
-1.32956
0.157842
-1.31628
0.153186
-1.30292
0.148917
-1.29109
0.14417
-1.27931
0.138572
-1.26787
0.132962
-1.25643
0.127225
-1.24551
0.12143
-1.23379
0.114883
-1.22156
0.108393
-1.20624
0.102578
-1.19311
-1.18114
0.0973307
0.0329794
-0.299133
0.0904499
-0.865023
0.128936
-1.28212
0.135575
-1.37887
0.134622
-1.37517
0.130478
-1.35752
0.126237
-1.34012
0.121815
-1.32514
0.115956
-1.31043
0.110256
-1.29722
0.103733
-1.28457
0.0966891
-1.27227
0.089948
-1.26113
0.0829314
-1.24941
0.075678
-1.23826
0.068074
-1.22619
0.0606374
-1.21412
0.0534511
-1.19905
0.0467471
-1.18641
-1.17399
0.039598
0.0347555
-0.333889
0.0840522
-0.914319
0.10893
-1.307
0.109895
-1.37983
0.104288
-1.36956
0.0971386
-1.35037
0.0898021
-1.33278
0.0818616
-1.3172
0.0744177
-1.30298
0.0661123
-1.28892
0.0578861
-1.27634
0.0499428
-1.26432
0.0413586
-1.25255
0.0328146
-1.24087
0.0242745
-1.22972
0.0159318
-1.21784
0.00740349
-1.2056
-0.00124564
-1.1904
-0.00998948
-1.17766
-1.16484
-0.0191383
0.0301064
-0.363995
0.0716323
-0.955845
0.0861574
-1.32153
0.0807782
-1.37445
0.0718603
-1.36064
0.0629665
-1.34148
0.0539119
-1.32373
0.0448201
-1.30811
0.0348417
-1.293
0.0251062
-1.27918
0.0151792
-1.26641
0.00458508
-1.25373
-0.00568882
-1.24227
-0.0159593
-1.2306
-0.0262178
-1.21946
-0.0366261
-1.20743
-0.0469848
-1.19524
-0.0569534
-1.18043
-0.0671517
-1.16746
-1.15362
-0.0783732
0.0261207
-0.390116
0.0595374
-0.989262
0.0672621
-1.32925
0.0590201
-1.36621
0.0475396
-1.34916
0.0357178
-1.32966
0.023331
-1.31134
0.0109715
-1.29575
-0.00112822
-1.2809
-0.0136882
-1.26662
-0.0262966
-1.25381
-0.0383925
-1.24163
-0.0507218
-1.22995
-0.0629938
-1.21833
-0.0751533
-1.2073
-0.0870992
-1.19549
-0.0987621
-1.18357
-0.110587
-1.16861
-0.123452
-1.1546
-1.13979
-0.137287
0.0228917
-0.413007
0.049697
-1.01607
0.0495098
-1.32907
0.036216
-1.35291
0.02116
-1.3341
0.006607
-1.31511
-0.00780629
-1.29693
-0.0224927
-1.28106
-0.0371974
-1.2662
-0.0518707
-1.25195
-0.066376
-1.2393
-0.0812132
-1.2268
-0.0959253
-1.21523
-0.11039
-1.20386
-0.124641
-1.19305
-0.138679
-1.18145
-0.152791
-1.16946
-0.166992
-1.15441
-0.181808
-1.13978
-1.12411
-0.197483
0.019311
-0.432318
0.0379357
-1.03469
0.0306827
-1.32181
0.0144195
-1.33665
-0.00262634
-1.31706
-0.0198232
-1.29791
-0.0375091
-1.27924
-0.0546599
-1.26391
-0.0719819
-1.24888
-0.0892827
-1.23465
-0.106737
-1.22185
-0.123834
-1.2097
-0.140763
-1.1983
-0.157754
-1.18687
-0.174515
-1.17629
-0.191106
-1.16486
-0.207226
-1.15334
-0.223645
-1.13799
-0.241341
-1.12209
-1.10617
-0.259285
0.0166392
-0.448958
0.0305856
-1.04864
0.0199135
-1.31114
2.98388e-05
-1.31677
-0.020787
-1.29624
-0.0411848
-1.27751
-0.0614892
-1.25893
-0.0823643
-1.24304
-0.102404
-1.22884
-0.122566
-1.21449
-0.14239
-1.20202
-0.162181
-1.18991
-0.182018
-1.17847
-0.20148
-1.16741
-0.22077
-1.157
-0.239764
-1.14587
-0.258807
-1.1343
-0.277876
-1.11892
-0.297774
-1.10219
-1.08626
-0.317676
0.0132152
-0.462173
0.0194848
-1.05491
0.000952682
-1.29261
-0.0224637
-1.29335
-0.0455312
-1.27317
-0.0685194
-1.25452
-0.091495
-1.23596
-0.113758
-1.22077
-0.136591
-1.206
-0.158972
-1.19211
-0.181552
-1.17944
-0.203964
-1.1675
-0.226108
-1.15632
-0.2485
-1.14502
-0.270602
-1.1349
-0.292489
-1.12398
-0.313514
-1.11327
-0.333906
-1.09853
-0.354429
-1.08167
-1.06581
-0.374884
0.0109768
-0.47315
0.013049
-1.05698
-0.00699516
-1.27256
-0.0326306
-1.26772
-0.0587445
-1.24706
-0.0844211
-1.22885
-0.110403
-1.20998
-0.13696
-1.19422
-0.162261
-1.1807
-0.187847
-1.16652
-0.213016
-1.15427
-0.237924
-1.14259
-0.262781
-1.13147
-0.287394
-1.1204
-0.31188
-1.11041
-0.335958
-1.0999
-0.359584
-1.08965
-0.382011
-1.0761
-0.404225
-1.05945
-1.04404
-0.425995
0.00780326
-0.480953
0.00471058
-1.05389
-0.0220827
-1.24577
-0.0514365
-1.23836
-0.0803413
-1.21815
-0.108971
-1.20022
-0.136994
-1.18195
-0.164901
-1.16631
-0.193391
-1.15221
-0.22104
-1.13887
-0.24895
-1.12636
-0.276752
-1.11479
-0.304135
-1.10408
-0.331695
-1.09284
-0.359214
-1.08289
-0.386513
-1.0726
-0.413015
-1.06315
-0.438224
-1.05089
-0.462774
-1.0349
-1.01962
-0.48719
0.00601097
-0.486964
-0.000990578
-1.04689
-0.0297156
-1.21705
-0.0612676
-1.20681
-0.0926079
-1.18681
-0.123488
-1.16934
-0.1546
-1.15084
-0.185677
-1.13523
-0.215917
-1.12197
-0.246484
-1.10831
-0.276558
-1.09629
-0.306504
-1.08484
-0.336296
-1.07429
-0.365856
-1.06328
-0.395298
-1.05345
-0.424635
-1.04327
-0.453263
-1.03452
-0.479808
-1.02435
-0.505007
-1.0097
-0.994786
-0.529843
0.00332107
-0.490285
-0.00779972
-1.03577
-0.0404644
-1.18438
-0.075168
-1.17211
-0.109184
-1.1528
-0.142752
-1.13577
-0.175508
-1.11809
-0.2089
-1.10184
-0.242291
-1.08858
-0.274708
-1.07589
-0.30729
-1.06371
-0.339606
-1.05253
-0.371398
-1.0425
-0.403312
-1.03137
-0.43537
-1.02139
-0.467428
-1.01121
-0.499813
-1.00213
-0.530602
-0.993556
-0.558901
-0.981404
-0.966986
-0.586701
0.000942469
-0.491227
-0.0151457
-1.01968
-0.0495815
-1.14995
-0.0860748
-1.13561
-0.121973
-1.1169
-0.157547
-1.10019
-0.192842
-1.08279
-0.227583
-1.0671
-0.262643
-1.05352
-0.297694
-1.04084
-0.332172
-1.02923
-0.366866
-1.01783
-0.401023
-1.00834
-0.434634
-0.997759
-0.468352
-0.987672
-0.502261
-0.977299
-0.536192
-0.968202
-0.569341
-0.960407
-0.599852
-0.950893
-0.93797
-0.628869
-0.00032818
-0.490899
-0.0192424
-1.00076
-0.0565045
-1.11268
-0.0955357
-1.09658
-0.13401
-1.07843
-0.17183
-1.06237
-0.208893
-1.04573
-0.246553
-1.02944
-0.28354
-1.01653
-0.320443
-1.00393
-0.357168
-0.992502
-0.393861
-0.981139
-0.430455
-0.971746
-0.466578
-0.961636
-0.5023
-0.95195
-0.538145
-0.941454
-0.575175
-0.931171
-0.611992
-0.923589
-0.647334
-0.915551
-0.905116
-0.680188
-0.00272868
-0.48817
-0.0249642
-0.978527
-0.0652281
-1.07242
-0.10587
-1.05594
-0.145698
-1.0386
-0.185505
-1.02257
-0.224427
-1.00681
-0.262755
-0.991113
-0.30201
-0.977278
-0.340504
-0.965441
-0.378651
-0.954355
-0.416983
-0.942807
-0.455018
-0.933712
-0.492667
-0.923987
-0.529995
-0.914622
-0.56667
-0.904779
-0.604221
-0.893621
-0.643346
-0.884463
-0.682754
-0.876144
-0.867758
-0.720112
-0.00375041
-0.0284922
-0.0696386
-0.112519
-0.154581
-0.19577
-0.236568
-0.277045
-0.316896
-0.357757
-0.397531
-0.437446
-0.477706
-0.517368
-0.556599
-0.594735
-0.632474
-0.671258
-0.711732
-0.753032
0.227777
-10.3723
10.427
0.196628
-9.77707
9.80822
0.170486
-9.68413
9.71027
0.147311
-9.35031
9.37348
0.132704
-9.31164
9.32625
0.120506
-9.11026
9.12246
0.114332
-9.07472
9.0809
0.108767
-8.96676
8.97233
0.0998148
-8.92778
8.93674
0.0889872
-8.82518
8.836
0.0800387
-8.76731
8.77626
0.0706333
-8.69818
8.70758
0.0609837
-8.6952
8.70485
0.0508946
-8.64559
8.65568
0.0417349
-8.65007
8.65923
0.0356156
-8.58744
8.59355
0.0358901
-8.50187
8.5016
0.0244025
-7.65406
7.66555
0.0146869
-5.50314
5.51285
-2.2683
2.28299
0.154973
-10.3101
0.117694
-9.73979
0.0930752
-9.65951
0.0755528
-9.33279
0.0648164
-9.3009
0.0565374
-9.10199
0.0531418
-9.07133
0.051032
-8.96465
0.0459742
-8.92273
0.0395037
-8.81871
0.0355283
-8.76334
0.0309977
-8.69364
0.0262287
-8.69043
0.0217225
-8.64109
0.0182954
-8.64664
0.0177686
-8.58691
0.0234619
-8.50757
0.0176212
-7.64822
0.0121958
-5.49771
-2.25611
0.0932057
-10.2454
0.0534341
-9.70002
0.0254529
-9.63152
0.00716859
-9.3145
-0.00345744
-9.29028
-0.00796916
-9.09747
-0.00789108
-9.0714
-0.00635683
-8.96619
-0.00768404
-8.9214
-0.00902092
-8.81737
-0.0075829
-8.76478
-0.00684401
-8.69438
-0.00625439
-8.69102
-0.00618555
-8.64116
-0.00462074
-8.64821
0.000335432
-8.59186
0.011372
-8.5186
0.0107294
-7.64758
0.0106416
-5.49763
-2.24547
0.0265186
-10.1746
-0.0212782
-9.65223
-0.0515307
-9.60127
-0.0641595
-9.30187
-0.0701271
-9.28431
-0.0712325
-9.09637
-0.0685944
-9.07404
-0.0638602
-8.97092
-0.0612149
-8.92404
-0.0583449
-8.82024
-0.052088
-8.77103
-0.0464693
-8.7
-0.0410301
-8.69646
-0.035232
-8.64696
-0.0278518
-8.65559
-0.0173474
-8.60237
-0.00121277
-8.53474
0.00372985
-7.65252
0.00820769
-5.5021
-2.23726
-0.0409219
-10.0941
-0.0912571
-9.60189
-0.119464
-9.57307
-0.130585
-9.29075
-0.136269
-9.27863
-0.135319
-9.09732
-0.129352
-9.08001
-0.121134
-8.97914
-0.114389
-8.93079
-0.106259
-8.82837
-0.0947172
-8.78257
-0.084039
-8.71068
-0.0732754
-8.70723
-0.0628625
-8.65737
-0.0504881
-8.66796
-0.0348565
-8.618
-0.0140156
-8.55558
-0.00328616
-7.66325
0.00670649
-5.5121
-2.23055
-0.103651
-10.0096
-0.160011
-9.54553
-0.19167
-9.54141
-0.200738
-9.28169
-0.201658
-9.27771
-0.197059
-9.10192
-0.188864
-9.0882
-0.17755
-8.99045
-0.167113
-8.94123
-0.154914
-8.84057
-0.138853
-8.79864
-0.123428
-8.72611
-0.10787
-8.72279
-0.0918068
-8.67343
-0.0739666
-8.6858
-0.053346
-8.63862
-0.0273358
-8.58159
-0.0107841
-7.6798
0.00416085
-5.52704
-2.22639
-0.172977
-9.91499
-0.231654
-9.48685
-0.26101
-9.51205
-0.267078
-9.27562
-0.26657
-9.27821
-0.260589
-9.1079
-0.249068
-9.09973
-0.234161
-9.00536
-0.219197
-8.95619
-0.201763
-8.858
-0.180656
-8.81974
-0.160384
-8.74638
-0.139695
-8.74347
-0.119152
-8.69398
-0.0969061
-8.70805
-0.0715468
-8.66398
-0.0403784
-8.61276
-0.0179994
-7.70218
0.00215532
-5.5472
-2.22424
-0.234993
-9.81728
-0.295776
-9.42607
-0.327233
-9.48059
-0.332774
-9.27008
-0.328578
-9.28241
-0.320146
-9.11633
-0.306681
-9.11319
-0.28918
-9.02286
-0.270813
-8.97456
-0.249456
-8.87936
-0.224111
-8.84509
-0.199154
-8.77133
-0.173744
-8.76888
-0.14778
-8.71994
-0.120058
-8.73577
-0.0899595
-8.69408
-0.053761
-8.64895
-0.0253926
-7.73055
2.1003e-05
-5.57261
-2.22422
-0.301402
-9.71336
-0.363635
-9.36384
-0.395134
-9.44909
-0.398723
-9.26649
-0.392518
-9.28861
-0.381938
-9.12691
-0.365669
-9.12946
-0.344593
-9.04394
-0.321343
-8.99781
-0.295034
-8.90567
-0.264854
-8.87527
-0.235176
-8.80101
-0.204755
-8.7993
-0.174724
-8.74997
-0.142827
-8.76767
-0.108289
-8.72862
-0.0670732
-8.69017
-0.0328629
-7.76476
-0.0021592
-5.60331
-2.22637
-0.363768
-9.60888
-0.425028
-9.30258
-0.457061
-9.41706
-0.460044
-9.26351
-0.451472
-9.29719
-0.439449
-9.13893
-0.421306
-9.1476
-0.397821
-9.06742
-0.371594
-9.02403
-0.341541
-8.93572
-0.307321
-8.90949
-0.273056
-8.83528
-0.237872
-8.83449
-0.202749
-8.78509
-0.165633
-8.80478
-0.126514
-8.76774
-0.0804506
-8.73623
-0.0399954
-7.80522
-0.00409268
-5.63922
-2.23047
-0.425744
-9.50081
-0.485934
-9.24239
-0.52024
-9.38276
-0.524173
-9.25957
-0.513542
-9.30782
-0.498775
-9.1537
-0.478322
-9.16806
-0.451362
-9.09438
-0.42012
-9.05528
-0.385479
-8.97036
-0.346749
-8.94822
-0.308015
-8.87401
-0.267932
-8.87457
-0.228983
-8.82404
-0.187852
-8.84591
-0.144534
-8.81105
-0.0939271
-8.78684
-0.0470712
-7.85207
-0.00600433
-5.68028
-2.23647
-0.489983
-9.38571
-0.546931
-9.18544
-0.578489
-9.3512
-0.582959
-9.2551
-0.570998
-9.31978
-0.554236
-9.17046
-0.531897
-9.19039
-0.502777
-9.1235
-0.46892
-9.08913
-0.430662
-9.00862
-0.387917
-8.99096
-0.344864
-8.91706
-0.30025
-8.91919
-0.256466
-8.86783
-0.210328
-8.89205
-0.162622
-8.85876
-0.107486
-8.84198
-0.0543351
-7.90522
-0.00807169
-5.72655
-2.24454
-0.545411
-9.2663
-0.603903
-9.12695
-0.637132
-9.31797
-0.643916
-9.24832
-0.630976
-9.33272
-0.611166
-9.19027
-0.586153
-9.21541
-0.553568
-9.15609
-0.51497
-9.12773
-0.47286
-9.05073
-0.426014
-9.03781
-0.378684
-8.96439
-0.329351
-8.96852
-0.281736
-8.91544
-0.23197
-8.94182
-0.180346
-8.91038
-0.120951
-8.90137
-0.0619964
-7.96418
-0.0102
-5.77834
-2.25474
-0.61057
-9.14292
-0.664801
-9.07271
-0.694694
-9.28808
-0.701349
-9.24166
-0.687429
-9.34664
-0.664932
-9.21277
-0.637551
-9.24279
-0.602867
-9.19077
-0.561975
-9.16862
-0.515866
-9.09684
-0.465342
-9.08833
-0.414341
-9.01539
-0.360767
-9.02209
-0.308275
-8.96793
-0.253714
-8.99638
-0.198024
-8.96607
-0.134006
-8.96539
-0.0691568
-8.02903
-0.0120369
-5.83546
-2.26678
-0.662558
-9.0102
-0.72178
-9.01349
-0.751794
-9.25806
-0.758197
-9.23526
-0.744564
-9.36027
-0.719089
-9.23825
-0.688498
-9.27338
-0.650435
-9.22883
-0.605334
-9.21373
-0.556087
-9.14609
-0.501725
-9.1427
-0.446559
-9.07056
-0.388834
-9.07982
-0.332662
-9.02411
-0.274676
-9.05436
-0.21529
-9.02546
-0.146732
-9.03395
-0.0759959
-8.09976
-0.0138975
-5.89756
-2.28068
-0.7213
-8.8756
-0.780811
-8.95398
-0.809724
-9.22915
-0.813644
-9.23134
-0.798551
-9.37536
-0.770753
-9.26604
-0.737462
-9.30667
-0.69723
-9.26906
-0.649966
-9.26099
-0.596976
-9.19908
-0.539361
-9.20031
-0.480631
-9.12929
-0.418763
-9.14169
-0.358057
-9.08481
-0.295858
-9.11656
-0.232733
-9.08858
-0.15993
-9.10675
-0.0830279
-8.17667
-0.0149316
-5.96566
-2.29561
-0.771976
-8.7325
-0.83489
-8.89107
-0.863935
-9.20011
-0.867024
-9.22825
-0.851768
-9.39062
-0.821376
-9.29644
-0.784643
-9.3434
-0.741046
-9.31266
-0.690244
-9.31179
-0.634739
-9.25458
-0.57368
-9.26137
-0.511123
-9.19185
-0.445441
-9.20737
-0.381335
-9.14892
-0.316107
-9.18179
-0.249513
-9.15518
-0.172552
-9.18371
-0.0904006
-8.25882
-0.0174823
-6.03858
-2.31309
-0.829116
-8.58357
-0.891739
-8.82844
-0.920018
-9.17183
-0.92021
-9.22806
-0.902003
-9.40883
-0.869776
-9.32866
-0.830661
-9.38252
-0.784886
-9.35843
-0.731877
-9.3648
-0.672976
-9.31348
-0.609221
-9.32512
-0.543326
-9.25774
-0.473585
-9.27711
-0.404979
-9.21752
-0.3359
-9.25087
-0.266079
-9.225
-0.185175
-9.26462
-0.0965131
-8.34748
-0.0173714
-6.11772
-2.33046
-0.87364
-8.43004
-0.944314
-8.75777
-0.973587
-9.14255
-0.973279
-9.22837
-0.953641
-9.42846
-0.917944
-9.36436
-0.875039
-9.42542
-0.825719
-9.40775
-0.769558
-9.42096
-0.708388
-9.37465
-0.641538
-9.39197
-0.572386
-9.3269
-0.499439
-9.35006
-0.427776
-9.28919
-0.355263
-9.32338
-0.282379
-9.29788
-0.19754
-9.34946
-0.104277
-8.44074
-0.0199883
-6.20201
-2.35045
-0.914486
-8.26859
-0.990915
-8.68134
-1.02011
-9.11336
-1.01801
-9.23047
-0.997759
-9.44871
-0.961013
-9.40111
-0.91665
-9.46979
-0.865386
-9.45902
-0.807504
-9.47884
-0.743614
-9.43854
-0.674625
-9.46096
-0.601962
-9.39956
-0.525414
-9.4266
-0.449582
-9.36502
-0.374653
-9.39831
-0.299045
-9.37349
-0.209448
-9.43905
-0.110125
-8.54007
-0.0191331
-6.293
-2.36958
6.8189
-7.70647
-7.38101
6.06179
-7.92423
5.32599
-8.37756
4.63465
-8.53913
3.95853
-8.7726
3.3923
-8.83487
2.90524
-8.98273
2.46588
-9.01966
2.08011
-9.09308
1.7527
-9.11113
1.44972
-9.15799
1.21936
-9.16919
1.01236
-9.21961
0.849806
-9.20246
0.692454
-9.24096
0.548271
-9.22931
0.372928
-9.26371
0.26779
-8.43493
0.160527
-6.18574
-2.20906
3.82064
-7.53295
-3.99415
3.60332
-7.70691
3.28842
-8.06266
2.9944
-8.24511
2.66087
-8.43907
2.3713
-8.5453
2.07109
-8.68252
1.80524
-8.75381
1.5537
-8.84153
1.33612
-8.89356
1.1352
-8.95706
0.96528
-8.99928
0.79447
-9.0488
0.663631
-9.07162
0.535296
-9.11263
0.42552
-9.11953
0.256519
-9.09471
0.172534
-8.35094
-0.0506451
-5.96256
-2.2597
2.52977
-7.57695
-2.48577
2.5753
-7.75244
2.48866
-7.97602
2.37032
-8.12676
2.19942
-8.26817
2.03768
-8.38356
1.84666
-8.4915
1.67009
-8.57725
1.48877
-8.66021
1.31697
-8.72176
1.14487
-8.78496
0.975413
-8.82982
0.802135
-8.87552
0.651385
-8.92087
0.503911
-8.96515
0.382291
-8.99791
0.264855
-8.97727
0.163163
-8.24925
0.0342435
-5.83364
-2.22546
1.56336
-7.70937
-1.43094
1.6393
-7.82839
1.61405
-7.95077
1.56041
-8.07313
1.48187
-8.18963
1.38883
-8.29052
1.27787
-8.38054
1.15886
-8.45824
1.03306
-8.5344
0.912298
-8.601
0.790723
-8.66339
0.677965
-8.71706
0.571336
-8.76889
0.466988
-8.81653
0.365232
-8.86339
0.279001
-8.91168
0.166711
-8.86498
0.107633
-8.19017
0.0749972
-5.801
-2.15046
0.974598
-7.81702
-0.866942
1.05363
-7.90742
1.09813
-7.99527
1.11507
-8.09006
1.09244
-8.16699
1.04547
-8.24355
0.981172
-8.31624
0.907176
-8.38424
0.819723
-8.44695
0.727284
-8.50856
0.628053
-8.56415
0.529811
-8.61882
0.430303
-8.66938
0.332266
-8.71849
0.236169
-8.7673
0.140115
-8.81563
0.0475612
-8.77243
0.0177303
-8.16034
0.0449191
-5.82819
-2.10554
0.578074
-7.92377
-0.471321
0.653764
-7.98311
0.689336
-8.03084
0.687095
-8.08782
0.660962
-8.14086
0.626364
-8.20895
0.57698
-8.26686
0.52333
-8.33059
0.464536
-8.38815
0.397515
-8.44154
0.326761
-8.4934
0.253412
-8.54547
0.175794
-8.59176
0.097299
-8.63999
0.0186047
-8.6886
-0.0606603
-8.73636
-0.122751
-8.71034
-0.104502
-8.17859
0.0163054
-5.949
-2.08924
0.273203
-7.98564
-0.211341
0.313178
-8.02308
0.340259
-8.05792
0.357901
-8.10547
0.361708
-8.14467
0.354867
-8.20211
0.335387
-8.24738
0.297356
-8.29256
0.248149
-8.33895
0.189275
-8.38266
0.126398
-8.43052
0.0529006
-8.47197
-0.021301
-8.51756
-0.102568
-8.55873
-0.182356
-8.60881
-0.260716
-8.658
-0.313245
-8.65781
-0.25963
-8.23221
-0.050938
-6.15769
-2.14018
0.0441886
-8.03118
0.00135647
0.0807116
-8.05961
0.107008
-8.08422
0.117199
-8.11566
0.112363
-8.13983
0.089908
-8.17966
0.0638749
-8.22135
0.0299794
-8.25866
-0.0104717
-8.2985
-0.0590501
-8.33409
-0.113753
-8.37582
-0.175784
-8.40994
-0.239654
-8.45369
-0.313331
-8.48505
-0.388895
-8.53325
-0.464659
-8.58224
-0.520554
-8.60191
-0.470096
-8.28267
-0.172116
-6.45567
-2.31229
-0.121553
-8.0569
0.147269
-0.105909
-8.07525
-0.0962366
-8.09389
-0.0926801
-8.11921
-0.09112
-8.14139
-0.0990219
-8.17176
-0.120114
-8.20026
-0.149228
-8.22955
-0.18568
-8.26204
-0.229897
-8.28987
-0.281297
-8.32442
-0.339789
-8.35145
-0.406915
-8.38657
-0.478955
-8.41301
-0.556006
-8.4562
-0.646897
-8.49135
-0.726948
-8.52186
-0.70955
-8.30006
-0.344374
-6.82084
-2.65667
-0.22051
-8.07497
0.238577
-0.208082
-8.08768
-0.199326
-8.10265
-0.197844
-8.1207
-0.202003
-8.13723
-0.217635
-8.15612
-0.238805
-8.17909
-0.27116
-8.1972
-0.313953
-8.21925
-0.363312
-8.24051
-0.420435
-8.2673
-0.482194
-8.28969
-0.548883
-8.31988
-0.621651
-8.34024
-0.702731
-8.37512
-0.803202
-8.39088
-0.905576
-8.41949
-0.928544
-8.27709
-0.58074
-7.16865
-3.2374
-0.276275
-8.07981
0.28112
-0.27626
-8.08769
-0.280338
-8.09857
-0.290738
-8.1103
-0.304952
-8.12302
-0.328144
-8.13293
-0.357977
-8.14925
-0.39098
-8.16419
-0.428453
-8.18178
-0.472328
-8.19664
-0.523018
-8.21661
-0.582083
-8.23062
-0.651126
-8.25083
-0.732448
-8.25892
-0.831969
-8.2756
-0.943311
-8.27954
-1.06962
-8.29318
-1.11372
-8.23299
-0.838053
-7.44431
-4.07546
-0.30735
-8.07876
0.306297
-0.3118
-8.08324
-0.31919
-8.09118
-0.331336
-8.09815
-0.346073
-8.10828
-0.36421
-8.1148
-0.389117
-8.12434
-0.422123
-8.13119
-0.460232
-8.14367
-0.505438
-8.15143
-0.55843
-8.16361
-0.618595
-8.17046
-0.690145
-8.17928
-0.763927
-8.18514
-0.854787
-8.18474
-0.948498
-8.18583
-1.07325
-8.16843
-1.16592
-8.14033
-0.95711
-7.65312
-5.03257
-0.317142
-8.07238
0.310764
-0.326436
-8.07395
-0.338607
-8.07901
-0.354625
-8.08213
-0.374902
-8.08801
-0.397668
-8.09203
-0.422944
-8.09907
-0.450662
-8.10347
-0.482255
-8.11208
-0.517215
-8.11647
-0.558427
-8.1224
-0.604539
-8.12435
-0.657284
-8.12654
-0.716479
-8.12594
-0.782214
-8.119
-0.856613
-8.11143
-0.932531
-8.09251
-1.014
-8.05886
-0.86947
-7.79765
-5.90204
-0.301365
-8.06205
0.291037
-0.311891
-8.06342
-0.323464
-8.06744
-0.335527
-8.07007
-0.348844
-8.07469
-0.36423
-8.07664
-0.382276
-8.08102
-0.402862
-8.08288
-0.428376
-8.08656
-0.457722
-8.08712
-0.491019
-8.08911
-0.528471
-8.0869
-0.568492
-8.08652
-0.615303
-8.07913
-0.65935
-8.07496
-0.719029
-8.05175
-0.770361
-8.04118
-0.826108
-8.00311
-0.729605
-7.89415
-6.63164
-0.246863
-8.05153
0.236341
-0.257656
-8.05263
-0.270652
-8.05444
-0.285266
-8.05545
-0.301798
-8.05816
-0.318528
-8.05991
-0.336444
-8.06311
-0.35571
-8.06362
-0.376207
-8.06607
-0.398854
-8.06448
-0.422604
-8.06535
-0.449193
-8.06031
-0.476156
-8.05956
-0.508407
-8.04688
-0.540143
-8.04322
-0.573589
-8.0183
-0.601565
-8.0132
-0.635152
-7.96952
-0.583641
-7.94566
-7.21528
-0.184364
-8.0422
0.175032
-0.194302
-8.04269
-0.20465
-8.04409
-0.214918
-8.04518
-0.226285
-8.04679
-0.239244
-8.04695
-0.254076
-8.04828
-0.26982
-8.04787
-0.287232
-8.04865
-0.305046
-8.04667
-0.323542
-8.04686
-0.341899
-8.04195
-0.361434
-8.04002
-0.378604
-8.02971
-0.396307
-8.02552
-0.403257
-8.01135
-0.407993
-8.00847
-0.398475
-7.97904
-0.381799
-7.96234
-7.59708
-0.118136
-8.03312
0.109055
-0.127797
-8.03303
-0.137943
-8.03395
-0.148401
-8.03473
-0.15921
-8.03598
-0.16981
-8.03635
-0.181172
-8.03691
-0.192272
-8.03677
-0.204061
-8.03686
-0.214854
-8.03587
-0.226337
-8.03537