/*--------------------------------*- C++ -*----------------------------------*\
  =========                 |
  \\      /  F ield         | OpenFOAM: The Open Source CFD Toolbox
   \\    /   O peration     | Website:  https://openfoam.org
    \\  /    A nd           | Version:  9
     \\/     M anipulation  |
\*---------------------------------------------------------------------------*/
FoamFile
{
    format      ascii;
    class       volVectorField;
    location    "13";
    object      U;
}
// * * * * * * * * * * * * * * * * * * * * * * * * * * * * * * * * * * * * * //

dimensions      [0 1 -1 0 0 0 0];

internalField   nonuniform List<vector> 
46400
(
(8.70023 -8.33332 -1.72819e-19)
(16.8618 -16.3916 1.32116e-19)
(17.7129 -17.9177 -4.18266e-20)
(16.9816 -18.0627 -3.30603e-20)
(16.4195 -18.0936 -3.22798e-20)
(15.8044 -18.2014 -1.4525e-20)
(15.2531 -18.2502 -1.30145e-20)
(14.6818 -18.2683 2.35409e-20)
(14.1791 -18.3432 -2.82597e-20)
(13.6919 -18.3872 3.24033e-20)
(13.2442 -18.4697 -3.60092e-20)
(12.8232 -18.5369 0)
(12.4203 -18.6038 2.38032e-19)
(12.0302 -18.6634 -2.75578e-19)
(11.6769 -18.7509 -3.68038e-19)
(11.3498 -18.8289 -7.11528e-20)
(10.9793 -18.8557 -2.19133e-20)
(10.6397 -18.8347 2.99237e-19)
(10.326 -18.794 4.27803e-19)
(9.89842 -18.9849 -3.89273e-19)
(8.89614 -7.85885 0)
(16.8837 -15.2829 -2.47876e-20)
(17.5662 -16.5633 0)
(16.8533 -16.7254 5.16542e-20)
(16.2462 -16.7938 -5.39544e-20)
(15.6436 -16.922 1.19025e-20)
(15.0947 -17.031 0)
(14.5414 -17.1175 -2.35408e-20)
(14.0147 -17.1821 2.82595e-20)
(13.537 -17.2846 -3.24029e-20)
(13.1012 -17.4172 4.14125e-19)
(12.6693 -17.5039 2.64822e-20)
(12.2606 -17.6204 -3.50222e-19)
(11.9004 -17.7172 0)
(11.51 -17.8038 4.65066e-20)
(11.1811 -17.8929 4.84221e-20)
(10.8462 -17.9833 0)
(10.5411 -18.0127 -4.86037e-19)
(10.2634 -18.0425 -1.25485e-19)
(9.8878 -18.2369 4.86968e-19)
(9.0647 -7.34788 2.78955e-20)
(16.7827 -14.0822 -1.10995e-19)
(17.2768 -15.193 9.32312e-20)
(16.5027 -15.3647 1.57291e-19)
(15.9394 -15.504 -1.54424e-19)
(15.3443 -15.677 0)
(14.796 -15.81 -4.98748e-19)
(14.2608 -15.9372 4.28083e-19)
(13.7612 -16.0756 -5.57089e-19)
(13.2543 -16.1335 5.51163e-19)
(12.8235 -16.3052 5.24359e-19)
(12.411 -16.4193 -5.25479e-20)
(12.0263 -16.5795 -4.53671e-19)
(11.6588 -16.6934 0)
(11.3135 -16.8267 5.64912e-19)
(11.0169 -16.982 -5.56328e-19)
(10.6945 -17.1174 0)
(10.3901 -17.1769 -1.3134e-20)
(10.1073 -17.2452 6.4514e-20)
(9.74326 -17.4991 -5.95688e-19)
(9.30829 -6.82872 -1.36863e-19)
(16.5264 -12.7598 3.1552e-20)
(16.8787 -13.7599 2.34653e-19)
(16.1991 -14.0352 -2.31523e-19)
(15.5814 -14.212 -1.9876e-19)
(15.0123 -14.4352 2.72562e-19)
(14.4754 -14.6494 3.68371e-19)
(13.9404 -14.7948 -9.30397e-19)
(13.4538 -14.9952 7.77961e-19)
(12.9785 -15.1218 -7.13945e-20)
(12.5309 -15.2755 0)
(12.1281 -15.4364 7.46216e-20)
(11.7283 -15.5996 -7.57351e-20)
(11.4031 -15.7995 0)
(11.0064 -15.9068 6.83049e-19)
(10.6736 -16.0348 -5.80851e-19)
(10.4004 -16.2536 0)
(10.1273 -16.4079 7.79225e-20)
(9.84737 -16.4969 8.94591e-20)
(9.46468 -16.7656 6.98559e-19)
(9.62388 -6.42031 0)
(16.1584 -11.4821 0)
(16.3853 -12.4193 -3.40948e-19)
(15.6093 -12.6619 2.36385e-19)
(15.0374 -12.9394 -4.51679e-19)
(14.4792 -13.1984 3.66267e-19)
(13.957 -13.4648 0)
(13.4527 -13.6805 3.96504e-19)
(12.9752 -13.9126 -4.78821e-19)
(12.5144 -14.0945 -1.08693e-19)
(12.0734 -14.2935 -1.08697e-19)
(11.6585 -14.4414 0)
(11.2689 -14.6279 8.06603e-19)
(10.9421 -14.8227 -7.9398e-19)
(10.6513 -15.0573 0)
(10.3174 -15.1792 -8.85969e-19)
(9.98557 -15.3173 7.8227e-19)
(9.74668 -15.5069 7.81953e-19)
(9.52238 -15.6866 -8.55444e-19)
(9.16222 -15.9705 0)
(9.94209 -6.00082 0)
(15.622 -10.2445 0)
(15.6566 -11.0123 0)
(15.0449 -11.3958 -2.46148e-20)
(14.4487 -11.6983 0)
(13.9279 -12.0163 0)
(13.4289 -12.3325 0)
(12.933 -12.5617 -1.27319e-19)
(12.4883 -12.8658 0)
(12.0442 -13.0628 1.08695e-19)
(11.6465 -13.3315 -1.68246e-20)
(11.2775 -13.5452 -1.06178e-18)
(10.8753 -13.731 7.991e-19)
(10.5469 -13.9476 -1.0429e-18)
(10.2197 -14.1705 7.862e-19)
(9.95615 -14.4144 0)
(9.66079 -14.6086 -8.90008e-19)
(9.34555 -14.7298 7.60975e-19)
(9.1216 -14.9184 0)
(8.81102 -15.262 -1.17955e-19)
(10.2674 -5.58698 4.86991e-19)
(14.9924 -9.13107 1.44991e-19)
(14.9071 -9.80776 5.4777e-19)
(14.2356 -10.1498 -5.61345e-19)
(13.6691 -10.5431 -5.54721e-19)
(13.1884 -10.8789 1.09967e-18)
(12.7302 -11.2875 -1.24548e-18)
(12.265 -11.5481 1.20614e-19)
(11.831 -11.8785 3.96438e-19)
(11.4264 -12.1434 0)
(10.9928 -12.3859 -1.60642e-20)
(10.6462 -12.6636 -1.53109e-20)
(10.2658 -12.8668 1.23286e-19)
(9.92267 -13.0711 1.02015e-18)
(9.62733 -13.3039 -8.97597e-19)
(9.3383 -13.5202 -1.13708e-18)
(9.10113 -13.7841 9.90234e-19)
(8.85854 -13.9956 -1.17871e-20)
(8.58632 -14.1072 -1.25356e-19)
(8.28693 -14.4555 -8.81611e-19)
(10.3985 -5.27247 -1.53239e-19)
(14.1446 -7.97366 2.40695e-20)
(13.8752 -8.65132 -1.701e-19)
(13.4128 -9.0656 -6.63484e-19)
(12.8621 -9.47233 4.61672e-19)
(12.378 -9.81635 0)
(11.973 -10.2496 9.41389e-19)
(11.5473 -10.5777 -4.54638e-19)
(11.1371 -10.9149 3.06088e-19)
(10.7699 -11.2235 1.59064e-19)
(10.395 -11.5014 -3.00028e-19)
(10.0898 -11.8109 7.28398e-19)
(9.78279 -12.1197 1.51663e-19)
(9.45607 -12.3455 -8.5627e-19)
(9.14813 -12.5926 2.39243e-18)
(8.87291 -12.8167 -9.73364e-19)
(8.61135 -13.0654 1.22526e-18)
(8.40037 -13.318 -8.01593e-19)
(8.20436 -13.533 2.62039e-19)
(7.88126 -13.8038 1.23614e-18)
(10.2685 -4.83702 8.0269e-19)
(13.2809 -6.98497 -1.69387e-19)
(12.9809 -7.62707 -2.11356e-20)
(12.518 -8.05204 3.59064e-19)
(11.999 -8.50211 1.68523e-19)
(11.5532 -8.84657 1.85073e-19)
(11.1471 -9.29597 -8.63463e-19)
(10.7793 -9.65432 5.22513e-19)
(10.3946 -10.0461 -1.61351e-19)
(10.0728 -10.4001 -1.59058e-19)
(9.66399 -10.6882 -1.56685e-19)
(9.29501 -10.9284 -1.67661e-19)
(9.00223 -11.2484 -3.16198e-19)
(8.72394 -11.5232 1.09259e-18)
(8.45072 -11.7954 -1.52728e-18)
(8.18189 -12.0363 -1.55166e-19)
(7.93222 -12.2871 1.08024e-20)
(7.709 -12.5399 -1.14055e-18)
(7.54402 -12.8015 8.51413e-19)
(7.33537 -13.1975 -1.32269e-18)
(9.91984 -4.31357 7.4288e-19)
(12.2248 -6.01078 -1.82736e-18)
(11.8492 -6.69353 1.20368e-18)
(11.4592 -7.15008 -1.8954e-19)
(11.0463 -7.65467 -2.04884e-19)
(10.5947 -7.99121 7.92791e-19)
(10.2296 -8.43057 -9.6088e-19)
(9.87428 -8.77328 0)
(9.4964 -9.13002 7.37155e-19)
(9.23808 -9.52395 -7.24801e-19)
(8.99192 -9.94297 -5.25746e-19)
(8.69844 -10.2568 6.8565e-19)
(8.39677 -10.5627 1.64536e-19)
(8.13915 -10.8633 -6.67711e-19)
(7.88539 -11.1435 1.61662e-19)
(7.65105 -11.4131 7.99294e-19)
(7.39721 -11.6383 -1.40674e-18)
(7.16065 -11.8627 9.28353e-19)
(6.93926 -12.0484 -9.10868e-21)
(6.72873 -12.4015 -1.25848e-18)
(9.37116 -3.73894 1.03255e-18)
(11.1587 -5.1128 -6.67781e-19)
(10.7857 -5.7642 4.41251e-19)
(10.5294 -6.32682 2.93122e-21)
(10.1427 -6.88521 -8.66932e-19)
(9.77175 -7.30254 -8.21951e-19)
(9.41925 -7.78458 1.02078e-18)
(9.12884 -8.20153 -5.97204e-19)
(8.7357 -8.53093 7.9213e-19)
(8.37008 -8.81563 0)
(8.0659 -9.15385 1.19295e-20)
(7.80535 -9.49704 1.80067e-19)
(7.55298 -9.8258 1.87267e-19)
(7.31777 -10.1619 -1.83134e-19)
(7.09816 -10.4829 0)
(6.90365 -10.8074 1.75107e-19)
(6.71793 -11.1139 0)
(6.52461 -11.3859 3.26027e-19)
(6.33068 -11.6126 1.59015e-18)
(6.11251 -11.9143 -1.14406e-20)
(8.62788 -3.15286 5.65836e-19)
(9.96228 -4.28612 -1.17095e-19)
(9.5357 -4.89924 -1.66445e-18)
(9.18099 -5.40315 9.303e-19)
(8.92655 -6.08171 2.20882e-19)
(8.54046 -6.50425 -2.16853e-19)
(8.19969 -7.02805 -8.78175e-19)
(8.0157 -7.56162 6.54511e-19)
(7.78991 -8.0772 0)
(7.55177 -8.48126 0)
(7.26617 -8.8449 -9.99284e-19)
(7.00966 -9.16303 7.90628e-19)
(6.72558 -9.46408 -1.87293e-19)
(6.49312 -9.74315 -5.66773e-19)
(6.27197 -10.0462 5.57118e-21)
(6.07571 -10.3234 1.26244e-18)
(5.89891 -10.6301 -7.05224e-19)
(5.74678 -10.91 5.16354e-19)
(5.59988 -11.1796 -8.37521e-19)
(5.42171 -11.4847 0)
(7.77607 -2.56033 -4.87069e-19)
(8.93873 -3.54841 7.59523e-19)
(8.56156 -4.18586 1.28916e-19)
(8.21173 -4.61326 1.26426e-19)
(7.96914 -5.22851 0)
(7.72272 -5.74438 9.45194e-19)
(7.30851 -6.10931 -9.28587e-19)
(7.02479 -6.559 1.15981e-19)
(6.79934 -7.0375 0)
(6.59782 -7.51867 8.64251e-19)
(6.41116 -7.9881 -7.41947e-19)
(6.22239 -8.40539 8.24404e-19)
(6.03877 -8.81802 -8.11336e-19)
(5.8138 -9.1448 7.85772e-19)
(5.6052 -9.48332 -6.75497e-19)
(5.42016 -9.78379 -7.48746e-19)
(5.24037 -10.0968 1.46843e-18)
(5.08739 -10.3895 -6.28817e-19)
(4.9455 -10.6754 8.91318e-20)
(4.80214 -11.0144 7.301e-19)
(6.79906 -1.99344 -3.89133e-19)
(7.55622 -2.91346 4.06129e-19)
(7.24092 -3.61291 -1.28885e-19)
(6.90558 -4.17045 -1.26398e-19)
(6.56002 -4.76893 0)
(6.47419 -5.43241 0)
(6.22045 -5.98621 0)
(5.91994 -6.39175 -2.36863e-19)
(5.67531 -6.84199 -9.23269e-19)
(5.45061 -7.22446 1.80893e-18)
(5.27271 -7.65575 -9.94411e-19)
(5.09316 -8.03496 -1.09646e-19)
(4.94036 -8.43682 0)
(4.80648 -8.8067 0)
(4.64073 -9.14508 -1.99955e-19)
(4.4895 -9.46678 0)
(4.32953 -9.76759 7.58436e-19)
(4.199 -10.068 -9.33008e-19)
(4.06694 -10.3386 -8.1094e-19)
(3.94109 -10.6796 7.65714e-19)
(5.76026 -1.49074 4.05432e-19)
(6.30773 -2.31765 7.03884e-19)
(6.0116 -3.06334 -8.10954e-22)
(5.67749 -3.61502 -1.68029e-21)
(5.38336 -4.10647 1.32068e-19)
(5.16403 -4.63822 -3.86214e-19)
(5.09588 -5.24323 0)
(4.95841 -5.77293 -3.69877e-19)
(4.79059 -6.26941 1.25413e-19)
(4.63408 -6.73119 4.70882e-19)
(4.45359 -7.16727 4.55655e-19)
(4.31658 -7.5941 -3.38647e-19)
(4.15216 -7.98876 8.66617e-19)
(4.03105 -8.3894 -7.45534e-19)
(3.88928 -8.75859 9.25777e-19)
(3.77335 -9.11345 -1.71727e-18)
(3.62986 -9.44292 7.91542e-19)
(3.50367 -9.74753 9.44936e-20)
(3.38194 -10.0334 7.45419e-19)
(3.24914 -10.3558 -7.90781e-19)
(4.6541 -1.16069 1.42162e-19)
(4.61997 -1.92085 -1.42954e-19)
(4.52904 -2.60206 5.69642e-19)
(4.53175 -3.37521 -5.59112e-19)
(4.31249 -3.94031 -2.72135e-19)
(4.06126 -4.47348 -6.61742e-19)
(3.84682 -4.97516 3.63405e-21)
(3.66546 -5.49715 5.08733e-19)
(3.52866 -5.97621 -1.21882e-19)
(3.37746 -6.45361 0)
(3.25601 -6.88784 0)
(3.13821 -7.31769 0)
(3.02009 -7.72359 0)
(2.92527 -8.10708 2.61369e-21)
(2.82864 -8.4988 0)
(2.74594 -8.84169 1.02224e-19)
(2.66491 -9.21546 4.01712e-19)
(2.58102 -9.51447 -1.17965e-18)
(2.50161 -9.83347 8.69541e-19)
(2.40539 -10.1473 -8.01399e-19)
(3.10361 -0.707237 0)
(3.56446 -1.57434 -7.52185e-20)
(3.17264 -2.13673 0)
(2.96804 -2.79282 2.13009e-19)
(2.95234 -3.4875 -1.41981e-19)
(2.83726 -4.06062 -5.43615e-19)
(2.74954 -4.64936 3.7508e-21)
(2.66573 -5.14604 5.21188e-19)
(2.55314 -5.66788 -5.04185e-19)
(2.47037 -6.11883 9.87187e-19)
(2.37244 -6.59211 -4.42401e-21)
(2.26935 -6.99737 -4.71183e-19)
(2.19421 -7.43085 4.54812e-19)
(2.08772 -7.79591 -5.57809e-19)
(2.02355 -8.19394 0)
(1.93586 -8.53182 -4.21045e-19)
(1.8787 -8.90269 4.14744e-19)
(1.80998 -9.22116 0)
(1.7559 -9.54208 -9.71113e-20)
(1.69001 -9.88147 0)
(1.96217 -0.445616 7.78759e-20)
(1.81262 -1.30263 7.53842e-20)
(1.88924 -2.07982 0)
(1.6977 -2.71107 2.89372e-19)
(1.65296 -3.33548 -3.56596e-19)
(1.55099 -3.928 2.06591e-19)
(1.47525 -4.49424 -6.0883e-19)
(1.39896 -5.0226 2.64709e-19)
(1.32212 -5.54834 -6.46287e-20)
(1.2612 -6.0148 0)
(1.18885 -6.50451 -6.13722e-20)
(1.15338 -6.91504 -5.97977e-20)
(1.08052 -7.36224 -5.82686e-20)
(1.0589 -7.72641 0)
(0.990032 -8.13143 -4.37754e-19)
(0.965062 -8.45477 9.11707e-19)
(0.906091 -8.82975 -7.83652e-19)
(0.874618 -9.12228 4.09806e-19)
(0.831957 -9.44806 5.00317e-20)
(0.789283 -9.75995 4.14644e-19)
(0.478981 -0.348937 -1.1742e-19)
(0.374446 -0.975316 -1.53626e-19)
(0.307617 -1.82728 5.36117e-22)
(0.327817 -2.39918 4.04159e-19)
(0.359556 -3.13136 -1.08583e-19)
(0.293132 -3.64708 -7.00142e-20)
(0.30784 -4.2993 6.90188e-20)
(0.250715 -4.77169 1.33914e-19)
(0.244016 -5.36521 6.46272e-20)
(0.193567 -5.78748 -2.5229e-19)
(0.19829 -6.32804 2.78613e-19)
(0.155743 -6.70879 5.9796e-20)
(0.163931 -7.20079 2.91577e-19)
(0.131506 -7.54189 -2.33352e-21)
(0.135959 -7.99432 2.55601e-20)
(0.107982 -8.29936 -4.87981e-19)
(0.105974 -8.71445 1.33626e-19)
(0.0880141 -8.98897 0)
(0.0804447 -9.33998 -2.48517e-20)
(0.0715049 -9.64037 -2.09545e-19)
(-0.631276 -0.414334 0)
(-1.17514 -1.00526 -7.71573e-20)
(-1.07841 -1.94592 1.51138e-19)
(-1.01845 -2.42229 -3.7233e-20)
(-1.00541 -3.1737 -3.63204e-20)
(-0.967017 -3.69151 0)
(-0.985565 -4.34564 -6.83231e-20)
(-0.972133 -4.83484 1.33727e-19)
(-0.9656 -5.40511 -6.54521e-20)
(-0.94745 -5.86001 6.32015e-20)
(-0.945413 -6.36422 -3.12591e-20)
(-0.913476 -6.78272 -5.99801e-20)
(-0.907455 -7.23244 1.17462e-19)
(-0.881807 -7.61103 -1.14455e-19)
(-0.877126 -8.01747 2.81979e-20)
(-0.85132 -8.36278 1.93259e-34)
(-0.837496 -8.73282 -2.62329e-20)
(-0.817459 -9.05422 1.54705e-19)
(-0.795943 -9.37096 -7.63672e-20)
(-0.780773 -9.70128 -5.32389e-20)
(-0.128089 -3.17437 9.4117e-20)
(1.15942 -12.9092 4.61514e-20)
(2.81252 -25.0553 0)
(3.91715 -31.9334 4.29475e-20)
(4.13337 -33.7625 4.09647e-20)
(4.16318 -33.8874 3.76731e-20)
(4.14143 -33.6864 0)
(4.07301 -33.3214 3.46836e-20)
(4.0112 -32.9693 0)
(3.96446 -32.7487 0)
(3.8897 -32.4199 -2.90503e-20)
(3.8364 -32.1776 2.01882e-21)
(3.77398 -31.9683 5.47104e-20)
(3.71174 -31.6984 0)
(3.61834 -31.4542 2.39554e-20)
(3.57624 -31.185 2.27496e-20)
(3.44934 -30.9656 2.16304e-20)
(3.42156 -30.6169 0)
(3.24761 -30.2468 -3.90386e-20)
(3.21606 -29.8416 3.78571e-20)
(0.0661224 -4.01971 1.41287e-19)
(1.92297 -15.4167 -1.75555e-19)
(3.80049 -27.3987 0)
(4.77562 -32.9699 -2.11646e-19)
(4.91098 -33.9787 1.99812e-19)
(4.92019 -33.8754 -3.3335e-19)
(4.84866 -33.5097 1.45922e-19)
(4.77483 -33.1444 1.00485e-19)
(4.7095 -32.8848 -4.53247e-19)
(4.63088 -32.5382 2.51563e-19)
(4.56191 -32.3068 -2.95155e-20)
(4.48959 -32.0509 2.17594e-19)
(4.3953 -31.7619 -7.77591e-21)
(4.32617 -31.4997 -2.03096e-19)
(4.22219 -31.257 -2.39553e-20)
(4.17183 -31.0014 -2.27485e-20)
(4.03034 -30.7322 -2.16288e-20)
(3.98741 -30.3565 0)
(3.79905 -29.982 -1.51613e-19)
(3.79827 -29.6547 5.07732e-21)
(0.403637 -5.0188 0)
(2.9259 -17.2699 0)
(4.80908 -28.7417 0)
(5.77664 -33.3404 -8.49206e-20)
(5.83099 -33.9163 7.96492e-20)
(5.79383 -33.7502 0)
(5.68183 -33.3388 -7.07161e-20)
(5.60441 -32.9934 1.98421e-19)
(5.50304 -32.6417 -1.96339e-19)
(5.4095 -32.3758 2.36976e-19)
(5.31601 -32.0722 -2.89453e-19)
(5.2032 -31.767 0)
(5.11703 -31.5487 -2.00887e-19)
(5.01935 -31.282 -1.82956e-19)
(4.90596 -31.0234 3.29534e-19)
(4.82445 -30.7333 -3.42236e-19)
(4.67288 -30.4621 2.96415e-19)
(4.61956 -30.0838 0)
(4.42576 -29.767 -3.29826e-19)
(4.42204 -29.4337 5.6275e-19)
(0.628575 -6.13807 4.66369e-19)
(3.84474 -18.972 0)
(6.00091 -30.0541 1.76244e-19)
(6.71868 -33.6618 2.47656e-19)
(6.74341 -33.8449 -4.74901e-19)
(6.62543 -33.5129 1.45656e-19)
(6.47457 -33.0791 7.10008e-20)
(6.36191 -32.7381 7.17058e-19)
(6.23851 -32.4255 -9.99984e-19)
(6.12544 -32.0964 -9.68617e-20)
(6.00137 -31.8095 5.10879e-19)
(5.90575 -31.5725 1.03468e-19)
(5.77939 -31.283 -4.87644e-19)
(5.66874 -30.9989 4.76138e-19)
(5.53898 -30.7428 1.32611e-19)
(5.45424 -30.465 -8.26412e-20)
(5.29281 -30.1954 1.18954e-19)
(5.22667 -29.8129 0)
(5.01383 -29.4828 -3.37487e-20)
(5.02112 -29.1835 0)
(1.2277 -7.02624 0)
(4.40862 -20.584 6.88143e-19)
(7.14958 -30.9017 -8.93955e-19)
(7.62841 -33.5716 8.08492e-19)
(7.60974 -33.5655 -6.21794e-19)
(7.48496 -33.2003 -1.46293e-19)
(7.32397 -32.8036 0)
(7.19135 -32.4281 3.75196e-19)
(7.05402 -32.1082 -4.97488e-19)
(6.90407 -31.7991 5.64727e-19)
(6.7834 -31.526 -4.41132e-19)
(6.62238 -31.2053 -1.0346e-19)
(6.49688 -30.9549 4.74137e-19)
(6.36466 -30.6979 -8.18408e-19)
(6.22753 -30.4434 5.14771e-19)
(6.11118 -30.16 -1.68984e-19)
(5.93277 -29.8642 -3.79086e-19)
(5.85418 -29.4944 8.66149e-19)
(5.63693 -29.2268 -4.91195e-19)
(5.63615 -28.9202 -5.75018e-19)
(1.58992 -7.71365 7.28109e-19)
(5.59777 -21.5393 7.10928e-19)
(8.25875 -31.3634 -7.07293e-19)
(8.7257 -33.4638 -1.59306e-19)
(8.59285 -33.308 1.52489e-19)
(8.39361 -32.8383 5.56173e-19)
(8.19077 -32.4221 -5.47702e-19)
(8.01924 -32.0977 0)
(7.83097 -31.7332 4.60507e-19)
(7.67273 -31.4332 -4.52808e-19)
(7.4925 -31.1209 -4.07379e-19)
(7.34941 -30.8763 4.00782e-19)
(7.19406 -30.6156 0)
(7.0386 -30.3327 0)
(6.8822 -30.0771 7.27306e-19)
(6.75094 -29.7939 -7.12812e-19)
(6.57187 -29.5465 -5.74082e-19)
(6.47585 -29.1808 5.65559e-19)
(6.23406 -28.8966 -5.14102e-19)
(6.20558 -28.5744 6.31653e-19)
(2.10531 -8.53071 -5.32684e-19)
(6.65309 -22.5157 1.91746e-19)
(9.42198 -31.5969 3.14578e-20)
(9.6777 -33.0657 8.07317e-19)
(9.47579 -32.7827 0)
(9.25302 -32.3659 0)
(9.01976 -31.9826 1.00874e-18)
(8.8163 -31.5943 -4.68632e-20)
(8.62277 -31.3187 -9.28408e-19)
(8.41255 -30.9829 8.30529e-19)
(8.2454 -30.7316 -8.16854e-19)
(8.04673 -30.4399 0)
(7.86951 -30.1741 6.89428e-19)
(7.70012 -29.9341 -6.78609e-19)
(7.53054 -29.6946 0)
(7.37686 -29.4361 0)
(7.17068 -29.1457 0)
(7.04353 -28.7849 0)
(6.78898 -28.5332 0)
(6.76155 -28.2116 -6.05688e-20)
(2.60068 -9.06947 5.13491e-19)
(7.73217 -23.0932 -8.68046e-19)
(10.4856 -31.446 0)
(10.7047 -32.5899 0)
(10.4319 -32.2843 1.24374e-18)
(10.1725 -31.8432 7.3597e-20)
(9.88186 -31.45 -1.13754e-18)
(9.6492 -31.1514 0)
(9.39146 -30.7701 1.05177e-19)
(9.17232 -30.5093 -9.83424e-20)
(8.94456 -30.2092 0)
(8.73597 -29.9568 8.62065e-20)
(8.54702 -29.7314 -7.32854e-19)
(8.34371 -29.47 1.33016e-18)
(8.15284 -29.2325 -2.72599e-20)
(7.9695 -28.9607 -5.67031e-19)
(7.76693 -28.7328 -6.29247e-20)
(7.6225 -28.4007 5.91356e-20)
(7.33843 -28.1301 0)
(7.26512 -27.7604 5.29165e-20)
(3.13385 -9.56359 3.31956e-19)
(8.84515 -23.5193 2.83873e-19)
(11.5932 -31.2522 -9.85463e-19)
(11.6509 -31.9667 2.85033e-19)
(11.2933 -31.584 1.25115e-19)
(10.9917 -31.1825 1.10128e-18)
(10.6704 -30.8138 -1.53575e-18)
(10.3903 -30.4584 1.11387e-18)
(10.1358 -30.2258 -9.02916e-19)
(9.86261 -29.8966 1.06745e-18)
(9.63185 -29.671 1.72441e-19)
(9.39679 -29.4286 7.27089e-19)
(9.16242 -29.1765 -4.10253e-19)
(8.94911 -28.9626 -7.89494e-19)
(8.73959 -28.7506 6.95893e-19)
(8.54427 -28.5251 0)
(8.31034 -28.2688 1.79133e-19)
(8.12219 -27.9218 4.98113e-20)
(7.81157 -27.6496 -1.02669e-19)
(7.72763 -27.2914 4.42224e-20)
(3.70046 -9.92795 -6.29517e-19)
(9.90043 -23.7158 6.46088e-19)
(12.5396 -30.6794 -1.65614e-20)
(12.5326 -31.2109 -5.55159e-19)
(12.1327 -30.8705 -5.13372e-19)
(11.8137 -30.4884 -2.45805e-19)
(11.4418 -30.1422 -1.46717e-20)
(11.1403 -29.8681 -2.12571e-19)
(10.8203 -29.5206 0)
(10.5333 -29.2963 -1.84689e-19)
(10.2619 -29.0344 -1.72432e-19)
(9.98449 -28.7985 -1.24165e-20)
(9.75262 -28.6069 5.532e-19)
(9.50143 -28.3861 -2.85841e-19)
(9.26961 -28.1848 -6.26486e-19)
(9.03586 -27.9502 4.86822e-19)
(8.79563 -27.7423 3.17402e-19)
(8.59035 -27.4324 -5.36103e-19)
(8.25222 -27.1649 1.02664e-19)
(8.12172 -26.768 6.30863e-19)
(4.24587 -10.172 -1.50798e-18)
(10.9262 -23.65 1.51921e-18)
(13.533 -30.0474 -1.65876e-18)
(13.4484 -30.3653 1.34909e-18)
(12.9651 -30.0073 1.1844e-18)
(12.5893 -29.6427 -9.1841e-19)
(12.1813 -29.3024 -1.21173e-18)
(11.8248 -29.0188 4.45668e-20)
(11.5042 -28.8181 7.2958e-19)
(11.1684 -28.5319 -4.82947e-19)
(10.8693 -28.336 1.2243e-18)
(10.593 -28.1455 -7.34034e-19)
(10.3035 -27.9361 -1.38692e-19)
(10.0412 -27.7513 3.51186e-19)
(9.78724 -27.5812 -9.21445e-19)
(9.54405 -27.3956 4.41394e-19)
(9.27782 -27.1905 0)
(9.01678 -26.8628 -7.30747e-19)
(8.64193 -26.5652 7.20178e-19)
(8.50481 -26.2105 -5.73614e-19)
(4.82281 -10.3573 2.84545e-19)
(11.9246 -23.5403 3.1466e-19)
(14.3601 -29.2794 1.35577e-18)
(14.1455 -29.4009 1.16927e-18)
(13.6428 -29.0899 -7.07768e-19)
(13.2444 -28.7788 9.90417e-19)
(12.8085 -28.487 -5.83458e-19)
(12.4279 -28.2358 6.77634e-19)
(12.0616 -27.972 -1.2927e-18)
(11.7083 -27.7847 4.59208e-19)
(11.3936 -27.5788 0)
(11.0566 -27.3838 0)
(10.7754 -27.2263 0)
(10.4778 -27.0601 -8.57649e-19)
(10.2006 -26.9014 8.44378e-19)
(9.91691 -26.7162 0)
(9.63545 -26.5361 0)
(9.36719 -26.2604 -7.63022e-20)
(8.98901 -25.9832 0)
(8.83318 -25.5961 -6.42565e-19)
(5.35106 -10.3961 -5.3519e-19)
(12.7903 -23.0682 -1.31634e-18)
(15.1222 -28.2314 -9.30939e-19)
(14.9451 -28.3546 -1.69441e-19)
(14.3675 -28.079 1.21933e-18)
(13.9252 -27.774 -2.45863e-19)
(13.4483 -27.4866 -4.59539e-20)
(13.0294 -27.2934 -7.96919e-19)
(12.6438 -27.1113 0)
(12.2545 -26.8988 -3.91116e-19)
(11.8945 -26.7369 6.21379e-19)
(11.5733 -26.5988 0)
(11.2383 -26.4441 8.09682e-19)
(10.9264 -26.2876 -7.96995e-19)
(10.6306 -26.1715 6.9111e-19)
(10.3482 -26.0341 -1.24417e-18)
(10.0607 -25.9056 6.29429e-19)
(9.7615 -25.6444 7.63041e-20)
(9.36013 -25.375 -5.92165e-20)
(9.21149 -25.028 4.80743e-19)
(5.88915 -10.408 -6.90518e-19)
(13.674 -22.6667 4.65963e-20)
(15.8611 -27.3333 6.38403e-20)
(15.497 -27.2386 1.5939e-18)
(14.9069 -26.9875 1.37851e-19)
(14.4259 -26.7646 -8.41352e-19)
(13.936 -26.5158 -5.83422e-19)
(13.4716 -26.2993 1.87305e-19)
(13.0709 -26.1484 6.4146e-19)
(12.6574 -25.9965 -6.7807e-19)
(12.297 -25.8608 3.25418e-19)
(11.9152 -25.722 -8.39233e-19)
(11.5836 -25.6116 6.57597e-19)
(11.2472 -25.4965 -6.30469e-19)
(10.9258 -25.3845 5.53332e-19)
(10.6007 -25.2586 4.54367e-19)
(10.2888 -25.1332 -5.21877e-19)
(9.98316 -24.9556 3.94758e-19)
(9.58292 -24.7175 -3.78566e-19)
(9.39271 -24.3704 -4.27303e-19)
(6.36297 -10.2906 -8.43473e-19)
(14.401 -21.9395 -1.49399e-19)
(16.339 -25.9896 8.03417e-19)
(16.0743 -26.0311 -6.73572e-19)
(15.448 -25.8398 6.61337e-19)
(14.9311 -25.6236 1.54586e-19)
(14.4148 -25.4144 0)
(13.9395 -25.2916 -1.07878e-19)
(13.4981 -25.131 2.96063e-19)
(13.0719 -25.0169 -1.04919e-18)
(12.6634 -24.8901 7.37409e-19)
(12.2982 -24.8091 1.60274e-19)
(11.9325 -24.7205 8.09613e-20)
(11.5731 -24.604 0)
(11.24 -24.5347 1.52322e-20)
(10.924 -24.4517 4.17371e-19)
(10.6203 -24.402 -3.34133e-20)
(10.3034 -24.2438 5.89568e-20)
(9.89852 -24.0396 -3.35751e-19)
(9.72604 -23.7127 7.25184e-20)
(6.83215 -10.1702 7.39075e-19)
(15.1443 -21.2542 -1.23315e-18)
(16.9434 -24.9338 6.96563e-19)
(16.459 -24.7882 5.7476e-19)
(15.8427 -24.6115 -4.86528e-20)
(15.2892 -24.4931 -3.97172e-19)
(14.757 -24.2954 9.74478e-20)
(14.2303 -24.1476 1.07874e-19)
(13.7987 -24.0961 0)
(13.3386 -23.9802 0)
(12.9402 -23.9239 -5.363e-19)
(12.5288 -23.8356 8.8136e-19)
(12.157 -23.7813 -4.71378e-19)
(11.7976 -23.7161 0)
(11.4382 -23.6559 1.58446e-20)
(11.0829 -23.5744 -3.29944e-19)
(10.7498 -23.5222 3.21182e-19)
(10.4418 -23.4857 -3.75407e-20)
(10.0472 -23.3426 -2.19984e-19)
(9.83738 -23.0277 1.54993e-19)
(7.26949 -9.88274 -6.31556e-19)
(15.6595 -20.3843 7.51225e-19)
(17.218 -23.4598 0)
(16.7832 -23.5003 0)
(16.1722 -23.3753 9.7599e-20)
(15.5878 -23.2662 -4.80069e-19)
(15.0506 -23.1443 1.42277e-20)
(14.5203 -23.0577 3.21734e-19)
(14.0386 -22.9513 -5.0692e-19)
(13.5935 -22.9412 9.42284e-19)
(13.1489 -22.8569 -4.36543e-19)
(12.7502 -22.8428 8.91028e-20)
(12.3685 -22.8265 3.19112e-19)
(11.9712 -22.7541 -1.26991e-20)
(11.6082 -22.7232 -1.87452e-19)
(11.2593 -22.6879 3.15836e-20)
(10.9223 -22.6675 -1.72945e-19)
(10.5953 -22.6359 1.43503e-19)
(10.2259 -22.5838 1.39634e-20)
(10.0288 -22.3022 9.38214e-20)
(7.6813 -9.59809 0)
(16.1477 -19.4496 3.15927e-19)
(17.6326 -22.2625 -3.78666e-19)
(17.0047 -22.1578 0)
(16.3859 -22.0584 -9.75921e-20)
(15.7873 -22.0394 2.75879e-19)
(15.2289 -21.9195 -3.45805e-19)
(14.6713 -21.8641 0)
(14.2018 -21.858 3.41097e-19)
(13.7121 -21.7976 -3.35401e-19)
(13.2897 -21.8264 2.22298e-20)
(12.8496 -21.7771 -3.53828e-20)
(12.4513 -21.8027 -2.97118e-20)
(12.0827 -21.8057 -2.45865e-20)
(11.6877 -21.7919 -9.89489e-20)
(11.3086 -21.7407 1.27371e-19)
(10.9443 -21.7346 -7.26696e-20)
(10.6254 -21.7794 2.51559e-20)
(10.274 -21.7956 4.43354e-21)
(10.0624 -21.582 2.73292e-21)
(8.05926 -9.22821 0)
(16.4877 -18.4803 -3.32115e-19)
(17.6914 -20.7325 1.95518e-19)
(17.0939 -20.8176 2.05815e-19)
(16.507 -20.7574 -3.94573e-20)
(15.8837 -20.7616 -3.53584e-20)
(15.3356 -20.7315 -1.76519e-19)
(14.7628 -20.6819 0)
(14.2601 -20.6687 0)
(13.7967 -20.7154 0)
(13.3312 -20.6942 -2.22293e-20)
(12.9092 -20.7326 0)
(12.5126 -20.7712 1.91863e-21)
(12.1015 -20.7705 4.58152e-21)
(11.729 -20.8052 5.4837e-20)
(11.3602 -20.8077 -1.33915e-19)
(10.9771 -20.7791 7.8712e-20)
(10.619 -20.8194 1.41659e-19)
(10.2762 -20.8774 -2.58453e-19)
(10.0844 -20.7461 1.42661e-19)
(8.40434 -8.8009 0)
(16.7324 -17.4367 0)
(17.8614 -19.415 6.93083e-20)
(17.1384 -19.4336 5.74144e-20)
(16.5268 -19.4163 0)
(15.9066 -19.4725 8.29614e-20)
(15.3403 -19.4583 -8.15036e-20)
(14.7783 -19.4881 0)
(14.2639 -19.4987 3.3912e-21)
(13.7718 -19.5277 -3.33457e-21)
(13.3371 -19.6235 0)
(12.8753 -19.6137 1.11391e-19)
(12.4607 -19.7005 2.58247e-20)
(12.086 -19.7618 -1.39787e-19)
(11.6757 -19.8073 0)
(11.2979 -19.8172 0)
(10.8881 -19.8111 0)
(10.514 -19.8166 2.35306e-19)
(10.1519 -19.8223 -2.53797e-19)
(9.90104 -19.7394 0)
(2.65144 -28.8865 0)
(2.51839 -27.1983 0)
(2.08824 -26.9263 -1.95494e-21)
(1.92746 -25.9741 -1.51424e-21)
(1.65799 -25.8512 0)
(1.57187 -25.2996 1.3401e-22)
(1.41556 -25.1963 6.521e-22)
(1.39273 -24.9016 0)
(1.28325 -24.8 1.10178e-22)
(1.17196 -24.5221 0)
(1.03781 -24.3618 1.45076e-22)
(0.956731 -24.1715 1.38677e-22)
(0.812302 -24.1624 -1.39788e-22)
(0.729827 -24.024 -3.94098e-22)
(0.567534 -24.0373 0)
(0.508509 -23.8599 1.28562e-22)
(0.398246 -23.613 -6.6583e-22)
(0.459726 -21.2798 0)
(0.107391 -15.3032 0)
(0.211044 -6.32579 0)
(3.11286 -28.7294 1.59531e-20)
(2.8189 -27.1056 0)
(2.26885 -26.8627 8.77766e-21)
(2.10935 -25.9612 -5.33433e-21)
(1.80998 -25.8709 0)
(1.70273 -25.3033 -3.52936e-21)
(1.5191 -25.2085 1.25075e-21)
(1.46379 -24.9028 0)
(1.3388 -24.7879 -4.17596e-23)
(1.20718 -24.4951 -6.8817e-23)
(1.06397 -24.3337 -5.45834e-22)
(0.981061 -24.1396 9.75067e-22)
(0.827182 -24.1322 -9.39529e-22)
(0.746509 -23.9956 3.3701e-22)
(0.587518 -24.0066 4.21997e-22)
(0.535978 -23.8354 -5.15665e-22)
(0.421615 -23.607 1.05483e-21)
(0.478531 -21.2331 1.42835e-21)
(0.110831 -15.2612 2.38602e-22)
(0.203988 -6.27596 7.38629e-22)
(3.62763 -28.5017 -7.76516e-21)
(3.24531 -26.9623 -1.32375e-20)
(2.57913 -26.7549 -7.28249e-21)
(2.33103 -25.8399 0)
(1.96385 -25.7507 0)
(1.8164 -25.2129 3.87633e-21)
(1.61713 -25.1372 -9.51066e-22)
(1.53654 -24.8508 -7.40939e-22)
(1.39278 -24.7322 -6.32095e-22)
(1.2419 -24.4471 -6.9958e-23)
(1.10509 -24.3004 0)
(1.01432 -24.1072 0)
(0.865011 -24.0957 0)
(0.781597 -23.9571 1.6389e-21)
(0.611424 -23.976 0)
(0.56796 -23.8157 2.01728e-21)
(0.448529 -23.6032 -2.13433e-21)
(0.500944 -21.2082 -8.118e-22)
(0.105544 -15.2458 -1.14001e-21)
(0.224557 -6.24208 0)
(4.11376 -28.3001 2.22725e-20)
(3.59978 -26.8096 -4.21343e-20)
(2.74967 -26.6325 1.59636e-21)
(2.50853 -25.789 1.27478e-20)
(2.12025 -25.7419 0)
(1.95335 -25.2092 4.4846e-21)
(1.72479 -25.1385 -8.79833e-21)
(1.60725 -24.8409 3.2747e-21)
(1.44713 -24.71 -8.33391e-22)
(1.27645 -24.4174 -4.8993e-22)
(1.1276 -24.2715 -2.44897e-22)
(1.03538 -24.0738 1.23421e-21)
(0.87679 -24.0654 -1.24432e-21)
(0.794917 -23.928 -7.74144e-22)
(0.631767 -23.9465 -8.68391e-22)
(0.595233 -23.7941 -2.01611e-21)
(0.471176 -23.6001 2.62333e-21)
(0.516326 -21.1675 -6.20528e-22)
(0.105754 -15.2165 5.81121e-22)
(0.221195 -6.20176 2.14171e-21)
(4.56525 -28.0087 5.71987e-20)
(3.92305 -26.6053 9.70296e-21)
(3.02033 -26.4893 -1.24939e-20)
(2.73073 -25.6726 1.74298e-20)
(2.29112 -25.6171 0)
(2.06058 -25.1103 -2.57035e-21)
(1.82029 -25.0545 1.63989e-21)
(1.67098 -24.7801 0)
(1.49807 -24.6499 8.57769e-23)
(1.31 -24.3663 0)
(1.17035 -24.2383 1.53687e-21)
(1.06678 -24.0419 0)
(0.912861 -24.0289 0)
(0.828102 -23.8907 3.46828e-21)
(0.65585 -23.918 -1.76576e-21)
(0.62718 -23.7772 2.03479e-21)
(0.492465 -23.5945 0)
(0.528962 -21.1449 -2.64014e-22)
(0.106881 -15.2049 5.67059e-22)
(0.23569 -6.17054 0)
(5.03816 -27.7225 2.19489e-20)
(4.28137 -26.4002 -1.77394e-20)
(3.25434 -26.3449 2.91615e-20)
(2.90116 -25.5998 -2.85301e-20)
(2.45073 -25.5832 6.74671e-21)
(2.20536 -25.0845 2.57821e-21)
(1.93129 -25.0415 -2.76454e-21)
(1.74737 -24.7572 -1.36457e-21)
(1.55146 -24.6183 1.35421e-22)
(1.34618 -24.3348 -1.26775e-21)
(1.19086 -24.2081 4.71569e-22)
(1.08435 -24.0068 0)
(0.921592 -23.9984 0)
(0.837587 -23.8615 4.73088e-24)
(0.673338 -23.8903 1.7945e-21)
(0.647829 -23.7516 -1.3698e-21)
(0.505419 -23.5909 0)
(0.536577 -21.117 2.5393e-21)
(0.100916 -15.1927 4.04558e-21)
(0.236155 -6.13323 2.93199e-22)
(5.43453 -27.3837 -6.08015e-20)
(4.54183 -26.1423 5.66635e-20)
(3.48706 -26.1547 -1.27141e-20)
(3.0875 -25.4684 0)
(2.62574 -25.4523 -6.77027e-21)
(2.30124 -24.9837 7.29457e-21)
(2.02129 -24.9458 -4.56355e-21)
(1.80204 -24.6894 1.36844e-21)
(1.60166 -24.5543 0)
(1.38104 -24.2807 0)
(1.23568 -24.1741 -2.17224e-21)
(1.11495 -23.9744 2.16276e-21)
(0.956994 -23.9622 0)
(0.867286 -23.8255 -5.32337e-21)
(0.696144 -23.8616 1.83057e-21)
(0.667391 -23.7371 1.3511e-21)
(0.520648 -23.5856 -3.45035e-22)
(0.546682 -21.0994 -3.01911e-21)
(0.096835 -15.1891 -1.04776e-21)
(0.245282 -6.10774 -5.82356e-22)
(5.86177 -27.0125 0)
(4.8692 -25.8901 -2.80729e-20)
(3.77385 -25.9979 2.81419e-20)
(3.27823 -25.3787 0)
(2.81613 -25.4035 0)
(2.4502 -24.9294 -6.65448e-21)
(2.14053 -24.9182 6.68379e-21)
(1.88224 -24.653 0)
(1.65352 -24.5152 -7.2491e-22)
(1.41828 -24.2473 2.32728e-21)
(1.2544 -24.1417 -1.60256e-21)
(1.12942 -23.9379 -2.88857e-21)
(0.964818 -23.9309 2.92572e-21)
(0.873825 -23.7958 0)
(0.710944 -23.8337 0)
(0.684008 -23.7119 1.5446e-21)
(0.527779 -23.582 -5.05271e-22)
(0.55131 -21.0817 -2.7091e-23)
(0.0925924 -15.1876 0)
(0.250021 -6.07625 -5.82688e-22)
(6.22746 -26.6331 3.41335e-20)
(5.12266 -25.6 -3.41734e-20)
(4.00021 -25.7687 -3.00107e-20)
(3.43958 -25.2278 3.38776e-20)
(2.97431 -25.26 -2.39632e-20)
(2.54254 -24.8231 3.66057e-21)
(2.22886 -24.8102 6.02565e-21)
(1.92742 -24.5777 0)
(1.70572 -24.4471 0)
(1.45408 -24.1911 -1.54743e-21)
(1.3001 -24.1061 0)
(1.1596 -23.9047 0)
(1.00109 -23.8953 0)
(0.90242 -23.7607 0)
(0.729252 -23.8057 0)
(0.699516 -23.6969 0)
(0.534111 -23.5786 4.17678e-22)
(0.555685 -21.0704 -9.17459e-22)
(0.087343 -15.1945 9.28061e-23)
(0.257335 -6.05416 -4.74715e-22)
(6.57605 -26.2075 -3.53885e-20)
(5.41543 -25.3137 -4.54113e-20)
(4.29237 -25.5828 -7.55979e-21)
(3.65132 -25.1199 -2.71421e-21)
(3.18571 -25.1986 9.47562e-21)
(2.69052 -24.7462 1.21266e-20)
(2.34859 -24.7665 1.58045e-21)
(2.01042 -24.5276 0)
(1.7568 -24.4033 1.54148e-21)
(1.48998 -24.1537 -2.51749e-21)
(1.31737 -24.0708 -2.38224e-21)
(1.17124 -23.8671 -3.02234e-21)
(1.00844 -23.8633 0)
(0.909 -23.7299 -3.87881e-21)
(0.740451 -23.7769 -4.02072e-21)
(0.712758 -23.6711 0)
(0.538901 -23.5758 0)