/*--------------------------------*- C++ -*----------------------------------*\
  =========                 |
  \\      /  F ield         | OpenFOAM: The Open Source CFD Toolbox
   \\    /   O peration     | Website:  https://openfoam.org
    \\  /    A nd           | Version:  9
     \\/     M anipulation  |
\*---------------------------------------------------------------------------*/
FoamFile
{
    format      ascii;
    class       volScalarField;
    location    "1.7";
    object      nut;
}
// * * * * * * * * * * * * * * * * * * * * * * * * * * * * * * * * * * * * * //

dimensions      [0 2 -1 0 0 0 0];

internalField   nonuniform List<scalar> 
46400
(
0.0180537
0.00678276
0.00196033
0.00128673
0.00131185
0.00128142
0.00119102
0.00116094
0.00111712
0.00108974
0.0010221
0.000998111
0.000970969
0.00094328
0.000909087
0.000911067
0.000875908
0.000815262
0.00116308
0.000948324
0.0177467
0.00565779
0.00149939
0.001322
0.00127439
0.00125974
0.00119859
0.00119359
0.00115077
0.00109624
0.001044
0.00101906
0.000985075
0.000946667
0.000906624
0.000881586
0.00081762
0.000737689
0.000997274
0.000911716
0.0174128
0.00481171
0.00124191
0.00141113
0.00132302
0.00132207
0.00122228
0.0011918
0.00115617
0.00113412
0.00106245
0.0010314
0.00100349
0.000972501
0.000940925
0.000922855
0.000859006
0.0008066
0.00110681
0.000939958
0.0170001
0.00391706
0.00117963
0.00141555
0.00128527
0.00129545
0.00123455
0.00121161
0.00116632
0.00113044
0.00108588
0.00104316
0.00101205
0.000976272
0.000943277
0.000927944
0.000873468
0.000803473
0.00112229
0.00101364
0.0164846
0.0039708
0.00127485
0.00148537
0.00136239
0.0013527
0.00126369
0.00122836
0.00118868
0.0011644
0.00110876
0.0010736
0.00103788
0.00100915
0.000977062
0.000955656
0.000907886
0.000850386
0.00114323
0.00101357
0.015884
0.0048073
0.00132507
0.0014897
0.00134611
0.00134632
0.00128351
0.00124058
0.00119153
0.00115783
0.00112347
0.00108349
0.0010529
0.00100979
0.000992831
0.000973901
0.000929438
0.000874565
0.00117692
0.00107781
0.0153546
0.00443378
0.00142951
0.00155301
0.0014188
0.0013816
0.00130958
0.00126347
0.00121335
0.00117152
0.00112968
0.00109466
0.00107476
0.00103144
0.000983713
0.000972735
0.000920551
0.000859026
0.00114112
0.00104998
0.014274
0.00394442
0.00141025
0.00152742
0.00139922
0.00137299
0.00131703
0.00126785
0.00122733
0.0011727
0.00113615
0.00109436
0.00107762
0.00107035
0.00103446
0.000993283
0.000960409
0.000885117
0.00113861
0.00109124
0.0130293
0.00321021
0.00145752
0.00153955
0.00144557
0.00137983
0.00132902
0.00126993
0.00123294
0.00118489
0.00113091
0.00107762
0.00104295
0.00102224
0.00102444
0.000991927
0.000934968
0.000878021
0.00104362
0.00100167
0.0103909
0.00253341
0.00148908
0.00146552
0.00141461
0.00135559
0.00131733
0.00127087
0.00123944
0.00118888
0.0011604
0.00110533
0.00106223
0.00103193
0.00102547
0.00103598
0.00100159
0.000951437
0.00111245
0.00103639
0.00842987
0.00213766
0.00149531
0.00145422
0.00142589
0.0013611
0.00131461
0.0012482
0.00123952
0.00119448
0.00113609
0.00109074
0.00102638
0.000967573
0.000940673
0.000925257
0.000928276
0.000904442
0.00106876
0.00104388
0.00675974
0.00185675
0.00152152
0.00143619
0.00139907
0.00134815
0.00132498
0.00125072
0.00121735
0.00122705
0.00121639
0.00117128
0.00114484
0.00106194
0.00100424
0.000948263
0.000891291
0.000860124
0.000971866
0.000968282
0.00560687
0.0016641
0.00150137
0.00144293
0.0014072
0.00133941
0.00132623
0.00124783
0.00117346
0.00110691
0.00111732
0.00110074
0.00110002
0.00109596
0.00105138
0.00102609
0.000956406
0.000904886
0.000968829
0.00093353
0.00483992
0.00162325
0.00152824
0.0014487
0.00142156
0.00133858
0.00135971
0.00133957
0.00129431
0.0012102
0.00113564
0.00110005
0.00105501
0.00104171
0.00102545
0.00100447
0.000981011
0.00093185
0.00100285
0.000937807
0.00428707
0.00156236
0.00150187
0.0014384
0.00141417
0.00128115
0.00123105
0.00122396
0.00123344
0.00122132
0.00119167
0.00114615
0.00111695
0.00106862
0.00105088
0.00102049
0.000997047
0.000958329
0.00103069
0.00097799
0.00436428
0.00164379
0.00152528
0.00148206
0.0015466
0.00144791
0.00134537
0.00124154
0.00119422
0.0011501
0.00112922
0.00109693
0.00107139
0.0010438
0.00101367
0.000996249
0.000961637
0.000927133
0.000986145
0.000934295
0.00367217
0.00161066
0.00142683
0.00128394
0.0013284
0.00137413
0.00136864
0.00133098
0.00128023
0.00123173
0.00118549
0.00114771
0.00110932
0.00107442
0.00104188
0.00101239
0.000978163
0.000926063
0.00098097
0.000919978
0.0036634
0.00178678
0.00171432
0.00149123
0.00135535
0.00129085
0.00127005
0.00123532
0.00121632
0.0011785
0.00115332
0.001114
0.00109166
0.00105392
0.00103209
0.0010012
0.000973552
0.00091987
0.00096307
0.000908761
0.00266645
0.00137475
0.00153029
0.0015155
0.00150257
0.00139827
0.00135694
0.00129433
0.00125978
0.00121158
0.00117952
0.00113576
0.00110556
0.00106713
0.00103997
0.0010107
0.000981181
0.000928237
0.00097204
0.00090737
0.000697
0.000553651
0.00134286
0.00125724
0.00139676
0.00129352
0.00131544
0.00123998
0.00123633
0.0011753
0.00116599
0.00111476
0.00110004
0.00105393
0.00103497
0.000997803
0.000972371
0.000908865
0.00095876
0.000882342
0.000464041
0.000260202
0.00385105
0.00844712
0.0107398
0.00796552
0.00385395
0.00136662
0.000368762
8.46589e-05
0.000121243
0.000222233
0.000253077
0.000146076
0.000137392
0.000195645
0.000223056
0.000208581
0.000171988
0.000254471
4.55668e-05
0.00176262
0.00663252
0.010682
0.00923051
0.00501093
0.00184916
0.000467195
0.00010355
0.000147844
0.000245954
0.00026482
0.000186508
0.000199933
0.000217533
0.000229217
0.000207242
0.000231761
0.000248661
0.000302769
0.000170787
0.00412596
0.00926307
0.0107801
0.0068702
0.00273933
0.000685029
0.000109508
0.000150823
0.000266034
0.000247586
0.000216824
0.000223826
0.00023855
0.000208427
0.000211097
0.000233694
0.00029872
0.000266913
0.00027715
0.000543708
0.00711343
0.0107873
0.00927231
0.00469973
0.00124025
9.44108e-05
0.000118594
0.000277412
0.000311207
0.000265898
0.000270793
0.000249837
0.000237637
0.000228453
0.000281672
0.000303802
0.000292913
0.000251339
0.000321321
0.00267848
0.00885281
0.01133
0.00754781
0.00241582
0.000315304
0.000148448
0.000261305
0.000346238
0.000336877
0.000273443
0.000271992
0.000255012
0.000281747
0.000272639
0.000310099
0.000288733
0.000296482
0.000307674
0.000349541
0.00272252
0.0102247
0.0109037
0.00563281
0.0010429
0.000167377
0.000273485
0.000376341
0.000403046
0.00032115
0.00030532
0.000326682
0.000322274
0.000310296
0.00029639
0.000354317
0.000333744
0.000363402
0.000346218
0.000375679
0.0054328
0.0112919
0.00967747
0.00333682
0.00026386
0.000213602
0.000384926
0.000422853
0.000405627
0.000387919
0.000363578
0.000364845
0.000326287
0.000343632
0.000356575
0.000396731
0.000338289
0.000378471
0.000384399
0.000405424
0.00743848
0.0118018
0.00859198
0.00157596
0.000257161
0.000387427
0.000491834
0.000524042
0.000500347
0.000420687
0.000399359
0.000406407
0.000403616
0.000400974
0.000389287
0.000428116
0.000376792
0.000456338
0.000428212
0.000424611
0.00985347
0.0120309
0.00741018
0.000668794
0.000277625
0.000580051
0.000622695
0.000539616
0.000522657
0.000486896
0.000474089
0.000474273
0.000425884
0.00042968
0.00044777
0.000474861
0.000404455
0.000480314
0.000446512
0.000445318
0.0124181
0.0118369
0.00534512
0.000392841
0.000480813
0.000641244
0.00064873
0.000645405
0.000624665
0.000541843
0.000515739
0.000508506
0.000498207
0.000497741
0.000488716
0.000503782
0.000449675
0.00054607
0.00049036
0.00047446
0.0141578
0.0118199
0.00364802
0.000204654
0.000676683
0.000797511
0.000758203
0.000688741
0.000646788
0.000600399
0.000589826
0.000585281
0.000531636
0.000526257
0.000544086
0.000554067
0.000486064
0.000555491
0.000509934
0.000519731
0.0155869
0.0113157
0.00232409
0.000234633
0.000787008
0.000806644
0.000771427
0.000765489
0.000743568
0.000661021
0.000631062
0.00061944
0.000600273
0.000596401
0.000589682
0.000580329
0.000547336
0.000629188
0.000521462
0.000536109
0.0162493
0.011025
0.0015319
0.000462335
0.000900185
0.000908011
0.000893455
0.000814739
0.000765725
0.00071691
0.000702752
0.000693858
0.000636164
0.000627119
0.000640361
0.000636049
0.00058808
0.000643518
0.000534003
0.000566716
0.0169829
0.0105496
0.0010772
0.000596926
0.00102122
0.000905792
0.000901567
0.000883442
0.000855715
0.000775342
0.000738934
0.00072936
0.000702951
0.000689917
0.000680753
0.000664718
0.000643323
0.000692731
0.000544314
0.000598728
0.0175761
0.0101995
0.00116015
0.000798694
0.00109181
0.0010082
0.00100441
0.000931504
0.000877311
0.000830806
0.00080863
0.000796379
0.000736649
0.000724022
0.000730818
0.000714876
0.000682989
0.000704617
0.000541138
0.000622453
0.0178735
0.00973958
0.00187845
0.00091737
0.00115724
0.00102003
0.00101099
0.000994202
0.000960134
0.00088166
0.00083803
0.000834122
0.000802677
0.000778281
0.000764702
0.000748537
0.000745149
0.000749206
0.000548878
0.000661878
0.0182396
0.00943261
0.00225748
0.00107029
0.0011964
0.00111302
0.00109453
0.00103283
0.000977422
0.000936743
0.00090177
0.00088695
0.000832124
0.000815854
0.000809625
0.000786742
0.000782238
0.000762839
0.000539527
0.000687324
0.0182724
0.00911903
0.00224809
0.00108008
0.00125122
0.0011077
0.00109374
0.00108786
0.00104792
0.000974565
0.000925883
0.000926519
0.000894519
0.000861719
0.000841215
0.000828968
0.000846493
0.000813994
0.000552488
0.000736866
0.0183656
0.00863621
0.00206533
0.00116588
0.00128348
0.00120908
0.00115413
0.00111427
0.00106263
0.00102964
0.000979617
0.000962323
0.000922613
0.000903575
0.000878695
0.000862923
0.000877702
0.000863393
0.000571222
0.000711221
0.0182068
0.00772058
0.00200036
0.00119013
0.00127924
0.00119642
0.00115561
0.00115859
0.00111878
0.00105419
0.00100547
0.00100609
0.000981155
0.000950332
0.000929758
0.000946924
0.00094593
0.000941783
0.000738515
0.00079775
0.00232147
0.00179787
0.0018595
0.00164075
0.00166359
0.00150916
0.00147961
0.0013896
0.00131898
0.00125074
0.00114105
0.00107508
0.000972842
0.000925467
0.000824428
0.000800256
0.000958143
0.00415134
0.0100062
0.0221378
0.00217045
0.00183885
0.00187962
0.00155428
0.00173664
0.001644
0.00156618
0.00140198
0.00129968
0.00122826
0.00111679
0.00104826
0.000940937
0.000889456
0.000790657
0.000748296
0.000933885
0.00428526
0.0100232
0.0218766
0.00234171
0.00193353
0.00201335
0.00165833
0.00172405
0.00150635
0.00144755
0.00137717
0.00130476
0.00123855
0.0011268
0.00106451
0.000961132
0.000917003
0.000809464
0.000780917
0.000947525
0.00429311
0.0100743
0.0217507
0.00227857
0.00199244
0.00206724
0.00159917
0.00176019
0.00161981
0.00153783
0.00139824
0.00128796
0.0012172
0.00110397
0.00103996
0.000932238
0.000881802
0.000777432
0.000730096
0.000922286
0.00439344
0.0100831
0.0215037
0.00245953
0.00208272
0.00213627
0.00166003
0.00177674
0.00151317
0.00142872
0.00137217
0.0012928
0.0012282
0.00111474
0.00105588
0.00095179
0.00091074
0.000797103
0.000764374
0.000940316
0.00438969
0.010136
0.0213786
0.00256281
0.00214972
0.00220972
0.00165646
0.00179451
0.00160707
0.00151148
0.00139566
0.001278
0.00120763
0.00109326
0.00103315
0.000925647
0.000876548
0.000767246
0.000715265
0.000913554
0.00447105
0.0101405
0.0211479
0.00275747
0.00222011
0.00223081
0.00169358
0.00181383
0.00151914
0.00141254
0.00136971
0.00128287
0.00121858
0.00110463
0.00104903
0.00094504
0.000906614
0.000787977
0.000751086
0.000934974
0.0044543
0.0101921
0.0210236
0.00301013
0.00230067
0.00230177
0.00172579
0.00182471
0.00160653
0.00149247
0.0013943
0.00127007
0.00119888
0.00108439
0.00102772
0.000921419
0.000873691
0.000760626
0.000704417
0.000906376
0.0045154
0.0101929
0.0208105
0.00330685
0.00236483
0.00230327
0.00176625
0.00183588
0.00153131
0.00140186
0.00136646
0.00127356
0.00120912
0.00109643
0.00104368
0.00094062
0.000904172
0.000782593
0.000742067
0.000930454
0.00448642
0.0102426
0.0206896
0.00363669
0.00246552
0.00238004
0.00181274
0.00184198
0.00160996
0.00147531
0.00139028
0.00126314
0.00119061
0.00107761
0.00102341
0.000919534
0.000872646
0.000758168
0.0006988
0.000899996
0.00452533
0.0102408
0.0204973
0.00381037
0.00250554
0.00238076
0.00185441
0.00183499
0.00154848
0.00140121
0.0013641
0.00126515
0.00119964
0.00108952
0.00103928
0.000938645
0.000902717
0.000781766
0.000738427
0.000927732
0.00448408
0.0102922
0.0203839
0.00401805
0.00261437
0.00245725
0.00190632
0.00184732
0.00162079
0.00146382
0.00138209
0.00125496
0.0011822
0.00107225
0.00102022
0.00091996
0.000873129
0.000760625
0.000698838
0.000897705
0.004489
0.0102915
0.0202171
0.00411005
0.00262726
0.00247245
0.00194269
0.00181431
0.00156562
0.00140497
0.00135897
0.00125583
0.00118988
0.00108342
0.00103566
0.000938769
0.000902809
0.000786148
0.000739971
0.000929664
0.00445129
0.0103369
0.0201165
0.00434523
0.0027203
0.00253693
0.00198812
0.00183696
0.00163993
0.00146468
0.00137241
0.00124515
0.00117343
0.00106769
0.00101817
0.000922429
0.000876251
0.000768936
0.000704306
0.000896917
0.00442654
0.0103344
0.0199738
0.0044392
0.00271994
0.00255897
0.00202028
0.00178515
0.00158412
0.00140988
0.00134736
0.00124408
0.00117903
0.00107744
0.00103254
0.00094057
0.000905676
0.000796603
0.000746492
0.000926508
0.0043737
0.0103765
0.019898
0.00469293
0.00279987
0.00260081
0.00205023
0.00180688
0.00165872
0.00147226
0.00135897
0.00123268
0.00116257
0.00106235
0.00101591
0.000925803
0.000882093
0.000783095
0.00071456
0.000893641
0.00432005
0.0103662
0.0197721
0.00486332
0.00281967
0.00261584
0.00208103
0.00175684
0.00160805
0.00142333
0.00133557
0.00123263
0.00116829
0.00107209
0.00103022
0.00094408
0.000912012
0.000812472
0.000757937
0.000923006
0.00427625
0.0104135
0.0196761
0.00502578
0.00284662
0.00261663
0.0021
0.00177866
0.00168282
0.00149071
0.00135259
0.00122659
0.00115677
0.00106137
0.0010185
0.0009339
0.000894995
0.000806071
0.00073464
0.000888046
0.00419534
0.0104346
0.0196801
0.00493944
0.00291096
0.00256919
0.00208035
0.00170805
0.00160655
0.00142822
0.00130726
0.00120469
0.00114331
0.00105697
0.00101999
0.000943165
0.000915849
0.000833277
0.000769503
0.000939847
0.0041184
0.0104221
0.0195183
0.00574648
0.00316068
0.00263666
0.00211904
0.0017465
0.00170755
0.00152271
0.00136099
0.00123602
0.00116321
0.00106995
0.00102603
0.00094386
0.000909675
0.000829068
0.000756188
0.000886669
0.00387527
0.0101428
0.0189556
0.0165915
0.0323618
0.0171253
0.0232225
0.0197656
0.0179887
0.0157874
0.0140872
0.0127743
0.0118965
0.0109169
0.0105081
0.00989376
0.00983951
0.00927218
0.00945526
0.0111363
0.0359187
0.0970819
0.167799
0.0323394
0.023197
0.0202117
0.0183422
0.0166472
0.0145602
0.0133101
0.0121009
0.0108204
0.00977175
0.00926422
0.00925501
0.00872619
0.00799113
0.00771418
0.00650449
0.0115141
0.0415926
0.0957837
0.155079
0.0157891
0.0149946
0.0156281
0.013417
0.0120293
0.0112087
0.0104294
0.00954329
0.00881775
0.00834404
0.00798876
0.00761509
0.00728638
0.00714472
0.0068994
0.00648416
0.011538
0.0398932
0.0950189
0.151591
0.0131992
0.0117535
0.00991688
0.00936653
0.00945659
0.00894676
0.00863597
0.00834706
0.00805597
0.00747989
0.00710761
0.00665105
0.00641897
0.00600889
0.00584644
0.00471286
0.00948851
0.0432484
0.0948904
0.140084
0.00658678
0.00722125
0.00850977
0.00844213
0.00740364
0.00695024
0.00655796
0.00623986
0.00596132
0.00589721
0.00574876
0.00570365
0.00549109
0.00540925
0.00532549
0.00426606
0.0100916
0.041581
0.0948201
0.137726
0.00583102
0.00644463
0.00572327
0.00515301
0.00524257
0.005388
0.00550686
0.00560504
0.00556925
0.00536997
0.00519324
0.00498385
0.00487178
0.00466232
0.00457917
0.00350997
0.00623579
0.0413868
0.0956385
0.132131
0.00324256
0.00371712
0.00424785
0.00489873
0.00482353
0.00461775
0.00430403
0.00419834
0.00414389
0.00439877
0.00447429
0.00458762
0.00459127
0.00466819
0.00467587
0.00336832
0.00453624
0.0378118
0.0961366
0.130727
0.00290452
0.00329684
0.00345587
0.00324755
0.00294446
0.00322027
0.00352409
0.0038825
0.00402087
0.00406386
0.00406326
0.00409599
0.00408793
0.00414089
0.00430593
0.00355121
0.00561123
0.0325761
0.0962972
0.131153
0.00158019
0.00206373
0.0022563
0.00257789
0.00296476
0.00316031
0.00307581
0.00308203
0.00306042
0.00331339
0.00348495
0.00389872
0.00397191
0.00427156
0.00423754
0.00359272
0.00271433
0.026137
0.0964075
0.136847
0.00160139
0.00173872
0.00188144
0.00194606
0.00172895
0.0019015
0.00226059
0.00269064
0.0029533
0.00310288
0.00311509
0.00333022
0.00344365
0.00383239
0.00406215
0.00432477
0.00387675
0.018122
0.0939689
0.144615
0.000886727
0.00114814
0.00129541
0.0015323
0.00179991
0.00204792
0.00209065
0.00210576
0.00218904
0.00259784
0.00286249
0.00324777
0.00341974
0.00386529
0.00389614
0.00427854
0.00368536
0.0121938
0.0880494
0.157246
0.00078206
0.000971285
0.00103929
0.0011296
0.0011492
0.00133206
0.00157061
0.00192134
0.00214078
0.00228473
0.002447
0.00272754
0.00295031
0.0034052
0.00373762
0.00452037
0.00394271
0.00655458
0.066429
0.171443
0.00055655
0.000724162
0.000866009
0.00104013
0.00117717
0.00134455
0.00148236
0.00152046
0.00171648
0.00194653
0.00217188
0.00234885
0.00267947
0.00278689
0.00331681
0.00362834
0.00455371
0.0044409
0.0483878
0.193293
0.000509527
0.000602262
0.000624656
0.00075215
0.000819603
0.000951796
0.00102904
0.00129013
0.00137039
0.0015284
0.00166972
0.0019335
0.0021958
0.00246389
0.00292267
0.00307126
0.00387739
0.00783236
0.0233409
0.147444
0.000463887
0.000564013
0.000628446
0.000711682
0.000784659
0.000919464
0.00092412
0.0010087
0.00112632
0.00132538
0.00138015
0.0015297
0.00155974
0.00187619
0.00189368
0.00243039
0.00244986
0.00501633
0.0129816
0.101295
0.00035589
0.000420167
0.000451619
0.000520592
0.000561726
0.000625723
0.000742709
0.000838808
0.000853869
0.000966949
0.00106484
0.00125039
0.00132558
0.0015147
0.0015938
0.00183574
0.00198799
0.00275866
0.00410816
0.0605015
0.000331307
0.0003695
0.000396855
0.000438601
0.00045659
0.000508491
0.000522222
0.000600299
0.000617524
0.000703496
0.00070693
0.000827526
0.000814737
0.000967669
0.000907688
0.00111727
0.00101032
0.00174519
0.00300959
0.0363139
0.000237271
0.000269307
0.000287724
0.000324797
0.000354759
0.000437519
0.00048436
0.000524539
0.000574601
0.000623038
0.00066707
0.000729837
0.000746034
0.000860528
0.0008257
0.000911748
0.000795804
0.000844042
0.000655381
0.0203667
0.000190624
0.000207811
0.000214429
0.000237688
0.000257854
0.00028194
0.000304861
0.000352161
0.000382917
0.000430192
0.000461998
0.000509594
0.000542481
0.000560853
0.000489468
0.000452941
0.000659524
0.000789817
0.000925941
0.0077458
0.000103702
0.000144962
0.000169563
0.000219488
0.000250631
0.000300929
0.000320503
0.000381034
0.000401695
0.000462562
0.000486518
0.000549542
0.000560256
0.000630267
0.000645684
0.000756481
0.000770947
0.000537032
0.0006612
0.0046788
0.0139326
0.013884
0.0138302
0.0138537
0.0137627
0.0137099
0.0134988
0.0137494
0.0132832
0.0133371
0.012318
0.0121236
0.0121842
0.0111199
0.0112987
0.00995167
0.00975069
0.00920529
0.00923864
0.00788303
0.00699781
0.00698297
0.00694375
0.00693263
0.00681608
0.00678296
0.0067342
0.00662634
0.00667399
0.00655969
0.0063233
0.00748195
0.00722675
0.00688724
0.00621416
0.0067264
0.00661083
0.00653124
0.00671888
0.00751929
0.00432503
0.00433973
0.00436538
0.00439526
0.00443048
0.00452918
0.00447645
0.00459623
0.00448619
0.00455993
0.00469151
0.00429444
0.00398323
0.00407128
0.00404483
0.00424732
0.00382468
0.00398236
0.00350638
0.00378835
0.00277423
0.00276684
0.00276676
0.00274399
0.00273125
0.00270093
0.00265913
0.00262284
0.00262053
0.0025787
0.00240037
0.00269846
0.00272118
0.00277421
0.00269168
0.00283474
0.00271842
0.0030177
0.00278752
0.00304443
0.00174566
0.00174561
0.00175018
0.00174231
0.00174905
0.00174973
0.00175118
0.00182702
0.00179851
0.0018096
0.00199728
0.00190071
0.00182672
0.00188388
0.00185474
0.00196804
0.00187195
0.00193576
0.00179577
0.00176217
0.00125534
0.00125555
0.00125788
0.00125234
0.00126021
0.00125435
0.00126095
0.00126641
0.00123495
0.00127618
0.00122875
0.0012289
0.00125007
0.00131809
0.00131942
0.00137449
0.00127983
0.00142943
0.00138303
0.00126666
0.000772823
0.000773512
0.00077323
0.000775136
0.000778862
0.000781939
0.000784163
0.000792276
0.000795314
0.00080197
0.000807444
0.000821261
0.000843976
0.000905122
0.000888243
0.000910962
0.000891814
0.000972805
0.000882917
0.00073383
0.000563815
0.0005646
0.000565406
0.000571306
0.000577589
0.000581393
0.000582346
0.000588974
0.000588405
0.000594243
0.000589023
0.000605049
0.000627541
0.000676788
0.000647957
0.00064332
0.000625401
0.00068229
0.000615843
0.000521757
0.000316483
0.000317332
0.000318706
0.000324908
0.00032961
0.000327875
0.000326491
0.000330014
0.000331248
0.000337788
0.000341184
0.000374385
0.000399302
0.000461407
0.000423055
0.000425952
0.000412765
0.000489842
0.000411734
0.000281993
0.000212162
0.000214392
0.000217869
0.000226354
0.00022888
0.000225415
0.000223667
0.000226527
0.000227882
0.000231562
0.000232552
0.000251655
0.000258094
0.000278921
0.000244276
0.000231937
0.000218805
0.000202207
0.00032496
0.000373979
7.94051e-05
8.27021e-05
8.75367e-05
0.000100182
0.00010668
0.00010445
0.000104573
0.000113587
0.000119916
0.000130716
0.000136322
0.000169073
0.000178396
0.000211425
0.000174418
0.000173164
0.000167435
0.000226735
0.000169949
9.16816e-05
1.4594e-05
2.2784e-05
3.47096e-05
4.72705e-05
5.13855e-05
4.68237e-05
4.72861e-05
5.96331e-05
7.36481e-05
8.46365e-05
9.42344e-05
0.000100896
0.000103946
7.80653e-05
0.000103152
0.000154967
0.00016305
0.000183398
0.00017732
0.000186433
1.41788e-05
2.72683e-05
3.80784e-05
5.14526e-05
6.20843e-05
4.91711e-05
4.2102e-05
4.44005e-05
4.82138e-05
5.57819e-05
6.35896e-05
6.39059e-05
7.2961e-05
9.44702e-05
8.00547e-05
6.96361e-05
9.20966e-05
9.36161e-05
0.000108589
0.000118561
5.03999e-05
5.17731e-05
4.91925e-05
5.12564e-05
3.82778e-05
4.99348e-05
5.86746e-05
6.60756e-05
7.16524e-05
7.21881e-05
7.76138e-05
8.71379e-05
9.40195e-05
8.36746e-05
0.000105246
9.74659e-05
0.000100235
9.17323e-05
9.77118e-05
0.000115259
5.92447e-05
6.14756e-05
6.6481e-05
7.0001e-05
7.6597e-05
6.74294e-05
6.2372e-05
6.63801e-05
6.56804e-05
6.82698e-05
6.80213e-05
6.79291e-05
7.11306e-05
7.41112e-05
7.84804e-05
8.32139e-05
8.97557e-05
9.09231e-05
9.80898e-05
0.000103309
5.95232e-05
5.92222e-05
6.49369e-05
7.21683e-05
7.34653e-05
6.97269e-05
7.14975e-05
7.10793e-05
7.42616e-05
7.32413e-05
7.68341e-05
7.67568e-05
7.67727e-05
7.3745e-05
7.48774e-05
7.37692e-05
7.75414e-05
7.71338e-05
8.19667e-05
8.60278e-05
5.85143e-05
5.78593e-05
5.8935e-05
5.98212e-05
5.86567e-05
5.03538e-05
5.28715e-05
5.31966e-05
5.78196e-05
5.74784e-05
6.07864e-05
6.22e-05
6.55187e-05
6.67546e-05
6.92878e-05
6.96755e-05
7.21713e-05
7.23535e-05
7.53732e-05
7.84481e-05
3.77928e-05
3.81113e-05
3.71193e-05
3.73957e-05
4.21557e-05
4.33551e-05
4.53763e-05
4.53353e-05
4.60103e-05
4.51712e-05
4.78331e-05
4.68242e-05
4.77228e-05
4.66889e-05
4.84428e-05
4.96139e-05
5.01567e-05
5.25686e-05
5.17189e-05
5.73137e-05
2.70578e-05
2.71392e-05
2.62713e-05
2.5813e-05
2.58824e-05
2.66464e-05
2.70657e-05
2.68475e-05
2.83927e-05
3.05916e-05
3.33218e-05
3.22718e-05
3.73278e-05
3.59485e-05
3.97711e-05
3.87993e-05
4.04755e-05
4.23491e-05
4.00238e-05
4.60257e-05
7.48902e-06
6.44419e-06
7.74375e-06
9.1249e-06
1.03937e-05
1.16057e-05
1.22033e-05
1.37558e-05
1.48936e-05
1.59556e-05
1.6344e-05
1.70833e-05
1.83579e-05
1.89333e-05
2.0281e-05
2.07023e-05
2.17476e-05
2.25699e-05
2.24542e-05
2.61939e-05
0.000950236
0.00116288
0.000817894
0.000877858
0.000912095
0.00091082
0.00094362
0.000971861
0.000996933
0.00101852
0.00108603
0.00111579
0.0011601
0.00118948
0.00128464
0.00131773
0.00128638
0.00197272
0.00679358
0.0180512
0.000912022
0.000992018
0.000738947
0.000816248
0.000880289
0.000905283
0.000942074
0.000979346
0.00101378
0.00104364
0.00109677
0.00114731
0.00118488
0.00119695
0.00125923
0.00127141
0.00132409
0.00146072
0.00562934
0.0177379
0.000935077
0.00109887
0.000805249
0.000856134
0.000920744
0.000938588
0.000971355
0.0010034
0.00103032
0.00106103
0.00112945
0.00115317
0.00119126
0.00122358
0.00132379
0.00132867
0.00141451
0.00124703
0.00481758
0.0174042
0.00100967
0.00111326
0.000802898
0.000870275
0.000923246
0.000942288
0.000973167
0.00100874
0.00104132
0.00108682
0.0011319
0.00116597
0.00120897
0.00123752
0.00129837
0.0012841
0.00141311
0.00117983
0.00389866
0.0169912
0.00100622
0.00113378
0.000850238
0.000902512
0.000954513
0.000978137
0.00100895
0.0010404
0.00107503
0.001109
0.00116091
0.00118762
0.00122867
0.00126458
0.00135151
0.00136428
0.00148611
0.00127863
0.00397208
0.01647
0.00106994
0.00116789
0.000874102
0.000926966
0.000975411
0.000993661
0.00100995
0.00105289
0.00108159
0.00112337
0.00115851
0.0011912
0.00123761
0.00128509
0.00134615
0.00134806
0.00149439
0.00132931
0.00480771
0.0158657
0.00104292
0.0011352
0.000864538
0.000925379
0.000976601
0.000988739
0.00103534
0.00107772
0.00109821
0.00113389
0.00117227
0.00121611
0.00126769
0.00131436
0.00138587
0.00142146
0.00154474
0.00142178
0.00443858
0.015333
0.00110356
0.00115076
0.00089416
0.000968605
0.000999299
0.00103849
0.00107068
0.00107885
0.00109471
0.00113557
0.00117099
0.00122619
0.00126114
0.00131577
0.00136813
0.0013984
0.00153709
0.00142179
0.0039541
0.0142595
0.00100719
0.00104355
0.00087859
0.000933902
0.000989158
0.00102157
0.00102067
0.00104464
0.00107794
0.00113208
0.00118666
0.00123463
0.00127641
0.00133897
0.00138221
0.00145106
0.00153276
0.00145428
0.00319277
0.0130101
0.00104876
0.00111529
0.000953742
0.00100454
0.00103979
0.00103144
0.00103999
0.00107041
0.00111094
0.00116984
0.00119412
0.00124799
0.00127538
0.00131559
0.00135332
0.00142002
0.0014649
0.00148929
0.00254424
0.0104201
0.001051
0.00106047
0.000903127
0.000928957
0.000926661
0.000943533
0.000969732
0.00102585
0.0010922
0.00113598
0.00119338
0.00123887
0.00123784
0.00131079
0.00135754
0.00142264
0.00145426
0.00151048
0.00213685
0.00846608
0.000972587
0.000962693
0.000865068
0.00089348
0.00095109
0.00100791
0.00106432
0.00115062
0.00117874
0.00122418
0.00123429
0.00121943
0.00125403
0.00133848
0.00135555
0.00141807
0.00143436
0.00150433
0.00185517
0.00682081
0.000948186
0.000973479
0.000915307
0.000963528
0.00103673
0.00105819
0.00110709
0.00110931
0.00110727
0.00111914
0.00110095
0.00116822
0.00124605
0.00132281
0.0013332
0.00139705
0.00142408
0.001517
0.00167951
0.00571041
0.000956804
0.0010029
0.00094125
0.000989057
0.00101227
0.00102915
0.00104685
0.00105051
0.0010949
0.0011237
0.00120272
0.00129358
0.00134035
0.00136631
0.00133729
0.00141863
0.00144542
0.00153214
0.0016216
0.00492827
0.000994304
0.00102274
0.00096339
0.000996498
0.00101724
0.00104508
0.00106146
0.00110618
0.00114109
0.00118724
0.00122961
0.00123833
0.00123337
0.00123255
0.00127205
0.00141475
0.00144483
0.00152172
0.00155871
0.00441039
0.000950508
0.000976049
0.000933441
0.000961345
0.000997911
0.00101459
0.00104832
0.00107753
0.00110822
0.00113927
0.00116219
0.00119569
0.00124306
0.00132961
0.00144536
0.00154717
0.00148399
0.00153557
0.00163662
0.00436237
0.000937169
0.000977276
0.000938999
0.000982329
0.00102036
0.00104424
0.00108221
0.00111152
0.00115262
0.00118522
0.00123235
0.00127627
0.00133442
0.00137588
0.00140268
0.00134879
0.00131572
0.00141054
0.00157288
0.00359534
0.000926054
0.000958479
0.000928741
0.000975874
0.00100599
0.00103231
0.00105994
0.00109035
0.00112054
0.0011513
0.0011864
0.00121698
0.00125062
0.00127131
0.00130873
0.00134116
0.00148878
0.00167013
0.00180327
0.00352364
0.000924842
0.000972226
0.00094093
0.000985849
0.00101605
0.00104221
0.00107337
0.00110653
0.00114549
0.00118165
0.00122971
0.00126762
0.00132454
0.00136887
0.00144727
0.00151185
0.00161856
0.00156671
0.00149377
0.002342
0.00091389
0.000956792
0.00092672
0.000978462
0.00100975
0.00103828
0.00106721
0.00110285
0.00113169
0.00117143
0.00120186
0.00124721
0.00128217
0.0013339
0.00136632
0.00140986
0.00146205
0.00147956
0.00158263
0.00210609
0.000265011
0.000186381
0.000223173
0.000231205
0.000201927
0.000126783
0.000113048
0.000256238
0.000210012
0.000111875
5.85085e-05
0.000389984
0.00139587
0.00391183
0.00803407
0.0107371
0.00838939
0.00381075
0.000191919
0.000564283
0.000297939
0.00024356
0.0002295
0.000215629
0.000236967
0.000212055
0.000185532
0.000183059
0.000259836
0.000228497
0.000136794
9.76341e-05
0.000484094
0.00189909
0.00507124
0.00926003
0.0106408
0.00657129
0.00177334
8.54675e-05
0.000292707
0.000274349
0.000302017
0.000237081
0.000216775
0.000217087
0.0002371
0.000211593
0.000210789
0.000231929
0.000250862
0.000140686
9.94644e-05
0.000707623
0.00280297
0.00691415
0.0107794
0.00918644
0.00412819
0.000320154
0.000321435
0.000257356
0.000297962
0.000307322
0.000283253
0.000229035
0.00023473
0.000242611
0.000261261
0.000255075
0.000297994
0.00026309
0.000112984
9.29076e-05
0.00125707
0.00474427
0.00931137
0.0107695
0.00708165
0.000669535
0.000362484
0.000314658
0.000300738
0.000294753
0.000318498
0.000281476
0.000284403
0.00024988
0.000265533
0.000265441
0.000326035
0.000338369
0.000257133
0.000143476
0.00032039
0.00245453
0.0075723
0.0113379
0.00881988
0.00262329
0.000382531
0.000359163
0.000368603
0.000335876
0.00035447
0.000300039
0.000312528
0.000316495
0.000319695
0.000294723
0.00030699
0.000385968
0.000361228
0.00026746
0.000165802
0.00105973
0.00566333
0.0109207
0.0102072
0.002629
0.000414831
0.000394722
0.000385743
0.000343865
0.000402774
0.000362743
0.000349008
0.000324782
0.000357599
0.000360111
0.000385067
0.000396909
0.000414113
0.000377687
0.000206601
0.000268577
0.0033807
0.00969313
0.0112775
0.00536249
0.000429869
0.000442201
0.000464848
0.000380182
0.000429392
0.000394643
0.00040669
0.000402975
0.000401854
0.000386539
0.000408445
0.000491831
0.000511062
0.000481679
0.000384224
0.00025488
0.00156377
0.0086204
0.0118011
0.00739598
0.000448662
0.000456292
0.000491832
0.000411314
0.000478444
0.00045107
0.000434802
0.000426726
0.000469565
0.000472786
0.000482374
0.000511458
0.000531007
0.000613287
0.000573244
0.000254021
0.000677872
0.00742083
0.0120233
0.00981172
0.000475507
0.000497888
0.000555555
0.000455102
0.000506587
0.000494351
0.000503744
0.000498939
0.000504547
0.00050429
0.000534452
0.000622575
0.000635235
0.000640776
0.000639145
0.000486262
0.000402174
0.0054023
0.0118387
0.0123883
0.000517234
0.000516048
0.000568739
0.000492214
0.000554608
0.000544936
0.000531268
0.000535085
0.000582485
0.000586717