/*--------------------------------*- C++ -*----------------------------------*\
  =========                 |
  \\      /  F ield         | OpenFOAM: The Open Source CFD Toolbox
   \\    /   O peration     | Website:  https://openfoam.org
    \\  /    A nd           | Version:  9
     \\/     M anipulation  |
\*---------------------------------------------------------------------------*/
FoamFile
{
    format      ascii;
    class       surfaceScalarField;
    location    "1.7";
    object      phi;
}
// * * * * * * * * * * * * * * * * * * * * * * * * * * * * * * * * * * * * * //

dimensions      [0 3 -1 0 0 0 0];

internalField   nonuniform List<scalar> 
92080
(
0.00126664
-0.42951
0.428244
-0.0155509
-0.877706
0.894524
-0.0507945
-0.966361
1.0016
-0.0871678
-0.951809
0.988182
-0.122483
-0.936654
0.97197
-0.157249
-0.922279
0.957045
-0.191491
-0.909256
0.943498
-0.22565
-0.896294
0.930453
-0.259177
-0.884342
0.917869
-0.2925
-0.871765
0.905088
-0.325917
-0.862976
0.896393
-0.359099
-0.854132
0.887314
-0.391776
-0.845644
0.87832
-0.424177
-0.83738
0.869781
-0.456858
-0.830365
0.863046
-0.489124
-0.823761
0.856028
-0.520539
-0.816994
0.848409
-0.551437
-0.80974
0.840637
-0.58148
-0.802127
0.83217
-0.797012
0.824886
-0.609354
-0.000682519
-0.428828
-0.0211512
-0.857238
-0.0574025
-0.930109
-0.0946411
-0.91457
-0.131368
-0.899928
-0.168001
-0.885645
-0.204168
-0.873089
-0.239614
-0.860848
-0.274686
-0.849269
-0.310127
-0.836325
-0.345621
-0.827482
-0.380376
-0.819377
-0.41489
-0.81113
-0.449299
-0.80297
-0.483069
-0.796595
-0.516078
-0.790753
-0.548429
-0.784643
-0.579449
-0.77872
-0.608755
-0.77282
-0.767976
-0.637791
-0.00315494
-0.425673
-0.0277054
-0.832687
-0.0679278
-0.889887
-0.108317
-0.874181
-0.147724
-0.860521
-0.186391
-0.846977
-0.224617
-0.834863
-0.262707
-0.822758
-0.299603
-0.812374
-0.336043
-0.799884
-0.373096
-0.790428
-0.409962
-0.782511
-0.44579
-0.775302
-0.481543
-0.767217
-0.51802
-0.760118
-0.553851
-0.754921
-0.588738
-0.749756
-0.623123
-0.744336
-0.65671
-0.739233
-0.734622
-0.690064
-0.00549192
-0.420181
-0.0341182
-0.804061
-0.0745781
-0.849427
-0.115385
-0.833375
-0.155839
-0.820067
-0.196082
-0.806735
-0.235595
-0.79535
-0.274476
-0.783877
-0.313021
-0.773829
-0.35131
-0.761595
-0.389627
-0.752111
-0.427917
-0.744222
-0.465938
-0.737282
-0.502763
-0.730392
-0.539556
-0.723325
-0.577198
-0.717279
-0.614411
-0.712543
-0.6508
-0.707947
-0.686533
-0.703499
-0.698789
-0.722367
-0.00490862
-0.415272
-0.039903
-0.769067
-0.0832898
-0.80604
-0.12667
-0.789994
-0.169481
-0.777256
-0.211716
-0.7645
-0.253747
-0.753318
-0.295558
-0.742066
-0.335761
-0.733626
-0.375204
-0.722153
-0.415404
-0.71191
-0.455571
-0.704055
-0.495236
-0.697616
-0.534775
-0.690853
-0.573548
-0.684552
-0.611991
-0.678836
-0.650988
-0.673546
-0.68983
-0.669105
-0.727782
-0.665547
-0.661331
-0.76524
-0.000690744
-0.414581
-0.0385173
-0.73124
-0.0840627
-0.760495
-0.12933
-0.744727
-0.174119
-0.732468
-0.218392
-0.720227
-0.261462
-0.710248
-0.304229
-0.699299
-0.346724
-0.691131
-0.387656
-0.681221
-0.428255
-0.671311
-0.469749
-0.662561
-0.51098
-0.656385
-0.551042
-0.650791
-0.59159
-0.644003
-0.63201
-0.638417
-0.672018
-0.633538
-0.71276
-0.628363
-0.753166
-0.625141
-0.621283
-0.793214
-2.11709e-05
-0.41456
-0.0412392
-0.690022
-0.0909653
-0.710769
-0.139337
-0.696355
-0.18641
-0.685394
-0.232727
-0.673909
-0.278623
-0.664353
-0.323786
-0.654136
-0.367604
-0.647313
-0.410314
-0.638512
-0.452418
-0.629206
-0.494449
-0.62053
-0.537641
-0.613194
-0.579851
-0.608581
-0.620139
-0.603715
-0.661049
-0.597507
-0.70149
-0.593097
-0.741857
-0.587996
-0.78307
-0.583927
-0.581059
-0.823294
0.00127268
-0.415833
-0.0413888
-0.647361
-0.092565
-0.659593
-0.142236
-0.646684
-0.191108
-0.636523
-0.238819
-0.626198
-0.285058
-0.618114
-0.331381
-0.607812
-0.377684
-0.60101
-0.421667
-0.594529
-0.464473
-0.5864
-0.506991
-0.578012
-0.550104
-0.570081
-0.59493
-0.563755
-0.63869
-0.559956
-0.680838
-0.555359
-0.723298
-0.550637
-0.764716
-0.546579
-0.806701
-0.541942
-0.538322
-0.849438
-0.000653117
-0.41518
-0.0480668
-0.599947
-0.102049
-0.605611
-0.153422
-0.595311
-0.203608
-0.586337
-0.253235
-0.57657
-0.301771
-0.569578
-0.348801
-0.560782
-0.395848
-0.553963
-0.442361
-0.548017
-0.486804
-0.541956
-0.529591
-0.535226
-0.571846
-0.527826
-0.614671
-0.520929
-0.658994
-0.515634
-0.702465
-0.511887
-0.744946
-0.508155
-0.786991
-0.504534
-0.827598
-0.501336
-0.49752
-0.868399
-0.00726315
-0.407917
-0.0560428
-0.551167
-0.109983
-0.55167
-0.162029
-0.543265
-0.212495
-0.53587
-0.262035
-0.52703
-0.310615
-0.520999
-0.358893
-0.512504
-0.406913
-0.505942
-0.453887
-0.501043
-0.500572
-0.495271
-0.545788
-0.49001
-0.589521
-0.484094
-0.63313
-0.47732
-0.677231
-0.471532
-0.722764
-0.466354
-0.76815
-0.46277
-0.813252
-0.459432
-0.857758
-0.45683
-0.454393
-0.900885
-0.0172338
-0.390683
-0.0676141
-0.500787
-0.120894
-0.49839
-0.173113
-0.491046
-0.224505
-0.484478
-0.275412
-0.476123
-0.325158
-0.471254
-0.372957
-0.464705
-0.421834
-0.457065
-0.470325
-0.452552
-0.516895
-0.448701
-0.562814
-0.444091
-0.606611
-0.440297
-0.648768
-0.435163
-0.690636
-0.429664
-0.732464
-0.424525
-0.775884
-0.41935
-0.819737
-0.415579
-0.864642
-0.411925
-0.409359
-0.909677
-0.0249856
-0.365697
-0.0768127
-0.44896
-0.131297
-0.443906
-0.184102
-0.438241
-0.235316
-0.433264
-0.286179
-0.42526
-0.336949
-0.420484
-0.385887
-0.415767
-0.433735
-0.409217
-0.483728
-0.40256
-0.53403
-0.398399
-0.583419
-0.394701
-0.632524
-0.391193
-0.679045
-0.388642
-0.723851
-0.384858
-0.767047
-0.381329
-0.809018
-0.377379
-0.851373
-0.373224
-0.89329
-0.370008
-0.36625
-0.936399
-0.0324875
-0.33321
-0.0846154
-0.396832
-0.138096
-0.390425
-0.19195
-0.384387
-0.243994
-0.38122
-0.295285
-0.373969
-0.346783
-0.368985
-0.396552
-0.365998
-0.443823
-0.361946
-0.48943
-0.356953
-0.536468
-0.351361
-0.583855
-0.347315
-0.631872
-0.343176
-0.680638
-0.339876
-0.728168
-0.337327
-0.775368
-0.334129
-0.820809
-0.331938
-0.865399
-0.328634
-0.909089
-0.326318
-0.323252
-0.952087
-0.0383723
-0.294837
-0.0925648
-0.342639
-0.147228
-0.335762
-0.201557
-0.330058
-0.254874
-0.327903
-0.306296
-0.322548
-0.359304
-0.315978
-0.413019
-0.312283
-0.465504
-0.30946
-0.515814
-0.306643
-0.563692
-0.303483
-0.61131
-0.299697
-0.657756
-0.296729
-0.704622
-0.29301
-0.751504
-0.290446
-0.798166
-0.287467
-0.844957
-0.285146
-0.890829
-0.282763
-0.936652
-0.280495
-0.278455
-0.981448
-0.0422945
-0.252543
-0.0971442
-0.28779
-0.151001
-0.281906
-0.20568
-0.275379
-0.259135
-0.274448
-0.309344
-0.272338
-0.35772
-0.267602
-0.40748
-0.262523
-0.458176
-0.258765
-0.509484
-0.255335
-0.560278
-0.252689
-0.61012
-0.249854
-0.659564
-0.247286
-0.707819
-0.244755
-0.75608
-0.242184
-0.803642
-0.239906
-0.851248
-0.23754
-0.898516
-0.235495
-0.945607
-0.233404
-0.231328
-0.992734
-0.0449576
-0.207585
-0.10409
-0.228658
-0.158915
-0.22708
-0.2151
-0.219193
-0.273836
-0.215713
-0.330484
-0.21569
-0.383886
-0.2142
-0.434343
-0.212066
-0.483891
-0.209216
-0.532638
-0.206589
-0.581433
-0.203894
-0.629791
-0.201496
-0.677851
-0.199226
-0.725652
-0.196954
-0.772859
-0.194977
-0.819993
-0.192772
-0.866563
-0.190969
-0.913188
-0.18887
-0.959352
-0.18724
-0.185255
-1.00543
-0.0496321
-0.157953
-0.108382
-0.169908
-0.160888
-0.174574
-0.209694
-0.170387
-0.260789
-0.164618
-0.315041
-0.161438
-0.369573
-0.159667
-0.423887
-0.157752
-0.476818
-0.156286
-0.529018
-0.154388
-0.579983
-0.152929
-0.630518
-0.150961
-0.680107
-0.149637
-0.72926
-0.147801
-0.7777
-0.146538
-0.825617
-0.144855
-0.872993
-0.143593
-0.919849
-0.142014
-0.966316
-0.140773
-0.139237
-1.01233
-0.0497449
-0.108208
-0.114131
-0.105522
-0.177287
-0.111419
-0.234139
-0.113534
-0.28626
-0.112497
-0.337466
-0.110232
-0.388591
-0.108542
-0.439539
-0.106803
-0.490473
-0.105352
-0.54089
-0.103972
-0.591082
-0.102737
-0.640544
-0.1015
-0.689872
-0.100308
-0.738446
-0.0992273
-0.786875
-0.0981085
-0.834584
-0.0971463
-0.882067
-0.0961092
-0.928871
-0.0952108
-0.975406
-0.0942368
-0.0933506
-1.02129
-0.0500856
-0.0581228
-0.0992938
-0.0563138
-0.156422
-0.0542904
-0.213798
-0.0561585
-0.271896
-0.0543986
-0.327033
-0.0550956
-0.381613
-0.0539627
-0.434714
-0.0537018
-0.487347
-0.0527191
-0.539043
-0.0522758
-0.590226
-0.0515542
-0.64062
-0.0511051
-0.690458
-0.0504699
-0.739687
-0.0499985
-0.788404
-0.0493914
-0.836639
-0.0489113
-0.884401
-0.0483478
-0.931737
-0.0478747
-0.978593
-0.0473802
-0.0468907
-1.02505
-0.0756627
0.0175399
-0.127227
-0.00474905
-0.180462
-0.00105622
-0.231685
-0.004935
-0.284918
-0.00116551
-0.33702
-0.00299355
-0.389809
-0.00117425
-0.441359
-0.00215186
-0.493078
-0.00100005
-0.543711
-0.00164211
-0.594444
-0.000821791
-0.644228
-0.00132068
-0.693964
-0.000734413
-0.742805
-0.0011576
-0.791471
-0.000725505
-0.839286
-0.00109542
-0.886859
-0.000775455
-0.933628
-0.00110587
-0.980117
-0.000891038
-1.02573
-0.00127365
-0.00890553
0.0471548
-0.0382493
0.00720897
0.0334474
-0.0495619
0.0761199
-0.058369
-0.0105419
0.249922
-0.299174
0.125371
0.483626
-0.64826
0.414557
0.6641
-0.90531
0.724836
0.758772
-1.03484
0.940168
0.802017
-1.08088
1.03763
0.825444
-1.09548
1.07206
0.840322
-1.09856
1.08368
0.851272
-1.09791
1.08696
0.859111
-1.0947
1.08686
0.866513
-1.09249
1.08509
0.875064
-1.0906
1.08205
0.884147
-1.09087
1.08179
0.891884
-1.08906
1.08132
0.898585
-1.08878
1.08208
0.905398
-1.08678
1.07996
0.912532
-1.08704
1.07991
-1.08441
0.918364
1.07858
0.00120442
0.0459504
0.0377601
-0.00310835
0.143695
-0.164304
0.360715
-0.516193
0.550917
-0.838463
0.661746
-1.01614
0.71136
-1.08445
0.735274
-1.10479
0.748645
-1.10885
0.75794
-1.10786
0.764407
-1.10438
0.770508
-1.1008
0.7775
-1.09948
0.784119
-1.09722
0.789729
-1.09648
0.79515
-1.09448
0.800572
-1.0942
0.80556
-1.09177
0.809213
-1.0907
-1.08751
0.812307
0.00561536
0.0403351
0.0638324
-0.0613254
0.220017
-0.320488
0.416777
-0.712953
0.546021
-0.967707
0.608758
-1.07888
0.636045
-1.11174
0.649667
-1.11841
0.65869
-1.11788
0.66475
-1.11392
0.669986
-1.10962
0.676252
-1.10706
0.681659
-1.10489
0.686682
-1.10224
0.691738
-1.10153
0.696655
-1.0994
0.700666
-1.09821
0.703212
-1.09431
0.705642
-1.09313
-1.08998
0.708118
0.0265595
0.0137756
0.102777
-0.137543
0.282906
-0.500617
0.435079
-0.865126
0.518899
-1.05153
0.552415
-1.11239
0.567219
-1.12655
0.575644
-1.12684
0.58147
-1.1237
0.584942
-1.11739
0.589314
-1.11399
0.59321
-1.11096
0.596715
-1.10839
0.600421
-1.10595
0.60349
-1.1046
0.605678
-1.10158
0.606809
-1.09934
0.608159
-1.09566
0.6097
-1.09467
-1.09009
0.609803
0.0413405
-0.0275649
0.132286
-0.228489
0.294672
-0.663003
0.404157
-0.974611
0.45436
-1.10173
0.474592
-1.13262
0.48417
-1.13612
0.490219
-1.13289
0.493086
-1.12657
0.496339
-1.12064
0.499829
-1.11748
0.502968
-1.1141
0.505618
-1.11104
0.507715
-1.10804
0.509103
-1.10599
0.509982
-1.10246
0.510415
-1.09978
0.510799
-1.09605
0.51035
-1.09422
-1.08842
0.508679
0.0377609
-0.0653258
0.157066
-0.347794
0.292993
-0.798929
0.369884
-1.0515
0.399382
-1.13123
0.410498
-1.14374
0.416184
-1.14181
0.418769
-1.13547
0.420922
-1.12872
0.423217
-1.12294
0.425012
-1.11927
0.425936
-1.11502
0.426208
-1.11132
0.426317
-1.10815
0.42578
-1.10545
0.424538
-1.10122
0.422642
-1.09788
0.420518
-1.09392
0.417709
-1.09141
-1.08468
0.413973
0.0345883
-0.0999141
0.155535
-0.468741
0.257796
-0.90119
0.30898
-1.10269
0.326344
-1.14859
0.333638
-1.15103
0.337482
-1.14565
0.33956
-1.13755
0.341114
-1.13028
0.341886
-1.12371
0.342113
-1.1195
0.341677
-1.11459
0.34091
-1.11055
0.33955
-1.10679
0.33731
-1.10321
0.334553
-1.09847
0.331426
-1.09475
0.328152
-1.09065
0.323886
-1.08714
-1.07945
0.318658
0.0394661
-0.13938
0.144946
-0.574221
0.226866
-0.98311
0.261097
-1.13692
0.272035
-1.15953
0.27725
-1.15625
0.27808
-1.14648
0.278315
-1.13778
0.277606
-1.12957
0.276487
-1.12259
0.274716
-1.11773
0.272117
-1.11199
0.268814
-1.10725
0.265007
-1.10298
0.260594
-1.0988
0.25568
-1.09355
0.250265
-1.08934
0.24448
-1.08486
0.237818
-1.08048
-1.07246
0.230828
0.0436697
-0.18305
0.131039
-0.66159
0.189344
-1.04142
0.208207
-1.15578
0.212804
-1.16413
0.212732
-1.15618
0.211582
-1.14533
0.20988
-1.13608
0.207334
-1.12702
0.204077
-1.11933
0.200143
-1.11379
0.195506
-1.10735
0.1905
-1.10224
0.184958
-1.09744
0.178721
-1.09256
0.17205
-1.08688
0.164975
-1.08226
0.157595
-1.07748
0.149479
-1.07236
-1.06396
0.140974
0.045407
-0.228457
0.114583
-0.730766
0.15728
-1.08411
0.167641
-1.16614
0.168872
-1.16536
0.166399
-1.1537
0.163303
-1.14224
0.158969
-1.13175
0.153736
-1.12179
0.147941
-1.11354
0.14148
-1.10733
0.134312
-1.10018
0.126565
-1.09449
0.118295
-1.08917
0.109524
-1.08379
0.100345
-1.0777
0.0907431
-1.07266
0.0808003
-1.06754
0.0702397
-1.0618
-1.05321
0.05949
0.0418666
-0.270324
0.0982378
-0.787137
0.124891
-1.11077
0.125982
-1.16723
0.121342
-1.16072
0.114898
-1.14726
0.108072
-1.13541
0.10065
-1.12433
0.0926624
-1.1138
0.0841402
-1.10502
0.0751167
-1.09831
0.065541
-1.09061
0.0555629
-1.08451
0.0451476
-1.07876
0.0342826
-1.07293
0.0230747
-1.06649
0.0114757
-1.06106
-0.000468605
-1.0556
-0.012631
-1.04964
-1.04069
-0.0251452
0.036326
-0.30665
0.0821521
-0.832963
0.0974444
-1.12606
0.0938207
-1.16361
0.0859691
-1.15287
0.0775743
-1.13887
0.0683649
-1.1262
0.0584169
-1.11438
0.0477593
-1.10314
0.0365465
-1.0938
0.0247648
-1.08653
0.0123907
-1.07823
-0.000418846
-1.07171
-0.0136254
-1.06555
-0.0272169
-1.05934
-0.0411789
-1.05253
-0.0555419
-1.0467
-0.0699881
-1.04115
-0.084776
-1.03485
-1.02599
-0.0994747
0.0284884
-0.335138
0.0616865
-0.866161
0.0679212
-1.13229
0.059006
-1.15469
0.0471539
-1.14101
0.0349781
-1.12669
0.0222264
-1.11345
0.00893247
-1.10108
-0.00479228
-1.08942
-0.01899
-1.07961
-0.033477
-1.07204
-0.048363
-1.06335
-0.0636951
-1.05637
-0.0793378
-1.04991
-0.0951707
-1.0435
-0.111272
-1.03643
-0.127713
-1.03026
-0.144378
-1.02448
-0.16109
-1.01814
-1.00928
-0.177808
0.0261801
-0.361318
0.0507798
-0.890761
0.0483996
-1.12991
0.03565
-1.14194
0.0207008
-1.12607
0.00567074
-1.11166
-0.00983804
-1.09794
-0.0257677
-1.08515
-0.0421609
-1.07303
-0.0590406
-1.06273
-0.076352
-1.05473
-0.0940802
-1.04562
-0.112112
-1.03834
-0.130419
-1.0316
-0.148993
-1.02493
-0.167822
-1.0176
-0.186897
-1.01118
-0.206052
-1.00533
-0.224914
-0.99928
-0.99051
-0.24368
0.0187284
-0.380046
0.0335143
-0.905547
0.0242537
-1.12065
0.00701236
-1.1247
-0.0110676
-1.10799
-0.0295356
-1.09319
-0.0482842
-1.07919
-0.0674459
-1.06599
-0.0869506
-1.05352
-0.106856
-1.04282
-0.126835
-1.03475
-0.147077
-1.02538
-0.167784
-1.01764
-0.188665
-1.01072
-0.209471
-1.00412
-0.230417
-0.996654
-0.251758
-0.989843
-0.273264
-0.983824
-0.294204
-0.97834
-0.969768
-0.314945
0.0168746
-0.396921
0.0265392
-0.915212
0.011693
-1.10581
-0.00905538
-1.10395
-0.030354
-1.08669
-0.0518278
-1.07172
-0.0735283
-1.05749
-0.0953598
-1.04416
-0.1174
-1.03148
-0.139922
-1.0203
-0.162745
-1.01193
-0.185736
-1.00239
-0.208934
-0.994437
-0.232409
-0.987243
-0.25604
-0.980492
-0.279702
-0.972992
-0.303491
-0.966053
-0.32752
-0.959796
-0.351046
-0.954814
-0.946714
-0.3741
0.0118153
-0.408736
0.0140865
-0.917483
-0.00629663
-1.08542
-0.0314057
-1.07884
-0.0562724
-1.06182
-0.0810865
-1.0469
-0.105779
-1.0328
-0.130674
-1.01927
-0.155723
-1.00643
-0.18103
-0.994993
-0.20625
-0.986707
-0.231604
-0.977033
-0.257402
-0.968639
-0.283249
-0.961396
-0.308862
-0.954879
-0.334533
-0.947321
-0.360565
-0.940021
-0.386855
-0.933506
-0.412797
-0.928872
-0.921681
-0.43783
0.00944865
-0.418185
0.00684011
-0.914874
-0.0170371
-1.06155
-0.043931
-1.05195
-0.0710822
-1.03467
-0.0983664
-1.01962
-0.125657
-1.00551
-0.152824
-0.992098
-0.180001
-0.979256
-0.20775
-0.967244
-0.235723
-0.958734
-0.263555
-0.949201
-0.291576
-0.940618
-0.320082
-0.932889
-0.348672
-0.92629
-0.376965
-0.919029
-0.405272
-0.911713
-0.434133
-0.904645
-0.463523
-0.899482
-0.893188
-0.492015
0.00593964
-0.424125
-0.00179939
-0.907135
-0.0310904
-1.03225
-0.0623421
-1.0207
-0.0928291
-1.00418
-0.123105
-0.989345
-0.153003
-0.975612
-0.182986
-0.962115
-0.212883
-0.949358
-0.242909
-0.937218
-0.272893
-0.92875
-0.302889
-0.919206
-0.333178
-0.910328
-0.363543
-0.902525
-0.393934
-0.895899
-0.424473
-0.888489
-0.455155
-0.881032
-0.485948
-0.873852
-0.518161
-0.86727
-0.86196
-0.54939
0.00411887
-0.0084924
-0.0391426
-0.0716582
-0.10387
-0.13617
-0.168284
-0.199946
-0.231436
-0.263566
-0.295923
-0.327815
-0.359823
-0.392567
-0.425419
-0.45788
-0.490503
-0.523717
-0.558817
-0.595891
0.839293
-9.59537
9.67444
0.777294
-9.46866
9.53066
0.711741
-9.48065
9.5462
0.65074
-9.4908
9.55181
0.59263
-9.5219
9.58001
0.537652
-9.53099
9.58596
0.485773
-9.53967
9.59155
0.436562
-9.55976
9.60897
0.390334
-9.59585
9.64207
0.346857
-9.60417
9.64764
0.30713
-9.61388
9.6536
0.270515
-9.61855
9.65517
0.237133
-9.62448
9.65786
0.206302
-9.62359
9.65442
0.178813
-9.62433
9.65182
0.153612
-9.60454
9.62974
0.13179
-9.55159
9.57341
0.101156
-9.03646
9.0671
0.0518786
-7.35015
7.39943
-3.95664
4.00852
0.734139
-9.5172
0.67477
-9.4093
0.614603
-9.42048
0.561767
-9.43797
0.506929
-9.46706
0.452995
-9.47705
0.403802
-9.49048
0.359738
-9.5157
0.319799
-9.55591
0.282828
-9.5672
0.249626
-9.58067
0.219653
-9.58858
0.193055
-9.59788
0.169181
-9.59972
0.148551
-9.6037
0.130903
-9.58689
0.115754
-9.53644
0.0904431
-9.01115
0.0480674
-7.30777
-3.90858
0.637079
-9.44617
0.579076
-9.35129
0.52015
-9.36156
0.468985
-9.3868
0.420275
-9.41836
0.376651
-9.43343
0.336986
-9.45082
0.299361
-9.47807
0.264786
-9.52133
0.233128
-9.53554
0.205215
-9.55276
0.180378
-9.56374
0.158752
-9.57625
0.139635
-9.5806
0.12397
-9.58803
0.110769
-9.57369
0.100683
-9.52635
0.0825705
-8.99304
0.0462564
-7.27146
-3.86232
0.535618
-9.37198
0.479613
-9.29529
0.424888
-9.30683
0.380549
-9.34246
0.335854
-9.37366
0.293789
-9.39136
0.256613
-9.41364
0.223764
-9.44522
0.195259
-9.49283
0.169951
-9.51023
0.148408
-9.53122
0.130023
-9.54536
0.114986
-9.56122
0.102714
-9.56833
0.0937752
-9.5791
0.0880065
-9.56792
0.0846036
-9.52295
0.072042
-8.98048
0.0426196
-7.24204
-3.8197
0.439838
-9.30314
0.38491
-9.24036
0.33294
-9.25486
0.291644
-9.30117
0.252208
-9.33422
0.219291
-9.35845
0.191019
-9.38537
0.164451
-9.41866
0.141173
-9.46955
0.121021
-9.49008
0.10462
-9.51482
0.0912749
-9.53201
0.0811407
-9.55108
0.0734867
-9.56068
0.0693982
-9.57501
0.0679574
-9.56648
0.0695316
-9.52453
0.0641241
-8.97507
0.0407954
-7.21871
-3.7789
0.343089
-9.23226
0.289616
-9.18689
0.24087
-9.20611
0.204281
-9.26458
0.168985
-9.29893
0.138058
-9.32752
0.11241
-9.35972
0.0904494
-9.39669
0.0730123
-9.45211
0.0590263
-9.47609
0.0488057
-9.5046
0.0417112
-9.52492
0.0379515
-9.54732
0.036991
-9.55971
0.0394533
-9.57747
0.0452786
-9.57231
0.0534981
-9.53275
0.0538078
-8.97538
0.0373067
-7.20221
-3.7416
0.24891
-9.16251
0.196896
-9.13487
0.151753
-9.16097
0.118757
-9.23158
0.0884893
-9.26866
0.0658713
-9.3049
0.0484716
-9.34232
0.0325515
-9.38077
0.0201625
-9.43972
0.0111657
-9.4671
0.0059328
-9.49936
0.00371626
-9.5227
0.0047678
-9.54837
0.00824203
-9.56319
0.0154093
-9.58464
0.0254176
-9.58231
0.0385129
-9.54584
0.045875
-8.98274
0.0353995
-7.19173
-3.7062
0.157242
-9.08892
0.106105
-9.08374
0.063462
-9.11833
0.0339544
-9.20208
0.00738093
-9.24209
-0.0132058
-9.28431
-0.0280117
-9.32751
-0.0394645
-9.36932
-0.046266
-9.43292
-0.0493157
-9.46405
-0.0485986
-9.50008
-0.0447475
-9.52655
-0.0375986
-9.55552
-0.0275875
-9.5732
-0.0141013
-9.59812
0.00295126
-9.59937
0.0226186
-9.56551
0.0357794
-8.9959
0.0319873
-7.18794
-3.67421
0.0666673
-9.01461
0.0173465
-9.03442
-0.0223519
-9.07863
-0.0485909
-9.17584
-0.0698556
-9.22082
-0.0828946
-9.27127
-0.0900546
-9.32035
-0.0956661
-9.36371
-0.09759
-9.431
-0.0958187
-9.46582
-0.0903231
-9.50558
-0.0817435
-9.53513
-0.0699687
-9.5673
-0.0556683
-9.5875
-0.037689
-9.6161
-0.0166199
-9.62044
0.00780601
-9.58993
0.0278488
-9.01594
0.0299358
-7.19003
-3.64428
-0.0197641
-8.93536
-0.06929
-8.98489
-0.106469
-9.04145
-0.130367
-9.15194
-0.148236
-9.20295
-0.159472
-9.26004
-0.164026
-9.3158
-0.165282
-9.36246
-0.161901
-9.43438
-0.154449
-9.47327
-0.143235
-9.51679
-0.128851
-9.54952
-0.111208
-9.58494
-0.0906188
-9.60809
-0.066578
-9.64014
-0.038732
-9.64828
-0.00784688
-9.62082
0.0179825
-9.04177
0.026577
-7.19862
-3.6177
-0.104837
-8.85567
-0.153998
-8.93573
-0.188227
-9.00722
-0.2094
-9.13077
-0.221794
-9.19056
-0.225991
-9.25584
-0.223779
-9.31801
-0.219514
-9.36672
-0.211444
-9.44245
-0.199363
-9.48535
-0.18357
-9.53258
-0.164655
-9.56843
-0.142571
-9.60702
-0.117874
-9.63279
-0.0895624
-9.66845
-0.0579396
-9.6799
-0.0224121
-9.65635
0.0100422
-9.07423
0.0244223
-7.213
-3.59328
-0.184694
-8.77045
-0.235489
-8.88493
-0.268564
-8.97415
-0.287565
-9.11177
-0.29748
-9.18065
-0.299988
-9.25333
-0.295029
-9.32297
-0.286403
-9.37535
-0.273265
-9.45559
-0.255787
-9.50283
-0.234553
-9.55382
-0.210102
-9.59288
-0.182441
-9.63468
-0.151727
-9.6635
-0.117643
-9.70254
-0.0795796
-9.71797
-0.0377335
-9.69819
0.000158005
-9.11212
0.0211964
-7.23404
-3.57208
-0.265605
-8.68265
-0.314895
-8.83564
-0.346301
-8.94274
-0.362795
-9.09527
-0.36685
-9.17659
-0.362956
-9.25723
-0.352145
-9.33378
-0.338396
-9.38909
-0.32078
-9.4732
-0.298883
-9.52472
-0.273279
-9.57942
-0.244511
-9.62165
-0.212616
-9.66658
-0.17801
-9.69811
-0.139906
-9.74064
-0.098323
-9.75955
-0.0520216
-9.74449
-0.00751983
-9.15662
0.0190678
-7.26063
-3.55301
-0.340493
-8.58584
-0.391785
-8.78435
-0.422153
-8.91237
-0.436802
-9.08062
-0.439235
-9.17416
-0.433783
-9.26268
-0.420268
-9.3473
-0.402237
-9.40713
-0.379772
-9.49567
-0.352779
-9.55172
-0.322028
-9.61017
-0.288026
-9.65565
-0.250867
-9.70374
-0.21058
-9.73839
-0.167033
-9.78419
-0.119364
-9.80722
-0.066962
-9.7969
-0.0168284
-9.20675
0.0160825
-7.29354
-3.53693
-0.415516
-8.48527
-0.465993
-8.73388
-0.495639
-8.88273
-0.50798
-9.06828
-0.504606
-9.17753
-0.493406
-9.27388
-0.474667
-9.36603
-0.451808
-9.42998
-0.425065
-9.52241
-0.393858
-9.58292
-0.358946
-9.64508
-0.320849
-9.69375
-0.279682
-9.7449
-0.235757
-9.78232
-0.188478
-9.83147
-0.137555
-9.85814
-0.0809767
-9.85347
-0.0247434
-9.26299
0.0140631
-7.33234
-3.52287
-0.484934
-8.37443
-0.537984
-8.68083
-0.566433
-8.85428
-0.577334
-9.05738
-0.572812
-9.18205
-0.560192
-9.2865
-0.539092
-9.38713
-0.512225
-9.45685
-0.480899
-9.55374
-0.444918
-9.61891
-0.40517
-9.68483
-0.362165
-9.73675
-0.316068
-9.791
-0.266842
-9.83155
-0.2145
-9.88381
-0.157869
-9.91477
-0.0955289
-9.91581
-0.033764
-9.32475
0.0115799
-7.37769
-3.51129
-0.5546
-8.25767
-0.607444
-8.62798
-0.635327
-8.82639
-0.643829
-9.04888
-0.634046
-9.19184
-0.616283
-9.30426
-0.590458
-9.41296
-0.559078
-9.48823
-0.523687
-9.58913
-0.483706
-9.65889
-0.440025
-9.72851
-0.393155
-9.78363
-0.343307
-9.84085
-0.290716
-9.88414
-0.234962
-9.93957
-0.175343
-9.97439
-0.109192
-9.98197
-0.0417539
-9.39219
0.00981161
-7.42925
-3.50147
-0.622029
-8.12765
-0.676201
-8.57381
-0.701768
-8.80083
-0.709159
-9.04149
-0.69834
-9.20266
-0.679202
-9.3234
-0.651285
-9.44088
-0.616135
-9.52338
-0.576389
-9.62888
-0.531886
-9.70339
-0.483632
-9.77677
-0.432145
-9.83511
-0.37768
-9.89531
-0.320169
-9.94165
-0.25972
-10
-0.194801
-10.0393
-0.123128
-10.0536
-0.0502751
-9.46504
0.0077859
-7.48731
-3.49369
-0.677966
-7.99907
-0.740248
-8.51153
-0.765927
-8.77515
-0.771105
-9.03631
-0.755786
-9.21797
-0.73187
-9.34732
-0.699831
-9.47292
-0.660642
-9.56257
-0.616961
-9.67256
-0.568612
-9.75174
-0.516589
-9.82879
-0.461416
-9.89029
-0.403405
-9.95333
-0.342813
-10.0022
-0.27921
-10.0636
-0.211603
-10.1069
-0.136751
-10.1285
-0.0584773
-9.54332
0.00634196
-7.55213
-3.48735
-0.728636
-7.86633
-0.798462
-8.4417
-0.822373
-8.75124
-0.82719
-9.03149
-0.812094
-9.23307
-0.786859
-9.37255
-0.753687
-9.50609
-0.711437
-9.60482
-0.664326
-9.71967
-0.612005
-9.80406
-0.556222
-9.88457
-0.496882
-9.94963
-0.435019
-10.0152
-0.369866
-10.0674
-0.302559
-10.1309
-0.229577
-10.1799
-0.150728
-10.2073
-0.0665483
-9.6275
0.00420113
-7.62288
-3.48315
8.00348
-7.50139
-8.36842
7.35842
-7.79664
6.78758
-8.18039
6.1893
-8.43322
5.63127
-8.67504
5.12005
-8.86133
4.65128
-9.03732
4.22955
-9.18309
3.82939
-9.31951
3.45428
-9.42895
3.09715
-9.52744
2.75301
-9.60549
2.41543
-9.67761
2.09315
-9.74511
1.76618
-9.80395
1.46444
-9.87815
1.13591
-9.87882
0.778875
-9.27046
0.327457
-7.17147
-3.15569
4.70185
-7.41271
-4.79053
4.5567
-7.65149
4.33089
-7.95459
4.08871
-8.19104
3.82994
-8.41626
3.56982
-8.60121
3.30348
-8.77098
3.03792
-8.91753
2.76586
-9.04744
2.49422
-9.15731
2.22249
-9.25571
1.96362
-9.34661
1.71658
-9.43057
1.48406
-9.51259
1.26334
-9.58324
1.05262
-9.66743
0.816564
-9.64276
0.547495
-9.00139
0.178403
-6.80237
-2.97729
3.38587
-7.50056
-3.29802
3.43272
-7.69834
3.40052
-7.92239
3.32108
-8.1116
3.1875
-8.28268
3.03063
-8.44434
2.85313
-8.59349
2.66384
-8.72823
2.46403
-8.84764
2.26157
-8.95485
2.05547
-9.04961
1.85213
-9.14327
1.64386
-9.2223
1.43372
-9.30246
1.22252
-9.37204
1.00149
-9.4464
0.773614
-9.41488
0.52905
-8.75682
0.227803
-6.50113
-2.74948
2.17972
-7.66182
-2.01846
2.28063
-7.79924
2.29649
-7.93825
2.27624
-8.09136
2.2241
-8.23053
2.14518
-8.36542
2.03758
-8.48589
1.91049
-8.60115
1.77033
-8.70749
1.62394
-8.80846
1.47413
-8.89979
1.32084
-8.98999
1.16892
-9.07038
1.01808
-9.15161
0.870587
-9.22454
0.722945
-9.29876
0.575406
-9.26735
0.407847
-8.58927
0.175034
-6.26831
-2.57445
1.5476
-7.79717
-1.41225
1.63597
-7.88762
1.6945
-7.99678
1.72824
-8.1251
1.72366
-8.22595
1.68847
-8.33023
1.62832
-8.42574
1.55097
-8.5238
1.45846
-8.61498
1.35351
-8.7035
1.24149
-8.78777
1.12021
-8.86871
0.995989
-8.94616
0.863353
-9.01898
0.726159
-9.08735
0.584168
-9.15677
0.446018
-9.1292
0.318896
-8.46214
0.162818
-6.11224
-2.41163
1.03212
-7.90997
-0.919319
1.12934
-7.98483
1.18746
-8.05489
1.19903
-8.13667
1.19087
-8.21779
1.16452
-8.30388
1.12363
-8.38485
1.06638
-8.46655
0.997008
-8.54561
0.917736
-8.62423
0.83377
-8.70381
0.743906
-8.77884
0.650436
-8.85269
0.553997
-8.92254
0.459936
-8.99329
0.367422
-9.06425
0.281672
-9.04345
0.218279
-8.39875
0.127883
-6.02184
-2.28375
0.699535
-7.98999
-0.619515
0.75549
-8.04079
0.792905
-8.09231
0.824661
-8.16843
0.842499
-8.23563
0.839368
-8.30075
0.820739
-8.36622
0.783857
-8.42967
0.735621
-8.49737
0.674342
-8.56295
0.603049
-8.63251
0.521569
-8.69736
0.432623
-8.76374
0.338998
-8.82891
0.243803
-8.89809
0.148457
-8.96891
0.0586527
-8.95364
0.0353364
-8.37543
0.0575765
-6.04408
-2.22617
0.475795
-8.04535
-0.420435
0.522159
-8.08715
0.558091
-8.12824
0.570335
-8.18067
0.5626
-8.22789
0.541323
-8.27947
0.51093
-8.33582
0.471881
-8.39062
0.425486
-8.45098
0.36836
-8.50583
0.300287
-8.56444
0.226076
-8.62315
0.150089
-8.68775
0.0721063
-8.75093
-0.00920344
-8.81678
-0.0943965
-8.88372
-0.167357
-8.88068
-0.151367
-8.39142
0.00478387
-6.20023
-2.22139
0.286149
-8.07943
-0.252071
0.308954
-8.10996
0.323817
-8.1431
0.325201
-8.18205
0.319821
-8.22251
0.303997
-8.26365
0.276883
-8.30871
0.239852
-8.35359
0.192397
-8.40352
0.136302
-8.44973
0.0744311
-8.50257
0.00495096
-8.55367
-0.0693152
-8.61349
-0.154274
-8.66597
-0.242133
-8.72892
-0.336947
-8.7889
-0.413249
-8.80438
-0.376254
-8.42842
-0.103447
-6.47304
-2.32483
0.18137
-8.09832
-0.162476
0.19389
-8.12248
0.1997
-8.14891
0.196446
-8.1788
0.183415
-8.20948
0.155876
-8.23611
0.119077
-8.27191
0.0723475
-8.30686
0.0155188
-8.34669
-0.0463918
-8.38782
-0.113183
-8.43578
-0.188576
-8.47828
-0.274422
-8.52764
-0.368869
-8.57153
-0.469963
-8.62783
-0.581949
-8.67692
-0.676222
-8.71011
-0.654918
-8.44972
-0.291042
-6.83691
-2.61588
0.0780378
-8.10285
-0.0735042
0.0766545
-8.12109
0.0691632
-8.14142
0.0524854
-8.16212
0.0282242
-8.18522
0.00152531
-8.20941
-0.031314
-8.23907
-0.0721437
-8.26603
-0.120155
-8.29868
-0.178541
-8.32944
-0.250657
-8.36366
-0.333645
-8.39529
-0.42644
-8.43485
-0.528945
-8.46902
-0.642439
-8.51434
-0.769871
-8.54948
-0.892491
-8.58749
-0.908529
-8.43368
-0.53752
-7.20792
-3.1534
0.0220557
-8.10023
-0.0246765
0.0138408
-8.11288
0.00149927
-8.12908
-0.0160433
-8.14458
-0.0392426
-8.16202
-0.0708367
-8.17782
-0.111389
-8.19852
-0.158435
-8.21898
-0.213896
-8.24322
-0.278593
-8.26474
-0.35341
-8.28885
-0.435888
-8.31281
-0.531496
-8.33924
-0.638739
-8.36178
-0.765555
-8.38752
-0.904792
-8.41025
-1.05633
-8.43595
-1.11257
-8.37744
-0.820687
-7.49981
-3.97408
-0.0236694
-8.08984
0.0132802
-0.038748
-8.0978
-0.0590643
-8.10876
-0.0849603
-8.11868
-0.115527
-8.13146
-0.149342
-8.144
-0.189346
-8.15852
-0.234775
-8.17355
-0.290184
-8.18781
-0.352439
-8.20248
-0.42167
-8.21961
-0.499873
-8.23461
-0.589586
-8.24953
-0.687335
-8.26403
-0.802385
-8.27247
-0.932425
-8.28021
-1.09099
-8.27738
-1.21092
-8.25751
-0.997275
-7.71346
-4.97136
-0.052057
-8.07712
0.0393279
-0.0671796
-8.08268
-0.0851588
-8.09079
-0.106823
-8.09702
-0.132792
-8.10549
-0.16365
-8.11314
-0.198837
-8.12333
-0.241078
-8.13131
-0.287347
-8.14154
-0.339737
-8.15009
-0.39899
-8.16036
-0.467666
-8.16593
-0.545105
-8.17209
-0.633463
-8.17567
-0.733185
-8.17275
-0.843171
-8.17022
-0.963591
-8.15696
-1.07739
-8.14371
-0.924251
-7.86659
-5.89561
-0.0648527
-8.06143
0.0491639
-0.0831351
-8.0644
-0.104442
-8.06948
-0.128176
-8.07329
-0.154962
-8.0787
-0.185106
-8.083
-0.216655
-8.09178
-0.25169
-8.09628
-0.292297
-8.10093
-0.338487
-8.1039
-0.388592
-8.11026
-0.441344
-8.11318
-0.496998
-8.11643
-0.55789
-8.11478
-0.619669
-8.11097
-0.690117
-8.09977
-0.762669
-8.08441
-0.836593
-8.06979
-0.752275
-7.95091
-6.64788
-0.0637963
-8.04837
0.0507362
-0.0781531
-8.05004
-0.0945008
-8.05313
-0.112563
-8.05522
-0.132937
-8.05833
-0.154577
-8.06136
-0.181124
-8.06523
-0.210169
-8.06723
-0.240253
-8.07085
-0.272592
-8.07156
-0.308543
-8.07431
-0.3483
-8.07343
-0.390067
-8.07466
-0.433521
-8.07133
-0.474815
-8.06967
-0.51408
-8.06051
-0.547426
-8.05106
-0.584195
-8.03302
-0.546788
-7.98832
-7.19467
-0.0577942
-8.03636
0.0457838
-0.0706453
-8.03719
-0.0849522
-8.03882
-0.100168
-8.04001
-0.116658
-8.04184
-0.134317
-8.0437
-0.153104
-8.04645
-0.172977
-8.04736
-0.194243
-8.04958
-0.216214
-8.04959
-0.239182
-8.05134
-0.262631
-8.04998
-0.286279
-8.05102
-0.309625
-8.04798
-0.331634
-8.04767
-0.350769
-8.04137
-0.363276
-8.03856
-0.366036
-8.03026
-0.337711
-8.01664
-7.53238
-0.0421818
-8.02798
0.0338075