/*--------------------------------*- C++ -*----------------------------------*\
  =========                 |
  \\      /  F ield         | OpenFOAM: The Open Source CFD Toolbox
   \\    /   O peration     | Website:  https://openfoam.org
    \\  /    A nd           | Version:  9
     \\/     M anipulation  |
\*---------------------------------------------------------------------------*/
FoamFile
{
    format      ascii;
    class       volVectorField;
    location    "1.7";
    object      U;
}
// * * * * * * * * * * * * * * * * * * * * * * * * * * * * * * * * * * * * * //

dimensions      [0 1 -1 0 0 0 0];

internalField   nonuniform List<vector> 
46400
(
(7.66168 -7.53942 -1.99216e-19)
(16.1098 -15.2644 1.52385e-19)
(17.4635 -17.3758 -5.84414e-20)
(16.8997 -17.4276 -5.00209e-20)
(16.3747 -17.414 -4.39323e-20)
(15.801 -17.4521 4.79015e-20)
(15.3156 -17.4405 -5.34531e-20)
(14.8362 -17.4791 3.75404e-20)
(14.4169 -17.5273 -4.37627e-20)
(13.9633 -17.5206 4.91684e-20)
(13.5839 -17.5817 -5.38234e-20)
(13.2263 -17.6343 0)
(12.8798 -17.7003 3.71538e-19)
(12.5423 -17.7303 -4.26157e-19)
(12.2288 -17.7965 -5.50478e-19)
(11.947 -17.8623 -9.79225e-20)
(11.6401 -17.923 -2.76008e-20)
(11.3635 -17.9194 4.43457e-19)
(11.0843 -17.898 6.13255e-19)
(10.6744 -18.0977 -5.65274e-19)
(7.98596 -7.17442 0)
(16.2617 -14.3769 -2.88224e-20)
(17.4133 -16.0998 0)
(16.8294 -16.207 8.59908e-20)
(16.3041 -16.2372 -8.30402e-20)
(15.7757 -16.3291 2.20649e-20)
(15.3046 -16.4118 0)
(14.8213 -16.4602 -3.75381e-20)
(14.3439 -16.4978 4.376e-20)
(13.9075 -16.5393 -4.91665e-20)
(13.5289 -16.6503 5.86164e-19)
(13.1672 -16.7254 3.53252e-20)
(12.803 -16.8049 -4.88806e-19)
(12.4812 -16.8834 0)
(12.1702 -16.9826 6.70867e-20)
(11.8847 -17.0526 6.94126e-20)
(11.5986 -17.1448 0)
(11.3588 -17.1916 -6.67233e-19)
(11.1171 -17.2357 -1.72945e-19)
(10.7814 -17.4369 6.79659e-19)
(8.27718 -6.78415 2.41292e-20)
(16.3105 -13.4514 -1.27142e-19)
(17.2563 -14.8708 1.14851e-19)
(16.5965 -15.035 2.02113e-19)
(16.0777 -15.106 -1.98426e-19)
(15.4959 -15.221 0)
(15.0037 -15.3046 -6.52659e-19)
(14.537 -15.4276 5.62109e-19)
(14.1163 -15.5551 -7.3514e-19)
(13.6391 -15.5888 7.27683e-19)
(13.2441 -15.7034 6.97215e-19)
(12.9006 -15.8297 -6.70389e-20)
(12.55 -15.9512 -6.05831e-19)
(12.2052 -16.0227 0)
(11.8979 -16.1534 7.54948e-19)
(11.6274 -16.281 -7.43502e-19)
(11.3332 -16.3953 0)
(11.0823 -16.4628 -1.5059e-20)
(10.8214 -16.5526 8.72036e-20)
(10.47 -16.7928 -8.0386e-19)
(8.45602 -6.34899 -1.50816e-19)
(16.2553 -12.4949 3.30534e-20)
(16.964 -13.6123 2.82368e-19)
(16.3269 -13.8205 -2.7883e-19)
(15.816 -13.95 -2.47501e-19)
(15.3054 -14.1231 3.3732e-19)
(14.8273 -14.2891 4.65577e-19)
(14.3432 -14.3941 -1.1789e-18)
(13.8872 -14.5359 9.89068e-19)
(13.4598 -14.6403 -9.28277e-20)
(13.0508 -14.7818 0)
(12.6922 -14.9078 9.76728e-20)
(12.3558 -15.0768 -9.93909e-20)
(12.0342 -15.1996 0)
(11.6989 -15.3123 8.9008e-19)
(11.4286 -15.4518 -7.57691e-19)
(11.1659 -15.6261 0)
(10.93 -15.7381 1.03031e-19)
(10.6932 -15.859 1.161e-19)
(10.3373 -16.1289 9.275e-19)
(8.60728 -5.9001 0)
(16.0618 -11.4279 0)
(16.6042 -12.4326 -4.0241e-19)
(15.9274 -12.6654 2.78996e-19)
(15.3975 -12.832 -5.49692e-19)
(14.8284 -13.0112 4.45663e-19)
(14.3457 -13.1988 0)
(13.8997 -13.3977 4.955e-19)
(13.4851 -13.6028 -5.99547e-19)
(13.0113 -13.6983 -1.36356e-19)
(12.6088 -13.8669 -1.37028e-19)
(12.2626 -14.0398 0)
(11.9172 -14.2188 1.03157e-18)
(11.6067 -14.3795 -1.01544e-18)
(11.2971 -14.5537 0)
(10.9997 -14.6823 -1.14134e-18)
(10.7192 -14.855 1.00722e-18)
(10.4872 -14.9975 1.00917e-18)
(10.2531 -15.1536 -1.10129e-18)
(9.9169 -15.4427 0)
(8.80894 -5.44954 0)
(15.7122 -10.2501 0)
(16.1114 -11.1595 0)
(15.4749 -11.4434 -2.92254e-20)
(14.964 -11.6879 0)
(14.4769 -11.9396 0)
(13.9943 -12.1907 0)
(13.518 -12.3586 -1.57047e-19)
(13.111 -12.6204 0)
(12.7124 -12.7984 1.36356e-19)
(12.2735 -12.9664 -2.02587e-20)
(11.9177 -13.1364 -1.34018e-18)
(11.5975 -13.373 1.00918e-18)
(11.2824 -13.5385 -1.32549e-18)
(10.9707 -13.7247 9.99994e-19)
(10.7093 -13.9149 0)
(10.4291 -14.1013 -1.14106e-18)
(10.191 -14.2597 9.76019e-19)
(9.97637 -14.4476 0)
(9.64401 -14.7653 -1.54231e-19)
(9.04083 -5.06061 5.6653e-19)
(15.2586 -9.15168 1.64864e-19)
(15.4993 -9.99479 6.44109e-19)
(14.8468 -10.3142 -6.647e-19)
(14.3126 -10.6054 -6.71026e-19)
(13.775 -10.8583 1.33617e-18)
(13.3299 -11.1671 -1.5256e-18)
(12.9035 -11.4274 1.44685e-19)
(12.5027 -11.7062 4.89834e-19)
(12.0894 -11.9061 0)
(11.7048 -12.1356 -1.9745e-20)
(11.3336 -12.3167 -1.88099e-20)
(11.0062 -12.5489 1.55619e-19)
(10.7422 -12.7963 1.29049e-18)
(10.4284 -12.9849 -1.13449e-18)
(10.1438 -13.155 -1.44331e-18)
(9.89036 -13.3767 1.25714e-18)
(9.64167 -13.5208 -1.43801e-20)
(9.43482 -13.7176 -1.59844e-19)
(9.14663 -14.053 -1.1482e-18)
(9.29086 -4.64208 -1.88271e-19)
(14.6436 -8.06736 3.19298e-20)
(14.7226 -8.78164 -2.02869e-19)
(14.1555 -9.15741 -8.00875e-19)
(13.6823 -9.54336 5.53969e-19)
(13.2394 -9.86435 0)
(12.7749 -10.2022 1.1575e-18)
(12.3337 -10.4431 -5.58186e-19)
(11.9828 -10.8056 3.79787e-19)
(11.6343 -11.0645 1.9824e-19)
(11.223 -11.3014 -3.75854e-19)
(10.878 -11.5089 9.12091e-19)
(10.5243 -11.7385 1.90648e-19)
(10.2505 -11.9759 -1.0818e-18)
(10.0098 -12.2757 3.02449e-18)
(9.73478 -12.4667 -1.23188e-18)
(9.4771 -12.7031 1.55687e-18)
(9.24682 -12.8895 -1.01886e-18)
(9.00946 -13.0664 3.33222e-19)
(8.74194 -13.4161 1.60965e-18)
(9.5006 -4.2445 9.68828e-19)
(13.9327 -7.08276 -1.99526e-19)
(13.8475 -7.74497 -2.84587e-20)
(13.3052 -8.13813 4.35876e-19)
(12.8025 -8.55452 2.04942e-19)
(12.3378 -8.88441 2.2804e-19)
(11.9647 -9.30391 -1.06716e-18)
(11.556 -9.60276 6.46538e-19)
(11.174 -9.93449 -2.00363e-19)
(10.8659 -10.2543 -1.98239e-19)
(10.5441 -10.5661 -1.95895e-19)
(10.1997 -10.7922 -2.10445e-19)
(9.87129 -11.0327 -3.9761e-19)
(9.56439 -11.242 1.37678e-18)
(9.30747 -11.5042 -1.92523e-18)
(9.09338 -11.7698 -1.96169e-19)
(8.84914 -12.0012 1.35142e-20)
(8.64768 -12.2178 -1.44547e-18)
(8.43584 -12.415 1.07817e-18)
(8.17646 -12.7105 -1.71589e-18)
(9.57737 -3.93797 8.72591e-19)
(13.0371 -6.08205 -2.20902e-18)
(12.8144 -6.74629 1.46309e-18)
(12.411 -7.17721 -2.31206e-19)
(11.999 -7.67001 -2.53007e-19)
(11.6057 -8.03239 9.82103e-19)
(11.2068 -8.45008 -1.18992e-18)
(10.8422 -8.77256 0)
(10.5111 -9.16934 9.20372e-19)
(10.1999 -9.47903 -9.05048e-19)
(9.88446 -9.82132 -6.59554e-19)
(9.61601 -10.1169 8.59899e-19)
(9.29745 -10.3921 2.06937e-19)
(9.01836 -10.6277 -8.42829e-19)
(8.74067 -10.8897 2.02689e-19)
(8.51063 -11.1388 1.01045e-18)
(8.30304 -11.4404 -1.78312e-18)
(8.10075 -11.6672 1.17701e-18)
(7.92214 -11.9361 -1.15244e-20)
(7.68643 -12.2501 -1.63885e-18)
(9.38813 -3.55743 1.21048e-18)
(12.0935 -5.24877 -8.16826e-19)
(11.8035 -5.8911 5.45974e-19)
(11.3959 -6.31845 7.1777e-21)
(10.9947 -6.82871 -1.07442e-18)
(10.6015 -7.21214 -1.02237e-18)
(10.3028 -7.69586 1.27064e-18)
(9.93768 -8.03153 -7.47258e-19)
(9.59576 -8.40733 9.90958e-19)
(9.35688 -8.79078 0)
(9.07454 -9.1428 1.55624e-20)
(8.81154 -9.4477 2.26382e-19)
(8.56517 -9.76714 2.36235e-19)
(8.286 -9.99689 -2.31283e-19)
(8.03656 -10.2536 0)
(7.79277 -10.4713 2.21539e-19)
(7.57682 -10.7236 0)
(7.40111 -10.9708 4.13235e-19)
(7.2253 -11.2156 2.01495e-18)
(7.05285 -11.5723 -1.41569e-20)
(8.98194 -3.10704 6.68434e-19)
(11.0274 -4.43557 -1.41494e-19)
(10.7072 -5.09726 -2.05822e-18)
(10.3886 -5.56874 1.15195e-18)
(10.0483 -6.11157 2.74199e-19)
(9.70493 -6.5127 -2.69936e-19)
(9.38507 -6.99459 -1.09778e-18)
(9.12638 -7.39752 8.18106e-19)
(8.77928 -7.77928 0)
(8.50603 -8.12662 0)
(8.29002 -8.56437 -1.25868e-18)
(8.06652 -8.90966 9.96204e-19)
(7.85104 -9.29429 -2.36177e-19)
(7.65353 -9.61623 -7.17122e-19)
(7.40862 -9.90792 6.36446e-21)
(7.20317 -10.1695 1.59884e-18)
(6.96278 -10.4098 -8.93413e-19)
(6.76843 -10.6247 6.55229e-19)
(6.57444 -10.8557 -1.06228e-18)
(6.37362 -11.1377 0)
(8.37697 -2.63239 -5.82407e-19)
(9.92381 -3.72098 9.42428e-19)
(9.55789 -4.35456 1.60943e-19)
(9.27038 -4.83889 1.58143e-19)
(8.9836 -5.42573 0)
(8.64534 -5.83329 1.18539e-18)
(8.39151 -6.35093 -1.1646e-18)
(8.139 -6.76447 1.45979e-19)
(7.88013 -7.19399 0)
(7.58829 -7.51139 1.08857e-18)
(7.32764 -7.86858 -9.34156e-19)
(7.12883 -8.22128 1.04052e-18)
(6.9193 -8.57167 -1.02393e-18)
(6.761 -8.92649 9.93655e-19)
(6.59632 -9.27726 -8.54038e-19)
(6.43054 -9.58319 -9.48353e-19)
(6.27866 -9.90762 1.86079e-18)
(6.10529 -10.1497 -7.97117e-19)
(5.96351 -10.431 1.13067e-19)
(5.78314 -10.7051 9.51953e-19)
(7.58388 -2.14507 -4.66203e-19)
(8.77026 -3.07618 5.04039e-19)
(8.43287 -3.75598 -1.60943e-19)
(8.13231 -4.23633 -1.58139e-19)
(7.9119 -4.86075 0)
(7.63208 -5.30206 0)
(7.33838 -5.80242 0)
(7.1813 -6.287 -2.98385e-19)
(6.97001 -6.77852 -1.16564e-18)
(6.79513 -7.20118 2.28514e-18)
(6.55461 -7.59684 -1.25673e-18)
(6.351 -7.93515 -1.38786e-19)
(6.14538 -8.30173 0)
(5.95099 -8.59681 0)
(5.78503 -8.95497 -2.53371e-19)
(5.61997 -9.23736 0)
(5.47261 -9.57511 9.62066e-19)
(5.33283 -9.83939 -1.18357e-18)
(5.1935 -10.1354 -1.02839e-18)
(5.05673 -10.4392 9.99725e-19)
(6.66886 -1.67602 4.86129e-19)
(7.52176 -2.49408 8.80251e-19)
(7.1804 -3.16277 -5.29846e-23)
(6.9517 -3.66799 -1.24911e-21)
(6.75872 -4.30146 1.67235e-19)
(6.54585 -4.76951 -4.86313e-19)
(6.26739 -5.24275 0)
(6.02178 -5.64011 -4.67306e-19)
(5.85088 -6.12357 1.58247e-19)
(5.67807 -6.53331 5.95116e-19)
(5.54627 -7.00053 5.76667e-19)
(5.38194 -7.3736 -4.28604e-19)
(5.24595 -7.78887 1.09807e-18)
(5.09485 -8.12988 -9.44521e-19)
(4.95466 -8.49449 1.17407e-18)
(4.82069 -8.81528 -2.17834e-18)
(4.6869 -9.14783 1.00417e-18)
(4.56817 -9.44568 1.19903e-19)
(4.4467 -9.74425 9.45565e-19)
(4.32093 -10.0775 -1.03319e-18)
(5.60229 -1.22845 1.69296e-19)
(6.22673 -2.01895 -1.7936e-19)
(5.99307 -2.74517 7.18923e-19)
(5.69314 -3.23521 -7.05624e-19)
(5.57772 -3.92754 -3.4383e-19)
(5.47971 -4.49502 -8.37097e-19)
(5.31321 -5.06876 4.19168e-21)
(5.13621 -5.51282 6.44532e-19)
(4.93244 -5.97413 -1.5428e-19)
(4.77305 -6.36998 0)
(4.59654 -6.78787 0)
(4.46911 -7.16221 0)
(4.31591 -7.54708 0)
(4.20206 -7.89351 3.50315e-21)
(4.06801 -8.24989 0)
(3.95983 -8.56509 1.2977e-19)
(3.84002 -8.90065 5.10319e-19)
(3.7391 -9.18381 -1.49833e-18)
(3.63357 -9.48847 1.10434e-18)
(3.52706 -9.79957 -1.04795e-18)
(4.59083 -0.914131 0)
(4.7968 -1.63361 -9.54347e-20)
(4.7201 -2.3587 0)
(4.46547 -2.82516 2.69659e-19)
(4.20497 -3.36468 -1.799e-19)
(4.12248 -3.88708 -6.89173e-19)
(4.02282 -4.47181 4.386e-21)
(3.93793 -4.96922 6.61047e-19)
(3.83562 -5.50191 -6.40026e-19)
(3.7286 -5.93775 1.25343e-18)
(3.62513 -6.4143 -5.48309e-21)
(3.51071 -6.79872 -5.98542e-19)
(3.41857 -7.23331 5.77942e-19)
(3.30811 -7.57742 -7.08813e-19)
(3.22279 -7.97417 0)
(3.12029 -8.28537 -5.35142e-19)
(3.03819 -8.64977 5.2716e-19)
(2.94387 -8.92903 0)
(2.86825 -9.24886 -1.23358e-19)
(2.77326 -9.55394 0)
(3.1543 -0.58767 9.73583e-20)
(3.37665 -1.29985 9.53048e-20)
(3.50027 -2.18832 0)
(3.42651 -2.78658 3.67338e-19)
(3.26521 -3.4212 -4.53248e-19)
(3.08128 -3.8698 2.62707e-19)
(2.96169 -4.43661 -7.74621e-19)
(2.8449 -4.86248 3.3684e-19)
(2.75108 -5.38645 -8.23069e-20)
(2.66448 -5.78665 0)
(2.58232 -6.26625 -7.8174e-20)
(2.5081 -6.63552 -7.61712e-20)
(2.43081 -7.07154 -7.42194e-20)
(2.36693 -7.41372 0)
(2.29477 -7.80997 -5.57596e-19)
(2.23762 -8.1267 1.16117e-18)
(2.16983 -8.49009 -9.97938e-19)
(2.1171 -8.7788 5.21801e-19)
(2.05488 -9.09651 6.36114e-20)
(2.00133 -9.40382 5.43868e-19)
(2.24576 -0.549945 -1.48806e-19)
(1.77014 -0.936093 -1.95199e-19)
(1.8109 -1.71555 5.84386e-22)
(1.88398 -2.26926 5.14473e-19)
(1.87859 -3.00737 -1.38411e-19)
(1.86493 -3.52353 -8.92544e-20)
(1.80316 -4.14546 8.78565e-20)
(1.75992 -4.60818 1.70586e-19)
(1.6955 -5.15841 8.22979e-20)
(1.64779 -5.57845 -3.2135e-19)
(1.59118 -6.07391 3.5482e-19)
(1.54472 -6.45627 7.61675e-20)
(1.49288 -6.9038 3.71304e-19)
(1.44912 -7.2523 -3.03457e-21)
(1.40229 -7.65889 3.25179e-20)
(1.36216 -7.97779 -6.21029e-19)
(1.32028 -8.35222 1.69952e-19)
(1.28339 -8.6417 0)
(1.24644 -8.97052 -3.15508e-20)
(1.20772 -9.27866 -2.74732e-19)
(0.466991 -1.07547 0)
(0.967405 -1.01875 -9.61653e-20)
(0.726564 -2.06701 1.05657e-19)
(0.744626 -2.35392 -4.74298e-20)
(0.602753 -3.12468 -4.63906e-20)
(0.620869 -3.50898 0)
(0.575155 -4.17733 -8.73118e-20)
(0.573571 -4.56154 1.70904e-19)
(0.543415 -5.1518 -8.36541e-20)
(0.538138 -5.51758 8.07832e-20)
(0.517757 -6.0448 -4.00241e-20)
(0.51261 -6.38979 -7.6654e-20)
(0.495781 -6.86447 1.50103e-19)
(0.488784 -7.1864 -1.46235e-19)
(0.471788 -7.61501 3.60892e-20)
(0.462684 -7.9126 2.46599e-34)
(0.445613 -8.30375 -3.35445e-20)
(0.435524 -8.57435 1.97458e-19)
(0.420122 -8.91312 -9.7426e-20)
(0.409474 -9.20641 -6.99083e-20)
(-0.0905132 1.08833 5.10581e-21)
(-0.179536 1.20224 2.38524e-20)
(0.356682 -0.434941 0)
(1.55934 -4.78678 2.27211e-20)
(4.69465 -13.3875 1.60844e-20)
(7.24473 -20.8842 2.16754e-20)
(8.7413 -24.9708 0)
(9.23787 -26.508 1.99228e-20)
(9.42172 -27.0075 0)
(9.45734 -27.1608 0)
(9.43986 -27.1609 -1.59787e-20)
(9.40509 -27.1144 5.02093e-22)
(9.31115 -27.0446 3.58963e-20)
(9.25736 -26.9793 0)
(9.21455 -27.0008 1.54596e-20)
(9.17433 -26.9717 1.59531e-20)
(9.09467 -26.9659 1.56391e-20)
(9.0416 -26.901 0)
(8.96904 -26.9265 -2.89773e-20)
(8.93805 -26.886 2.69344e-20)
(-0.103898 1.17264 1.90685e-20)
(0.0898883 0.467269 -5.91102e-20)
(0.833445 -2.50608 0)
(3.50858 -9.97619 -5.84382e-20)
(6.67876 -18.6124 7.5807e-20)
(8.62595 -23.844 -1.95147e-19)
(9.41011 -26.1324 8.32505e-20)
(9.65312 -26.8536 5.84106e-20)
(9.69076 -27.0606 -2.50473e-19)
(9.68058 -27.055 1.34333e-19)
(9.62384 -27.0201 -1.76005e-20)
(9.54466 -26.9116 1.41953e-19)
(9.47231 -26.8815 -2.28179e-21)
(9.44006 -26.8503 -1.33383e-19)
(9.3529 -26.8463 -1.62718e-20)
(9.30909 -26.7897 -1.60368e-20)
(9.21617 -26.7898 -1.55601e-20)
(9.18369 -26.7583 0)
(9.07788 -26.7538 -1.10867e-19)
(9.03947 -26.6664 1.62338e-21)
(-0.240238 1.11195 -4.95295e-20)
(0.354644 -0.613788 0)
(1.77935 -5.52234 0)
(5.56702 -15.2401 -4.59718e-20)
(8.06779 -22.2593 4.46603e-20)
(9.3343 -25.6779 0)
(9.74675 -26.7348 -4.00692e-20)
(9.82719 -27.0227 1.0883e-19)
(9.82517 -27.0218 -1.02766e-19)
(9.78335 -26.9789 1.37117e-19)
(9.69181 -26.856 -1.80962e-19)
(9.64804 -26.7964 0)
(9.57957 -26.7689 -1.35153e-19)
(9.53315 -26.6941 -1.27955e-19)
(9.44944 -26.6754 2.25637e-19)
(9.41838 -26.6378 -2.38652e-19)
(9.33106 -26.6373 2.02601e-19)
(9.2921 -26.5497 0)
(9.16348 -26.5168 -2.45549e-19)
(9.14383 -26.449 4.02882e-19)
(0.125705 0.911978 2.47714e-19)
(0.719135 -2.33634 0)
(3.55886 -9.97273 8.72045e-20)
(7.31721 -19.1398 3.03769e-20)
(9.20441 -24.4358 -2.70658e-19)
(9.95075 -26.3656 8.42442e-20)
(10.1012 -26.8892 4.1411e-20)
(10.1228 -26.926 4.10439e-19)
(10.0892 -26.8997 -5.5932e-19)
(9.99784 -26.7629 -6.48771e-20)
(9.9289 -26.6855 3.26874e-19)
(9.86561 -26.6283 6.82866e-20)
(9.78516 -26.5652 -3.28492e-19)
(9.73839 -26.5168 3.21778e-19)
(9.65146 -26.5205 9.19399e-20)
(9.61389 -26.4581 -5.77587e-20)
(9.49531 -26.4225 8.44996e-20)
(9.44438 -26.3263 0)
(9.33037 -26.3298 -2.3925e-20)
(9.30868 -26.2435 0)
(0.433299 -0.125223 0)
(1.36571 -4.29639 3.85955e-19)
(5.22857 -13.9578 -4.72581e-19)
(8.38124 -22.1416 4.60573e-19)
(9.86776 -25.7681 -3.64304e-19)
(10.2191 -26.7551 -8.46462e-20)
(10.3204 -26.917 0)
(10.2854 -26.8864 2.1128e-19)
(10.2248 -26.774 -2.9557e-19)
(10.1237 -26.6196 3.64407e-19)
(10.0678 -26.5476 -2.85529e-19)
(10.0014 -26.4725 -6.82893e-20)
(9.93591 -26.4279 3.21373e-19)
(9.87816 -26.3699 -5.60182e-19)
(9.78639 -26.3269 3.58045e-19)
(9.74115 -26.249 -1.17629e-19)
(9.61709 -26.2105 -2.73647e-19)
(9.5863 -26.1338 6.1936e-19)
(9.45577 -26.1179 -3.45877e-19)
(9.42417 -25.9806 -4.08711e-19)
(0.379212 -1.10375 4.07169e-19)
(2.29563 -6.60004 3.94633e-19)
(6.84657 -17.4677 -3.8834e-19)
(9.52563 -23.9939 -9.51093e-20)
(10.4543 -26.3502 9.04666e-20)
(10.6823 -26.8247 3.2534e-19)
(10.6542 -26.8192 -3.09203e-19)
(10.6023 -26.7113 0)
(10.4962 -26.5326 2.9827e-19)
(10.4204 -26.4223 -2.93294e-19)
(10.3554 -26.355 -2.71533e-19)
(10.2782 -26.2862 2.67116e-19)
(10.1916 -26.2058 0)
(10.1159 -26.1369 0)
(10.0251 -26.1107 5.11235e-19)
(9.96198 -26.0307 -5.01832e-19)
(9.82747 -25.9831 -4.14878e-19)
(9.78268 -25.8834 4.03312e-19)
(9.62397 -25.8633 -3.70991e-19)
(9.59516 -25.7175 4.45304e-19)
(0.407969 -2.05898 -3.09619e-19)
(3.61449 -9.85386 1.06876e-19)
(8.04512 -20.0207 7.01781e-21)
(10.2593 -25.3232 4.87003e-19)
(10.8585 -26.706 0)
(10.9171 -26.8079 0)
(10.8971 -26.7307 6.18838e-19)
(10.7966 -26.5471 -2.23815e-20)
(10.7307 -26.4212 -6.08881e-19)
(10.6284 -26.2743 5.5769e-19)
(10.5583 -26.1865 -5.48506e-19)
(10.4618 -26.0782 0)
(10.3804 -26.0075 4.78724e-19)
(10.3019 -25.9507 -4.71188e-19)
(10.2005 -25.8846 0)
(10.1192 -25.7812 0)
(9.98134 -25.7221 0)
(9.94087 -25.6393 0)
(9.7703 -25.6088 0)
(9.7369 -25.4223 -4.3193e-20)
(0.713092 -2.87909 3.29292e-19)
(4.8495 -12.1778 -5.32925e-19)
(9.22894 -21.9759 0)
(11.0673 -25.9928 0)
(11.3832 -26.7216 8.28132e-19)
(11.4137 -26.7054 5.46304e-20)
(11.3172 -26.5312 -7.32888e-19)
(11.217 -26.3468 0)
(11.0922 -26.1457 7.26005e-20)
(10.987 -26.0091 -6.82909e-20)
(10.8978 -25.9208 0)
(10.7932 -25.8298 6.0584e-20)
(10.6894 -25.7424 -5.16103e-19)
(10.5813 -25.6561 9.4032e-19)
(10.4711 -25.595 -1.60548e-20)
(10.3715 -25.5025 -4.05547e-19)
(10.2265 -25.4486 -4.57129e-20)
(10.1671 -25.3453 4.298e-20)
(9.96249 -25.2996 0)
(9.93129 -25.106 3.79848e-20)
(1.14417 -3.81576 2.19099e-19)
(6.22994 -14.4066 2.06832e-19)
(10.355 -23.3362 -6.5218e-19)
(11.7305 -26.3582 2.01831e-19)
(11.8744 -26.676 9.12532e-20)
(11.7964 -26.5416 7.49597e-19)
(11.6424 -26.2848 -1.06742e-18)
(11.517 -26.0884 7.79756e-19)
(11.4025 -25.9361 -6.33246e-19)
(11.2669 -25.7839 7.51419e-19)
(11.1622 -25.6808 1.23367e-19)
(11.0251 -25.5484 5.19206e-19)
(10.9105 -25.4573 -2.91329e-19)
(10.7983 -25.3912 -5.67199e-19)
(10.6747 -25.3085 5.00729e-19)
(10.551 -25.1978 0)
(10.4013 -25.1253 1.30472e-19)
(10.3287 -25.0366 3.6409e-20)
(10.1194 -24.9866 -7.50718e-20)
(10.0821 -24.78 3.16202e-20)
(1.90101 -4.95579 -6.07227e-20)
(7.4602 -15.8597 3.70848e-19)
(11.4059 -24.1752 6.58232e-22)
(12.46 -26.3467 -4.0309e-19)
(12.4531 -26.4122 -3.64799e-19)
(12.3287 -26.1943 -1.70559e-19)
(12.1636 -25.9859 -4.43296e-21)
(12.0119 -25.7862 -1.51184e-19)
(11.8333 -25.5615 0)
(11.6772 -25.4095 -1.31836e-19)
(11.5424 -25.3032 -1.23356e-19)
(11.3941 -25.1964 -6.86249e-21)
(11.2552 -25.1079 4.02887e-19)
(11.1088 -25.0129 -2.07404e-19)
(10.9655 -24.9334 -4.55179e-19)
(10.8235 -24.8386 3.54109e-19)
(10.6638 -24.7796 2.32152e-19)
(10.5626 -24.6781 -3.91934e-19)
(10.3314 -24.6152 7.547e-20)
(10.2788 -24.4084 4.55799e-19)
(2.45341 -5.60405 0)
(8.58374 -17.0167 9.98143e-19)
(12.4261 -24.6077 -1.26161e-18)
(13.1039 -26.1568 1.00911e-18)
(13.001 -26.1006 8.73915e-19)
(12.7797 -25.8322 -6.91953e-19)
(12.5616 -25.584 -9.09529e-19)
(12.3558 -25.3668 3.59065e-20)
(12.176 -25.2029 5.45027e-19)
(11.9868 -25.0533 -3.56585e-19)
(11.831 -24.9461 9.06227e-19)
(11.643 -24.8062 -5.41157e-19)
(11.4837 -24.7109 -1.01245e-19)
(11.3297 -24.6427 2.57723e-19)
(11.1705 -24.5568 -6.74371e-19)
(11.0012 -24.4514 3.22697e-19)
(10.8311 -24.3744 0)
(10.713 -24.2875 -5.32252e-19)
(10.4879 -24.234 5.24299e-19)
(10.4081 -24.0263 -4.1112e-19)
(3.04157 -6.67734 2.27646e-19)
(9.75973 -17.8459 2.20122e-19)
(13.3189 -24.676 1.08071e-18)
(13.777 -25.7249 9.24006e-19)
(13.5615 -25.5725 -5.54744e-19)
(13.3295 -25.3088 7.78592e-19)
(13.0902 -25.1122 -4.60314e-19)
(12.8666 -24.916 5.21432e-19)
(12.6221 -24.6942 -9.90773e-19)
(12.4043 -24.5453 3.52427e-19)
(12.2158 -24.4397 0)
(12.0156 -24.3333 0)
(11.8301 -24.2512 0)
(11.6412 -24.1594 -6.29783e-19)
(11.4563 -24.0823 6.20037e-19)
(11.2704 -23.9969 0)
(11.0909 -23.9347 0)
(10.9291 -23.8522 -5.3922e-20)
(10.689 -23.7896 0)
(10.6061 -23.5833 -4.49585e-19)
(3.679 -7.13257 -4.43082e-19)
(10.6996 -18.4707 -1.10082e-18)
(14.1629 -24.5311 -7.60499e-19)
(14.3618 -25.2296 -1.26103e-19)
(14.0699 -25.0368 9.96971e-19)
(13.7861 -24.7778 -2.0479e-19)
(13.4825 -24.5411 -4.37582e-20)
(13.1983 -24.3327 -6.36563e-19)
(12.9519 -24.1757 0)
(12.701 -24.0412 -2.99667e-19)
(12.4889 -23.9445 4.77511e-19)
(12.2458 -23.8125 0)
(12.0374 -23.7296 5.98988e-19)
(11.8402 -23.6733 -5.89588e-19)
(11.6375 -23.5998 4.97452e-19)
(11.4263 -23.5055 -8.90345e-19)
(11.2261 -23.4345 4.46749e-19)
(11.0529 -23.3752 5.39209e-20)
(10.8145 -23.3266 -3.90963e-20)
(10.7159 -23.1267 3.16576e-19)
(4.25414 -7.63659 -6.10387e-19)
(11.7758 -18.5785 4.20466e-20)
(14.8508 -24.0938 6.12048e-20)
(15.0085 -24.5023 1.37515e-18)
(14.5919 -24.3021 1.04265e-19)
(14.2932 -24.0687 -7.12219e-19)
(13.9755 -23.8945 -4.77448e-19)
(13.6729 -23.7231 1.58208e-19)
(13.3618 -23.5232 5.15494e-19)
(13.0795 -23.3921 -5.27187e-19)
(12.8374 -23.308 2.53645e-19)
(12.5851 -23.2181 -6.26201e-19)
(12.3489 -23.1497 4.91959e-19)
(12.1171 -23.075 -4.50395e-19)
(11.8922 -23.0201 3.97073e-19)
(11.6676 -22.9534 3.07695e-19)
(11.4548 -22.9017 -3.55356e-19)
(11.2477 -22.8432 2.56115e-19)
(11.0011 -22.8017 -2.42798e-19)
(10.8931 -22.609 -2.54846e-19)
(4.8766 -7.93174 -7.62568e-19)
(12.6405 -18.673 -1.3841e-19)
(15.5204 -23.5497 6.99112e-19)
(15.4825 -23.7715 -5.9736e-19)
(15.0422 -23.5708 5.86283e-19)
(14.6792 -23.3619 1.31256e-19)
(14.3059 -23.1557 0)
(13.9448 -22.9828 -8.90561e-20)
(13.6355 -22.8522 2.34484e-19)
(13.3231 -22.7452 -8.1923e-19)
(13.0561 -22.6739 5.70641e-19)
(12.7609 -22.5661 1.18192e-19)
(12.5047 -22.51 5.89964e-20)
(12.2671 -22.4776 0)
(12.0225 -22.4301 1.35576e-20)
(11.7731 -22.3574 2.59709e-19)
(11.5408 -22.306 -3.27958e-20)
(11.3244 -22.2809 2.15758e-20)
(11.0845 -22.2655 -1.8672e-19)
(10.9672 -22.0823 3.5079e-20)
(5.40782 -8.07238 6.93466e-19)
(13.4687 -18.3533 -1.18479e-18)
(16.1088 -22.7173 6.49398e-19)
(15.9912 -22.8393 5.25019e-19)
(15.4869 -22.6606 -5.62614e-20)
(15.0979 -22.4823 -3.54717e-19)
(14.7167 -22.3494 8.31167e-20)
(14.3409 -22.2218 8.90444e-20)
(13.9661 -22.059 0)
(13.6232 -21.959 0)
(13.3332 -21.9158 -3.87889e-19)
(13.0339 -21.8566 6.22963e-19)
(12.7466 -21.8098 -3.2399e-19)
(12.4759 -21.7653 0)
(12.2169 -21.7518 1.46959e-20)
(11.9595 -21.714 -1.62249e-19)
(11.7092 -21.6779 1.55702e-19)
(11.4593 -21.6522 -1.89062e-20)
(11.2184 -21.6591 -5.71397e-20)
(11.0912 -21.4886 4.55014e-20)
(5.97624 -8.15982 -6.08384e-19)
(14.2043 -18.088 7.60544e-19)
(16.6038 -21.8406 0)
(16.3122 -21.8933 0)
(15.8103 -21.7474 8.95067e-20)
(15.3611 -21.6123 -4.18664e-19)
(14.931 -21.4587 2.33478e-20)
(14.5056 -21.3446 2.68613e-19)
(14.1431 -21.261 -3.82649e-19)
(13.7742 -21.1891 6.90247e-19)
(13.4585 -21.1567 -3.08817e-19)
(13.1217 -21.0894 5.48723e-20)
(12.8238 -21.0708 1.61615e-19)
(12.5492 -21.0679 -3.4105e-20)
(12.2688 -21.0572 -8.30972e-20)
(11.9916 -21.0202 1.33435e-20)
(11.729 -21.0004 -9.63644e-21)
(11.4706 -21.0093 5.94691e-22)
(11.2394 -21.0373 1.40042e-20)
(11.1105 -20.893 -5.31973e-20)
(6.42111 -8.10455 0)
(14.8157 -17.4551 3.37546e-19)
(16.9468 -20.8294 -3.79876e-19)
(16.6651 -20.8159 0)
(16.1039 -20.7035 -8.94995e-20)
(15.6451 -20.604 2.36842e-19)
(15.2204 -20.5304 -2.95762e-19)
(14.7868 -20.4602 0)
(14.3589 -20.3488 2.281e-19)
(13.9667 -20.2905 -2.2431e-19)
(13.6388 -20.3016 6.93011e-21)
(13.3027 -20.2831 -1.88682e-20)
(12.9689 -20.2652 -1.27315e-20)
(12.6665 -20.2614 -7.24515e-21)
(12.3825 -20.302 6.06415e-20)
(12.1 -20.2999 -1.56465e-19)
(11.8116 -20.2894 2.1427e-19)
(11.5223 -20.298 -2.61591e-19)
(11.2836 -20.3467 1.29072e-19)
(11.1559 -20.2427 -1.58327e-20)
(6.89309 -8.0049 0)
(15.3879 -16.8905 -3.65497e-19)
(17.2228 -19.7545 2.02792e-19)
(16.8029 -19.7416 1.91233e-19)
(16.2716 -19.6617 -5.03722e-20)
(15.745 -19.614 -4.43474e-20)
(15.2804 -19.5241 -1.41131e-19)
(14.8127 -19.4824 0)
(14.4111 -19.4601 0)
(13.9935 -19.4229 0)
(13.6381 -19.4378 -6.92935e-21)
(13.277 -19.4263 0)
(12.9449 -19.4502 1.56175e-19)
(12.633 -19.4726 -1.30469e-19)
(12.3249 -19.5063 1.9938e-19)
(12.0344 -19.5222 -4.23441e-19)
(11.7412 -19.5513 2.23685e-19)
(11.4472 -19.5834 3.05136e-19)
(11.1828 -19.6372 -5.48476e-19)
(11.0651 -19.5302 2.97126e-19)
(7.27953 -7.78355 0)
(15.7816 -16.0742 0)
(17.3848 -18.5648 6.96213e-20)
(16.9476 -18.5736 5.49703e-20)
(16.3947 -18.5248 0)
(15.8824 -18.5209 4.70682e-20)
(15.4283 -18.5199 -4.62428e-20)
(14.9588 -18.5087 0)
(14.4921 -18.4613 -1.09362e-19)
(14.0656 -18.4485 1.07544e-19)
(13.7075 -18.513 0)
(13.3467 -18.5389 2.48467e-19)
(12.9764 -18.5559 1.64493e-20)
(12.6472 -18.59 -2.80136e-19)
(12.3384 -18.6697 0)
(12.0304 -18.6964 0)
(11.6974 -18.7332 0)
(11.3947 -18.7552 3.73453e-19)
(11.0712 -18.7739 -4.0864e-19)
(10.9088 -18.7217 0)
(8.35131 -26.7735 0)
(7.99219 -26.3835 0)
(7.24348 -26.4379 -2.46296e-21)
(6.77901 -26.466 -2.40207e-21)
(6.16463 -26.5207 0)
(5.68087 -26.5259 -2.63013e-23)
(5.1622 -26.5572 2.30444e-21)
(4.69424 -26.6216 0)
(4.23367 -26.7196 2.14598e-21)
(3.80635 -26.7392 0)
(3.38593 -26.7616 -2.08006e-21)
(3.02878 -26.7703 -1.03066e-21)
(2.64991 -26.7784 1.037e-21)
(2.35963 -26.7697 1.97286e-21)
(2.01102 -26.7677 0)
(1.79039 -26.7092 -4.76845e-22)
(1.47412 -26.5595 1.87266e-21)
(1.31182 -25.1469 0)
(0.807441 -20.5044 0)
(0.270834 -11.072 1.80893e-21)
(8.37018 -26.5386 1.22194e-20)
(8.03257 -26.2291 0)
(7.21311 -26.2431 1.1913e-20)
(6.8021 -26.2676 -7.10876e-21)
(6.18946 -26.3779 0)
(5.66036 -26.419 -1.09146e-20)
(5.10023 -26.4365 4.3676e-21)
(4.61634 -26.4858 0)
(4.16245 -26.5879 2.00036e-21)
(3.7406 -26.6135 -4.1671e-21)
(3.32851 -26.644 6.10501e-21)
(2.97793 -26.6602 -8.0107e-21)
(2.60897 -26.684 5.93942e-21)
(2.32862 -26.6873 -2.01503e-21)
(1.9926 -26.6921 -1.9302e-21)
(1.78026 -26.641 1.85107e-21)
(1.48859 -26.4946 -2.97719e-21)
(1.3108 -25.0434 -4.46678e-21)
(0.788913 -20.3214 -2.19907e-21)
(0.280394 -10.9057 -2.25653e-21)
(8.48442 -26.3285 -2.67719e-21)
(8.11802 -26.0304 -1.12565e-20)
(7.25355 -26.0703 -8.78343e-21)
(6.79982 -26.1419 0)
(6.1609 -26.1949 0)
(5.65962 -26.2089 1.25512e-20)
(5.15931 -26.2608 -1.82188e-22)
(4.69347 -26.3448 -1.32291e-22)
(4.24031 -26.462 -1.46747e-22)
(3.81516 -26.4961 -7.94087e-21)
(3.39964 -26.5378 0)
(3.04578 -26.5631 0)
(2.66903 -26.5886 0)
(2.38244 -26.5935 -7.31842e-21)
(2.0334 -26.6088 0)
(1.81976 -26.5645 -7.12658e-21)
(1.50223 -26.4301 5.61776e-21)
(1.32711 -24.9677 2.68968e-21)
(0.809653 -20.2317 4.42148e-21)
(0.289821 -10.7823 6.85954e-21)
(8.53335 -26.081 1.97518e-20)
(8.17135 -25.8547 -3.90165e-20)
(7.24298 -25.8662 1.89249e-22)
(6.81147 -25.9296 1.69649e-20)
(6.18388 -26.0408 0)
(5.64788 -26.1028 1.55619e-20)
(5.10687 -26.1441 -3.84521e-20)
(4.61933 -26.2103 2.30168e-20)
(4.17084 -26.3302 -1.5028e-20)
(3.75039 -26.3713 7.45339e-21)
(3.34251 -26.4214 -2.18867e-22)
(2.99455 -26.454 -7.2991e-21)
(2.62669 -26.4945 7.33901e-21)
(2.34916 -26.5115 3.74987e-21)
(2.0131 -26.5342 3.58617e-21)
(1.80633 -26.498 7.1223e-21)
(1.51382 -26.3664 -6.98844e-21)
(1.32365 -24.8701 3.42161e-21)
(0.792442 -20.0658 -1.70583e-21)
(0.298948 -10.6219 -6.84882e-21)
(8.64337 -25.8448 4.30988e-20)
(8.24782 -25.6358 9.30999e-21)
(7.27741 -25.6753 -1.64066e-20)
(6.83685 -25.8039 2.35452e-20)
(6.17631 -25.8619 0)
(5.65357 -25.8944 -7.18923e-21)
(5.16585 -25.969 7.50599e-21)
(4.69646 -26.0685 0)
(4.24883 -26.2052 3.99007e-22)
(3.82446 -26.2551 0)
(3.41254 -26.3161 -1.42065e-20)
(3.06091 -26.3574 0)
(2.6854 -26.4002 0)
(2.4015 -26.4189 -1.36221e-20)
(2.05157 -26.4519 6.89718e-21)
(1.84398 -26.4231 -6.64513e-21)
(1.52451 -26.3033 0)
(1.33798 -24.8002 1.65268e-21)
(0.810027 -19.9833 -1.65489e-21)
(0.308866 -10.4992 0)
(8.72861 -25.5703 1.69031e-20)
(8.30805 -25.436 -1.64517e-20)
(7.29751 -25.4639 3.62034e-20)
(6.8387 -25.5844 -3.7418e-20)
(6.19278 -25.696 1.33964e-20)
(5.64269 -25.7864 7.21152e-21)
(5.11844 -25.8543 -1.32583e-20)
(4.62546 -25.9345 -1.32403e-20)
(4.18068 -26.0736 7.01333e-21)
(3.76053 -26.1311 1.35058e-20)
(3.35557 -26.2008 -6.62203e-21)
(3.00926 -26.2496 0)
(2.6419 -26.3067 0)
(2.36614 -26.3373 4.01181e-22)
(2.02966 -26.3781 -6.63126e-21)
(1.82735 -26.358 6.63864e-21)
(1.53324 -26.2411 0)
(1.33225 -24.7095 -1.264e-20)
(0.794007 -19.8365 -1.18673e-20)
(0.317023 -10.3452 -8.00716e-22)
(8.82908 -25.3122 -4.86976e-20)
(8.36978 -25.1979 4.95587e-20)
(7.33395 -25.2586 -1.43982e-20)
(6.87704 -25.4503 0)
(6.20033 -25.52 -1.34531e-20)
(5.65533 -25.5802 2.58596e-20)
(5.17791 -25.6801 -1.26477e-20)
(4.70281 -25.7923 1.32775e-20)
(4.25836 -25.9489 0)
(3.83416 -26.0161 0)
(3.42458 -26.0962 1.27883e-20)
(3.07423 -26.1532 -1.28327e-20)
(2.69905 -26.2131 0)
(2.41668 -26.2456 1.92937e-20)
(2.0657 -26.2969 -6.35974e-21)
(1.8627 -26.2845 -6.26203e-21)
(1.54097 -26.1796 5.03183e-21)
(1.34482 -24.6464 1.57252e-20)
(0.808036 -19.7615 7.96949e-21)
(0.326285 -10.2241 1.55225e-21)
(8.94377 -25.0199 0)
(8.43379 -24.9752 -2.74855e-20)
(7.37708 -25.0398 2.75655e-20)
(6.87824 -25.2259 0)
(6.21668 -25.3444 0)
(5.64777 -25.4698 -2.40739e-20)
(5.13431 -25.5664 2.41456e-20)
(4.63477 -25.6583 0)
(4.19145 -25.8177 1.21001e-20)
(3.77105 -25.8929 -2.42748e-20)
(3.36771 -25.982 1.21743e-20)
(3.02225 -26.0466 1.21653e-20)
(2.6547 -26.1203 -1.22051e-20)
(2.3795 -26.1643 0)
(2.04245 -26.2238 0)
(1.843 -26.2206 -6.04596e-21)
(1.54683 -26.1192 7.2709e-21)
(1.33717 -24.5635 -4.17917e-24)
(0.792553 -19.6342 -4.51504e-21)
(0.332669 -10.0771 1.5059e-21)
(9.05321 -24.7168 2.78616e-20)
(8.48498 -24.7186 -2.79743e-20)
(7.42519 -24.8206 -3.42142e-20)
(6.91818 -25.08 4.6098e-20)
(6.23273 -25.1683 -4.50327e-20)
(5.66483 -25.2641 -1.02101e-22)
(5.19259 -25.3923 2.24284e-20)
(4.71145 -25.516 0)
(4.2684 -25.6932 0)
(3.84419 -25.7789 1.10465e-20)
(3.43564 -25.8779 0)
(3.0856 -25.9506 0)
(2.71001 -26.0271 0)
(2.42793 -26.0736 0)
(2.07618 -26.1432 0)
(1.87549 -26.1484 0)
(1.55159 -26.0598 -4.66349e-21)
(1.34819 -24.5077 5.82558e-21)
(0.80242 -19.5668 -1.457e-21)
(0.340545 -9.95918 1.45746e-21)
(9.18953 -24.3819 -2.40992e-20)
(8.55696 -24.4764 -3.68996e-20)
(7.4777 -24.5916 -1.00573e-20)
(6.91961 -24.8483 -9.76179e-21)
(6.24918 -24.9884 1.00202e-20)
(5.65946 -25.1509 3.01556e-20)
(5.15192 -25.2792 9.90986e-21)
(4.64685 -25.3825 0)
(4.20298 -25.5621 -1.10874e-20)
(3.78221 -25.6566 2.06631e-20)
(3.37906 -25.7645 1.05579e-20)
(3.03356 -25.8449 1.05965e-20)
(2.66526 -25.935 0)
(2.38926 -25.9927 1.07797e-20)
(2.05202 -26.0706 1.09646e-20)
(1.85278 -26.0855 0)
(1.5546 -26.0013 0)
(1.33901 -24.4331 0)
(0.787029 -19.4588 0)
(0.345055 -9.82009 0)