/*--------------------------------*- C++ -*----------------------------------*\
  =========                 |
  \\      /  F ield         | OpenFOAM: The Open Source CFD Toolbox
   \\    /   O peration     | Website:  https://openfoam.org
    \\  /    A nd           | Version:  9
     \\/     M anipulation  |
\*---------------------------------------------------------------------------*/
FoamFile
{
    format      ascii;
    class       volScalarField;
    location    "1.6";
    object      nut;
}
// * * * * * * * * * * * * * * * * * * * * * * * * * * * * * * * * * * * * * //

dimensions      [0 2 -1 0 0 0 0];

internalField   nonuniform List<scalar> 
46400
(
0.0181032
0.00664965
0.00192141
0.00127941
0.00129722
0.00127861
0.00120189
0.00117021
0.00112001
0.00109686
0.00103253
0.00100697
0.000985236
0.000952267
0.000912545
0.000917734
0.00088692
0.000813555
0.00115216
0.000951499
0.0178229
0.00579084
0.00170107
0.00134643
0.00131059
0.00127843
0.00120333
0.00119097
0.00114938
0.00109703
0.00104487
0.00102099
0.000981272
0.000945879
0.000910634
0.000884852
0.000822587
0.000741852
0.000990589
0.000904817
0.0174617
0.00467405
0.00122269
0.00140522
0.00130875
0.0013232
0.00123341
0.00119984
0.00115915
0.00113832
0.00107017
0.00103845
0.00101278
0.000978087
0.000942582
0.000928317
0.000868803
0.000806098
0.00110036
0.000942157
0.0170456
0.00404955
0.0011952
0.00143556
0.00131637
0.00131072
0.00124117
0.0012159
0.00116871
0.00113302
0.00108681
0.00104691
0.00101138
0.000977106
0.000946552
0.000926822
0.000877332
0.000804238
0.00111145
0.00100743
0.0165319
0.0039953
0.0012756
0.00147992
0.00135249
0.00135655
0.00127245
0.00123429
0.00119271
0.00116852
0.00111568
0.00107929
0.00104652
0.00101395
0.000980536
0.000962713
0.000913866
0.000848738
0.00113359
0.00101034
0.0159229
0.00475871
0.00132838
0.00150411
0.00136683
0.00135513
0.00128954
0.00124707
0.0011961
0.00116181
0.00112455
0.00108767
0.00105355
0.00101223
0.00099483
0.000974101
0.000936047
0.000872186
0.00116467
0.00107257
0.0153825
0.00447858
0.00143291
0.00154856
0.00141425
0.00138935
0.00131777
0.00127035
0.00122083
0.00118093
0.00114113
0.00110382
0.00108734
0.00103786
0.000991793
0.000982053
0.000930461
0.000866047
0.00113515
0.00104631
0.0143163
0.00400424
0.00141035
0.0015395
0.00140665
0.00137327
0.00131857
0.00126946
0.0012271
0.00117405
0.00113841
0.00109816
0.00108019
0.00107465
0.00103359
0.00099579
0.000967549
0.000889389
0.00113549
0.00108937
0.0130439
0.00317821
0.00146844
0.00153951
0.00144827
0.00138418
0.00133416
0.00127817
0.00123794
0.00118832
0.00114163
0.0010887
0.00105615
0.0010312
0.00102915
0.00099139
0.000936301
0.000877325
0.00103635
0.000999352
0.0104531
0.00256282
0.0014842
0.0014701
0.00142281
0.00135986
0.0013138
0.0012703
0.00124429
0.00118519
0.00115478
0.00110711
0.0010692
0.00104671
0.00103796
0.00104811
0.00100999
0.000953966
0.0011079
0.00103035
0.00845152
0.00213715
0.00151174
0.00146351
0.00142909
0.00137231
0.00132236
0.0012484
0.00124457
0.00120607
0.00114027
0.00108854
0.00102615
0.000971127
0.000950722
0.000934702
0.000942739
0.000912199
0.00107297
0.00104627
0.00683839
0.00186706
0.00149856
0.00143385
0.00140588
0.00135413
0.00133494
0.00125415
0.00121717
0.00122897
0.00122791
0.00118018
0.0011498
0.0010668
0.00101301
0.000960587
0.000906778
0.000874469
0.000984634
0.000982436
0.00566468
0.0016892
0.00152365
0.00144145
0.0013999
0.0013436
0.00133351
0.00125137
0.00117212
0.00109909
0.00111049
0.00109865
0.00109797
0.00109006
0.00104618
0.00102378
0.000957788
0.000907162
0.00096951
0.000934554
0.00486859
0.00162781
0.00152506
0.00145827
0.0014141
0.00132762
0.00136727
0.00134668
0.00130601
0.00121847
0.00114108
0.001106
0.00106213
0.00104846
0.00102678
0.00100646
0.000981536
0.00093192
0.00100346
0.000943138
0.00429466
0.00158003
0.00152787
0.00145868
0.00143065
0.00126706
0.00121651
0.00122045
0.00122521
0.00122075
0.00118546
0.00114306
0.00111435
0.00106983
0.00105334
0.00102181
0.00100086
0.000957326
0.00103221
0.00097816
0.00428577
0.00162985
0.00152575
0.00148772
0.00157187
0.00147415
0.00133983
0.00124346
0.00119218
0.0011494
0.00113013
0.00109387
0.00107168
0.00104089
0.00101545
0.00099661
0.000964276
0.000927118
0.000987353
0.000939212
0.00365716
0.00159623
0.00142904
0.00128494
0.00133569
0.0013974
0.00139174
0.00133649
0.00128503
0.00123009
0.00118343
0.00114322
0.0011031
0.0010692
0.00103332
0.00100798
0.000971354
0.000919155
0.000975541
0.000914146
0.00374595
0.00178155
0.00172157
0.00149159
0.00133615
0.0012858
0.00126843
0.00124124
0.00121938
0.00118352
0.00115554
0.00111722
0.00109088
0.00105456
0.00102984
0.000998701
0.00097178
0.000911834
0.000958228
0.000901437
0.00265825
0.00134972
0.00153665
0.00155503
0.00151685
0.00141248
0.00137116
0.00129982
0.00126764
0.00121188
0.00118425
0.0011337
0.00110719
0.001062
0.00103727
0.00100282
0.000976324
0.000918899
0.000961608
0.000906676
0.000720208
0.000678422
0.00125311
0.00122462
0.001382
0.00127873
0.00131311
0.00123753
0.00124087
0.0011789
0.00117024
0.00112001
0.00110452
0.00106103
0.0010411
0.00100643
0.000980916
0.000919926
0.000965556
0.000896274
0.000514567
0.000307365
0.00425614
0.00892894
0.01073
0.00760287
0.00358373
0.00124958
0.000318029
9.00557e-05
0.000169376
0.000264968
0.00013643
0.000136677
0.000160302
0.000195474
0.000222082
0.000222062
0.000183368
0.000264144
5.20527e-23
0.00227149
0.00726083
0.0108347
0.00893673
0.00472195
0.00164243
0.000376897
0.000103948
0.000195431
0.000269526
0.000231715
0.000173324
0.000224297
0.000228984
0.000214651
0.00021062
0.000256085
0.000254473
0.000304614
0.00049266
0.00454335
0.0095524
0.0107286
0.00661141
0.00254242
0.000587669
0.00011098
0.000195057
0.000287153
0.000256896
0.000224758
0.000247016
0.000223625
0.000193869
0.000226697
0.000258651
0.000295812
0.000256942
0.00029489
0.00112082
0.00764658
0.0110286
0.00910627
0.00447319
0.001092
0.00012367
0.000161183
0.000279065
0.000295512
0.000273839
0.000278112
0.000222037
0.0002442
0.000253701
0.000299989
0.00029703
0.00028264
0.000271191
0.000342992
0.00285198
0.00899747
0.0113835
0.00736128
0.00227297
0.000213721
8.40331e-05
0.000267635
0.000349674
0.000348948
0.000286065
0.000265766
0.000282262
0.000296842
0.000270807
0.000306713
0.0002912
0.000320616
0.000326861
0.000364263
0.00294736
0.0105135
0.0108494
0.00546402
0.000900026
0.000164854
0.00028993
0.000375025
0.000405804
0.000323297
0.000308001
0.000344915
0.000306289
0.000304548
0.000314568
0.000374528
0.000339653
0.000361632
0.00036505
0.000399755
0.00560316
0.0114215
0.00958341
0.00318424
0.00024617
0.000239908
0.000405139
0.000438002
0.000401967
0.000407593
0.000384289
0.000350945
0.000345876
0.000373225
0.000366021
0.000390742
0.000332996
0.000406273
0.000418444
0.000423227
0.00767988
0.0119509
0.00850983
0.00136608
0.000259652
0.000421912
0.000501867
0.000507512
0.000518349
0.000432518
0.000397727
0.000430833
0.00040675
0.000395387
0.00039998
0.000446132
0.000395053
0.000472133
0.000449164
0.000444411
0.0100385
0.0120905
0.00733832
0.000639456
0.000227793
0.000587189
0.000633086
0.000561049
0.000526754
0.00050476
0.000499785
0.000463191
0.00043793
0.000460765
0.000463764
0.000469532
0.000401816
0.000504588
0.000476668
0.000462154
0.0126846
0.0119299
0.00522476
0.000407655
0.000528648
0.000676232
0.000663318
0.000633507
0.000645414
0.000560094
0.000512344
0.000531952
0.000511821
0.000496091
0.000495614
0.000519621
0.00047469
0.000564043
0.000502216
0.000490784
0.0143119
0.0118717
0.00347973
0.000362288
0.000677784
0.000794395
0.000763372
0.000709587
0.000653951
0.000616124
0.000616442
0.000579855
0.000541756
0.000556623
0.000561813
0.000551565
0.000490313
0.000582103
0.000526559
0.000522985
0.015765
0.0113717
0.00224187
0.000235402
0.000834497
0.000843876
0.000787062
0.000757265
0.000765144
0.000681981
0.000629675
0.000640154
0.000616495
0.000596839
0.000596266
0.000600712
0.000568194
0.000645071
0.00054208
0.000552091
0.0163672
0.0110298
0.00148473
0.000473496
0.000897626
0.000904962
0.000896645
0.000832668
0.00077413
0.000731265
0.000726323
0.000691191
0.000646206
0.000655213
0.000657828
0.000634224
0.000585178
0.000656526
0.000550403
0.000575819
0.0171798
0.0105962
0.00100363
0.000639396
0.00105108
0.000939384
0.00091594
0.000873308
0.000873136
0.000794707
0.00074046
0.000747187
0.000715958
0.000690593
0.000689696
0.000685129
0.000659422
0.000701525
0.000559141
0.000612872
0.0176567
0.0102047
0.00132501
0.000804609
0.00108922
0.000999294
0.00100784
0.00094557
0.000883385
0.000844439
0.000828127
0.000794229
0.000747335
0.00074972
0.000745322
0.000714058
0.000681305
0.000715846
0.000553031
0.000630633
0.0180354
0.00979835
0.0017329
0.000943125
0.00118808
0.0010512
0.00102314
0.000986483
0.000972452
0.000897121
0.000843157
0.000849312
0.000809271
0.000778102
0.000776381
0.000767599
0.000755321
0.000755475
0.000561824
0.000672148
0.0182952
0.00943869
0.002411
0.00106859
0.00119481
0.00110667
0.00109966
0.00104352
0.000982686
0.000950013
0.000918499
0.000887532
0.000845287
0.000839194
0.00082161
0.000790128
0.000786436
0.000775295
0.000549395
0.000697565
0.0184097
0.00918758
0.00231639
0.00110805
0.00128127
0.00113481
0.0011038
0.0010809
0.00105384
0.000984854
0.000932834
0.000938213
0.000893781
0.000861179
0.000854464
0.000844746
0.000849515
0.000820972
0.000567731
0.000743124
0.0184134
0.00861144
0.00195356
0.00115762
0.00127904
0.00120493
0.00116278
0.00112439
0.00106692
0.00104094
0.000993757
0.000967751
0.000937638
0.00092133
0.000888221
0.000871829
0.000888142
0.000875923
0.000588218
0.000731684
0.0183141
0.00780289
0.00215973
0.00121549
0.00131277
0.00121967
0.0011616
0.00115195
0.00111863
0.00105818
0.0010102
0.00101227
0.000974618
0.000948057
0.000938538
0.000953458
0.000947491
0.000945829
0.000751114
0.000811782
0.00249327
0.00194618
0.00188996
0.00165219
0.00160511
0.00147201
0.00149515
0.00135151
0.00126197
0.00119101
0.00111044
0.00104692
0.000948181
0.000890684
0.000798711
0.000791194
0.000998438
0.0042682
0.00999076
0.021918
0.00260002
0.00186137
0.00195135
0.0017086
0.00162912
0.00159164
0.00157368
0.00135819
0.00124174
0.00117478
0.00109029
0.00102017
0.000917273
0.000854553
0.000769355
0.000743962
0.000971501
0.00439366
0.00999604
0.0216614
0.00262152
0.00202457
0.00207024
0.00166349
0.00163054
0.00151597
0.00147669
0.00133425
0.00124972
0.00118555
0.0010998
0.00103747
0.00093572
0.000882236
0.000784024
0.00077596
0.000983053
0.00440356
0.0100494
0.0215428
0.00259381
0.00197297
0.0021277
0.00170976
0.00166204
0.00162629
0.00154562
0.00134865
0.00123507
0.0011706
0.00108032
0.00101283
0.000907087
0.000847645
0.00075522
0.000729335
0.000953878
0.00449691
0.0100524
0.0213039
0.00267597
0.00213521
0.00221617
0.00165886
0.00167891
0.00155539
0.00144535
0.00132693
0.00124362
0.00118193
0.00109079
0.00102996
0.000925645
0.000875915
0.000771664
0.000763424
0.000967365
0.00449612
0.0101052
0.0211845
0.00279901
0.0021177
0.00225876
0.00171533
0.00171977
0.00165148
0.00150912
0.00134947
0.00123255
0.00116741
0.00107214
0.00100707
0.000899227
0.000843082
0.000743513
0.00071763
0.000935619
0.00456655
0.0101075
0.0209648
0.00292547
0.00226709
0.00232271
0.00167724
0.00174548
0.00158161
0.00140723
0.00132787
0.0012406
0.0011783
0.00108303
0.00102421
0.000918326
0.000871862
0.000762452
0.000753306
0.000951016
0.00455305
0.0101587
0.0208469
0.00319138
0.00226628
0.00234128
0.00174678
0.00178119
0.00166549
0.00147347
0.00135704
0.00123196
0.0011646
0.00106527
0.00100298
0.000894015
0.000841137
0.000735262
0.00070867
0.000916649
0.00459984
0.0101607
0.0206474
0.0034363
0.00242983
0.00240052
0.00173062
0.00180678
0.00159624
0.00137175
0.00133272
0.00123904
0.0011745
0.00107628
0.00102
0.000913775
0.000870344
0.000757266
0.000745532
0.000933971
0.00457455
0.0102088
0.0205334
0.00377785
0.0024399
0.00242007
0.00180667
0.00182243
0.001672
0.00144383
0.00136626
0.00123284
0.0011616
0.00105982
0.00100046
0.000891744
0.000841994
0.000731751
0.000702594
0.000897364
0.00459787
0.0102102
0.0203546
0.00383677
0.00259289
0.00248141
0.00180693
0.00183828
0.00160446
0.00134771
0.00133782
0.00123769
0.00117043
0.00107052
0.00101709
0.000912119
0.000871327
0.000757384
0.000740311
0.000918131
0.00455474
0.0102588
0.0202453
0.00406306
0.00260949
0.0025098
0.00187727
0.00183254
0.00167334
0.00142362
0.00137223
0.0012336
0.00115861
0.00105549
0.000999277
0.000892296
0.000845734
0.000733726
0.000699713
0.000882189
0.00455136
0.0102614
0.0200876
0.00414529
0.00272499
0.00256777
0.00188633
0.00183703
0.00160813
0.00134035
0.00134224
0.00123589
0.00116648
0.00106549
0.0010151
0.000913056
0.000875019
0.00076262
0.000738427
0.000909891
0.00450495
0.0103056
0.0199879
0.00437471
0.00273932
0.00260162
0.00194404
0.00182144
0.00167327
0.00141486
0.00137177
0.00123227
0.00115585
0.00105177
0.000998951
0.000895348
0.00085246
0.000741178
0.000701182
0.00087976
0.00447059
0.0103067
0.0198524
0.00448235
0.00281157
0.00263601
0.00195281
0.00181491
0.00161074
0.00135001
0.00134319
0.00123203
0.00116243
0.0010606
0.00101341
0.000916176
0.000881441
0.000772802
0.000741032
0.000908534
0.0044108
0.0103478
0.0197704
0.0047042
0.00283404
0.00266027
0.00200093
0.00180445
0.00167415
0.00141728
0.00136151
0.00122559
0.00115157
0.00104715
0.0009978
0.000899803
0.000861458
0.000753607
0.000707549
0.000877055
0.00435132
0.0103462
0.0196462
0.00490324
0.00288647
0.00266329
0.00201076
0.00178994
0.00161712
0.00137554
0.00133881
0.001226
0.0011586
0.00105594
0.00101168
0.000921212
0.000890808
0.00078749
0.000748563
0.000901958
0.00429337
0.0103874
0.019546
0.00503536
0.00287732
0.0026565
0.00206114
0.00180031
0.00168883
0.00144105
0.00135437
0.00122213
0.00115263
0.00104701
0.00100088
0.000909423
0.000877308
0.000775015
0.000723506
0.000872911
0.00420604
0.0104088
0.0195514
0.0049706
0.00294952
0.0025918
0.00203191
0.00174781
0.00160452
0.00139283
0.00131108
0.00120003
0.00114223
0.00104336
0.00100229
0.000922133
0.000899187
0.000808904
0.000756562
0.000918088
0.00412066
0.0104017
0.0193507
0.00575072
0.00317582
0.00263727
0.00211659
0.00178016
0.00170885
0.00148523
0.00135428
0.00123187
0.00116326
0.00105544
0.00100693
0.000921444
0.000895921
0.000799047
0.000740127
0.000878619
0.00387014
0.0101394
0.018819
0.016746
0.0325568
0.0174709
0.0230805
0.0199459
0.0178549
0.0156032
0.0140691
0.0126604
0.0119177
0.0108808
0.0104006
0.00979006
0.0097728
0.00929401
0.00920179
0.0108196
0.0357203
0.097012
0.166995
0.0322005
0.023109
0.0200783
0.0182312
0.0165832
0.0144178
0.0134106
0.0119295
0.0106602
0.00985211
0.00934669
0.00914736
0.00860448
0.00790651
0.00752727
0.00639214
0.011435
0.0414762
0.0958426
0.154666
0.0157021
0.0149949
0.015627
0.0133498
0.0118727
0.0110562
0.0103425
0.00947428
0.00884668
0.00839493
0.00793387
0.00757081
0.00720876
0.00715299
0.00696703
0.00652913
0.0112841
0.0389632
0.0951336
0.151411
0.0131239
0.0116844
0.009897
0.00935203
0.00942117
0.00887238
0.00852595
0.00820777
0.0078925
0.00745593
0.0070974
0.00664769
0.00643648
0.00591712
0.00589566
0.00486083
0.00936315
0.0418777
0.0950744
0.140528
0.0066249
0.00722009
0.00843346
0.00834717
0.0074256
0.00701842
0.00652139
0.0061404
0.00584902
0.00583967
0.0057324
0.00564075
0.00552301
0.0053966
0.00520813
0.00431528
0.0103104
0.0399895
0.0948885
0.138489
0.00584426
0.00641295
0.00574025
0.00518394
0.0051799
0.00537754
0.00547427
0.0055773
0.00551346
0.00529457
0.00512893
0.00487905
0.004733
0.00451911
0.00442296
0.00341686
0.00651637
0.0395542
0.0956986
0.133148
0.00330752
0.00367176
0.00418549
0.00482533
0.00477623
0.00456236
0.00430567
0.00418929
0.00407297
0.00416776
0.00424514
0.00441175
0.00440237
0.00440988
0.00425399
0.00305967
0.00458394
0.0369163
0.0960925
0.13155
0.00293532
0.00327295
0.00344619
0.0031704
0.00278777
0.00304332
0.00348006
0.00381055
0.00396331
0.00393683
0.00385085
0.00387205
0.00383665
0.00394709
0.00403586
0.00319201
0.00476749
0.032531
0.0963607
0.131305
0.00161736
0.00207456
0.00225593
0.00264186
0.00302381
0.00310838
0.0029304
0.00291665
0.00297897
0.0034073
0.00357254
0.00381666
0.00391869
0.00422196
0.00421224
0.00328428
0.00205758
0.0273062
0.0966442
0.135052
0.00158537
0.00175805
0.00189711
0.00195525
0.00180708
0.00202577
0.00233387
0.00280827
0.00296379
0.00309978
0.00320358
0.0034924
0.00356013
0.00394601
0.00431348
0.00430024
0.00388616
0.0199131
0.0946392
0.142313
0.000890483
0.00118216
0.00132143
0.00155607
0.00184811
0.00214785
0.00219769
0.00228126
0.00237534
0.00272816
0.00292495
0.00334556
0.00354724
0.00397519
0.00409341
0.00458916
0.00357694
0.0134568
0.0898962
0.154139
0.000798478
0.000988346
0.00106027
0.00115469
0.00115587
0.00135554
0.00158966
0.00195363
0.00218892
0.00234668
0.00252435
0.00281402
0.00306488
0.00359664
0.00393373
0.0049675
0.00422743
0.00716497
0.0697722
0.168357
0.000562281
0.000723608
0.000878401
0.0010694
0.00118469
0.00139982
0.00146157
0.0015567
0.0016798
0.00198828
0.00227625
0.00256873
0.0027886
0.00303517
0.00348907
0.00387228
0.00494202
0.00644434
0.0516913
0.190212
0.000503494
0.00059622
0.000629485
0.000748998
0.000829633
0.000920491
0.00108023
0.00130287
0.00145031
0.00163516
0.00172884
0.00201885
0.00238837
0.00269726
0.00317907
0.00335571
0.00439072
0.00838059
0.0238321
0.147419
0.000461208
0.000561077
0.000622805
0.000701014
0.000777759
0.000903171
0.000918044
0.00103057
0.00115457
0.00137511
0.00137565
0.00164658
0.00169456
0.00207859
0.00220289
0.00287068
0.00291608
0.00523302
0.0125066
0.0979628
0.000360225
0.000416478
0.000435683
0.000510726
0.000542437
0.000666494
0.000780156
0.000865899
0.000895789
0.000995775
0.00119528
0.00130096
0.00144968
0.00165514
0.00179749
0.00206127
0.00234509
0.00290575
0.0033901
0.0528429
0.000332049
0.000373262
0.000402884
0.000454774
0.000494745
0.00054316
0.000531899
0.000619341
0.000637562
0.00073445
0.00071736
0.000859389
0.000874999
0.00103361
0.000991442
0.00111149
0.00116418
0.00200525
0.00272694
0.0296331
0.000242176
0.000274666
0.000312838
0.000353996
0.000406595
0.0004224
0.000492523
0.00053591
0.000595281
0.000635015
0.000683077
0.000752918
0.000750037
0.000841351
0.000792397
0.000993386
0.00091206
0.000732025
0.000620935
0.01695
0.000184717
0.000201637
0.000207222
0.000235611
0.000207021
0.000261606
0.000295025
0.000352635
0.000358307
0.000426133
0.000432447
0.000508465
0.000494904
0.00064942
0.000596534
0.000503135
0.000523759
0.000783865
0.000833337
0.00584339
9.90078e-05
0.000133366
0.000150093
0.000188147
0.000251829
0.000283946
0.000312615
0.000355595
0.000385823
0.000430366
0.000462535
0.000493306
0.000539892
0.000576312
0.000594252
0.000631917
0.000687482
0.000456088
0.000478836
0.00435854
0.0138988
0.013868
0.0138489
0.0138761
0.013791
0.0137033
0.0135084
0.0137673
0.013265
0.0132183
0.0122889
0.012304
0.0122037
0.0109754
0.0112264
0.00993279
0.00978002
0.00923217
0.00928869
0.00800417
0.00699317
0.00698916
0.00694668
0.00693171
0.00680518
0.00676852
0.00673772
0.00659534
0.00665583
0.00654435
0.00654089
0.0076389
0.00696488
0.00677806
0.00622302
0.00679584
0.00670515
0.00687754
0.00671239
0.00750728
0.00433
0.00434506
0.00435612
0.00439367
0.00443671
0.0045331
0.00447802
0.00461243
0.00447944
0.00451387
0.00461143
0.00424387
0.00404126
0.00410074
0.00408346
0.00428939
0.00381688
0.00395915
0.00346234
0.003756
0.00277387
0.00276242
0.0027644
0.00275183
0.00273983
0.00270357
0.00266759
0.00259924
0.00260497
0.00260474
0.00241066
0.00267013
0.00267946
0.00279465
0.00273442
0.00283168
0.00270157
0.00301206
0.00278692
0.00304241
0.0017433
0.00174063
0.0017476
0.00174428
0.00174725
0.00174694
0.00174311
0.00181803
0.00180068
0.00178209
0.00197603
0.00192804
0.00185699
0.00188945
0.00184719
0.00195536
0.00182774
0.00190584
0.00178361
0.00176438
0.00125203
0.00125115
0.00125766
0.00125212
0.00125352
0.0012486
0.00125185
0.00125502
0.00121776
0.00126356
0.00122948
0.0012232
0.00122143
0.00127551
0.00129757
0.00136357
0.00129708
0.0014151
0.00133201
0.00129091
0.000769372
0.000771702
0.00077415
0.000772491
0.000770593
0.00077459
0.000776073
0.000784042
0.000784684
0.000796897
0.000806081
0.000815376
0.00082274
0.000861631
0.000879552
0.000925024
0.000879741
0.000939379
0.000882392
0.000761639
0.00056133
0.000565068
0.000566788
0.00056677
0.000568188
0.000574696
0.000579679
0.000587803
0.000587205
0.000595328
0.000589495
0.000592823
0.000602473
0.000646079
0.000655156
0.000676321
0.000645199
0.000689183
0.000621947
0.000531927
0.000313829
0.000316456
0.000317014
0.000316436
0.000320318
0.000323654
0.000329168
0.00033173
0.00033272
0.000338413
0.000343297
0.000355445
0.000376898
0.000434503
0.000438823
0.000467172
0.000440949
0.000504215
0.000404637
0.00028504
0.000208942
0.000211527
0.000212642
0.000215722
0.000221782
0.000222523
0.000227543
0.000228303
0.000229772
0.000230853
0.000231343
0.000238564
0.000250343
0.000285801
0.000269485
0.000256511
0.000228236
0.000220738
0.00023382
0.000323774
7.66307e-05
8.04625e-05
8.32753e-05
9.52918e-05
0.000100758
0.000103289
0.000111038
0.000118892
0.000123106
0.000130951
0.000133614
0.000155811
0.000171523
0.000235586
0.000201007
0.000192028
0.000157541
0.000183077
0.000148177
7.56516e-05
7.62509e-06
1.36144e-05
2.69419e-05
5.09811e-05
4.98334e-05
5.05771e-05
6.4032e-05
7.27362e-05
8.10756e-05
8.4702e-05
8.94307e-05
9.73667e-05
0.000107924
0.000105939
0.000120744
0.000130652
0.000118433
0.000171939
0.00019745
0.000199099
1.2111e-05
2.21917e-05
3.98972e-05
5.3715e-05
6.5258e-05
4.18924e-05
3.97583e-05
5.12269e-05
5.43262e-05
6.28344e-05
6.63369e-05
6.73451e-05
6.61436e-05
7.37492e-05
7.89863e-05
8.47806e-05
0.000100386
9.79963e-05
0.000108303
0.000118896
5.05053e-05
4.94181e-05
4.80634e-05
5.20024e-05
5.24381e-05
5.11942e-05
5.01602e-05
4.38096e-05
5.49497e-05
5.2229e-05
6.37746e-05
6.23615e-05
7.38108e-05
8.28549e-05
8.12394e-05
8.01429e-05
9.55791e-05
8.94543e-05
9.66454e-05
0.00010708
6.21498e-05
6.17881e-05
6.35694e-05
6.51822e-05
6.20777e-05
5.72853e-05
6.18624e-05
6.07605e-05
6.24964e-05
6.37193e-05
6.55851e-05
6.86161e-05
6.94425e-05
6.95791e-05
8.07002e-05
8.17313e-05
8.68095e-05
9.23503e-05
9.84002e-05
0.000105
5.92358e-05
6.19811e-05
5.69903e-05
5.84402e-05
6.42858e-05
6.41535e-05
6.46159e-05
6.4673e-05
6.58331e-05
6.73415e-05
6.9397e-05
7.11692e-05
7.85724e-05
7.44472e-05
7.32498e-05
7.56033e-05
7.71796e-05
7.70618e-05
8.02444e-05
8.68987e-05
5.72626e-05
6.12224e-05
6.19919e-05
5.93157e-05
6.07707e-05
6.17417e-05
6.27943e-05
6.30509e-05
6.14468e-05
6.21828e-05
6.35503e-05
6.42485e-05
6.44827e-05
6.46931e-05
6.78279e-05
5.99811e-05
7.11931e-05
5.55401e-05
7.07934e-05
7.80359e-05
3.74818e-05
3.95431e-05
4.77792e-05
4.45125e-05
4.26577e-05
4.22909e-05
4.43592e-05
4.52081e-05
4.82433e-05
4.73432e-05
4.97024e-05
4.76019e-05
4.65121e-05
4.67688e-05
4.90402e-05
4.92576e-05
5.09798e-05
5.21972e-05
5.30398e-05
5.60857e-05
2.61649e-05
2.63052e-05
2.313e-05
2.16006e-05
2.17947e-05
2.2743e-05
2.2936e-05
2.51578e-05
2.63966e-05
2.75941e-05
3.09898e-05
3.15395e-05
3.68941e-05
3.54656e-05
3.84829e-05
3.80419e-05
3.9241e-05
4.09225e-05
3.95025e-05
4.34529e-05
7.23579e-06
6.51253e-06
7.56358e-06
9.34143e-06
1.05267e-05
1.13529e-05
1.30846e-05
1.32361e-05
1.40591e-05
1.46571e-05
1.58725e-05
1.62196e-05
1.86379e-05
1.82688e-05
2.04049e-05
2.03711e-05
2.12875e-05
2.24206e-05
2.15972e-05
2.70912e-05
0.00095108
0.00114936
0.00081443
0.000886137
0.000917242
0.000912293
0.000948962
0.000981799
0.00100537
0.00103108
0.0010932
0.00111321
0.00116293
0.00119821
0.00127877
0.00130343
0.00128719
0.0019235
0.00667426
0.0180992
0.00090416
0.000983931
0.000741315
0.000820328
0.000883491
0.000910256
0.000944484
0.000980719
0.00101898
0.00104404
0.0010931
0.00114459
0.00118883
0.00120079
0.00127331
0.00130247
0.00134378
0.00164449
0.00574243
0.01781
0.000937732
0.00109282
0.00080549
0.000865575
0.000926444
0.000940274
0.000974081
0.00100992
0.0010365
0.0010691
0.00113415
0.00115498
0.00119561
0.00123137
0.00132436
0.00131738
0.00141236
0.00122775
0.00470161
0.0174532
0.00100352
0.00110258
0.000803529
0.000874289
0.000923801
0.000945467
0.000976384
0.00101264
0.00104721
0.00108635
0.00112918
0.00116526
0.00121414
0.0012395
0.00130615
0.00130962
0.00143257
0.00119203
0.00401422
0.0170364
0.00100365
0.00112245
0.000848023
0.000908324
0.000959898
0.000980808
0.0010123
0.00104645
0.00107679
0.0011141
0.00116492
0.00119131
0.00123259
0.00127153
0.00135819
0.00136
0.00148275
0.0012769
0.00398453
0.0165192
0.00106387
0.00115568
0.000872892
0.000933827
0.000977432
0.000996904
0.00101382
0.00105428
0.00108669
0.00112517
0.00115905
0.00119552
0.00124522
0.00128863
0.0013514
0.00136052
0.00149952
0.00132685
0.00474618
0.015905
0.00103668
0.00112844
0.000872026
0.00093346
0.000983245
0.00099296
0.00103653
0.00108624
0.00110413
0.00114209
0.00118001
0.00122172
0.00126959
0.00131853
0.00138979
0.00141898
0.00155008
0.00142993
0.00444846
0.0153577
0.0011062
0.00115228
0.000899081
0.000976155
0.00100096
0.00103729
0.00107634
0.0010851
0.00110141
0.00114116
0.00117391
0.00122913
0.00126963
0.00131957
0.00137023
0.00140451
0.00153501
0.00141086
0.00400582
0.0142975
0.0010037
0.00103338
0.000875997
0.000932856
0.000988376
0.00102736
0.00103218
0.00105944
0.00109134
0.00114412
0.00119067
0.00124057
0.00127838
0.00133485
0.00138388
0.0014521
0.00153838
0.00147311
0.00319982
0.0130382
0.00104286
0.00111203
0.000958108
0.00101635
0.00105484
0.00104754
0.00105672
0.0010789
0.00111282
0.00116118
0.00118898
0.0012475
0.00127146
0.00131464
0.00135741
0.00142281
0.00146989
0.00148944
0.00257435
0.0105118
0.00105118
0.00106306
0.000913073
0.000943402
0.000937975
0.000955162
0.00097542
0.00102958
0.0010925
0.00114519
0.00120779
0.00124579
0.00124689
0.00132215
0.00137357
0.00143557
0.00146653
0.00151625
0.0021548
0.00855486
0.000979048
0.000971231
0.000879296
0.000909901
0.000966679
0.00101996
0.00107481
0.00115761
0.00118787
0.00123234
0.00123024
0.00121816
0.00125454
0.00133875
0.00135538
0.00141036
0.00143314
0.0014985
0.0018705
0.00692285
0.000955268
0.000984401
0.000927788
0.000975357
0.00104032
0.00105892
0.00110161
0.00110433
0.00110202
0.00110902
0.00109604
0.00117038
0.00125125
0.00133374
0.00134303
0.00140246
0.00143515
0.00152611
0.00169462
0.00577233
0.000963611
0.0010033
0.000939936
0.000983047
0.00100655
0.00102203
0.00104391
0.00105276
0.00109828
0.00113167
0.00121555
0.00130599
0.00134815
0.00136788
0.00132623
0.00141486
0.00144854
0.00152745
0.00162637
0.00496324
0.000988293
0.0010219
0.000961156
0.000997681
0.00102202
0.00104992
0.00107205
0.00111294
0.00114921
0.00118924
0.00123225
0.00122879
0.00122537
0.00121787
0.00126553
0.00142919
0.0014482
0.00153217
0.00157003
0.00441505
0.000952918
0.000983968
0.000935594
0.000965625
0.00100156
0.00101446
0.00104604
0.00106934
0.00109917
0.00112675
0.00115238
0.00118419
0.0012446
0.00133329
0.00147728
0.00157312
0.00149134
0.00154047
0.00161302
0.00436391
0.000926351
0.000970752
0.000926562
0.000971548
0.00101183
0.00103179
0.00107459
0.00110069
0.00115114
0.00118051
0.00124086
0.00128436
0.00135672
0.00139734
0.00142581
0.00134799
0.00130317
0.00144642
0.00156704
0.00359304
0.00091578
0.000956061
0.000922064
0.000974753
0.00100624
0.00103208
0.00106349
0.00109293
0.00112854
0.00115765
0.00120042
0.001224
0.00126642
0.00127098
0.00131544
0.00133004
0.001516
0.00171586
0.00174863
0.00343298
0.000918728
0.000964677
0.000929376
0.000979714
0.00100772
0.001038
0.00106643
0.00110624
0.00113908
0.00118296
0.00122125
0.00126651
0.00131654
0.0013715
0.00145157
0.0015266
0.0016695
0.00155188
0.00152343
0.00224515
0.000914976
0.000963373
0.000929865
0.000983472
0.00101337
0.00104236
0.00107073
0.0011053
0.00113352
0.00117
0.00119683
0.00123949
0.00126391
0.00131415
0.00133511
0.0013927
0.00140415
0.00142422
0.00169256
0.00219891
0.000267746
0.000189342
0.000229779
0.000229209
0.000197537
0.000156693
0.000139885
0.000136416
0.00024924
0.00015816
8.65323e-05
0.000334161
0.00125702
0.00358495
0.00760395
0.0107284
0.00891893
0.00420422
0.000301118
0.000419959
0.000308828
0.000257898
0.000259785
0.000219642
0.000225929
0.000230633
0.000220871
0.000177294
0.000226975
0.00025213
0.000185649
0.000103544
0.000393713
0.00166112
0.00470919
0.00894876
0.0108645
0.00721964
0.00222223
6.42981e-23
0.000297519
0.00026295
0.000299971
0.000261497
0.000229328
0.000201455
0.000224274
0.000239124
0.000225141
0.000247365
0.00027103
0.000187095
0.000111059
0.000602555
0.00253481
0.00660295
0.0107141
0.00957235
0.0045206
0.0004237
0.000346057
0.000276331
0.000287477
0.000305758
0.000308069
0.000258391
0.000249808
0.000226233
0.000275655
0.000272154
0.000287741
0.000265925
0.000154546
0.000127354
0.00109974
0.00448131
0.0090954
0.0109879
0.00758531
0.00091018
0.000366863
0.000330936
0.000320704
0.000292353
0.000310193
0.000279227
0.0002977
0.000278299
0.000267394
0.000281659
0.000345421
0.000333935
0.000255897
0.000104333
0.000222353
0.00224587
0.0073678
0.0113853
0.00901484
0.00290487
0.000403539
0.000375253
0.000368477
0.000346391
0.000379675
0.000321102
0.000315606
0.000310809
0.000343518
0.000309989
0.000316866
0.000398079
0.000375233
0.000288982
0.000168425
0.000901748
0.00546382
0.0108317
0.0104871
0.00293122
0.000426643
0.00042374
0.00040857
0.000335638
0.00039512
0.000372611
0.000375889
0.00034762
0.000354816
0.000382807
0.000404016
0.000388322
0.000423902
0.000400112
0.000241616
0.00024347
0.00315633
0.00959565
0.0114163
0.0056076
0.000447713
0.000460329
0.000480027
0.000400194
0.000448722
0.000406137
0.000406962
0.000410096
0.000429393
0.000401097
0.00043049
0.000512715
0.000503912
0.000495364
0.000417124
0.000260723
0.00137922
0.00850277
0.0119338
0.00766278
0.000464971
0.000482047
0.000510124
0.000407226
0.000475068
0.000468978
0.000464971
0.00044408
0.000467846
0.000497867
0.000502421
0.00051576
0.000548348
0.000628547
0.000586158
0.000250177
0.0006353
0.007339
0.0120836
0.0100327
0.00049303
0.000511369
0.000569588
0.000477772
0.00051971
0.00050022
0.000506467
0.000514043
0.000531433
0.00051721
0.000559609
0.00063954
0.000626928
0.00065489
0.000670352
0.000523531
0.000405651
0.00522005
0.0119194
0.0126658
0.000526878
0.000533466
0.000589135
0.000497568
0.00055882
0.000567015
0.000561839
0.000550173
0.000584683
0.000614416
0.000615799