/*--------------------------------*- C++ -*----------------------------------*\
  =========                 |
  \\      /  F ield         | OpenFOAM: The Open Source CFD Toolbox
   \\    /   O peration     | Website:  https://openfoam.org
    \\  /    A nd           | Version:  9
     \\/     M anipulation  |
\*---------------------------------------------------------------------------*/
FoamFile
{
    format      ascii;
    class       surfaceScalarField;
    location    "1.6";
    object      phi;
}
// * * * * * * * * * * * * * * * * * * * * * * * * * * * * * * * * * * * * * //

dimensions      [0 3 -1 0 0 0 0];

internalField   nonuniform List<scalar> 
92080
(
0.00117178
-0.431532
0.43036
-0.0162411
-0.880492
0.897905
-0.0510485
-0.969391
1.0042
-0.0872497
-0.954584
0.990785
-0.122711
-0.939168
0.974629
-0.157818
-0.924502
0.95961
-0.19233
-0.911377
0.94589
-0.226764
-0.898421
0.932856
-0.260774
-0.886795
0.920804
-0.294369
-0.874493
0.908088
-0.328005
-0.865667
0.899303
-0.36134
-0.856511
0.889847
-0.39397
-0.848058
0.880688
-0.426687
-0.839648
0.872365
-0.459681
-0.832645
0.865638
-0.491914
-0.825839
0.858072
-0.523298
-0.818809
0.850193
-0.554315
-0.811394
0.842411
-0.584419
-0.80373
0.833834
-0.798592
0.826431
-0.612258
-0.000997474
-0.430534
-0.0216303
-0.859859
-0.0586561
-0.932365
-0.0964787
-0.916761
-0.133518
-0.902129
-0.170343
-0.887678
-0.206813
-0.874907
-0.242635
-0.862599
-0.277914
-0.851516
-0.313616
-0.838791
-0.349098
-0.830185
-0.383891
-0.821718
-0.418747
-0.813201
-0.453084
-0.805312
-0.486735
-0.798994
-0.519802
-0.792772
-0.552126
-0.786485
-0.583081
-0.780439
-0.612592
-0.774218
-0.769413
-0.641772
-0.00352104
-0.427013
-0.0283444
-0.835035
-0.0683537
-0.892356
-0.108789
-0.876325
-0.148438
-0.86248
-0.187382
-0.848734
-0.225727
-0.836562
-0.264027
-0.824299
-0.301424
-0.814119
-0.338215
-0.802
-0.375561
-0.79284
-0.412314
-0.784966
-0.448063
-0.777451
-0.48437
-0.769005
-0.521048
-0.762316
-0.556788
-0.757033
-0.591852
-0.75142
-0.626285
-0.746006
-0.659843
-0.740661
-0.735992
-0.693264
-0.00531982
-0.421694
-0.034478
-0.805877
-0.0754454
-0.851389
-0.116465
-0.835305
-0.157084
-0.821861
-0.197585
-0.808233
-0.237521
-0.796627
-0.27677
-0.78505
-0.315552
-0.775337
-0.354301
-0.763251
-0.39297
-0.75417
-0.431597
-0.746338
-0.469587
-0.739462
-0.50619
-0.732402
-0.543311
-0.725194
-0.580904
-0.719439
-0.617961
-0.714363
-0.654412
-0.709555
-0.690265
-0.704808
-0.700111
-0.726146
-0.0051167
-0.416577
-0.0400658
-0.770928
-0.0835668
-0.807888
-0.127287
-0.791586
-0.170373
-0.778775
-0.212757
-0.765848
-0.254793
-0.754592
-0.296791
-0.743052
-0.337412
-0.734715
-0.377089
-0.723574
-0.417611
-0.713648
-0.457921
-0.706028
-0.497901
-0.699482
-0.537691
-0.692612
-0.576624
-0.686262
-0.615393
-0.680671
-0.654421
-0.675335
-0.693098
-0.670878
-0.730981
-0.666925
-0.662589
-0.768503
-0.00100213
-0.415575
-0.0393293
-0.732601
-0.0850632
-0.762154
-0.130312
-0.746336
-0.175145
-0.733943
-0.219607
-0.721386
-0.263031
-0.711168
-0.306006
-0.700076
-0.348763
-0.691959
-0.390259
-0.682077
-0.4313
-0.672608
-0.47314
-0.664188
-0.514378
-0.658244
-0.554424
-0.652567
-0.595201
-0.645484
-0.635728
-0.640144
-0.675986
-0.635077
-0.716825
-0.630038
-0.757151
-0.626599
-0.622547
-0.797193
-0.000160529
-0.415414
-0.0413303
-0.691431
-0.091175
-0.712309
-0.13983
-0.697681
-0.187157
-0.686616
-0.233544
-0.674999
-0.27943
-0.665282
-0.32479
-0.654716
-0.368856
-0.647894
-0.411801
-0.639132
-0.454452
-0.629957
-0.49698
-0.621659
-0.540756
-0.614468
-0.583137
-0.610186
-0.623611
-0.60501
-0.664889
-0.598866
-0.705496
-0.59447
-0.746158
-0.589377
-0.787446
-0.585311
-0.582345
-0.827647
0.000967772
-0.416382
-0.0420575
-0.648406
-0.0934061
-0.660961
-0.143014
-0.648073
-0.191803
-0.637827
-0.239584
-0.627218
-0.28596
-0.618906
-0.332263
-0.608414
-0.378625
-0.601531
-0.422877
-0.594881
-0.465975
-0.586859
-0.508801
-0.578832
-0.552174
-0.571096
-0.597251
-0.565109
-0.641016
-0.561244
-0.683333
-0.55655
-0.726092
-0.55171
-0.767782
-0.547687
-0.810119
-0.542974
-0.539403
-0.853062
-0.00106759
-0.415314
-0.0486721
-0.600801
-0.102872
-0.606761
-0.154684
-0.596261
-0.205119
-0.587392
-0.254659
-0.577678
-0.303127
-0.570437
-0.350416
-0.561125
-0.397503
-0.554444
-0.443962
-0.548421
-0.488868
-0.541953
-0.532226
-0.535475
-0.575113
-0.528208
-0.618358
-0.521865
-0.662831
-0.516771
-0.706226
-0.513156
-0.748587
-0.509349
-0.790613
-0.505661
-0.831197
-0.50239
-0.498505
-0.872095
-0.00736361
-0.407951
-0.0560031
-0.552162
-0.10976
-0.553004
-0.16162
-0.544401
-0.212325
-0.536687
-0.26216
-0.527843
-0.310579
-0.522018
-0.358718
-0.512986
-0.407078
-0.506084
-0.453915
-0.501584
-0.50029
-0.495578
-0.545609
-0.490156
-0.589776
-0.484041
-0.634198
-0.477443
-0.678975
-0.471993
-0.72509
-0.46704
-0.770808
-0.463631
-0.816097
-0.460372
-0.860775
-0.457713
-0.455351
-0.903929
-0.0176771
-0.390274
-0.0684368
-0.501402
-0.122278
-0.499162
-0.174908
-0.491772
-0.226381
-0.485215
-0.277622
-0.476602
-0.327588
-0.472051
-0.375189
-0.465386
-0.424141
-0.457132
-0.473142
-0.452583
-0.51986
-0.44886
-0.565607
-0.444409
-0.609265
-0.440383
-0.651559
-0.435149
-0.693858
-0.429694
-0.736101
-0.424798
-0.780043
-0.419688
-0.824247
-0.416168
-0.869534
-0.412426
-0.409986
-0.914899
-0.0247
-0.365574
-0.0759703
-0.450132
-0.12968
-0.445453
-0.18224
-0.439211
-0.233595
-0.43386
-0.284678
-0.42552
-0.335864
-0.420865
-0.384799
-0.416451
-0.432465
-0.409466
-0.482426
-0.402622
-0.53317
-0.398116
-0.582914
-0.394664
-0.632164
-0.391134
-0.678799
-0.388514
-0.723927
-0.384566
-0.767561
-0.381164
-0.810046
-0.377203
-0.852973
-0.373241
-0.895356
-0.370043
-0.366293
-0.939049
-0.0326137
-0.33296
-0.0856664
-0.397079
-0.139977
-0.391142
-0.19366
-0.385527
-0.245465
-0.382056
-0.296843
-0.374141
-0.348677
-0.369031
-0.398671
-0.366456
-0.445893
-0.362244
-0.491205
-0.35731
-0.537958
-0.351363
-0.585328
-0.347294
-0.633291
-0.343171
-0.681866
-0.33994
-0.729216
-0.337216
-0.776373
-0.334006
-0.821847
-0.33173
-0.866638
-0.32845
-0.910513
-0.326168
-0.323183
-0.953624
-0.0377387
-0.295221
-0.0918362
-0.342982
-0.146666
-0.336312
-0.201394
-0.3308
-0.25431
-0.329139
-0.305195
-0.323257
-0.358464
-0.315761
-0.412393
-0.312527
-0.465281
-0.309356
-0.515832
-0.306759
-0.563853
-0.303342
-0.611648
-0.299499
-0.658359
-0.29646
-0.705465
-0.292833
-0.752379
-0.290301
-0.79909
-0.287296
-0.845848
-0.284971
-0.891765
-0.282533
-0.937691
-0.280242
-0.278167
-0.982707
-0.0417525
-0.253469
-0.0973506
-0.287384
-0.152053
-0.28161
-0.207433
-0.27542
-0.261644
-0.274929
-0.311194
-0.273706
-0.359037
-0.267919
-0.40874
-0.262824
-0.459158
-0.258937
-0.5105
-0.255418
-0.561047
-0.252795
-0.61081
-0.249736
-0.660134
-0.247136
-0.70848
-0.244487
-0.756837
-0.241944
-0.804477
-0.239656
-0.852186
-0.237262
-0.899503
-0.235216
-0.946676
-0.233069
-0.230981
-0.993862
-0.0438583
-0.209611
-0.102465
-0.228777
-0.1576
-0.226475
-0.213926
-0.219094
-0.273563
-0.215292
-0.331228
-0.216042
-0.384267
-0.21488
-0.434762
-0.212329
-0.48419
-0.20951
-0.532913
-0.206695
-0.581742
-0.203966
-0.629977
-0.201502
-0.678057
-0.199056
-0.725724
-0.19682
-0.773017
-0.194652
-0.820136
-0.192537
-0.866776
-0.190622
-0.913459
-0.188533
-0.959656
-0.186871
-0.184766
-1.00587
-0.0495054
-0.160105
-0.107814
-0.170468
-0.16024
-0.174048
-0.209172
-0.170162
-0.260536
-0.163928
-0.315658
-0.160919
-0.371102
-0.159436
-0.425615
-0.157815
-0.478787
-0.156338
-0.530934
-0.154548
-0.581876
-0.153023
-0.632268
-0.15111
-0.681669
-0.149655
-0.730669
-0.14782
-0.778828
-0.146493
-0.826626
-0.144739
-0.873731
-0.143516
-0.920457
-0.141808
-0.966696
-0.140632
-0.138967
-1.0125
-0.0507218
-0.109383
-0.115183
-0.106007
-0.178419
-0.110812
-0.235377
-0.113204
-0.28673
-0.112574
-0.337812
-0.109837
-0.388802
-0.108447
-0.440082
-0.106535
-0.491064
-0.105356
-0.541766
-0.103846
-0.591991
-0.102799
-0.641657
-0.101444
-0.690923
-0.100388
-0.739584
-0.0991591
-0.787926
-0.0981513
-0.835588
-0.0970771
-0.882984
-0.0961202
-0.929598
-0.0951945
-0.975969
-0.0942609
-0.0934494
-1.02149
-0.049613
-0.0597703
-0.0979565
-0.0576635
-0.155143
-0.0536259
-0.214126
-0.0542208
-0.272568
-0.0541326
-0.328358
-0.0540473
-0.383366
-0.0534386
-0.436723
-0.0531784
-0.489629
-0.0524493
-0.541348
-0.0521272
-0.592741
-0.0514061
-0.643041
-0.0511442
-0.693007
-0.0504213
-0.742015
-0.0501518
-0.790719
-0.0494466
-0.838646
-0.0491509
-0.886276
-0.0484902
-0.933284
-0.0481858
-0.979951
-0.0475937
-0.0472782
-1.02612
-0.0777723
0.018002
-0.129501
-0.0059349
-0.182018
-0.00110871
-0.231559
-0.00467956
-0.284705
-0.000986924
-0.336118
-0.00263493
-0.388914
-0.000642499
-0.44031
-0.00178168
-0.492233
-0.000527036
-0.542964
-0.00139624
-0.593866
-0.000504074
-0.643832
-0.00117749
-0.693729
-0.000524921
-0.742838
-0.00104216
-0.791717
-0.000568167
-0.839883
-0.000984131
-0.887725
-0.000648372
-0.934908
-0.0010032
-0.981722
-0.00077933
-1.02785
-0.00114927
-0.00966923
0.0567519
-0.0470827
0.00682195
0.0346435
-0.0511347
0.0839107
-0.0706164
-0.00647233
0.269273
-0.328337
0.142975
0.501294
-0.680342
0.448321
0.672894
-0.927887
0.756287
0.760899
-1.04891
0.960907
0.8014
-1.09136
1.05086
0.823192
-1.10452
1.08273
0.837103
-1.10705
1.09314
0.846546
-1.10529
1.09585
0.853588
-1.10135
1.09431
0.861421
-1.09974
1.09191
0.8705
-1.09838
1.08931
0.879001
-1.09838
1.08988
0.886351
-1.09647
1.08912
0.892855
-1.09668
1.09017
0.899145
-1.09422
1.08793
0.905777
-1.09449
1.08786
-1.09182
0.911065
1.08653
0.00186417
0.0548878
0.0429399
-0.00643227
0.155596
-0.183272
0.374391
-0.547133
0.556306
-0.862256
0.660571
-1.03215
0.707425
-1.09577
0.73005
-1.11399
0.742779
-1.11725
0.751043
-1.11531
0.756914
-1.11116
0.76369
-1.10812
0.77083
-1.10688
0.776773
-1.10433
0.782188
-1.10379
0.787657
-1.10194
0.792704
-1.10172
0.797083
-1.0986
0.800491
-1.0979
-1.09464
0.803312
0.0121047
0.0427831
0.0747856
-0.0691132
0.236297
-0.344783
0.427241
-0.738077
0.55068
-0.985695
0.609062
-1.09053
0.634127
-1.12083
0.646324
-1.12619
0.654059
-1.12499
0.659297
-1.12055
0.664838
-1.1167
0.670685
-1.11397
0.67548
-1.11167
0.680617
-1.10947
0.685691
-1.10887
0.690128
-1.10638
0.693295
-1.10489
0.69585
-1.10116
0.698228
-1.10028
-1.09661
0.700197
0.0310001
0.011783
0.109088
-0.147201
0.28817
-0.523865
0.434375
-0.884283
0.514211
-1.06553
0.54607
-1.12239
0.55964
-1.1344
0.567406
-1.13395
0.572902
-1.13049
0.576905
-1.12456
0.581176
-1.12097
0.584921
-1.11772
0.588753
-1.11551
0.592219
-1.11293
0.594699
-1.11135
0.596392
-1.10807
0.597518
-1.10602
0.598849
-1.10249
0.599854
-1.10128
-1.09613
0.599373
0.0426906
-0.0309076
0.138625
-0.243136
0.299843
-0.685082
0.407091
-0.991531
0.453471
-1.11191
0.471506
-1.14043
0.480033
-1.14293
0.485553
-1.13947
0.488429
-1.13336
0.491242
-1.12737
0.4943
-1.12403
0.49721
-1.12063
0.499211
-1.11751
0.500832
-1.11455
0.501971
-1.11248
0.502674
-1.10878
0.502785
-1.10613
0.502574
-1.10228
0.501575
-1.10028
-1.09389
0.499338
0.0372564
-0.068164
0.158586
-0.364466
0.290308
-0.816804
0.362914
-1.06414
0.391141
-1.14014
0.401931
-1.15122
0.407811
-1.14881
0.410306
-1.14197
0.412533
-1.13559
0.414812
-1.12965
0.416501
-1.12572
0.417142
-1.12127
0.417486
-1.11785
0.417491
-1.11456
0.416569
-1.11156
0.414898
-1.10711
0.41272
-1.10395
0.410452
-1.10001
0.407297
-1.09713
-1.08955
0.40296
0.0359357
-0.1041
0.156219
-0.484749
0.256313
-0.916897
0.306102
-1.11393
0.322687
-1.15672
0.329627
-1.15816
0.332744
-1.15192
0.334719
-1.14394
0.336069
-1.13694
0.336446
-1.13002
0.336265
-1.12554
0.335699
-1.1207
0.334463
-1.11661
0.332537
-1.11263
0.329914
-1.10894
0.326918
-1.10411
0.3235
-1.10053
0.319681
-1.09619
0.314713
-1.09216
-1.08384
0.309
0.0397448
-0.143844
0.143324
-0.588328
0.222601
-0.996174
0.254661
-1.14599
0.264685
-1.16675
0.269435
-1.16291
0.270335
-1.15282
0.270653
-1.14426
0.269762
-1.13605
0.268485
-1.12875
0.266577
-1.12363
0.263619
-1.11774
0.260105
-1.1131
0.256114
-1.10864
0.251391
-1.10422
0.246097
-1.09881
0.240281
-1.09472
0.234128
-1.09004
0.227039
-1.08507
-1.07648
0.219677
0.0445341
-0.188379
0.130031
-0.673825
0.186694
-1.05284
0.20487
-1.16416
0.209215
-1.17109
0.208964
-1.16266
0.207584
-1.15144
0.205526
-1.1422
0.202714
-1.13323
0.199073
-1.12511
0.19471
-1.11927
0.189844
-1.11288
0.184458
-1.10771
0.178433
-1.10262
0.171807
-1.09759
0.164825
-1.09183
0.157442
-1.08733
0.149656
-1.08225
0.141086
-1.0765
-1.06773
0.132341
0.0448305
-0.233209
0.112249
-0.741244
0.153223
-1.09381
0.162302
-1.17324
0.162874
-1.17166
0.159932
-1.15972
0.156526
-1.14804
0.151995
-1.13767
0.146487
-1.12773
0.140449
-1.11907
0.133801
-1.11262
0.126326
-1.1054
0.118284
-1.09967
0.109742
-1.09407
0.100637
-1.08849
0.0910765
-1.08227
0.0810707
-1.07733
0.0707711
-1.07195
0.0599467
-1.06568
-1.05671
0.0489218
0.0416285
-0.274838
0.0969007
-0.796516
0.122463
-1.11937
0.123241
-1.17402
0.118462
-1.16688
0.111828
-1.15308
0.104756
-1.14097
0.0970472
-1.12996
0.0887751
-1.11945
0.0799139
-1.11021
0.0705025
-1.10321
0.0605952
-1.0955
0.050263
-1.08934
0.0394722
-1.08328
0.0282644
-1.07728
0.0166956
-1.0707
0.00475332
-1.06538
-0.00746719
-1.05973
-0.0199556
-1.05319
-1.044
-0.0326659
0.0356654
-0.310503
0.0796375
-0.840488
0.0937833
-1.13352
0.0894983
-1.16974
0.0811166
-1.1585
0.0722356
-1.1442
0.0626535
-1.13138
0.0523569
-1.11967
0.0413893
-1.10849
0.0298787
-1.0987
0.0178221
-1.09115
0.00518536
-1.08286
-0.00791976
-1.07623
-0.0214621
-1.06974
-0.0354283
-1.06331
-0.0497606
-1.05637
-0.0644871
-1.05066
-0.0793468
-1.04487
-0.0944313
-1.03811
-1.02895
-0.109484
0.0291252
-0.339628
0.0623223
-0.873685
0.0674864
-1.13868
0.0579274
-1.16018
0.0456094
-1.14618
0.0330236
-1.13162
0.0198311
-1.11819
0.00617218
-1.10601
-0.00791953
-1.0944
-0.0224379
-1.08418
-0.0372537
-1.07633
-0.0525181
-1.06759
-0.0681461
-1.06061
-0.0840291
-1.05386
-0.100114
-1.04723
-0.116545
-1.03994
-0.13333
-1.03387
-0.150147
-1.02805
-0.166761
-1.02149
-1.01224
-0.183471
0.025162
-0.36479
0.0483155
-0.896839
0.0453282
-1.1357
0.0319524
-1.1468
0.016557
-1.13079
0.00111302
-1.11617
-0.0147532
-1.10232
-0.031062
-1.0897
-0.0477117
-1.07775
-0.0648747
-1.06702
-0.0825018
-1.05871
-0.100458
-1.04964
-0.118769
-1.0423
-0.137432
-1.03519
-0.156358
-1.0283
-0.175498
-1.0208
-0.194942
-1.01443
-0.214513
-1.00848
-0.233714
-1.00229
-0.993267
-0.252684
0.0189212
-0.383711
0.0335557
-0.911473
0.0238151
-1.12596
0.00630596
-1.12929
-0.0121544
-1.11233
-0.0309861
-1.09734
-0.05013
-1.08318
-0.069641
-1.07019
-0.089516
-1.05787
-0.109672
-1.04686
-0.1299
-1.03848
-0.150548
-1.02899
-0.171499
-1.02135
-0.1925
-1.01419
-0.213502
-1.0073
-0.234768
-0.999534
-0.256403
-0.992794
-0.278049
-0.986836
-0.299055
-0.981285
-0.972435
-0.319886
0.0159845
-0.399696
0.024496
-0.919985
0.00871018
-1.11017
-0.0124629
-1.10812
-0.0340716
-1.09072
-0.0558992
-1.07551
-0.0779007
-1.06118
-0.100101
-1.04799
-0.122359
-1.03561
-0.145124
-1.02409
-0.168223
-1.01538
-0.191377
-1.00584
-0.214856
-0.997866
-0.238683
-0.990365
-0.262581
-0.983402
-0.286435
-0.97568
-0.310575
-0.968654
-0.335105
-0.962306
-0.358988
-0.957403
-0.949269
-0.382154
0.0119015
-0.411597
0.0141697
-0.922253
-0.0061902
-1.08981
-0.0315374
-1.08277
-0.0567432
-1.06551
-0.0819157
-1.05034
-0.107027
-1.03607
-0.132275
-1.02274
-0.157724
-1.01016
-0.183255
-0.998563
-0.208701
-0.989934
-0.234516
-0.980021
-0.260523
-0.971858
-0.286438
-0.964451
-0.31229
-0.957549
-0.338319
-0.94965
-0.364568
-0.942405
-0.391023
-0.935851
-0.417356
-0.931071
-0.923941
-0.442684
0.00879258
-0.42039
0.00526276
-0.918723
-0.0195517
-1.06499
-0.0469922
-1.05533
-0.0745047
-1.038
-0.102043
-1.0228
-0.129562
-1.00855
-0.157083
-0.995218
-0.18444
-0.982807
-0.212379
-0.970624
-0.240494
-0.961819
-0.268384
-0.952131
-0.296735
-0.943507
-0.32554
-0.935646
-0.35421
-0.928879
-0.382606
-0.921254
-0.411227
-0.913784
-0.440406
-0.906672
-0.469989
-0.901488
-0.895283
-0.498647
0.00621483
-0.426605
-0.00165939
-0.910849
-0.0307915
-1.03586
-0.0620467
-1.02408
-0.0927826
-1.00726
-0.123472
-0.992112
-0.153788
-0.978233
-0.184122
-0.964884
-0.214461
-0.952467
-0.24471
-0.940375
-0.274917
-0.931613
-0.305339
-0.921709
-0.335727
-0.913119
-0.366148
-0.905225
-0.396815
-0.898213
-0.42766
-0.89041
-0.458542
-0.882901
-0.489651
-0.875563
-0.522383
-0.868756
-0.863503
-0.554164
0.00375547
-0.00918893
-0.040853
-0.0741448
-0.10678
-0.139283
-0.171627
-0.203655
-0.235318
-0.267605
-0.299915
-0.331777
-0.364209
-0.397069
-0.429643
-0.461981
-0.494689
-0.52784
-0.562762
-0.599834
0.825898
-9.65873
9.7439
0.759032
-9.508
9.57487
0.693289
-9.52188
9.58762
0.631381
-9.49101
9.55291
0.575851
-9.53459
9.59012
0.521914
-9.5368
9.59073
0.469788
-9.53391
9.58603
0.42176
-9.55013
9.59816
0.377729
-9.58488
9.62891
0.336324
-9.59076
9.63216
0.297827
-9.5964
9.63489
0.262239
-9.59604
9.63163
0.22982
-9.59882
9.63124
0.200245
-9.59865
9.62823
0.173731
-9.59523
9.62174
0.148936
-9.58128
9.60608
0.127274
-9.51761
9.53927
0.0969526
-8.98726
9.01758
0.0492797
-7.27603
7.3237
-3.91951
3.96879
0.720312
-9.57573
0.66079
-9.44848
0.599077
-9.46016
0.540591
-9.43252
0.489754
-9.48375
0.437411
-9.48446
0.388291
-9.48479
0.345618
-9.50746
0.30789
-9.54715
0.272773
-9.55564
0.24066
-9.56428
0.211693
-9.56708
0.186012
-9.57314
0.163372
-9.57601
0.143557
-9.57541
0.126139
-9.56386
0.111234
-9.5027
0.0862888
-8.96231
0.0455503
-7.23529
-3.87396
0.623391
-9.49893
0.56275
-9.38784
0.502983
-9.4004
0.451328
-9.38086
0.406058
-9.43849
0.36201
-9.44041
0.321659
-9.44444
0.285357
-9.47116
0.252875
-9.51467
0.223057
-9.52582
0.196245
-9.53747
0.172386
-9.54322
0.151713
-9.55246
0.133821
-9.55812
0.119107
-9.5607
0.106152
-9.55091
0.0962476
-9.4928
0.0786261
-8.94469
0.0438737
-7.20054
-3.83009
0.521334
-9.42089
0.466509
-9.33302
0.410646
-9.34453
0.362399
-9.33262
0.321175
-9.39726
0.278954
-9.39819
0.241843
-9.40733
0.210525
-9.43984
0.184015
-9.48816
0.160333
-9.50214
0.139772
-9.51691
0.122357
-9.5258
0.10825
-9.53836
0.0971573
-9.54703
0.0890468
-9.55259
0.0833708
-9.54523
0.0802531
-9.48968
0.0682728
-8.93271
0.0403782
-7.17264
-3.78971
0.426531
-9.34808
0.370283
-9.27677
0.317083
-9.29133
0.275587
-9.29112
0.239362
-9.36104
0.205184
-9.36401
0.176597
-9.37874
0.151362
-9.4146
0.129928
-9.46673
0.111404
-9.48361
0.0959938
-9.5015
0.083585
-9.51339
0.0743881
-9.52916
0.067936
-9.54058
0.0647797
-9.54943
0.0634226
-9.54388
0.0652381
-9.4915
0.0604995
-8.92797
0.0386185
-7.15076
-3.75109
0.329035
-9.27416
0.277053
-9.22478
0.227751
-9.24203
0.188983
-9.25235
0.156096
-9.32815
0.124084
-9.332
0.0987545
-9.35341
0.078128
-9.39398
0.0623882
-9.45099
0.0498351
-9.47106
0.0405058
-9.49217
0.0343458
-9.50723
0.0315144
-9.52633
0.0316882
-9.54075
0.0350107
-9.55276
0.0407998
-9.54967
0.0493752
-9.50007
0.0504746
-8.92907
0.0353166
-7.1356
-3.71578
0.237128
-9.20229
0.18388
-9.17154
0.137475
-9.19563
0.104812
-9.21969
0.0764438
-9.29978
0.0522348
-9.30779
0.0351246
-9.3363
0.0203457
-9.3792
0.00950941
-9.44015
0.00196095
-9.46351
-0.00234763
-9.48786
-0.00367064
-9.50591
-0.0016888
-9.52831
0.00293308
-9.54537
0.0110308
-9.56085
0.0209813
-9.55962
0.0343931
-9.51348
0.0426151
-8.93729
0.0334763
-7.12646
-3.6823
0.143771
-9.12638
0.0940487
-9.12181
0.0513558
-9.15293
0.0209414
-9.18927
-0.00456049
-9.27428
-0.0263057
-9.28604
-0.0404107
-9.3222
-0.0509163
-9.36869
-0.0563279
-9.43474
-0.0581019
-9.46174
-0.0565669
-9.4894
-0.0518261
-9.51065
-0.0437613
-9.53638
-0.0326585
-9.55647
-0.0182766
-9.57524
-0.00135143
-9.57654
0.0187474
-9.53358
0.0329197
-8.95147
0.0303358
-7.12388
-3.65196
0.0568006
-9.05084
0.00601872
-9.07103
-0.0351382
-9.11178
-0.0605236
-9.16389
-0.0814303
-9.25337
-0.0959276
-9.27154
-0.102159
-9.31596
-0.107006
-9.36385
-0.107704
-9.43404
-0.104626
-9.46482
-0.0982779
-9.49575
-0.08884
-9.52009
-0.0761846
-9.54903
-0.0607517
-9.57191
-0.0418734
-9.59411
-0.0209439
-9.59747
0.00387537
-9.5584
0.0250108
-8.9726
0.0284329
-7.1273
-3.62353
-0.031701
-8.97022
-0.0806846
-9.02205
-0.117668
-9.07479
-0.141616
-9.13994
-0.159138
-9.23585
-0.171433
-9.25925
-0.175041
-9.31236
-0.175868
-9.36302
-0.171436
-9.43847
-0.162846
-9.47341
-0.150863
-9.50773
-0.135654
-9.5353
-0.11712
-9.56756
-0.0955211
-9.59351
-0.0705431
-9.61909
-0.0428463
-9.62517
-0.0114659
-9.58978
0.0156149
-8.99968
0.0254325
-7.13712
-3.5981
-0.112998
-8.88988
-0.164979
-8.97007
-0.200244
-9.03953
-0.219872
-9.12031
-0.23314
-9.22258
-0.238383
-9.25401
-0.234671
-9.31607
-0.229999
-9.36769
-0.221032
-9.44744
-0.207787
-9.48665
-0.191183
-9.52433
-0.171465
-9.55502
-0.148546
-9.59048
-0.122818
-9.61923
-0.093632
-9.64828
-0.06215
-9.65665
-0.026138
-9.6258
0.00762576
-9.03345
0.0235049
-7.153
-3.57459
-0.19557
-8.8038
-0.246112
-8.91953
-0.279526
-9.00611
-0.297613
-9.10223
-0.30733
-9.21287
-0.310573
-9.25076
-0.304583
-9.32206
-0.296061
-9.37621
-0.282272
-9.46123
-0.263806
-9.50512
-0.241839
-9.5463
-0.216636
-9.58022
-0.188124
-9.619
-0.156527
-9.65083
-0.121476
-9.68333
-0.0835138
-9.69461
-0.0411053
-9.6682
-0.00157113
-9.07298
0.0206674
-7.17524
-3.55393
-0.272979
-8.71429
-0.325397
-8.86711
-0.357764
-8.97375
-0.372298
-9.08769
-0.377795
-9.20737
-0.374345
-9.25421
-0.36175
-9.33465
-0.347974
-9.38999
-0.329827
-9.47938
-0.306931
-9.52801
-0.280546
-9.57269
-0.251038
-9.60973
-0.218366
-9.65167
-0.182872
-9.68632
-0.143918
-9.72228
-0.102418
-9.73611
-0.0555318
-9.71509
-0.00949262
-9.11902
0.0187482
-7.20348
-3.53518
-0.349843
-8.61713
-0.401596
-8.81535
-0.433049
-8.9423
-0.446149
-9.07459
-0.448354
-9.20516
-0.443249
-9.25932
-0.428556
-9.34935
-0.410952
-9.40759
-0.388246
-9.50208
-0.360444
-9.55581
-0.328984
-9.60415
-0.294295
-9.64442
-0.256336
-9.68963
-0.215303
-9.72736
-0.170758
-9.76683
-0.123119
-9.78375
-0.0701191
-9.76809
-0.0183648
-9.17077
0.0160827
-7.23793
-3.5191
-0.422619
-8.5144
-0.475983
-8.76199
-0.506388
-8.91189
-0.516709
-9.06427
-0.514785
-9.20709
-0.503359
-9.27074
-0.482935
-9.36977
-0.46043
-9.4301
-0.433544
-9.52897
-0.401549
-9.58781
-0.365883
-9.63981
-0.327097
-9.6832
-0.285225
-9.7315
-0.240548
-9.77203
-0.192414
-9.81496
-0.141516
-9.83465
-0.084287
-9.82532
-0.0263964
-9.22866
0.0142478
-7.27857
-3.50485
-0.492756
-8.4038
-0.546748
-8.708
-0.576752
-8.88189
-0.585934
-9.05509
-0.581592
-9.21143
-0.568969
-9.28337
-0.546469
-9.39227
-0.520077
-9.45649
-0.488844
-9.5602
-0.452268
-9.62438
-0.411828
-9.68025
-0.368176
-9.72685
-0.32134
-9.77834
-0.27149
-9.82188
-0.218084
-9.86837
-0.161435
-9.8913
-0.0984931
-9.88826
-0.0350456
-9.29211
0.0119426
-7.32556
-3.4929
-0.561557
-8.28492
-0.616379
-8.65318
-0.644798
-8.85347
-0.65177
-9.04812
-0.643345
-9.21985
-0.624881
-9.30183
-0.597649
-9.4195
-0.566773
-9.48737
-0.531568
-9.59541
-0.49106
-9.66489
-0.446654
-9.72466
-0.399133
-9.77438
-0.348654
-9.82881
-0.295446
-9.87509
-0.238784
-9.92503
-0.179151
-9.95093
-0.112296
-9.95512
-0.0431779
-9.36123
0.0101185
-7.37885
-3.48279
-0.628631
-8.15494
-0.683679
-8.59813
-0.710671
-8.82647
-0.71661
-9.04218
-0.706762
-9.2297
-0.687422
-9.32117
-0.658001
-9.44892
-0.623174
-9.52219
-0.583741
-9.63484
-0.538899
-9.70973
-0.489992
-9.77356
-0.437889
-9.82648
-0.382754
-9.88395
-0.324747
-9.9331
-0.263152
-9.98662
-0.198176
-10.0159
-0.125993
-10.0273
-0.0514439
-9.43578
0.00809631
-7.43839
-3.47469
-0.684909
-8.02419
-0.747892
-8.53514
-0.774118
-8.80025
-0.778291
-9.03801
-0.764354
-9.24364
-0.739712
-9.34582
-0.706404
-9.48223
-0.667578
-9.56102
-0.62423
-9.67819
-0.575644
-9.75832
-0.52294
-9.82627
-0.467135
-9.88228
-0.40857
-9.94251
-0.347508
-9.99416
-0.282954
-10.0512
-0.215271
-10.0836
-0.139736
-10.1028
-0.0598397
-9.51567
0.0065804
-7.50481
-3.46811
-0.734924
-7.8891
-0.804884
-8.46518
-0.829685
-8.77545
-0.833654
-9.03404
-0.820246
-9.25705
-0.794607
-9.37145
-0.760045
-9.51679
-0.717812
-9.60325
-0.671098
-9.7249
-0.61874
-9.81068
-0.562357
-9.88265
-0.502406
-9.94223
-0.439921
-10.005
-0.374507
-10.0596
-0.305894
-10.1198
-0.232864
-10.1566
-0.153508
-10.1822
-0.0679324
-9.60125
0.00423976
-7.57699
-3.46387
7.98091
-7.5149
-8.35511
7.3235
-7.80778
6.7394
-8.19135
6.14328
-8.43792
5.5712
-8.68496
5.06334
-8.8636
4.59011
-9.04356
4.17121
-9.18436
3.7727
-9.32639
3.39351
-9.4315
3.03338
-9.52252
2.69099
-9.59985
2.35713
-9.67114
2.03382
-9.73626
1.70718
-9.79316
1.41305
-9.86248
1.09662
-9.86576
0.753853
-9.25848
0.324754
-7.14789
-3.13912
4.69164
-7.4242
-4.78234
4.5417
-7.65783
4.31376
-7.96341
4.07181
-8.19597
3.80852
-8.42167
3.54506
-8.60013
3.2716
-8.7701
3.00556
-8.91832
2.72518
-9.046
2.44755
-9.15387
2.17766
-9.25263
1.92063
-9.34282
1.67613
-9.42663
1.44397
-9.5041
1.22702
-9.57621
1.02008
-9.65554
0.787351
-9.63304
0.528235
-8.99937
0.173684
-6.79334
-2.96543
3.36911
-7.50963
-3.28369
3.41451
-7.70323
3.38105
-7.92994
3.30342
-8.11834
3.16966
-8.28791
3.01574
-8.44621
2.83801
-8.59237
2.64655
-8.72686
2.4409
-8.84035
2.23547
-8.94844
2.02926
-9.04642
1.82353
-9.13708
1.61379
-9.2169
1.40126
-9.29157
1.18498
-9.35993
0.961715
-9.43227
0.735248
-9.40657
0.502944
-8.76706
0.218523
-6.50892
-2.74691
2.17197
-7.66773
-2.01387
2.27211
-7.80336
2.28531
-7.94315
2.26112
-8.09416
2.20547
-8.23226
2.12812
-8.36886
2.02421
-8.48846
1.89882
-8.60147
1.76045
-8.70198
1.61369
-8.80169
1.46106
-8.89379
1.30553
-8.98155
1.1486
-9.05996
0.996201
-9.13917
0.842203
-9.20594
0.691759
-9.28183
0.543671
-9.25848
0.381955
-8.60535
0.16532
-6.29228
-2.58159
1.54013
-7.80013
-1.40773
1.62767
-7.89091
1.68406
-7.99954
1.71756
-8.12765
1.7126
-8.22731
1.676
-8.33225
1.61685
-8.42932
1.5383
-8.52292
1.44854
-8.61222
1.34547
-8.69861
1.23144
-8.77976
1.10835
-8.85846
0.977385
-8.92899
0.841212
-9.003
0.704023
-9.06875
0.560879
-9.13869
0.419978
-9.11758
0.295674
-8.48104
0.15148
-6.14809
-2.43011
1.02427
-7.91112
-0.913274
1.11983
-7.98647
1.17608
-8.05578
1.18716
-8.13873
1.1798
-8.21995
1.15164
-8.30409
1.10865
-8.38633
1.05214
-8.46641
0.986555
-8.54663
0.909754
-8.62181
0.823443
-8.69345
0.732875
-8.76789
0.641207
-8.83733
0.550846
-8.91264
0.460874
-8.97877
0.370713
-9.04853
0.282932
-9.0298
0.213138
-8.41125
0.124929
-6.05988
-2.30518
0.695301
-7.99078
-0.615643
0.750889
-8.04206
0.787764
-8.09266
0.817362
-8.16833
0.831563
-8.23415
0.823904
-8.29643
0.799226
-8.36165
0.76125
-8.42844
0.711061
-8.49644
0.650443
-8.5612
0.584101
-8.62711
0.510136
-8.69393
0.435048
-8.76224
0.350713
-8.8283
0.266672
-8.89473
0.179118
-8.96097
0.0961994
-8.94688
0.0647609
-8.37981
0.0650297
-6.06015
-2.24015
0.476617
-8.04637
-0.421032
0.52308
-8.08852
0.559476
-8.12905
0.573411
-8.18227
0.567726
-8.22846
0.549971
-8.27868
0.519684
-8.33137
0.47856
-8.38731
0.426521
-8.4444
0.369814
-8.50449
0.312263
-8.56956
0.248368
-8.63003
0.179686
-8.69356
0.105211
-8.75383
0.0335961
-8.82312
-0.0377656
-8.88961
-0.0961335
-8.88852
-0.0844835
-8.39146
0.0233547
-6.16799
-2.21679
0.286765
-8.08046
-0.252668
0.309402
-8.11116
0.324658
-8.14431
0.326011
-8.18362
0.322457
-8.22491
0.313311
-8.26953
0.29415
-8.31221
0.26392
-8.35708
0.225712
-8.40619
0.176624
-8.4554
0.116866
-8.5098
0.0477109
-8.56088
-0.026903
-8.61894
-0.105498
-8.67523
-0.185233
-8.74338
-0.263534
-8.81131
-0.325745
-8.82631
-0.293005
-8.4242
-0.0677749
-6.39322
-2.28457
0.181301
-8.09897
-0.162797
0.194103
-8.12396
0.200275
-8.15048
0.197433
-8.18078
0.183472
-8.21095
0.155122
-8.24118
0.121074
-8.27816
0.0789654
-8.31497
0.0316974
-8.35892
-0.0265431
-8.39716
-0.0944526
-8.44189
-0.169081
-8.48625
-0.247576
-8.54045
-0.332943
-8.58986
-0.426719
-8.64961
-0.526264
-8.71176
-0.607211
-8.74536
-0.577002
-8.45441
-0.237555
-6.73266
-2.52213
0.0756349
-8.10335
-0.0712528
0.0737145
-8.12204
0.0661073
-8.14287
0.049052
-8.16372
0.0251154
-8.18701
-0.00426931
-8.2118
-0.0407642
-8.24166
-0.0855908
-8.27015
-0.140803
-8.30371
-0.203513
-8.33445
-0.272494
-8.37291
-0.349751
-8.40899
-0.439019
-8.45118
-0.538926
-8.48996
-0.650164
-8.53837
-0.778591
-8.58334
-0.896723
-8.62723
-0.898734
-8.4524
-0.500211
-7.13119
-3.02234
0.0181091
-8.10072
-0.020738
0.00935448
-8.11329
-0.00357949
-8.12994
-0.022029
-8.14527
-0.0454426
-8.1636
-0.0789536
-8.17829
-0.120144
-8.20047
-0.169671
-8.22062
-0.227648
-8.24574
-0.291914
-8.27019
-0.366614
-8.29821
-0.452195
-8.32341
-0.550777
-8.3526
-0.662653
-8.37808
-0.792051
-8.40897
-0.945435
-8.42995
-1.10603
-8.46663
-1.16118
-8.39725
-0.830388
-7.46198
-3.85272
-0.0273475
-8.08985
0.0164762
-0.0429427
-8.09769
-0.0642901
-8.10859
-0.0912681
-8.1183
-0.122845
-8.13202
-0.157577
-8.14355
-0.197096
-8.16095
-0.242754
-8.17496
-0.296213
-8.19228
-0.358752
-8.20765
-0.433549
-8.22341
-0.517769
-8.23919
-0.611123
-8.25924
-0.71575
-8.27346
-0.838223
-8.2865
-0.975396
-8.29278
-1.15008
-8.29194
-1.28523
-8.26211
-1.05697
-7.69024
-4.90969
-0.0536257
-8.07668
0.0404571
-0.0690546
-8.08226
-0.0875414
-8.0901
-0.109413
-8.09642
-0.136216
-8.10522
-0.166227
-8.11354
-0.203223
-8.12396
-0.246012
-8.13217
-0.295328
-8.14296
-0.352114
-8.15086
-0.413429
-8.1621
-0.485139
-8.16748
-0.569399
-8.17498
-0.666051
-8.1768
-0.775968
-8.17658
-0.89461
-8.17414
-1.03146
-8.15508
-1.16355
-8.13003
-0.998303
-7.85548
-5.90799
-0.0644214
-8.06095
0.04869
-0.0828379
-8.06385
-0.10406
-8.06888
-0.127521
-8.07296
-0.153959
-8.07878
-0.183471
-8.08403
-0.215243
-8.09219
-0.25093
-8.09649
-0.292836
-8.10105
-0.340406
-8.10329
-0.39088
-8.11162
-0.446711
-8.11165
-0.507455
-8.11424
-0.574655
-8.1096
-0.646205
-8.10503
-0.73169
-8.08865
-0.814905
-8.07187
-0.89869
-8.04624
-0.813142
-7.94103
-6.72113
-0.0615943
-8.04807
0.04871
-0.0757753
-8.04966
-0.0915284
-8.05313
-0.109174
-8.05532
-0.128858
-8.05909
-0.152052
-8.06084
-0.17991
-8.06433
-0.210089
-8.06631
-0.24171
-8.06943
-0.275216
-8.06978
-0.31554
-8.0713
-0.356945
-8.07025
-0.402081
-8.0691
-0.448277
-8.06341
-0.494815
-8.05849
-0.536426
-8.04704
-0.571056
-8.03724
-0.608718
-8.00858
-0.573853
-7.97589
-7.29499
-0.059089
-8.03603
0.0470496
-0.0720771
-8.03668
-0.0866547
-8.03855
-0.102485
-8.03949
-0.120361
-8.04122
-0.139132
-8.04207
-0.158343
-8.04512
-0.178812
-8.04584
-0.200557
-8.04769
-0.223076
-8.04726
-0.245805
-8.04857
-0.268777
-8.04727
-0.290722
-8.04716
-0.311684
-8.04245
-0.328976
-8.0412
-0.34164
-8.03438
-0.34962
-8.02926
-0.34338
-8.01482
-0.312376
-8.0069