/*--------------------------------*- C++ -*----------------------------------*\
  =========                 |
  \\      /  F ield         | OpenFOAM: The Open Source CFD Toolbox
   \\    /   O peration     | Website:  https://openfoam.org
    \\  /    A nd           | Version:  9
     \\/     M anipulation  |
\*---------------------------------------------------------------------------*/
FoamFile
{
    format      ascii;
    class       volScalarField;
    location    "3.4";
    object      nut;
}
// * * * * * * * * * * * * * * * * * * * * * * * * * * * * * * * * * * * * * //

dimensions      [0 2 -1 0 0 0 0];

internalField   nonuniform List<scalar> 
46400
(
0.0178213
0.00657543
0.00191029
0.00127076
0.0012946
0.00126182
0.00118465
0.00114662
0.00107378
0.00106621
0.00102175
0.000977997
0.000947323
0.000927163
0.000901038
0.000892376
0.000852022
0.00080119
0.00113512
0.000933525
0.0175183
0.00544546
0.00139164
0.00131375
0.00125282
0.00124477
0.00120144
0.00118655
0.00110996
0.00107807
0.00104518
0.00100446
0.000972848
0.000934614
0.000897577
0.000875095
0.000804103
0.000726058
0.000982796
0.000901133
0.0171806
0.00460925
0.00121852
0.00139876
0.00130822
0.00130094
0.00121644
0.00119081
0.00112122
0.00109824
0.00106008
0.00101743
0.000984865
0.000955788
0.000923412
0.000906998
0.000844276
0.000789648
0.00108173
0.00092907
0.0167661
0.00374966
0.00116499
0.00141008
0.00127346
0.00128276
0.00123536
0.00121911
0.00115046
0.00110528
0.00107812
0.00103741
0.00100264
0.000970286
0.000936723
0.000917715
0.000873241
0.000799734
0.00111017
0.00101404
0.0162442
0.00411936
0.00127371
0.00147626
0.00135515
0.00133247
0.00125336
0.00123093
0.00117223
0.00113443
0.00109589
0.00105947
0.00102435
0.000990352
0.000964181
0.000932685
0.000878816
0.000836974
0.00112042
0.000996515
0.0156824
0.00477605
0.00132868
0.00148435
0.00134149
0.00133551
0.00127566
0.00124841
0.0011957
0.00114024
0.00111112
0.00107277
0.00104601
0.00101264
0.000992381
0.000983023
0.000918982
0.000855373
0.00116506
0.00106999
0.0151318
0.00434493
0.00141027
0.00154324
0.00140935
0.00136283
0.00129229
0.00125292
0.00121124
0.00116773
0.00111793
0.00107891
0.00104438
0.00100749
0.000976167
0.00096049
0.000924836
0.000843802
0.00111398
0.00105389
0.0139554
0.00377677
0.00140171
0.00151324
0.00139735
0.00136027
0.00130323
0.00125588
0.00122033
0.00117906
0.00115049
0.00109874
0.00107906
0.0010446
0.00102238
0.000997131
0.000953083
0.000891924
0.00110528
0.001058
0.0124307
0.00301278
0.00145504
0.00151317
0.00143342
0.00136026
0.00131215
0.00124044
0.0011968
0.00116419
0.0011397
0.00108673
0.00104283
0.00101059
0.000985531
0.000977743
0.00094195
0.000893863
0.0010838
0.00101284
0.00979799
0.00240144
0.00147569
0.00144172
0.00141809
0.00135639
0.00132453
0.00127125
0.00120829
0.00115901
0.00116869
0.00113993
0.00110374
0.00105075
0.00101047
0.000977214
0.000944266
0.000900947
0.0010775
0.00104428
0.00805195
0.00206834
0.00148985
0.00143156
0.00140095
0.00134672
0.001318
0.00126607
0.00121093
0.00111188
0.00108075
0.00108435
0.00107645
0.00106387
0.00103096
0.000994911
0.000939862
0.000887903
0.0010106
0.00097803
0.00646769
0.00179925
0.00150984
0.00142153
0.00138896
0.0013239
0.00131569
0.00129997
0.00128546
0.00120322
0.00111028
0.001057
0.00104422
0.00102657
0.00103625
0.00102227
0.000998718
0.000953876
0.0010627
0.00101057
0.00544019
0.00164861
0.0015091
0.00142816
0.00140153
0.00132615
0.00127425
0.00123416
0.00125334
0.00122325
0.00117769
0.00108457
0.00103145
0.000982647
0.0009531
0.000951122
0.000924039
0.000907189
0.00101607
0.000997942
0.00464548
0.00158272
0.00153019
0.00145655
0.00139673
0.00133132
0.00132066
0.00123205
0.00123533
0.00122297
0.0012141
0.00118417
0.00111908
0.00107122
0.00100561
0.000966166
0.000914504
0.000865872
0.000929737
0.0009074
0.00425333
0.00155993
0.00152836
0.00146827
0.00144457
0.00128796
0.00126822
0.00120593
0.00115409
0.00114482
0.00112984
0.00113459
0.00112423
0.00110175
0.00107932
0.00104493
0.00100834
0.000957361
0.00100787
0.000957716
0.00430365
0.00159433
0.0014794
0.00147695
0.00156129
0.00146
0.00136707
0.00129419
0.00121278
0.00114882
0.0011011
0.00106238
0.00104204
0.00102145
0.00100495
0.000993662
0.000966863
0.000931887
0.000994546
0.000943904
0.00359524
0.00159286
0.00140133
0.00126754
0.00132392
0.0013748
0.00136185
0.00133807
0.00129535
0.00124731
0.00119718
0.00114878
0.00110204
0.001064
0.00102772
0.00100117
0.000968143
0.000918343
0.000970249
0.000922808
0.00356759
0.00179649
0.00171402
0.00148849
0.00134185
0.00130357
0.00126129
0.00123632
0.00120863
0.0011752
0.00115161
0.00111401
0.00109119
0.00105066
0.00102871
0.000994903
0.000969074
0.000914891
0.000958085
0.000904912
0.00249211
0.0013884
0.00151996
0.00152117
0.0014626
0.00137669
0.00134733
0.00128777
0.00126404
0.00120712
0.00118358
0.00113493
0.00111064
0.00106968
0.00104339
0.00101244
0.000981376
0.000926412
0.000967772
0.000912998
0.000548692
0.000404972
0.00147858
0.00130462
0.00141581
0.00130408
0.0013242
0.00123996
0.00123486
0.00117223
0.00115768
0.00110871
0.00108999
0.00104751
0.00102718
0.000992969
0.000967457
0.000905237
0.000954766
0.000879107
0.000771722
9.1501e-05
0.00366872
0.00808687
0.0105524
0.00806203
0.00400266
0.00148057
0.000400253
6.61844e-05
0.00010132
0.000181679
0.000227458
0.000161311
0.000124384
0.000180836
0.000207416
0.000189327
0.000151802
0.000232264
3.5501e-23
0.00171537
0.00642042
0.0103476
0.00924041
0.00520565
0.00196475
0.000502884
9.36986e-05
0.000125668
0.000209152
0.000253122
0.000187637
0.000170675
0.000196669
0.000210436
0.000178155
0.000190041
0.000210061
0.000268184
0.000290082
0.00398653
0.0088921
0.0106644
0.00702051
0.00290541
0.000739487
0.000106189
0.000131402
0.000226105
0.000274229
0.00022323
0.000186254
0.00022332
0.000205177
0.000188733
0.000200004
0.000267844
0.000246702
0.00026269
0.000770368
0.00680647
0.0105661
0.00930646
0.00479393
0.00132408
9.79999e-05
0.000103646
0.000248843
0.000303284
0.000255609
0.000233512
0.000238676
0.000233918
0.000212127
0.000249455
0.000272806
0.000277384
0.000228175
0.000288184
0.00263043
0.00858221
0.0111776
0.00758854
0.00262337
0.00036765
0.000136563
0.000268384
0.000316552
0.000285897
0.000276264
0.000269363
0.000240182
0.000268337
0.000251891
0.000278957
0.000262547
0.000271474
0.000269036
0.000323101
0.00238945
0.00999156
0.010823
0.00567329
0.00114344
0.000159485
0.000269622
0.000337746
0.000339393
0.000328869
0.000317822
0.000284039
0.000304299
0.000301962
0.000270802
0.000321017
0.000308238
0.000338991
0.000311334
0.000348335
0.00507285
0.0110561
0.00962977
0.00350588
0.000289713
0.000159902
0.000369243
0.000406943
0.000382773
0.000369868
0.000342847
0.00034266
0.000322768
0.000327086
0.000326536
0.000364295
0.000313426
0.000342829
0.000334001
0.000378422
0.00716315
0.0116394
0.00856187
0.00160581
0.00024693
0.000363638
0.000491763
0.000488445
0.000425069
0.000424872
0.000409454
0.000372325
0.000390603
0.000386096
0.000358924
0.000395175
0.00034986
0.000420634
0.000394528
0.0004099
0.0095689
0.0118303
0.00736032
0.000727225
0.000212951
0.000549188
0.00059757
0.00050444
0.000500859
0.000490028
0.000444316
0.00044365
0.00042551
0.000408688
0.00041589
0.000446129
0.000381302
0.00044426
0.000408124
0.000430045
0.0121048
0.0116989
0.00529446
0.000395032
0.000462185
0.000626783
0.000652593
0.000608609
0.000560924
0.000542579
0.000517302
0.000481098
0.000489866
0.000480999
0.000460877
0.000472851
0.000422474
0.000512221
0.000463164
0.000467835
0.0139027
0.0116168
0.00363914
0.000250799
0.000634793
0.000767081
0.000735256
0.000639915
0.00062324
0.000612736
0.000559286
0.000556267
0.000535028
0.000506293
0.00051484
0.000528097
0.000471971
0.000536397
0.000477707
0.000499804
0.0153268
0.0111939
0.00229957
0.000219933
0.000776866
0.000796925
0.000769048
0.000730111
0.000689909
0.000660643
0.000626486
0.000592481
0.000592572
0.000580171
0.000563412
0.000552701
0.000520482
0.000591742
0.000501468
0.000531615
0.0159789
0.0108656
0.00152304
0.000438929
0.000857225
0.000883278
0.000872822
0.000765605
0.000740534
0.000730941
0.00067516
0.000669224
0.00064304
0.000610598
0.000616114
0.000615272
0.000576389
0.000614981
0.000500048
0.000552711
0.0167334
0.0104086
0.00102225
0.000587861
0.00100469
0.000896354
0.000897761
0.000846479
0.000805989
0.000775569
0.000732187
0.000699846
0.00069483
0.000677665
0.000658031
0.000635965
0.000619668
0.000655395
0.000512047
0.000583478
0.0173163
0.0100422
0.00118019
0.000777769
0.00105892
0.000983977
0.000987739
0.000886207
0.000847512
0.000840386
0.000784601
0.000772367
0.000741082
0.000709926
0.000710527
0.000695843
0.000675434
0.000676338
0.000506589
0.000609807
0.0176335
0.00961793
0.00176078
0.000896339
0.00113751
0.0010068
0.00100904
0.000959295
0.000910757
0.000883939
0.00083375
0.000802703
0.000794833
0.000772291
0.000746271
0.000720543
0.000728685
0.000719859
0.000514703
0.000645217
0.0179895
0.00929259
0.00229588
0.0010515
0.0011749
0.00109319
0.00108128
0.00099431
0.000940766
0.000937785
0.000883687
0.000861966
0.000829515
0.000803661
0.000794786
0.000770097
0.000773395
0.000743657
0.000512713
0.000673746
0.0180386
0.00899971
0.0022081
0.00106276
0.00122696
0.00109287
0.00109569
0.00105943
0.000997769
0.000976057
0.000925799
0.000894671
0.000885383
0.000859543
0.000827869
0.00080667
0.000831213
0.000797185
0.000536592
0.000726651
0.0181256
0.00846008
0.00202952
0.00114417
0.00126718
0.00119089
0.00114404
0.00108585
0.00101986
0.00101949
0.000970544
0.000938154
0.000909282
0.000890587
0.000870399
0.000847868
0.000862124
0.000849743
0.000561712
0.00070812
0.0179777
0.0075194
0.00193656
0.0011766
0.00125227
0.00118159
0.00115928
0.00113908
0.00106847
0.00104803
0.00100773
0.000977188
0.000968233
0.000944762
0.000918256
0.000929308
0.000930287
0.000927541
0.000726782
0.000797951
0.00215823
0.00171046
0.00176289
0.00167093
0.00173526
0.00149268
0.00144359
0.00135979
0.00132756
0.00124671
0.00114654
0.00107711
0.00098129
0.000918967
0.000856961
0.000855661
0.000905864
0.00396466
0.00990429
0.022258
0.0021172
0.00179738
0.00182497
0.0016004
0.00172803
0.00157215
0.00156396
0.00142313
0.00132516
0.00122547
0.00112436
0.00105616
0.000953183
0.000875857
0.000804555
0.000807845
0.000898213
0.00408297
0.00995408
0.0220017
0.00217091
0.00183311
0.00196143
0.00173458
0.00173837
0.0014606
0.00142542
0.00136045
0.00131513
0.00123464
0.00113427
0.00106839
0.000971287
0.00091533
0.000843837
0.000828493
0.000907861
0.00414303
0.00998222
0.021834
0.00215498
0.0019103
0.00199949
0.00166808
0.00174399
0.00154681
0.00154186
0.00142642
0.00131149
0.00121386
0.00111338
0.00105013
0.000948462
0.000876644
0.000798209
0.000774755
0.000890595
0.00427367
0.0100287
0.0215924
0.00225217
0.00195411
0.00214181
0.00176391
0.00172156
0.0014592
0.00142517
0.00137385
0.0012997
0.00122269
0.00112376
0.0010621
0.000963661
0.00091256
0.000828918
0.000799614
0.000922334
0.00430705
0.0100566
0.0214421
0.00239615
0.00205089
0.00213785
0.00168026
0.0017419
0.00155896
0.00153717
0.0014346
0.00129367
0.0012031
0.00110402
0.00104461
0.000945226
0.000881833
0.000790496
0.000737495
0.000896454
0.0044118
0.0100948
0.0212153
0.00255577
0.00208882
0.00225355
0.00176132
0.00171782
0.00149847
0.00143649
0.00138637
0.00128131
0.00121175
0.00111461
0.00105692
0.000958147
0.00090977
0.000812491
0.000770458
0.000937648
0.00441163
0.0101274
0.0210816
0.00285362
0.00220903
0.00222075
0.00167431
0.00175421
0.00160675
0.00154124
0.00143735
0.00127343
0.00119371
0.00109579
0.0010395
0.000941382
0.000887361
0.00078159
0.000701171
0.000905429
0.00447966
0.0101485
0.0208743
0.00308586
0.00225043
0.00230699
0.00174851
0.00173648
0.00156016
0.00144703
0.00138833
0.00126201
0.00120199
0.00110638
0.00105161
0.000953768
0.000907904
0.000797002
0.00074277
0.000948632
0.00446307
0.0101947
0.0207542
0.00344879
0.00237963
0.00228666
0.00169356
0.00178967
0.00166788
0.0015454
0.00143151
0.00125516
0.00118575
0.00108847
0.00103451
0.000937592
0.000890254
0.00077412
0.000672031
0.000909723
0.00451376
0.010195
0.0205645
0.00368748
0.00243269
0.00235933
0.00175589
0.00177032
0.00161944
0.0014501
0.00137818
0.00124519
0.00119298
0.00109858
0.00104605
0.000949697
0.000907614
0.000787272
0.000719227
0.000949875
0.00448179
0.0102467
0.0204515
0.00386768
0.00255301
0.00236773
0.00174678
0.00183156
0.00171655
0.00154322
0.00141756
0.00124156
0.00117822
0.00108179
0.00102967
0.00093439
0.000891045
0.000770101
0.000652945
0.000908401
0.0044968
0.0102417
0.0202751
0.00396806
0.00259011
0.00243727
0.00181204
0.0018064
0.00165621
0.00144705
0.00136165
0.00123261
0.00118376
0.00109099
0.00104055
0.000946586
0.000908236
0.000784815
0.000703076
0.000945259
0.00446396
0.0102932
0.0201616
0.00417499
0.00269193
0.00245558
0.0018277
0.00186143
0.00173707
0.0015344
0.00139847
0.00123241
0.00116996
0.0010755
0.00102546
0.000932764
0.000892506
0.000771469
0.00064516
0.000902657
0.00444406
0.0102885
0.0199955
0.00428314
0.00270683
0.00251562
0.00190307
0.00182711
0.00166458
0.00144264
0.00134516
0.0012238
0.00117284
0.00108309
0.00103544
0.00094532
0.000910384
0.000790106
0.000697217
0.000939112
0.00439898
0.0103298
0.0198992
0.00452892
0.00279374
0.00251182
0.00192227
0.00186798
0.00172725
0.00152234
0.00137767
0.00122402
0.00115836
0.00106805
0.00102129
0.000933335
0.000896031
0.000777872
0.000648187
0.000899448
0.00434786
0.0103115
0.0197428
0.00474021
0.00282243
0.00256404
0.00200156
0.00182722
0.00165522
0.00144493
0.00133641
0.00121969
0.00116157
0.00107587
0.00103216
0.000947327
0.000916037
0.000800588
0.000702983
0.000936147
0.00431105
0.0103631
0.0196171
0.00490187
0.00284823
0.00250184
0.0020107
0.00186232
0.00171018
0.00152393
0.00137164
0.00122371
0.00115129
0.00106511
0.00102281
0.000941314
0.000908899
0.000793262
0.000670108
0.000898842
0.0042347
0.0103816
0.0195953
0.00485172
0.00290775
0.00248444
0.00204722
0.00179031
0.00161211
0.00143261
0.00131427
0.0011983
0.00113319
0.00105669
0.00102115
0.000947537
0.000921409
0.000820315
0.000715462
0.000951653
0.00416217
0.0103821
0.0194262
0.00566387
0.00315638
0.0025294
0.00206214
0.00181564
0.00167313
0.00154005
0.00139128
0.00123907
0.00115613
0.00107335
0.00103219
0.000954028
0.000923533
0.000815274
0.000697733
0.000901187
0.00391169
0.0100983
0.0189775
0.0171556
0.0318431
0.0150482
0.0237127
0.0198581
0.0176839
0.015514
0.0139938
0.0127254
0.0117652
0.010827
0.0104044
0.009825
0.00978613
0.00920444
0.00926674
0.0111866
0.0373909
0.0965375
0.166536
0.0321554
0.0229719
0.020173
0.0182899
0.0165276
0.0144082
0.0130315
0.0119591
0.0109644
0.0096325
0.00906347
0.00923806
0.00876231
0.0081017
0.00788947
0.00657858
0.0116875
0.0427473
0.095459
0.153278
0.0153715
0.0149163
0.015354
0.0129604
0.0117419
0.011021
0.0106342
0.0098802
0.008949
0.00839613
0.00808512
0.00778491
0.00746011
0.00723334
0.00707329
0.0066747
0.0116827
0.0410326
0.0947069
0.149617
0.0131225
0.0117015
0.0100654
0.00962021
0.00949584
0.00887314
0.0084049
0.0080912
0.00801851
0.0076079
0.00720745
0.00668719
0.00661783
0.00622549
0.00613526
0.00498113
0.00927456
0.0429607
0.094815
0.138725
0.0067083
0.00721056
0.00824056
0.008108
0.00727409
0.00689543
0.00666154
0.00641823
0.00596466
0.00578868
0.0057999
0.00588466
0.00570006
0.0055947
0.00553674
0.00473543
0.010284
0.0399808
0.0948927
0.137049
0.00586148
0.00638778
0.00578759
0.00530736
0.00533142
0.00545005
0.00531441
0.00530843
0.00543919
0.00542441
0.00518894
0.00484588
0.00480732
0.00471559
0.00460905
0.00377823
0.00738387
0.0371812
0.0956619
0.133057
0.00337489
0.00363322
0.00407342
0.00464203
0.00454751
0.0043595
0.00437041
0.00433393
0.00406095
0.00399724
0.00416077
0.00444053
0.00434394
0.00431371
0.00430226
0.00350303
0.00521163
0.0329767
0.0962544
0.132298
0.00292103
0.00324332
0.00339977
0.00330045
0.0030371
0.00311204
0.00321644
0.00348815
0.00380113
0.00394999
0.00377711
0.00361251
0.00361281
0.00369705
0.00367274
0.00308898
0.00643546
0.0279903
0.0961549
0.133968
0.00163952
0.00198687
0.00219395
0.00245327
0.0026842
0.00288946
0.00298555
0.00299452
0.00287527
0.0029941
0.00319906
0.00362536
0.00357383
0.0036729
0.00356052
0.00308046
0.00220574
0.0227738
0.0963671
0.137685
0.00156844
0.00168815
0.00183866
0.00195604
0.00194294
0.00200109
0.00207605
0.00232163
0.00266773
0.00295544
0.00287701
0.00291488
0.00302864
0.00334158
0.0033844
0.00327478
0.00340754
0.0163586
0.093755
0.145086
0.000691491
0.00111821
0.00122883
0.00144435
0.00160637
0.00184348
0.0021067
0.00227301
0.0021499
0.00230523
0.00256144
0.00298843
0.00303479
0.00331641
0.00333947
0.00346808
0.00249894
0.011713
0.0901708
0.154643
0.000750281
0.000948543
0.00105274
0.00117644
0.00121703
0.00135269
0.00141284
0.00171382
0.00205726
0.00227752
0.00231807
0.002407
0.00263769
0.00296644
0.00318756
0.00360527
0.00274092
0.0063692
0.0705834
0.165668
0.000529491
0.000681943
0.000815637
0.00100387
0.0011379
0.00130857
0.00145353
0.00159221
0.00163035
0.00188481
0.00216106
0.00250107
0.00258072
0.00283656
0.00304602
0.00341903
0.00349334
0.00449957
0.0587039
0.180933
0.000490489
0.00061702
0.00065243
0.000770564
0.000829854
0.000988402
0.00104555
0.00121656
0.001392
0.00161616
0.00167903
0.00188213
0.00224713
0.00247229
0.00300088
0.00310332
0.00387951
0.00790463
0.0363355
0.180398
0.000443015
0.000557535
0.000619413
0.000723474
0.000777735
0.000887714
0.000985575
0.00113231
0.00112318
0.00131318
0.00136879
0.00167082
0.00164157
0.00204229
0.00202093
0.00256726
0.0026003
0.00627318
0.0209951
0.132753
0.000391916
0.000449005
0.000491604
0.000558589
0.00061195
0.000703786
0.000770282
0.000893229
0.000963253
0.00107401
0.0011412
0.00144173
0.00140867
0.00182452
0.00165538
0.00236459
0.00200893
0.00416862
0.00835734
0.0862949
0.000355775
0.000401852
0.000433984
0.000495268
0.000529292
0.000605558
0.000626281
0.000714272
0.000767684
0.000950513
0.00090677
0.0010853
0.000985149
0.00135408
0.0013028
0.00165812
0.00184237
0.00238938
0.00222939
0.0499928
0.000268646
0.000295059
0.000332483
0.000370899
0.000421611
0.000465301
0.00056767
0.000618215
0.000631692
0.000692378
0.00082349
0.000902748
0.00101114
0.00104865
0.00112544
0.00110091
0.00122848
0.000967478
0.00210666
0.0241041
0.000228639
0.000249278
0.000275453
0.000309075
0.000343849
0.000385831
0.000339581
0.000399289
0.000496152
0.000532953
0.000489139
0.000585506
0.000616445
0.000776322
0.000758458
0.000764459
0.000804804
0.000903335
0.000923739
0.011892
0.00011987
0.000145752
0.000170546
0.000217904
0.000247063
0.000309145
0.000405681
0.000445985
0.000457324
0.000458764
0.000593914
0.000662261
0.000708097
0.000787672
0.000823082
0.000939036
0.000966356
0.000824882
0.00147169
0.00382426
0.0138864
0.0138729
0.0137677
0.0138483
0.0137284
0.0135845
0.0136259
0.0137077
0.0129393
0.0131195
0.0123705
0.0121238
0.0122123
0.0111558
0.0108957
0.00997097
0.00976176
0.00908545
0.00919369
0.00781969
0.00700008
0.00699595
0.00695615
0.0069573
0.006784
0.00684473
0.00671941
0.00663883
0.00663141
0.00642911
0.00634278
0.00761253
0.00735661
0.00684839
0.0061672
0.00668274
0.00652561
0.00682242
0.00656015
0.00724861
0.0043377
0.00435223
0.00437496
0.00438092
0.00444755
0.00450821
0.0044347
0.00459111
0.00448708
0.00457996
0.00463058
0.00434413
0.00396743
0.00409843
0.00403313
0.00420892
0.00380952
0.00396673
0.00352206
0.00374722
0.00277522
0.00276712
0.00275861
0.00275295
0.00275272
0.00270241
0.00269593
0.00267945
0.00264349
0.00258534
0.00241441
0.00258665
0.00275553
0.00289192
0.00278993
0.00286793
0.00265974
0.00293561
0.00267839
0.00295909
0.00175528
0.00175529
0.00175717
0.00175715
0.00175999
0.00175365
0.0017596
0.00177643
0.00177751
0.00182687
0.00195998
0.0019934
0.00186475
0.00189518
0.00184302
0.00186511
0.00178047
0.00187079
0.00172656
0.00174072
0.00126236
0.0012629
0.00126354
0.00126143
0.00125937
0.00125196
0.00125925
0.00125997
0.00125919
0.00126246
0.00123937
0.00123524
0.00125271
0.00131521
0.00129072
0.00132739
0.00127323
0.00138589
0.0013039
0.00128101
0.000786213
0.000785594
0.000785578
0.000783841
0.000781198
0.000783561
0.000790184
0.000794785
0.000796854
0.000797794
0.000806454
0.000837743
0.000859413
0.000893691
0.000874437
0.000881345
0.000844834
0.000905304
0.000820722
0.000743357
0.000576825
0.000575778
0.000575611
0.000574272
0.000575496
0.000582397
0.000588433
0.000593546
0.000592312
0.000592708
0.000595856
0.000615466
0.000640037
0.000671413
0.000659696
0.000662676
0.000620636
0.000657763
0.00059796
0.000555557
0.000326765
0.000325491
0.000324137
0.000324007
0.000327448
0.000332875
0.000336446
0.000340371
0.000337813
0.00033906
0.00034138
0.000364121
0.000398487
0.000440587
0.000437875
0.000439469
0.000397855
0.000434097
0.000381302
0.000306787
0.000222382
0.000221105
0.000219978
0.000223068
0.000228972
0.000234851
0.000236957
0.00024196
0.00023872
0.000241401
0.000241358
0.000254694
0.000264952
0.000292246
0.000281961
0.000280999
0.000237288
0.000220092
0.000276172
0.000315101
8.66249e-05
8.59204e-05
8.56979e-05
8.84163e-05
9.58447e-05
9.90384e-05
0.00010628
0.000115471
0.000118783
0.000122654
0.000129399
0.000145568
0.000164673
0.000207477
0.000202754
0.000223259
0.000156905
0.000168254
0.000148415
0.000128724
2.3704e-05
2.22204e-05
1.95103e-05
2.71352e-05
3.71776e-05
4.76596e-05
5.2462e-05
5.70381e-05
5.89574e-05
6.60859e-05
7.63074e-05
9.09231e-05
0.00010503
0.000110344
0.000111467
0.000137051
0.000128162
0.000130115
0.00015936
0.000174669
2.34909e-05
2.27955e-05
1.24235e-05
2.16143e-05
3.24255e-05
3.84598e-05
4.83846e-05
5.87648e-05
5.30721e-05
5.62359e-05
5.20436e-05
5.23978e-05
5.88729e-05
5.96419e-05
6.19478e-05
7.16019e-05
8.54408e-05
9.73807e-05
8.9726e-05
0.000101893
5.52173e-05
5.60715e-05
5.58889e-05
5.69826e-05
5.61996e-05
5.60411e-05
5.69599e-05
5.68165e-05
5.7814e-05
6.2309e-05
6.65148e-05
6.65929e-05
8.76248e-05
8.31075e-05
7.01939e-05
7.61481e-05
9.80719e-05
6.61588e-05
7.10173e-05
7.38335e-05
6.87427e-05
6.26374e-05
6.16085e-05
6.28549e-05
6.61948e-05
6.64982e-05
7.05688e-05
7.66416e-05
7.66005e-05
7.11623e-05
7.23352e-05
6.81085e-05
7.29806e-05
7.28353e-05
8.14335e-05
7.55227e-05
8.07199e-05
9.19012e-05
9.65204e-05
0.000103959
7.07682e-05
6.85751e-05
6.69277e-05
6.85591e-05
7.25218e-05
7.51104e-05
7.76651e-05
7.70859e-05
7.42617e-05
7.51334e-05
7.9192e-05
8.28804e-05
7.90335e-05
7.56482e-05
8.45926e-05
9.08816e-05
8.68586e-05
8.04382e-05
8.90908e-05
8.89991e-05
6.03241e-05
6.12276e-05
6.19631e-05
6.36987e-05
6.52858e-05
6.79578e-05
7.74054e-05
7.13745e-05
6.37592e-05
6.31571e-05
6.31998e-05
6.40095e-05
6.58388e-05
6.73772e-05
7.94726e-05
7.77833e-05
7.63659e-05
7.58591e-05
8.05708e-05
8.33983e-05
4.19556e-05
4.28894e-05
4.23107e-05
4.48561e-05
4.44118e-05
4.93963e-05
5.63309e-05
5.73555e-05
5.80519e-05
5.86397e-05
5.93548e-05
5.81134e-05
5.89428e-05
6.17628e-05
5.91729e-05
5.41585e-05
5.78971e-05
5.75143e-05
6.08124e-05
6.166e-05
3.05465e-05
3.10091e-05
3.17685e-05
3.27089e-05
3.24782e-05
3.19864e-05
2.80826e-05
2.82787e-05
2.95694e-05
3.32082e-05
3.73016e-05
3.60889e-05
4.04027e-05
3.94233e-05
4.27813e-05
4.62134e-05
4.80364e-05
4.92251e-05
5.09924e-05
5.21024e-05
7.71402e-06
9.42588e-06
1.06021e-05
1.17276e-05
1.2495e-05
1.28968e-05
1.41129e-05
1.63001e-05
1.70934e-05
1.88373e-05
1.84464e-05
1.9745e-05
2.07531e-05
2.14968e-05
2.27534e-05
2.39632e-05
2.42298e-05
2.55591e-05
2.63615e-05
2.78061e-05
0.000960895
0.00116868
0.000816198
0.000871014
0.000909112
0.000918321
0.000944098
0.000962615
0.00099146
0.00102123
0.00108504
0.00111532
0.0011584
0.00118069
0.00127605
0.00130829
0.00127015
0.00202888
0.00696295
0.0181408
0.000911917
0.000992749
0.000733206
0.000815757
0.000883762
0.000906026
0.000945245
0.000978827
0.00101084
0.00105436
0.00110674
0.0011369
0.0011831
0.00120625
0.00126701
0.00129054
0.00131577
0.0015674
0.005909
0.0178504
0.000946646
0.00110219
0.000806432
0.000859911
0.000921907
0.000942819
0.000972329
0.00100035
0.00103369
0.0010704
0.00112573
0.00115097
0.00119578
0.0012177
0.00132005
0.00131527
0.00139422
0.00124725
0.00496708
0.0175219
0.00101947
0.00111918
0.000806405
0.0008752
0.000923571
0.000942183
0.000974363
0.00100825
0.00104272
0.0010891
0.00112898
0.00115976
0.00120555
0.00124165
0.00130684
0.00129927
0.00141806
0.00119157
0.00408215
0.0171158
0.00100353
0.00113347
0.00084918
0.000890763
0.000948463
0.00098097
0.00100768
0.00104238
0.00107644
0.00111112
0.00115667
0.00118597
0.00123489
0.00126295
0.00134973
0.00134813
0.00147051
0.00125577
0.0038018
0.0166298
0.001075
0.0011747
0.000867479
0.000928535
0.000989983
0.000997005
0.00101778
0.00105076
0.00107757
0.00112353
0.00115535
0.0011976
0.00124096
0.00128849
0.00135372
0.00135361
0.00148809
0.00132379
0.00478487
0.0160174
0.00106275
0.00112861
0.000860045
0.000937692
0.000971167
0.000992486
0.00102771
0.00106531
0.00109868
0.00113414
0.00117965
0.00121862
0.00126601
0.00130867
0.00137846
0.00140682
0.00154599
0.00142683
0.00445992
0.0154979
0.00108652
0.00113419
0.000905791
0.000968225
0.00101056
0.00103953
0.00106099
0.00108256
0.0010986
0.00115208
0.00118081
0.00123059
0.00126726
0.0013228
0.00138179
0.00140535
0.00153035
0.00140889
0.00409366
0.0145093
0.00102879
0.00109197
0.000903728
0.000952198
0.000992237
0.00100613
0.00101616
0.00104176
0.00109385
0.00114228
0.00118476
0.00122941
0.00126802
0.00133161
0.00137402
0.00144188
0.00155378
0.00146255
0.00334119
0.013261
0.00106679
0.00110631
0.000924664
0.000967179
0.000999815
0.00101546
0.00103756
0.00109756
0.00113503
0.00117947
0.00119412
0.00124142
0.00127834
0.00132939
0.00136702
0.0014369
0.00146335
0.00146894
0.00263728
0.010833
0.00101519
0.00102742
0.000888339
0.000932073
0.000967728
0.000990162
0.00103528
0.00106585
0.00109782
0.00112071
0.0011605
0.00122384
0.00124929
0.00131424
0.0013641
0.00142824
0.00146332
0.00152765
0.00222961
0.00888277
0.00100402
0.00102061
0.000916451
0.000953954
0.000987953
0.00102709
0.00104662
0.00109273
0.00112187
0.00117424
0.00122127
0.00125361
0.00127459
0.00134416
0.00136182
0.00141615
0.00143834
0.00149678
0.00188644
0.00704259
0.00097269
0.000985739
0.000904662
0.00093153
0.000992152
0.00100483
0.00105293
0.00109041
0.00112395
0.00116211
0.00117328
0.00120634
0.00124655
0.00131842
0.0013385
0.00141303
0.00142262
0.00151612
0.00172361
0.00597912
0.000929165
0.000968122
0.000907471
0.000966314
0.00100533
0.00103789
0.00108333
0.00110012
0.00113685
0.00115262
0.00118958
0.00123993
0.00129119
0.00134115
0.001336
0.00140002
0.00143875
0.00154922
0.00163685
0.00497971
0.000993939
0.00102459
0.000969278
0.00100918
0.00102711
0.00106011
0.00106365
0.00109062
0.00111061
0.00114005
0.00118726
0.00122468
0.00126254
0.00128209
0.00131373
0.00144374
0.00146379
0.00152344
0.00155146
0.00446386
0.000951549
0.000982924
0.000933227
0.000961385
0.00099603
0.00101023
0.00103229
0.00106945
0.0010955
0.0011471
0.00118393
0.00122637
0.00126819
0.00132033
0.00141865
0.00149043
0.00146841
0.00156141
0.00163131
0.00446623
0.000940427
0.000974445
0.000937154
0.000978803
0.00101474
0.00103524
0.00107654
0.00110883
0.00115169
0.00119446
0.00122648
0.00127206
0.00131297
0.00136447
0.00140262
0.00137947
0.00139665
0.00144404
0.0015413
0.00370331
0.000924142
0.000968057
0.000929438
0.00097739
0.00100781
0.00103446
0.00106748
0.00109356
0.00113446
0.00115422
0.0011982
0.00122787
0.0012715
0.0013033
0.00133692
0.00137912
0.00147442
0.00155796
0.00168625
0.00350149
0.000913096
0.000960934
0.000927665
0.000979244
0.00101107
0.00104201
0.00107316
0.00110932
0.00114621
0.00117949
0.00122837
0.00125798
0.0013105
0.00134366
0.00140671
0.00146853
0.00154902
0.00155676
0.00163186
0.00262083
0.000921527
0.000972711
0.000938008
0.00099207
0.00102305
0.00105284
0.00107974
0.00111679
0.00114218
0.00118135
0.0012058
0.00124494
0.0012713
0.00131612
0.00135001
0.00138613
0.00142356
0.00147394
0.00158486
0.00212019
0.000238962
0.000167342
0.000206616
0.000222796
0.000198557
0.000118949
0.000115604
0.000295822
0.000210779
0.000131742
4.07921e-05
0.000455684
0.00163745
0.00435185
0.00852401
0.0107346
0.00775332
0.00334519
0.000531094
0.000495269
0.00028801
0.000219517
0.000208093
0.00020468
0.000254573
0.000224745
0.00016506
0.000214751
0.000309718
0.000223715
0.000128458
7.05852e-05
0.000570146
0.00215937
0.00556017
0.00970613
0.0103649
0.00608924
0.00157163
7.65227e-05
0.000289435
0.000266113
0.000273645
0.000202723
0.000197613
0.000242921
0.00025284
0.000186805
0.000221956
0.000307012
0.000251942
0.00012536
6.56876e-05
0.000847621
0.00320676
0.00739431
0.010908
0.00879157
0.00373445
0.000267878
0.000309099
0.000258417
0.000310644
0.000292493
0.000262785
0.000221262
0.000252907
0.000265967
0.000236914
0.000271405
0.000323421
0.000242955
8.25504e-05
0.000125092
0.00147064
0.00514774
0.00967855
0.0105533
0.00642214
0.000665164
0.000342861
0.000287326
0.000283034
0.00028082
0.000297672
0.000274869
0.000282069
0.0002481
0.000287312
0.000277519
0.000331514
0.000339694
0.000242536
0.000140234
0.000444011
0.00285472
0.00790521
0.0113048
0.00865778
0.00193422
0.000366206
0.000344805
0.000365149
0.000325179
0.000331325
0.000283105
0.000327227
0.000324332
0.000287779
0.000318377
0.000339076
0.000374191
0.000351463
0.000246201
0.000169156
0.0012922
0.00601822
0.0110773
0.0098726
0.00263881
0.00039177
0.000358687
0.000367766
0.000337839
0.000385734
0.000340343
0.000337373
0.000340212
0.000365109
0.000338816
0.000394126
0.000410522
0.00039634
0.000367992
0.000174917
0.000342643
0.00377129
0.00996775
0.0111664
0.00497864
0.000415539
0.000414201
0.000444165
0.000366229
0.000407265
0.000373375
0.000406556
0.000402828
0.00038102
0.000406099
0.000426426
0.000472047
0.0005057
0.000475596
0.000362263
0.000248687
0.0019398
0.00882675
0.0117263
0.00715025
0.000430816
0.000416534
0.000463105
0.000402574
0.000463418
0.000423494
0.000418195
0.000444415
0.000465863
0.000439773
0.00049624
0.00052662
0.00050915
0.000598274
0.000559538
0.000266758
0.000769196
0.00767986
0.0120398
0.00953489
0.000469094
0.000472179
0.000528652
0.000436994
0.000486152
0.00047416
0.000495755
0.000496604
0.00049255
0.000514626
0.000539087
0.000604067
0.000627446
0.000637284
0.00063176
0.000422034
0.000425049
0.00566383
0.0118651
0.0120757
0.000497792
0.000476351
0.000546012
0.000481615
0.000535666
0.000514132
0.000511171