/*--------------------------------*- C++ -*----------------------------------*\
  =========                 |
  \\      /  F ield         | OpenFOAM: The Open Source CFD Toolbox
   \\    /   O peration     | Website:  https://openfoam.org
    \\  /    A nd           | Version:  9
     \\/     M anipulation  |
\*---------------------------------------------------------------------------*/
FoamFile
{
    format      ascii;
    class       surfaceScalarField;
    location    "3.4";
    object      phi;
}
// * * * * * * * * * * * * * * * * * * * * * * * * * * * * * * * * * * * * * //

dimensions      [0 3 -1 0 0 0 0];

internalField   nonuniform List<scalar> 
92080
(
0.00123161
-0.424554
0.423322
-0.0154499
-0.866081
0.882762
-0.0504519
-0.951389
0.986391
-0.0865087
-0.937118
0.973175
-0.121519
-0.922195
0.957205
-0.156018
-0.908439
0.942938
-0.189842
-0.895541
0.929366
-0.223809
-0.881359
0.915326
-0.257458
-0.870971
0.90462
-0.290496
-0.860734
0.893773
-0.32332
-0.850536
0.883359
-0.356132
-0.84158
0.874393
-0.38868
-0.833992
0.86654
-0.420618
-0.825812
0.85775
-0.45237
-0.818714
0.850466
-0.484183
-0.811192
0.843005
-0.515516
-0.805049
0.836383
-0.545887
-0.798106
0.828478
-0.575408
-0.790472
0.819993
-0.785717
0.81325
-0.602941
-0.000840947
-0.423713
-0.0212587
-0.845663
-0.0573846
-0.915263
-0.094478
-0.900024
-0.13117
-0.885503
-0.167715
-0.871894
-0.203513
-0.859743
-0.238848
-0.846024
-0.274426
-0.835393
-0.309593
-0.825567
-0.344498
-0.815631
-0.379408
-0.80667
-0.413687
-0.799713
-0.447758
-0.791741
-0.481126
-0.785345
-0.513638
-0.778681
-0.545745
-0.772943
-0.576606
-0.767244
-0.605982
-0.761097
-0.756771
-0.634927
-0.00327111
-0.420442
-0.0278903
-0.821044
-0.067773
-0.875381
-0.107747
-0.86005
-0.146794
-0.846456
-0.18531
-0.833378
-0.223147
-0.821907
-0.260817
-0.808354
-0.298077
-0.798134
-0.33468
-0.788964
-0.3708
-0.779511
-0.407176
-0.770294
-0.443379
-0.763509
-0.478806
-0.756314
-0.514264
-0.749887
-0.549594
-0.743351
-0.584354
-0.738183
-0.617958
-0.73364
-0.65103
-0.728025
-0.72357
-0.684231
-0.005109
-0.415333
-0.0342952
-0.791857
-0.0745091
-0.835167
-0.115136
-0.819423
-0.155533
-0.806059
-0.19577
-0.793141
-0.235062
-0.782614
-0.273741
-0.769675
-0.313007
-0.758868
-0.35173
-0.75024
-0.389597
-0.741644
-0.427365
-0.732526
-0.465092
-0.725782
-0.5027
-0.718706
-0.539352
-0.713236
-0.575764
-0.706939
-0.61323
-0.700717
-0.650004
-0.696866
-0.685259
-0.69277
-0.687993
-0.720836
-0.00335418
-0.411978
-0.0386418
-0.75657
-0.0821087
-0.7917
-0.125394
-0.776138
-0.167982
-0.763471
-0.2102
-0.750923
-0.251909
-0.740906
-0.292876
-0.728707
-0.333447
-0.718297
-0.374038
-0.70965
-0.41373
-0.701952
-0.453265
-0.692991
-0.492592
-0.686455
-0.5316
-0.679698
-0.570878
-0.673958
-0.608362
-0.669455
-0.645613
-0.663466
-0.684332
-0.658146
-0.722224
-0.654878
-0.651094
-0.759124
2.12221e-05
-0.412
-0.037884
-0.718664
-0.0835887
-0.745995
-0.129034
-0.730693
-0.173966
-0.718539
-0.218323
-0.706566
-0.261424
-0.697805
-0.303655
-0.686476
-0.346127
-0.675825
-0.388187
-0.667589
-0.429386
-0.660753
-0.470118
-0.652259
-0.511065
-0.645508
-0.551596
-0.639167
-0.592452
-0.633102
-0.633733
-0.628174
-0.673257
-0.623942
-0.712732
-0.618672
-0.753163
-0.614447
-0.611119
-0.793137
0.000981871
-0.412982
-0.0402454
-0.677437
-0.0899744
-0.696266
-0.13808
-0.682587
-0.184945
-0.671674
-0.231315
-0.660196
-0.276985
-0.652135
-0.321065
-0.642396
-0.364573
-0.632317
-0.40867
-0.623493
-0.451494
-0.617929
-0.493408
-0.610345
-0.535085
-0.603831
-0.576234
-0.598017
-0.616942
-0.592395
-0.657716
-0.5874
-0.698832
-0.582825
-0.73872
-0.578784
-0.778938
-0.574229
-0.570559
-0.819498
0.00177621
-0.414758
-0.0414586
-0.634202
-0.0929818
-0.644743
-0.142792
-0.632777
-0.191607
-0.622859
-0.239433
-0.61237
-0.286025
-0.605544
-0.331413
-0.597008
-0.376038
-0.587692
-0.421063
-0.578467
-0.466067
-0.572925
-0.509603
-0.566809
-0.553284
-0.56015
-0.596664
-0.554637
-0.639849
-0.54921
-0.68259
-0.544659
-0.724849
-0.540566
-0.766979
-0.536653
-0.807835
-0.533374
-0.529439
-0.848955
-0.00203302
-0.412725
-0.0494413
-0.586794
-0.103113
-0.591071
-0.154248
-0.581642
-0.203898
-0.573209
-0.25322
-0.563048
-0.3019
-0.556863
-0.348294
-0.550614
-0.39301
-0.542976
-0.438204
-0.533273
-0.483815
-0.527314
-0.528049
-0.522574
-0.571094
-0.517106
-0.613907
-0.511824
-0.656512
-0.506605
-0.699555
-0.501615
-0.742641
-0.49748
-0.785563
-0.493732
-0.828376
-0.490561
-0.487918
-0.869897
-0.00962449
-0.4031
-0.0579375
-0.538481
-0.11085
-0.538159
-0.162634
-0.529857
-0.213284
-0.52256
-0.26287
-0.513462
-0.31244
-0.507293
-0.36131
-0.501744
-0.407388
-0.496898
-0.452417
-0.488244
-0.499527
-0.480204
-0.546678
-0.475423
-0.592916
-0.470867
-0.63785
-0.466891
-0.681645
-0.46281
-0.724705
-0.458555
-0.767826
-0.454359
-0.811027
-0.450531
-0.854483
-0.447105
-0.444095
-0.898305
-0.0191795
-0.383921
-0.069602
-0.488059
-0.122627
-0.485134
-0.173948
-0.478537
-0.224393
-0.472115
-0.274791
-0.463063
-0.324986
-0.457099
-0.37468
-0.45205
-0.422695
-0.448883
-0.466914
-0.444025
-0.51072
-0.436398
-0.556308
-0.429835
-0.602357
-0.424818
-0.648907
-0.420341
-0.694741
-0.416976
-0.739648
-0.413648
-0.783521
-0.410486
-0.826735
-0.407317
-0.869492
-0.404349
-0.401489
-0.912098
-0.0265125
-0.357408
-0.078147
-0.436424
-0.132213
-0.431068
-0.185038
-0.425712
-0.235798
-0.421354
-0.285398
-0.413463
-0.335657
-0.40684
-0.387097
-0.40061
-0.438589
-0.397391
-0.487909
-0.394705
-0.533606
-0.3907
-0.578227
-0.385215
-0.623174
-0.379871
-0.668382
-0.375133
-0.714721
-0.370637
-0.76107
-0.3673
-0.807614
-0.363942
-0.853657
-0.361274
-0.899355
-0.358651
-0.356261
-0.944582
-0.0332818
-0.324127
-0.0856443
-0.384062
-0.13927
-0.377442
-0.192565
-0.372417
-0.244711
-0.369208
-0.295528
-0.362646
-0.34448
-0.357889
-0.393558
-0.351532
-0.444325
-0.346624
-0.495062
-0.343969
-0.544692
-0.34107
-0.591453
-0.338453
-0.636822
-0.334502
-0.681106
-0.330849
-0.724877
-0.326865
-0.769128
-0.323048
-0.813263
-0.319807
-0.85819
-0.316347
-0.90295
-0.313891
-0.310896
-0.948316
-0.0390774
-0.285049
-0.0927256
-0.330413
-0.147614
-0.322553
-0.202657
-0.317374
-0.25504
-0.316825
-0.306646
-0.31104
-0.358298
-0.306237
-0.407594
-0.302236
-0.457666
-0.296552
-0.508473
-0.293161
-0.559554
-0.289989
-0.61048
-0.287528
-0.659467
-0.285515
-0.707533
-0.282784
-0.753695
-0.280703
-0.799
-0.277743
-0.843298
-0.27551
-0.886979
-0.272666
-0.930375
-0.270495
-0.268031
-0.97324
-0.0418617
-0.243187
-0.097011
-0.275264
-0.151352
-0.268213
-0.207149
-0.261578
-0.261957
-0.262017
-0.31243
-0.260566
-0.36261
-0.256057
-0.411886
-0.25296
-0.459671
-0.248768
-0.508185
-0.244648
-0.556704
-0.24147
-0.606208
-0.238024
-0.655955
-0.235768
-0.705492
-0.233247
-0.754863
-0.231333
-0.803361
-0.229244
-0.851459
-0.227412
-0.898644
-0.22548
-0.945434
-0.223705
-0.221799
-0.991666
-0.045331
-0.197856
-0.103073
-0.217522
-0.156483
-0.214803
-0.212404
-0.205656
-0.271698
-0.202722
-0.328819
-0.203446
-0.382922
-0.201954
-0.435441
-0.20044
-0.485696
-0.198513
-0.534472
-0.195871
-0.582291
-0.193651
-0.629397
-0.190918
-0.676455
-0.18871
-0.723445
-0.186257
-0.770386
-0.184392
-0.817426
-0.182204
-0.864194
-0.180644
-0.911023
-0.178651
-0.957476
-0.177252
-0.175402
-1.00387
-0.0502304
-0.147626
-0.107959
-0.159793
-0.159481
-0.163282
-0.207367
-0.15777
-0.258481
-0.151608
-0.312688
-0.14924
-0.367096
-0.147546
-0.421597
-0.145939
-0.475179
-0.144932
-0.527899
-0.143151
-0.57938
-0.14217
-0.629955
-0.140343
-0.679338
-0.139327
-0.728143
-0.137451
-0.776114
-0.136421
-0.823669
-0.13465
-0.870703
-0.13361
-0.91733
-0.132024
-0.963585
-0.130998
-0.129472
-1.00951
-0.0500947
-0.0975313
-0.115063
-0.0948246
-0.178075
-0.10027
-0.234941
-0.100903
-0.286579
-0.0999698
-0.338434
-0.0973853
-0.389235
-0.0967447
-0.440362
-0.0948118
-0.490969
-0.094325
-0.541394
-0.0927254
-0.591466
-0.0920976
-0.641033
-0.090776
-0.690304
-0.0900559
-0.73883
-0.0889252
-0.787115
-0.088136
-0.834647
-0.0871184
-0.881947
-0.0863102
-0.928607
-0.0853629
-0.975015
-0.0845905
-0.0837447
-1.02074
-0.0493143
-0.0482171
-0.099628
-0.0445109
-0.155991
-0.0439067
-0.214046
-0.0428492
-0.270407
-0.0436084
-0.324986
-0.0428063
-0.379081
-0.0426501
-0.432036
-0.0418565
-0.484785
-0.0415763
-0.536329
-0.0411808
-0.587667
-0.0407597
-0.638003
-0.0404396
-0.688048
-0.0400109
-0.737333
-0.0396404
-0.786199
-0.0392705
-0.834462
-0.0388554
-0.882239
-0.038533
-0.929495
-0.0381069
-0.976274
-0.0378113
-0.0373102
-1.02271
-0.0734514
0.0252343
-0.124489
0.00652652
-0.180561
0.0121654
-0.23203
0.00862025
-0.286673
0.0110346
-0.338786
0.00930619
-0.392092
0.0106565
-0.443474
0.00952561
-0.495236
0.0101851
-0.545684
0.00926781
-0.596149
0.00970441
-0.645688
0.00909934
-0.69506
0.00936207
-0.743659
0.00895806
-0.792034
0.00910501
-0.839667
0.00877737
-0.887047
0.00884662
-0.933687
0.00853324
-0.98004
0.00854165
-1.02548
0.00813201
-0.0110985
0.0504162
-0.0393177
0.00359936
0.0422891
-0.056987
0.0700283
-0.0472818
-0.0191471
0.23606
-0.275017
0.108985
0.468819
-0.616043
0.383284
0.654964
-0.876006
0.689862
0.755415
-1.0102
0.909749
0.802512
-1.05991
1.01281
0.827196
-1.07532
1.05064
0.842505
-1.07857
1.06326
0.854375
-1.07822
1.06635
0.863313
-1.07555
1.06661
0.87122
-1.07316
1.06525
0.880128
-1.0713
1.06239
0.889519
-1.07157
1.06218
0.897615
-1.06992
1.06182
0.904715
-1.06959
1.0625
0.911989
-1.06826
1.06098
0.919643
-1.06876
1.06111
-1.06683
0.926164
1.06031
-0.00300688
0.0534231
0.0349872
0.00429502
0.136879
-0.149174
0.349159
-0.487297
0.5422
-0.809084
0.656426
-0.990233
0.70935
-1.06312
0.734267
-1.08483
0.748102
-1.08915
0.758076
-1.08855
0.765762
-1.08591
0.772062
-1.08185
0.779377
-1.08047
0.786808
-1.07873
0.793107
-1.07786
0.799163
-1.07598
0.805495
-1.07593
0.811542
-1.0743
0.816416
-1.07363
-1.07082
0.820411
0.00799625
0.0454268
0.064354
-0.0520628
0.214678
-0.299497
0.411086
-0.683705
0.543211
-0.94121
0.610173
-1.05719
0.638791
-1.09174
0.653069
-1.09911
0.662412
-1.0985
0.669311
-1.09544
0.674562
-1.09116
0.680822
-1.08811
0.687047
-1.0867
0.692401
-1.08408
0.697659
-1.08312
0.702985
-1.0813
0.707796
-1.08074
0.710916
-1.07742
0.713737
-1.07645
-1.07373
0.716647
0.0265614
0.0188654
0.100143
-0.125645
0.276067
-0.475421
0.430852
-0.838491
0.518347
-1.0287
0.553149
-1.092
0.56849
-1.10708
0.577168
-1.10778
0.582914
-1.10424
0.586969
-1.0995
0.591579
-1.09577
0.596254
-1.09278
0.600192
-1.09064
0.604124
-1.08802
0.607659
-1.08666
0.610541
-1.08418
0.61233
-1.08253
0.614156
-1.07925
0.616138
-1.07843
-1.07476
0.617167
0.0404964
-0.0216309
0.129775
-0.214923
0.294217
-0.639863
0.406915
-0.951188
0.457905
-1.07969
0.478724
-1.11282
0.488498
-1.11686
0.494184
-1.11347
0.497724
-1.10778
0.501749
-1.10352
0.505307
-1.09933
0.508501
-1.09598
0.511441
-1.09358
0.513784
-1.09036
0.515612
-1.08849
0.517036
-1.08561
0.517994
-1.08349
0.518919
-1.08017
0.519191
-1.07871
-1.07387
0.518295
0.0376858
-0.0593168
0.15429
-0.331527
0.29099
-0.776564
0.368834
-1.02903
0.399996
-1.11086
0.41177
-1.12459
0.417843
-1.12293
0.420831
-1.11646
0.423852
-1.1108
0.42621
-1.10588
0.428009
-1.10113
0.429627
-1.0976
0.430369
-1.09432
0.430815
-1.0908
0.4308
-1.08847
0.430127
-1.08493
0.428754
-1.08211
0.427136
-1.07856
0.42504
-1.07661
-1.07093
0.422103
0.0351527
-0.0944695
0.155683
-0.452057
0.259653
-0.880534
0.31254
-1.08192
0.330582
-1.1289
0.338068
-1.13208
0.342223
-1.12708
0.344269
-1.1185
0.346086
-1.11262
0.347167
-1.10696
0.347751
-1.10171
0.347666
-1.09751
0.347094
-1.09375
0.345978
-1.08969
0.344167
-1.08666
0.341868
-1.08264
0.339232
-1.07948
0.336528
-1.07585
0.333151
-1.07323
-1.06633
0.32855
0.0387763
-0.133246
0.14494
-0.558221
0.227348
-0.962941
0.262105
-1.11668
0.273414
-1.14021
0.278904
-1.13757
0.279926
-1.12811
0.280582
-1.11916
0.280667
-1.11271
0.279798
-1.10609
0.278152
-1.10006
0.276023
-1.09538
0.273055
-1.09078
0.269581
-1.08622
0.265612
-1.08269
0.261125
-1.07815
0.25611
-1.07446
0.250732
-1.07047
0.24467
-1.06717
-1.05955
0.237892
0.0430884
-0.176334
0.131829
-0.646961
0.191194
-1.02231
0.211072
-1.13655
0.216227
-1.14536
0.216774
-1.13811
0.215916
-1.12725
0.214648
-1.11789
0.212414
-1.11047
0.209342
-1.10302
0.205781
-1.0965
0.201526
-1.09113
0.196735
-1.08599
0.191445
-1.08092
0.185518
-1.07676
0.179121
-1.07175
0.17235
-1.06769
0.165337
-1.06346
0.15774
-1.05958
-1.05122
0.149412
0.0456367
-0.221971
0.115327
-0.716651
0.158157
-1.06514
0.168684
-1.14708
0.170137
-1.14682
0.167938
-1.13591
0.16499
-1.1243
0.160984
-1.11388
0.156322
-1.10581
0.150876
-1.09758
0.144714
-1.09034
0.137971
-1.08438
0.130528
-1.07854
0.122547
-1.07294
0.114107
-1.06832
0.105244
-1.06289
0.0959084
-1.05835
0.0861931
-1.05375
0.0759323
-1.04932
-1.04063
0.065336
0.042404
-0.264375
0.0988848
-0.773132
0.126488
-1.09274
0.128394
-1.14899
0.124487
-1.14291
0.118549
-1.12997
0.112206
-1.11796
0.105354
-1.10703
0.0977887
-1.09825
0.0895342
-1.08932
0.0808283
-1.08164
0.0715691
-1.07513
0.0618405
-1.06882
0.0516532
-1.06276
0.0409825
-1.05765
0.0299319
-1.05184
0.0185252
-1.04695
0.00685718
-1.04208
-0.0050858
-1.03737
-1.02839
-0.0173237
0.0362012
-0.300576
0.082471
-0.819402
0.0979153
-1.10818
0.0945206
-1.14559
0.0869045
-1.13529
0.0787425
-1.12181
0.0698104
-1.10903
0.0601352
-1.09736
0.0499196
-1.08803
0.0391275
-1.07853
0.0277844
-1.07029
0.0158834
-1.06322
0.00344989
-1.05638
-0.0094361
-1.04987
-0.0227241
-1.04436
-0.0364199
-1.03814
-0.0505527
-1.03281
-0.0648837
-1.02775
-0.07942
-1.02284
-1.01395
-0.093862
0.028641
-0.329217
0.0623404
-0.853101
0.0693011
-1.11514
0.0610697
-1.13736
0.0498965
-1.12412
0.0383101
-1.11023
0.0260214
-1.09674
0.0132332
-1.08457
-5.21818e-05
-1.07474
-0.0138876
-1.06469
-0.0281318
-1.05605
-0.0427271
-1.04863
-0.0577103
-1.0414
-0.0731189
-1.03446
-0.0888221
-1.02866
-0.104766
-1.0222
-0.12102
-1.01656
-0.137562
-1.0112
-0.153988
-1.00641
-0.997708
-0.170226
0.0262833
-0.3555
0.0511063
-0.877924
0.049022
-1.11306
0.0365254
-1.12487
0.0217881
-1.10938
0.00701313
-1.09545
-0.00819042
-1.08153
-0.023862
-1.0689
-0.0398799
-1.05873
-0.0562809
-1.04829
-0.0730916
-1.03924
-0.0903958
-1.03133
-0.108002
-1.02379
-0.12593
-1.01653
-0.144218
-1.01037
-0.162834
-1.00358
-0.181727
-0.997667
-0.20074
-0.992192
-0.219301
-0.98785
-0.97932
-0.237689
0.0190784
-0.374579
0.0341269
-0.892973
0.0253249
-1.10426
0.00854917
-1.10809
-0.00906918
-1.09176
-0.027012
-1.07751
-0.0453126
-1.06323
-0.0641042
-1.05011
-0.0831698
-1.03966
-0.102593
-1.02887
-0.12232
-1.01951
-0.142199
-1.01145
-0.162416
-1.00358
-0.182973
-0.995977
-0.203613
-0.989734
-0.224376
-0.98282
-0.24551
-0.976533
-0.26706
-0.970641
-0.288097
-0.966813
-0.958897
-0.30852
0.0168462
-0.391425
0.0265901
-0.902717
0.0119677
-1.08964
-0.00820659
-1.08792
-0.0290823
-1.07089
-0.0502324
-1.05636
-0.0716103
-1.04186
-0.0932401
-1.02848
-0.115051
-1.01785
-0.137075
-1.00685
-0.159423
-0.997163
-0.182149
-0.98872
-0.204916
-0.980809
-0.227935
-0.972958
-0.251279
-0.96639
-0.274777
-0.959322
-0.29834
-0.952971
-0.322198
-0.946782
-0.345931
-0.94308
-0.936148
-0.36868
0.0120729
-0.403498
0.0146492
-0.905293
-0.00538887
-1.0696
-0.0303467
-1.06296
-0.0549171
-1.04632
-0.0792889
-1.03199
-0.103544
-1.0176
-0.128184
-1.00384
-0.152841
-0.993192
-0.177596
-0.982092
-0.202519
-0.97224
-0.227477
-0.963762
-0.252734
-0.955552
-0.278197
-0.947495
-0.303594
-0.940992
-0.329093
-0.933823
-0.354914
-0.92715
-0.381234
-0.920462
-0.407544
-0.91677
-0.910964
-0.432728
0.0095274
-0.413025
0.00700852
-0.902774
-0.0165849
-1.046
-0.0430027
-1.03654
-0.069842
-1.01948
-0.0968722
-1.00496
-0.123867
-0.990605
-0.150949
-0.976755
-0.178113
-0.966029
-0.205335
-0.95487
-0.232844
-0.944731
-0.260584
-0.936022
-0.288143
-0.927993
-0.316052
-0.919586
-0.344314
-0.91273
-0.372518
-0.905619
-0.400563
-0.899105
-0.429151
-0.891874
-0.458699
-0.887221
-0.882083
-0.487581
0.00619836
-0.419224
-0.00127667
-0.895299
-0.0304619
-1.01682
-0.0615616
-1.00544
-0.0917703
-0.98927
-0.12168
-0.975047
-0.151152
-0.961133
-0.180959
-0.946948
-0.210648
-0.936339
-0.240148
-0.92537
-0.269742
-0.915137
-0.2994
-0.906363
-0.329213
-0.89818
-0.359052
-0.889747
-0.388989
-0.882792
-0.419279
-0.87533
-0.449748
-0.868636
-0.480419
-0.861204
-0.51265
-0.854989
-0.85045
-0.544283
0.0040986
-0.00843832
-0.0388668
-0.0711321
-0.103197
-0.135306
-0.167074
-0.198696
-0.230415
-0.262012
-0.29379
-0.325761
-0.357401
-0.389398
-0.421725
-0.45405
-0.486303
-0.519029
-0.554026
-0.591226
0.850418
-9.45606
9.53181
0.789809
-9.34318
9.40379
0.727258
-9.38129
9.44384
0.665637
-9.41177
9.47339
0.604996
-9.43025
9.49089
0.550899
-9.45445
9.50855
0.500372
-9.47431
9.52483
0.452267
-9.50691
9.55502
0.405811
-9.53183
9.57829
0.362423
-9.55267
9.59605
0.322516
-9.57408
9.61399
0.285647
-9.58446
9.62133
0.25191
-9.59606
9.6298
0.221048
-9.60008
9.63094
0.192338
-9.60308
9.63179
0.164415
-9.57251
9.60043
0.14197
-9.53586
9.5583
0.109344
-9.03088
9.06351
0.0555735
-7.38634
7.44011
-3.99969
4.05526
0.747431
-9.38308
0.688288
-9.28404
0.629418
-9.32242
0.575497
-9.35785
0.520846
-9.3756
0.469538
-9.40315
0.420403
-9.42517
0.375632
-9.46214
0.33485
-9.49105
0.297886
-9.5157
0.264426
-9.54062
0.233997
-9.55403
0.206949
-9.56902
0.183315
-9.57645
0.162123
-9.58189
0.141775
-9.55216
0.125925
-9.52001
0.0990854
-9.00404
0.0517425
-7.33899
-3.94795
0.649139
-9.31557
0.593083
-9.22798
0.535195
-9.26453
0.481602
-9.30426
0.432098
-9.3261
0.390153
-9.3612
0.351187
-9.38621
0.314204
-9.42516
0.279347
-9.45619
0.2477
-9.48406
0.219523
-9.51244
0.194366
-9.52887
0.172351
-9.547
0.15308
-9.55718
0.136215
-9.56502
0.120662
-9.53661
0.110042
-9.50939
0.0900602
-8.98406
0.0489583
-7.29789
-3.89899
0.547866
-9.24627
0.493592
-9.17371
0.44013
-9.21107
0.394031
-9.25816
0.34952
-9.28158
0.309846
-9.32153
0.272298
-9.34866
0.238557
-9.39142
0.209315
-9.42695
0.183964
-9.4587
0.162081
-9.49056
0.143179
-9.50997
0.127571
-9.53139
0.115299
-9.5449
0.105633
-9.55536
0.0978047
-9.52878
0.0938517
-9.50544
0.0797343
-8.96995
0.0452512
-7.26341
-3.85374
0.451916
-9.17989
0.40008
-9.12187
0.347125
-9.15811
0.302474
-9.21351
0.26418
-9.24329
0.232985
-9.29033
0.204658
-9.32033
0.178151
-9.36491
0.154714
-9.40351
0.134557
-9.43855
0.117822
-9.47383
0.104084
-9.49623
0.0935165
-9.52083
0.0856387
-9.53703
0.0805269
-9.55025
0.0772916
-9.52554
0.0782964
-9.50644
0.0710981
-8.96275
0.0426971
-7.23501
-3.81104
0.353437
-9.11123
0.302501
-9.07094
0.254983
-9.1106
0.21799
-9.17652
0.183581
-9.20888
0.153938
-9.26069
0.127094
-9.29349
0.103931
-9.34175
0.0860405
-9.38562
0.071985
-9.42449
0.0613602
-9.4632
0.0537176
-9.48859
0.0492793
-9.51639
0.0480079
-9.53575
0.0497129
-9.55195
0.0543597
-9.53019
0.0620865
-9.51417
0.0607833
-8.96144
0.0392052
-7.21343
-3.77184
0.260482
-9.04316
0.212048
-9.0225
0.165361
-9.06391
0.130107
-9.14126
0.101889
-9.18066
0.0797234
-9.23852
0.061316
-9.27508
0.0449929
-9.32543
0.0327065
-9.37334
0.0236843
-9.41547
0.0180508
-9.45757
0.0154098
-9.48595
0.015949
-9.51693
0.0192103
-9.53902
0.0256594
-9.5584
0.0345471
-9.53908
0.046952
-9.52657
0.0525688
-8.96706
0.0369503
-7.19781
-3.73489
0.165987
-8.97126
0.117318
-8.97383
0.0764643
-9.02306
0.0487086
-9.11351
0.0233073
-9.15526
0.002276
-9.21749
-0.0145462
-9.25826
-0.0273327
-9.31264
-0.0341974
-9.36647
-0.0373635
-9.4123
-0.0370931
-9.45784
-0.0338054
-9.48924
-0.0273549
-9.52338
-0.0179244
-9.54845
-0.00507143
-9.57125
0.0117445
-9.55589
0.0308819
-9.54571
0.0423944
-8.97857
0.0337235
-7.18914
-3.70116
0.0773203
-8.89917
0.0308345
-8.92735
-0.00980907
-8.98241
-0.0355388
-9.08778
-0.054957
-9.13584
-0.069247
-9.2032
-0.0781488
-9.24936
-0.0843995
-9.30639
-0.085941
-9.36493
-0.0842541
-9.41399
-0.0791797
-9.46291
-0.0710618
-9.49736
-0.0597937
-9.53465
-0.0457351
-9.5625
-0.0281093
-9.58888
-0.00743291
-9.57657
0.0161782
-9.56932
0.0345259
-8.99692
0.0318496
-7.18646
-3.66931
-0.0119799
-8.82185
-0.0588749
-8.88045
-0.0936728
-8.94762
-0.113792
-9.06766
-0.131159
-9.11848
-0.144491
-9.18987
-0.151707
-9.24214
-0.154325
-9.30377
-0.150688
-9.36857
-0.143418
-9.42126
-0.132666
-9.47367
-0.118828
-9.51119
-0.101849
-9.55162
-0.0819754
-9.58238
-0.0584003
-9.61245
-0.0299287
-9.60504
0.000448318
-9.5997
0.0246186
-9.02109
0.0289231
-7.19077
-3.64039
-0.0944228
-8.74475
-0.142155
-8.83272
-0.176659
-8.91311
-0.194946
-9.04937
-0.206441
-9.10698
-0.213214
-9.1831
-0.21293
-9.24242
-0.20925
-9.30745
-0.200592
-9.37722
-0.188663
-9.43319
-0.1733
-9.48903
-0.154824
-9.52967
-0.133211
-9.57324
-0.108799
-9.60679
-0.0805923
-9.64066
-0.0485724
-9.63706
-0.0139089
-9.63436
0.0169761
-9.05198
0.0272936
-7.20109
-3.6131
-0.175335
-8.66328
-0.224628
-8.78343
-0.255799
-8.88194
-0.26986
-9.03531
-0.279838
-9.097
-0.28549
-9.17745
-0.283566
-9.24435
-0.276325
-9.31469
-0.262819
-9.39073
-0.245595
-9.45041
-0.224814
-9.50981
-0.200865
-9.55362
-0.17378
-9.60032
-0.143803
-9.63677
-0.109991
-9.67447
-0.0706054
-9.67645
-0.029367
-9.6756
0.00726077
-9.0886
0.0246542
-7.21848
-3.58844
-0.254883
-8.57862
-0.303909
-8.7344
-0.335424
-8.85043
-0.347923
-9.02281
-0.35211
-9.09282
-0.351177
-9.17838
-0.342136
-9.25339
-0.3289
-9.32793
-0.310664
-9.40897
-0.288976
-9.4721
-0.263788
-9.535
-0.235413
-9.58199
-0.203915
-9.63182
-0.169614
-9.67107
-0.131453
-9.71263
-0.08879
-9.71911
-0.0432994
-9.72109
-0.00043622
-9.13147
0.0231311
-7.24205
-3.56531
-0.329497
-8.48681
-0.380182
-8.68372
-0.409759
-8.82085
-0.419399
-9.01317
-0.422243
-9.08997
-0.42001
-9.18061
-0.409439
-9.26396
-0.392792
-9.34458
-0.370052
-9.43171
-0.343362
-9.49879
-0.313041
-9.56532
-0.27948
-9.61555
-0.242789
-9.66851
-0.203175
-9.71068
-0.159741
-9.75607
-0.110219
-9.76863
-0.0583639
-9.77295
-0.00972689
-9.1801
0.0205935
-7.27237
-3.54472
-0.404822
-8.39051
-0.454883
-8.63366
-0.484847
-8.79088
-0.493734
-9.00428
-0.490935
-9.09277
-0.482123
-9.18942
-0.464995
-9.28109
-0.442824
-9.36675
-0.415639
-9.45889
-0.38468
-9.52975
-0.350165
-9.59983
-0.312411
-9.65331
-0.271566
-9.70936
-0.227896
-9.75435
-0.180441
-9.80352
-0.127999
-9.82107
-0.0721001
-9.82884
-0.0173263
-9.23488
0.0189164
-7.30861
-3.5258
-0.474019
-8.28517
-0.52632
-8.58135
-0.554392
-8.76281
-0.561213
-8.99746
-0.557391
-9.09659
-0.547187
-9.19963
-0.528637
-9.29964
-0.503246
-9.39214
-0.471872
-9.49026
-0.436205
-9.56542
-0.396871
-9.63917
-0.354257
-9.69592
-0.308558
-9.75506
-0.259899
-9.80301
-0.207443
-9.85598
-0.148677
-9.87984
-0.0868365
-9.89069
-0.0265626
-9.29515
0.0164548
-7.35163
-3.50935
-0.544959
-8.17294
-0.596251
-8.53006
-0.624427
-8.73464
-0.630827
-8.99106
-0.62152
-9.1059
-0.605063
-9.21608
-0.580703
-9.324
-0.550407
-9.42243
-0.51491
-9.52576
-0.475189
-9.60514
-0.431888
-9.68247
-0.385345
-9.74246
-0.335787
-9.80461
-0.283372
-9.85542
-0.227278
-9.91207
-0.165915
-9.9412
-0.10039
-9.95621
-0.03439
-9.36115
0.0146615
-7.40068
-3.49468
-0.613092
-8.04743
-0.66553
-8.47762
-0.690078
-8.71009
-0.69455
-8.98659
-0.684598
-9.11585
-0.666605
-9.23408
-0.640861
-9.34974
-0.607495
-9.4558
-0.568013
-9.56524
-0.523817
-9.64934
-0.475959
-9.73033
-0.424846
-9.79358
-0.37078
-9.85868
-0.313747
-9.91246
-0.252869
-9.97295
-0.185731
-10.0083
-0.114574
-10.0274
-0.043247
-9.43248
0.0122859
-7.45621
-3.4824
-0.670303
-7.92141
-0.729653
-8.41827
-0.754989
-8.68475
-0.759143
-8.98244
-0.744265
-9.13073
-0.720503
-9.25784
-0.689626
-9.38062
-0.65205
-9.49338
-0.608722
-9.60857
-0.560661
-9.6974
-0.509004
-9.78199
-0.454193
-9.84839
-0.396553
-9.91632
-0.336146
-9.97287
-0.27211
-10.037
-0.202688
-10.0778
-0.128232
-10.1018
-0.0515486
-9.50916
0.0103957
-7.51816
-3.472
-0.721907
-7.79073
-0.789422
-8.35076
-0.811151
-8.66302
-0.814803
-8.97878
-0.799939
-9.1456
-0.774589
-9.28319
-0.742841
-9.41236
-0.702891
-9.53333
-0.656455
-9.65501
-0.604477
-9.74937
-0.549054
-9.83741
-0.490165
-9.90728
-0.428791
-9.9777
-0.364143
-10.0375
-0.296149
-10.105
-0.221025
-10.1529
-0.142468
-10.1804
-0.059937
-9.59169
0.00744562
-7.58554
-3.46456
7.8699
-7.43433
-8.2263
7.25517
-7.73602
6.71037
-8.11823
6.08951
-8.35792
5.5491
-8.60519
5.06126
-8.79535
4.6242
-8.97531
4.21766
-9.12679
3.82861
-9.26596
3.46576
-9.38652
3.1186
-9.49025
2.78234
-9.57101
2.45226
-9.64762
2.13377
-9.71902
1.81168
-9.78289
1.51817
-9.85937
1.19016
-9.85236
0.818745
-9.22028
0.337361
-7.10415
-3.1272
4.58504
-7.36227
-4.6571
4.45613
-7.60711
4.24337
-7.90547
4.02348
-8.13803
3.78098
-8.36269
3.53424
-8.54861
3.2773
-8.71837
3.02029
-8.86978
2.761
-9.00667
2.49669
-9.12221
2.22768
-9.22124
1.97254
-9.31587
1.73023
-9.40531
1.50109
-9.48988
1.28152
-9.56333
1.0711
-9.64895
0.837251
-9.61852
0.570348
-8.95338
0.183479
-6.71728
-2.94372
3.28559
-7.46803
-3.17982
3.3408
-7.66232
3.32099
-7.88566
3.2582
-8.07524
3.1382
-8.24269
2.99161
-8.40202
2.82045
-8.54721
2.63856
-8.68788
2.44299
-8.8111
2.23973
-8.91895
2.03663
-9.01814
1.83405
-9.11329
1.62731
-9.19858
1.41747
-9.28004
1.20302
-9.34888
0.976129
-9.42206
0.748768
-9.39116
0.516394
-8.721
0.228819
-6.42971
-2.7149
2.08316
-7.63582
-1.91538
2.19368
-7.77285
2.21634
-7.90832
2.20208
-8.06098
2.15855
-8.19916
2.09007
-8.33354
1.99576
-8.4529
1.87741
-8.56954
1.74152
-8.67521
1.5979
-8.77532
1.44806
-8.86831
1.2937
-8.95892
1.13607
-9.04095
0.977921
-9.12189
0.820227
-9.19118
0.665409
-9.26724
0.516407
-9.24216
0.370841
-8.57544
0.167378
-6.22625
-2.54752
1.46477
-7.7777
-1.32288
1.55955
-7.86763
1.62617
-7.97494
1.66452
-8.09933
1.66465
-8.19928
1.6363
-8.30518
1.58499
-8.4016
1.51232
-8.49687
1.42322
-8.58611
1.31994
-8.67205
1.20681
-8.75517
1.08242
-8.83453
0.949097
-8.90763
0.805996
-8.97878
0.659632
-9.04482
0.504027
-9.11163
0.354164
-9.09229
0.249133
-8.47041
0.139646
-6.11676
-2.40788
0.953249
-7.895
-0.835952
1.05511
-7.96949
1.11516
-8.03498
1.13428
-8.11845
1.13263
-8.19764
1.10951
-8.28206
1.07005
-8.36214
1.01598
-8.44279
0.950513
-8.52065
0.874397
-8.59593
0.788128
-8.66891
0.694045
-8.74045
0.595162
-8.80874
0.492388
-8.87601
0.38764
-8.94007
0.279021
-9.00301
0.180745
-8.99402
0.135461
-8.42512
0.0998096
-6.08111
-2.30807
0.636159
-7.97943
-0.551733
0.696064
-8.0294
0.73858
-8.07749
0.770726
-8.1506
0.790967
-8.21788
0.789029
-8.28012
0.769108
-8.34222
0.733382
-8.40707
0.685601
-8.47287
0.626253
-8.53659
0.557133
-8.59979
0.478585
-8.6619
0.393077
-8.72323
0.299641
-8.78257
0.200475
-8.8409
0.0973124
-8.89985
-0.00228277
-8.89442
-0.0294344
-8.39797
0.0413331
-6.15188
-2.26673
0.418243
-8.03889
-0.358779
0.468342
-8.0795
0.508464
-8.11762
0.527087
-8.16922
0.525508
-8.2163
0.509984
-8.2646
0.484595
-8.31683
0.447246
-8.36972
0.399356
-8.42498
0.344565
-8.48179
0.283238
-8.53846
0.216099
-8.59476
0.145283
-8.65242
0.0704698
-8.70776
-0.00597573
-8.76446
-0.0868378
-8.81899
-0.157
-8.82426
-0.149178
-8.40579
0.000807804
-6.30186
-2.26592
0.238678
-8.07541
-0.202157
0.264351
-8.10517
0.282501
-8.13577
0.288114
-8.17483
0.286236
-8.21442
0.278202
-8.25657
0.262261
-8.30089
0.235154
-8.34261
0.197906
-8.38773
0.150099
-8.43399
0.0941653
-8.48252
0.0302164
-8.53082
-0.03868
-8.58352
-0.112712
-8.63373
-0.188023
-8.68915
-0.265535
-8.74148
-0.33182
-8.75798
-0.308089
-8.42952
-0.089703
-6.52025
-2.35563
0.136218
-8.09597
-0.115661
0.151594
-8.12055
0.161109
-8.14528
0.161446
-8.17517
0.153103
-8.20608
0.133897
-8.23736
0.10266
-8.26965
0.0657992
-8.30575
0.0225435
-8.34447
-0.0286573
-8.38279
-0.0848878
-8.42629
-0.148081
-8.46762
-0.217203
-8.5144
-0.291226
-8.55971
-0.368305
-8.61207
-0.447299
-8.66248
-0.516126
-8.68915
-0.496332
-8.44932
-0.21458
-6.802
-2.57021
0.0403222
-8.10275
-0.0335386
0.0417499
-8.12197
0.0384329
-8.14197
0.0274286
-8.16417
0.00906092
-8.18771
-0.0168586
-8.21144
-0.0476583
-8.23885
-0.0844711
-8.26894
-0.127349
-8.30159
-0.176556
-8.33358
-0.233497
-8.36935
-0.297055
-8.40406
-0.367991
-8.44346
-0.444874
-8.48282
-0.529418
-8.52753
-0.61985
-8.57205
-0.701607
-8.60739
-0.699088
-8.45184
-0.383362
-7.11773
-2.95357
-0.0117838
-8.10208
0.0111067
-0.0185412
-8.11522
-0.0290999
-8.13141
-0.0449978
-8.14827
-0.0654508
-8.16726
-0.0917382
-8.18515
-0.12419
-8.2064
-0.167034
-8.22609
-0.217202
-8.25143
-0.272636
-8.27814
-0.335104
-8.30689
-0.403379
-8.33579
-0.479758
-8.36708
-0.563056
-8.39952
-0.656165
-8.43442
-0.756965
-8.47125
-0.860603
-8.50375
-0.891393
-8.42105
-0.601015
-7.4081
-3.55458
-0.0533095
-8.09304
0.0442726
-0.0667182
-8.10181
-0.0846575
-8.11347
-0.108594
-8.12433
-0.137495
-8.13836
-0.171245
-8.1514
-0.209057
-8.16859
-0.250918
-8.18423
-0.298792
-8.20355
-0.355878
-8.22106
-0.422115
-8.24065
-0.495841
-8.26206
-0.5757
-8.28723
-0.663423
-8.3118
-0.763167
-8.33467
-0.872215
-8.3622
-1.00132
-8.37465
-1.07818
-8.34418
-0.857409
-7.62888
-4.41199
-0.0784031
-8.08
0.0653658
-0.0938418
-8.08637
-0.11193
-8.09538
-0.133393
-8.10287
-0.158746
-8.113
-0.18862
-8.12153
-0.223141
-8.13407
-0.262601
-8.14477
-0.308429
-8.15772
-0.361848
-8.16764
-0.419961
-8.18254
-0.485705
-8.19632
-0.564203
-8.20873
-0.652152
-8.22385
-0.756651
-8.23017
-0.869428
-8.24943
-1.00152
-8.24256
-1.10159
-8.24411
-0.92453
-7.80594
-5.33652
-0.0849963
-8.06487
0.0698649
-0.103101
-8.06826
-0.124175
-8.07431
-0.147934
-8.07911
-0.174634
-8.0863
-0.203912
-8.09225
-0.237307
-8.10067
-0.27478
-8.1073
-0.315649
-8.11686
-0.360409
-8.12288
-0.409836
-8.13311
-0.466494
-8.13966
-0.527079
-8.14814
-0.59694
-8.15399
-0.670191
-8.15692
-0.757658
-8.16196
-0.843186
-8.15703
-0.934158
-8.15314
-0.814364
-7.92573
-6.15089
-0.0816705
-8.0509
0.0677034
-0.0970968
-8.05284
-0.114662
-8.05674
-0.13404
-8.05973
-0.156023
-8.06432
-0.180589
-8.06769
-0.208244
-8.07302
-0.239317
-8.07623
-0.27431
-8.08186
-0.311286
-8.0859
-0.352195
-8.0922
-0.399585
-8.09227
-0.450239
-8.09749
-0.509237
-8.09499
-0.566664
-8.09949
-0.640414
-8.08821
-0.70421
-8.09324
-0.788961
-8.06839
-0.714768
-7.99992
-6.86566
-0.0718972
-8.03803
0.0590277
-0.0858506
-8.03888
-0.101524
-8.04107
-0.118709
-8.04255
-0.137782
-8.04525
-0.15857
-8.0469
-0.181568
-8.05002
-0.205683
-8.05211
-0.232696
-8.05485
-0.263199
-8.0554
-0.296825
-8.05858
-0.329639
-8.05946
-0.363556
-8.06357
-0.39986
-8.05869
-0.43656
-8.06279
-0.475621
-8.04915
-0.514941
-8.05392
-0.554884
-8.02844
-0.533668
-8.02114
-7.39932
-0.0541332
-8.02873
0.0448316
-0.0639297
-8.02909