/*--------------------------------*- C++ -*----------------------------------*\
  =========                 |
  \\      /  F ield         | OpenFOAM: The Open Source CFD Toolbox
   \\    /   O peration     | Website:  https://openfoam.org
    \\  /    A nd           | Version:  9
     \\/     M anipulation  |
\*---------------------------------------------------------------------------*/
FoamFile
{
    format      ascii;
    class       volScalarField;
    location    "4.4";
    object      p;
}
// * * * * * * * * * * * * * * * * * * * * * * * * * * * * * * * * * * * * * //

dimensions      [0 2 -2 0 0 0 0];

internalField   nonuniform List<scalar> 
46400
(
-130.25
-120.226
-103.291
-88.8854
-75.7518
-63.6265
-52.7015
-42.5704
-33.3419
-24.7949
-16.9173
-9.6094
-2.78397
3.61182
9.67889
15.4588
20.8814
26.6335
32.3908
34.5597
-93.4049
-83.8589
-68.5774
-55.3502
-43.5494
-32.5224
-22.6997
-13.5827
-5.30645
2.31867
9.31417
15.7673
21.707
27.2082
32.3098
37.0349
41.3819
45.7537
49.7551
51.0011
-56.4067
-47.8166
-34.2257
-22.2668
-11.7105
-1.86022
6.92041
14.9974
22.3037
29.0018
35.1282
40.7343
45.8972
50.6325
55.0011
59.0013
62.5943
66.2085
69.077
69.2009
-20.1006
-13.1544
-1.1674
9.75841
19.1955
28.0376
35.821
42.9527
49.3672
55.1672
60.4252
65.1788
69.4801
73.3756
76.9268
80.1184
82.9809
85.8241
88.1507
87.9192
14.0199
19.8338
30.9983
40.9735
49.4616
57.2908
64.1451
70.3268
75.8349
80.781
85.2326
89.2251
92.8248
96.0414
98.9293
101.5
103.706
105.918
107.641
106.934
46.1313
52.0092
62.317
71.4048
78.9205
85.7971
91.7202
96.9685
101.622
105.702
109.329
112.52
115.348
117.831
120.047
121.979
123.646
125.302
126.631
125.697
78.1348
84.7798
93.5756
101.473
107.821
113.549
118.493
122.798
126.564
129.831
132.703
135.178
137.346
139.195
140.784
142.125
143.197
144.283
145.14
143.918
109.735
116.998
124.012
130.558
135.829
140.423
144.356
147.684
150.569
152.991
155.069
156.805
158.274
159.487
160.511
161.333
161.954
162.58
163.094
161.744
140.616
147.72
153.076
158.099
162.198
165.692
168.658
171.107
173.159
174.82
176.194
177.257
178.09
178.674
179.076
179.301
179.357
179.44
179.435
177.853
170.409
176.029
180.34
183.979
187.097
189.559
191.631
193.214
194.489
195.406
196.081
196.507
196.758
196.818
196.74
196.495
196.107
195.739
195.294
193.476
196.971
201.273
204.664
207.339
209.561
211.233
212.537
213.411
214.003
214.274
214.333
214.143
213.793
213.276
212.651
211.903
211.046
210.215
209.325
207.329
220.819
224.267
226.912
228.752
230.237
231.172
231.808
232.038
232.019
231.724
231.245
230.575
229.763
228.799
227.733
226.551
225.274
224.012
222.694
220.433
242.081
244.812
246.768
247.909
248.741
249.048
249.097
248.765
248.203
247.359
246.348
245.152
243.842
242.411
240.903
239.31
237.643
235.997
234.311
231.882
261.059
263.121
264.491
265.019
265.264
265.015
264.536
263.74
262.759
261.552
260.175
258.634
256.967
255.187
253.324
251.386
249.38
247.393
245.386
242.726
277.769
279.279
280.166
280.199
279.949
279.185
278.173
276.854
275.364
273.687
271.885
269.956
267.934
265.827
263.66
261.437
259.164
256.912
254.668
251.893
291.683
292.676
293.226
292.932
292.366
291.331
290.038
288.447
286.658
284.684
282.574
280.349
278.033
275.646
273.201
270.714
268.182
265.677
263.203
260.248
304.648
304.688
304.663
303.868
302.829
301.392
299.701
297.769
295.66
293.393
291.011
288.533
285.984
283.38
280.739
278.069
275.369
272.698
270.095
267.059
313.481
313.49
313.002
312.101
310.824
309.285
307.45
305.402
303.137
300.727
298.178
295.534
292.816
290.044
287.241
284.414
281.563
278.745
276.019
272.871
320.862
320.806
320.032
318.706
317.084
315.197
313.088
310.814
308.366
305.8
303.113
300.351
297.514
294.638
291.729
288.81
285.867
282.959
280.154
276.982
326.014
325.719
324.677
323.283
321.536
319.483
317.249
314.805
312.253
309.551
306.786
303.92
301.022
298.067
295.103
292.122
289.132
286.178
283.359
280.175
-523.806
-522.687
-507.136
-487.491
-466.04
-446.038
-427.431
-410.113
-393.826
-378.468
-363.956
-350.214
-337.227
-324.842
-313.145
-301.945
-291.537
-281.55
-272.309
-263.463
-533.541
-530.944
-511.229
-490.014
-468.145
-447.41
-428.022
-409.909
-392.891
-376.892
-361.818
-347.599
-334.159
-321.446
-309.465
-298.038
-287.433
-277.234
-267.891
-258.873
-537.262
-534.018
-515.688
-491.466
-468.266
-446.625
-426.464
-407.662
-390.069
-373.585
-358.068
-343.446
-329.69
-316.652
-304.379
-292.708
-281.907
-271.552
-262.104
-252.898
-539.939
-533.913
-513.543
-489.024
-465.188
-442.942
-422.435
-403.279
-385.324
-368.509
-352.735
-337.896
-323.903
-310.734
-298.338
-286.576
-275.687
-265.188
-255.82
-246.489
-535.537
-530.533
-508.675
-483.232
-459.66
-437.148
-416.25
-396.808
-378.584
-361.533
-345.521
-330.477
-316.376
-303.056
-290.541
-278.716
-267.77
-257.256
-247.838
-238.454
-529.942
-524.583
-502.955
-476.23
-451.701
-428.918
-407.773
-388.135
-369.777
-352.653
-336.624
-321.588
-307.469
-294.208
-281.732
-269.976
-259.043
-248.594
-239.281
-229.875
-520.327
-514.698
-492.02
-465.218
-440.716
-417.872
-396.705
-377.116
-358.783
-341.681
-325.662
-310.646
-296.61
-283.391
-270.989
-259.322
-248.492
-238.155
-228.97
-219.594
-507.786
-501.297
-478.265
-451.545
-427.074
-404.426
-383.367
-363.904
-345.732
-328.795
-312.997
-298.189
-284.317
-271.329
-259.123
-247.675
-236.992
-226.853
-217.895
-208.57
-491.854
-484.611
-461.015
-434.708
-410.583
-388.288
-367.533
-348.361
-330.486
-313.806
-298.238
-283.668
-270.079
-257.301
-245.339
-234.118
-223.658
-213.748
-204.98
-195.801
-472.646
-464.72
-441.141
-415.376
-391.712
-369.879
-349.542
-330.775
-313.298
-297.028
-281.88
-267.699
-254.448
-242.068
-230.45
-219.594
-209.424
-199.847
-191.405
-182.337
-450.801
-442.358
-418.772
-393.365
-370.271
-349.11
-329.316
-311.066
-294.102
-278.271
-263.544
-249.779
-236.963
-224.937
-213.706
-203.199
-193.364
-184.139
-175.973
-167.19
-425.936
-417.183
-393.707
-369.375
-346.803
-326.339
-307.227
-289.572
-273.195
-257.962
-243.807
-230.577
-218.245
-206.748
-195.987
-185.961
-176.545
-167.758
-159.992
-151.38
-398.918
-389.972
-366.333
-343.209
-321.393
-301.639
-283.258
-266.275
-250.551
-235.885
-222.292
-209.609
-197.822
-186.797
-176.532
-166.957
-157.969
-149.643
-142.214
-133.969
-369.623
-360.585
-337.038
-315.019
-294.185
-275.25
-257.688
-241.465
-226.471
-212.538
-199.621
-187.57
-176.368
-165.941
-156.222
-147.19
-138.708
-130.888
-123.902
-115.906
-338.58
-329.34
-306.332
-285.257
-265.463
-247.441
-230.736
-215.285
-201.037
-187.757
-175.491
-164.078
-153.49
-143.626
-134.471
-125.96
-117.965
-110.664
-104.04
-96.4205
-306.045
-296.703
-274.418
-254.379
-235.533
-218.41
-202.594
-187.975
-174.529
-162.045
-150.502
-139.753
-129.789
-120.525
-111.934
-103.968
-96.5097
-89.7324
-83.5396
-76.2082
-272.306
-262.821
-241.398
-222.411
-204.626
-188.441
-173.548
-159.741
-147.076
-135.285
-124.434
-114.368
-105.044
-96.3957
-88.3908
-80.9694
-74.0266
-67.7914
-62.014
-55.105
-237.777
-228.201
-207.526
-189.66
-172.918
-157.686
-143.752
-130.851
-119.046
-108.098
-97.9927
-88.6044
-79.9154
-71.8556
-64.4169
-57.5186
-51.1183
-45.4563
-40.182
-33.6477
-202.248
-192.437
-172.834
-156.183
-140.633
-126.403
-113.429
-101.371
-90.3476
-80.1067
-70.6908
-61.9708
-53.89
-46.4103
-39.4836
-33.0214
-27.0695
-21.9267
-16.9227
-10.0397
-166.407
-156.67
-138.271
-122.646
-108.274
-95.0405
-83.0831
-71.9682
-61.8124
-52.3753
-43.6385
-35.4869
-27.8837
-20.7612
-14.0481
-7.67636
-1.81326
3.74543
9.91417
16.7367
-220.953
-175.376
-133.218
-106.76
-81.1825
-63.746
-47.788
-35.3681
-25.3256
-16.0858
-9.70072
-2.63585
1.24626
6.81124
9.12445
13.4272
15.2006
17.4878
18.5131
18.9999
-216.051
-171.325
-129.212
-103.635
-78.505
-61.5511
-46.008
-33.8341
-24.0659
-15.0149
-8.8336
-1.91606
1.7996
7.26916
9.35862
13.6473
15.2169
17.6202
18.4433
18.9675
-209.799
-166.661
-125.135
-100.469
-75.8236
-59.3391
-44.1443
-32.2856
-22.7978
-13.937
-7.96022
-1.19069
2.34093
7.68541
9.59395
13.8519
15.2
17.7878
18.4626
19.0127
-203.704
-161.779
-120.817
-97.0409
-72.9994
-56.9804
-42.2623
-30.6364
-21.4523
-12.7704
-6.9999
-0.380132
2.97839
8.18388
9.88499
14.2053
15.2756
18.1296
18.4123
19.0325
-196.271
-156.349
-116.387
-93.596
-70.1649
-54.5944
-40.2985
-28.9606
-20.0826
-11.5883
-6.02934
0.43772
3.6258
8.69948
10.213
14.8459
15.6104
18.5555
18.3394
19.166
-188.744
-150.609
-111.668
-89.8575
-67.1749
-52.0658
-38.3024
-27.1936
-18.6423
-10.3242
-4.97035
1.34643
4.3748
9.32207
10.6966
15.5108
16.0285
18.9923
18.4489
19.2351
-180.046
-144.36
-106.846
-86.1083
-64.1723
-49.5025
-36.2304
-25.3925
-17.167
-9.03867
-3.89778
2.26389
5.15264
9.96281
11.2637
16.2088
16.5013
19.413
18.562
19.4829
-171.086
-137.746
-101.71
-82.0452
-61.0083
-46.802
-34.1115
-23.5087
-15.6251
-7.67731
-2.73764
3.27172
6.02219
10.7081
11.9386
16.9399
16.953
19.7987
18.6797
19.6217
-161.081
-130.677
-96.474
-77.9755
-57.829
-44.0642
-31.925
-21.5885
-14.0429
-6.29318
-1.56303
4.28994
6.92119
11.4657
12.6672
17.663
17.3559
20.1659
18.788
19.8279
-150.633
-123.244
-90.9197
-73.5865
-54.4891
-41.1965
-29.6787
-19.5926
-12.3962
-4.83823
-0.304827
5.39231
7.90238
12.3369
13.4715
18.4084
17.7577
20.4713
18.9002
20.0642
-139.181
-115.417
-85.2778
-69.1917
-51.132
-38.2935
-27.3731
-17.5624
-10.708
-3.36188
0.968242
6.50523
8.91482
13.2976
14.3587
19.1209
18.1404
20.8038
19.0686
20.2939
-127.188
-107.239
-79.3378
-64.4874
-47.6223
-35.2721
-25
-15.4636
-8.95757
-1.82015
2.31726
7.69
10.0011
14.3623
15.3076
19.8022
18.5444
21.1989
19.2749
20.5688
-114.216
-98.7184
-73.3303
-59.7669
-44.0842
-32.2164
-22.5718
-13.3338
-7.16633
-0.258587
3.68127
8.87841
11.1099
15.3798
16.2482
20.4697
18.9848
21.6234
19.5235
20.8967
-100.625
-89.8935
-67.0941
-54.768
-40.4042
-29.0528
-20.0689
-11.1379
-5.31279
1.3658
5.11505
10.131
12.282
16.446
17.1755
21.0642
19.4604
22.0828
19.7985
21.2722
-85.9717
-80.7593
-60.8872
-49.8118
-36.7261
-25.8916
-17.5359
-8.93094
-3.43044
3.00245
6.55831
11.3858
13.4743
17.4736
18.0759
21.6712
19.8918
22.5494
20.0674
21.6481
-70.3852
-71.0494
-54.3949
-44.5551
-32.8883
-22.6252
-14.9301
-6.66991
-1.49818
4.68859
8.05604
12.6988
14.7404
18.4759
18.98
22.4376
20.3893
22.9793
20.3207
22.0698
-54.3547
-61.0902
-47.7695
-39.0936
-28.8219
-19.1947
-12.1678
-4.30351
0.529425
6.43597
9.59493
14.0398
16.0028
19.4655
19.8888
23.2412
20.9414
23.4773
20.5841
22.4876
-38.1579
-51.7309
-41.8778
-34.0976
-25.0121
-15.9286
-9.47472
-1.96064
2.57018
8.22507
11.1729
15.4192
17.2887
20.551
20.7966
24.1187
21.5624
24.3785
20.9372
23.1384
-16.1567
-40.8465
-36.695
-30.1382
-21.9761
-13.3804
-7.33262
-0.0928319
4.27416
9.74305
12.5375
16.6209
18.4397
21.5572
21.704
24.999
22.1442
24.56
21.1112
23.5954
7.84956
-23.7601
-26.2519
-21.7254
-16.0646
-8.65295
-3.77017
2.78821
6.65042
11.6979
14.3134
18.1734
19.8399
22.7281
22.7814
25.7944
22.6462
23.9141
20.7388
24.1392
53.6227
60.4964
46.464
42.3932
33.4688
33.3753
29.3879
30.0117
28.435
29.5632
29.282
30.6211
30.3693
32.0219
31.3798
33.3449
31.2477
34.1149
30.0451
36.8647
114.433
104.329
80.7899
74.02
62.3919
57.6244
51.3934
48.4091
45.2134
43.4318
41.9554
41.3208
40.7884
40.7372
40.16
40.6279
39.551
39.7026
38.1591
39.8971
125.193
114.682
102.003
93.0208
84.5124
78.4051
72.7882
69.0142
65.378
63.0555
60.4503
58.9585
57.1437
56.4601
55.429
54.9952
54.7542
54.5399
54.7539
55.1166
132.977
123.445
113.144
105.496
97.4656
91.6771
85.8409
81.3417
77.1875
73.8417
70.928
68.4741
66.3339
64.4359
62.9597
61.9036
60.8333
60.1131
60.056
59.9225
127.278
119.735
114.195
108.095
103.006
97.9278
93.616
89.6516
86.1178
83.123
80.344
78.1068
76.0628
74.3334
72.7949
71.3862
70.2821
69.0635
68.5162
68.4492
127.441
122.885
117.292
112.783
108.008
104.01
99.9552
96.5098
93.0712
90.1021
87.2943
84.7363
82.4591
80.2833
78.4906
76.6207
75.2843
74.1304
73.4009
73.3303
122.752
119.164
116.834
113.419
110.345
107.024
103.972
101.086
98.3105
95.8279
93.3407
91.2442
89.0295
87.2154
85.2782
83.5779
81.9452
80.4751
79.5888
79.261
123.621
121.251
118.098
115.304
112.386
110.041
107.276
104.929
102.367
100.137
97.8059
95.7114
93.6148
91.6404
89.7748
87.8777
86.2952
84.6532
83.5979
83.1614
121.53
119.807
118.226
116.487
114.504
112.49
110.336
108.401
106.271
104.512
102.333
100.74
98.6072
97.1192
94.9755
93.4925
91.4095
89.8695
88.3881
87.896
122.562
121.321
119.654
117.977
116.137
114.606
112.75
111.17
109.328
107.765
105.933
104.366
102.501
100.917
98.9371
97.274
95.0709
93.3351
91.3389
90.7525
123.201
122.178
120.85
119.82
118.403
117.149
115.679
114.469
112.959
111.791
110.197
109.065
107.311
106.178
104.139
102.907
100.337
98.9497
96.3192
95.8539
123.878
123.079
121.996
121.114
120.033
119.122
118.006
117.072
115.948
114.996
113.831
112.86
111.564
110.563
108.949
107.862
105.457
104.396
100.865
100.764
125.073
124.509
123.71
123.122
122.332
121.735
120.938
120.363
119.587
119.056
118.291
117.805
117.003
116.552
115.573
115.173
113.467
113.748
109.77
112.223
126.091
125.685
125.097
124.685
124.142
123.759
123.272
122.94
122.545
122.299
122.01
121.853
121.715
121.752
121.754
121.971
122.044
122.408
123.755
125.829
127.338
127.095
126.711
126.503
126.184
126.055
125.819
125.821
125.709
125.852
125.921
126.279
126.698
127.159
128.038
128.609
130.412
130.901
134.573
135.293
128.346
128.179
127.93
127.84
127.69
127.711
127.675
127.862
127.948
128.373
128.646
129.407
129.799
131.07
131.824
133.888
135.143
138.349
141.269
143.706
129.324
129.251
129.145
129.141
129.138
129.256
129.382
129.652
129.948
130.423
130.941
131.678
132.606
133.808
135.063
136.746
138.256
140.897
142.425
147.129
129.944
129.886
129.866
129.942
130.008
130.226
130.413
130.813
131.136
131.787
132.287
133.183
133.766
134.883
135.638
137.243
138.244
140.475
141.107
149.972
130.608
130.59
130.575
130.665
130.793
131.004
131.271
131.618
132.021
132.524
133.039
133.767
134.428
135.416
136.181
137.402
138.08
139.478
139.896
142.066
130.775
130.824
130.86
130.958
131.088
131.311
131.569
131.94
132.354
132.884
133.448
134.155
134.833
135.717
136.48
137.542
138.298
139.531
140.018
149.279
242.471
240.729
238.154
235.06
231.146
226.582
221.338
215.24
208.605
201.139
192.739
183.369
173.896
163.128
151.959
140.089
127.962
114.944
101.734
88.1668
213.135
212.11
210.758
209.108
207.145
204.835
202.291
199.343
196.116
192.878
187.733
182.619
178.523
174.278
169.623
164.707
159.781
154.19
147.326
139.812
176.011
175.299
174.462
173.509
172.4
171.208
169.803
168.376
166.667
164.904
162.826
160.806
158.531
155.856
151.989
148.522
145.194
142.261
139.183
136.697
163.974
163.479
162.912
162.281
161.564
160.789
159.898
158.96
157.873
156.795
155.518
154.372
152.813
151.787
149.627
147.257
145.178
143.197
141.384
139.823
147.835
147.474
147.014
146.587
146.035
145.527
144.887
144.277
143.529
142.819
141.967
141.167
140.194
139.269
138.013
136.963
135.025
133.485
131.648
130.12
142.52
142.218
141.909
141.567
141.215
140.836
140.426
139.999
139.451
138.91
138.181
137.597
136.803
136.205
135.363
134.844
133.743
132.446
131.358
130.259
135.196
134.923
134.611
134.298
133.939
133.564
133.117
132.653
132.153
131.698
131.188
130.728
130.088
129.475
128.469
127.645
126.563
125.725
124.737
123.984
132.831
132.591
132.35
132.091
131.83
131.553
131.259
130.945
130.615
130.265
129.863
129.467
128.997
128.49
127.842
127.119
126.526
125.983
125.453
125.082
129.58
129.36
129.15
128.895
128.598
128.305
127.945
127.42
126.919
126.48
126.084
125.664
125.226
124.802
124.381
123.991
123.626
123.281
122.902
122.57
128.565
128.374
128.167
127.962
127.745
127.525
127.294
127.054
126.801
126.536
126.269
125.993
125.716
125.423
125.132
124.824
124.515
124.192
123.862
123.532
127.963
127.807
127.636
127.46
127.279
127.085
126.892
126.684
126.479
126.254
126.034
125.797
125.568
125.328
125.094
124.852
124.614
124.37
124.128
123.885
127.902
127.77
127.649
127.508
127.366
127.216
127.058
126.898
126.729
126.557
126.377
126.192
126.001
125.803
125.602
125.392
125.181
124.961
124.739
124.512
128.222
128.127
128.029
127.927
127.824
127.714
127.605
127.485
127.355
127.207
127.059
126.9
126.744
126.578
126.419
126.249
126.084
125.907
125.736
125.553
128.931
128.806
128.679
128.55
128.418
128.284
128.147
128.011
127.884
127.764
127.645
127.523
127.404
127.276
127.151
127.015
126.886
126.746
126.611
126.466
129.431
129.341
129.25
129.159
129.067
128.974
128.881
128.788
128.695
128.6
128.506
128.41
128.313
128.215
128.117
128.016
127.918
127.814
127.714
127.608
130.099
130.016
129.932
129.848
129.766
129.682
129.6
129.517
129.434
129.352
129.27
129.188
129.107
129.025
128.945
128.864
128.786
128.705
128.627
128.547
130.637
130.564
130.493
130.421
130.35
130.281
130.212
130.145
130.08
130.016
129.953
129.892
129.832
129.773
129.716
129.66
129.606
129.552
129.501
129.45
131.153
131.082
131.012
130.943
130.875
130.807
130.741
130.676
130.613
130.551
130.491
130.431
130.374
130.32
130.269
130.22
130.173
130.128
130.085
130.045
131.42
131.366
131.314
131.265
131.217
131.172
131.128
131.083
131.038
130.995
130.954
130.916
130.88
130.845
130.812
130.779
130.748
130.72
130.692
130.667
131.556
131.496
131.439
131.385
131.333
131.283
131.237
131.192
131.15
131.11
131.073
131.037
131.004
130.973
130.943
130.915
130.889
130.864
130.842
130.821
108.322
107.082
103.235
99.6879
96.2672
92.6561
88.8864
84.8772
80.5921
75.9587
70.962
65.4791
59.5096
52.8673
45.6989
37.6007
28.8368
19.1051
7.19697
0.712085
121.767
121.274
118.738
116.047
113.379
110.47
107.311
103.91
100.197
96.1338
91.717
86.821
81.4699
75.5183
69.0429
61.7172
53.8981
44.9518
34.5282
27.678
135.39
135.813
134.21
132.195
130.137
127.81
125.24
122.406
119.269
115.817
112.01
107.771
103.093
97.8548
92.1223
85.6044
78.614
70.4369
61.5377
55.601
150.849
151.595
150.181
148.67
147.079
145.25
143.195
140.913
138.349
135.476
132.278
128.646
124.607
120.028
114.958
109.095
102.775
95.2876
87.0572
82.7319
165.773
166.609
165.611
164.49
163.35
162.008
160.465
158.715
156.693
154.432
151.839
148.887
145.523
141.669
137.289
132.173
126.517
119.646
111.751
107.537
179.95
181.087
180.546
179.928
179.28
178.442
177.415
176.196
174.768
173.105
171.152
168.849
166.177
163.043
159.438
155.115
150.361
144.343
137.512
132.5
194.086
195.326
194.991
194.718
194.42
193.98
193.416
192.729
191.84
190.776
189.419
187.796
185.815
183.474
180.64
177.271
173.43
168.477
162.987
157.652
206.541
208.027
208.218
208.449
208.684
208.809
208.812
208.683
208.375
207.873
207.129
206.143
204.858
203.256
201.241
198.793
195.902
192.102
188.189
182.657
218.555
220.291
220.877
221.479
222.09
222.592
222.973
223.261
223.395
223.431
223.256
222.9
222.264
221.392
220.118
218.554
216.471
213.898
210.909
206.41
229.094
231.139
232.2
233.295
234.405
235.439
236.381
237.249
237.985
238.572
238.962
239.164
239.113
238.848
238.237
237.36
236.01
234.303
231.985
228.761
239.802
242.046
243.371
244.745
246.138
247.443
248.66
249.789
250.804
251.73
252.489
253.149
253.591
253.852
253.763
253.445
252.664
251.577
249.861
247.394
248.299
250.643
252.392
254.164
255.953
257.692
259.37
261.01
262.559
264.051
265.415
266.659
267.65
268.449
268.882
269.128
268.888
268.419
267.229
265.352
256.602
259.256
261.343
263.439
265.553
267.601
269.598
271.531
273.369
275.087
276.636
278.029
279.227
280.29
281.061
281.643
281.774
281.709
280.913
279.603
263.502
266.287
268.556
270.878
273.212
275.508
277.767
279.981
282.13
284.206
286.171
288.055
289.791
291.412
292.761
293.9
294.582
295.067
294.762
293.98
269.885
272.813
275.261
277.791
280.351
282.883
285.384
287.854
290.256
292.583
294.804
296.918
298.837
300.576
302.007
303.279
304.138
304.831
304.772
304.545
274.582
277.607
280.19
282.88
285.608
288.308
290.997
293.648
296.255
298.793
301.255
303.601
305.822
307.865
309.736
311.404
312.755
313.758
314.168
314.289
278.441
281.544
284.249
287.079
289.945
292.792
295.625
298.426
301.188
303.881
306.494
309.005
311.368
313.582
315.579
317.337
318.692
319.669
320.184
320.271
280.844
283.946
286.725
289.614
292.547
295.458
298.366
301.258
304.115
306.928
309.673
312.33
314.858
317.252
319.42
321.352
322.961
324.211
325.188
325.342
281.698
284.92
287.83
290.852
293.891
296.917
299.928
302.92
305.863
308.759
311.55
314.267
316.806
319.237
321.386
323.449
325.065
326.708
327.368
328.79
281.65
284.846
287.685
290.646
293.652
296.633
299.621
302.575
305.517
308.388
311.226
313.947
316.59
319.078
321.391
323.513
325.296
326.864
327.782
328.524
-113.793
-117.536
-121.262
-124.993
-128.891
-132.947
-136.993
-141.202
-145.495
-149.909
-154.458
-159.204
-163.776
-168.659
-173.783
-177.374
-179.616
-182.083
-181.706
-182.378
-107.869
-111.751
-115.668
-119.729
-123.792
-128.047
-132.328
-136.786
-141.275
-145.97
-150.761
-155.676
-160.932
-165.861
-170.534
-174.93
-180.203
-181.202
-182.343
-181.996
-102.44
-106.502
-110.486
-114.595
-118.792
-123.18
-127.622
-132.26
-137.003
-141.897
-146.93
-152.151
-157.437
-162.997
-168.261
-173.84
-178.359
-179.783
-183.063
-182.977
-96.5437
-100.729
-104.79
-109.107
-113.45
-118.067
-122.73
-127.629
-132.631
-137.842
-143.209
-148.7
-154.44
-160.219
-166.297
-172.182
-177.494
-181.82
-183.065
-183.369
-90.4481
-94.8035
-98.9961
-103.461
-107.969
-112.739
-117.614
-122.724
-128.018
-133.517
-139.243
-145.187
-151.396
-157.754
-164.481
-171.033
-177.379
-183.006
-184.683
-185.675
-84.2093
-88.6103
-92.8355
-97.4311
-102.046
-107.019
-112.114
-117.491
-123.094
-128.974
-135.136
-141.584
-148.334
-155.453
-162.823
-170.67
-178.702
-185.775
-189.326
-190.372
-77.1946
-81.6687
-85.9602
-90.7454
-95.4978
-100.609
-105.926
-111.532
-117.43
-123.638
-130.211
-137.131
-144.517
-152.323
-160.587
-169.558
-179.052
-187.611
-194.058
-195.085
-69.7177
-74.2828
-78.5843
-83.4583
-88.3347
-93.5764
-99.073
-104.881
-111.031
-117.553
-124.465
-131.825
-139.667
-147.972
-157.02
-166.717
-177.04
-186.977
-196.407
-198.526
-61.3869
-66.0117
-70.2789
-75.2266
-80.1808
-85.4961
-91.136
-97.1176
-103.466
-110.222
-117.443
-125.126
-133.362
-142.151
-151.701
-161.858
-172.709
-183.793
-194.576
-196.311
-52.0634
-56.8642
-61.127
-66.0923
-71.1541
-76.5344
-82.2832
-88.3824
-94.8926
-101.862
-109.303
-117.295
-125.892
-135.128
-145.143
-155.951
-167.642
-180.371
-190.47
-192.067
-41.9052
-46.8126
-51.0354
-55.9367
-61.0005
-66.3642
-72.1354
-78.2902
-84.8545
-91.9105
-99.4917
-107.631
-116.435
-125.884
-136.247
-147.516
-159.865
-173.044
-184.987
-187.883
-31.0392
-35.9168
-40.0597
-44.8239
-49.8803
-55.1938
-60.9428
-67.083
-73.667
-80.7696
-88.3873
-96.6191
-105.518
-115.103
-125.628
-136.98
-149.326
-162.92
-175.286
-178.619
-19.2588
-24.1994
-28.155
-32.6784
-37.609
-42.7825
-48.4106
-54.4602
-60.9411
-67.9627
-75.5372
-83.7341
-92.6199
-102.216
-112.848
-124.229
-136.924
-150.723
-163.969
-168.253
-6.5652
-11.4403
-15.207
-19.4595
-24.266
-29.2791
-34.7489
-40.6439
-46.9997
-53.9011
-61.34
-69.4243
-78.186
-87.7105
-98.2229
-109.48
-122.219
-135.539
-148.704
-153.607
7.15369
2.31342
-1.24051
-5.16233
-9.74061
-14.5346
-19.7754
-25.4664
-31.5893
-38.2745
-45.4995
-53.3719
-61.9175
-71.2275
-81.5268
-92.6188
-105.109
-118.621
-132.441
-137.73
21.7338
17.0385
13.7506
10.1503
5.80372
1.24261
-3.74552
-9.16974
-15.06
-21.4896
-28.4445
-36.0474
-44.2907
-53.3304
-63.3048
-73.9643
-86.1325
-98.8577
-112.478
-118.182
37.3464
32.8991
29.8235
26.5336
22.4868
18.1978
13.4967
8.33539
2.75339
-3.37445
-10.0102
-17.2806
-25.1764
-33.881
-43.4253
-53.8161
-65.6356
-78.0051
-92.0268
-97.8624
53.6172
49.5314
46.7661
43.7401
39.979
35.9383
31.5136
26.6709
21.379
15.5887
9.31542
2.43129
-5.04185
-13.2998
-22.3412
-32.1566
-43.3124
-54.6389
-68.7517
-75.0491
71.8808
67.4999
64.8655
62.0924
58.553
54.7145
50.5453
45.9513
40.973
35.5193
29.6152
23.1329
16.0889
8.27015
-0.197274
-9.61461
-20.0606
-31.0513
-44.9233
-51.2997
94.0224
89.7763
85.7652
82.2628
78.5453
74.5322
70.3228
65.8632
61.0735
55.9029
50.3527
44.2829
37.7075
30.4387
22.5394
13.7909
4.16643
-6.09273
-19.124
-25.7014
53.2392
52.1078
52.0421
50.385
48.711
46.1889
43.7821
40.1257
36.6028
31.6485
26.575
20.1507
12.848
4.36158
-6.6586
-17.7652
-34.1206
-49.4822
-72.3222
-96.3908
53.0789
51.8549
52.1354
50.3881
48.9022
46.4433
44.2256
40.6947
37.3602
32.5898
27.7488
21.5596
14.5789
6.46839
-4.2307
-14.8141
-30.7464
-44.9048
-67.6576
-90.7437
53.0034
51.7133
52.2807
50.463
49.1752
46.7666
44.7173
41.3175
38.1584
33.5389
28.915
22.9311
16.2666
8.48826
-1.78021
-11.6759
-27.3145
-40.7285
-63.0267
-84.5821
52.8408
51.5478
52.4416
50.485
49.4103
47.0682
45.2039
41.9373
38.966
34.54
30.1563
24.3946
18.0676
10.6729
0.751976
-8.6453
-23.8271
-36.0464
-58.2544
-78.4807
52.7992
51.4212
52.6033
50.5426
49.7189
47.4257
45.748
42.6006
39.8187
35.5475
31.3917
25.8443
19.8354
12.7445
3.27483
-5.47912
-20.3081
-31.7269
-53.4452
-71.9049
52.6604
51.3301
52.8479
50.5528
50.0943
47.7771
46.2856
43.2738
40.6664
36.6045
32.6983
27.3806
21.7298
14.9992
5.88641
-2.34966
-16.7037
-26.9623
-48.4336
-65.2648
52.6979
51.2801
53.1419
50.7432
50.6444
48.2256
46.8691
44.0003
41.5515
37.6732
33.997
28.9087
23.5758
17.1296
8.47939
0.883127
-13.1064
-22.413
-43.3237
-58.3038
52.6628
51.2575
53.4016
50.9643
51.0424
48.6781
47.4404
44.7211
42.4439
38.7851
35.3649
30.5218
25.5842
19.445
11.2021
4.04762
-9.38172
-17.5315
-38.1133
-51.1378
52.791
51.2224
53.6904
51.2693
51.5135
49.1776
48.0622
45.4904
43.3728
39.9122
36.7275
32.1277
27.516
21.6477
13.9025
7.31212
-5.61755
-12.8866
-32.5624
-43.5513
52.7969
51.177
53.9624
51.5681
52.0449
49.6647
48.6705
46.2533
44.3087
41.0784
38.1538
33.8327
29.6215
24.0253
16.7241
10.5224
-1.76305
-7.81899
-26.7657
-35.0918
53.0179
50.9755
54.2898
51.9081
52.6637
50.2022
49.3254
47.0608
45.2797
42.2624
39.577
35.5157
31.6514
26.3044
19.5232
13.8205
2.13724
-2.67151
-20.8903
-26.4945
53.2029
50.9312
54.5723
52.2526
53.2517
50.7203
49.9572
47.8616
46.2575
43.4822
41.0614
37.315
33.8512
28.7435
22.436
17.0511
6.08489
2.811
-14.7675
-18.0315
53.3954
51.0158
54.9417
52.6869
53.8485
51.3427
50.6402
48.7042
47.2724
44.7237
42.544
39.092
35.9876
31.1018
25.3266
20.3402
10.0638
7.71589
-8.58142
-8.44939
53.7499
51.1164
55.3849
53.1828
54.2639
51.9453
51.2955
49.5457
48.2988
46.0017
44.0876
40.9916
38.2861
33.608
28.3221
23.5566
14.0951
12.8533
-2.22671
1.49057
54.1107
51.1692
55.803
53.7663
54.7297
52.5606
51.9734
50.4109
49.3357
47.2821
45.6193
42.8692
40.518
36.0215
31.2527
26.7601
18.1151
17.7511
4.21726
12.3289
54.4851
51.1829
56.2962
54.4188
55.4386
53.1536
52.6316
51.2765
50.3798
48.5967
47.2114
44.8653
42.888
38.556
34.2573
29.9035
22.2251
22.9047
11.1441
24.0482
55.0018
50.9861
57.0899
55.1702
56.3087
53.7981
53.6918
52.2428
51.6333
50.0567
48.8914
46.9375
45.3203
41.1869
37.4217
33.3267
26.6458
27.9528
18.224
36.1061
55.5895
50.9138
57.3536
55.9329
56.0751
54.2894
54.4896
53.1184
52.7205
51.3792
50.5167
49.0421
47.773
43.7489
40.3943
36.2477
30.3759
32.1673
24.254
48.2124
55.1957
50.7818
57.1845
56.5198
55.6838
54.6267
54.3418
53.6822
53.1356
52.1739
51.6749
50.7867
49.7067
45.5326
42.3663
38.0177
32.9842
35.7939
32.2692
65.3407
56.5099
49.7851
58.5497
57.3181
58.0637
56.762
56.4592
55.9328
55.4486
54.476
54.2025
53.6438
52.9205
49.192
46.694
43.3973
40.6796
44.5857
48.6183
85.2198
84.9013
55.6442
79.7489
71.4758
80.469
79.1552
81.4443
79.3963
80.46
78.5654
79.0119
78.0144
79.3059
81.4182
85.9642
89.5846
100.571
105.942
127.464
121.563
80.2608
77.5471
80.2551
78.7943
81.8181
81.5572
84.136
84.1743
85.9313
86.6393
88.9771
90.6691
94.0987
97.5852
103.54
109.603
120.368
128.493
146.843
156.59
91.0903
89.7748
91.7609
91.6023
93.8064
95.0038
96.4244
97.5161
98.85
100.327
102.332
104.73
107.962
111.819
116.73
122.428
129.497
137.219
147.202
157.675
93.928
93.8902
94.3977
95.4878
96.7235
98.1712
99.7506
101.367
103.539
105.813
108.578
111.632
115.114
119.38
124.002
129.686
135.53
142.565
149.351
155.587
99.3405
99.6238
100.41
101.744
102.945
104.36
105.866
107.531
109.344
111.316
113.556
115.995
118.772
121.86
125.135
128.933
132.551
137.081
141.593
147.19
100.842
101.107
102.094
103.383
104.938
106.568
108.365
110.255
112.347
114.553
116.89
119.491
122.072
125.097
127.877
131.295
134.14
137.777
139.611
142.677
102.811
103.038
104.133
106.047
107.606
109.455
111.169
112.908
114.733
116.465
118.394
120.216
122.22
124.2
126.218
128.433
130.262
132.736
134.745
136.918
103.161
103.893
105.266
107.505
109.498
111.442
113.411
115.183
117.114
118.839
120.723
122.463
124.282
126.054
127.758
129.472
131.027
132.528
133.363
134.719
103.278
105.098
106.434
109.308
111.373
113.467
115.33
116.914
118.591
119.91
121.421
122.596
123.96
125.018
126.251
127.185
128.308
129.324
130.471
131.262
107.646
107.983
110.671
112.404
115.15
116.552
118.616
119.779
121.447
122.497
123.87
124.85
125.974
126.894
127.915
128.818
129.791
130.102
130.458
130.752
111.677
111.671
115.409
116.707
119.038
120.241
121.709
122.655
123.718
124.456
125.278
125.859
126.513
127.022
127.463
127.602
127.928
128.111
128.496
128.988
122.376
120.076
123.502
122.857
124.862
124.978
126.102
126.315
127.12
127.403
128.045
128.363
128.853
129.23
129.612
129.994
130.456
130.534
130.301
129.795
135.052
132.972
131.65
131.687
130.874
131.164
130.584
130.777
130.5
130.598
130.511
130.556
130.645
130.614
130.687
130.473
130.587
130.298
130.16
129.832
142.798
142.074
138.568
137.96
136.301
135.515
134.781
134.076
133.695
133.136
132.89
132.451
132.253
131.965
131.788
131.659
131.579
131.443
131.333
131.083
148.926
146.838
144.468
141.965
140.701
138.866
137.957
136.738
136.077
135.257
134.777
134.217
133.825
133.385
133.085
132.692
132.428
132.04
131.763
131.375
157.947
147.465
146.377
143.778
142.65
140.933
139.951
138.72
137.892
136.975
136.291
135.576
135.027
134.426
133.962
133.452
133.045
132.605
132.238
131.835
152.953
149.22
148.13
145.208
144.286
142.349
141.445
140.037
139.238
138.164
137.488
136.641
136.067
135.383
134.881
134.309
133.86
133.366
132.959
132.518
153.367
147.318
147.037
145.024
144.25
142.728
141.84
140.69
139.813
138.893
138.099
137.333
136.638
135.983
135.382
134.818
134.3
133.811
133.363
132.937
147.284
146.384
145.92
144.789
143.977
142.83
142.015
140.995
140.201
139.298
138.574
137.78
137.142
136.448
135.854
135.26
134.718
134.192
133.731
133.287
150.331
145.991
145.648
144.505
143.884
142.884