/*--------------------------------*- C++ -*----------------------------------*\
  =========                 |
  \\      /  F ield         | OpenFOAM: The Open Source CFD Toolbox
   \\    /   O peration     | Website:  https://openfoam.org
    \\  /    A nd           | Version:  9
     \\/     M anipulation  |
\*---------------------------------------------------------------------------*/
FoamFile
{
    format      ascii;
    class       surfaceScalarField;
    location    "4.4";
    object      phi;
}
// * * * * * * * * * * * * * * * * * * * * * * * * * * * * * * * * * * * * * //

dimensions      [0 3 -1 0 0 0 0];

internalField   nonuniform List<scalar> 
92080
(
-0.00544849
-0.529803
0.535251
-0.0340921
-1.05078
1.07942
-0.0801528
-1.14938
1.19544
-0.126702
-1.13022
1.17677
-0.172369
-1.11051
1.15618
-0.217244
-1.09123
1.1361
-0.261711
-1.07289
1.11736
-0.306307
-1.05602
1.10062
-0.35015
-1.04071
1.08455
-0.393069
-1.02616
1.06908
-0.435124
-1.01268
1.05474
-0.476753
-0.999423
1.04105
-0.517264
-0.987955
1.02847
-0.557359
-0.97578
1.01587
-0.596613
-0.964746
1.004
-0.634759
-0.953012
0.991158
-0.672941
-0.941233
0.979415
-0.710716
-0.929834
0.967609
-0.746994
-0.91906
0.955337
-0.911209
0.94387
-0.779655
-0.00713093
-0.522672
-0.038113
-1.01979
-0.0864858
-1.101
-0.134572
-1.08214
-0.181293
-1.06379
-0.227503
-1.04502
-0.27282
-1.02757
-0.31739
-1.01145
-0.361665
-0.996433
-0.405622
-0.9822
-0.448978
-0.969326
-0.492211
-0.956189
-0.535147
-0.94502
-0.576787
-0.93414
-0.617867
-0.923666
-0.656981
-0.913898
-0.694451
-0.903763
-0.730855
-0.893429
-0.764794
-0.885121
-0.877933
-0.79807
-0.00872486
-0.513947
-0.0428771
-0.985641
-0.0918993
-1.05198
-0.141228
-1.03281
-0.189509
-1.01551
-0.236847
-0.997678
-0.283826
-0.980593
-0.33026
-0.96502
-0.375984
-0.950709
-0.421266
-0.936917
-0.465711
-0.92488
-0.50925
-0.912651
-0.552495
-0.901775
-0.595204
-0.891431
-0.637321
-0.881548
-0.679277
-0.871942
-0.719894
-0.863146
-0.76036
-0.852963
-0.800948
-0.844533
-0.838754
-0.840127
-0.00995809
-0.503989
-0.0483659
-0.947233
-0.0996789
-1.00067
-0.150089
-0.982396
-0.199248
-0.966353
-0.247517
-0.949409
-0.29527
-0.93284
-0.342791
-0.917499
-0.389324
-0.904176
-0.435431
-0.890811
-0.481125
-0.879186
-0.526508
-0.867268
-0.57134
-0.856942
-0.615535
-0.847236
-0.659039
-0.838045
-0.701928
-0.829053
-0.743419
-0.821655
-0.783232
-0.81315
-0.823686
-0.80408
-0.797579
-0.864861
-0.00944992
-0.494539
-0.0525112
-0.904172
-0.103999
-0.949181
-0.155995
-0.9304
-0.207213
-0.915136
-0.25697
-0.899651
-0.305337
-0.884473
-0.35348
-0.869356
-0.401344
-0.856312
-0.448506
-0.843649
-0.494966
-0.832726
-0.540876
-0.821358
-0.587025
-0.810793
-0.632612
-0.801648
-0.677762
-0.792895
-0.723413
-0.783402
-0.769373
-0.775695
-0.813312
-0.769211
-0.856134
-0.761258
-0.754547
-0.899166
-0.00673141
-0.487808
-0.0519803
-0.858923
-0.105829
-0.895333
-0.158766
-0.877463
-0.211246
-0.862656
-0.263386
-0.847511
-0.314412
-0.833448
-0.364621
-0.819146
-0.414244
-0.806689
-0.463437
-0.794456
-0.511983
-0.78418
-0.559153
-0.774188
-0.605983
-0.763964
-0.652914
-0.754717
-0.698221
-0.747588
-0.74232
-0.739303
-0.787478
-0.730537
-0.832901
-0.723787
-0.87708
-0.717079
-0.710281
-0.921346
-0.00356722
-0.48424
-0.051175
-0.811315
-0.10908
-0.837428
-0.165694
-0.820849
-0.219908
-0.808442
-0.27296
-0.794459
-0.324807
-0.781601
-0.37552
-0.768433
-0.425357
-0.756852
-0.474706
-0.745107
-0.524048
-0.734838
-0.572708
-0.725528
-0.620355
-0.716317
-0.668813
-0.706258
-0.718134
-0.698267
-0.765606
-0.691831
-0.811871
-0.684272
-0.858438
-0.677221
-0.904615
-0.670901
-0.66488
-0.950016
-0.00162448
-0.482616
-0.0508842
-0.762055
-0.10932
-0.778992
-0.167367
-0.762802
-0.224394
-0.751414
-0.279242
-0.739611
-0.332541
-0.728302
-0.385053
-0.715921
-0.436901
-0.705004
-0.487574
-0.694434
-0.538234
-0.684178
-0.588399
-0.675363
-0.636821
-0.667894
-0.683407
-0.659672
-0.730907
-0.650767
-0.779168
-0.64357
-0.826653
-0.636787
-0.873566
-0.630308
-0.9206
-0.623867
-0.617951
-0.967529
-0.00220658
-0.480409
-0.0541078
-0.710154
-0.114964
-0.718136
-0.173044
-0.704722
-0.230128
-0.694331
-0.28653
-0.683209
-0.341555
-0.673277
-0.39486
-0.662616
-0.447357
-0.652508
-0.498657
-0.643133
-0.549151
-0.633685
-0.600423
-0.62409
-0.652525
-0.615792
-0.702841
-0.609357
-0.751342
-0.602266
-0.799541
-0.595371
-0.847563
-0.588766
-0.894987
-0.582884
-0.941665
-0.577189
-0.571524
-0.988093
-0.00816422
-0.472245
-0.0624243
-0.655894
-0.122679
-0.657882
-0.182103
-0.645298
-0.2401
-0.636333
-0.296923
-0.626386
-0.352249
-0.617951
-0.40609
-0.608774
-0.459216
-0.599382
-0.511538
-0.590811
-0.562088
-0.583135
-0.610926
-0.575252
-0.660252
-0.566467
-0.710738
-0.558871
-0.7609
-0.552103
-0.810153
-0.546119
-0.859181
-0.539737
-0.907956
-0.534109
-0.956203
-0.528942
-0.523681
-1.00405
-0.0167872
-0.455458
-0.0713194
-0.601362
-0.129624
-0.599577
-0.187502
-0.58742
-0.245364
-0.578471
-0.302229
-0.569522
-0.35862
-0.561559
-0.413368
-0.554026
-0.467053
-0.545697
-0.520619
-0.537246
-0.574311
-0.529443
-0.626246
-0.523317
-0.676372
-0.51634
-0.725633
-0.50961
-0.775097
-0.502639
-0.824313
-0.496902
-0.872949
-0.491102
-0.921429
-0.485629
-0.969569
-0.480801
-0.476113
-1.01714
-0.0253088
-0.430149
-0.0822487
-0.544422
-0.141619
-0.540207
-0.199844
-0.529195
-0.257415
-0.5209
-0.314091
-0.512846
-0.370761
-0.504889
-0.426201
-0.498586
-0.479602
-0.492296
-0.531162
-0.485686
-0.582678
-0.477927
-0.634583
-0.471413
-0.68604
-0.464883
-0.736627
-0.459023
-0.78664
-0.452626
-0.836421
-0.447121
-0.88574
-0.441783
-0.934689
-0.43668
-0.983313
-0.432177
-0.427791
-1.03164
-0.0324712
-0.397678
-0.0905391
-0.486354
-0.149591
-0.481155
-0.206797
-0.471989
-0.263425
-0.464273
-0.319384
-0.456887
-0.375649
-0.448624
-0.432462
-0.441774
-0.489051
-0.435707
-0.543736
-0.431001
-0.596682
-0.424981
-0.648417
-0.419678
-0.699494
-0.413805
-0.749929
-0.408588
-0.799652
-0.402903
-0.848976
-0.397797
-0.897892
-0.392867
-0.94644
-0.388133
-0.99473
-0.383887
-0.379912
-1.04261
-0.038142
-0.359536
-0.098656
-0.42584
-0.159731
-0.420081
-0.218138
-0.413581
-0.27579
-0.406621
-0.330986
-0.401691
-0.384723
-0.394887
-0.438061
-0.388436
-0.492313
-0.381454
-0.546824
-0.37649
-0.600843
-0.370961
-0.654267
-0.366254
-0.706836
-0.361237
-0.75858
-0.356843
-0.809432
-0.352051
-0.859815
-0.347415
-0.909512
-0.343169
-0.958814
-0.33883
-1.00779
-0.334908
-0.331226
-1.05648
-0.0415861
-0.31795
-0.101936
-0.36549
-0.163754
-0.358263
-0.224131
-0.353204
-0.283825
-0.346927
-0.342224
-0.343291
-0.398936
-0.338175
-0.453088
-0.334284
-0.506043
-0.328499
-0.558825
-0.323709
-0.611112
-0.318674
-0.663262
-0.314104
-0.714986
-0.309513
-0.766427
-0.305402
-0.817064
-0.301415
-0.867355
-0.297123
-0.917069
-0.293455
-0.966226
-0.289673
-1.01513
-0.286004
-0.282673
-1.06368
-0.042323
-0.275627
-0.100919
-0.306894
-0.162462
-0.29672
-0.222338
-0.293328
-0.281583
-0.287682
-0.340255
-0.284619
-0.39848
-0.279951
-0.455828
-0.276935
-0.51145
-0.272878
-0.566117
-0.269041
-0.619664
-0.265128
-0.672652
-0.261116
-0.724704
-0.257461
-0.776521
-0.253584
-0.827491
-0.250445
-0.877864
-0.24675
-0.927949
-0.24337
-0.97738
-0.240242
-1.02633
-0.237051
-0.233869
-1.07514
-0.0437093
-0.231918
-0.10313
-0.247474
-0.1642
-0.23565
-0.22432
-0.233208
-0.284231
-0.22777
-0.343271
-0.225579
-0.400485
-0.222737
-0.457516
-0.219905
-0.513282
-0.217112
-0.56843
-0.213893
-0.622537
-0.21102
-0.675987
-0.207667
-0.728647
-0.204801
-0.780924
-0.201307
-0.832611
-0.198759
-0.883408
-0.195954
-0.933615
-0.193162
-0.983427
-0.19043
-1.0326
-0.187875
-0.185203
-1.08127
-0.0584433
-0.173474
-0.116202
-0.189715
-0.174188
-0.177665
-0.230427
-0.176969
-0.286928
-0.171269
-0.345131
-0.167377
-0.402388
-0.165479
-0.459322
-0.16297
-0.515483
-0.160951
-0.570755
-0.158621
-0.625045
-0.15673
-0.678563
-0.154149
-0.731141
-0.152222
-0.782932
-0.149517
-0.834456
-0.147234
-0.885516
-0.144894
-0.935818
-0.14286
-0.985671
-0.140577
-1.03498
-0.13857
-0.13642
-1.08376
-0.0625892
-0.110885
-0.126952
-0.125351
-0.185663
-0.118954
-0.243762
-0.11887
-0.29743
-0.1176
-0.351365
-0.113442
-0.405847
-0.110997
-0.460802
-0.108015
-0.51561
-0.106144
-0.57044
-0.103791
-0.625007
-0.102163
-0.67876
-0.100397
-0.732194
-0.0987875
-0.784347
-0.0973644
-0.836014
-0.0955673
-0.88699
-0.0939178
-0.937567
-0.0922836
-0.987434
-0.0907097
-1.03684
-0.0891607
-0.0876253
-1.08564
-0.0573497
-0.0535353
-0.119029
-0.0636722
-0.178251
-0.0597321
-0.241233
-0.055888
-0.300403
-0.0584298
-0.358392
-0.0554538
-0.413763
-0.0556259
-0.468774
-0.0530041
-0.522381
-0.0525362
-0.575771
-0.0504005
-0.628447
-0.0494868
-0.680758
-0.0480866
-0.732665
-0.0468802
-0.784223
-0.045806
-0.83512
-0.0446704
-0.885387
-0.043651
-0.935275
-0.0423953
-0.984558
-0.0414275
-1.03351
-0.0402119
-1.08184
-0.0392876
0.0470821
-0.248047
0.200965
0.121651
-0.872252
0.797683
0.180563
-1.40876
1.34985
0.200687
-1.59855
1.57842
0.205991
-1.60847
1.60317
0.206287
-1.59183
1.59154
0.206002
-1.57022
1.5705
0.205148
-1.55145
1.5523
0.203569
-1.53403
1.53561
0.201472
-1.51762
1.51972
0.199061
-1.50182
1.50423
0.196094
-1.48632
1.48929
0.192664
-1.47126
1.47469
0.188787
-1.4565
1.46037
0.184279
-1.44112
1.44563
0.179036
-1.42351
1.42876
0.1733
-1.40398
1.40972
0.167424
-1.38363
1.38951
0.161508
-1.36687
1.37279
-1.3504
0.155839
1.35607
0.0509073
-0.298954
0.11491
-0.936255
0.159855
-1.45371
0.170229
-1.60892
0.170907
-1.60915
0.168156
-1.58908
0.165686
-1.56775
0.162787
-1.54855
0.15946
-1.53071
0.155527
-1.51369
0.150886
-1.49718
0.145841
-1.48128
0.140385
-1.46581
0.134655
-1.45077
0.128694
-1.43516
0.122752
-1.41757
0.116501
-1.39773
0.110252
-1.37738
0.103927
-1.36055
-1.3441
0.097625
0.0366491
-0.335604
0.0901491
-0.989755
0.128094
-1.49165
0.134814
-1.61564
0.133548
-1.60788
0.12946
-1.58499
0.125332
-1.56362
0.12055
-1.54377
0.115232
-1.52539
0.109593
-1.50805
0.103617
-1.49121
0.0971034
-1.47476
0.0902086
-1.45891
0.0828434
-1.4434
0.0750308
-1.42734
0.06687
-1.40941
0.0586733
-1.38953
0.0505136
-1.36922
0.0421208
-1.35215
-1.33591
0.0339301
0.0377394
-0.373343
0.0865367
-1.03855
0.11148
-1.5166
0.111786
-1.61595
0.105741
-1.60184
0.098681
-1.57793
0.0914687
-1.55641
0.0840567
-1.53636
0.076265
-1.5176
0.0680473
-1.49984
0.059589
-1.48275
0.0510306
-1.46621
0.0422551
-1.45014
0.033463
-1.43461
0.0246706
-1.41855
0.0160085
-1.40075
0.00718895
-1.38071
-0.00180514
-1.36023
-0.010599
-1.34336
-1.32706
-0.0194523
0.0295521
-0.402895
0.0717873
-1.08079
0.0885524
-1.53336
0.0834751
-1.61087
0.074805
-1.59317
0.0660541
-1.56918
0.056967
-1.54732
0.0475314
-1.52692
0.0379342
-1.508
0.0281765
-1.49008
0.0180221
-1.47259
0.00742012
-1.4556
-0.00335617
-1.43936
-0.0144221
-1.42354
-0.0256509
-1.40732
-0.0367484
-1.38965
-0.0476833
-1.36978
-0.0584222
-1.34949
-0.0696314
-1.33215
-1.31609
-0.080603
0.0246321
-0.427527
0.0590012
-1.11516
0.0694408
-1.5438
0.0620368
-1.60347
0.0508053
-1.58194
0.0394933
-1.55787
0.0277666
-1.53559
0.015831
-1.51499
0.00351211
-1.49568
-0.00898066
-1.47758
-0.0213313
-1.46024
-0.0336107
-1.44333
-0.046094
-1.42688
-0.0584616
-1.41117
-0.0706329
-1.39515
-0.0826142
-1.37767
-0.0944328
-1.35796
-0.106362
-1.33756
-0.118097
-1.32042
-1.30425
-0.129939
0.0230532
-0.45058
0.051465
-1.14357
0.0541704
-1.54651
0.0416773
-1.59097
0.0272364
-1.5675
0.0128507
-1.54349
-0.00148783
-1.52125
-0.0158944
-1.50058
-0.0302099
-1.48137
-0.0446115
-1.46318
-0.05935
-1.4455
-0.0741996
-1.42848
-0.0889958
-1.41208
-0.103907
-1.39626
-0.118747
-1.38031
-0.133135
-1.36328
-0.147159
-1.34394
-0.16091
-1.32381
-0.175191
-1.30613
-1.28994
-0.189494
0.0200689
-0.470649
0.0421074
-1.16561
0.0383711
-1.54277
0.0228783
-1.57548
0.00617846
-1.5508
-0.010322
-1.52699
-0.0270832
-1.50449
-0.0438668
-1.4838
-0.0608599
-1.46437
-0.0777973
-1.44625
-0.0943525
-1.42895
-0.110845
-1.41198
-0.127439
-1.39549
-0.143867
-1.37983
-0.159963
-1.36422
-0.175762
-1.34748
-0.191208
-1.32849
-0.206612
-1.30841
-0.221663
-1.29108
-1.27502
-0.236591
0.0174935
-0.488143
0.0347338
-1.18285
0.0260959
-1.53413
0.00675656
-1.55614
-0.0132478
-1.53079
-0.0330495
-1.50718
-0.0525957
-1.48495
-0.072064
-1.46433
-0.0912678
-1.44517
-0.110482
-1.42703
-0.12989
-1.40954
-0.149041
-1.39283
-0.167987
-1.37654
-0.186935
-1.36089
-0.205725
-1.34543
-0.223712
-1.32949
-0.240967
-1.31124
-0.258068
-1.29131
-0.275785
-1.27337
-1.25741
-0.293393
0.0146654
-0.502808
0.0261231
-1.1943
0.011933
-1.51994
-0.00995974
-1.53425
-0.0319639
-1.50879
-0.0537219
-1.48543
-0.0755252
-1.46314
-0.0972496
-1.4426
-0.119043
-1.42337
-0.140554
-1.40552
-0.161628
-1.38847
-0.182601
-1.37186
-0.203486
-1.35566
-0.224091
-1.34028
-0.244389
-1.32513
-0.264471
-1.30941
-0.283731
-1.29198
-0.302339
-1.2727
-0.320758
-1.25495
-1.23918
-0.338988
0.0125924
-0.515401
0.0194752
-1.20119
0.00171381
-1.50218
-0.023655
-1.50888
-0.048979
-1.48346
-0.0739274
-1.46048
-0.0985527
-1.43852
-0.122907
-1.41825
-0.146926
-1.39936
-0.170893
-1.38155
-0.194909
-1.36445
-0.218503
-1.34827
-0.241815
-1.33234
-0.265064
-1.31703
-0.287909
-1.30228
-0.30994
-1.28738
-0.331166
-1.27075
-0.351929
-1.25193
-0.372698
-1.23418
-1.21851
-0.39337
0.00996793
-0.525369
0.0120392
-1.20326
-0.0102945
-1.47985
-0.0376728
-1.4815
-0.0651236
-1.45601
-0.0921869
-1.43341
-0.11899
-1.41171
-0.145696
-1.39154
-0.172299
-1.37275
-0.198453
-1.3554
-0.224118
-1.33879
-0.249591
-1.32279
-0.274795
-1.30714
-0.299665
-1.29216
-0.32424
-1.27771
-0.348392
-1.26323
-0.37151
-1.24763
-0.393799
-1.22965
-0.416062
-1.21191
-1.19658
-0.437985
0.00802357
-0.533392
0.00561462
-1.20085
-0.0207671
-1.45347
-0.0512544
-1.45101
-0.0813127
-1.42595
-0.11105
-1.40368
-0.14039
-1.38237
-0.169334
-1.3626
-0.198032
-1.34405
-0.226635
-1.3268
-0.255222
-1.3102
-0.283335
-1.29468
-0.311097
-1.27938
-0.338912
-1.26435
-0.36631
-1.25031
-0.392973
-1.23657
-0.41848
-1.22212
-0.442868
-1.20526
-0.466855
-1.18793
-1.17262
-0.490817
0.00600046
-0.539393
-8.63963e-05
-1.19476
-0.028978
-1.42457
-0.0618294
-1.41816
-0.0943151
-1.39347
-0.126508
-1.37148
-0.158292
-1.35059
-0.189822
-1.33107
-0.221111
-1.31276
-0.251865
-1.29604
-0.282046
-1.28002
-0.312044
-1.26468
-0.341429
-1.24999
-0.370305
-1.23547
-0.399178
-1.22144
-0.427734
-1.20801
-0.455378
-1.19448
-0.481861
-1.17877
-0.507774
-1.16201
-1.14696
-0.533438
0.00368035
-0.543073
-0.00725859
-1.18382
-0.0399301
-1.3919
-0.0753233
-1.38277
-0.109983
-1.35881
-0.144212
-1.33725
-0.178002
-1.3168
-0.211335
-1.29774
-0.244435
-1.27967
-0.27749
-1.26299
-0.310418
-1.24709
-0.342925
-1.23217
-0.375278
-1.21764
-0.407362
-1.20339
-0.438939
-1.18986
-0.470181
-1.17677
-0.500323
-1.16434
-0.529154
-1.14994
-0.557013
-1.13415
-1.11935
-0.584624
0.00173474
-0.544808
-0.0126707
-1.16942
-0.0464857
-1.35809
-0.083698
-1.34556
-0.120644
-1.32186
-0.157409
-1.30049
-0.193771
-1.28044
-0.229748
-1.26176
-0.265426
-1.24399
-0.300553
-1.22786
-0.335185
-1.21246
-0.369465
-1.19789
-0.403117
-1.18399
-0.436455
-1.17005
-0.469615
-1.1567
-0.502661
-1.14372
-0.53511
-1.13189
-0.56618
-1.11887
-0.595912
-1.10442
-1.08997
-0.62529
-0.000374106
-0.544434
-0.0189289
-1.15086
-0.0566595
-1.32036
-0.0960138
-1.3062
-0.134587
-1.28329
-0.172875
-1.2622
-0.21079
-1.24252
-0.248213
-1.22434
-0.285346
-1.20685
-0.322509
-1.1907
-0.35954
-1.17543
-0.396208
-1.16123
-0.43247
-1.14773
-0.468383
-1.13414
-0.503863
-1.12122
-0.539296
-1.10829
-0.574284
-1.0969
-0.608146
-1.08501
-0.640415
-1.07215
-1.05845
-0.671938
-0.00123838
-0.543195
-0.0225455
-1.12956
-0.0615118
-1.28139
-0.102826
-1.26489
-0.143644
-1.24247
-0.184231
-1.22161
-0.224605
-1.20215
-0.264547
-1.1844
-0.304
-1.1674
-0.342782
-1.15192
-0.381246
-1.13696
-0.419752
-1.12272
-0.457719
-1.10976
-0.495354
-1.0965
-0.532686
-1.08389
-0.569897
-1.07108
-0.607215
-1.05958
-0.643694
-1.04853
-0.678626
-1.03722
-1.02436
-0.712712
-0.00307348
-0.540122
-0.0269692
-1.10566
-0.0693347
-1.23903
-0.1126
-1.22162
-0.154983
-1.20009
-0.196909
-1.17969
-0.238417
-1.16064
-0.279677
-1.14314
-0.320819
-1.12626
-0.361998
-1.11074
-0.402392
-1.09657
-0.44245
-1.08266
-0.48226
-1.06995
-0.5216
-1.05716
-0.560756
-1.04473
-0.599878
-1.03196
-0.639328
-1.02013
-0.679164
-1.0087
-0.718365
-0.998021
-0.986888
-0.755837
-0.00487037
-0.0311125
-0.0747007
-0.119552
-0.163459
-0.207046
-0.25033
-0.292847
-0.334557
-0.376218
-0.41805
-0.45966
-0.501143
-0.542428
-0.583162
-0.623959
-0.664679
-0.705766
-0.748449
-0.791467
0.0866588
-11.7162
11.7854
0.0449316
-11.0482
11.0899
0.00223161
-10.7683
10.811
-0.0291499
-10.3441
10.3755
-0.0506526
-10.0707
10.0922
-0.0634968
-9.77867
9.79152
-0.0724521
-9.5548
9.56375
-0.0747889
-9.3257
9.32804
-0.073332
-9.14945
9.14799
-0.0693162
-8.99202
8.988
-0.0626236
-8.88035
8.87365
-0.0538472
-8.77059
8.76182
-0.0420407
-8.69807
8.68626
-0.0306302
-8.6115
8.60009
-0.0158486
-8.56688
8.5521
-0.00236534
-8.48377
8.47029
0.016177
-8.25825
8.23971
0.020747
-7.33797
7.3334
0.0132439
-5.25495
5.26245
-2.16397
2.17722
0.0322832
-11.6509
-0.00920789
-11.0067
-0.0523106
-10.7252
-0.0855999
-10.3109
-0.105034
-10.0512
-0.115602
-9.7681
-0.121353
-9.54905
-0.121015
-9.32604
-0.116302
-9.15416
-0.109016
-8.9993
-0.0989652
-8.8904
-0.0866333
-8.78293
-0.0713604
-8.71334
-0.0563466
-8.62651
-0.0378038
-8.58543
-0.0198862
-8.50169
0.00319992
-8.28134
0.0136446
-7.34841
0.0119054
-5.25321
-2.15207
-0.044097
-11.5728
-0.0891999
-10.9616
-0.131064
-10.6834
-0.159228
-10.2827
-0.173683
-10.0368
-0.180317
-9.76147
-0.18169
-9.54768
-0.176434
-9.33129
-0.166879
-9.16372
-0.154949
-9.01123
-0.140369
-8.90498
-0.123431
-8.79986
-0.103231
-8.73354
-0.0830598
-8.64668
-0.0598934
-8.60859
-0.0375936
-8.52399
-0.0102902
-8.30864
0.00638662
-7.36509
0.0114089
-5.25823
-2.14066
-0.0970664
-11.4952
-0.144983
-10.9137
-0.188287
-10.6401
-0.216622
-10.2544
-0.228801
-10.0246
-0.232922
-9.75735
-0.231058
-9.54954
-0.223077
-9.33927
-0.210215
-9.17658
-0.195031
-9.02642
-0.177179
-8.92283
-0.156908
-8.82014
-0.133226
-8.75723
-0.109325
-8.67059
-0.0824874
-8.63543
-0.0556132
-8.55087
-0.0244747
-8.33978
-0.0018275
-7.38773
0.00970298
-5.26976
-2.13096
-0.170814
-11.405
-0.222217
-10.8623
-0.264586
-10.5977
-0.288207
-10.2307
-0.29633
-10.0165
-0.296709
-9.75697
-0.290591
-9.55566
-0.277945
-9.35192
-0.260441
-9.19408
-0.240726
-9.04613
-0.218418
-8.94514
-0.193639
-8.84491
-0.165299
-8.78557
-0.136107
-8.69978
-0.105154
-8.66638
-0.0737429
-8.58228
-0.0393919
-8.37413
-0.011105
-7.41602
0.00822484
-5.28909
-2.12273
-0.222862
-11.3121
-0.278436
-10.8067
-0.322522
-10.5536
-0.346032
-10.2072
-0.351785
-10.0107
-0.349555
-9.7592
-0.340155
-9.56506
-0.324747
-9.36733
-0.303917
-9.21491
-0.280883
-9.06916
-0.255304
-8.97072
-0.227372
-8.87285
-0.195995
-8.81694
-0.162753
-8.73302
-0.128189
-8.70095
-0.0923913
-8.61807
-0.0530849
-8.41344
-0.0197776
-7.44933
0.00516041
-5.31403
-2.11757
-0.294231
-11.2073
-0.353134
-10.7478
-0.395868
-10.5109
-0.415134
-10.188
-0.417751
-10.0081
-0.41188
-9.76507
-0.398391
-9.57855
-0.378583
-9.38714
-0.353362
-9.24013
-0.325948
-9.09658
-0.296033
-9.00063
-0.263651
-8.90523
-0.227807
-8.85279
-0.189835
-8.77099
-0.150758
-8.74002
-0.110625
-8.65821
-0.066833
-8.45723
-0.0277292
-7.48843
0.0033841
-5.34514
-2.11419
-0.345087
-11.0988
-0.408814
-10.6841
-0.453666
-10.466
-0.472795
-10.1688
-0.473138
-10.0078
-0.464632
-9.77357
-0.447812
-9.59537
-0.425185
-9.40976
-0.39668
-9.26864
-0.365808
-9.12745
-0.332573
-9.03387
-0.297198
-8.9406
-0.258499
-8.89149
-0.216598
-8.81289
-0.173344
-8.78328
-0.128649
-8.7029
-0.07999
-8.50589
-0.0344476
-7.53398
0.00103632
-5.38063
-2.11315
-0.413514
-10.9787
-0.480449
-10.6171
-0.523731
-10.4228
-0.539188
-10.1534
-0.536967
-10.01
-0.524945
-9.7856
-0.504267
-9.61604
-0.477485
-9.43655
-0.444951
-9.30117
-0.40987
-9.16253
-0.372361
-9.07137
-0.332522
-8.98044
-0.289608
-8.9344
-0.243445
-8.85906
-0.195682
-8.83104
-0.146287
-8.7523
-0.0920957
-8.56008
-0.0401348
-7.58594
-0.000525964
-5.42024
-2.11368
-0.464144
-10.8536
-0.535338
-10.5459
-0.580732
-10.3774
-0.596151
-10.138
-0.591822
-10.0143
-0.577184
-9.80023
-0.553228
-9.64
-0.52355
-9.46622
-0.487694
-9.33703
-0.449036
-9.20119
-0.40821
-9.1122
-0.365403
-9.02325
-0.319565
-8.98024
-0.26958
-8.90904
-0.217611
-8.88301
-0.163834
-8.80608
-0.104745
-8.61917
-0.0471043
-7.64358
-0.0036471
-5.46369
-2.11732
-0.529178
-10.7178
-0.603415
-10.4717
-0.647265
-10.3335
-0.659592
-10.1256
-0.652976
-10.0209
-0.634969
-9.81824
-0.607478
-9.66749
-0.573919
-9.49978
-0.534387
-9.37656
-0.491713
-9.24386
-0.446662
-9.15725
-0.399334
-9.07058
-0.349581
-9.02999
-0.29575
-8.96287
-0.239683
-8.93907
-0.181612
-8.86415
-0.117626
-8.68316
-0.0552732
-7.70593
-0.00745358
-5.51151
-2.12478
-0.579417
-10.5763
-0.657104
-10.394
-0.703005
-10.2876
-0.71558
-10.1131
-0.706908
-10.0296
-0.686295
-9.83885
-0.655562
-9.69823
-0.619008
-9.53634
-0.576116
-9.41945
-0.529883
-9.2901
-0.481588
-9.20555
-0.431232
-9.12093
-0.378505
-9.08272
-0.321306
-9.02007
-0.261179
-8.9992
-0.198843
-8.92648
-0.130278
-8.75172
-0.0633384
-7.77287
-0.0112641
-5.56359
-2.13604
-0.641458
-10.4257
-0.721382
-10.3141
-0.765529
-10.2435
-0.775657
-10.1029
-0.765007
-10.0403
-0.741221
-9.86264
-0.707293
-9.73215
-0.667123
-9.57651
-0.620932
-9.46564
-0.570895
-9.34013
-0.518435
-9.25801
-0.463583
-9.17579
-0.40702
-9.13928
-0.346402
-9.08069
-0.282572
-9.06303
-0.216329
-8.99273
-0.143159
-8.82489
-0.0711076
-7.84492
-0.0145208
-5.62017
-2.15056
-0.691046
-10.2681
-0.773713
-10.2314
-0.819626
-10.1975
-0.830226
-10.0923
-0.817489
-10.053
-0.79117
-9.88896
-0.754017
-9.76931
-0.710771
-9.61975
-0.661196
-9.51522
-0.607756
-9.39357
-0.552218
-9.31354
-0.494426
-9.23358
-0.434678
-9.19903
-0.370791
-9.14458
-0.30337
-9.13045
-0.233438
-9.06266
-0.156013
-8.90232
-0.0779852
-7.92295
-0.0167002
-5.68146
-2.16726
-0.750144
-10.1026
-0.834159
-10.1474
-0.877712
-10.154
-0.886577
-10.0835
-0.872248
-10.0673
-0.843016
-9.91819
-0.803008
-9.80931
-0.756403
-9.66636
-0.703842
-9.56778
-0.646778
-9.45064
-0.587142
-9.37318
-0.525051
-9.29567
-0.461682
-9.2624
-0.394693
-9.21156
-0.32374
-9.20141
-0.250433
-9.13596
-0.168043
-8.98471
-0.0842791
-8.00671
-0.0189233
-5.74682
-2.18619
-0.798482
-9.92937
-0.884927
-10.061
-0.929718
-10.1092
-0.939044
-10.0741
-0.922756
-10.0836
-0.891106
-9.94984
-0.847923
-9.8525
-0.79819
-9.71609
-0.742318
-9.62365
-0.682113
-9.51084
-0.619555
-9.43574
-0.554533
-9.36069
-0.487816
-9.32912
-0.417823
-9.28156
-0.343933
-9.2753
-0.267149
-9.21275
-0.180752
-9.0711
-0.0920182
-8.09545
-0.0217771
-5.81706
-2.20796
-0.854866
-9.74644
-0.941484
-9.97435
-0.982563
-10.0681
-0.990784
-10.0659
-0.973511
-10.1009
-0.939369
-9.98398
-0.89377
-9.8981
-0.840975
-9.76889
-0.782392
-9.68223
-0.718734
-9.5745
-0.65219
-9.50228
-0.583376
-9.42951
-0.513562
-9.39893
-0.441086
-9.35403
-0.363947
-9.35244
-0.283458
-9.29324
-0.192962
-9.1616
-0.0988445
-8.18956
-0.0241737
-5.89173
-2.23214
-0.904912
-9.55424
-0.993213
-9.88605
-1.03342
-10.0279
-1.04111
-10.0582
-1.02193
-10.1201
-0.9853
-10.0206
-0.936474
-9.94692
-0.880547
-9.82481
-0.818819
-9.74396
-0.75232
-9.641
-0.683041
-9.57156
-0.611327
-9.50122
-0.538044
-9.47221
-0.462949
-9.42913
-0.383487
-9.4319
-0.299336
-9.37739
-0.204941
-9.25599
-0.105311
-8.28919
-0.0264387
-5.9706
-2.25858
-0.950856
-9.35922
-1.04837
-9.78854
-1.08514
-9.99115
-1.09128
-10.0521
-1.07073
-10.1406
-1.03164
-10.0597
-0.980274
-9.99829
-0.921177
-9.88391
-0.856643
-9.8085
-0.786742
-9.7109
-0.713797
-9.64451
-0.63857
-9.57645
-0.562168
-9.54861
-0.483649
-9.50765
-0.40147
-9.51408
-0.314812
-9.46405
-0.216728
-9.35408
-0.112704
-8.39322
-0.0293034
-6.054
-2.28788
-0.986673
-9.16402
-1.08869
-9.68653
-1.12514
-9.95469
-1.13132
-10.0459
-1.11237
-10.1596
-1.07189
-10.1002
-1.01914
-10.051
-0.957167
-9.94588
-0.890467
-9.8752
-0.817917
-9.78345
-0.74271
-9.71971
-0.664412
-9.65474
-0.585124
-9.6279
-0.503496
-9.58928
-0.419739
-9.59783
-0.329881
-9.5539
-0.227808
-9.45615
-0.119338
-8.50169
-0.030252
-6.14309
-2.31813
7.89744
-8.31958
-8.74188
6.76149
-8.55057
5.74172
-8.93493
4.81284
-9.11702
3.96881
-9.31552
3.23641
-9.36779
2.61374
-9.42838
2.09919
-9.43133
1.67086
-9.44686
1.32508
-9.43767
1.04525
-9.43988
0.830494
-9.43999
0.656731
-9.45414
0.514404
-9.44695
0.390998
-9.47443
0.302461
-9.46537
0.247553
-9.40124
0.17395
-8.42808
0.0541134
-6.02325
-2.26402
4.46975
-7.94893
-4.8404
4.0636
-8.14443
3.61139
-8.48272
3.16283
-8.66845
2.70829
-8.86099
2.30129
-8.96078
1.93453
-9.06162
1.62093
-9.11773
1.35098
-9.17692
1.13013
-9.21682
0.943315
-9.25307
0.7879
-9.28458
0.640843
-9.30708
0.521213
-9.32732
0.402745
-9.35596
0.301518
-9.36414
0.192518
-9.29224
0.0874377
-8.323
-0.0788141
-5.857
-2.34283
3.14425
-7.87697
-3.21621
3.06287
-8.06304
2.85211
-8.27196
2.62608
-8.44242
2.36001
-8.59492
2.11093
-8.71171
1.8634
-8.81409
1.6347
-8.88903
1.41646
-8.95867
1.21861
-9.01898
1.0336
-9.06805
0.86035
-9.11133
0.69477
-9.1415
0.550504
-9.18305
0.415325
-9.22078
0.295489
-9.2443
0.177396
-9.17415
0.0969594
-8.24257
0.00448991
-5.76453
-2.33834
1.92455
-7.92306
-1.87846
1.92673
-8.06522
1.86672
-8.21195
1.7664
-8.34211
1.62682
-8.45533
1.47774
-8.56262
1.32178
-8.65813
1.17225
-8.7395
1.02189
-8.80831
0.878501
-8.87559
0.744467
-8.93402
0.62037
-8.98723
0.512134
-9.03327
0.415056
-9.08598
0.327333
-9.13306
0.25253
-9.1695
0.17031
-9.09193
0.12181
-8.19407
0.0705016
-5.71322
-2.26784
1.23455
-7.99431
-1.1633
1.27384
-8.10452
1.27828
-8.21638
1.24352
-8.30735
1.18433
-8.39615
1.10815
-8.48644
1.0154
-8.56539
0.92017
-8.64427
0.821165
-8.7093
0.720095
-8.77452
0.620659
-8.83458
0.524979
-8.89155
0.434153
-8.94244
0.347739
-8.99956
0.258898
-9.04422
0.176803
-9.08741
0.104576
-9.0197
0.0812967
-8.17079
0.0616979
-5.69362
-2.20614
0.826506
-8.07339
-0.747423
0.871465
-8.14948
0.860855
-8.20577
0.842802
-8.2893
0.813044
-8.36639
0.765373
-8.43877
0.704287
-8.5043
0.632549
-8.57253
0.560005
-8.63676
0.480253
-8.69477
0.399181
-8.75351
0.320203
-8.81257
0.245341
-8.86758
0.172265
-8.92649
0.108939
-8.98089
0.0497249
-9.02819
-0.0114597
-8.95852
0.0136701
-8.19592
0.0548397
-5.73479
-2.1513
0.47882
-8.11502
-0.437192
0.499894
-8.17055
0.527449
-8.23333
0.535311
-8.29716
0.521938
-8.35301
0.497248
-8.41408
0.463756
-8.47081
0.417764
-8.52654
0.368166
-8.58716
0.312805
-8.63941
0.253735
-8.69444
0.188815
-8.74765
0.123787
-8.80255
0.0530652
-8.85576
-0.0173307
-8.91049
-0.083875
-8.96165
-0.134832
-8.90756
-0.0883329
-8.24242
0.0202732
-5.8434
-2.13103
0.338447
-8.15111
-0.302364
0.363472
-8.19558
0.370333
-8.24019
0.357136
-8.28396
0.337289
-8.33317
0.309685
-8.38647
0.274751
-8.43588
0.232647
-8.48443
0.178834
-8.53335
0.12571
-8.58629
0.0698219
-8.63855
0.0106129
-8.68844
-0.0464922
-8.74544
-0.106065
-8.79619
-0.162944
-8.85361
-0.221962
-8.90263
-0.257532
-8.87199
-0.196219
-8.30373
-0.0171548
-6.02246
-2.14818
0.193687
-8.166
-0.178792
0.199682
-8.20157
0.20056
-8.24107
0.197362
-8.28076
0.188296
-8.3241
0.163941
-8.36212
0.134387
-8.40632
0.0964137
-8.44646
0.0520661
-8.489
-0.000601324
-8.53362
-0.0559449
-8.58321
-0.111533
-8.63285
-0.173124
-8.68385
-0.231656
-8.73766
-0.291875
-8.7934
-0.34781
-8.8467
-0.38492
-8.83488
-0.312595
-8.37605
-0.0715308
-6.26352
-2.21971
0.147326
-8.17605
-0.137272
0.149148
-8.20339
0.141962
-8.23388
0.12217
-8.26097
0.0908952
-8.29283
0.0526079
-8.32383
0.00761794
-8.36133
-0.0391186
-8.39972
-0.0831108
-8.44501
-0.131166
-8.48556
-0.183259
-8.53111
-0.242496
-8.57362
-0.301058
-8.62529
-0.367699
-8.67102
-0.43199
-8.7291
-0.492116
-8.78657
-0.528748
-8.79825
-0.458595
-8.44621
-0.163702
-6.55842
-2.38342
0.100225
-8.16877
-0.107508
0.084522
-8.18769
0.0622629
-8.21162
0.037205
-8.23591
0.00824153
-8.26386
-0.0222038
-8.29338
-0.0588214
-8.32471
-0.10332
-8.35522
-0.1579
-8.39043
-0.217976
-8.42549
-0.283364
-8.46572
-0.353136
-8.50385
-0.427341
-8.55109
-0.501682
-8.59668
-0.576489
-8.6543
-0.654994
-8.70806
-0.715367
-8.73788
-0.666918
-8.49466
-0.314865
-6.91047
-2.69828
0.094704
-8.15358
-0.109899
0.075043
-8.16803
0.0516113
-8.18819
0.0226151
-8.20692
-0.0112608
-8.22999
-0.0520724
-8.25257
-0.0963789
-8.28041
-0.146759
-8.30484
-0.204202
-8.33299
-0.269592
-8.3601
-0.340316
-8.395
-0.415507
-8.42865
-0.500652
-8.46594
-0.593258
-8.50407
-0.698359
-8.5492
-0.809362
-8.59706
-0.90611
-8.64113
-0.911955
-8.48881
-0.54544
-7.27699
-3.24372
0.0956827
-8.13155
-0.117708
0.0703657
-8.14271
0.0409801
-8.1588
0.00733094
-8.17327
-0.031202
-8.19146
-0.0755022
-8.20827
-0.128499
-8.22741
-0.18589
-8.24745
-0.248191
-8.27069
-0.314514
-8.29377
-0.392677
-8.31684
-0.483288
-8.33804
-0.581682
-8.36755
-0.690845
-8.39491
-0.811807
-8.42824
-0.948917
-8.45995
-1.09697
-8.49307
-1.14497
-8.44081
-0.84833
-7.57363
-4.09205
0.115449
-8.10707
-0.139932
0.0881886
-8.11545
0.0568032
-8.12742
0.0207025
-8.13717
-0.0204466
-8.15031
-0.067099
-8.16162
-0.118006
-8.1765
-0.175664
-8.18979
-0.240425
-8.20592
-0.314753
-8.21945
-0.394645
-8.23695
-0.480522
-8.25217
-0.582021
-8.26605
-0.691505
-8.28542
-0.822303
-8.29744
-0.969494
-8.31276
-1.14346
-8.3191
-1.27385
-8.31042
-1.06516
-7.78232
-5.15722
0.109879
-8.08371
-0.133235
0.0822946
-8.08787
0.0499885
-8.09511
0.0133413
-8.10052
-0.026814
-8.11015
-0.0704485
-8.11798
-0.120294
-8.12666
-0.175183
-8.1349
-0.23472
-8.14639
-0.299519
-8.15465
-0.371186
-8.16528
-0.451443
-8.17191
-0.539616
-8.17787
-0.644478
-8.18056
-0.759229
-8.18269
-0.886588
-8.1854
-1.03014
-8.17555
-1.17469
-8.16588
-1.02414
-7.93286
-6.18136
0.0941107
-8.06553
-0.112293
0.0734687
-8.06723
0.0492472
-8.07089
0.0216116
-8.07289
-0.0102946
-8.07824
-0.0461009
-8.08218
-0.0853056
-8.08745
-0.129889
-8.09032
-0.181375
-8.0949
-0.238287
-8.09774
-0.301414
-8.10215
-0.370129
-8.10319
-0.441327
-8.10668
-0.519974
-8.10192
-0.601466
-8.10119
-0.698796
-8.08807
-0.797801
-8.07655
-0.89791
-8.06577
-0.839405
-7.99137
-7.02076
0.0610159
-8.04544
-0.0811034
0.0404979
-8.04671
0.0184173
-8.04881
-0.00519361
-8.04927
-0.0310704
-8.05237
-0.0597925
-8.05346
-0.0911822
-8.05606
-0.122637
-8.05887
-0.15519
-8.06235
-0.192013
-8.06091
-0.230448
-8.06372
-0.270551
-8.06309
-0.312722
-8.06451
-0.356488
-8.05815
-0.406257