/*--------------------------------*- C++ -*----------------------------------*\
  =========                 |
  \\      /  F ield         | OpenFOAM: The Open Source CFD Toolbox
   \\    /   O peration     | Website:  https://openfoam.org
    \\  /    A nd           | Version:  9
     \\/     M anipulation  |
\*---------------------------------------------------------------------------*/
FoamFile
{
    format      ascii;
    class       volVectorField;
    location    "4.4";
    object      U;
}
// * * * * * * * * * * * * * * * * * * * * * * * * * * * * * * * * * * * * * //

dimensions      [0 1 -1 0 0 0 0];

internalField   nonuniform List<vector> 
46400
(
(9.54752 -9.29494 -5.7045e-19)
(19.1954 -18.4753 5.71583e-19)
(20.6915 -20.8503 -7.13058e-20)
(19.9225 -20.9108 1.91479e-20)
(19.2332 -20.8912 -5.57821e-20)
(18.5011 -20.9213 -5.02549e-19)
(17.8495 -20.8962 2.47925e-19)
(17.2293 -20.94 -2.93955e-20)
(16.6469 -20.9685 1.98895e-20)
(16.0956 -20.9978 -1.13744e-20)
(15.5854 -21.0396 3.78466e-21)
(15.097 -21.0653 0)
(14.6324 -21.1051 -5.99358e-21)
(14.1923 -21.1173 -3.07781e-21)
(13.7593 -21.1439 -1.13492e-19)
(13.3286 -21.1133 -6.53764e-20)
(12.9058 -21.1232 -4.05077e-20)
(12.5484 -21.0841 1.37321e-19)
(12.1719 -21.0413 2.64072e-19)
(11.6796 -21.2602 -2.40731e-19)
(9.8159 -8.77698 0)
(19.3009 -17.2765 -3.65147e-20)
(20.5297 -19.2176 0)
(19.7721 -19.3956 -3.03651e-19)
(19.1131 -19.4252 2.18476e-19)
(18.4116 -19.5239 -5.21312e-20)
(17.7873 -19.5808 0)
(17.1697 -19.6339 2.93978e-20)
(16.6098 -19.7129 -1.9891e-20)
(16.0807 -19.7811 1.13749e-20)
(15.5634 -19.8588 9.6027e-20)
(15.078 -19.91 4.85626e-20)
(14.6297 -20.016 -1.35314e-19)
(14.1884 -20.0643 0)
(13.7799 -20.1425 1.96154e-20)
(13.3963 -20.1998 2.41515e-20)
(12.9971 -20.2234 0)
(12.6505 -20.2114 -3.58828e-19)
(12.335 -20.2275 -1.05733e-19)
(11.885 -20.4129 3.69691e-19)
(10.0171 -8.23261 -1.90418e-19)
(19.286 -16.0441 1.27474e-19)
(20.3237 -17.6972 -1.86851e-19)
(19.5368 -17.8808 -7.65006e-20)
(18.8815 -17.9789 7.51019e-20)
(18.1689 -18.0946 0)
(17.5258 -18.1787 -1.16072e-19)
(16.9335 -18.3033 9.16972e-20)
(16.3552 -18.402 -2.48047e-19)
(15.8108 -18.4956 2.50242e-19)
(15.3128 -18.6153 3.02052e-19)
(14.8221 -18.6955 -9.67283e-21)
(14.3637 -18.7884 -2.78387e-19)
(13.9518 -18.8986 0)
(13.5331 -18.9783 4.26018e-19)
(13.1449 -19.0669 -4.19561e-19)
(12.7685 -19.1673 0)
(12.4238 -19.1847 -1.78913e-20)
(12.0869 -19.2937 5.13682e-20)
(11.6771 -19.5703 -5.24665e-19)
(10.1552 -7.66834 4.2357e-20)
(19.1497 -14.7988 -3.05279e-20)
(19.9557 -16.1757 1.94711e-20)
(19.17 -16.4362 -1.9247e-20)
(18.5381 -16.575 -6.63442e-20)
(17.8736 -16.763 1.02386e-19)
(17.2543 -16.9009 1.90582e-19)
(16.6489 -17.0362 -5.51514e-19)
(16.1061 -17.2024 4.8138e-19)
(15.5937 -17.3359 -4.25995e-20)
(15.1058 -17.4956 0)
(14.6509 -17.6287 5.18753e-20)
(14.2193 -17.7901 -5.56136e-20)
(13.7982 -17.9045 0)
(13.411 -18.0524 5.86916e-19)
(13.0353 -18.1607 -4.94458e-19)
(12.6696 -18.2918 0)
(12.322 -18.3323 6.78862e-20)
(11.9762 -18.3987 8.48169e-20)
(11.5551 -18.697 6.61971e-19)
(10.2594 -7.10657 0)
(18.8601 -13.4732 0)
(19.4697 -14.6829 -1.63603e-19)
(18.7235 -14.9761 9.86213e-20)
(18.0999 -15.1969 -2.73589e-19)
(17.4293 -15.4063 2.31476e-19)
(16.7969 -15.5806 0)
(16.2301 -15.7541 3.06062e-19)
(15.6847 -15.9536 -3.65317e-19)
(15.1621 -16.107 -9.43813e-20)
(14.6779 -16.2951 -9.68557e-20)
(14.2005 -16.4294 0)
(13.7535 -16.5954 7.28248e-19)
(13.3631 -16.769 -7.16867e-19)
(12.962 -16.9221 0)
(12.5922 -17.072 -8.38822e-19)
(12.2601 -17.2731 7.44016e-19)
(11.9515 -17.4115 7.62813e-19)
(11.6115 -17.5225 -8.28209e-19)
(11.1917 -17.8316 0)
(10.3851 -6.53266 0)
(18.4412 -12.099 0)
(18.9618 -13.2403 0)
(18.1748 -13.5442 -3.40184e-20)
(17.558 -13.8024 0)
(16.9592 -14.0941 0)
(16.3791 -14.3677 0)
(15.7874 -14.5669 -1.15057e-19)
(15.2519 -14.8095 0)
(14.7664 -15.0264 9.43825e-20)
(14.3091 -15.2658 -2.36323e-20)
(13.8777 -15.4707 -1.01418e-18)
(13.4529 -15.6618 7.5687e-19)
(13.0525 -15.8513 -1.0249e-18)
(12.6908 -16.0529 7.67189e-19)
(12.3005 -16.1872 0)
(11.9322 -16.338 -9.02657e-19)
(11.6399 -16.5137 7.68878e-19)
(11.329 -16.6571 0)
(10.9175 -16.9819 -1.25466e-19)
(10.5672 -5.9536 3.51301e-19)
(17.8934 -10.7828 1.14813e-19)
(18.2101 -11.7628 4.44403e-19)
(17.5022 -12.1911 -4.71854e-19)
(16.8925 -12.5232 -4.88785e-19)
(16.2551 -12.8037 9.83299e-19)
(15.6603 -13.1023 -1.14859e-18)
(15.1327 -13.3606 9.81561e-20)
(14.6203 -13.6369 3.70723e-19)
(14.1215 -13.854 0)
(13.6694 -14.1134 -2.27706e-20)
(13.2458 -14.3456 -2.16904e-20)
(12.8178 -14.5653 1.21803e-19)
(12.4328 -14.7709 1.04296e-18)
(12.0942 -15.0303 -9.24492e-19)
(11.7726 -15.2655 -1.18977e-18)
(11.4192 -15.4573 1.03452e-18)
(11.1068 -15.6245 -1.66448e-20)
(10.8232 -15.8131 -1.34955e-19)
(10.4312 -16.1534 -9.59492e-19)
(10.798 -5.44521 -1.40758e-19)
(17.2184 -9.52263 3.6231e-20)
(17.3743 -10.3772 -1.58153e-19)
(16.6679 -10.7778 -6.30896e-19)
(16.1196 -11.2399 4.2367e-19)
(15.5945 -11.6047 0)
(15.0708 -11.9894 9.29078e-19)
(14.5441 -12.2696 -4.44676e-19)
(14.0523 -12.6022 3.09262e-19)
(13.604 -12.8769 1.65916e-19)
(13.1627 -13.1649 -3.1286e-19)
(12.7699 -13.4396 7.54034e-19)
(12.3939 -13.7151 1.62139e-19)
(11.9783 -13.91 -9.1253e-19)
(11.5997 -14.1113 2.55754e-18)
(11.2822 -14.3562 -1.045e-18)
(10.9635 -14.5865 1.33141e-18)
(10.6644 -14.7863 -8.6954e-19)
(10.3777 -14.9648 2.85787e-19)
(10.0192 -15.3353 1.3825e-18)
(10.9773 -4.96576 7.47507e-19)
(16.4368 -8.33111 -1.53035e-19)
(16.4058 -9.10751 -3.22405e-20)
(15.7742 -9.55825 3.54646e-19)
(15.2168 -10.0191 1.64529e-19)
(14.693 -10.4138 1.92625e-19)
(14.1738 -10.831 -8.90748e-19)
(13.6899 -11.1689 5.44639e-19)
(13.2206 -11.5203 -1.66625e-19)
(12.7795 -11.8256 -1.65919e-19)
(12.3457 -12.1239 -1.64917e-19)
(11.9585 -12.4085 -1.8307e-19)
(11.6111 -12.7301 -3.42811e-19)
(11.3057 -13.0468 1.19752e-18)
(10.9576 -13.2949 -1.67132e-18)
(10.6265 -13.5342 -1.72906e-19)
(10.325 -13.7786 1.54801e-20)
(10.046 -14.003 -1.26722e-18)
(9.78083 -14.203 9.47524e-19)
(9.4476 -14.5488 -1.50717e-18)
(11.0636 -4.55699 7.2562e-19)
(15.4924 -7.20292 -1.84622e-18)
(15.2612 -7.93574 1.22753e-18)
(14.7329 -8.40732 -1.92354e-19)
(14.2515 -8.95699 -2.18992e-19)
(13.7866 -9.38342 8.51504e-19)
(13.3499 -9.85549 -1.02766e-18)
(12.9199 -10.2308 0)
(12.4932 -10.6171 8.02769e-19)
(12.116 -10.9696 -7.89404e-19)
(11.7344 -11.3137 -5.77505e-19)
(11.3358 -11.5876 7.51168e-19)
(10.953 -11.8578 1.80699e-19)
(10.6226 -12.1483 -7.46978e-19)
(10.325 -12.4498 1.76178e-19)
(10.0363 -12.7281 8.96617e-19)
(9.74029 -12.9882 -1.59097e-18)
(9.47576 -13.2386 1.05098e-18)
(9.22848 -13.4688 -1.31498e-20)
(8.92279 -13.8241 -1.46486e-18)
(10.9061 -4.11549 1.04402e-18)
(14.465 -6.19164 -7.04586e-19)
(14.2028 -6.91217 4.76196e-19)
(13.6698 -7.35063 1.10199e-20)
(13.2049 -7.91647 -9.44542e-19)
(12.7701 -8.35711 -8.96643e-19)
(12.3484 -8.85473 1.11842e-18)
(11.9548 -9.26611 -6.61946e-19)
(11.5427 -9.67713 8.80023e-19)
(11.1605 -10.0377 0)
(10.8209 -10.4314 1.7507e-20)
(10.5272 -10.8018 2.01153e-19)
(10.1922 -11.1206 2.13827e-19)
(9.87085 -11.4152 -2.09782e-19)
(9.56291 -11.6955 0)
(9.29097 -11.9909 2.01747e-19)
(9.02308 -12.2598 0)
(8.77183 -12.5199 3.75196e-19)
(8.54427 -12.7613 1.83473e-18)
(8.2757 -13.1105 -9.79448e-21)
(10.5203 -3.60226 5.92306e-19)
(13.3494 -5.27867 -1.21846e-19)
(12.9872 -5.98934 -1.83071e-18)
(12.5317 -6.47515 1.02506e-18)
(12.0976 -7.05189 2.42848e-19)
(11.7196 -7.52385 -2.39929e-19)
(11.3453 -8.03356 -9.88566e-19)
(11.0163 -8.49341 7.38296e-19)
(10.6711 -8.93222 0)
(10.3299 -9.31013 0)
(9.97696 -9.66445 -1.14165e-18)
(9.67246 -10.0262 9.04926e-19)
(9.38626 -10.3788 -2.1383e-19)
(9.11455 -10.716 -6.56798e-19)
(8.83394 -11.0215 4.20016e-21)
(8.57745 -11.3289 1.46601e-18)
(8.33022 -11.6184 -8.19201e-19)
(8.09271 -11.8934 6.04039e-19)
(7.87983 -12.1501 -9.76332e-19)
(7.63932 -12.4999 0)
(9.93191 -3.05999 -5.25646e-19)
(12.1233 -4.42102 8.48178e-19)
(11.7954 -5.15421 1.46463e-19)
(11.3558 -5.6396 1.4425e-19)
(10.9749 -6.22839 0)
(10.6209 -6.70508 1.08072e-18)
(10.246 -7.21356 -1.06171e-18)
(9.94107 -7.68545 1.3418e-19)
(9.65269 -8.18072 0)
(9.38029 -8.62714 9.99629e-19)
(9.07999 -9.03264 -8.57179e-19)
(8.80364 -9.4114 9.58203e-19)
(8.51996 -9.76112 -9.4299e-19)
(8.26303 -10.1065 9.17469e-19)
(8.00632 -10.4217 -7.87876e-19)
(7.77173 -10.736 -8.77928e-19)
(7.54835 -11.031 1.72363e-18)
(7.33546 -11.3159 -7.38189e-19)
(7.14222 -11.5798 1.05548e-19)
(6.93045 -11.9198 8.78623e-19)
(9.15811 -2.50659 -4.25792e-19)
(10.8662 -3.657 4.60865e-19)
(10.5032 -4.4159 -1.46464e-19)
(10.1757 -4.9624 -1.44248e-19)
(9.81871 -5.56934 0)
(9.50954 -6.08226 0)
(9.17316 -6.57174 0)
(8.86052 -7.02211 -2.75771e-19)
(8.56667 -7.46616 -1.07971e-18)
(8.33531 -7.92903 2.1181e-18)
(8.08701 -8.35211 -1.16519e-18)
(7.85989 -8.77446 -1.29469e-19)
(7.63071 -9.15723 0)
(7.4118 -9.53545 0)
(7.18851 -9.87451 -2.36243e-19)
(6.97444 -10.2107 0)
(6.77064 -10.5236 9.00742e-19)
(6.57325 -10.8231 -1.10801e-18)
(6.39331 -11.1022 -9.64777e-19)
(6.20369 -11.4456 9.2883e-19)
(8.25024 -1.97344 4.47126e-19)
(9.44222 -2.935 8.16134e-19)
(9.14446 -3.69637 1.05762e-21)
(8.86249 -4.29831 -2.43007e-22)
(8.56427 -4.93344 1.56895e-19)
(8.35913 -5.51594 -4.51798e-19)
(8.0995 -6.06301 0)
(7.8545 -6.56694 -4.36872e-19)
(7.58065 -7.00517 1.47945e-19)
(7.34079 -7.45337 5.55953e-19)
(7.10729 -7.86004 5.39644e-19)
(6.89277 -8.27421 -4.0144e-19)
(6.6818 -8.65179 1.02938e-18)
(6.49195 -9.03548 -8.84785e-19)
(6.30318 -9.3848 1.10226e-18)
(6.11519 -9.72811 -2.04732e-18)
(5.94675 -10.0531 9.43989e-19)
(5.77409 -10.3628 1.12618e-19)
(5.61612 -10.6479 8.91763e-19)
(5.45365 -10.9891 -9.64394e-19)
(7.28547 -1.49689 1.55895e-19)
(8.16339 -2.31024 -1.66262e-19)
(7.79129 -3.0427 6.71742e-19)
(7.56488 -3.68031 -6.59337e-19)
(7.29041 -4.29612 -3.22351e-19)
(7.07038 -4.89806 -7.85325e-19)
(6.84702 -5.44794 3.07276e-21)
(6.67739 -6.01469 6.05871e-19)
(6.46998 -6.50144 -1.44667e-19)
(6.2775 -6.9913 0)
(6.08677 -7.42382 0)
(5.89907 -7.85911 0)
(5.72292 -8.25213 0)
(5.5496 -8.64242 4.16518e-21)
(5.39357 -9.00802 0)
(5.22585 -9.35679 1.22446e-19)
(5.0771 -9.691 4.84022e-19)
(4.93216 -10.0126 -1.42176e-18)
(4.78935 -10.3042 1.04845e-18)
(4.64554 -10.6442 -9.86712e-19)
(6.2291 -1.08146 0)
(6.69881 -1.8102 -9.01241e-20)
(6.33067 -2.52949 0)
(6.18502 -3.19993 2.54624e-19)
(5.9822 -3.82257 -1.70692e-19)
(5.85502 -4.46409 -6.5203e-19)
(5.672 -5.01279 3.85989e-21)
(5.51395 -5.56994 6.25779e-19)
(5.36037 -6.07669 -6.06514e-19)
(5.2041 -6.57067 1.18811e-18)
(5.05615 -7.02898 -4.83976e-21)
(4.90233 -7.46958 -5.67855e-19)
(4.76526 -7.88497 5.49021e-19)
(4.61726 -8.28216 -6.73084e-19)
(4.49525 -8.665 0)
(4.36269 -9.0275 -5.0938e-19)
(4.23235 -9.36983 5.01775e-19)
(4.11512 -9.69911 0)
(4.0011 -10.0034 -1.1736e-19)
(3.87746 -10.3409 0)
(5.24143 -0.87592 9.0979e-20)
(5.37395 -1.62898 9.01916e-20)
(4.98798 -2.25691 0)
(4.84476 -2.92125 3.48362e-19)
(4.63045 -3.47733 -4.3077e-19)
(4.49205 -4.09821 2.49852e-19)
(4.39561 -4.66733 -7.37917e-19)
(4.27614 -5.22175 3.20952e-19)
(4.16517 -5.74651 -7.87035e-20)
(4.04061 -6.24312 0)
(3.93301 -6.71677 -7.48525e-20)
(3.81319 -7.15923 -7.29833e-20)
(3.70616 -7.58735 -7.11552e-20)
(3.58479 -7.9822 0)
(3.48772 -8.36879 -5.34262e-19)
(3.39308 -8.73645 1.11303e-18)
(3.30071 -9.09264 -9.56852e-19)
(3.20285 -9.42197 5.00527e-19)
(3.11544 -9.73622 6.11985e-20)
(3.02343 -10.0742 5.16968e-19)
(3.34181 -0.520538 -1.40829e-19)
(3.88869 -1.46104 -1.86494e-19)
(3.56839 -2.10002 6.01086e-22)
(3.57688 -2.79907 4.92384e-19)
(3.41985 -3.37509 -1.32994e-19)
(3.27583 -3.92124 -8.57371e-20)
(3.1922 -4.46715 8.3855e-20)
(3.10285 -4.98818 1.63394e-19)
(3.03107 -5.51112 7.87119e-20)
(2.96205 -5.99146 -3.08279e-19)
(2.89892 -6.48434 3.40108e-19)
(2.81947 -6.924 7.29836e-20)
(2.76082 -7.37205 3.56655e-19)
(2.68323 -7.77528 -2.74576e-21)
(2.60405 -8.17093 3.15543e-20)
(2.52305 -8.5382 -5.9759e-19)
(2.45663 -8.90052 1.6363e-19)
(2.38732 -9.23736 0)
(2.3246 -9.55298 -3.01961e-20)
(2.25771 -9.8935 -2.62369e-19)
(2.1715 -0.303959 4.78793e-20)
(2.27501 -1.20882 -9.49285e-20)
(2.23071 -1.80637 1.86021e-19)
(2.15543 -2.56627 -4.55774e-20)
(2.19947 -3.21289 -4.4942e-20)
(2.08879 -3.83332 0)
(2.00543 -4.39995 -8.42162e-20)
(1.90528 -4.92667 1.64878e-19)
(1.84207 -5.44189 -8.07205e-20)
(1.75723 -5.90921 7.80173e-20)
(1.70055 -6.38153 -3.87696e-20)
(1.65851 -6.80896 -7.41016e-20)
(1.60179 -7.24032 1.45141e-19)
(1.57742 -7.63632 -1.41472e-19)
(1.53549 -8.0322 3.50209e-20)
(1.50577 -8.39232 2.39443e-34)
(1.46196 -8.75361 -3.26205e-20)
(1.42632 -9.08526 1.91445e-19)
(1.38627 -9.39969 -9.43392e-20)
(1.34715 -9.73621 -6.70796e-20)
(-0.0971097 -5.567 1.50216e-19)
(1.59987 -20.9601 7.45459e-20)
(2.65634 -34.5472 0)
(3.17476 -39.7407 6.85587e-20)
(3.18237 -40.1521 6.3094e-20)
(3.14306 -39.7754 5.92279e-20)
(3.08622 -39.2545 0)
(3.03149 -38.7871 5.36896e-20)
(2.97538 -38.3701 0)
(2.90572 -37.9448 0)
(2.8423 -37.5426 -4.37353e-20)
(2.77234 -37.1845 3.27385e-21)
(2.69722 -36.801 8.28491e-20)
(2.62983 -36.407 0)
(2.53816 -36.0233 3.63509e-20)
(2.4799 -35.6053 3.44911e-20)
(2.35026 -35.1461 3.27801e-20)
(2.31703 -34.6403 0)
(2.15774 -34.198 -5.89135e-20)
(2.15287 -33.7825 5.74706e-20)
(0.196856 -6.87301 2.26469e-19)
(2.75141 -22.5833 -2.05767e-19)
(3.92792 -35.6459 0)
(4.38165 -39.9301 -3.37489e-19)
(4.37678 -40.0367 3.17797e-19)
(4.27428 -39.593 -5.36132e-19)
(4.181 -39.0425 2.33289e-19)
(4.08949 -38.5765 1.56558e-19)
(4.00279 -38.1258 -7.0382e-19)
(3.90779 -37.7351 3.89737e-19)
(3.81739 -37.3518 -4.51724e-20)
(3.71016 -36.941 3.33981e-19)
(3.618 -36.5759 -1.26085e-20)
(3.51229 -36.2387 -3.11079e-19)
(3.4135 -35.8614 -3.63492e-20)
(3.31549 -35.4057 -3.4488e-20)
(3.18835 -34.8985 -3.2779e-20)
(3.1215 -34.3898 0)
(2.96385 -34.0066 -2.31715e-19)
(2.94316 -33.5995 7.58317e-21)
(0.738341 -8.00758 -1.5152e-19)
(3.25302 -23.9591 0)
(5.22728 -36.6356 0)
(5.55167 -40.0264 -1.35548e-19)
(5.51836 -39.9123 1.25513e-19)
(5.38549 -39.3629 0)
(5.26561 -38.8546 -1.13098e-19)
(5.14275 -38.3712 3.11639e-19)
(5.02297 -37.9418 -3.09943e-19)
(4.89549 -37.496 3.70392e-19)
(4.77685 -37.0664 -4.52781e-19)
(4.6543 -36.696 0)
(4.5299 -36.3024 -3.11556e-19)
(4.40898 -35.9009 -2.82634e-19)
(4.27178 -35.512 5.09759e-19)
(4.16113 -35.1003 -5.28526e-19)
(3.98912 -34.6349 4.5741e-19)
(3.91087 -34.1348 0)
(3.70229 -33.7008 -5.09994e-19)
(3.68021 -33.286 8.76286e-19)
(1.22341 -8.7053 0)
(4.38714 -24.9876 0)
(6.5414 -37.0473 2.89306e-19)
(6.89479 -39.8528 3.9589e-19)
(6.77403 -39.59 -7.72833e-19)
(6.57042 -39.0248 2.38618e-19)
(6.40186 -38.4945 1.13086e-19)
(6.2338 -38.0151 1.14167e-18)
(6.07389 -37.5527 -1.58822e-18)
(5.91345 -37.1597 -1.51782e-19)
(5.76254 -36.7741 8.06698e-19)
(5.60021 -36.3517 1.63689e-19)
(5.45658 -35.9778 -7.66165e-19)
(5.30442 -35.6322 7.47826e-19)
(5.16381 -35.2467 2.07886e-19)
(5.01223 -34.7873 -1.29973e-19)
(4.84076 -34.2929 1.86211e-19)
(4.72423 -33.7921 0)
(4.51952 -33.4182 -5.38185e-20)
(4.48484 -33.0216 0)
(1.53357 -9.69148 0)
(5.50953 -25.9867 8.7187e-19)
(7.91856 -37.4206 -1.46937e-18)
(8.09008 -39.5616 1.32197e-18)
(7.94268 -39.1756 -1.02864e-18)
(7.71207 -38.6031 -2.38674e-19)
(7.50093 -38.1014 0)
(7.30264 -37.6233 6.02659e-19)
(7.11047 -37.1908 -7.98344e-19)
(6.91499 -36.7398 9.00569e-19)
(6.73074 -36.3111 -7.0406e-19)
(6.54989 -35.9482 -1.63684e-19)
(6.36784 -35.5601 7.5144e-19)
(6.19025 -35.1695 -1.29658e-18)
(6.00494 -34.7922 8.15107e-19)
(5.84099 -34.3992 -2.67454e-19)
(5.62879 -33.9397 -5.98697e-19)
(5.49545 -33.4434 1.37022e-18)
(5.23712 -33.0339 -7.77922e-19)
(5.19763 -32.6174 -9.19626e-19)
(2.06665 -10.1651 1.18401e-18)
(6.53722 -26.6932 1.02136e-18)
(9.23467 -37.3921 -1.16799e-18)
(9.39469 -39.119 -2.63071e-19)
(9.14897 -38.6569 2.49997e-19)
(8.88728 -38.1019 9.076e-19)
(8.62851 -37.5811 -8.91657e-19)
(8.38288 -37.1056 0)
(8.15108 -36.657 7.43818e-19)
(7.92381 -36.2786 -7.31403e-19)
(7.7103 -35.8966 -6.55409e-19)
(7.48715 -35.4753 6.44804e-19)
(7.28762 -35.1107 0)
(7.08564 -34.7722 0)
(6.89484 -34.3982 1.16436e-18)
(6.68687 -33.9649 -1.14105e-18)
(6.47171 -33.4959 -9.19762e-19)
(6.29728 -33.0189 9.06241e-19)
(6.04052 -32.6475 -8.25556e-19)
(5.99492 -32.262 1.02326e-18)
(2.59732 -10.6926 -8.67686e-19)
(7.72956 -27.2111 3.20132e-19)
(10.591 -37.2159 5.63021e-20)
(10.6352 -38.517 1.3364e-18)
(10.331 -38.0139 0)
(10.0131 -37.4694 0)
(9.70893 -36.9803 1.64927e-18)
(9.42797 -36.524 -7.94356e-20)
(9.15729 -36.1003 -1.51524e-18)
(8.88851 -35.6665 1.35114e-18)
(8.63676 -35.2663 -1.32898e-18)
(8.39531 -34.9271 0)
(8.15261 -34.5521 1.11823e-18)
(7.92162 -34.1849 -1.10068e-18)
(7.68637 -33.8364 0)
(7.47234 -33.4707 0)
(7.21749 -33.0395 0)
(7.02196 -32.5559 0)
(6.72217 -32.1785 0)
(6.65498 -31.7596 -9.87984e-20)
(3.15867 -11.1046 8.37458e-19)
(8.93725 -27.5043 -1.43331e-18)
(11.8516 -36.8133 0)
(11.8551 -37.8058 0)
(11.4716 -37.2785 2.06321e-18)
(11.1293 -36.7621 1.20118e-19)
(10.7786 -36.2796 -1.87901e-18)
(10.453 -35.8315 0)
(10.1491 -35.4185 1.74038e-19)
(9.85403 -35.0669 -1.62626e-19)
(9.5771 -34.6995 0)
(9.29203 -34.3038 1.42488e-19)
(9.03455 -33.9673 -1.20493e-18)
(8.78026 -33.6513 2.1866e-18)
(8.53673 -33.3065 -4.41947e-20)
(8.2765 -32.9219 -9.32334e-19)
(8.01585 -32.493 -1.04328e-19)
(7.77996 -32.0529 9.83167e-20)
(7.47282 -31.6841 0)
(7.40557 -31.2995 8.9195e-20)
(3.72482 -11.4078 5.41676e-19)
(10.1312 -27.5867 4.68985e-19)
(13.088 -36.1891 -1.64185e-18)
(13.0203 -36.9389 4.78198e-19)
(12.5819 -36.4373 2.11621e-19)
(12.1828 -35.9428 1.83573e-18)
(11.7883 -35.4854 -2.55444e-18)
(11.4241 -35.0697 1.855e-18)
(11.0799 -34.6722 -1.50058e-18)
(10.7393 -34.2764 1.7762e-18)
(10.4234 -33.9251 2.88793e-19)
(10.1251 -33.6169 1.21245e-18)
(9.82209 -33.2687 -6.81207e-19)
(9.5389 -32.9343 -1.31618e-18)
(9.25533 -32.6286 1.16135e-18)
(8.99297 -32.3019 0)
(8.69891 -31.9126 3.005e-19)
(8.44087 -31.4567 8.62637e-20)
(8.10523 -31.122 -1.74296e-19)
(8.00965 -30.7154 7.77346e-20)
(4.31773 -11.6404 -1.03425e-18)
(11.3014 -27.5441 1.07505e-18)
(14.247 -35.4918 -2.40812e-20)
(14.1067 -35.9949 -9.33687e-19)
(13.6103 -35.4899 -8.63835e-19)
(13.1846 -35.0289 -4.11119e-19)
(12.7565 -34.6041 -2.03602e-20)
(12.353 -34.2038 -3.55584e-19)
(11.9827 -33.8432 0)
(11.6236 -33.5315 -3.09161e-19)
(11.2829 -33.1946 -2.88787e-19)
(10.94 -32.8499 -1.65978e-20)
(10.6284 -32.5558 9.41359e-19)
(10.3243 -32.2745 -4.83834e-19)
(10.0306 -31.9695 -1.06311e-18)
(9.7275 -31.657 8.28013e-19)
(9.4272 -31.2923 5.45444e-19)
(9.13217 -30.8906 -9.15257e-19)
(8.78094 -30.5242 1.74321e-19)
(8.68634 -30.149 1.10174e-18)
(4.90501 -11.7608 -2.49662e-18)
(12.4159 -27.2774 2.54463e-18)
(15.3163 -34.53 -2.80435e-18)
(15.1392 -34.9213 2.28306e-18)
(14.5962 -34.4803 2.00984e-18)
(14.1258 -34.0501 -1.56043e-18)
(13.6509 -33.6426 -2.06543e-18)
(13.2102 -33.2811 7.37529e-20)
(12.7977 -32.9255 1.24597e-18)
(12.3933 -32.5856 -8.25553e-19)
(12.0208 -32.2932 2.10119e-18)
(11.6695 -32.0256 -1.25913e-18)
(11.3097 -31.7213 -2.36839e-19)
(10.9775 -31.4318 6.1089e-19)
(10.6471 -31.1747 -1.59855e-18)
(10.3403 -30.888 7.67069e-19)
(10.0114 -30.5692 0)
(9.70001 -30.1782 -1.28587e-18)
(9.33351 -29.8797 1.26464e-18)
(9.21714 -29.4906 -1.02293e-18)
(5.4982 -11.8165 4.77194e-19)
(13.4788 -26.9163 5.3185e-19)
(16.3488 -33.5796 2.31143e-18)
(16.0869 -33.7652 2.01257e-18)
(15.4775 -33.3346 -1.21292e-18)
(14.9747 -32.9479 1.7148e-18)
(14.4851 -32.5917 -1.0111e-18)
(14.0091 -32.2596 1.17868e-18)
(13.5805 -31.9626 -2.25237e-18)
(13.1631 -31.7031 8.03997e-19)
(12.763 -31.4114 0)
(12.3706 -31.1317 0)
(12.0117 -30.8902 0)
(11.6619 -30.6532 -1.5287e-18)
(11.3259 -30.4058 1.50508e-18)
(10.991 -30.1693 0)
(10.662 -29.8761 0)
(10.316 -29.5346 -1.41667e-19)
(9.93014 -29.2039 0)
(9.80221 -28.8404 -1.19922e-18)
(6.06606 -11.7794 -9.04148e-19)
(14.4724 -26.3717 -2.25261e-18)
(17.208 -32.3666 -1.61643e-18)
(16.94 -32.5455 -2.99618e-19)
(16.3036 -32.1804 2.13517e-18)
(15.7578 -31.832 -4.23214e-19)
(15.2246 -31.4909 -7.53637e-20)
(14.7181 -31.1914 -1.4167e-18)
(14.2445 -30.8933 0)
(13.7883 -30.622 -7.0066e-19)
(13.3678 -30.3979 1.12244e-18)
(12.9699 -30.1821 0)
(12.5609 -29.9366 1.48307e-18)
(12.1848 -29.7009 -1.45985e-18)
(11.8094 -29.4996 1.28363e-18)
(11.4626 -29.2698 -2.31535e-18)
(11.1064 -29.036 1.17774e-18)
(10.7537 -28.7241 1.41676e-19)
(10.3603 -28.4554 -1.16574e-19)
(10.2245 -28.095 9.35813e-19)
(6.6162 -11.6837 -1.19467e-18)
(15.4039 -25.7146 7.40128e-20)
(18.0596 -31.174 1.03796e-19)
(17.688 -31.213 2.83694e-18)
(17.0266 -30.8706 2.52013e-19)
(16.4413 -30.576 -1.51854e-18)
(15.9007 -30.298 -1.06373e-18)
(15.3655 -30.0486 3.31208e-19)
(14.8863 -29.8179 1.18347e-18)
(14.4173 -29.6211 -1.26397e-18)
(13.9652 -29.3841 6.10723e-19)
(13.5318 -29.1768 -1.59828e-18)
(13.1331 -28.9977 1.24443e-18)
(12.7424 -28.8029 -1.22288e-18)
(12.371 -28.6183 1.06824e-18)
(12.0122 -28.4566 9.07733e-19)
(11.6651 -28.2574 -1.03638e-18)
(11.2872 -28.012 8.02118e-19)
(10.88 -27.7375 -7.76294e-19)
(10.7201 -27.3843 -9.06357e-19)
(7.13176 -11.5237 -1.48341e-18)
(16.2632 -24.9411 -2.82611e-19)
(18.7333 -29.819 1.44663e-18)
(18.3244 -29.8788 -1.23856e-18)
(17.6492 -29.5939 1.21629e-18)
(17.0363 -29.3349 2.83398e-19)
(16.4568 -29.074 0)
(15.8975 -28.8489 -2.11111e-19)
(15.3738 -28.6202 5.80436e-19)
(14.8788 -28.4245 -2.05538e-18)
(14.4206 -28.2784 1.44673e-18)
(13.9853 -28.1184 3.21021e-19)
(13.5416 -27.9527 1.58977e-19)
(13.1314 -27.7859 0)
(12.7163 -27.6297 2.06867e-20)
(12.3334 -27.4581 8.97728e-19)
(11.9569 -27.3066 -5.54511e-20)
(11.5767 -27.0958 1.47554e-19)
(11.168 -26.8861 -7.50501e-19)
(11.0094 -26.5527 1.7076e-19)
(7.61317 -11.2817 1.33956e-18)
(17.0053 -24.0201 -2.31345e-18)
(19.3606 -28.4305 1.2995e-18)
(18.8722 -28.4217 1.10187e-18)
(18.1813 -28.1759 -7.94409e-20)
(17.5377 -27.9775 -7.64016e-19)
(16.9578 -27.7829 2.00371e-19)
(16.3793 -27.6229 2.11116e-19)
(15.8585 -27.4636 0)
(15.3472 -27.3317 0)
(14.8514 -27.1603 -1.15596e-18)
(14.3844 -27.0262 1.92023e-18)
(13.9502 -26.9043 -1.03939e-18)
(13.5262 -26.7715 0)
(13.1255 -26.6591 2.15253e-20)
(12.7439 -26.5544 -8.22973e-19)
(12.3824 -26.4521 8.04072e-19)
(11.9921 -26.312 -8.94663e-20)
(11.5802 -26.1213 -6.21497e-19)
(11.398 -25.7894 4.3222e-19)
(8.0612 -10.9998 -1.19016e-18)
(17.6792 -23.0511 1.49502e-18)
(19.8506 -27.0146 0)
(19.2986 -27.0038 0)
(18.5984 -26.7976 2.08419e-19)
(17.9271 -26.6305 -1.00572e-18)
(17.3166 -26.4507 2.9814e-20)
(16.7169 -26.3111 6.97984e-19)
(16.156 -26.1564 -1.16265e-18)
(15.6323 -26.0406 2.19493e-18)
(15.1487 -25.9707 -1.03439e-18)
(14.6858 -25.8806 2.23858e-19)
(14.2227 -25.7953 8.65899e-19)
(13.7869 -25.6918 1.66087e-20)
(13.3438 -25.5928 -5.25622e-19)
(12.9292 -25.4743 8.50712e-20)
(12.5336 -25.3947 -5.914e-19)
(12.1426 -25.298 5.06597e-19)
(11.7426 -25.1846 1.89054e-20)
(11.5655 -24.8852 4.09365e-19)
(8.46943 -10.6372 0)
(18.2052 -21.9416 7.07803e-19)
(20.2139 -25.4677 -7.7497e-19)
(19.631 -25.4716 0)
(18.9282 -25.3226 -2.08418e-19)
(18.2398 -25.2184 6.53814e-19)
(17.632 -25.1062 -8.11396e-19)
(17.0295 -25.0379 0)
(16.4787 -24.9576 9.35306e-19)
(15.9384 -24.8871 -9.19701e-19)
(15.4098 -24.7841 8.39631e-20)
(14.9205 -24.7204 -9.94015e-20)
(14.4608 -24.6739 -8.91418e-20)
(14.0141 -24.6075 -7.98208e-20)
(13.59 -24.5681 -5.27104e-19)
(13.1853 -24.5099 8.48675e-19)
(12.8019 -24.4797 -7.43997e-19)
(12.4057 -24.4407 6.50942e-19)
(12.008 -24.3674 -2.54065e-19)
(11.8227 -24.0883 3.93516e-20)
(8.86634 -10.2678 0)
(18.6622 -20.8305 -8.09132e-19)
(20.5114 -23.9943 4.37574e-19)
(19.838 -23.9821 5.10759e-19)
(19.1313 -23.8636 -6.57667e-20)
(18.4159 -23.7962 -5.90036e-20)
(17.7795 -23.6904 -5.11075e-19)
(17.1541 -23.6382 0)
(16.5705 -23.5678 0)
(16.0286 -23.5414 0)
(15.5266 -23.5411 -8.39639e-20)
(15.0384 -23.5042 0)
(14.5672 -23.4952 -4.26193e-19)
(14.1154 -23.4599 3.80723e-19)
(13.6598 -23.4244 -2.70979e-19)
(13.2216 -23.3634 4.88036e-19)
(12.7973 -23.3306 -2.17863e-19)
(12.3948 -23.335 -1.46164e-19)
(12.0117 -23.3445 2.28652e-19)
(11.8287 -23.0819 -9.65442e-20)
(9.21893 -9.79352 0)
(18.9704 -19.6764 0)
(20.6125 -22.3658 1.7689e-19)
(19.9306 -22.4399 1.56756e-19)
(19.2452 -22.3779 0)
(18.5345 -22.3727 3.86371e-19)
(17.9135 -22.3443 -3.79611e-19)
(17.302 -22.349 0)
(16.7331 -22.336 4.70232e-19)
(16.1808 -22.317 -4.62384e-19)
(15.645 -22.3095 0)
(15.145 -22.308 -2.48344e-19)
(14.6671 -22.3234 9.61872e-20)
(14.2057 -22.3248 1.84678e-19)
(13.7608 -22.3378 0)
(13.3321 -22.3203 0)
(12.8954 -22.3363 0)
(12.4709 -22.3057 5.68431e-20)
(12.0544 -22.2753 -4.80271e-20)
(11.7957 -22.1164 0)
(1.41459 -32.6527 0)
(1.2919 -30.7339 0)
(0.645291 -29.9399 -3.18078e-21)
(0.375393 -28.719 -2.56347e-21)
(0.00892736 -27.9543 0)
(-0.138983 -27.1404 1.69609e-22)
(-0.286438 -26.5336 1.38025e-21)
(-0.389289 -25.8917 0)
(-0.402782 -25.3975 6.17695e-22)
(-0.419508 -24.9605 0)
(-0.40424 -24.6472 -2.34159e-22)
(-0.333504 -24.3417 -8.80029e-24)
(-0.31575 -24.1347 8.83751e-24)
(-0.136998 -23.895 -1.80811e-22)
(-0.173119 -23.7722 0)
(0.123027 -23.5439 9.29127e-23)
(0.0227241 -22.9104 -4.66911e-22)
(0.441506 -20.3732 0)
(0.0470975 -14.6085 0)
(0.242203 -6.03508 -3.93496e-23)
(2.17055 -32.4375 2.44238e-20)
(1.90966 -30.6375 0)
(1.19152 -29.8687 1.44792e-20)
(0.783473 -28.731 -8.78969e-21)
(0.373353 -27.9767 0)
(0.147304 -27.168 -7.17165e-21)
(-0.0289989 -26.5328 2.66337e-21)
(-0.182348 -25.9004 0)
(-0.227551 -25.4157 3.59735e-22)
(-0.27422 -24.9782 -9.82627e-22)
(-0.28464 -24.6713 5.05723e-22)
(-0.236072 -24.3676 -2.75736e-22)
(-0.237342 -24.1713 -1.12795e-22)
(-0.0783264 -23.9307 8.3765e-23)
(-0.131348 -23.8061 2.14713e-22)
(0.153679 -23.5741 -3.74312e-22)
(0.0405072 -22.955 7.28215e-22)
(0.445874 -20.3818 1.16342e-21)
(0.0500598 -14.578 5.87054e-22)
(0.257225 -5.98532 2.14558e-22)
(2.7014 -32.2155 -1.16105e-20)
(2.30725 -30.4474 -2.0521e-20)
(1.46245 -29.6545 -1.19516e-20)
(1.00272 -28.4908 0)
(0.572106 -27.801 0)
(0.307336 -27.0368 8.0866e-21)
(0.10102 -26.4536 -1.34121e-21)
(-0.0755028 -25.8489 -1.06362e-21)
(-0.134734 -25.3792 -9.18923e-22)
(-0.197697 -24.9573 -1.84869e-21)
(-0.220186 -24.6597 0)
(-0.184171 -24.3674 0)
(-0.193257 -24.1776 0)
(-0.0369826 -23.9377 8.14685e-22)
(-0.0920037 -23.8332 0)
(0.184085 -23.603 1.3863e-21)
(0.0570105 -22.9983 -1.46644e-21)
(0.443255 -20.3969 -5.69286e-22)
(0.0583406 -14.5706 -1.11058e-21)
(0.283976 -5.95632 -2.88034e-22)
(3.44828 -31.9473 3.526e-20)
(2.89737 -30.3134 -6.67808e-20)
(1.977 -29.5529 2.31191e-21)
(1.39116 -28.4904 2.13278e-20)
(0.923829 -27.8146 0)
(0.583116 -27.0507 9.80882e-21)
(0.349146 -26.449 -2.11948e-20)
(0.123108 -25.8518 9.87303e-21)
(0.0337689 -25.3924 -4.69375e-21)
(-0.0581033 -24.9687 9.95802e-22)
(-0.106856 -24.6771 -3.41028e-22)
(-0.0930371 -24.3873 1.32255e-22)
(-0.123933 -24.2092 -1.3263e-22)
(0.0162775 -23.9694 -3.45025e-22)
(-0.055912 -23.8626 -4.66363e-22)
(0.209464 -23.626 -1.13883e-21)
(0.0728963 -23.0381 1.84474e-21)
(0.428851 -20.4093 -4.86772e-22)
(0.0589749 -14.5639 4.52959e-22)
(0.293309 -5.90716 1.71809e-21)
(3.96936 -31.6457 9.07841e-20)
(3.28418 -30.0643 1.54792e-20)
(2.24177 -29.3042 -2.09733e-20)
(1.60527 -28.2274 2.96281e-20)
(1.11617 -27.626 0)
(0.734387 -26.9075 -5.28428e-21)
(0.475998 -26.3557 4.10865e-21)
(0.226531 -25.7885 0)
(0.123016 -25.347 1.41143e-22)
(0.014998 -24.9395 0)
(-0.0456842 -24.6576 -1.2174e-21)
(-0.0437017 -24.3799 0)
(-0.0827107 -24.2097 0)
(0.0521932 -23.9711 1.73644e-21)
(-0.0157592 -23.8836 -9.62272e-22)
(0.230042 -23.6458 8.85087e-22)
(0.091595 -23.0718 0)
(0.394953 -20.4359 -3.02144e-22)
(0.0543672 -14.5749 0)
(0.31631 -5.8752 0)
(4.70045 -31.3194 3.59292e-20)
(3.84662 -29.8874 -2.88367e-20)
(2.72707 -29.1699 4.98234e-20)
(1.97618 -28.2116 -4.87771e-20)
(1.45542 -27.6256 1.30017e-20)
(0.998541 -26.9072 5.30077e-21)
(0.713759 -26.3464 -7.43825e-21)
(0.416681 -25.7853 -5.26947e-21)
(0.283616 -25.3549 1.94823e-21)
(0.148208 -24.9446 1.54497e-21)
(0.061898 -24.6683 -9.93432e-22)
(0.0423822 -24.3933 0)
(-0.0207319 -24.2354 0)
(0.093653 -24.0002 2.35552e-23)
(0.021609 -23.9037 9.18175e-22)
(0.241986 -23.6721 -8.21706e-22)
(0.105795 -23.1034 0)
(0.388907 -20.4583 2.77607e-21)
(0.0327425 -14.5894 3.50427e-21)
(0.317502 -5.83553 2.46381e-22)
(5.19434 -30.9346 -9.97803e-20)
(4.2106 -29.5784 9.27865e-20)
(2.98005 -28.8886 -2.15616e-20)
(2.18679 -27.9305 0)
(1.6397 -27.426 -1.30571e-20)
(1.14293 -26.7532 1.71069e-20)
(0.837526 -26.2407 -9.70561e-21)
(0.517789 -25.7105 5.28436e-21)
(0.369745 -25.3006 0)
(0.218615 -24.9076 0)
(0.120098 -24.6413 1.65626e-22)
(0.0893234 -24.3782 -1.66223e-22)
(0.0192132 -24.2272 0)
(0.124533 -23.9999 -2.60516e-21)
(0.0540185 -23.9185 9.11882e-22)
(0.26162 -23.6893 9.43051e-22)
(0.115502 -23.1362 -9.5136e-22)
(0.382462 -20.4886 -3.71965e-21)
(0.0266933 -14.6192 -2.37203e-21)
(0.332807 -5.80474 -2.97688e-22)
(5.88934 -30.5455 0)
(4.74706 -29.3573 -4.73959e-20)
(3.43744 -28.7236 4.75446e-20)
(2.54323 -27.896 0)
(1.96464 -27.4067 0)
(1.39557 -26.7391 -1.62173e-20)
(1.06363 -26.2254 1.62667e-20)
(0.70036 -25.7007 0)
(0.521858 -25.3027 2.35643e-21)
(0.34531 -24.9065 -3.41988e-21)
(0.223077 -24.645 1.05954e-21)
(0.171505 -24.3851 -9.48704e-22)
(0.075916 -24.2472 9.50218e-22)
(0.159965 -24.0241 0)
(0.0853795 -23.9342 0)
(0.278186 -23.7127 1.0083e-21)
(0.129541 -23.1687 -1.62905e-21)
(0.380871 -20.5195 -3.79553e-23)
(0.0404146 -14.6491 1.49664e-21)
(0.313514 -5.77745 -4.34091e-22)
(6.3479 -30.0852 5.81416e-20)
(5.08113 -28.9902 -5.81929e-20)
(3.67701 -28.4107 -5.36151e-20)
(2.74667 -27.5997 6.22013e-20)
(2.14088 -27.1972 -4.77708e-20)
(1.53608 -26.5754 5.21879e-21)
(1.18424 -26.1094 1.53455e-20)
(0.800807 -25.6151 0)
(0.605511 -25.2396 0)
(0.41314 -24.8627 1.13162e-21)
(0.279247 -24.6114 0)
(0.217455 -24.3619 0)
(0.11706 -24.2295 0)
(0.187853 -24.0215 0)
(0.113469 -23.9463 0)
(0.29602 -23.7291 0)
(0.146024 -23.202 1.17947e-21)
(0.396948 -20.5598 -1.65142e-21)
(0.0570323 -14.686 4.99645e-22)
(0.307419 -5.74823 -4.47276e-22)
(6.97347 -29.6281 -5.98452e-20)
(5.58125 -28.7252 -7.9108e-20)
(4.10654 -28.2171 -1.4275e-20)
(3.08897 -27.5435 -7.05733e-21)
(2.44997 -27.1566 1.7234e-20)
(1.77759 -26.5476 2.74419e-20)
(1.39836 -26.0867 5.78915e-21)
(0.974839 -25.5982 0)
(0.749551 -25.2348 -1.15754e-21)
(0.534192 -24.8552 3.21617e-21)
(0.37833 -24.6084 -6.81769e-23)
(0.296136 -24.3632 -1.21771e-21)
(0.172127 -24.2434 0)