/*--------------------------------*- C++ -*----------------------------------*\
  =========                 |
  \\      /  F ield         | OpenFOAM: The Open Source CFD Toolbox
   \\    /   O peration     | Website:  https://openfoam.org
    \\  /    A nd           | Version:  9
     \\/     M anipulation  |
\*---------------------------------------------------------------------------*/
FoamFile
{
    format      ascii;
    class       volScalarField;
    location    "5.3";
    object      nut;
}
// * * * * * * * * * * * * * * * * * * * * * * * * * * * * * * * * * * * * * //

dimensions      [0 2 -1 0 0 0 0];

internalField   nonuniform List<scalar> 
46400
(
0.0168168
0.00386334
0.00115557
0.00135495
0.00123998
0.001278
0.00120568
0.00117703
0.00112557
0.00110101
0.00106039
0.00103409
0.0010033
0.000964155
0.000914273
0.000913817
0.00087354
0.000788203
0.00105562
0.000884653
0.0163612
0.00371451
0.00117234
0.00141074
0.00131743
0.00130908
0.00123729
0.00120453
0.0011604
0.00112603
0.0010934
0.00106291
0.00103712
0.00101446
0.000969034
0.000928551
0.00089716
0.000803662
0.00101384
0.000888966
0.0157755
0.00441054
0.00129003
0.00143159
0.00129425
0.00130569
0.00123596
0.00120166
0.00115081
0.00111675
0.00107303
0.00104161
0.00101212
0.000980656
0.000958306
0.000925154
0.000873633
0.000812718
0.001076
0.000949269
0.0152119
0.0046678
0.001351
0.00149407
0.00137685
0.00135341
0.00128095
0.00123853
0.0011964
0.00115353
0.00111097
0.00106253
0.00102876
0.000998969
0.000976558
0.000986982
0.000936651
0.000823764
0.00107612
0.000971625
0.0145267
0.00444698
0.00145132
0.00152536
0.00138161
0.00134775
0.00127693
0.00122205
0.00117852
0.0011449
0.0011127
0.00107354
0.00103177
0.000975834
0.000927657
0.00090609
0.000916157
0.000832802
0.00107145
0.001008
0.0136386
0.00357127
0.0014122
0.00153406
0.00142171
0.00138772
0.00131904
0.0012499
0.00120452
0.00115993
0.00112376
0.00108324
0.00107859
0.00105102
0.00100803
0.00095271
0.000917603
0.000843921
0.00104766
0.000990607
0.0110193
0.00265044
0.00144228
0.001486
0.00140519
0.00134938
0.00132125
0.00124883
0.00119559
0.00115159
0.00112792
0.00105379
0.00101524
0.000988644
0.000969596
0.000948805
0.000915041
0.000847175
0.00102201
0.000982083
0.00868213
0.00216383
0.00147882
0.00141543
0.00139061
0.00133369
0.00130697
0.00125517
0.00120622
0.00115491
0.0011602
0.00113698
0.0010865
0.00104369
0.00100971
0.000978839
0.000942397
0.000872228
0.00101533
0.000974814
0.00704913
0.0018974
0.00146654
0.00140333
0.00135434
0.0012805
0.00127654
0.00122766
0.00117247
0.0010534
0.00102003
0.000967933
0.00100962
0.000982002
0.000958991
0.00096887
0.000951902
0.000901408
0.00102915
0.00101488
0.00582994
0.00175322
0.00152087
0.00139606
0.00139227
0.00129174
0.00125292
0.00126419
0.00131105
0.00124361
0.00113734
0.00105733
0.00100841
0.000972145
0.000927254
0.000893951
0.000868338
0.000820667
0.000923012
0.000929788
0.00509534
0.00165395
0.0014889
0.00137684
0.00138996
0.00135142
0.00125282
0.00113916
0.00114443
0.00117346
0.00115467
0.00112121
0.00109108
0.00106599
0.00103798
0.000989333
0.00094945
0.000886947
0.000959317
0.000943476
0.00454607
0.00161322
0.00151649
0.00141341
0.00139348
0.00142547
0.00146136
0.0013326
0.00121995
0.00115896
0.00112165
0.00106467
0.0010403
0.00100363
0.000997905
0.000977426
0.000942609
0.000891529
0.000952382
0.000940745
0.00424835
0.00158541
0.00153279
0.00139834
0.00126861
0.00117946
0.00126342
0.0013018
0.00129772
0.00126406
0.00123766
0.00117641
0.00112749
0.00108676
0.00104509
0.00103192
0.000992898
0.000940124
0.000978782
0.000947328
0.0039599
0.00160927
0.00164615
0.00170574
0.00161039
0.00140004
0.00126289
0.00120931
0.00116274
0.00114314
0.00112899
0.00110359
0.00105756
0.00103091
0.000995056
0.000978876
0.000964493
0.000920267
0.000971113
0.000939611
0.00353106
0.00148393
0.00135825
0.00145694
0.00152836
0.00146147
0.00138404
0.00133553
0.00125993
0.00121265
0.00117341
0.00116061
0.00111754
0.0010808
0.00104368
0.00100873
0.00098101
0.000931946
0.000972489
0.000947128
0.0027811
0.0018861
0.00161325
0.00142913
0.00135292
0.00139428
0.00135174
0.00129635
0.00125759
0.00121578
0.00115547
0.00113693
0.00109568
0.00106948
0.00102894
0.00100217
0.000966109
0.000919797
0.000940904
0.000924967
0.00132165
0.00154661
0.00151177
0.00146817
0.00142579
0.0014457
0.00139674
0.0013681
0.0013371
0.00127904
0.00125233
0.00119883
0.00117582
0.00113226
0.00110224
0.00106374
0.00103151
0.000964703
0.000987624
0.000941086
0.000783599
0.000718098
0.00175501
0.00160343
0.00160814
0.00141696
0.00142614
0.00133064
0.00129176
0.00122924
0.00120889
0.00114709
0.00113864
0.0010831
0.00107348
0.0010273
0.00100769
0.000938373
0.000959781
0.000912222
0.002424
0.00178224
0.00160872
0.00149461
0.00142044
0.00135802
0.00131825
0.00129196
0.00127037
0.00125217
0.00120538
0.00118016
0.00113553
0.00110834
0.00106781
0.00103838
0.00101665
0.000962145
0.000996235
0.000953335
0.00388286
0.00188633
0.00156516
0.00143046
0.00141008
0.00142111
0.00140376
0.0013269
0.00132929
0.00125288
0.00123186
0.00119098
0.00115772
0.00111584
0.00108123
0.00105694
0.00102551
0.00097344
0.00098597
0.000947842
0.000612395
0.00258368
0.00809301
0.0103142
0.00732254
0.00324645
0.000905183
8.9353e-05
0.00016555
0.000303314
0.000342745
0.000258628
0.000220777
0.000261655
0.000262968
0.000247936
0.000211764
0.000202242
0.000205035
0.000289636
0.000407725
0.00529849
0.00975397
0.00932376
0.00500136
0.00151923
0.000125288
0.000112187
0.000300647
0.000349332
0.000281706
0.000281385
0.000297877
0.000256983
0.000240367
0.000286766
0.00028227
0.000271397
0.000235921
0.000307268
0.00123565
0.00812809
0.0105759
0.00762667
0.00282227
0.000431992
0.000148444
0.000272145
0.000347961
0.000328638
0.000314985
0.00031742
0.000256559
0.000286157
0.00031868
0.00031563
0.000251785
0.000227434
0.000251433
0.000383051
0.00345996
0.00924749
0.010474
0.00582514
0.00127753
0.000162819
0.000246075
0.000333334
0.000386328
0.00037497
0.000334173
0.000303465
0.00033634
0.00034921
0.000301543
0.000300765
0.00028211
0.000325404
0.00038406
0.00044615
0.005676
0.0105918
0.00957871
0.00388854
0.000287645
0.000134984
0.000342903
0.000418991
0.000438013
0.000377799
0.000354711
0.000384861
0.000348413
0.000337883
0.000347115
0.000383664
0.000321101
0.000342551
0.000413407
0.000483627
0.00765557
0.0112465
0.00841252
0.00177133
0.000247567
0.000372742
0.00048472
0.000497156
0.000449709
0.000443714
0.000424912
0.000386293
0.000398361
0.000423174
0.000385978
0.000365968
0.000318139
0.000440009
0.000532578
0.000530671
0.00970526
0.0114778
0.00739024
0.000685533
0.000168175
0.000522179
0.000545932
0.000508591
0.000547979
0.00048498
0.000443594
0.000468399
0.000449485
0.000416218
0.000402429
0.000458087
0.00041918
0.000519491
0.000532601
0.000503041
0.0120115
0.0115661
0.0054701
0.000308834
0.00045011
0.000621157
0.000618926
0.000597556
0.000560156
0.000530002
0.00052134
0.00048571
0.000478497
0.000497146
0.000487311
0.000472723
0.000413166
0.000560299
0.000598884
0.00056413
0.0141257
0.0113441
0.00339735
0.000161429
0.000626484
0.000706014
0.000645464
0.000630668
0.000650738
0.00059371
0.000544757
0.000558453
0.00054631
0.000508631
0.000486771
0.000531023
0.000508663
0.000623962
0.00060115
0.00055932
0.0150127
0.0110098
0.00218789
0.000233567
0.000789649
0.000798491
0.000745196
0.000718445
0.000684462
0.000637607
0.00062544
0.000587526
0.000565602
0.000575331
0.000581398
0.000566678
0.000504507
0.00063349
0.000618783
0.000594166
0.0157308
0.010647
0.00141301
0.000388289
0.000908677
0.000833078
0.000776903
0.000748836
0.000756164
0.000703219
0.000651423
0.000656467
0.000645544
0.00060841
0.000582804
0.000604352
0.000589445
0.000707574
0.00063364
0.00060244
0.0166177
0.0102338
0.000925028
0.000632112
0.000965723
0.000907152
0.00086091
0.000817886
0.000794453
0.000746677
0.000724012
0.000685361
0.000651914
0.000653123
0.000661597
0.000640285
0.00057599
0.000687146
0.000621242
0.00061684
0.0170161
0.00975877
0.00118299
0.000769263
0.00106943
0.000931287
0.000912084
0.00086307
0.000855991
0.000812959
0.000759668
0.000757904
0.000743329
0.00070578
0.00067888
0.000684243
0.000670018
0.000758322
0.00064613
0.000643654
0.017559
0.00948782
0.00118007
0.000937811
0.00113091
0.00101184
0.000961673
0.000915723
0.00089107
0.000853631
0.000823649
0.000785071
0.000744376
0.000736961
0.00074234
0.00070811
0.000651447
0.000737232
0.000606631
0.000644939
0.0176826
0.00913377
0.00207264
0.000988913
0.00117469
0.00103731
0.00101862
0.000972139
0.00094658
0.000914749
0.000861619
0.000855686
0.000833243
0.000793834
0.000770183
0.000766464
0.000749549
0.000789801
0.000617686
0.000662268
0.0179008
0.0090194
0.00201589
0.0010823
0.00125251
0.00111813
0.00104735
0.00100667
0.000973689
0.000948113
0.000914995
0.000879678
0.000840764
0.00082938
0.000825889
0.000782951
0.000756564
0.000796139
0.000587149
0.000673425
0.0178172
0.00797547
0.00150951
0.00108778
0.00122665
0.00114408
0.00109656
0.00106786
0.00102482
0.0010007
0.000951688
0.000942265
0.000914505
0.000875671
0.000855896
0.000844277
0.000839407
0.000830298
0.000594642
0.000698082
0.0177529
0.00720674
0.00190951
0.00121157
0.0012907
0.0012218
0.00112143
0.00108899
0.00104816
0.00102543
0.000991071
0.000958934
0.000930107
0.000913929
0.000894129
0.00086816
0.000875051
0.000869362
0.000603199
0.000729436
0.0174793
0.00579438
0.00128129
0.00123615
0.0012403
0.00123872
0.00116933
0.00114708
0.00109738
0.00107596
0.00103323
0.00101698
0.000988861
0.000960638
0.000932146
0.000924439
0.000946189
0.000957829
0.000686956
0.000745152
0.017197
0.00522634
0.00147794
0.00134962
0.00130379
0.00128923
0.00119001
0.00116179
0.00112099
0.00109767
0.0010681
0.00104296
0.00102648
0.00101069
0.000990592
0.00099351
0.0010131
0.00100054
0.000882936
0.000917109
0.00318104
0.00244554
0.00203928
0.00166646
0.00138261
0.00123922
0.00117687
0.000976899
0.000816143
0.000792839
0.000774353
0.000723181
0.000578725
0.000593392
0.000526061
0.000682149
0.000867161
0.00590807
0.0104349
0.0151739
0.00340758
0.00240674
0.0018947
0.00167571
0.0015128
0.00135508
0.00122659
0.000972918
0.000819557
0.00081556
0.000784729
0.000707384
0.000558321
0.000577787
0.00049064
0.000649465
0.000794707
0.00593294
0.0103456
0.0150959
0.00373001
0.00231833
0.0020621
0.00169793
0.00142984
0.00127594
0.00116061
0.000943553
0.000843023
0.000859166
0.000799555
0.000704841
0.000584457
0.000603511
0.000502734
0.000668583
0.000747953
0.00591172
0.0104231
0.0150454
0.00384764
0.00235433
0.00198213
0.00169378
0.00150832
0.00137737
0.00120933
0.000940886
0.000850245
0.00087386
0.000799163
0.000687449
0.000567579
0.000588342
0.000468081
0.000631134
0.000672514
0.00592437
0.0103584
0.0149828
0.00395179
0.00227984
0.00209682
0.00174584
0.00150704
0.00130182
0.00113211
0.000925242
0.000878872
0.000907903
0.000807409
0.000689133
0.000599356
0.000615357
0.000480559
0.00064254
0.000619071
0.00589453
0.010417
0.0149247
0.00400587
0.00238158
0.00208995
0.00173105
0.00150974
0.00136621
0.001174
0.000926933
0.00088798
0.000912791
0.000799123
0.000672177
0.000582647
0.000600231
0.000457145
0.000614729
0.000550329
0.00588521
0.010383
0.0148833
0.0040043
0.00231437
0.00218179
0.00181595
0.00154629
0.00129964
0.00109622
0.000923782
0.000917971
0.000939988
0.000806418
0.000679154
0.000615528
0.000626554
0.000465912
0.00064045
0.000475539
0.00584116
0.0104078
0.0148346
0.00421403
0.00236464
0.00214737
0.00178262
0.00153567
0.00135616
0.0011352
0.00093038
0.000923441
0.000937724
0.000795927
0.000660654
0.000597503
0.000615181
0.000441138
0.00061171
0.000405981
0.00581378
0.0104214
0.0147986
0.00430359
0.00235928
0.00221125
0.00184352
0.00153248
0.00128319
0.0010719
0.000940319
0.000950769
0.000956859
0.000805623
0.000672341
0.000628467
0.000644797
0.000455393
0.000629516
0.000344487
0.00578978
0.0104361
0.014767
0.00444673
0.00249481
0.00217735
0.00179791
0.0015472
0.00134785
0.00110331
0.000951888
0.000951325
0.000944717
0.000792401
0.000652336
0.000610251
0.000635397
0.000439271
0.000602954
0.000283071
0.00575383
0.0104437
0.0147393
0.0045347
0.00246563
0.00221745
0.00184247
0.00149872
0.00128055
0.00106186
0.000970297
0.000973995
0.000955446
0.00080387
0.000667623
0.000639426
0.000661963
0.000459594
0.000622487
0.000236887
0.0057167
0.0104522
0.0147225
0.00473694
0.00258951
0.0021499
0.00182419
0.00155718
0.00134684
0.00107846
0.000977884
0.00096807
0.000934864
0.000787297
0.000648056
0.000623156
0.000655301
0.000449387
0.000601771
0.000185311
0.00567233
0.0104629
0.0147045
0.00472039
0.0025676
0.00219913
0.00184688
0.00149221
0.00129358
0.00105756
0.000999292
0.000982163
0.00093759
0.000800303
0.00066944
0.000649099
0.000679157
0.000475265
0.000615704
0.00015718
0.00562743
0.0104623
0.014702
0.00501816
0.0026535
0.00212665
0.00187381
0.00155824
0.00133854
0.00106753
0.00100354
0.00096434
0.000909219
0.000780866
0.000657017
0.00063677
0.000674644
0.000472557
0.00059511
0.000150238
0.00556906
0.0104768
0.0146861
0.00493301
0.00267683
0.00216538
0.00185888
0.00150392
0.00130869
0.00106556
0.00102534
0.000966693
0.000909668
0.000795505
0.000682945
0.000661104
0.000695487
0.000505456
0.000609273
0.000164744
0.00552083
0.01048
0.0146973
0.00521863
0.00272954
0.00211983
0.00189973
0.00155177
0.00132665
0.00106158
0.0010202
0.00093988
0.000877394
0.000765328
0.000673315
0.00065336
0.000689007
0.000514502
0.000588084
0.00016918
0.00546017
0.0104904
0.0147115
0.00520763
0.00282705
0.00215225
0.00186438
0.00152596
0.00131179
0.00107342
0.00103831
0.000933948
0.000880365
0.000779901
0.000704265
0.000677541
0.000707022
0.000549998
0.000602048
0.000183687
0.00536274
0.0104875
0.014659
0.00538304
0.00283974
0.00205668
0.00190589
0.0015711
0.00135184
0.00110452
0.00104218
0.000914105
0.000878322
0.00076724
0.00071292
0.000682223
0.000702897
0.000571475
0.000614929
0.00018821
0.00537451
0.0105186
0.014735
0.00507307
0.00276581
0.00209427
0.00185667
0.00148939
0.00128402
0.00107822
0.00101516
0.000901294
0.000841583
0.000751131
0.000726717
0.000690921
0.000700297
0.000583499
0.000613698
0.000203835
0.0053209
0.0106017
0.0149118
0.00546896
0.00307037
0.00221945
0.00189169
0.00153518
0.00134453
0.00114827
0.00105926
0.000905937
0.000830494
0.000762044
0.00076737
0.000708847
0.000715771
0.000649948
0.000626637
0.000229147
0.00495755
0.0104331
0.0144711
0.0195523
0.0280595
0.0135488
0.0191562
0.0142313
0.0144778
0.0122812
0.0117078
0.00990897
0.00881127
0.00798306
0.00808493
0.00748341
0.00746926
0.00658186
0.00680817
0.00814376
0.0496654
0.0977648
0.13386
0.0271759
0.0207351
0.0184929
0.0142432
0.0133787
0.0115009
0.0107147
0.00945246
0.00843278
0.00767899
0.00721043
0.00693421
0.00636298
0.00593405
0.00569972
0.00469401
0.0139085
0.0495189
0.0969623
0.130665
0.0105843
0.0143095
0.0135493
0.0111652
0.00953834
0.00840339
0.00804904
0.0073843
0.00706404
0.00659456
0.00630017
0.00595234
0.00574959
0.00543849
0.00542295
0.00506598
0.0080244
0.0501646
0.0943484
0.128434
0.0116197
0.0104525
0.0087904
0.00784267
0.007445
0.00667796
0.00650854
0.00606789
0.00579026
0.00549779
0.00531793
0.0049199
0.00463094
0.00426324
0.00411862
0.00310139
0.0100126
0.0492773
0.0942715
0.123687
0.00568849
0.00659193
0.00642384
0.00659562
0.00607824
0.00517347
0.00490112
0.0050631
0.00485576
0.00454636
0.00433895
0.00410216
0.00405416
0.0038984
0.00373993
0.00278837
0.00589803
0.0478528
0.0942853
0.120868
0.00550225
0.0053794
0.00494647
0.00475262
0.00409517
0.00405099
0.00391039
0.0037864
0.00394787
0.00399629
0.00397952
0.00394065
0.0037303
0.00347943
0.00332853
0.00180581
0.00494189
0.0459597
0.0948017
0.118701
0.00287826
0.00315632
0.00338063
0.00336912
0.00334529
0.00339311
0.00356278
0.00353265
0.00354283
0.00340491
0.00337781
0.00330736
0.00329413
0.00332298
0.00337118
0.00194348
0.00266125
0.0417957
0.0954989
0.118128
0.00254588
0.00264068
0.0027298
0.00271154
0.0025614
0.00259823
0.00250404
0.00255534
0.00280885
0.00307559
0.00317331
0.00335179
0.00354366
0.0036432
0.00349728
0.00187413
0.000955838
0.0373856
0.0963391
0.118915
0.00138664
0.00158992
0.00156488
0.00172834
0.00187336
0.00210818
0.00231735
0.00256981
0.00251038
0.00274359
0.00274858
0.00303703
0.00304592
0.00350399
0.00387344
0.00273215
0.00120001
0.0308053
0.0966362
0.121355
0.00109154
0.00127743
0.00127258
0.00135838
0.00140472
0.00150444
0.00159029
0.00184636
0.00199886
0.00230132
0.0025226
0.00290551
0.00322944
0.00375474
0.00393247
0.00381715
0.00220804
0.0196648
0.0953263
0.135318
0.00053243
0.00063604
0.000639252
0.000832477
0.000975718
0.00125442
0.00149635
0.00168534
0.00183886
0.00208881
0.00213231
0.00255076
0.00259579
0.00331191
0.00369026
0.00446052
0.00314308
0.0158349
0.0941056
0.151483
0.000299551
0.000437343
0.000516183
0.000661576
0.000722038
0.000733778
0.000875352
0.00118
0.00123987
0.00162394
0.00176392
0.00213593
0.00232002
0.00270454
0.0029328
0.00397502
0.00412841
0.00745401
0.0710729
0.166764
9.45876e-05
0.000249898
0.0003475
0.000492032
0.000666609
0.000850705
0.000843333
0.000997091
0.00114354
0.00123094
0.00144222
0.00161635
0.00192381
0.00216336
0.00261332
0.00275414
0.00386686
0.00267778
0.0481552
0.188366
0.000260583
0.000292924
0.000291072
0.000333465
0.00030368
0.00047388
0.000600632
0.000676033
0.000844513
0.00105345
0.00117126
0.00143779
0.00159144
0.00194804
0.00220009
0.00260989
0.00309021
0.0079312
0.0229796
0.144351
0.00038391
0.000388604
0.000359763
0.000415644
0.000436061
0.000480022
0.000433147
0.000635743
0.000574968
0.00081128
0.000850057
0.00107421
0.00112782
0.00145804
0.00156651
0.00191365
0.00179361
0.00300846
0.013406
0.0986736
0.000438883
0.000446623
0.000458321
0.000500155
0.000560225
0.00056104
0.000616797
0.000652721
0.000712803
0.000788193
0.000875752
0.000982913
0.00106189
0.00119087
0.00111154
0.00145647
0.00185352
0.0028517
0.00442175
0.0606329
0.000540817
0.000529032
0.000532896
0.00051759
0.000570159
0.000598125
0.000597693
0.0006528
0.000666588
0.000752044
0.000766423
0.000890229
0.000904192
0.00108683
0.00126666
0.00151851
0.00119157
0.001617
0.00241427
0.0325872
0.000596691
0.000606207
0.000642806
0.000643371
0.000695738
0.000728464
0.000752056
0.000802211
0.000783541
0.00085022
0.000820146
0.000898863
0.00095283
0.00111197
0.00110652
0.00115876
0.00147309
0.0011205
0.00325222
0.00763657
0.000501482
0.000495645
0.000539775
0.000567991
0.000575781
0.000631111
0.000632643
0.000693485
0.000696404
0.000739112
0.000736615
0.000755335
0.000749451
0.000688758
0.000715007
0.000902489
0.000959887
0.000964465
0.00170297
0.00225777
0.000367247
0.000389553
0.000412617
0.000433778
0.000437179
0.000493639
0.000485892
0.000557699
0.000534624
0.000613606
0.000581899
0.000645906
0.000616371
0.00069786
0.000603211
0.000628032
0.000533933
0.000269137
0.000347377
0.00170888
0.0141407
0.0141705
0.013942
0.0139325
0.0136439
0.0136713
0.0133319
0.0132955
0.0130228
0.0126898
0.0128027
0.0122452
0.0108777
0.01106
0.0105441
0.0105502
0.00947915
0.0088593
0.00700093
0.00766744
0.00700673
0.00699829
0.00692204
0.00690485
0.00679636
0.00674278
0.0066925
0.00657785
0.00632578
0.00631777
0.0061486
0.00622401
0.00634599
0.00655443
0.00689732
0.00622725
0.00560097
0.00623302
0.00585049
0.00700543
0.00426524
0.00422387
0.00421124
0.00420601
0.00422106
0.00423203
0.00427692
0.00432971
0.00434969
0.00434394
0.00427027
0.00426018
0.0040483
0.0040676
0.003825
0.00406122
0.00371024
0.00349021
0.00306377
0.00317352
0.00276335
0.00273571
0.00270601
0.00266234
0.00261817
0.00257457
0.00253235
0.0024848
0.00240889
0.00238934
0.00233351
0.00231374
0.00230065
0.00229431
0.00222305
0.00225724
0.00230351
0.00275695
0.0023118
0.00257895
0.00165541
0.00164451
0.00163777
0.00162975
0.00162147
0.00161398
0.00160762
0.00162264
0.00170914
0.00175671
0.00172941
0.00179896
0.00175281
0.0018078
0.00178012
0.00171966
0.0015721
0.00152012
0.001538
0.00154219
0.00120803
0.00118483
0.00117607
0.00116713
0.00116104
0.00115309
0.00114613
0.00113239
0.00110024
0.00103974
0.00102791
0.000990997
0.00097506
0.000955222
0.000912968
0.000977659
0.00100472
0.00107295
0.000956025
0.00104662
0.000727348
0.000708502
0.000702707
0.000697325
0.000694452
0.000691651
0.000689304
0.000689161
0.000687004
0.000682362
0.000682724
0.000698235
0.000711042
0.00074495
0.000745579
0.000749324
0.000711905
0.000756521
0.000800905
0.000777063
0.000514357
0.000515529
0.000511668
0.00050563
0.000499991
0.000499758
0.000494579
0.000495073
0.000486965
0.000489638
0.000479673
0.000477695
0.000470308
0.000462681
0.000451573
0.00046595
0.000456595
0.000460727
0.000422204
0.000440376
0.000276814
0.00029536
0.00028013
0.000285712
0.000273505
0.000272052
0.000268724
0.000265092
0.000259871
0.000261334
0.000261987
0.000264454
0.000265221
0.000267567
0.000268959
0.00028549
0.000317146
0.000318316
0.000279472
0.000312192
0.000211567
0.000211452
0.000197586
0.00019274
0.000182199
0.000174469
0.000178604
0.000174469
0.000172998
0.000168147
0.000172542
0.000183478
0.000186324
0.000190272
0.000194052
0.000200416
0.000192397
0.000200802
0.000221333
0.00023004
0.000147035
0.0001398
0.000131206
0.000118736
0.000110252
0.000105897
0.000101054
0.000107572
9.35107e-05
9.04025e-05
8.30125e-05
8.29773e-05
8.00852e-05
8.30125e-05
8.33472e-05
8.87558e-05
9.95638e-05
0.00011225
8.74649e-05
9.39099e-05
0.000122344
0.000114601
0.000108524
0.000101289
9.61389e-05
8.68052e-05
7.78047e-05
6.25465e-05
4.56461e-05
4.91759e-05
4.85641e-05
4.28368e-05
3.52189e-05
2.86343e-05
2.76186e-05
3.10971e-05
2.93146e-05
3.00335e-05
3.22266e-05
6.3487e-05
0.000118691
0.000107527
9.80959e-05
9.07052e-05
8.43831e-05
7.15238e-05
5.95959e-05
5.5906e-05
5.13354e-05
5.11533e-05
5.18363e-05
5.07799e-05
4.09788e-05
2.51464e-05
1.03497e-05
5.03652e-06
7.02367e-06
9.28856e-06
1.73729e-05
1.98711e-05
0.000111761
0.000106052
0.000101287
9.84355e-05
9.45968e-05
9.24898e-05
9.5122e-05
9.51476e-05
9.58195e-05
9.55868e-05
9.42804e-05
9.3336e-05
9.83529e-05
8.94671e-05
7.04256e-05
6.35821e-05
6.60309e-05
6.84214e-05
6.12101e-05
4.42054e-05
0.000136083
0.000135826
0.000135614
0.000132267
0.000131665
0.000131804
0.000132501
0.000128624
0.00012007
0.000113264
0.00011033
0.000104542
9.19705e-05
8.73251e-05
0.000104638
0.000111507
0.000108099
9.71392e-05
9.29125e-05
8.85402e-05
0.000137429
0.000132945
0.000131048
0.00013049
0.000128537
0.000124936
0.000116245
0.000111298
0.000119778
0.000124763
0.000122673
0.000121166
0.000127239
0.000126123
0.000115335
0.000106811
0.000109616
0.000105668
0.000103664
0.000102438
0.000142107
0.000144056
0.000143363
0.000141822
0.000139476
0.000138253
0.000146353
0.000158688
0.000150391
0.000136472
0.000135187
0.000133175
0.000131357
0.000130448
0.000137428
0.000138785
0.000138303
0.000130024
0.000133139
0.000129929
0.000132643
0.000133441
0.000131774
0.000129907
0.000130614
0.000131254
0.000122899
0.0001123
0.000119688
0.000132402
0.000132722
0.000133907
0.000135506
0.000135625
0.000135408
0.000134244
0.0001391
0.000141407
0.0001546
0.000152109
0.000105019
0.000102812
0.000104749
0.000108975
0.000111207
0.000113696
0.000120193
0.00012492
0.000127787
0.000128279
0.000128811
0.000129655
0.000129708
0.000127529
0.000121451
0.000115637
0.000116364
0.00012329
0.000128256
0.000122137
6.05243e-05
6.42512e-05
6.49507e-05
6.50131e-05
6.5421e-05
6.60488e-05
6.47783e-05
6.41754e-05
7.3931e-05
7.47998e-05
7.54497e-05
7.65544e-05
7.81626e-05
8.31049e-05
8.56397e-05
8.5869e-05
8.45093e-05
8.44952e-05
8.56073e-05
8.08496e-05
0.00120032
0.00149536
0.00114557
0.00117807
0.00124892
0.00126053
0.00130156
0.00134829
0.00138352
0.00140716
0.00147432
0.00151493
0.0015862
0.00163079
0.00171531
0.00178811
0.00174322
0.00279126
0.00939329
0.0232602
0.00117339
0.00130694
0.00102169
0.00114147
0.00121446
0.0012306
0.00127315
0.00131584
0.00136478
0.00142523
0.0014665
0.00149975
0.00157908
0.00160432
0.00167069
0.00169961
0.00169423
0.0022171
0.00810717
0.0227462
0.0011663
0.00139457
0.00107197
0.00111005
0.00119995
0.00123149
0.00128073
0.00132299
0.00136653
0.00138597
0.00144818
0.00150216
0.00157085
0.00160538
0.00170366
0.00175523
0.00179745
0.00200685
0.00755899
0.0222234
0.00123698
0.00139864
0.00104136
0.00113982
0.00119881
0.00121896
0.00125063
0.0013045
0.00134401
0.00140356
0.00145498
0.0014845
0.00155817
0.00158101
0.00166855
0.0016616
0.00173037
0.00155787
0.00616402
0.0216926
0.00123652
0.00141545
0.00109052
0.00113868
0.00121277
0.00123677
0.00128426
0.00131872
0.0013469
0.00138523
0.00143432
0.00149362
0.00155636
0.00159417
0.00169254
0.00172172
0.00183638
0.00157838
0.00573598
0.0210568
0.00123907
0.00140465
0.00106887
0.00114328
0.00120389
0.00122219
0.00125797
0.001292
0.00134518
0.00140179
0.00144319
0.00148319
0.00155272
0.00157969
0.00166444
0.00164162
0.00175236
0.00150835
0.0046392
0.0204173
0.00123878
0.00138411
0.00109678
0.00116025
0.00122228
0.00124997
0.0012677
0.00131201
0.0013499
0.00138309
0.00144091
0.00151062
0.00155947
0.00160476
0.00169669
0.00172623
0.00185124
0.00163937
0.00560646
0.0196302
0.00128025
0.00138949
0.00108142
0.00116248
0.00120896
0.00121293
0.00125385
0.00131715
0.00134938
0.00141172
0.00146158
0.00149702
0.00155887
0.00160396
0.00167577
0.00164844
0.00178152
0.00163325
0.00549457
0.0188547
0.00121685
0.00131626
0.00108081
0.00116415
0.00119824
0.00124797
0.00131559
0.00133055
0.00136041
0.00142001
0.00146232
0.00152042
0.00156517
0.0016015
0.00167097
0.00171325
0.00188854
0.00168358
0.00526418
0.0180717
0.00124542
0.00131438
0.001105
0.00116491
0.0012141
0.00126088
0.00126264
0.00130007
0.00135567
0.00140942
0.00141857
0.00146851
0.00151007
0.00155905
0.00163098
0.00165216
0.00178074
0.00164633
0.004332
0.0166727
0.00115535
0.0012308
0.00106949
0.00113338
0.00118788
0.00121524
0.00123871
0.00130686
0.00134653
0.00135459
0.00139672
0.0014674
0.00148988
0.00155918
0.00162263
0.00169931
0.00182981
0.00171831
0.003668
0.0149502
0.00117166
0.00122476
0.00108424
0.00114018
0.00118413
0.00119953
0.00123224
0.00127441
0.00127396
0.00131678
0.00136699
0.00141264
0.00146368
0.00154007
0.00157971
0.0016514
0.00170696
0.00173202
0.00298828
0.0126209
0.00108667
0.00116329
0.00104917
0.0011005
0.00113509
0.00116563
0.00120535
0.00123755
0.00128169
0.00136194
0.00141713
0.00144804
0.00148088
0.00153545
0.00159145
0.00169434
0.00170983
0.00171357
0.00261003
0.0102815
0.00115532
0.00120836
0.00109341
0.00115281
0.00118431
0.0012008
0.00122001
0.00125205
0.00128176
0.00130722
0.00129614
0.00133398
0.00141359
0.0014937
0.00155168
0.00157085
0.00161283
0.00176413
0.00214264
0.00826184
0.00103259
0.00104858
0.000995077
0.00104464
0.00105927
0.00108999
0.00113261
0.00117778
0.00121613
0.00127314
0.00134854
0.0014577
0.00150621
0.00156177
0.00154157
0.00161118
0.00164101
0.00164296
0.00191817
0.00674813
0.00103536
0.00110523
0.00105458
0.00110108
0.00113936
0.00119274
0.00123909
0.00126525
0.00131262
0.00135467
0.00137871
0.00139842
0.00138835
0.00138823
0.00139112
0.00149996
0.00155231
0.00174035
0.00183056
0.00572202
0.00104616
0.00108023
0.0010249
0.00107512
0.00110959
0.00114451
0.0011548
0.00118567
0.0012331
0.00124687
0.00128225
0.00130934
0.0013381
0.00143442
0.00153872
0.00164357
0.00156599
0.00165739
0.00174657
0.00485624
0.00100017
0.00104697
0.00102661
0.00107092
0.00110445
0.00111741
0.00114463
0.00119696
0.00122449
0.0012527
0.0013125
0.00137296
0.00143965
0.00152149
0.0015055
0.00152314
0.00158487
0.00165915
0.00158401
0.00408591
0.000985958
0.00102784
0.000995681
0.00103884
0.00107408
0.00110706
0.00116144
0.00119662
0.00121321
0.00126604
0.00130506
0.0013191
0.00137249
0.00138386
0.00145686
0.00154995
0.00161082
0.00168749
0.001618
0.00374827
0.000975489
0.00101677
0.000994189
0.00104663
0.00107763
0.00110582
0.0011218
0.00114945
0.00118565
0.00124108
0.00126431
0.00131647
0.00137571
0.00141341
0.00148868
0.00155076
0.00156548
0.00147335
0.00148045
0.00350445
0.000978348
0.001127
0.00119447
0.00113701
0.00107459
0.00104124
0.00103156
0.000953302
0.000964223
0.00101254
0.000997853
0.00102374
0.00111172
0.00110601
0.000849331
0.00028603
0.00235074
0.0123748
0.0162018
0.00974066
0.000921864
0.00109618
0.0012336
0.00120945
0.00114495
0.000989322
0.000976264
0.00104706
0.0010553
0.00102584
0.00107459
0.00111159
0.00111092
0.00122735
0.00114691
0.000651457
0.000936939
0.0113943
0.0164778
0.0124568
0.00098534
0.00111632
0.00123219
0.00118909
0.00115666
0.00112314
0.0010986
0.00102383
0.00104646
0.00110535
0.00109342
0.00113099
0.00120872
0.0012638
0.0012224
0.000761434
0.000310118
0.0104293
0.0165388
0.0152546
0.000953748
0.00110461
0.00126421
0.00123173
0.00118581
0.00104806
0.0010422
0.00111953
0.00112535
0.00109975
0.00115719
0.0011987
0.00121589
0.0013261
0.00135637
0.0010181
0.000553172
0.00897306
0.0164604
0.017956
0.00100956
0.00112156
0.00127706
0.00123231
0.00120735
0.0011734
0.00114704
0.00108036
0.00111178
0.00118071
0.00117311
0.00121688
0.00129542
0.00132365
0.00138661
0.00119688
0.000288219
0.00668058
0.0164854
0.0193511
0.000981999
0.00110724
0.00129423
0.00124219
0.00120996
0.00109982
0.0010934
0.00117346
0.0011823
0.001156
0.00121595
0.00126721
0.00128878
0.00137492
0.00146696
0.00132321
0.000126791
0.00516779
0.0161043
0.0211228
0.00102785
0.0011321
0.00132501
0.00126525
0.00123454
0.00119809
0.00118293
0.00112802
0.00116266
0.00124088
0.00124333
0.00128703
0.00136036
0.00140977
0.00146646
0.00138901
0.000466805
0.00370554
0.0160125
0.0214447
0.00100698
0.00111176
0.00132434
0.00124856
0.00122216
0.00114404
0.00113413
0.00121264
0.00123185
0.00120536
0.00126555
0.00132736
0.00135604
0.00143918
0.00151041
0.00151496
0.0005732
0.00269158
0.0156635
0.0222702
0.00105453
0.0011415
0.00136065
0.00128435
0.00124567
0.00120942
0.00121075
0.00117403
0.0012052
0.00128748
0.00130539
0.00134667
0.0014138
0.00148257
0.00152678
0.00155168
0.000800495
0.00204253
0.0152888
0.0229878
0.00102683
0.00110978
0.00134507
0.00124141
0.00121684
0.00117341
0.00116615
0.00123741
0.00127126
0.00125094
0.00130667
0.0013754
0.00141044
0.00148861
0.00154025
0.00161469
0.00100522
0.00150928
0.0149527
0.0235594
0.00108309
0.0011332
0.00136324
0.00128001
0.00124442
0.00121712
0.00123597
0.00122064
0.00124652
0.00132394
0.0013589
0.00139612
0.00145618
0.00154001
0.00156966
0.00164446
0.00113842
0.00148967
0.0145178
0.0240255
0.00104466