/*--------------------------------*- C++ -*----------------------------------*\
  =========                 |
  \\      /  F ield         | OpenFOAM: The Open Source CFD Toolbox
   \\    /   O peration     | Website:  https://openfoam.org
    \\  /    A nd           | Version:  9
     \\/     M anipulation  |
\*---------------------------------------------------------------------------*/
FoamFile
{
    format      ascii;
    class       surfaceScalarField;
    location    "5.3";
    object      phi;
}
// * * * * * * * * * * * * * * * * * * * * * * * * * * * * * * * * * * * * * //

dimensions      [0 3 -1 0 0 0 0];

internalField   nonuniform List<scalar> 
92080
(
-0.00506876
-0.414364
0.419433
-0.0310641
-0.798458
0.824454
-0.0712295
-0.845918
0.886083
-0.111739
-0.83211
0.872619
-0.151356
-0.820879
0.860496
-0.190076
-0.807769
0.846489
-0.22815
-0.795602
0.833676
-0.266349
-0.78431
0.822508
-0.304524
-0.77492
0.813095
-0.342184
-0.765633
0.803292
-0.379678
-0.757197
0.794691
-0.416752
-0.749093
0.786166
-0.45357
-0.741709
0.778527
-0.48964
-0.734077
0.770147
-0.525253
-0.728036
0.763649
-0.561232
-0.722504
0.758483
-0.595358
-0.716913
0.751039
-0.626962
-0.711249
0.742852
-0.657404
-0.704682
0.735124
-0.699154
0.727684
-0.685934
-0.00616663
-0.408198
-0.0380057
-0.766619
-0.0788798
-0.805044
-0.120679
-0.79031
-0.161765
-0.779793
-0.20216
-0.767375
-0.242617
-0.755144
-0.282651
-0.744276
-0.322506
-0.735065
-0.362084
-0.726055
-0.401236
-0.718045
-0.440404
-0.709925
-0.479043
-0.70307
-0.518013
-0.695107
-0.556579
-0.68947
-0.593513
-0.685571
-0.631162
-0.679264
-0.668368
-0.674042
-0.702626
-0.670425
-0.666683
-0.735097
-0.00370725
-0.404491
-0.0395037
-0.730823
-0.0836119
-0.760936
-0.127895
-0.746028
-0.171476
-0.736211
-0.213337
-0.725514
-0.254255
-0.714227
-0.295376
-0.703154
-0.33621
-0.694231
-0.376538
-0.685728
-0.416232
-0.678351
-0.455481
-0.670675
-0.494194
-0.664357
-0.532356
-0.656946
-0.572034
-0.649791
-0.610562
-0.647043
-0.646294
-0.643532
-0.6828
-0.637535
-0.719967
-0.633258
-0.629726
-0.756923
0.000797624
-0.405288
-0.0388057
-0.69122
-0.0855027
-0.714239
-0.132218
-0.699313
-0.178563
-0.689867
-0.223862
-0.680214
-0.267898
-0.670191
-0.310943
-0.660109
-0.354065
-0.651109
-0.396987
-0.642805
-0.439016
-0.636321
-0.480444
-0.629247
-0.521183
-0.623618
-0.56076
-0.61737
-0.600963
-0.609588
-0.643752
-0.604253
-0.685252
-0.602032
-0.724067
-0.598721
-0.762591
-0.594734
-0.591557
-0.80076
0.00232269
-0.407611
-0.0379723
-0.650925
-0.0887578
-0.663453
-0.138557
-0.649513
-0.18738
-0.641044
-0.234069
-0.633526
-0.279277
-0.624982
-0.323484
-0.615902
-0.366781
-0.607813
-0.410293
-0.599293
-0.453596
-0.593018
-0.496191
-0.586652
-0.538067
-0.581742
-0.57794
-0.577496
-0.616007
-0.571521
-0.654543
-0.565718
-0.695355
-0.56122
-0.735799
-0.558277
-0.775724
-0.554809
-0.551451
-0.81583
0.00200071
-0.409612
-0.0427633
-0.606161
-0.0943923
-0.611824
-0.144805
-0.5991
-0.195588
-0.590261
-0.24548
-0.583633
-0.293362
-0.577101
-0.339449
-0.569814
-0.384543
-0.562719
-0.429089
-0.554747
-0.473323
-0.548784
-0.517464
-0.542511
-0.562416
-0.536791
-0.607098
-0.532813
-0.650406
-0.528213
-0.692105
-0.524019
-0.733185
-0.520139
-0.774495
-0.516968
-0.814887
-0.514416
-0.511435
-0.854903
-0.00173217
-0.407879
-0.0496399
-0.558253
-0.102651
-0.558813
-0.153614
-0.548138
-0.20414
-0.539736
-0.254072
-0.533701
-0.303434
-0.527739
-0.351316
-0.521933
-0.397177
-0.516858
-0.44258
-0.509344
-0.487759
-0.503606
-0.530569
-0.499701
-0.572639
-0.494721
-0.615
-0.490452
-0.657199
-0.486015
-0.699448
-0.48177
-0.741376
-0.478211
-0.783287
-0.475056
-0.82491
-0.472794
-0.470502
-0.865843
-0.0145715
-0.393308
-0.06409
-0.508734
-0.116898
-0.506004
-0.16736
-0.497676
-0.217732
-0.489364
-0.267777
-0.483656
-0.316983
-0.478533
-0.365791
-0.473125
-0.413046
-0.469603
-0.458649
-0.463741
-0.506132
-0.456123
-0.553806
-0.452027
-0.600142
-0.448385
-0.645261
-0.445333
-0.689524
-0.441752
-0.733077
-0.438216
-0.776142
-0.435147
-0.818812
-0.432386
-0.861272
-0.430333
-0.428734
-0.90304
-0.0238243
-0.369484
-0.0749927
-0.457566
-0.127533
-0.453464
-0.178765
-0.446444
-0.22848
-0.439648
-0.277638
-0.434499
-0.3269
-0.42927
-0.375761
-0.424264
-0.423
-0.422365
-0.466306
-0.420434
-0.508026
-0.414403
-0.55154
-0.408513
-0.596191
-0.403734
-0.640769
-0.400755
-0.685224
-0.397297
-0.729654
-0.393786
-0.774015
-0.390786
-0.818375
-0.388027
-0.862776
-0.385933
-0.384367
-0.907142
-0.0345461
-0.334938
-0.0890196
-0.403093
-0.143547
-0.398937
-0.19535
-0.394641
-0.247102
-0.387896
-0.296887
-0.384714
-0.345343
-0.380814
-0.396058
-0.373548
-0.449274
-0.369149
-0.500953
-0.368756
-0.548832
-0.366523
-0.594588
-0.362758
-0.639093
-0.359229
-0.683418
-0.356429
-0.726361
-0.354354
-0.768652
-0.351496
-0.810643
-0.348794
-0.85253
-0.346139
-0.894578
-0.343885
-0.342135
-0.93681
-0.039407
-0.295531
-0.0936896
-0.34881
-0.147408
-0.345218
-0.199329
-0.34272
-0.251119
-0.336106
-0.304087
-0.331746
-0.353004
-0.331897
-0.39818
-0.328372
-0.445039
-0.322289
-0.494503
-0.319292
-0.543634
-0.317393
-0.592263
-0.314129
-0.640397
-0.311095
-0.688431
-0.308396
-0.736126
-0.306659
-0.78244
-0.305181
-0.827989
-0.303246
-0.872655
-0.301473
-0.916959
-0.299581
-0.298109
-0.960985
-0.0455456
-0.249985
-0.101596
-0.29276
-0.156348
-0.290466
-0.209752
-0.289316
-0.261678
-0.28418
-0.317047
-0.276376
-0.374495
-0.27445
-0.428437
-0.27443
-0.4783
-0.272427
-0.527119
-0.270473
-0.575285
-0.269226
-0.622035
-0.267379
-0.668544
-0.264586
-0.714487
-0.262453
-0.760947
-0.260198
-0.807174
-0.258954
-0.852779
-0.257642
-0.897963
-0.256289
-0.942603
-0.254941
-0.253464
-0.987247
-0.0419031
-0.208082
-0.0977197
-0.236943
-0.153389
-0.234797
-0.206962
-0.235742
-0.254986
-0.236157
-0.301403
-0.229959
-0.351703
-0.22415
-0.40463
-0.221503
-0.458273
-0.218784
-0.511451
-0.217295
-0.564395
-0.216281
-0.61574
-0.216034
-0.665961
-0.214365
-0.71532
-0.213093
-0.763838
-0.211681
-0.812375
-0.210416
-0.86017
-0.209847
-0.907417
-0.209043
-0.9538
-0.208558
-0.2077
-0.999564
-0.0471113
-0.16097
-0.105584
-0.178471
-0.165823
-0.174558
-0.230076
-0.17149
-0.29166
-0.174573
-0.346755
-0.174864
-0.39765
-0.173255
-0.447595
-0.171557
-0.496526
-0.169854
-0.545672
-0.168149
-0.595026
-0.166927
-0.64421
-0.166851
-0.692305
-0.16627
-0.740101
-0.165298
-0.787188
-0.164593
-0.834154
-0.163451
-0.881217
-0.162784
-0.928073
-0.162186
-0.974822
-0.161809
-0.161574
-1.02095
-0.0484536
-0.112517
-0.10168
-0.125244
-0.152119
-0.124118
-0.207325
-0.116285
-0.266148
-0.11575
-0.323683
-0.117328
-0.379218
-0.11772
-0.433932
-0.116843
-0.486626
-0.11716
-0.53847
-0.116305
-0.589522
-0.115875
-0.640884
-0.115488
-0.691308
-0.115846
-0.741067
-0.115539
-0.790098
-0.115562
-0.83835
-0.115198
-0.886152
-0.114982
-0.93366
-0.114679
-0.980799
-0.114669
-0.114466
-1.02791
-0.0580191
-0.0544977
-0.126082
-0.0571816
-0.186864
-0.0633357
-0.240956
-0.0621931
-0.293859
-0.0628465
-0.348731
-0.0624559
-0.403418
-0.0630334
-0.456606
-0.0636557
-0.509503
-0.0642628
-0.561472
-0.0643361
-0.612181
-0.0651664
-0.662783
-0.0648864
-0.712679
-0.0659494
-0.762191
-0.0660272
-0.810939
-0.0668137
-0.859165
-0.0669727
-0.906667
-0.0674807
-0.95385
-0.0674952
-1.00053
-0.0679882
-0.0680474
-1.04695
-0.0403905
-0.0141072
-0.0963859
-0.00118631
-0.152942
-0.00677958
-0.208533
-0.00660258
-0.263965
-0.00741366
-0.320848
-0.00557276
-0.376791
-0.0070909
-0.432832
-0.00761417
-0.488299
-0.00879678
-0.542706
-0.0099285
-0.59671
-0.0111624
-0.649667
-0.0119291
-0.702294
-0.0133228
-0.754187
-0.0141339
-0.805466
-0.0155353
-0.856029
-0.0164089
-0.905851
-0.0176593
-0.95482
-0.0185257
-1.00317
-0.0196423
-0.0204434
-1.05077
-0.0553007
0.0411935
-0.108682
0.0521954
-0.171646
0.0561837
-0.233387
0.055139
-0.294431
0.0536298
-0.350772
0.0507689
-0.407477
0.0496138
-0.462242
0.0471506
-0.51601
0.0449716
-0.568619
0.0426801
-0.621053
0.0412723
-0.67212
0.0391373
-0.723475
0.0380321
-0.773522
0.035913
-0.823853
0.0347962
-0.873043
0.0327807
-0.922054
0.0313518
-0.970024
0.0294445
-1.01759
0.0279191
0.0260487
-1.06408
-0.0592645
0.100458
-0.123656
0.116587
-0.184509
0.117036
-0.240653
0.111283
-0.296113
0.109089
-0.349701
0.104357
-0.403254
0.103167
-0.456318
0.100215
-0.509572
0.0982252
-0.56297
0.0960776
-0.61538
0.0936829
-0.667705
0.0914616
-0.718931
0.0892588
-0.770004
0.0869862
-0.82007
0.0848615
-0.869694
0.0824049
-0.91892
0.080578
-0.967764
0.0782883
-1.01635
0.0765008
0.0743596
-1.06466
-0.0606802
0.161138
-0.128774
0.184681
-0.185938
0.1742
-0.241262
0.166608
-0.295371
0.163198
-0.351989
0.160975
-0.407919
0.159098
-0.462751
0.155047
-0.517887
0.153361
-0.571396
0.149587
-0.624473
0.146759
-0.677069
0.144058
-0.728896
0.141086
-0.780039
0.138129
-0.830365
0.135187
-0.880528
0.132568
-0.930005
0.130054
-0.97904
0.127323
-1.02746
0.124917
-1.07515
0.122057
-0.00509836
-0.0111122
0.0162105
0.0415312
-0.0840536
0.0374241
0.168158
-0.29371
0.167083
0.368991
-0.652983
0.45215
0.511787
-0.919685
0.77689
0.581293
-1.04292
0.973418
0.61123
-1.08364
1.0537
0.625122
-1.09343
1.07953
0.633302
-1.09332
1.08514
0.638365
-1.0892
1.08414
0.642166
-1.0841
1.0803
0.647694
-1.08074
1.07522
0.65355
-1.0784
1.07254
0.658341
-1.07524
1.07045
0.662686
-1.07378
1.06944
0.666966
-1.07079
1.06651
0.671822
-1.06901
1.06416
0.676262
-1.06704
1.0626
0.679952
-1.06669
1.063
-1.06494
0.682487
1.06241
0.00757305
-0.0186852
0.0713728
-0.147853
0.235345
-0.457682
0.397374
-0.815012
0.488335
-1.01065
0.527292
-1.08188
0.543217
-1.09956
0.550981
-1.10119
0.555686
-1.09803
0.558577
-1.09209
0.562839
-1.08836
0.566792
-1.0847
0.569986
-1.08159
0.573515
-1.07877
0.576738
-1.07701
0.579156
-1.07321
0.581141
-1.071
0.583002
-1.0689
0.584759
-1.06845
-1.06566
0.585476
0.025032
-0.0437172
0.104649
-0.227471
0.266966
-0.619998
0.383029
-0.931075
0.439905
-1.06752
0.461445
-1.10342
0.470124
-1.10824
0.475119
-1.10618
0.477847
-1.10076
0.480908
-1.09516
0.483501
-1.09095
0.485873
-1.08707
0.488556
-1.08427
0.490578
-1.08079
0.491517
-1.07794
0.492382
-1.07407
0.49387
-1.07249
0.495299
-1.07033
0.496214
-1.06936
-1.06345
0.494005
0.0315717
-0.0752889
0.132412
-0.328311
0.26981
-0.757396
0.351529
-1.01279
0.382957
-1.09895
0.394029
-1.11449
0.399387
-1.1136
0.402312
-1.10911
0.404227
-1.10267
0.405755
-1.09668
0.407215
-1.09241
0.408676
-1.08853
0.40907
-1.08467
0.408933
-1.08065
0.408822
-1.07783
0.408581
-1.07383
0.407729
-1.07164
0.406117
-1.06872
0.403214
-1.06646
-1.05836
0.398121
0.0283263
-0.103615
0.143205
-0.44319
0.248779
-0.862971
0.302307
-1.06632
0.32134
-1.11798
0.328297
-1.12145
0.332058
-1.11736
0.333093
-1.11014
0.333781
-1.10336
0.334265
-1.09717
0.334324
-1.09247
0.333482
-1.08769
0.332382
-1.08357
0.330976
-1.07924
0.328743
-1.0756
0.32598
-1.07107
0.323155
-1.06881
0.320097
-1.06566
0.315431
-1.06179
-1.05162
0.308689
0.0343097
-0.137925
0.137521
-0.546401
0.218493
-0.943943
0.254368
-1.1022
0.2642
-1.12782
0.267948
-1.1252
0.267809
-1.11722
0.267513
-1.10985
0.266754
-1.1026
0.265184
-1.0956
0.262978
-1.09026
0.260583
-1.08529
0.257443
-1.08043
0.253688
-1.07549
0.249661
-1.07157
0.245642
-1.06705
0.240967
-1.06414
0.235118
-1.05981
0.22714
-1.05382
-1.04332
0.218845
0.042081
-0.180006
0.129263
-0.633583
0.190636
-1.00532
0.2106
-1.12216
0.214522
-1.13174
0.213653
-1.12433
0.211532
-1.1151
0.209069
-1.10738
0.205617
-1.09915
0.201807
-1.09179
0.197681
-1.08614
0.192759
-1.08037
0.187428
-1.0751
0.18187
-1.06993
0.175794
-1.0655
0.16897
-1.06022
0.161325
-1.05649
0.153074
-1.05156
0.143558
-1.0443
-1.03377
0.134007
0.0441368
-0.224143
0.115407
-0.704854
0.158057
-1.04797
0.166398
-1.1305
0.165436
-1.13078
0.161082
-1.11997
0.156827
-1.11085
0.151787
-1.10235
0.146215
-1.09358
0.140118
-1.08569
0.133374
-1.07939
0.126378
-1.07338
0.118878
-1.0676
0.110839
-1.06189
0.102283
-1.05694
0.0934477
-1.05139
0.0842083
-1.04725
0.0740503
-1.0414
0.0629003
-1.03315
-1.02209
0.0512193
0.0381209
-0.262264
0.0941847
-0.760918
0.122962
-1.07674
0.125177
-1.13272
0.121148
-1.12675
0.115111
-1.11394
0.108267
-1.104
0.100852
-1.09493
0.0927544
-1.08548
0.084036
-1.07697
0.0749544
-1.07031
0.065261
-1.06368
0.0552932
-1.05763
0.0451227
-1.05172
0.0346366
-1.04646
0.0236023
-1.04035
0.0117075
-1.03536
-0.000538747
-1.02916
-0.0130882
-1.0206
-1.00938
-0.0258001
0.0356608
-0.297924
0.0800068
-0.805264
0.0950914
-1.09183
0.0913483
-1.12897
0.082697
-1.1181
0.0731714
-1.10441
0.0631776
-1.09401
0.0526061
-1.08436
0.0415215
-1.07439
0.0302174
-1.06567
0.01839
-1.05848
0.00634481
-1.05164
-0.00604642
-1.04524
-0.0188613
-1.03891
-0.0320868
-1.03323
-0.0455569
-1.02688
-0.0591897
-1.02172
-0.0731593
-1.01519
-0.0875365
-1.00622
-0.994759
-0.102157
0.0308444
-0.328769
0.0661248
-0.840544
0.0717397
-1.09744
0.0621656
-1.1194
0.0497742
-1.1057
0.0371589
-1.0918
0.023866
-1.08071
0.0104398
-1.07093
-0.00333153
-1.06062
-0.017757
-1.05124
-0.0324438
-1.0438
-0.047546
-1.03654
-0.062771
-1.03001
-0.0781492
-1.02353
-0.0936596
-1.01772
-0.109483
-1.01106
-0.125738
-1.00547
-0.141942
-0.998985
-0.158345
-0.98982
-0.978415
-0.174689
0.0248731
-0.353642
0.0490496
-0.864721
0.0457487
-1.09414
0.0319919
-1.10564
0.01659
-1.0903
0.000968888
-1.07618
-0.0150839
-1.06466
-0.0315783
-1.05444
-0.0482885
-1.04391
-0.0651134
-1.03442
-0.0823803
-1.02653
-0.0998488
-1.01907
-0.117491
-1.01237
-0.135335
-1.00568
-0.153338
-0.99972
-0.171352
-0.993045
-0.189511
-0.98731
-0.207672
-0.980824
-0.22536
-0.972131
-0.960566
-0.243209
0.0209316
-0.374573
0.0368045
-0.880594
0.0276425
-1.08498
0.0104849
-1.08848
-0.0080418
-1.07178
-0.0270769
-1.05714
-0.0467058
-1.04503
-0.066243
-1.0349
-0.0858944
-1.02426
-0.106039
-1.01427
-0.126369
-1.0062
-0.147075
-0.998361
-0.167839
-0.991607
-0.188699
-0.984824
-0.209664
-0.978754
-0.230763
-0.971947
-0.251814
-0.966258
-0.272617
-0.960021
-0.293171
-0.951578
-0.94039
-0.313347
0.0160404
-0.390614
0.0244675
-0.889021
0.00802524
-1.06854
-0.01375
-1.06671
-0.0355019
-1.05002
-0.0572413
-1.0354
-0.0792341
-1.02304
-0.101639
-1.0125
-0.123982
-1.00192
-0.146451
-0.991802
-0.169277
-0.983375
-0.192283
-0.975355
-0.215443
-0.968447
-0.238505
-0.961762
-0.261449
-0.955811
-0.284407
-0.948988
-0.30759
-0.943075
-0.330339
-0.937272
-0.351867
-0.930049
-0.919149
-0.373108
0.0129145
-0.403528
0.0148624
-0.890969
-0.00536485
-1.04831
-0.0297693
-1.04231
-0.0545242
-1.02527
-0.0798194
-1.01011
-0.105463
-0.997397
-0.130974
-0.986985
-0.156389
-0.976503
-0.182024
-0.966167
-0.207787
-0.957612
-0.233892
-0.94925
-0.260082
-0.942256
-0.286421
-0.935424
-0.312822
-0.929409
-0.339176
-0.922634
-0.36523
-0.917021
-0.391074
-0.911428
-0.416163
-0.90496
-0.895201
-0.440111
0.00885468
-0.412383
0.00540432
-0.887518
-0.0209166
-1.02199
-0.0496451
-1.01358
-0.07747
-0.997444
-0.105017
-0.98256
-0.132711
-0.969703
-0.160732
-0.958964
-0.188447
-0.948789
-0.216206
-0.938408
-0.244136
-0.929682
-0.272276
-0.92111
-0.300766
-0.913766
-0.329084
-0.907106
-0.357067
-0.901427
-0.385386
-0.894315
-0.41417
-0.888237
-0.442123
-0.883475
-0.468795
-0.878289
-0.869611
-0.494384
0.00601259
-0.418396
-0.00281068
-0.878695
-0.0318536
-0.992946
-0.0626072
-0.982823
-0.0930771
-0.966974
-0.123838
-0.951799
-0.154673
-0.938867
-0.185561
-0.928076
-0.21631
-0.918039
-0.246961
-0.907757
-0.277658
-0.898985
-0.308433
-0.890336
-0.339384
-0.882815
-0.370882
-0.875607
-0.402298
-0.870011
-0.433069
-0.863545
-0.464019
-0.857287
-0.495352
-0.852142
-0.525857
-0.847784
-0.840823
-0.554645
0.00237421
-0.42077
-0.0112857
-0.865035
-0.0445309
-0.959701
-0.0792085
-0.948146
-0.112313
-0.933869
-0.14506
-0.919052
-0.177862
-0.906066
-0.21092
-0.895018
-0.243607
-0.885352
-0.2762
-0.875164
-0.308708
-0.866477
-0.341362
-0.857681
-0.374316
-0.849861
-0.407105
-0.842818
-0.440062
-0.837054
-0.473745
-0.829861
-0.507624
-0.823407
-0.540831
-0.818935
-0.574512
-0.814103
-0.808321
-0.607014
0.00041704
-0.421187
-0.0182102
-0.846408
-0.0531828
-0.924728
-0.0894431
-0.911885
-0.125132
-0.89818
-0.160611
-0.883573
-0.195871
-0.870806
-0.231262
-0.859627
-0.266725
-0.849889
-0.301905
-0.839984
-0.337115
-0.831267
-0.37196
-0.822837
-0.407096
-0.814724
-0.443187
-0.806728
-0.478584
-0.801657
-0.513224
-0.795222
-0.54995
-0.786681
-0.587881
-0.781004
-0.62592
-0.776064
-0.770847
-0.663393
-0.00175368
-0.0237078
-0.0623524
-0.101619
-0.139303
-0.176386
-0.213516
-0.250635
-0.287429
-0.32412
-0.360696
-0.397367
-0.433563
-0.470144
-0.508151
-0.54489
-0.580533
-0.618684
-0.659625
-0.702787
0.587179
-9.36648
9.46179
0.506239
-8.9848
9.06574
0.442799
-9.06651
9.12995
0.384486
-8.85426
8.91258
0.340059
-8.93549
8.97992
0.29723
-8.83301
8.87583
0.258681
-8.86444
8.90299
0.225623
-8.78971
8.82277
0.198751
-8.83428
8.86116
0.17206
-8.82589
8.85258
0.14649
-8.86427
8.88984
0.122795
-8.82339
8.84709
0.104111
-8.87808
8.89677
0.0854988
-8.85325
8.87186
0.069922
-8.87827
8.89384
0.0540879
-8.81458
8.83042
0.0468789
-8.70969
8.7169
0.0329663
-7.80949
7.8234
0.0193408
-5.56926
5.58288
-2.38029
2.39963
0.490608
-9.27161
0.416396
-8.91059
0.36276
-9.01288
0.31003
-8.80153
0.265995
-8.89145
0.224119
-8.79113
0.189224
-8.82954
0.16178
-8.76226
0.139843
-8.81235
0.117488
-8.80354
0.0967579
-8.84354
0.0788295
-8.80546
0.0659823
-8.86524
0.0532023
-8.84047
0.0440607
-8.86912
0.0345106
-8.80503
0.0327584
-8.70794
0.0244586
-7.80119
0.0165415
-5.56134
-2.36374
0.398634
-9.17624
0.331805
-8.84376
0.277526
-8.9586
0.228295
-8.7523
0.191591
-8.85475
0.157588
-8.75713
0.129681
-8.80163
0.107946
-8.74053
0.0899972
-8.7944
0.0712199
-8.78476
0.0551155
-8.82744
0.0424474
-8.7928
0.0338179
-8.85661
0.0254024
-8.83205
0.0209906
-8.86471
0.0158309
-8.79987
0.0191055
-8.71121
0.0178978
-7.79998
0.0154255
-5.55887
-2.34832
0.307097
-9.08522
0.242853
-8.77951
0.195745
-8.91149
0.152463
-8.70902
0.118011
-8.8203
0.085596
-8.72471
0.0611967
-8.77723
0.0447955
-8.72413
0.0315387
-8.78114
0.0173014
-8.77052
0.00627318
-8.81641
-0.000743356
-8.78578
-0.00373064
-8.85362
-0.00644947
-8.82933
-0.00457357
-8.86659
-0.00349537
-8.80095
0.00522057
-8.71993
0.00971407
-7.80447
0.0129471
-5.5621
-2.33537
0.220495
-8.99702
0.162618
-8.72164
0.116823
-8.8657
0.0758034
-8.668
0.0455606
-8.79005
0.0205017
-8.69965
0.00300475
-8.75974
-0.00825842
-8.71286
-0.0176839
-8.77172
-0.0280657
-8.76014
-0.0343878
-8.81009
-0.0364155
-8.78375
-0.0354986
-8.85454
-0.0339523
-8.83088
-0.0275527
-8.87299
-0.0219341
-8.80657
-0.00815468
-8.73371
0.00295181
-7.81558
0.0116954
-5.57084
-2.32368
0.133993
-8.91217
0.0755991
-8.66324
0.0332319
-8.82333
-0.00163294
-8.63314
-0.0280708
-8.76362
-0.0503442
-8.67738
-0.0641568
-8.74592
-0.0704544
-8.70657
-0.0753214
-8.76685
-0.0809515
-8.75451
-0.0821153
-8.80892
-0.0786429
-8.78722
-0.0722013
-8.86098
-0.0650883
-8.83799
-0.0529666
-8.88511
-0.0414092
-8.81813
-0.0218499
-8.75327
-0.00492973
-7.8325
0.00936201
-5.58514
-2.31431
0.0526234
-8.83079
0.000694395
-8.61131
-0.0411428
-8.78149
-0.0752014
-8.59908
-0.0979148
-8.7409
-0.113495
-8.6618
-0.120645
-8.73877
-0.122366
-8.70485
-0.12346
-8.76576
-0.12512
-8.75285
-0.121728
-8.81231
-0.11363
-8.79532
-0.103382
-8.87123
-0.0921707
-8.8492
-0.0753754
-8.90191
-0.0597023
-8.8338
-0.0351825
-8.77779
-0.012051
-7.85563
0.00766348
-5.60485
-2.30665
-0.0337128
-8.74586
-0.0865941
-8.55843
-0.122704
-8.74538
-0.151529
-8.57025
-0.169672
-8.72276
-0.182432
-8.64904
-0.186114
-8.73509
-0.183106
-8.70785
-0.179657
-8.7692
-0.176511
-8.756
-0.168095
-8.82073
-0.154608
-8.80881
-0.138896
-8.88694
-0.122476
-8.86562
-0.10005
-8.92433
-0.0786688
-8.85518
-0.0487194
-8.80774
-0.0197504
-7.8846
0.00559586
-5.6302
-2.30105
-0.111683
-8.65997
-0.16269
-8.50743
-0.195694
-8.71238
-0.222439
-8.54351
-0.236633
-8.70857
-0.242774
-8.6429
-0.240627
-8.73724
-0.233587
-8.71489
-0.226332
-8.77646
-0.219116
-8.76321
-0.206441
-8.8334
-0.188693
-8.82656
-0.169221
-8.90641
-0.148999
-8.88584
-0.122228
-8.9511
-0.0966714
-8.88074
-0.0619634
-8.84244
-0.0272722
-7.91929
0.00356716
-5.66104
-2.29749
-0.189913
-8.57222
-0.24417
-8.45317
-0.273701
-8.68285
-0.294703
-8.52251
-0.305655
-8.69761
-0.309607
-8.63895
-0.303968
-8.74288
-0.292569
-8.72629
-0.280765
-8.78826
-0.268623
-8.77535
-0.251043
-8.85099
-0.228052
-8.84955
-0.203261
-8.9312
-0.178086
-8.91102
-0.146106
-8.98308
-0.115177
-8.91167
-0.0751194
-8.8825
-0.0348639
-7.95955
0.0014329
-5.69733
-2.29605
-0.266299
-8.48061
-0.317246
-8.40222
-0.344503
-8.65559
-0.363338
-8.50367
-0.369067
-8.69189
-0.366963
-8.64105
-0.356469
-8.75337
-0.34143
-8.74133
-0.325778
-8.80392
-0.309482
-8.79165
-0.287926
-8.87254
-0.261018
-8.87646
-0.232523
-8.9597
-0.203653
-8.93989
-0.167725
-9.01901
-0.132801
-8.94659
-0.0880988
-8.9272
-0.0422102
-8.00544
-0.000518728
-5.73902
-2.29657
-0.338988
-8.38483
-0.394063
-8.34715
-0.417152
-8.6325
-0.431583
-8.48924
-0.435958
-8.68751
-0.431914
-8.64509
-0.417648
-8.76764
-0.39834
-8.76064
-0.378133
-8.82412
-0.356843
-8.81294
-0.330492
-8.89889
-0.298556
-8.90839
-0.26497
-8.99328
-0.231492
-8.97337
-0.190734
-9.05977
-0.15077
-8.98656
-0.100908
-8.97707
-0.0494905
-8.05685
-0.00255218
-5.78596
-2.29913
-0.410867
-8.28731
-0.463462
-8.29455
-0.485617
-8.61034
-0.497161
-8.4777
-0.495727
-8.68894
-0.486536
-8.65429
-0.468281
-8.78589
-0.445478
-8.78344
-0.421314
-8.84829
-0.395793
-8.83846
-0.365787
-8.9289
-0.330315
-8.94386
-0.293071
-9.03053
-0.256021
-9.01042
-0.211662
-9.10413
-0.167947
-9.03027
-0.113605
-9.03141
-0.0565868
-8.11387
-0.00451671
-5.83803
-2.30364
-0.479193
-8.18122
-0.535664
-8.23808
-0.55363
-8.59238
-0.563121
-8.46821
-0.56091
-8.69116
-0.549122
-8.66607
-0.527193
-8.80782
-0.500225
-8.81041
-0.471372
-8.87714
-0.440776
-8.86906
-0.406084
-8.96359
-0.366077
-8.98387
-0.323992
-9.07261
-0.282644
-9.05177
-0.233873
-9.1529
-0.185316
-9.07883
-0.125982
-9.09074
-0.0632312
-8.17662
-0.00627348
-5.89499
-2.30992
-0.545201
-8.07613
-0.601947
-8.18134
-0.61912
-8.57521
-0.624237
-8.46309
-0.616943
-8.69845
-0.601098
-8.68192
-0.575913
-8.83301
-0.545543
-8.84078
-0.5126
-8.91008
-0.47787
-8.90379
-0.439632
-9.00183
-0.396585
-9.02692
-0.350926
-9.11827
-0.306161
-9.09653
-0.254199
-9.20486
-0.202032
-9.131
-0.138304
-9.15447
-0.0701971
-8.24473
-0.00819968
-5.95699
-2.31812
-0.60898
-7.96154
-0.669447
-8.12087
-0.683835
-8.56082
-0.688602
-8.45832
-0.680016
-8.70704
-0.661008
-8.70093
-0.632211
-8.8618
-0.597736
-8.87526
-0.560151
-8.94767
-0.520543
-8.94339
-0.47748
-9.04489
-0.430324
-9.07407
-0.380215
-9.16838
-0.331367
-9.14538
-0.275515
-9.26071
-0.218901
-9.18761
-0.150234
-9.22314
-0.0768567
-8.31811
-0.00985669
-6.02399
-2.32797
-0.66901
-7.84717
-0.732103
-8.05778
-0.744493
-8.54843
-0.743769
-8.45905
-0.732033
-8.71877
-0.709605
-8.72336
-0.678233
-8.89318
-0.640445
-8.91304
-0.598807
-8.98931
-0.555324
-8.98688
-0.509035
-9.09118
-0.459221
-9.12389
-0.405759
-9.22184
-0.353661
-9.19748
-0.295018
-9.31936
-0.234916
-9.24771
-0.162082
-9.29597
-0.0834873
-8.3967
-0.0113866
-6.09609
-2.33936
-0.731581
-7.72261
-0.797931
-7.99143
-0.808844
-8.53752
-0.806714
-8.46117
-0.792018
-8.73347
-0.766587
-8.74879
-0.73161
-8.92815
-0.689953
-8.9547
-0.643777
-9.03548
-0.595677
-9.03498
-0.544538
-9.14232
-0.490867
-9.17756
-0.433251
-9.27946
-0.377059
-9.25367
-0.314714
-9.3817
-0.250753
-9.31167
-0.173546
-9.37318
-0.0895817
-8.48067
-0.0129982
-6.17267
-2.35236
-0.781129
-7.60487
-0.853111
-7.91944
-0.862634
-8.52799
-0.86016
-8.46365
-0.842537
-8.75109
-0.814895
-8.77643
-0.77706
-8.96599
-0.73166
-9.0001
-0.681328
-9.08581
-0.629711
-9.08659
-0.57512
-9.19691
-0.518974
-9.2337
-0.45791
-9.34052
-0.39832
-9.31326
-0.332734
-9.44729
-0.265693
-9.37871
-0.184713
-9.45416
-0.0968216
-8.56856
-0.0153402
-6.25415
-2.3677
-0.82568
-7.48198
-0.907286
-7.83784
-0.919347
-8.51593
-0.912467
-8.47053
-0.892196
-8.77136
-0.862267
-8.80636
-0.823648
-9.00461
-0.775687
-9.04806
-0.721224
-9.14028
-0.664393
-9.14343
-0.605879
-9.25542
-0.546764
-9.29282
-0.482917
-9.40437
-0.4195
-9.37668
-0.352784
-9.514
-0.281767
-9.44973
-0.195668
-9.54026
-0.103968
-8.66026
-0.0165298
-6.34159
-2.38423
5.96824
-7.16357
-6.28665
5.51439
-7.38398
4.91251
-7.91406
4.45583
-8.01384
3.98845
-8.30398
3.58838
-8.40629
3.19103
-8.60726
2.82573
-8.68276
2.49223
-8.80678
2.22803
-8.87922
1.95923
-8.98663
1.71071
-9.04429
1.43823
-9.13189
1.21665
-9.1551
0.961503
-9.25885
0.776556
-9.26478
0.532694
-9.29639
0.320066
-8.44763
0.158348
-6.17987
-2.22588
3.2345
-7.16804
-3.23003
3.21132
-7.3608
3.01155
-7.71429
2.87696
-7.87925
2.6721
-8.09913
2.48537
-8.21956
2.26057
-8.38245
2.06268
-8.48487
1.86855
-8.61265
1.69076
-8.70143
1.49235
-8.78822
1.30601
-8.85796
1.11012
-8.936
0.950677
-8.99565
0.763187
-9.07136
0.612946
-9.11454
0.403461
-9.08691
0.252191
-8.29636
-0.0344607
-5.89322
-2.26034
2.05716
-7.32481
-1.90039
2.18018
-7.48381
2.18541
-7.71952
2.17741
-7.87125
2.10985
-8.03156
2.02898
-8.13869
1.90543
-8.2589
1.77823
-8.35767
1.6241
-8.45852
1.46254
-8.53987
1.29531
-8.62098
1.13918
-8.70183
0.978056
-8.77488
0.825336
-8.84293
0.65376
-8.89979
0.491115
-8.9519
0.355712
-8.95151
0.223059
-8.16371
0.0575911
-5.72775
-2.20275
1.11274
-7.53596
-0.901591
1.2763
-7.64737
1.33532
-7.77854
1.35103
-7.88696
1.33446
-8.01499
1.30899
-8.11322
1.24888
-8.19879
1.18202
-8.29081
1.10177
-8.37827
1.02004
-8.45815
0.937508
-8.53845
0.847413
-8.61174
0.745648
-8.67311
0.639792
-8.73708
0.528949
-8.78895
0.426037
-8.84899
0.308864
-8.83433
0.205405
-8.06025
0.10993
-5.63228
-2.09282
0.653911
-7.69429
-0.495579
0.779064
-7.77253
0.854268
-7.85375
0.916741
-7.94943
0.943159
-8.04141
0.948302
-8.11836
0.934204
-8.18469
0.897249
-8.25386
0.844405
-8.32543
0.782728
-8.39647
0.708021
-8.46374
0.623867
-8.52758
0.539816
-8.58906
0.455306
-8.65257
0.376085
-8.70972
0.300241
-8.77314
0.215622
-8.74971
0.154721
-7.99935
0.0914718
-5.56903
-2.00135
0.256038
-7.8317
-0.118632
0.370946
-7.88743
0.452615
-7.93542
0.509858
-8.00667
0.52901
-8.06056
0.525808
-8.11516
0.520433
-8.17932
0.501159
-8.23458
0.473435
-8.2977
0.437824
-8.36086
0.396372
-8.42229
0.355547
-8.48676
0.313809
-8.54732
0.268589
-8.60735
0.224031
-8.66517
0.178233
-8.72734
0.112376
-8.68386
0.0905391
-7.97751
0.0744504
-5.55294
-1.9269
0.0544795
-7.92389
0.0377146
0.126257
-7.95921
0.184254
-7.99341
0.221775
-8.04419
0.250309
-8.08909
0.267636
-8.13249
0.273351
-8.18504
0.268563
-8.22979
0.254285
-8.28343
0.228898
-8.33547
0.198052
-8.39144
0.157499
-8.44621
0.112417
-8.50224
0.0689934
-8.56392
0.0292904
-8.62546
-0.0120174
-8.68604
-0.0486029
-8.64727
-0.0235253
-8.00259
0.0345805
-5.61105
-1.89232
-0.138367
-7.98942
0.203891
-0.0836786
-8.0139
-0.0336759
-8.04342
-0.00609083
-8.07178
0.0155433
-8.11073
0.0259767
-8.14292
0.0239104
-8.18297
0.0165481
-8.22243
-0.00261112
-8.26427
-0.0267214
-8.31136
-0.0561084
-8.36206
-0.0888699
-8.41344
-0.12076
-8.47035
-0.154122
-8.53056
-0.183189
-8.5964
-0.205544
-8.66368
-0.215643
-8.63717
-0.14854
-8.06969
0.00141768
-5.761
-1.8909
-0.251692
-8.03042
0.292693
-0.219354
-8.04623
-0.193466
-8.0693
-0.17698
-8.08827
-0.171396
-8.11631
-0.169898
-8.14442
-0.177438
-8.17543
-0.186435
-8.21344
-0.199433
-8.25127
-0.220458
-8.29034
-0.248069
-8.33445
-0.283471
-8.37804
-0.323404
-8.43042
-0.370241
-8.48372
-0.417175
-8.54946
-0.463076
-8.61778
-0.484851
-8.6154
-0.375947
-8.17859
-0.106349
-6.0306
-1.99725
-0.333588
-8.05701
0.360177
-0.30888
-8.07094
-0.293725
-8.08446
-0.282528
-8.09946
-0.28012
-8.11872
-0.286949
-8.13759
-0.297872
-8.16451
-0.321133
-8.19017
-0.349875
-8.22253
-0.386728
-8.25349
-0.430191
-8.29098
-0.481559
-8.32667
-0.538053
-8.37393
-0.605567
-8.41621
-0.678686
-8.47635
-0.768405
-8.52806
-0.825739
-8.55806
-0.755479
-8.24885
-0.326389
-6.45969
-2.32364
-0.387268
-8.06827
0.398535
-0.381049
-8.07716
-0.378838
-8.08667
-0.382214
-8.09609
-0.389215
-8.11172
-0.403486
-8.12332
-0.425341
-8.14265
-0.452089
-8.16343
-0.487058
-8.18756
-0.529134
-8.21141
-0.578259
-8.24186
-0.636402
-8.26853
-0.706313
-8.30401
-0.793371
-8.32915
-0.899909
-8.36981
-1.02703
-8.40094
-1.13869
-8.4464
-1.13598
-8.25156
-0.635888
-6.95979
-2.95952
-0.415905
-8.07155
0.419178
-0.417669
-8.0754
-0.422276
-8.08206
-0.429327
-8.08904
-0.441081
-8.09996
-0.453475
-8.11093
-0.471721
-8.12441
-0.500256
-8.13489
-0.535003
-8.15281
-0.579427
-8.16699
-0.632635
-8.18865
-0.695672
-8.20549
-0.772244
-8.22744
-0.856029
-8.24536
-0.96112
-8.26472
-1.08505
-8.27701
-1.23781
-8.29364
-1.26704
-8.22233
-0.88526
-7.34157
-3.84478
-0.432066
-8.06842
0.428937
-0.439121
-8.06834
-0.449099
-8.07209
-0.462755
-8.07538
-0.481196
-8.08152
-0.503989
-8.08813
-0.528642
-8.09975
-0.558558
-8.10498
-0.592271
-8.1191
-0.630563
-8.12869
-0.677754
-8.14146
-0.732416
-8.15083
-0.798436
-8.16142
-0.875149
-8.16865
-0.966772
-8.17309
-1.06533
-8.17845
-1.19605
-8.16292
-1.2864
-8.13198
-1.03097
-7.59699
-4.87575
-0.432936
-8.05942
0.423944
-0.442756
-8.05852
-0.453489
-8.06135
-0.464768
-8.0641
-0.476059
-8.07023
-0.492254
-8.07194
-0.51394
-8.07807
-0.537208
-8.08171
-0.567785
-8.08852
-0.604487
-8.09199
-0.646774
-8.09917
-0.696828
-8.10078
-0.752834
-8.10542
-0.818989
-8.1025
-0.893386
-8.0987
-0.979932
-8.09191
-1.06123
-8.08163
-1.13751
-8.0557
-0.957222
-7.77728
-5.83298
-0.406222
-8.04943
0.396226
-0.416455
-8.04829
-0.427908
-8.0499
-0.441876
-8.05013
-0.457859
-8.05425
-0.474142
-8.05565
-0.492075
-8.06013
-0.512455
-8.06133
-0.535102
-8.06587
-0.560736
-8.06636
-0.589388
-8.07052
-0.621436
-8.06873
-0.656146
-8.07071
-0.693908
-8.06473
-0.730568
-8.06204
-0.773173
-8.0493
-0.813814
-8.04099
-0.853312
-8.0162
-0.746547
-7.88405
-6.57952
-0.353026
-8.04098
0.344573
-0.36075
-8.04057
-0.368255
-8.04239
-0.376783
-8.04161
-0.387933
-8.0431
-0.399888
-8.0437
-0.414192
-8.04583
-0.429344
-8.04617
-0.447033
-8.04818
-0.465801
-8.04759
-0.487573
-8.04875
-0.509967
-8.04634
-0.534737
-8.04594
-0.559051
-8.04042
-0.582309
-8.03878
-0.604678
-8.02693
-0.629566
-8.0161
-0.65036
-7.99541
-0.583123
-7.95128
-7.16265
-0.284388
-8.03169
0.275104
-0.29333
-8.03162
-0.303256
-8.03247
-0.311688
-8.03317
-0.320077
-8.03471
-0.329376
-8.0344
-0.339572
-8.03563
-0.350687
-8.03506
-0.362758
-8.03611
-0.375632
-8.03472
-0.389095
-8.03529
-0.403175