/*--------------------------------*- C++ -*----------------------------------*\
  =========                 |
  \\      /  F ield         | OpenFOAM: The Open Source CFD Toolbox
   \\    /   O peration     | Website:  https://openfoam.org
    \\  /    A nd           | Version:  9
     \\/     M anipulation  |
\*---------------------------------------------------------------------------*/
FoamFile
{
    format      ascii;
    class       volVectorField;
    location    "10.5";
    object      U;
}
// * * * * * * * * * * * * * * * * * * * * * * * * * * * * * * * * * * * * * //

dimensions      [0 1 -1 0 0 0 0];

internalField   nonuniform List<vector> 
46400
(
(7.37663 -7.16435 1.02195e-18)
(14.9955 -14.3814 -1.23652e-18)
(16.0408 -16.1564 -4.41804e-20)
(15.3782 -16.2196 -3.33118e-19)
(14.8462 -16.2646 -3.2526e-20)
(14.2912 -16.3542 2.02106e-18)
(13.8076 -16.4148 -1.15468e-18)
(13.3184 -16.4695 3.02194e-19)
(12.8787 -16.5431 -3.01886e-19)
(12.4597 -16.6044 3.01111e-19)
(12.0798 -16.7144 -2.99901e-19)
(11.7145 -16.7844 0)
(11.3619 -16.8837 2.02691e-18)
(11.0027 -16.9031 -2.2871e-18)
(10.6686 -16.9463 -2.5852e-18)
(10.3928 -17.047 -3.07916e-19)
(10.113 -17.1397 -1.73288e-20)
(9.85838 -17.2084 1.94104e-18)
(9.59649 -17.1987 2.48243e-18)
(9.19335 -17.3034 -2.3057e-18)
(7.63327 -6.73522 0)
(15.0087 -13.4776 -2.29754e-20)
(15.8118 -14.8204 0)
(15.203 -15.0175 1.54373e-18)
(14.7155 -15.1256 -1.22462e-18)
(14.1748 -15.2415 3.00908e-19)
(13.6793 -15.3385 0)
(13.1915 -15.4288 -3.02173e-19)
(12.7257 -15.5256 3.01856e-19)
(12.2877 -15.6137 -3.01076e-19)
(11.8716 -15.7231 2.77702e-18)
(11.5085 -15.8469 2.32533e-20)
(11.1684 -15.9876 -2.12488e-18)
(10.8485 -16.1129 0)
(10.5093 -16.1975 2.92229e-19)
(10.1904 -16.259 2.89876e-19)
(9.88689 -16.3682 0)
(9.62964 -16.4443 -2.34109e-18)
(9.42563 -16.6177 -5.74789e-19)
(9.12407 -16.8523 2.40051e-18)
(7.81741 -6.33351 8.5443e-19)
(14.9201 -12.4732 -1.16472e-18)
(15.5769 -13.6697 1.29145e-18)
(14.8801 -13.8177 1.3388e-18)
(14.3582 -13.9767 -1.31442e-18)
(13.8298 -14.1553 0)
(13.3321 -14.2857 -3.00916e-18)
(12.8498 -14.4079 2.62209e-18)
(12.4081 -14.544 -2.97637e-18)
(11.9925 -14.6585 2.92979e-18)
(11.6112 -14.8131 2.59854e-18)
(11.2538 -14.9417 -3.09963e-19)
(10.9061 -15.1025 -2.209e-18)
(10.5777 -15.2081 0)
(10.2765 -15.3589 2.49739e-18)
(9.99788 -15.4666 -2.45954e-18)
(9.71621 -15.5914 0)
(9.42851 -15.6119 -1.08542e-20)
(9.15972 -15.6584 2.89798e-19)
(8.85451 -15.9426 -2.4869e-18)
(7.92141 -5.92694 -9.40483e-19)
(14.708 -11.4284 3.03699e-19)
(15.1003 -12.3939 1.41852e-18)
(14.4825 -12.6337 -1.40179e-18)
(13.9799 -12.8338 -1.0613e-18)
(13.4804 -13.0477 1.39996e-18)
(13.0062 -13.2554 1.75251e-18)
(12.5345 -13.4068 -4.18975e-18)
(12.0807 -13.5892 3.44649e-18)
(11.6462 -13.7178 -3.3451e-19)
(11.2259 -13.8784 0)
(10.8588 -14.0157 3.28475e-19)
(10.5426 -14.2339 -3.25131e-19)
(10.2478 -14.4293 0)
(9.92743 -14.5823 2.6004e-18)
(9.64051 -14.7258 -2.2347e-18)
(9.4026 -14.94 0)
(9.1912 -15.1169 3.06782e-19)
(8.93287 -15.1796 3.12143e-19)
(8.59242 -15.4214 2.5982e-18)
(8.01286 -5.49766 0)
(14.3495 -10.2705 0)
(14.7175 -11.2577 -1.50879e-18)
(14.046 -11.4602 1.10441e-18)
(13.5246 -11.7084 -1.87148e-18)
(13.0289 -11.963 1.48049e-18)
(12.5477 -12.1941 0)
(12.091 -12.3915 1.46995e-18)
(11.6617 -12.6019 -1.79937e-18)
(11.2726 -12.784 -3.66673e-19)
(10.9102 -13.0019 -3.62081e-19)
(10.549 -13.1596 0)
(10.1725 -13.3006 2.76878e-18)
(9.88691 -13.4968 -2.72541e-18)
(9.62748 -13.7368 0)
(9.32447 -13.8548 -2.98331e-18)
(9.02331 -14.002 2.61737e-18)
(8.81077 -14.1832 2.58336e-18)
(8.59863 -14.3494 -2.85839e-18)
(8.27791 -14.5991 0)
(8.13481 -5.0415 0)
(13.881 -9.1571 0)
(14.041 -10.0165 0)
(13.4007 -10.3176 -2.18578e-20)
(12.8754 -10.6029 0)
(12.4073 -10.9024 0)
(11.968 -11.2316 0)
(11.5306 -11.4581 -3.92324e-19)
(11.1121 -11.7398 0)
(10.6927 -11.9133 3.66637e-19)
(10.2992 -12.1438 -1.44347e-20)
(9.98861 -12.3663 -3.28988e-18)
(9.67637 -12.6096 2.50709e-18)
(9.33808 -12.7531 -3.19315e-18)
(9.08556 -13.0236 2.4352e-18)
(8.87506 -13.2758 0)
(8.61188 -13.4813 -2.70503e-18)
(8.38205 -13.6442 2.32702e-18)
(8.18154 -13.8387 0)
(7.9027 -14.1343 -3.53148e-19)
(8.30922 -4.59485 1.6047e-18)
(13.2995 -8.0798 4.33074e-19)
(13.3845 -8.84066 1.69694e-18)
(12.7976 -9.17353 -1.69168e-18)
(12.2865 -9.54321 -1.66801e-18)
(11.8215 -9.83597 3.28628e-18)
(11.3855 -10.1997 -3.66027e-18)
(10.9796 -10.4814 3.86738e-19)
(10.5932 -10.7925 1.17444e-18)
(10.2589 -11.0651 0)
(9.89615 -11.3139 -1.36745e-20)
(9.54985 -11.5252 -1.28939e-20)
(9.23173 -11.7537 3.65469e-19)
(8.93403 -11.9451 2.91353e-18)
(8.61142 -12.1137 -2.52543e-18)
(8.36345 -12.3325 -3.19076e-18)
(8.12759 -12.5861 2.78926e-18)
(7.8989 -12.7944 -9.28025e-21)
(7.667 -12.9758 -3.41522e-19)
(7.39899 -13.3285 -2.50805e-18)
(8.44632 -4.22239 -4.20075e-19)
(12.5914 -7.06871 2.27259e-20)
(12.4335 -7.77695 -4.55538e-19)
(11.8625 -8.13338 -1.78857e-18)
(11.365 -8.56187 1.29287e-18)
(10.9394 -8.91581 0)
(10.5261 -9.31289 2.54033e-18)
(10.1521 -9.64075 -1.2419e-18)
(9.77892 -10.0042 8.19529e-19)
(9.42254 -10.287 4.09946e-19)
(9.08733 -10.5989 -7.94459e-19)
(8.81333 -10.885 1.94577e-18)
(8.55666 -11.2144 3.89021e-19)
(8.2806 -11.4435 -2.26019e-18)
(8.02754 -11.701 6.30421e-18)
(7.76777 -11.8822 -2.55725e-18)
(7.52112 -12.0971 3.22113e-18)
(7.33437 -12.3011 -2.11356e-18)
(7.12877 -12.4865 6.91219e-19)
(6.90994 -12.7343 3.31474e-18)
(8.48812 -3.90282 2.10172e-18)
(11.7248 -6.0726 -4.58097e-19)
(11.4976 -6.75869 -1.94332e-20)
(11.0983 -7.18256 9.18427e-19)
(10.6256 -7.63538 4.44016e-19)
(10.2407 -7.99643 4.53289e-19)
(9.8551 -8.4264 -2.1843e-18)
(9.48543 -8.7485 1.29935e-18)
(9.15429 -9.13646 -4.16971e-19)
(8.88119 -9.49149 -4.09959e-19)
(8.55211 -9.81094 -4.02972e-19)
(8.19899 -10.0324 -4.06952e-19)
(7.9404 -10.344 -7.88418e-19)
(7.71478 -10.6446 2.71162e-18)
(7.45217 -10.9046 -3.80615e-18)
(7.25541 -11.1895 -3.77466e-19)
(7.01947 -11.4317 8.25597e-21)
(6.82135 -11.6641 -2.86706e-18)
(6.65127 -11.9069 2.12624e-18)
(6.44076 -12.207 -3.3857e-18)
(8.28692 -3.52158 1.78295e-18)
(10.7194 -5.24533 -4.40622e-18)
(10.3756 -5.92426 2.90229e-18)
(9.92193 -6.34223 -4.6818e-19)
(9.518 -6.88345 -4.75916e-19)
(9.13186 -7.26161 1.85852e-18)
(8.78373 -7.72168 -2.27098e-18)
(8.47567 -8.09904 0)
(8.1137 -8.46701 1.74443e-18)
(7.83507 -8.83134 -1.71523e-18)
(7.63572 -9.27712 -1.25341e-18)
(7.4025 -9.62671 1.64155e-18)
(7.10631 -9.91432 3.99381e-19)
(6.89111 -10.2213 -1.58355e-18)
(6.6701 -10.5136 3.90808e-19)
(6.44631 -10.7597 1.90698e-18)
(6.26085 -11.0383 -3.35836e-18)
(6.07558 -11.2714 2.20938e-18)
(5.89173 -11.4902 -6.93758e-21)
(5.73236 -11.8149 -3.07942e-18)
(7.8785 -3.09026 2.33315e-18)
(9.64676 -4.39269 -1.51949e-18)
(9.33271 -5.07014 1.00133e-18)
(9.06273 -5.53049 1.57089e-21)
(8.68904 -6.04366 -1.94358e-18)
(8.41155 -6.4856 -1.88181e-18)
(8.07501 -6.92675 2.31992e-18)
(7.78775 -7.32396 -1.36097e-18)
(7.49339 -7.71155 1.79146e-18)
(7.15957 -8.0107 0)
(6.86798 -8.35527 9.02003e-21)
(6.66155 -8.72235 4.16945e-19)
(6.47158 -9.10068 4.16919e-19)
(6.25059 -9.41587 -4.08541e-19)
(6.07177 -9.7634 0)
(5.8946 -10.0828 3.92369e-19)
(5.68227 -10.359 0)
(5.53542 -10.6634 7.4781e-19)
(5.34711 -10.8967 3.66237e-18)
(5.15762 -11.2237 -1.86934e-20)
(7.23672 -2.62588 1.21772e-18)
(8.48419 -3.70893 -2.58614e-19)
(8.09907 -4.4111 -3.60853e-18)
(7.80349 -4.95501 2.02069e-18)
(7.4281 -5.53038 4.89074e-19)
(7.12805 -5.98829 -4.79748e-19)
(6.84144 -6.50654 -1.90155e-18)
(6.61542 -6.94849 1.40759e-18)
(6.38363 -7.4169 0)
(6.1669 -7.78796 0)
(5.94361 -8.1571 -2.18412e-18)
(5.70964 -8.46265 1.7216e-18)
(5.49375 -8.78097 -4.17022e-19)
(5.32608 -9.10677 -1.23502e-18)
(5.12042 -9.37737 8.35372e-21)
(4.99617 -9.70688 2.77006e-18)
(4.83921 -9.98055 -1.55347e-18)
(4.70239 -10.2639 1.13705e-18)
(4.58889 -10.53 -1.86166e-18)
(4.44753 -10.8225 0)
(6.44803 -2.14893 -1.00914e-18)
(7.27609 -2.97606 1.59731e-18)
(6.8872 -3.64944 2.6532e-19)
(6.7024 -4.15733 2.60057e-19)
(6.49816 -4.7768 0)
(6.26313 -5.24504 1.97829e-18)
(6.00466 -5.72639 -1.94358e-18)
(5.75758 -6.15295 2.39264e-19)
(5.57843 -6.64083 0)
(5.35997 -7.06845 1.81789e-18)
(5.16074 -7.49418 -1.56375e-18)
(5.01021 -7.91869 1.74181e-18)
(4.8105 -8.27566 -1.7142e-18)
(4.65819 -8.64613 1.66905e-18)
(4.49111 -8.97847 -1.43749e-18)
(4.32225 -9.28772 -1.59976e-18)
(4.17656 -9.60368 3.14237e-18)
(4.03831 -9.89079 -1.35014e-18)
(3.89967 -10.1671 1.89291e-19)
(3.77807 -10.4936 1.61436e-18)
(5.49535 -1.7088 -7.86809e-19)
(6.03946 -2.46268 8.19514e-19)
(5.67772 -3.13112 -2.65317e-19)
(5.48695 -3.68663 -2.60046e-19)
(5.1945 -4.25443 0)
(5.05431 -4.84208 0)
(4.83997 -5.36973 0)
(4.60944 -5.8275 -4.81528e-19)
(4.38725 -6.25944 -1.88142e-18)
(4.23628 -6.70863 3.69056e-18)
(4.03473 -7.09548 -2.03466e-18)
(3.89317 -7.50346 -2.21849e-19)
(3.76073 -7.88859 0)
(3.62311 -8.25233 0)
(3.51012 -8.60863 -4.13668e-19)
(3.40546 -8.95137 0)
(3.28494 -9.2633 1.58149e-18)
(3.18517 -9.57426 -1.94631e-18)
(3.08133 -9.84717 -1.70537e-18)
(2.9584 -10.1592 1.6422e-18)
(4.42303 -1.36341 8.19555e-19)
(4.76183 -2.12574 1.38146e-18)
(4.4354 -2.72913 -1.66896e-21)
(4.29832 -3.30899 -2.49071e-21)
(4.08793 -3.85664 2.57869e-19)
(3.85388 -4.37493 -7.63876e-19)
(3.77873 -4.94695 0)
(3.64192 -5.46033 -7.29473e-19)
(3.50115 -5.94594 2.43881e-19)
(3.34298 -6.38166 9.34528e-19)
(3.21574 -6.82336 9.08887e-19)
(3.07893 -7.21268 -6.72368e-19)
(2.95213 -7.6095 1.73863e-18)
(2.85261 -7.97979 -1.49769e-18)
(2.72346 -8.33415 1.87136e-18)
(2.63818 -8.67694 -3.47044e-18)
(2.53804 -9.01527 1.60327e-18)
(2.45426 -9.32021 1.94835e-19)
(2.37669 -9.62576 1.52569e-18)
(2.29157 -9.93408 -1.65473e-18)
(2.70922 -0.851841 2.79894e-19)
(3.41089 -1.70273 -2.76707e-19)
(3.156 -2.37511 1.09289e-18)
(3.05533 -3.00743 -1.07274e-18)
(2.83473 -3.61153 -5.23597e-19)
(2.67147 -4.09445 -1.27861e-18)
(2.50747 -4.63575 4.82164e-21)
(2.36541 -5.11014 9.83112e-19)
(2.28849 -5.61828 -2.3896e-19)
(2.18041 -6.07523 0)
(2.07669 -6.51442 0)
(1.98568 -6.94527 0)
(1.89784 -7.34147 0)
(1.81306 -7.73265 6.65716e-22)
(1.75188 -8.10352 0)
(1.6671 -8.45017 2.04547e-19)
(1.6122 -8.79555 7.99461e-19)
(1.54038 -9.11063 -2.35255e-18)
(1.48953 -9.41438 1.73423e-18)
(1.42541 -9.73732 -1.65001e-18)
(1.66978 -0.420403 0)
(2.06962 -1.13687 -1.30821e-19)
(1.8352 -1.8063 0)
(1.72459 -2.46902 4.02281e-19)
(1.75191 -3.19991 -2.64403e-19)
(1.59825 -3.75307 -1.02643e-18)
(1.50935 -4.35811 5.07208e-21)
(1.43576 -4.855 9.86184e-19)
(1.30219 -5.36467 -9.58583e-19)
(1.25164 -5.83627 1.87948e-18)
(1.14842 -6.28791 -5.83675e-21)
(1.08688 -6.71735 -9.00896e-19)
(1.01832 -7.12948 8.74909e-19)
(0.964888 -7.52182 -1.07563e-18)
(0.90806 -7.89756 0)
(0.872157 -8.26184 -8.17949e-19)
(0.822228 -8.60503 8.05734e-19)
(0.791545 -8.93969 0)
(0.750728 -9.24186 -1.92166e-19)
(0.716736 -9.57314 0)
(0.747185 -0.427544 0)
(0.70556 -1.18946 1.40188e-19)
(0.352939 -1.93592 0)
(0.196202 -2.42843 5.36862e-19)
(0.13167 -3.10462 -6.57734e-19)
(0.130729 -3.66533 3.84566e-19)
(0.0896694 -4.22983 -1.13013e-18)
(0.0755248 -4.76316 4.92477e-19)
(0.0432103 -5.27208 -1.19687e-19)
(0.0226371 -5.74521 0)
(-0.0123795 -6.21068 -1.14318e-19)
(-0.0416782 -6.63534 -1.1173e-19)
(-0.0671 -7.06353 -1.09211e-19)
(-0.095214 -7.45134 0)
(-0.110849 -7.84164 -8.34437e-19)
(-0.139372 -8.19649 1.7398e-18)
(-0.14559 -8.55641 -1.50199e-18)
(-0.171562 -8.88004 7.86304e-19)
(-0.172353 -9.19817 9.55725e-20)
(-0.196256 -9.52138 8.24168e-19)
(-1.13552 -0.239644 -2.1314e-19)
(-1.12952 -1.109 -2.78638e-19)
(-0.781054 -1.84004 7.33283e-22)
(-0.798219 -2.45839 7.35055e-19)
(-0.877018 -3.04331 -1.95942e-19)
(-0.858207 -3.61042 -1.26859e-19)
(-0.911918 -4.15653 1.26593e-19)
(-0.920039 -4.68397 2.44941e-19)
(-0.944795 -5.19201 1.19685e-19)
(-0.9472 -5.67391 -4.65128e-19)
(-0.964925 -6.14023 5.1508e-19)
(-0.980022 -6.57155 1.11729e-19)
(-0.982476 -6.99164 5.43354e-19)
(-0.981266 -7.39214 -2.97706e-21)
(-0.97907 -7.77312 4.88594e-20)
(-0.965817 -8.1431 -9.16353e-19)
(-0.960577 -8.49416 2.50257e-19)
(-0.943691 -8.83257 0)
(-0.935593 -9.1442 -4.81427e-20)
(-0.920059 -9.47938 -4.09921e-19)
(-2.2144 -0.154185 7.0516e-20)
(-2.40339 -0.753318 -1.37851e-19)
(-2.38999 -1.45885 2.70254e-19)
(-2.32996 -2.18404 -6.68766e-20)
(-2.33275 -2.82871 -6.46491e-20)
(-2.29904 -3.48623 0)
(-2.29621 -4.08854 -1.23453e-19)
(-2.26506 -4.64686 2.41985e-19)
(-2.23246 -5.17393 -1.18611e-19)
(-2.19089 -5.67431 1.15208e-19)
(-2.14868 -6.15301 -5.65846e-20)
(-2.0946 -6.59706 -1.10021e-19)
(-2.07942 -7.02917 2.15806e-19)
(-2.03558 -7.42781 -2.10959e-19)
(-2.00918 -7.82341 5.16887e-20)
(-1.9779 -8.18153 3.55979e-34)
(-1.93765 -8.55085 -4.87274e-20)
(-1.91362 -8.87268 2.89105e-19)
(-1.86805 -9.20073 -1.42869e-19)
(-1.84851 -9.52456 -1.02359e-19)
(-0.367239 2.15229 -3.53784e-20)
(-0.139508 2.54754 -1.7284e-20)
(0.412522 0.51105 0)
(2.06983 -4.9149 -1.67422e-20)
(5.4223 -14.4646 -1.64099e-20)
(7.92993 -21.8549 -1.63811e-20)
(9.13937 -25.6619 0)
(9.54825 -27.0022 -1.54727e-20)
(9.57073 -27.474 0)
(9.55277 -27.589 0)
(9.4525 -27.5899 1.52729e-20)
(9.3112 -27.538 4.50733e-22)
(9.20062 -27.5391 -3.19583e-20)
(9.09816 -27.5263 0)
(8.94625 -27.5045 -1.6308e-20)
(8.87205 -27.4943 -1.62427e-20)
(8.72038 -27.5074 -1.6224e-20)
(8.65223 -27.5237 0)
(8.53694 -27.5827 3.20846e-20)
(8.47867 -27.6398 -2.92771e-20)
(-0.404999 2.34444 -5.38359e-20)
(0.225397 1.46829 8.79005e-20)
(1.05755 -2.15718 0)
(4.12231 -10.6468 5.89788e-20)
(7.29174 -19.4842 -8.35392e-20)
(9.0311 -24.5693 1.49318e-19)
(9.65298 -26.5495 -6.37757e-20)
(9.73636 -27.1878 -4.89162e-20)
(9.73918 -27.3565 2.20021e-19)
(9.65265 -27.362 -1.23826e-19)
(9.49806 -27.301 1.63748e-20)
(9.39884 -27.2543 -1.34233e-19)
(9.25567 -27.2175 -1.94711e-21)
(9.1591 -27.1885 1.31937e-19)
(9.04621 -27.2567 1.63101e-20)
(8.96048 -27.2556 1.62896e-20)
(8.81963 -27.2125 1.627e-20)
(8.7367 -27.2156 0)
(8.64396 -27.3204 1.31206e-19)
(8.58388 -27.3887 1.40669e-21)
(-0.168097 2.10615 3.62862e-20)
(0.440795 -0.00750159 0)
(2.26412 -5.66873 0)
(6.16688 -15.9648 3.42498e-20)
(8.54602 -22.8918 -3.38534e-20)
(9.62903 -25.9279 0)
(9.85207 -26.8809 3.33801e-20)
(9.89844 -27.1423 -9.61916e-20)
(9.81934 -27.1523 9.32755e-20)
(9.6727 -27.0695 -1.35835e-19)
(9.566 -27.0105 1.70611e-19)
(9.44083 -26.9512 0)
(9.34319 -26.9589 1.37941e-19)
(9.26529 -26.9943 1.39876e-19)
(9.14195 -26.9828 -2.36704e-19)
(9.05888 -26.9147 2.75101e-19)
(8.91992 -26.938 -2.36381e-19)
(8.89333 -27.0173 0)
(8.77746 -27.1318 3.07134e-19)
(8.72861 -27.1091 -5.13421e-19)
(0.179362 1.52333 -1.116e-19)
(0.827923 -1.94387 0)
(3.99373 -10.4076 0)
(7.64586 -19.7618 -1.0392e-19)
(9.4346 -24.705 2.04849e-19)
(9.99314 -26.438 -6.73893e-20)
(10.0799 -26.911 -3.23381e-20)
(10.0222 -26.9371 -3.5287e-19)
(9.90361 -26.8681 5.43668e-19)
(9.78412 -26.7944 7.57539e-20)
(9.67414 -26.7394 -3.12935e-19)
(9.58156 -26.7258 -7.09888e-20)
(9.47324 -26.7219 3.54409e-19)
(9.37455 -26.6814 -3.50027e-19)
(9.25882 -26.6964 -1.05836e-19)
(9.17306 -26.6922 7.12174e-20)
(9.05144 -26.7078 -1.05803e-19)
(8.99845 -26.7498 0)
(8.87091 -26.8211 3.6373e-20)
(8.8056 -26.7753 0)
(0.353126 0.243704 0)
(1.52372 -4.14943 -2.82948e-19)
(5.67314 -14.5747 3.48196e-19)
(8.71961 -22.5053 -3.501e-19)
(9.9352 -25.7528 2.72876e-19)
(10.226 -26.6317 6.80403e-20)
(10.1975 -26.7435 0)
(10.1382 -26.7207 -2.02426e-19)
(10.0128 -26.6304 2.78591e-19)
(9.91075 -26.5608 -3.59011e-19)
(9.80922 -26.5158 2.83506e-19)
(9.68872 -26.4481 7.0989e-20)
(9.58912 -26.4322 -3.61191e-19)
(9.49945 -26.4516 6.47165e-19)
(9.38495 -26.4297 -4.32419e-19)
(9.29543 -26.3693 1.41714e-19)
(9.17594 -26.4144 3.61484e-19)
(9.13931 -26.4912 -8.61568e-19)
(9.00001 -26.5492 4.87529e-19)
(8.93062 -26.4485 6.16693e-19)
(0.30523 -0.814637 -2.83345e-19)
(2.55973 -6.94126 -2.77028e-19)
(7.13618 -18.017 2.72998e-19)
(9.56814 -24.1462 6.8008e-20)
(10.3387 -26.1846 -6.94432e-20)
(10.4638 -26.5634 -2.85985e-19)
(10.4162 -26.5941 2.70647e-19)
(10.3082 -26.4974 0)
(10.1875 -26.3782 -2.91844e-19)
(10.0659 -26.2945 2.86949e-19)
(9.94878 -26.2037 2.94918e-19)
(9.84556 -26.1833 -2.90141e-19)
(9.74688 -26.1836 0)
(9.64226 -26.1377 0)
(9.52649 -26.1381 -6.70031e-19)
(9.4414 -26.1301 6.61042e-19)
(9.31487 -26.1621 5.98107e-19)
(9.25755 -26.1911 -5.83489e-19)
(9.0925 -26.2129 5.84438e-19)
(8.99084 -26.0386 -7.0947e-19)
(0.415072 -1.98001 2.04633e-19)
(3.85006 -10.0899 -6.12567e-20)
(8.21431 -20.3769 4.71181e-21)
(10.2386 -25.2441 -3.33525e-19)
(10.6643 -26.3929 0)
(10.6754 -26.478 0)
(10.5999 -26.3996 -5.55637e-19)
(10.4605 -26.2268 -1.71456e-20)
(10.3525 -26.124 5.74408e-19)
(10.2444 -26.0353 -5.96021e-19)
(10.1386 -25.9808 5.86187e-19)
(10.0222 -25.9146 0)
(9.91766 -25.8833 -6.07881e-19)
(9.8107 -25.8841 5.983e-19)
(9.69181 -25.8434 0)
(9.58112 -25.7796 0)
(9.45449 -25.8242 0)
(9.39191 -25.8498 0)
(9.20822 -25.8463 0)
(9.09535 -25.6327 7.3371e-20)
(0.677959 -2.94377 -1.80765e-19)
(5.10586 -12.6541 3.03721e-19)
(9.26252 -22.2429 0)
(10.851 -25.7533 0)
(11.0356 -26.3057 -5.99827e-19)
(11.0108 -26.2733 -8.93367e-20)
(10.8838 -26.1244 6.16739e-19)
(10.7671 -25.9925 0)
(10.6388 -25.8676 -7.43133e-20)
(10.4943 -25.7541 7.5524e-20)
(10.3552 -25.6427 0)
(10.2244 -25.599 -7.74051e-20)
(10.105 -25.5779 7.01677e-19)
(9.97468 -25.5186 -1.3196e-18)
(9.84893 -25.5076 -1.25694e-20)
(9.73777 -25.4854 6.20421e-19)
(9.59721 -25.4954 7.97123e-20)
(9.52029 -25.4973 -7.94798e-20)
(9.30276 -25.4603 0)
(9.17299 -25.2055 -7.90168e-20)
(1.10055 -3.897 -1.17218e-19)
(6.44252 -14.672 -1.26972e-19)
(10.2531 -23.3732 3.42289e-19)
(11.4439 -25.9643 -1.25969e-19)
(11.481 -26.1846 -6.46977e-20)
(11.371 -26.0442 -6.22253e-19)
(11.2011 -25.8625 9.25916e-19)
(11.0416 -25.6705 -7.21839e-19)
(10.8778 -25.5116 6.84113e-19)
(10.7289 -25.3951 -8.29792e-19)
(10.5883 -25.3155 -1.57132e-19)
(10.4473 -25.2428 -7.16937e-19)
(10.3183 -25.2079 3.86021e-19)
(10.1868 -25.2026 8.86225e-19)
(10.0463 -25.1478 -7.9859e-19)
(9.90155 -25.0845 0)
(9.75374 -25.1132 -2.44364e-19)
(9.65248 -25.0864 -8.51348e-20)
(9.40976 -25.0178 1.64898e-19)
(9.27596 -24.7651 -8.50168e-20)
(1.83715 -5.02314 9.07144e-20)
(7.72645 -16.1701 -1.35501e-19)
(11.2014 -24.039 1.36088e-21)
(12.0333 -25.8151 2.48046e-19)
(11.9509 -25.8298 2.59939e-19)
(11.7721 -25.6275 1.37326e-19)
(11.581 -25.4504 -3.24129e-21)
(11.3999 -25.2937 1.48109e-19)
(11.2268 -25.1629 0)
(11.0358 -25.0313 1.5462e-19)
(10.8598 -24.92 1.57105e-19)
(10.6878 -24.8607 -5.40482e-21)
(10.5288 -24.8196 -6.67522e-19)
(10.3591 -24.7554 3.21325e-19)
(10.2053 -24.7394 8.34391e-19)
(10.0444 -24.6915 -6.60873e-19)
(9.88089 -24.6764 -5.11411e-19)
(9.76469 -24.6573 8.31097e-19)
(9.51198 -24.5875 -1.65126e-19)
(9.35957 -24.3152 -1.19071e-18)
(2.58377 -5.81501 0)
(8.57503 -17.1232 -4.65619e-19)
(12.1212 -24.2923 7.28107e-19)
(12.6153 -25.5367 -6.05019e-19)
(12.4401 -25.4498 -6.89268e-19)
(12.2111 -25.2172 5.5357e-19)
(11.9805 -25.0404 9.12053e-19)
(11.7526 -24.843 2.92856e-20)
(11.5216 -24.6661 -6.20353e-19)
(11.3113 -24.5415 4.94161e-19)
(11.1133 -24.4423 -1.31957e-18)
(10.9229 -24.3631 8.24303e-19)
(10.7505 -24.3331 1.66449e-19)
(10.5831 -24.3259 -5.23995e-19)
(10.4068 -24.2674 1.37737e-18)
(10.2261 -24.2221 -6.85542e-19)
(10.0563 -24.2274 0)
(9.90268 -24.1781 1.40362e-18)
(9.63828 -24.1016 -1.38306e-18)
(9.49705 -23.8409 1.2328e-18)
(3.02737 -6.73883 -1.0184e-19)
(9.82444 -17.8645 -6.15628e-20)
(12.8858 -24.2016 -5.73086e-19)
(13.1811 -24.9855 -6.85516e-19)
(12.8899 -24.8328 3.95774e-19)
(12.6311 -24.6239 -7.68724e-19)
(12.3501 -24.4536 4.52233e-19)
(12.0928 -24.297 -6.58659e-19)
(11.8559 -24.1703 1.32253e-18)
(11.6065 -24.0422 -4.98147e-19)
(11.3844 -23.9452 0)
(11.1641 -23.8815 0)
(10.9588 -23.8342 0)
(10.7516 -23.7925 1.44216e-18)
(10.5622 -23.7899 -1.41983e-18)
(10.351 -23.7186 0)
(10.1642 -23.7035 0)
(10.003 -23.6995 1.85172e-19)
(9.74021 -23.636 0)
(9.58293 -23.3702 1.65455e-18)
(3.75006 -7.21612 2.16255e-19)
(10.5506 -18.3533 5.68268e-19)
(13.603 -23.9279 5.18122e-19)
(13.6953 -24.4318 1.87122e-19)
(13.3506 -24.2472 -8.87845e-19)
(13.0647 -24.0295 1.13251e-19)
(12.7569 -23.8646 -3.57924e-20)
(12.4577 -23.6947 8.34631e-19)
(12.1667 -23.535 0)
(11.8896 -23.4249 5.3983e-19)
(11.6296 -23.3271 -8.9635e-19)
(11.3799 -23.251 0)
(11.1537 -23.2281 -1.49892e-18)
(10.9389 -23.2155 1.4754e-18)
(10.7257 -23.1845 -1.51659e-18)
(10.5113 -23.1757 2.82164e-18)
(10.3077 -23.1635 -1.49825e-18)
(10.1133 -23.1384 -1.85158e-19)
(9.84537 -23.0945 1.92947e-19)
(9.68224 -22.8541 -1.53971e-18)
(4.2282 -7.60348 3.71313e-19)
(11.5814 -18.3227 3.75568e-20)
(14.2044 -23.3824 5.149e-20)
(14.2437 -23.6249 -1.20072e-18)
(13.7727 -23.4555 -2.00668e-19)
(13.4387 -23.2739 8.23954e-19)
(13.0771 -23.1234 7.14293e-19)
(12.7381 -22.9877 -1.42394e-19)
(12.4333 -22.8761 -9.11646e-19)
(12.1242 -22.7644 1.13957e-18)
(11.8511 -22.6949 -5.65079e-19)
(11.5817 -22.6379 1.76206e-18)
(11.3301 -22.6001 -1.33839e-18)
(11.0937 -22.5987 1.58414e-18)
(10.8672 -22.61 -1.3575e-18)
(10.6178 -22.5428 -1.39934e-18)
(10.408 -22.5582 1.56843e-18)
(10.2134 -22.578 -1.38787e-18)
(9.94931 -22.5608 1.37428e-18)
(9.79945 -22.3279 1.81967e-18)
(4.88113 -7.87078 5.38943e-19)
(12.3172 -18.2935 1.8431e-19)
(14.7916 -22.6906 -5.69265e-19)
(14.6209 -22.8182 6.77967e-19)
(14.167 -22.6366 -6.66388e-19)
(13.7819 -22.4727 -1.73969e-19)
(13.4158 -22.3435 0)
(13.0438 -22.228 1.98814e-19)
(12.7014 -22.1175 -6.07484e-19)
(12.3628 -22.0429 2.20998e-18)
(12.0473 -21.9657 -1.59275e-18)
(11.7432 -21.9154 -4.08868e-19)
(11.4605 -21.8998 -2.00178e-19)
(11.1958 -21.8867 0)
(10.9561 -21.9231 1.0828e-20)
(10.7088 -21.9442 -1.6731e-18)
(10.4679 -21.9163 -2.35315e-20)
(10.2418 -21.9471 -4.34787e-19)
(9.98899 -21.979 1.64282e-18)
(9.81957 -21.804 -4.22351e-19)
(5.357 -7.95698 -5.98576e-19)
(13.0386 -17.8954 1.10812e-18)
(15.2523 -21.7273 -6.4565e-19)
(15.0299 -21.8329 -7.42672e-19)
(14.5057 -21.7084 -4.49639e-20)
(14.0792 -21.579 5.56974e-19)
(13.6495 -21.4625 -2.09119e-19)
(13.2391 -21.3679 -1.98785e-19)
(12.8695 -21.2918 0)
(12.5081 -21.2206 0)
(12.1826 -21.1957 1.73938e-18)
(11.8652 -21.1496 -3.0281e-18)
(11.5695 -21.1481 1.72254e-18)
(11.2976 -21.177 0)
(11.0289 -21.1973 1.17648e-20)
(10.7596 -21.2048 1.98364e-18)
(10.5181 -21.261 -1.9567e-18)
(10.2677 -21.2844 2.11809e-19)
(10.0092 -21.3208 1.95869e-18)
(9.86404 -21.1778 -1.32111e-18)
(5.87876 -8.00394 6.72736e-19)
(13.658 -17.4943 -8.64603e-19)
(15.6094 -20.867 0)
(15.2484 -20.8152 0)
(14.72 -20.7018 -2.15153e-19)
(14.255 -20.6095 1.06934e-18)
(13.8403 -20.5408 1.7213e-20)
(13.4088 -20.4853 -8.69211e-19)
(13.0259 -20.4427 1.82126e-18)
(12.6403 -20.4078 -3.62908e-18)
(12.2855 -20.3808 1.80803e-18)
(11.9414 -20.3763 -4.60377e-19)
(11.6026 -20.3532 -2.09883e-18)
(11.2976 -20.3715 -2.67051e-19)
(11.029 -20.4611 1.37091e-18)
(10.7396 -20.4631 -2.24366e-19)
(10.4701 -20.483 2.06948e-18)
(10.218 -20.596 -1.80971e-18)
(9.98649 -20.6832 1.07583e-20)
(9.8344 -20.5968 -1.85795e-18)
(6.27854 -7.8836 0)
(14.1486 -16.7868 -6.16329e-19)
(15.8353 -19.6811 5.84049e-19)
(15.4939 -19.7311 0)
(14.9507 -19.6687 2.15133e-19)
(14.4456 -19.6123 -9.37685e-19)
(13.972 -19.5416 1.14703e-18)
(13.5072 -19.5067 0)
(13.0868 -19.4831 -1.94826e-18)
(12.687 -19.4788 1.91577e-18)
(12.3127 -19.4906 -2.51595e-19)
(11.961 -19.4904 2.37145e-19)
(11.6267 -19.5382 2.37588e-19)
(11.303 -19.5533 2.37602e-19)
(11.0082 -19.6433 2.19757e-18)
(10.7292 -19.7351 -3.88207e-18)
(10.4268 -19.7572 3.86167e-18)
(10.1264 -19.8215 -3.79193e-18)
(9.88939 -19.953 1.64591e-18)
(9.75703 -19.9359 -2.39878e-19)
(6.69491 -7.75846 0)
(14.6054 -16.1124 8.66742e-19)
(16.0237 -18.6097 -4.33424e-19)
(15.4999 -18.5799 -7.27196e-19)
(14.9609 -18.5402 -3.87546e-20)
(14.428 -18.5386 -3.39683e-20)
(13.9722 -18.5306 9.96981e-19)
(13.4981 -18.5264 0)
(13.0788 -18.5493 0)
(12.6645 -18.5632 0)
(12.287 -18.6155 2.51568e-19)
(11.9124 -18.6414 0)
(11.5363 -18.6517 2.35573e-18)
(11.1881 -18.694 -2.05597e-18)
(10.8613 -18.7572 2.07213e-18)
(10.557 -18.8272 -4.10103e-18)
(10.2678 -18.9388 2.02949e-18)
(9.96538 -19.022 2.27182e-18)
(9.69915 -19.1541 -3.98606e-18)
(9.56842 -19.1841 2.07373e-18)
(7.04772 -7.44122 0)
(14.8212 -15.2661 0)
(16.0544 -17.3217 -2.42611e-19)
(15.5488 -17.4277 -2.5023e-19)
(15.0367 -17.437 0)
(14.4914 -17.4657 -1.09354e-18)
(13.9948 -17.467 1.07433e-18)
(13.5029 -17.4882 0)
(13.0479 -17.5162 -2.22222e-18)
(12.6214 -17.5647 2.18515e-18)
(12.2153 -17.6179 0)
(11.8521 -17.6916 2.21805e-18)
(11.4869 -17.7567 -2.38747e-19)
(11.1262 -17.7762 -2.17629e-18)
(10.7998 -17.8898 0)
(10.4773 -17.9448 0)
(10.132 -18.0222 0)
(9.79939 -18.0865 1.89485e-18)
(9.47617 -18.0984 -2.12392e-18)
(9.22667 -18.1928 0)
(7.78807 -27.2608 0)
(6.73497 -26.1918 0)
(5.94898 -26.5679 4.31268e-21)
(5.13987 -26.1494 4.43124e-21)
(4.50537 -26.4695 0)
(3.90864 -26.3084 2.39638e-23)
(3.43319 -26.3191 -4.79662e-21)
(2.97593 -26.1543 0)
(2.59421 -26.0089 -5.0643e-21)
(2.20974 -25.8644 0)
(1.88592 -25.7966 5.21266e-21)
(1.59281 -25.6539 2.63963e-21)
(1.30872 -25.6201 -2.65377e-21)
(1.12418 -25.4878 -5.4052e-21)
(0.849066 -25.473 0)
(0.786406 -25.2597 1.37897e-21)
(0.418553 -24.7243 -6.20299e-21)
(0.542604 -22.1896 0)
(0.158658 -15.8265 0)
(0.259554 -6.8413 -5.64455e-21)
(7.84838 -26.93 -1.45532e-20)
(6.80695 -25.9061 0)
(5.92631 -26.3654 -2.1965e-20)
(5.19107 -26.0077 1.33058e-20)
(4.58905 -26.3409 0)
(3.96783 -26.1056 2.40737e-20)
(3.47199 -26.1309 -9.72866e-21)
(3.00074 -25.9828 0)
(2.61624 -25.8558 -5.15838e-21)
(2.23031 -25.7229 1.028e-20)
(1.9092 -25.6737 -1.57178e-20)
(1.61414 -25.5514 2.11833e-20)
(1.33234 -25.5468 -1.60516e-20)
(1.14365 -25.4153 5.37928e-21)
(0.868973 -25.4195 5.45293e-21)
(0.801241 -25.1979 -5.53582e-21)
(0.432348 -24.6928 9.63772e-21)
(0.561159 -22.1486 1.37331e-20)
(0.150546 -15.7807 7.03493e-21)
(0.268008 -6.77892 7.05429e-21)
(7.85497 -26.5774 -2.14919e-21)
(6.85642 -25.6187 1.57271e-20)
(6.06596 -26.1103 1.80546e-20)
(5.25103 -25.7244 0)
(4.60743 -26.1123 0)
(3.98961 -25.9758 -2.92869e-20)
(3.53085 -26.0449 -3.01757e-22)
(3.06294 -25.9055 -2.20642e-22)
(2.67914 -25.7878 -2.01113e-22)
(2.28509 -25.6594 2.0758e-20)
(1.95586 -25.6181 0)
(1.65128 -25.4893 0)
(1.36673 -25.4837 0)
(1.16855 -25.3587 2.1839e-20)
(0.893242 -25.3737 0)
(0.821108 -25.141 2.22378e-20)
(0.446379 -24.6646 -1.88178e-20)
(0.581144 -22.1279 -8.16267e-21)
(0.159254 -15.7625 -1.402e-20)
(0.27755 -6.7321 -2.26147e-20)
(7.85959 -26.2214 -3.33058e-20)
(6.91154 -25.3542 6.78215e-20)
(6.01268 -25.8879 2.93252e-22)
(5.24725 -25.569 -3.71143e-20)
(4.66942 -25.9736 0)
(4.05387 -25.7804 -3.98578e-20)
(3.5831 -25.8603 1.00961e-19)
(3.09498 -25.7344 -6.13702e-20)
(2.70583 -25.6351 4.15472e-20)
(2.30849 -25.5174 -2.10882e-20)
(1.97939 -25.4944 -1.35303e-22)
(1.67203 -25.3868 2.15213e-20)
(1.38855 -25.4096 -2.16261e-20)
(1.18509 -25.2857 -1.08881e-20)
(0.910882 -25.3202 -1.10009e-20)
(0.83535 -25.0807 -2.22303e-20)
(0.460447 -24.6391 2.31381e-20)
(0.595771 -22.1015 -1.07579e-20)
(0.148692 -15.7322 5.61538e-21)
(0.283035 -6.67415 2.25779e-20)
(7.91283 -25.8627 -6.24564e-20)
(6.93459 -25.0621 -1.738e-20)
(6.10352 -25.6336 3.73803e-20)
(5.33712 -25.3013 -5.72502e-20)
(4.71773 -25.761 0)
(4.07908 -25.6553 2.02027e-20)
(3.63535 -25.7739 -2.03655e-20)
(3.14805 -25.6562 0)
(2.75934 -25.5666 1.86401e-22)
(2.35607 -25.4528 0)
(2.01949 -25.4361 4.28461e-20)
(1.70438 -25.3229 0)
(1.41769 -25.3442 0)
(1.20416 -25.2274 4.40249e-20)
(0.929484 -25.2733 -2.20832e-20)
(0.848937 -25.024 2.23824e-20)
(0.475185 -24.615 0)
(0.608458 -22.0846 -5.24224e-21)
(0.149344 -15.7172 5.47953e-21)
(0.29108 -6.63107 0)
(7.87296 -25.5021 -3.48145e-20)
(6.98826 -24.8039 3.65889e-20)
(6.13503 -25.4218 -9.71763e-20)
(5.34069 -25.1467 9.70687e-20)
(4.77553 -25.602 -4.06191e-20)
(4.14656 -25.4575 -2.02658e-20)
(3.69613 -25.5908 4.17841e-20)
(3.18599 -25.4851 4.22052e-20)
(2.79024 -25.4143 -2.11376e-20)
(2.38234 -25.3104 -4.2938e-20)
(2.04318 -25.3122 2.15915e-20)
(1.7246 -25.2209 0)
(1.43704 -25.2687 0)
(1.21766 -25.154 1.79203e-22)
(0.942164 -25.219 2.21612e-20)
(0.855102 -24.9668 -2.23605e-20)
(0.490207 -24.5934 0)
(0.618656 -22.069 4.02886e-20)
(0.141223 -15.7026 3.50134e-20)
(0.29616 -6.58004 2.82053e-21)
(7.96956 -25.144 1.09649e-19)
(6.98494 -24.5258 -1.10871e-19)
(6.13798 -25.1532 3.91072e-20)
(5.39099 -24.88 0)
(4.82409 -25.407 4.07921e-20)
(4.17544 -25.3401 -8.35076e-20)
(3.74524 -25.5025 4.18823e-20)
(3.23164 -25.4039 -4.2324e-20)
(2.83536 -25.3445 0)
(2.42214 -25.2442 0)
(2.07701 -25.2505 -4.36405e-20)
(1.75199 -25.1544 4.37971e-20)
(1.4603 -25.2004 0)
(1.2314 -25.0933 -6.64243e-20)
(0.955493 -25.1699 2.22402e-20)
(0.859567 -24.9125 2.23994e-20)
(0.504779 -24.5746 -1.85451e-20)
(0.626861 -22.0581 -4.81841e-20)
(0.135984 -15.6961 -1.78946e-20)
(0.30427 -6.54065 -5.63092e-21)
(7.96049 -24.7701 0)
(7.03495 -24.2459 7.87778e-20)
(6.25945 -24.9599 -7.90082e-20)
(5.44776 -24.7395 0)
(4.90281 -25.2352 0)
(4.24824 -25.1382 8.49138e-20)
(3.80913 -25.3194 -8.51676e-20)
(3.27313 -25.2324 0)
(2.86953 -25.1928 -4.34986e-20)
(2.44981 -25.1021 8.73721e-20)
(2.1 -25.1272 -4.38752e-20)
(1.77117 -25.0528 -4.42099e-20)
(1.47679 -25.1234 4.4344e-20)
(1.24138 -25.0192 0)
(0.966327 -25.114 0)
(0.860172 -24.8587 2.24337e-20)
(0.518801 -24.5585 -2.78376e-20)
(0.633801 -22.0501 4.90852e-24)
(0.129904 -15.6943 9.39567e-21)
(0.313909 -6.49701 -5.61742e-21)
(8.05586 -24.3942 -7.8924e-20)
(7.05219 -23.9936 7.91845e-20)
(6.25018 -24.6795 1.25309e-19)
(5.46751 -24.464 -1.68002e-19)
(4.94259 -25.0485 1.70343e-19)
(4.27863 -25.023 5.07355e-22)
(3.85374 -25.2271 -8.65702e-20)
(3.31174 -25.1476 0)
(2.90738 -25.1209 0)
(2.48214 -25.0332 -4.43123e-20)
(2.12757 -25.0616 0)
(1.7933 -24.9832 0)
(1.49418 -25.052 0)
(1.24947 -24.9567 0)
(0.977964 -25.0623 0)
(0.860114 -24.807 0)
(0.532257 -24.5451 1.85567e-20)
(0.639261 -22.0456 -1.89003e-20)
(0.122341 -15.6996 3.42975e-21)
(0.326205 -6.46063 -5.60193e-21)
(8.0873 -24.0061 3.30221e-20)
(7.08956 -23.685 1.23325e-19)
(6.37608 -24.4994 4.31635e-20)
(5.52855 -24.33 4.40058e-20)
(5.02973 -24.8683 -4.31289e-20)
(4.35294 -24.8186 -1.31642e-19)
(3.91706 -25.0432 -4.43961e-20)
(3.35374 -24.9759 0)
(2.94368 -24.9702 4.43464e-20)
(2.50996 -24.8921 -8.9466e-20)
(2.14921 -24.9394 -4.48243e-20)
(1.81099 -24.8821 -4.49854e-20)
(1.50783 -24.9734 0)
(1.25608 -24.8826 -4.50549e-20)