/*--------------------------------*- C++ -*----------------------------------*\
  =========                 |
  \\      /  F ield         | OpenFOAM: The Open Source CFD Toolbox
   \\    /   O peration     | Website:  https://openfoam.org
    \\  /    A nd           | Version:  9
     \\/     M anipulation  |
\*---------------------------------------------------------------------------*/
FoamFile
{
    format      ascii;
    class       volScalarField;
    location    "5.1";
    object      nut;
}
// * * * * * * * * * * * * * * * * * * * * * * * * * * * * * * * * * * * * * //

dimensions      [0 2 -1 0 0 0 0];

internalField   nonuniform List<scalar> 
46400
(
0.0212112
0.00820604
0.00233858
0.00161699
0.00162667
0.00155554
0.00147655
0.00143772
0.00135966
0.00132856
0.00127272
0.0012557
0.00121709
0.00118609
0.00114138
0.00112056
0.00111067
0.00100693
0.00130275
0.00112144
0.0207353
0.00675467
0.00155735
0.00159874
0.00156735
0.00156099
0.00150033
0.00146442
0.00139842
0.00134909
0.00129615
0.00124798
0.00120647
0.0011696
0.00113561
0.00109457
0.00104298
0.000931037
0.00113347
0.00104141
0.0202528
0.00620203
0.00157637
0.0016962
0.00160427
0.00156595
0.00148854
0.00145462
0.00138312
0.00134131
0.00128421
0.00125674
0.00121293
0.00117841
0.00113268
0.00110961
0.00107285
0.000971601
0.00123269
0.00109892
0.0197376
0.00495822
0.00143898
0.00165675
0.0015595
0.0015616
0.00148604
0.00145701
0.00139767
0.00135509
0.00130303
0.0012564
0.00121011
0.00117066
0.0011341
0.00109574
0.00106456
0.000953025
0.00121954
0.00112883
0.0190912
0.00481513
0.00144417
0.00170169
0.00158921
0.00156864
0.0015055
0.00146973
0.00140415
0.0013643
0.00131171
0.00128361
0.00123808
0.00119522
0.0011545
0.00112488
0.0010923
0.00098906
0.00124058
0.00113843
0.0183895
0.00506542
0.00154308
0.00169264
0.00158244
0.00155539
0.00147508
0.00145594
0.00139744
0.00136286
0.00131945
0.00127998
0.00125164
0.00120603
0.0011693
0.00113265
0.00110562
0.000995228
0.00124819
0.00118115
0.0176177
0.00528582
0.00156767
0.00172305
0.00160996
0.00159751
0.00151473
0.00147527
0.00141738
0.00136644
0.00132709
0.0012892
0.00126078
0.00123011
0.00118778
0.00115708
0.00111971
0.00101564
0.00121784
0.001153
0.0168177
0.00512081
0.00164682
0.0017603
0.00161734
0.00157703
0.00149348
0.00144693
0.00139994
0.00135391
0.00131349
0.00127475
0.00124377
0.00122211
0.00120081
0.0011721
0.00114449
0.00104652
0.0012175
0.00116276
0.015584
0.00424811
0.00163788
0.00176754
0.00163085
0.00159753
0.00152786
0.00146349
0.0014047
0.00134751
0.00129819
0.00125465
0.00121915
0.00118254
0.00116679
0.001152
0.00113412
0.00105557
0.00120896
0.00115578
0.0139969
0.00340185
0.00165687
0.0016978
0.00164066
0.0015788
0.0015214
0.00145922
0.00141212
0.00135884
0.00131382
0.00125456
0.00121749
0.00116746
0.00113806
0.00111609
0.00110603
0.00104931
0.00118085
0.00115481
0.0116493
0.0028369
0.00173829
0.00169139
0.00158655
0.00153813
0.00151145
0.00144557
0.0013911
0.00133359
0.00130446
0.00125582
0.00121948
0.00116876
0.00112153
0.00108688
0.00105495
0.00100219
0.00110453
0.00107738
0.00925693
0.00237466
0.00166919
0.00161589
0.00160345
0.00150927
0.00147332
0.00144944
0.00140875
0.00132921
0.00128648
0.00123443
0.00119781
0.00116469
0.00111659
0.00108408
0.00104965
0.000988707
0.0010708
0.00103627
0.00754701
0.00202962
0.00169849
0.00163115
0.00157672
0.00149969
0.00143479
0.00137612
0.00139532
0.00134871
0.00130828
0.00126631
0.00121257
0.00118533
0.00114592
0.00110395
0.0010682
0.000995649
0.00105633
0.0010024
0.00607964
0.00185547
0.00168456
0.00157802
0.00157228
0.0015116
0.00148566
0.00136582
0.00133724
0.00131751
0.00127337
0.00125511
0.00120797
0.00116991
0.00114593
0.001111
0.00108465
0.00102081
0.00107139
0.00101368
0.00507093
0.00170379
0.00165757
0.00157623
0.00153299
0.0014018
0.00144525
0.00139735
0.00132078
0.00130569
0.00126105
0.00123147
0.00120963
0.00116233
0.00113795
0.00111034
0.00108999
0.00103405
0.00108248
0.0010216
0.00453566
0.00171552
0.00170971
0.00161823
0.00166656
0.00149732
0.00139919
0.00137823
0.00129555
0.00123452
0.00120726
0.00115884
0.00115263
0.00111939
0.00109456
0.0010621
0.00104572
0.00099134
0.00103495
0.0010045
0.00433545
0.00165173
0.00161131
0.00140781
0.00152039
0.00156736
0.00147961
0.00143717
0.00140585
0.00132854
0.00127729
0.00120934
0.00117111
0.00112952
0.00110058
0.00106583
0.0010385
0.000989907
0.00100737
0.000980073
0.00403411
0.00167135
0.00165332
0.0014821
0.00129858
0.00136286
0.00135647
0.00132311
0.00132306
0.00129391
0.00126774
0.00121757
0.00117204
0.00113564
0.00110011
0.00107161
0.0010424
0.000991268
0.00101269
0.000972597
0.00407602
0.00156039
0.00155151
0.0016919
0.00155242
0.00141668
0.00138662
0.00131373
0.00128936
0.00124582
0.0012379
0.0012073
0.00117474
0.00113664
0.00109729
0.00105938
0.00102629
0.000962933
0.000975221
0.000936243
0.00264753
0.00178384
0.00147109
0.00153106
0.00150943
0.00145504
0.00140979
0.00134245
0.0013099
0.00124892
0.00121645
0.00117285
0.00115357
0.00110747
0.00109321
0.00105936
0.00104324
0.000988688
0.00101014
0.000968982
0.00271456
0.0117359
0.0142001
0.00888589
0.00241897
0.000106593
0.000354063
0.000612652
0.000701734
0.000626571
0.000563836
0.000542312
0.000607642
0.000668046
0.000583597
0.000584612
0.000627813
0.000710428
0.000807967
0.000738843
0.00261582
0.0130501
0.0133742
0.00701779
0.000846365
0.000307887
0.000582659
0.000684133
0.000640038
0.000612223
0.000632989
0.000679584
0.00062183
0.000589255
0.000616756
0.000668059
0.000673591
0.000779123
0.000832735
0.000737788
0.0059102
0.0140372
0.0123419
0.00427517
0.00019706
0.000388349
0.000681091
0.00076347
0.000726619
0.000724629
0.00068627
0.000613512
0.000647197
0.000716738
0.000659681
0.00068184
0.000713234
0.000795198
0.000811372
0.000732958
0.00860551
0.0146637
0.0111144
0.00213234
0.000380074
0.000638455
0.000823631
0.000829141
0.000759947
0.000708612
0.000694437
0.000754002
0.000728973
0.000685404
0.00068206
0.000719228
0.000729706
0.000860381
0.000871871
0.000765862
0.0111857
0.0149138
0.00994685
0.000874685
0.000420218
0.000839186
0.000912087
0.000840275
0.000833442
0.000822585
0.000808514
0.00073079
0.000727495
0.000763309
0.00072293
0.000778179
0.000804512
0.000881235
0.000826295
0.000745304
0.0135513
0.0149966
0.00844596
0.000393189
0.000654475
0.000983534
0.000994724
0.000945057
0.00090082
0.000838624
0.00079466
0.000827873
0.000819277
0.000790418
0.000772557
0.000781292
0.000782112
0.000921073
0.000889093
0.000796704
0.0165249
0.0147291
0.00627093
0.000344427
0.000866819
0.0010858
0.00105126
0.000978944
0.000944515
0.000918201
0.000910667
0.000846703
0.000822491
0.000815562
0.000780702
0.000850092
0.000868156
0.000954394
0.000861114
0.000786723
0.0179187
0.0147169
0.00429957
0.000136361
0.00107084
0.00115887
0.00107914
0.00105461
0.00101056
0.000948995
0.000898918
0.00089949
0.000891661
0.000881269
0.00085692
0.000841902
0.000829049
0.00097259
0.000892359
0.000821209
0.0192864
0.0141721
0.00315509
0.000323059
0.00114174
0.00121419
0.00115018
0.00108189
0.00104296
0.00100021
0.000989845
0.000942152
0.000908887
0.000869192
0.000838448
0.000896812
0.00089522
0.00100386
0.000889948
0.000830659
0.0199123
0.014013
0.00209316
0.000527394
0.00124774
0.00125042
0.00118619
0.00114163
0.00110264
0.00103961
0.000993508
0.000969005
0.000952002
0.000952193
0.000924433
0.000895538
0.000867845
0.00101344
0.00089632
0.000844522
0.0205579
0.0134639
0.00163018
0.000693154
0.00133731
0.00129827
0.00125586
0.00117456
0.00113432
0.00108158
0.00106102
0.00102976
0.000988543
0.000926446
0.000900665
0.000934249
0.000902442
0.00102623
0.000896993
0.000865924
0.0213232
0.013139
0.00124432
0.000962645
0.00139508
0.00132298
0.00127758
0.00121944
0.00117836
0.00111338
0.00106801
0.00102692
0.00100551
0.00100499
0.000967476
0.000938926
0.00090337
0.00103157
0.00087738
0.00085304
0.0216392
0.0126294
0.0016493
0.00105802
0.00143558
0.0013629
0.00133031
0.00124757
0.00121239
0.00115782
0.00112867
0.0011091
0.00105821
0.000993863
0.000972834
0.000970005
0.000916521
0.00104131
0.000894525
0.00090003
0.0220389
0.0122127
0.00178852
0.00121534
0.00148595
0.00138379
0.00135756
0.00128569
0.0012412
0.00117968
0.00112893
0.00108319
0.00106056
0.00104839
0.00101006
0.000990435
0.000946409
0.00103822
0.000859472
0.000899056
0.02218
0.0117433
0.00231085
0.00129739
0.00152235
0.00141701
0.00138685
0.00131009
0.00127087
0.00122049
0.0011854
0.00116843
0.0011126
0.00105863
0.00103317
0.000997687
0.000942596
0.00103547
0.0008407
0.000913857
0.0222776
0.0114448
0.00273309
0.00133798
0.00155753
0.00143458
0.00141828
0.00134725
0.00129976
0.00124481
0.0011876
0.00114702
0.00111815
0.00109196
0.00106432
0.00104396
0.00099811
0.00104287
0.000819589
0.000925671
0.0222641
0.0110903
0.00254017
0.00143097
0.00157646
0.00147752
0.00142963
0.00136313
0.0013124
0.00127165
0.00123083
0.00121136
0.00116413
0.00111887
0.00108503
0.0010389
0.00101243
0.00105305
0.000784695
0.000939278
0.0220874
0.0106782
0.00236277
0.001434
0.00158258
0.00148291
0.00146899
0.00140382
0.00135336
0.00130336
0.00124822
0.00121192
0.00117548
0.00115137
0.00112385
0.00109735
0.00107862
0.00108239
0.00078846
0.00096839
0.0219
0.00991166
0.00248336
0.00153449
0.00161205
0.0015243
0.00146133
0.00141022
0.00134455
0.00131418
0.00126606
0.00125101
0.00121198
0.00118139
0.00114517
0.00110295
0.00111412
0.00112955
0.000797575
0.000968513
0.021538
0.0088397
0.00223456
0.00151958
0.00159012
0.00152879
0.00150131
0.00144985
0.00139406
0.00134895
0.00130057
0.00126555
0.00123407
0.0012171
0.00120113
0.00119452
0.00120633
0.00120666
0.000999531
0.00109753
0.00491705
0.00408286
0.00287471
0.00260367
0.00240761
0.00187453
0.00170082
0.00136186
0.00121104
0.00096949
0.00081007
0.000687085
0.000559963
0.00046823
0.000459652
0.000929426
0.00297991
0.00679105
0.0105353
0.01474
0.00535183
0.00391665
0.00310227
0.0026304
0.00244817
0.00191463
0.00174351
0.00138782
0.00122389
0.000977697
0.000813369
0.000688457
0.000561495
0.000478403
0.00045993
0.000917685
0.00297442
0.00678108
0.0105246
0.0147679
0.00533916
0.00410791
0.00324632
0.00261044
0.00241382
0.00185283
0.0016973
0.00135087
0.00120192
0.000966112
0.000805486
0.00068752
0.000558166
0.000474545
0.000353389
0.000896156
0.00290712
0.00678958
0.0105572
0.0147847
0.00557246
0.00396961
0.00314575
0.00259688
0.00244533
0.00189081
0.00173655
0.00138077
0.00121577
0.000978523
0.000811193
0.000693287
0.000561132
0.000486004
0.000438722
0.000862429
0.00278288
0.00678258
0.0105438
0.0148189
0.00556625
0.00414216
0.00334809
0.00261507
0.0024228
0.00184162
0.00168905
0.00134884
0.00119226
0.000968419
0.000803142
0.000690124
0.000555053
0.000477925
0.00033768
0.00080829
0.00282518
0.00676593
0.0105285
0.0148783
0.0058453
0.00403134
0.00320744
0.00256058
0.00243724
0.00188317
0.00172268
0.00138245
0.00120699
0.000985066
0.000811635
0.000699867
0.000559703
0.000491293
0.000409195
0.00083789
0.00280887
0.00673944
0.0104867
0.0149319
0.0058136
0.00419369
0.00346912
0.0026202
0.00241714
0.00184434
0.00167638
0.00135449
0.00118373
0.000976353
0.000805097
0.000698586
0.000555885
0.000477584
0.000403593
0.000797764
0.0026584
0.00672941
0.010498
0.0149214
0.00610156
0.00405359
0.00326118
0.00255345
0.00242396
0.0018876
0.00170578
0.00138954
0.00119957
0.000995705
0.000816424
0.000712411
0.000567972
0.000492001
0.000421917
0.000783402
0.00261299
0.00669686
0.0104996
0.0148273
0.00609217
0.0042821
0.00353429
0.00260492
0.00240038
0.00185402
0.00166101
0.00136457
0.0011778
0.000987951
0.000811157
0.000712845
0.000568202
0.000487037
0.000403581
0.000733835
0.00252485
0.00666361
0.0104924
0.0148092
0.00626841
0.0041051
0.00335221
0.00256541
0.00240295
0.00189934
0.00168652
0.00139917
0.00119418
0.00100846
0.00082422
0.000728737
0.000583755
0.00051037
0.000432362
0.000721427
0.00240893
0.00659633
0.0104968
0.0147976
0.00632538
0.00432554
0.00355832
0.00259663
0.00237331
0.00186878
0.00164333
0.00137733
0.00117457
0.00100093
0.000819308
0.000727319
0.000581298
0.000498163
0.000413287
0.00067024
0.00229635
0.00655565
0.0105027
0.0147959
0.0063461
0.0041587
0.00344003
0.00259749
0.00237481
0.00191664
0.0016654
0.00140995
0.00119146
0.00102157
0.000833749
0.000744541
0.000600717
0.00052575
0.000427826
0.000649852
0.0021669
0.00648845
0.0105218
0.0147992
0.0064736
0.00424996
0.00353143
0.00261132
0.00234156
0.00188537
0.00162503
0.00139045
0.00117421
0.00101423
0.000828895
0.000741937
0.000597917
0.000521612
0.000418154
0.000597619
0.00203332
0.0064478
0.010534
0.0148103
0.00647197
0.00414442
0.00345554
0.00259168
0.0023488
0.00193314
0.00164349
0.0014201
0.00119075
0.00103421
0.0008448
0.000760375
0.000618448
0.000549627
0.000441118
0.000581655
0.00189713
0.00638512
0.0105561
0.0148273
0.00661083
0.00422487
0.00351175
0.00256324
0.00229377
0.00190505
0.00160656
0.0014032
0.00117638
0.00102693
0.000840436
0.000757195
0.00061833
0.000546885
0.000433714
0.000542793
0.00176277
0.00632792
0.0105842
0.0148513
0.00653193
0.00410138
0.00345903
0.00258726
0.0022893
0.00194959
0.00162233
0.00142875
0.00119281
0.00104647
0.000857935
0.000777269
0.000640756
0.000576571
0.000463116
0.000538175
0.00160228
0.00627036
0.0106176
0.0148824
0.00673801
0.00409842
0.00341868
0.00257291
0.00222821
0.00192243
0.00159035
0.00141274
0.0011803
0.00103826
0.000854238
0.000774198
0.000644422
0.000574429
0.000461419
0.000530863
0.00145365
0.0061046
0.0106333
0.0149198
0.00661755
0.00398091
0.00336099
0.00260985
0.00223557
0.00196414
0.00161016
0.00143789
0.00119864
0.00105896
0.000872799
0.000794153
0.000665571
0.00060499
0.000494772
0.000551949
0.0013023
0.00621256
0.0106561
0.0149625
0.00675322
0.00398141
0.00323061
0.00257569
0.0021576
0.00193307
0.00158589
0.00142637
0.00119059
0.00105327
0.00087162
0.000793131
0.000671184
0.000604405
0.000495955
0.000574653
0.00115882
0.00618017
0.0108105
0.0150503
0.00696737
0.00390923
0.0031235
0.00259877
0.00215408
0.00194892
0.00159172
0.00143508
0.00119907
0.00106116
0.000882498
0.000802227
0.000686109
0.000632179
0.000533996
0.000588014
0.00100361
0.00573357
0.0105932
0.0148847
0.015178
0.0389712
0.0284463
0.029325
0.0235838
0.0213213
0.0172093
0.0156377
0.0129542
0.0114234
0.00950486
0.00843787
0.00721667
0.00655498
0.00576931
0.00591566
0.000847658
0.0557835
0.100947
0.137229
0.0339708
0.0236931
0.0223448
0.0201285
0.0163368
0.0138112
0.0122375
0.0107434
0.00902913
0.00799659
0.00714055
0.0066227
0.00602543
0.0057157
0.0051873
0.00496909
0.01422
0.0559895
0.0990051
0.135665
0.0133805
0.016526
0.015037
0.0120789
0.0117645
0.010376
0.00952614
0.00875481
0.00812846
0.00756535
0.00719361
0.00686902
0.00649328
0.00604181
0.005939
0.00543252
0.0112496
0.0543817
0.096488
0.136054
0.0113153
0.00954982
0.00962185
0.010086
0.00885076
0.00831896
0.00768635
0.00730127
0.00685459
0.00651319
0.00598175
0.0055068
0.00516553
0.0048246
0.0045222
0.00397799
0.0110514
0.053128
0.0964392
0.133223
0.0041641
0.00768371
0.00788304
0.0064853
0.00661456
0.00614674
0.00598633
0.00566952
0.00547504
0.00518072
0.00502803
0.00480282
0.00465898
0.00462268
0.00457051
0.00391112
0.00837166
0.0486092
0.0964965
0.132923
0.00509279
0.0051236
0.00485049
0.00489409
0.0045945
0.00503452
0.00488336
0.00493565
0.00470844
0.00469514
0.00445368
0.00439824
0.00413219
0.00389586
0.00365814
0.00323839
0.00829249
0.0425725
0.0971532
0.130831
0.00276968
0.00383476
0.00417574
0.00420719
0.00416295
0.00390219
0.00397982
0.00392214
0.00393974
0.003895
0.00388845
0.00386996
0.00378186
0.00367976
0.00350184
0.00282087
0.00588094
0.0369171
0.0976137
0.132204
0.00282292
0.00288459
0.0026753
0.00268071
0.00297203
0.00333572
0.00330557
0.0035236
0.00350867
0.00370639
0.00357755
0.00371091
0.00361701
0.00359867
0.00351498
0.00284867
0.00561631
0.0305413
0.0977783
0.133793
0.00197142
0.00226202
0.00264667
0.00289311
0.00287915
0.0029098
0.00295378
0.00308324
0.00313759
0.00324737
0.00330599
0.00338909
0.00343476
0.00349559
0.00334607
0.00270598
0.00358592
0.0247078
0.0975876
0.137843
0.00172848
0.00173166
0.00158726
0.00185591
0.00213169
0.00249115
0.0025909
0.00277796
0.00288624
0.00307939
0.00313111
0.00334995
0.00336729
0.00369104
0.00370916
0.00346362
0.00355399
0.019343
0.0956718
0.143715
0.00142474
0.00168048
0.00194477
0.00217463
0.0022007
0.00221043
0.0023808
0.00263708
0.00271095
0.00299031
0.00305281
0.00333552
0.00339553
0.00369756
0.00385085
0.00366913
0.00290373
0.0130544
0.0922698
0.152579
0.00121667
0.00131231
0.00128832
0.00150621
0.00170411
0.00204076
0.0020629
0.00232031
0.002452
0.00272477
0.00291214
0.00325984
0.00343976
0.00382025
0.00403678
0.00485876
0.00308745
0.00900687
0.0783291
0.163922
0.00113499
0.0013076
0.00141203
0.00162964
0.00167929
0.001742
0.00190702
0.00207183
0.00225338
0.00247298
0.00265823
0.00300972
0.00326454
0.00387342
0.0040998
0.00503505
0.00487273
0.00500154
0.061799
0.179282
0.000941754
0.0010164
0.00105332
0.00111491
0.00132289
0.00150847
0.00155827
0.00174018
0.00187129
0.00209784
0.00230682
0.00254741
0.00295282
0.00333443
0.0041125
0.00425051
0.0055397
0.00928661
0.0375796
0.171539
0.000873662
0.000958075
0.0010208
0.00110831
0.00107952
0.00116876
0.00120697
0.00136751
0.00143662
0.00168113
0.00173587
0.0020942
0.00214469
0.00263357
0.00276598
0.00360828
0.00417934
0.0067848
0.0165613
0.114842
0.000602878
0.000614201
0.000636285
0.000712215
0.000776659
0.000910858
0.00100572
0.00115474
0.00120258
0.00137747
0.00142573
0.00165189
0.00168888
0.00201439
0.00212702
0.00274086
0.00268303
0.00361185
0.00422858
0.0601906
0.000472513
0.00051098
0.000520202
0.000565639
0.000575463
0.000649951
0.00065205
0.000736087
0.000745124
0.000831821
0.000863167
0.000966434
0.0010541
0.00117983
0.00137864
0.00153384
0.00184136
0.00227795
0.0038203
0.0272386
0.000243178
0.000294787
0.000342439
0.000402998
0.00048099
0.000505487
0.00054461
0.000584775
0.000626735
0.000691736
0.000736084
0.000814343
0.000837771
0.00092251
0.000831981
0.0008724
0.000863347
0.00104095
0.000705396
0.0146866
0.000167936
0.000190633
0.000203837
0.000231783
0.000231193
0.000267384
0.000296096
0.000344083
0.000379425
0.000433834
0.000473645
0.000535815
0.000572797
0.000586506
0.00074199
0.000845297
0.00103143
0.000616874
0.000879885
0.00159567
0.000134231
0.000149197
0.000194852
0.000216555
0.000247571
0.000279234
0.000325159
0.000349674
0.000401671
0.000416377
0.000473218
0.000474647
0.000523162
0.000586231
0.000561167
0.000531927
0.000531788
0.000405836
0.000446606
0.000713781
0.0139956
0.0139791
0.0141227
0.0139959
0.0141433
0.0141746
0.0141344
0.0137201
0.0148217
0.015769
0.0150158
0.0121826
0.0117031
0.00969584
0.0120265
0.0111403
0.0114319
0.0108413
0.0108687
0.0104753
0.00687765
0.00686114
0.0068947
0.00681162
0.00684208
0.00683665
0.00662953
0.00686433
0.00748334
0.00807492
0.0081793
0.00655703
0.0058462
0.00681659
0.00720576
0.00590869
0.00742465
0.00720225
0.006736
0.00754452
0.00405648
0.00411869
0.00415238
0.00424721
0.0043147
0.00449554
0.00452369
0.00456303
0.00416831
0.00412421
0.0039368
0.0041078
0.00499555
0.00580244
0.00438224
0.00421498
0.00280779
0.00317526
0.0027766
0.00288145
0.00259347
0.00263313
0.00261341
0.00267451
0.0026358
0.00263737
0.00250288
0.00235865
0.00236437
0.00245373
0.00259086
0.00258959
0.00250471
0.00305789
0.0032682
0.00329988
0.00288237
0.00300879
0.00247242
0.00261471
0.00161367
0.00164324
0.00164495
0.00169378
0.00166989
0.00165981
0.00162001
0.00174617
0.00187718
0.00185557
0.00172567
0.00176503
0.00196407
0.00193755
0.00209951
0.00236313
0.00183399
0.00140792
0.000905541
0.000892301
0.00114194
0.00116158
0.00115717
0.0011749
0.00113349
0.00113376
0.00112038
0.0011775
0.00114837
0.00115951
0.00106976
0.000996902
0.000976553
0.00117468
0.00124334
0.00143508
0.00144197
0.00158134
0.00147731
0.00129398
0.000695443
0.000704706
0.000705273
0.000701638
0.00068334
0.000695626
0.000695886
0.000743715
0.000746403
0.000817111
0.000932904
0.00106642
0.00101939
0.000851703
0.000782811
0.000861023
0.000767752
0.000674617
0.00051577
0.000305015
0.000513901
0.000516623
0.000517548
0.000512397
0.000508968
0.000514061
0.000512464
0.000530049
0.000534806
0.000551176
0.000548781
0.000518387
0.000426681
0.000441416
0.000492759
0.000578699
0.000792302
0.000840853
0.000642306
0.000642547
0.000294729
0.000295913
0.000296846
0.000296419
0.00030466
0.000318249
0.000338163
0.000360075
0.000384678
0.000402701
0.000398805
0.000422915
0.000516145
0.000561464
0.000350789
0.000207367
0.000238645
0.000192599
0.000295332
0.000144896
0.000195866
0.000194412
0.000194861
0.000194256
0.000194882
0.000191054
0.000192046
0.000201174
0.000240731
0.000227142
0.000202887
0.00027308
0.000243269
0.000241205
0.000287528
0.000404741
0.000460832
0.000442964
0.000370625
0.000401109
0.000138964
0.000140171
0.000148461
0.000160714
0.000170408
0.000176057
0.0001762
0.000164157
0.000154382
0.000179938
0.000213062
0.000227841
0.000232422
0.000238454
0.00022846
0.000233567
0.00023517
0.000258613
0.000283855
0.000284573
0.000134696
0.000145881
0.000155906
0.000166044
0.00017092
0.000168602
0.000172721
0.000192108
0.000233031
0.000241783
0.000231256
0.000222774
0.00019881
0.000209011
0.000230816
0.000246159
0.000238472
0.000236186
0.000218271
0.000268262
0.000136199
0.000148074
0.000156782
0.000162685
0.000169292
0.000179442
0.00018384
0.000176806
0.000166219
0.000167246
0.00016617
0.00016552
0.000179802
0.000198805
0.000204379
0.00020942
0.000218558
0.000228741
0.000223714
0.00024279
0.000143365
0.000146335
0.000150889
0.00015665
0.000161074
0.0001674
0.000178071
0.000192565
0.000198019
0.000198292
0.000200466
0.000207642
0.000201199
0.000195687
0.000188322
0.000188735
0.000190475
0.000201113
0.000195427
0.0002116
0.000120874
0.000118457
0.000116578
0.0001194
0.00012299
0.000124855
0.000128544
0.00013332
0.000141294
0.000152428
0.000160306
0.000163896
0.000165259
0.000176229
0.000184373
0.000188828
0.000179725
0.000182667
0.000191391
0.000203679
0.000119485
0.000123986
0.000126074
0.000123114
0.000120461
0.000117658
0.000108813
0.000101274
0.00010161
0.000102763
0.000102587
0.000109704
0.000117431
0.00011909
0.000116725
0.000120821
0.000126596
0.00013132
0.000126598
0.000137148
8.4053e-05
8.61777e-05
8.84016e-05
9.15996e-05
9.34991e-05
9.71547e-05
0.000102565
0.000102027
9.41827e-05
8.96806e-05
9.02343e-05
9.1509e-05
9.08662e-05
9.14147e-05
9.23503e-05
9.24451e-05
8.89948e-05
9.35347e-05
8.82339e-05
9.46447e-05
6.47964e-05
6.49703e-05
6.4187e-05
6.39209e-05
6.33504e-05
6.20262e-05
6.20966e-05
6.43441e-05
6.98855e-05
7.03902e-05
6.71314e-05
6.08348e-05
5.74268e-05
5.71355e-05
5.60905e-05
5.71256e-05
5.29396e-05
4.91737e-05
5.19398e-05
5.67514e-05
4.21345e-05
4.06177e-05
4.09391e-05
3.97727e-05
3.92295e-05
3.76519e-05
3.51369e-05
3.29473e-05
3.10786e-05
3.07842e-05
2.59135e-05
2.0933e-05
2.15947e-05
2.28932e-05
2.64296e-05
2.92812e-05
3.77843e-05
4.02291e-05
3.65125e-05
4.22683e-05
5.88864e-06
4.91536e-06
4.2331e-06
3.13647e-06
3.1916e-06
3.65086e-06
5.86031e-06
7.17713e-06
1.28878e-05
1.28981e-05
1.47111e-05
5.06337e-06
6.47367e-06
3.6074e-06
7.54882e-06
1.07732e-05
1.52636e-05
1.94026e-05
2.09201e-05
2.30744e-05
0.00100346
0.00122177
0.000940977
0.00103105
0.00105114
0.00106783
0.00110923
0.0011304
0.00116474
0.00120485
0.00125559
0.00129575
0.00136418
0.00139778
0.00147146
0.00147206
0.00153671
0.00148902
0.00529568
0.0193199
0.000986016
0.00110142
0.000862337
0.000974018
0.00102549
0.00106128
0.00107871
0.00112821
0.0011942
0.00119956
0.00125507
0.00129108
0.00136335
0.001382
0.00145196
0.00145826
0.0015607
0.00128735
0.00438901
0.018875
0.000975043
0.00113074
0.000896126
0.000983505
0.00103165
0.00105975
0.0010928
0.00113873
0.00116041
0.00120211
0.00126418
0.00130147
0.00136464
0.00138773
0.00145988
0.00145996
0.00156236
0.00131573
0.00400751
0.0183308
0.00102698
0.00115661
0.000897905
0.00099887
0.00103917
0.00105637
0.00108691
0.00113099
0.00117906
0.00121394
0.00126332
0.00130902
0.0013695
0.00138899
0.00146065
0.0014817
0.00160246
0.0014303
0.00514115
0.0176389
0.0010486
0.00116677
0.000920971
0.0010204
0.00103046
0.00106208
0.00110135
0.00114767
0.00117777
0.00122268
0.00128041
0.00130757
0.00136043
0.00139134
0.0014787
0.00150563
0.00163422
0.00149469
0.00505564
0.0170519
0.0010825
0.0011652
0.000930209
0.00101754
0.00104936
0.00108648
0.00111513
0.00115434
0.00118355
0.00123504
0.00125453
0.00130261
0.0013634
0.0014021
0.00148894
0.00152138
0.00165435
0.00154521
0.00487494
0.0162028
0.00105053
0.00111813
0.000911589
0.00102403
0.00104293
0.00106354
0.00110022
0.00113379
0.00119667
0.00122726
0.00125507
0.00131417
0.00134955
0.00141243
0.00149342
0.00152922
0.0016629
0.00152288
0.00392225
0.0151232
0.0010436
0.00113654
0.000972172
0.0010486
0.00106291
0.00111182
0.00114132
0.00120384
0.00121738
0.00120616
0.001245
0.00130437
0.00135214
0.00143311
0.0014777
0.00154736
0.00160119
0.00151107
0.00294567
0.0123802
0.00109533
0.00113351
0.000951649
0.00101926
0.00105417
0.00108806
0.00111379
0.00112834
0.00110287
0.00115178
0.00122446
0.00129471
0.0013381
0.00139913
0.00144477
0.00148307
0.00149733
0.001548
0.00241138
0.0100021
0.00101008
0.00101368
0.000910675
0.00100214
0.00104755
0.00105821
0.00106139
0.00106772
0.00110086
0.00119911
0.00126864
0.00131063
0.00132026
0.00140632
0.0014202
0.00145745
0.00152139
0.00158051
0.00209337
0.00815858
0.00100054
0.00102556
0.000961913
0.00101945
0.00101359
0.00100206
0.00102639
0.00107182
0.00115586
0.00122567
0.00123704
0.00124686
0.00130679
0.00138805
0.00134493
0.00143987
0.00149204
0.00156526
0.00187172
0.00686512
0.000965121
0.000994007
0.000920689
0.000945764
0.000961654
0.000998669
0.00106314
0.00113575
0.00118864
0.00120338
0.00121885
0.0012885
0.00135968
0.00134715
0.00132957
0.00145738
0.00150187
0.00162226
0.00180473
0.00584254
0.000960204
0.000997108
0.000929121
0.00097935
0.00103111
0.00107352
0.00113131
0.00115623
0.00116502
0.00118113
0.00123163
0.00127071
0.00127893
0.00126691
0.00136676
0.00155446
0.00149741
0.00158888
0.00168887
0.00508312
0.000971661
0.00100508
0.000940465
0.00100469
0.00103299
0.0010598
0.00109249
0.00110295
0.00113491
0.00118517
0.00123842
0.00128782
0.00131883
0.00140693
0.00158487
0.00160818
0.0015394
0.00153924
0.00154529
0.0044379
0.000953298
0.000982812
0.000942391
0.0010111
0.00103424
0.00107771
0.00110176
0.00113422
0.00118966
0.00123231
0.00127709
0.00130146
0.00135992
0.00142459
0.00144454
0.00136182
0.0013671
0.00161008
0.00163733
0.00428828
0.000945516
0.000992466
0.000967029
0.00101687
0.00103745
0.00106379
0.00108097
0.00112356
0.00115902
0.00118923
0.00123354
0.00124986
0.00130297
0.00132899
0.00133988
0.00136534
0.00157417
0.00174933
0.00177012
0.00420069
0.000944423
0.000999413
0.0009501
0.00101144
0.0010406
0.00106721
0.0011145
0.00115572
0.00119468
0.00123007
0.00125669
0.00128242
0.00130637
0.00132963
0.00138479
0.00145513
0.00156781
0.00151509
0.00160442
0.00382886
0.000922915
0.000969014
0.000940631
0.000998066
0.00102386
0.00105115
0.00108346
0.00110531
0.00114048
0.00116715
0.00121986
0.0012756
0.00135276
0.00143973
0.001481
0.00154079
0.00158162
0.00158013
0.00172922
0.00284718
0.000931962
0.000990132
0.00096212
0.00103491
0.00105769
0.00110086
0.00112889
0.00117363
0.00119475
0.00124507
0.00126305
0.00132778
0.00135
0.00142356
0.00145577
0.00151893
0.00158039
0.00156917
0.00150316
0.00157212
0.00093495
0.000968166
0.000945943
0.00100563
0.0010264
0.00106233
0.00109879
0.00115056
0.00118156
0.00125249
0.00128246
0.00134941
0.00136921
0.00141657
0.00143641
0.00155252
0.00148531
0.00175515
0.0017127
0.0015353
0.000740471
0.000805091
0.000722497
0.000645232
0.000627089
0.000595401
0.000591035
0.00057695
0.000626754
0.000595245
0.00063376
0.000682756
0.000643178
0.000566405
0.000183834
0.000861227
0.00628191
0.0117631
0.0112668
0.00500317
0.00072793
0.000827497
0.00078194
0.000655398
0.000657675
0.000663282
0.000670049
0.000631913
0.0006265
0.000679219
0.00065297
0.000668662
0.000814516
0.000728002
0.000397617
0.00018691
0.00421197
0.0107991
0.0122092
0.00690664
0.000750837
0.000837182
0.00082845
0.000721634
0.000661376
0.00063796
0.000671173
0.000661595
0.000683692
0.000669537
0.000714724
0.000728029
0.000749401
0.000799302
0.000595675
0.000314941
0.00197363
0.0100001
0.0129774
0.00893255
0.000741629
0.000859718
0.000874531
0.000743294
0.000734329
0.000704614
0.00070971
0.000675282
0.000686819
0.000740216
0.00072743
0.00076396
0.000853653
0.000911332
0.00079817
0.000513547
0.000868628
0.00894179
0.0131769
0.0114357
0.000749526
0.000853005
0.000914486
0.000797096
0.000731592
0.000711802
0.000757893
0.000742362
0.000741192
0.000751349
0.00079543
0.000813386
0.000816697
0.000931919
0.00089969
0.000532787
0.000337121
0.00769096
0.0133969
0.0134841
0.000768819
0.000878213
0.000931431
0.000806723
0.000790064
0.000739498
0.000755997
0.000742802
0.000763505
0.000801665
0.000811901
0.000851385
0.000917514
0.00100729
0.000999388
0.000760027
0.000447467
0.00563872
0.0133215
0.0159249
0.00076397
0.000881401
0.000987469
0.000863997
0.000807275
0.000783121
0.000827027
0.000805785
0.000796519
0.000836495
0.000874082
0.000905829
0.000919958
0.000997337
0.00104515
0.000896743
0.000349463
0.00377019
0.0131415
0.0166986
0.000790261
0.00088247
0.000976853
0.000852023
0.000836455
0.000788898
0.000817179
0.000821091
0.000839634
0.000860897
0.000891353
0.000930005
0.000982214
0.00107802
0.00111582
0.00105881
0.000219448
0.00257827
0.0129154
0.0177366
0.000775112
0.000911861
0.00104704
0.000893269
0.000854361
0.000833936
0.000878009
0.000859583
0.000856624
0.000913079
0.000944248
0.000995938
0.00100997
0.00108107
0.00113025
0.00109336
0.000425192
0.00170557
0.0125331
0.018404
0.000799999
0.000882583
0.0010101
0.000889979
0.000885217
0.000849149
0.000884329
0.000893608
0.000904276
0.000921533
0.000975382
0.00101014
0.00104425
0.0011685
0.00118498
0.00122767
0.000681228
0.00125968
0.0122601
0.0191717
0.000816029
0.000936809
0.00108671
0.00090615
0.000879873
0.000875362
0.000924038
0.000907446
0.000914107
0.000975857
0.00100284
0.00105975
0.0010822
0.00115295
0.00118607
0.00122371
0.000877155
0.00110647
0.0118143
0.0197594
0.000793591
0.000844599
0.00100461
0.000889614
0.000901604
0.000886536
0.000926336
0.000940819
0.000954078
0.000979211
0.00105294
0.00108077
0.00110113