/*--------------------------------*- C++ -*----------------------------------*\
  =========                 |
  \\      /  F ield         | OpenFOAM: The Open Source CFD Toolbox
   \\    /   O peration     | Website:  https://openfoam.org
    \\  /    A nd           | Version:  9
     \\/     M anipulation  |
\*---------------------------------------------------------------------------*/
FoamFile
{
    format      ascii;
    class       volVectorField;
    location    "5.1";
    object      U;
}
// * * * * * * * * * * * * * * * * * * * * * * * * * * * * * * * * * * * * * //

dimensions      [0 1 -1 0 0 0 0];

internalField   nonuniform List<vector> 
46400
(
(9.07124 -8.92062 -3.62922e-19)
(18.7796 -17.9485 3.6468e-19)
(20.4471 -20.5303 -5.24743e-20)
(19.7231 -20.5401 -6.78892e-22)
(19.0543 -20.5353 -4.06359e-20)
(18.3604 -20.5691 -2.56318e-19)
(17.7729 -20.5653 1.19688e-19)
(17.1724 -20.6064 -7.43796e-21)
(16.6426 -20.6191 8.3577e-22)
(16.1217 -20.6532 5.06045e-21)
(15.6501 -20.7009 -1.02595e-20)
(15.1833 -20.7225 0)
(14.7344 -20.758 8.71473e-20)
(14.3039 -20.763 -1.04522e-19)
(13.8966 -20.8021 -1.9267e-19)
(13.5127 -20.8025 -5.79971e-20)
(13.1318 -20.8304 -2.73396e-20)
(12.7662 -20.8208 1.80063e-19)
(12.4467 -20.7493 2.92287e-19)
(11.9796 -20.9491 -2.6441e-19)
(9.37537 -8.4154 0)
(18.8842 -16.8351 -2.63998e-20)
(20.287 -18.9122 0)
(19.6184 -19.0779 -1.50481e-19)
(18.9839 -19.1355 1.04438e-19)
(18.3371 -19.2424 -2.34379e-20)
(17.7181 -19.2853 0)
(17.1149 -19.333 7.43767e-21)
(16.5674 -19.4183 -8.35736e-22)
(16.0394 -19.4664 -5.06029e-21)
(15.5544 -19.5588 1.80964e-19)
(15.0943 -19.6193 3.47135e-20)
(14.655 -19.6953 -1.80397e-19)
(14.2461 -19.7615 0)
(13.8431 -19.8272 2.60462e-20)
(13.4687 -19.8843 2.90449e-20)
(13.1069 -19.9467 0)
(12.7754 -19.9885 -3.4218e-19)
(12.4726 -19.9736 -9.78492e-20)
(12.0806 -20.1751 3.48839e-19)
(9.63897 -7.91791 -1.16724e-19)
(18.9183 -15.655 5.55899e-20)
(20.1929 -17.505 -8.82876e-20)
(19.3759 -17.6159 -6.9026e-21)
(18.7299 -17.7086 6.7767e-21)
(18.0436 -17.8392 0)
(17.4645 -17.945 -1.89573e-19)
(16.856 -18.0463 1.59168e-19)
(16.3286 -18.1521 -2.82074e-19)
(15.8155 -18.2727 2.81974e-19)
(15.3488 -18.3873 3.0712e-19)
(14.9 -18.5057 -1.75313e-20)
(14.4574 -18.5962 -2.76817e-19)
(14.0329 -18.6709 0)
(13.6334 -18.7612 3.90026e-19)
(13.2599 -18.8384 -3.84099e-19)
(12.8992 -18.9416 0)
(12.5732 -19.0317 -1.20834e-20)
(12.263 -19.0699 4.7265e-20)
(11.8545 -19.3292 -4.53416e-19)
(9.80688 -7.40321 5.36612e-21)
(18.8214 -14.5065 -1.28516e-20)
(19.7255 -15.9244 5.79835e-20)
(19.0261 -16.2034 -5.71947e-20)
(18.4189 -16.3641 -8.10139e-20)
(17.7903 -16.5641 1.16482e-19)
(17.1941 -16.7094 1.91153e-19)
(16.6131 -16.8399 -5.23485e-19)
(16.0669 -16.9886 4.50459e-19)
(15.5581 -17.1172 -4.15011e-20)
(15.0791 -17.2792 0)
(14.6426 -17.4206 4.7849e-20)
(14.2294 -17.5931 -5.03653e-20)
(13.8388 -17.7225 0)
(13.4437 -17.8527 4.98692e-19)
(13.0727 -17.9482 -4.21997e-19)
(12.709 -18.0597 0)
(12.3927 -18.1807 5.82102e-20)
(12.0987 -18.2441 7.02164e-20)
(11.6844 -18.5096 5.46957e-19)
(9.90542 -6.8617 0)
(18.5794 -13.2583 0)
(19.4001 -14.5929 -1.57671e-19)
(18.5776 -14.7708 1.00881e-19)
(17.9638 -14.9745 -2.46568e-19)
(17.3145 -15.1913 2.05238e-19)
(16.7595 -15.4112 0)
(16.17 -15.59 2.58817e-19)
(15.6438 -15.77 -3.10756e-19)
(15.1414 -15.952 -7.6798e-20)
(14.677 -16.1358 -7.84795e-20)
(14.2373 -16.3118 0)
(13.8111 -16.4886 5.96267e-19)
(13.4159 -16.6487 -5.86934e-19)
(13.0427 -16.8246 0)
(12.6927 -16.9792 -6.81217e-19)
(12.3279 -17.1176 6.02954e-19)
(12.0141 -17.2681 6.15082e-19)
(11.7294 -17.3813 -6.73244e-19)
(11.3417 -17.6821 0)
(9.98 -6.32971 0)
(18.1984 -11.9751 0)
(18.7471 -13.1023 0)
(18.071 -13.4666 -2.32662e-20)
(17.459 -13.709 0)
(16.85 -13.9761 0)
(16.282 -14.2049 0)
(15.7496 -14.4359 -9.08533e-20)
(15.2185 -14.6559 0)
(14.7323 -14.8485 7.67985e-20)
(14.2681 -15.08 -1.61051e-20)
(13.8464 -15.2763 -8.03371e-19)
(13.4518 -15.5207 6.01619e-19)
(13.0792 -15.7218 -8.09435e-19)
(12.6931 -15.9093 6.07838e-19)
(12.3517 -16.09 0)
(11.9961 -16.2576 -7.11052e-19)
(11.67 -16.4132 6.06808e-19)
(11.3874 -16.5359 0)
(10.9928 -16.8453 -9.69058e-20)
(10.0553 -5.79054 2.76523e-19)
(17.6881 -10.6825 8.80777e-20)
(18.1623 -11.7694 3.49153e-19)
(17.3538 -12.0294 -3.67468e-19)
(16.8039 -12.3753 -3.82389e-19)
(16.2096 -12.6964 7.6851e-19)
(15.6749 -13.0127 -8.94696e-19)
(15.1136 -13.2466 7.81759e-20)
(14.6161 -13.5271 2.89988e-19)
(14.127 -13.7475 0)
(13.6744 -13.9938 -1.54927e-20)
(13.242 -14.2085 -1.47277e-20)
(12.824 -14.4293 9.53666e-20)
(12.4783 -14.6835 8.09172e-19)
(12.1367 -14.9304 -7.14648e-19)
(11.8146 -15.1507 -9.18786e-19)
(11.4878 -15.3671 7.99638e-19)
(11.1829 -15.5552 -1.1113e-20)
(10.9091 -15.7121 -1.03848e-19)
(10.5633 -16.0307 -7.28943e-19)
(10.1672 -5.22879 -1.06729e-19)
(17.0486 -9.40933 2.50943e-20)
(17.3633 -10.3666 -1.19332e-19)
(16.7097 -10.8224 -4.78149e-19)
(16.0731 -11.1481 3.23435e-19)
(15.5115 -11.4959 0)
(15.0099 -11.8674 7.07921e-19)
(14.5334 -12.1778 -3.39433e-19)
(14.0323 -12.4731 2.35816e-19)
(13.5982 -12.7506 1.25571e-19)
(13.1559 -13.0281 -2.38059e-19)
(12.7699 -13.2885 5.75135e-19)
(12.3622 -13.5364 1.22674e-19)
(11.9875 -13.7583 -6.94423e-19)
(11.6383 -14.0178 1.94553e-18)
(11.331 -14.2632 -7.94314e-19)
(11.0144 -14.5075 1.0112e-18)
(10.7166 -14.7218 -6.60826e-19)
(10.4451 -14.9036 2.17744e-19)
(10.1066 -15.2175 1.02961e-18)
(10.3355 -4.69731 5.79443e-19)
(16.3288 -8.28318 -1.15064e-19)
(16.3975 -9.08356 -2.23612e-20)
(15.6617 -9.47548 2.66242e-19)
(15.2035 -9.98709 1.24388e-19)
(14.6621 -10.3634 1.44042e-19)
(14.1686 -10.7813 -6.71088e-19)
(13.6968 -11.1168 4.09192e-19)
(13.2394 -11.4727 -1.26109e-19)
(12.7926 -11.7472 -1.25573e-19)
(12.3761 -12.0581 -1.24806e-19)
(11.9893 -12.3146 -1.37005e-19)
(11.6209 -12.6042 -2.57872e-19)
(11.283 -12.8494 9.00254e-19)
(10.9436 -13.1117 -1.25719e-18)
(10.6524 -13.3626 -1.2931e-19)
(10.3718 -13.6425 1.02857e-20)
(10.108 -13.8834 -9.54164e-19)
(9.86647 -14.1136 7.12678e-19)
(9.57059 -14.4415 -1.10846e-18)
(10.4239 -4.26043 5.59015e-19)
(15.4107 -7.10049 -1.36637e-18)
(15.3875 -7.91005 9.08981e-19)
(14.8592 -8.39164 -1.43567e-19)
(14.2481 -8.8342 -1.62287e-19)
(13.7847 -9.2738 6.32192e-19)
(13.3465 -9.74382 -7.64005e-19)
(12.9457 -10.1448 0)
(12.5292 -10.5448 5.97814e-19)
(12.1536 -10.8965 -5.87838e-19)
(11.762 -11.2426 -4.30567e-19)
(11.412 -11.5511 5.60547e-19)
(11.042 -11.8407 1.35194e-19)
(10.706 -12.1081 -5.55864e-19)
(10.3703 -12.3624 1.31891e-19)
(10.0612 -12.6072 6.67724e-19)
(9.77241 -12.8616 -1.18369e-18)
(9.50469 -13.1118 7.8136e-19)
(9.26519 -13.3402 -8.57687e-21)
(8.98778 -13.6732 -1.06542e-18)
(10.4229 -3.85238 7.97854e-19)
(14.4295 -6.10722 -5.20285e-19)
(14.1665 -6.84694 3.52356e-19)
(13.6118 -7.33884 8.55753e-21)
(13.2046 -7.91087 -6.97413e-19)
(12.7121 -8.30951 -6.64224e-19)
(12.2885 -8.79492 8.27697e-19)
(11.9099 -9.21262 -4.90276e-19)
(11.5198 -9.63267 6.51017e-19)
(11.1479 -9.98245 0)
(10.7931 -10.352 1.18768e-20)
(10.4888 -10.6988 1.49255e-19)
(10.1794 -11.0366 1.57513e-19)
(9.90345 -11.3526 -1.54478e-19)
(9.60794 -11.641 0)
(9.33872 -11.907 1.48447e-19)
(9.07334 -12.1721 0)
(8.82474 -12.4121 2.76758e-19)
(8.60376 -12.6506 1.35411e-18)
(8.35695 -12.9576 -7.44727e-21)
(10.1887 -3.40941 4.48518e-19)
(13.2369 -5.15224 -8.89953e-20)
(12.988 -5.90357 -1.3441e-18)
(12.6098 -6.42403 7.52971e-19)
(12.1628 -6.99265 1.78986e-19)
(11.7761 -7.47067 -1.76877e-19)
(11.3684 -7.94483 -7.26661e-19)
(11.05 -8.4029 5.42117e-19)
(10.7409 -8.8826 0)
(10.4326 -9.28898 0)
(10.0817 -9.65736 -8.39052e-19)
(9.77814 -10.0112 6.64625e-19)
(9.4715 -10.3435 -1.57518e-19)
(9.20082 -10.6699 -4.81181e-19)
(8.94764 -10.9896 3.36104e-21)
(8.68044 -11.2667 1.07406e-18)
(8.44486 -11.5574 -6.00349e-19)
(8.19469 -11.8058 4.41642e-19)
(7.97958 -12.0497 -7.15319e-19)
(7.74211 -12.3547 0)
(9.73649 -2.93878 -3.95075e-19)
(12.0784 -4.33214 6.21353e-19)
(11.7173 -5.03992 1.06889e-19)
(11.3191 -5.58299 1.05287e-19)
(10.9463 -6.19048 0)
(10.5983 -6.67923 7.90511e-19)
(10.2239 -7.18963 -7.7664e-19)
(9.86203 -7.59124 9.79029e-20)
(9.54325 -8.05484 0)
(9.31147 -8.51172 7.30949e-19)
(9.0299 -8.93384 -6.27014e-19)
(8.79207 -9.33602 7.00331e-19)
(8.53154 -9.71664 -6.89196e-19)
(8.28878 -10.0583 6.70051e-19)
(8.06688 -10.4202 -5.75669e-19)
(7.84378 -10.7273 -6.4054e-19)
(7.62719 -11.0465 1.25713e-18)
(7.42179 -11.3235 -5.38489e-19)
(7.22169 -11.5856 7.66934e-20)
(7.01547 -11.8948 6.24917e-19)
(9.08112 -2.45185 -3.18027e-19)
(10.7862 -3.56904 3.35968e-19)
(10.4395 -4.3191 -1.069e-19)
(10.1438 -4.86659 -1.05294e-19)
(9.83297 -5.50142 0)
(9.53699 -6.01927 0)
(9.27873 -6.59406 0)
(9.01768 -7.07856 -2.00714e-19)
(8.6772 -7.49846 -7.85445e-19)
(8.41947 -7.93863 1.54051e-18)
(8.15394 -8.35474 -8.47504e-19)
(7.90236 -8.74331 -9.3906e-20)
(7.69084 -9.15008 0)
(7.44802 -9.48942 0)
(7.25272 -9.85889 -1.71539e-19)
(7.05228 -10.1834 0)
(6.8683 -10.5189 6.52975e-19)
(6.68514 -10.8188 -8.03219e-19)
(6.5139 -11.103 -6.99194e-19)
(6.32507 -11.4244 6.57107e-19)
(8.2446 -1.97446 3.3136e-19)
(9.47542 -2.90823 5.91982e-19)
(9.08236 -3.6257 7.37236e-22)
(8.8459 -4.19802 -1.68209e-22)
(8.51282 -4.83506 1.13533e-19)
(8.24551 -5.33509 -3.2771e-19)
(7.93382 -5.84467 0)
(7.77263 -6.39422 -3.16349e-19)
(7.5236 -6.86324 1.06964e-19)
(7.30124 -7.31137 4.02778e-19)
(7.10775 -7.76693 3.90746e-19)
(6.88366 -8.16163 -2.90515e-19)
(6.71228 -8.584 7.44745e-19)
(6.52407 -8.95784 -6.40418e-19)
(6.34129 -9.3258 7.96858e-19)
(6.16893 -9.67249 -1.47904e-18)
(6.00308 -10.0131 6.81876e-19)
(5.84823 -10.3381 8.14323e-20)
(5.70085 -10.6344 6.43069e-19)
(5.5565 -10.984 -6.79165e-19)
(7.24961 -1.5176 1.15131e-19)
(8.13887 -2.34366 -1.20529e-19)
(7.79276 -3.11942 4.85506e-19)
(7.55179 -3.70575 -4.76501e-19)
(7.38618 -4.41875 -2.32697e-19)
(7.25234 -5.04428 -5.66916e-19)
(6.94592 -5.55504 2.44086e-21)
(6.73563 -6.05545 4.36954e-19)
(6.5516 -6.56447 -1.04547e-19)
(6.3062 -6.97107 0)
(6.13093 -7.41784 0)
(5.92686 -7.79959 0)
(5.75504 -8.19585 0)
(5.59663 -8.57111 2.53542e-21)
(5.44408 -8.93496 0)
(5.29137 -9.28004 8.82287e-20)
(5.14481 -9.6103 3.47567e-19)
(5.0111 -9.93669 -1.02067e-18)
(4.87288 -10.221 7.5235e-19)
(4.75095 -10.5683 -6.90404e-19)
(6.14499 -1.11568 0)
(6.65393 -1.85159 -6.47801e-20)
(6.28228 -2.59836 0)
(6.11895 -3.15607 1.83182e-19)
(5.76259 -3.70729 -1.22435e-19)
(5.74585 -4.36456 -4.68684e-19)
(5.64877 -4.98098 2.83999e-21)
(5.47211 -5.51146 4.49705e-19)
(5.38825 -6.07417 -4.3554e-19)
(5.25225 -6.56832 8.5297e-19)
(5.11258 -7.04073 -3.6989e-21)
(4.96039 -7.4749 -4.07347e-19)
(4.80851 -7.87831 3.9337e-19)
(4.6663 -8.27209 -4.82412e-19)
(4.54045 -8.63795 0)
(4.42078 -9.00366 -3.64278e-19)
(4.29822 -9.3337 3.58827e-19)
(4.1904 -9.67195 0)
(4.07823 -9.96066 -8.40146e-20)
(3.9663 -10.2989 0)
(4.976 -0.906935 6.5941e-20)
(5.21431 -1.69239 6.48206e-20)
(5.12439 -2.39134 0)
(5.10677 -3.1097 2.49922e-19)
(4.83352 -3.61181 -3.08593e-19)
(4.56805 -4.11294 1.78972e-19)
(4.459 -4.6772 -5.27938e-19)
(4.30809 -5.17321 2.29606e-19)
(4.18439 -5.68781 -5.61445e-20)
(4.06698 -6.17071 0)
(3.98627 -6.65104 -5.33345e-20)
(3.892 -7.10113 -5.19674e-20)
(3.78459 -7.52365 -5.06372e-20)
(3.69001 -7.92613 0)
(3.581 -8.30827 -3.80518e-19)
(3.48946 -8.67377 7.92352e-19)
(3.39328 -9.02568 -6.80906e-19)
(3.3002 -9.35977 3.55988e-19)
(3.22177 -9.66926 4.33809e-20)
(3.12478 -10.0059 3.58101e-19)
(3.07883 -0.583554 -1.00844e-19)
(3.77853 -1.34642 -1.32799e-19)
(3.41912 -1.97362 3.54347e-22)
(3.54348 -2.66397 3.51078e-19)
(3.53892 -3.41593 -9.45928e-20)
(3.38125 -3.94094 -6.0962e-20)
(3.29743 -4.54866 5.9923e-20)
(3.17581 -5.03512 1.16395e-19)
(3.1133 -5.56726 5.6148e-20)
(3.01588 -6.0208 -2.1923e-19)
(2.93888 -6.50035 2.42019e-19)
(2.86801 -6.93556 5.19687e-20)
(2.80801 -7.37819 2.53259e-19)
(2.72093 -7.77393 -2.08189e-21)
(2.66351 -8.17536 2.21897e-20)
(2.58751 -8.53211 -4.23491e-19)
(2.52829 -8.89488 1.15852e-19)
(2.45714 -9.21851 0)
(2.40139 -9.52901 -2.15224e-20)
(2.33334 -9.85082 -1.80896e-19)
(1.83686 -0.319175 6.23721e-21)
(2.4301 -1.20502 -5.90434e-20)
(2.40952 -1.88426 1.32275e-19)
(2.07961 -2.45568 -3.24659e-20)
(2.11111 -3.15806 -3.18904e-20)
(2.05778 -3.70997 0)
(2.01748 -4.3397 -5.97804e-20)
(1.97278 -4.8365 1.17004e-19)
(1.90399 -5.39058 -5.7266e-20)
(1.85302 -5.84532 5.52777e-20)
(1.79624 -6.33601 -2.7429e-20)
(1.74759 -6.75183 -5.24219e-20)
(1.70911 -7.19614 1.02633e-19)
(1.67807 -7.58538 -9.99517e-20)
(1.6435 -7.9835 2.46893e-20)
(1.62022 -8.35093 1.68316e-34)
(1.59406 -8.71396 -2.2899e-20)
(1.57105 -9.05923 1.34701e-19)
(1.54558 -9.37548 -6.64541e-20)
(1.52437 -9.72393 -4.60424e-20)
(0.286261 0.0102493 6.76562e-20)
(0.9739 -6.06221 3.30522e-20)
(3.53284 -19.5924 0)
(5.56865 -30.016 3.15163e-20)
(6.38719 -34.5304 3.04491e-20)
(6.5904 -35.6431 2.92158e-20)
(6.58479 -35.7519 0)
(6.53158 -35.6064 2.53115e-20)
(6.41521 -35.2897 0)
(6.32962 -35.046 0)
(6.23835 -34.8445 -2.23057e-20)
(6.16864 -34.7063 1.34212e-21)
(6.06569 -34.5614 4.24585e-20)
(5.98697 -34.3116 0)
(5.8506 -34.1241 1.89281e-20)
(5.80434 -33.9665 1.80444e-20)
(5.65088 -33.8194 1.7223e-20)
(5.61811 -33.5652 0)
(5.43507 -33.3379 -3.12228e-20)
(5.37564 -32.9593 2.99394e-20)
(0.158154 -1.08965 1.03759e-19)
(1.64152 -9.30884 -1.67242e-19)
(4.59707 -23.2641 0)
(6.43659 -32.1243 -1.57471e-19)
(7.02115 -35.203 1.5329e-19)
(7.13956 -35.697 -2.54396e-19)
(7.11323 -35.6304 1.0737e-19)
(7.02766 -35.3296 7.654e-20)
(6.94369 -35.0931 -3.52223e-19)
(6.8747 -34.8802 1.95555e-19)
(6.78633 -34.699 -2.292e-20)
(6.69823 -34.4615 1.71394e-19)
(6.58235 -34.2318 -5.5025e-21)
(6.51111 -34.08 -1.60595e-19)
(6.38273 -33.9286 -1.89281e-20)
(6.32619 -33.7051 -1.80432e-20)
(6.15529 -33.5339 -1.72218e-20)
(6.11067 -33.2729 0)
(5.89928 -32.9987 -1.2226e-19)
(5.85312 -32.6512 3.71952e-21)
(0.160689 -2.34425 -7.24646e-20)
(2.44991 -12.5455 0)
(5.5704 -26.2228 0)
(7.34678 -33.6242 -6.63486e-20)
(7.71594 -35.55 6.20951e-20)
(7.7923 -35.6845 0)
(7.73669 -35.5199 -5.48247e-20)
(7.64058 -35.2054 1.56172e-19)
(7.54826 -34.9234 -1.55516e-19)
(7.44805 -34.6708 1.88659e-19)
(7.33983 -34.4046 -2.30998e-19)
(7.24369 -34.2185 0)
(7.14607 -34.0732 -1.61464e-19)
(7.04302 -33.8237 -1.47924e-19)
(6.90721 -33.6119 2.65281e-19)
(6.8263 -33.4206 -2.77318e-19)
(6.66212 -33.2292 2.39921e-19)
(6.60608 -32.9367 0)
(6.39667 -32.6907 -2.6912e-19)
(6.3473 -32.3474 4.55227e-19)
(0.299541 -3.42463 3.66628e-19)
(3.37343 -15.5137 0)
(6.65045 -28.6068 1.42177e-19)
(8.19152 -34.5779 1.94469e-19)
(8.44474 -35.679 -3.79087e-19)
(8.44691 -35.6081 1.14906e-19)
(8.35529 -35.2929 5.51185e-20)
(8.24922 -34.9343 5.81482e-19)
(8.1373 -34.6631 -8.11141e-19)
(8.04679 -34.3975 -8.06216e-20)
(7.93928 -34.2102 4.15265e-19)
(7.83763 -33.9764 8.53113e-20)
(7.69784 -33.7085 -3.99717e-19)
(7.59573 -33.5182 3.90367e-19)
(7.45397 -33.3371 1.09136e-19)
(7.37543 -33.1106 -6.84795e-20)
(7.1939 -32.931 9.81687e-20)
(7.12882 -32.6425 0)
(6.88295 -32.3469 -2.84486e-20)
(6.83453 -31.9954 0)
(0.606447 -4.52289 0)
(4.46704 -17.9376 5.91803e-19)
(7.79147 -30.321 -7.28441e-19)
(9.16182 -35.0842 6.74902e-19)
(9.27226 -35.6395 -5.20745e-19)
(9.23317 -35.4443 -1.1818e-19)
(9.08224 -35.0425 0)
(8.98073 -34.7425 3.13143e-19)
(8.85293 -34.4339 -4.13289e-19)
(8.72198 -34.1705 4.68814e-19)
(8.58732 -33.8667 -3.67127e-19)
(8.44584 -33.6341 -8.53104e-20)
(8.3271 -33.455 3.94775e-19)
(8.19112 -33.2083 -6.82413e-19)
(8.04259 -33.0027 4.30079e-19)
(7.92257 -32.791 -1.41231e-19)
(7.73422 -32.5567 -3.16633e-19)
(7.64141 -32.2336 7.24894e-19)
(7.39576 -31.9772 -4.11556e-19)
(7.3489 -31.6542 -4.78732e-19)
(1.10043 -5.57178 6.22931e-19)
(5.60173 -19.9129 6.06491e-19)
(9.03234 -31.6313 -6.00853e-19)
(10.0978 -35.3101 -1.39748e-19)
(10.1343 -35.4882 1.27842e-19)
(10.0013 -35.1403 4.68336e-19)
(9.8353 -34.76 -4.67804e-19)
(9.68742 -34.3859 0)
(9.51893 -34.0772 3.92604e-19)
(9.37419 -33.77 -3.86046e-19)
(9.21929 -33.5543 -3.47043e-19)
(9.0834 -33.3122 3.41404e-19)
(8.90817 -33.0423 0)
(8.76336 -32.8227 0)
(8.59139 -32.6052 6.18188e-19)
(8.47032 -32.3736 -6.05904e-19)
(8.27236 -32.1957 -4.8814e-19)
(8.1742 -31.8944 4.80856e-19)
(7.89713 -31.6061 -4.36768e-19)
(7.83951 -31.2614 5.33354e-19)
(1.84395 -6.96321 -1.35647e-19)
(6.77393 -21.2376 1.2455e-19)
(10.2785 -32.3244 2.83758e-20)
(11.1467 -35.1892 7.05354e-19)
(11.0646 -35.1763 0)
(10.8826 -34.7737 0)
(10.6628 -34.3694 8.8391e-19)
(10.4838 -34.0289 -4.24033e-20)
(10.2947 -33.7022 -8.12183e-19)
(10.1106 -33.428 7.24593e-19)
(9.929 -33.1194 -7.1266e-19)
(9.73387 -32.8662 0)
(9.5729 -32.6502 5.99506e-19)
(9.39348 -32.4105 -5.90091e-19)
(9.22416 -32.2178 0)
(9.06164 -32.0012 0)
(8.84687 -31.7524 0)
(8.70812 -31.4248 0)
(8.42514 -31.1632 0)
(8.36214 -30.8385 -5.15868e-20)
(2.40005 -7.66083 0)
(7.81588 -22.5139 -7.39905e-19)
(11.5216 -32.8181 0)
(12.1405 -34.9209 0)
(11.9654 -34.7249 1.12018e-18)
(11.7048 -34.2555 6.54902e-20)
(11.4684 -33.895 -1.02686e-18)
(11.243 -33.5239 0)
(11.0042 -33.2035 9.5435e-20)
(10.7923 -32.8904 -8.90293e-20)
(10.5779 -32.6534 0)
(10.3861 -32.4109 7.76977e-20)
(10.1682 -32.1616 -6.52154e-19)
(9.97188 -31.9345 1.18194e-18)
(9.75673 -31.6991 -2.50351e-20)
(9.58347 -31.4722 -5.02309e-19)
(9.36115 -31.3022 -5.61857e-20)
(9.22061 -31.0013 5.26843e-20)
(8.90894 -30.732 0)
(8.84312 -30.3941 4.67798e-20)
(2.79129 -8.76978 3.08171e-19)
(9.20421 -23.2488 1.99367e-19)
(12.6507 -32.8078 -9.13758e-19)
(13.1335 -34.4119 2.68195e-19)
(12.8759 -34.1414 1.21053e-19)
(12.5898 -33.7267 1.02393e-18)
(12.2865 -33.3334 -1.41777e-18)
(12.0299 -32.9855 1.03015e-18)
(11.7664 -32.6639 -8.27662e-19)
(11.5184 -32.3897 9.80445e-19)
(11.2811 -32.0941 1.59606e-19)
(11.0311 -31.8401 6.6525e-19)
(10.8152 -31.6073 -3.73254e-19)
(10.5875 -31.3819 -7.17044e-19)
(10.3885 -31.2067 6.32484e-19)
(10.1787 -31.0001 0)
(9.93994 -30.7729 1.62251e-19)
(9.75414 -30.4743 4.6496e-20)
(9.43428 -30.223 -9.32773e-20)
(9.34804 -29.8888 4.09093e-20)
(3.49669 -9.21757 -6.07502e-19)
(10.1092 -24.1212 6.18784e-19)
(13.8382 -32.7373 -7.15315e-21)
(14.0541 -33.8396 -5.30191e-19)
(13.7342 -33.4796 -4.88923e-19)
(13.4093 -33.0254 -2.30902e-19)
(13.0759 -32.677 -8.2519e-21)
(12.7782 -32.3247 -1.98444e-19)
(12.4688 -32.012 0)
(12.1879 -31.7211 -1.7143e-19)
(11.9127 -31.4875 -1.59603e-19)
(11.6593 -31.2508 -7.92346e-21)
(11.3979 -31.033 5.18693e-19)
(11.1492 -30.8194 -2.66739e-19)
(10.8891 -30.585 -5.79375e-19)
(10.6639 -30.3763 4.51293e-19)
(10.4132 -30.2204 2.93997e-19)
(10.2248 -29.9432 -4.93295e-19)
(9.87915 -29.6956 9.3224e-20)
(9.7952 -29.3639 5.75642e-19)
(4.03625 -9.69726 -1.49217e-18)
(11.4027 -24.1681 1.49942e-18)
(14.8796 -32.2054 -1.63926e-18)
(15.0591 -33.046 1.32524e-18)
(14.6284 -32.6901 1.15544e-18)
(14.2647 -32.2989 -9.00853e-19)
(13.8697 -31.9274 -1.18056e-18)
(13.527 -31.5972 4.58452e-20)
(13.191 -31.2971 7.08095e-19)
(12.8697 -31.0357 -4.63419e-19)
(12.5719 -30.7719 1.17891e-18)
(12.2618 -30.542 -7.03551e-19)
(11.9841 -30.3087 -1.30968e-19)
(11.7063 -30.1139 3.36248e-19)
(11.4677 -29.9715 -8.77272e-19)
(11.2102 -29.7782 4.19688e-19)
(10.9491 -29.5923 0)
(10.7231 -29.3541 -6.90037e-19)
(10.3724 -29.1304 6.79659e-19)
(10.2642 -28.7908 -5.35861e-19)
(4.70345 -10.0948 2.90374e-19)
(12.5075 -24.4583 3.21094e-19)
(15.9245 -31.6401 1.37566e-18)
(15.8951 -32.1617 1.18696e-18)
(15.4109 -31.7868 -7.13349e-19)
(15.002 -31.3941 9.99098e-19)
(14.5756 -31.0878 -5.89981e-19)
(14.1978 -30.7787 6.76777e-19)
(13.8179 -30.4921 -1.28909e-18)
(13.4704 -30.2408 4.59753e-19)
(13.1375 -30.0256 0)
(12.8254 -29.8109 0)
(12.522 -29.6385 0)
(12.2231 -29.4401 -8.42366e-19)
(11.9224 -29.2384 8.29356e-19)
(11.6511 -29.0763 0)
(11.3703 -28.9338 0)
(11.1334 -28.7057 -7.54374e-20)
(10.7629 -28.5064 0)
(10.655 -28.1883 -6.21607e-19)
(5.28537 -10.28 -5.57052e-19)
(13.548 -24.1784 -1.37164e-18)
(16.8003 -30.7673 -9.7376e-19)
(16.7263 -31.1484 -1.70595e-19)
(16.1904 -30.8158 1.26988e-18)
(15.7462 -30.4672 -2.54448e-19)
(15.2775 -30.1468 -4.95563e-20)
(14.8565 -29.8685 -8.25937e-19)
(14.4565 -29.6171 0)
(14.0647 -29.3877 -3.98367e-19)
(13.7095 -29.1777 6.3875e-19)
(13.3426 -28.9819 0)
(13.0039 -28.7703 8.2326e-19)
(12.6812 -28.6237 -8.10376e-19)
(12.3947 -28.5016 6.99279e-19)
(12.091 -28.3364 -1.25582e-18)
(11.8074 -28.2102 6.35413e-19)
(11.546 -28.0442 7.54375e-20)
(11.1717 -27.8626 -6.07739e-20)
(11.0346 -27.5293 4.76963e-19)
(5.89191 -10.4241 -7.48095e-19)
(14.5707 -23.9432 4.68195e-20)
(17.657 -29.8353 6.91856e-20)
(17.4595 -30.0391 1.71742e-18)
(16.861 -29.7339 1.43791e-19)
(16.3776 -29.4167 -9.06922e-19)
(15.8729 -29.1567 -6.24361e-19)
(15.4183 -28.9019 1.98388e-19)
(14.9777 -28.6575 6.87683e-19)
(14.5665 -28.458 -7.22006e-19)
(14.1812 -28.2747 3.49094e-19)
(13.816 -28.1081 -8.9337e-19)
(13.4726 -27.9828 6.96257e-19)
(13.1251 -27.808 -6.6809e-19)
(12.7934 -27.6665 5.84569e-19)
(12.48 -27.5543 4.82673e-19)
(12.1671 -27.4261 -5.52174e-19)
(11.8892 -27.2813 4.15392e-19)
(11.5135 -27.1563 -4.01902e-19)
(11.3722 -26.8459 -4.49141e-19)
(6.4654 -10.4194 -9.36726e-19)
(15.4387 -23.4108 -1.751e-19)
(18.3595 -28.7292 8.95943e-19)
(18.0851 -28.8374 -7.52009e-19)
(17.4616 -28.5759 7.38361e-19)
(16.9368 -28.301 1.69001e-19)
(16.4131 -28.0561 0)
(15.9249 -27.8516 -1.2345e-19)
(15.4736 -27.6636 3.33313e-19)
(15.0249 -27.4803 -1.17343e-18)
(14.6215 -27.3356 8.22752e-19)
(14.2077 -27.1773 1.78898e-19)
(13.8194 -27.0185 8.79653e-20)
(13.4615 -26.9286 0)
(13.1235 -26.8099 1.24866e-20)
(12.7866 -26.6934 4.68648e-19)
(12.4832 -26.6246 -3.68846e-20)
(12.1913 -26.5137 6.73123e-20)
(11.8197 -26.4211 -3.78818e-19)
(11.6666 -26.1087 8.23512e-20)
(6.99259 -10.3449 8.51591e-19)
(16.2714 -22.7865 -1.45227e-18)
(18.9764 -27.509 8.09501e-19)
(18.6683 -27.5726 6.7148e-19)
(17.9968 -27.3591 -5.53624e-20)
(17.4452 -27.1278 -4.61283e-19)
(16.8871 -26.9267 1.18171e-19)
(16.3649 -26.7441 1.23444e-19)
(15.8763 -26.5667 0)
(15.4084 -26.4275 0)
(14.9769 -26.287 -6.41083e-19)
(14.5674 -26.1855 1.05644e-18)
(14.1816 -26.0909 -5.66594e-19)
(13.7966 -25.9788 0)
(13.4425 -25.9246 1.32781e-20)
(13.0859 -25.835 -4.12069e-19)
(12.7451 -25.7459 4.01524e-19)
(12.4339 -25.6908 -4.43033e-20)
(12.0741 -25.6545 -2.86793e-19)
(11.9014 -25.3716 2.00096e-19)
(7.4949 -10.1899 -7.60191e-19)
(16.998 -22.0385 9.45507e-19)
(19.4918 -26.2466 0)
(19.0484 -26.2391 0)
(18.3889 -26.0667 1.25743e-19)
(17.7859 -25.888 -5.97118e-19)
(17.2222 -25.7127 2.32901e-20)
(16.6809 -25.5867 4.07167e-19)
(16.192 -25.4706 -6.55322e-19)
(15.7036 -25.3582 1.22573e-18)
(15.2625 -25.2809 -5.71798e-19)
(14.8141 -25.1718 1.19423e-19)
(14.3899 -25.0759 4.44949e-19)
(13.9931 -25.005 -4.06042e-21)
(13.6143 -24.9285 -2.64383e-19)
(13.2567 -24.8919 4.19659e-20)
(12.9241 -24.8438 -2.66561e-19)
(12.5891 -24.8019 2.25816e-19)
(12.2458 -24.8154 1.20552e-20)
(12.0704 -24.5505 1.59029e-19)
(7.92677 -9.9524 0)
(17.6015 -21.0944 4.46818e-19)
(19.8749 -24.8272 -4.86033e-19)
(19.4397 -24.8545 0)
(18.7499 -24.7329 -1.25742e-19)
(18.1485 -24.6107 3.83211e-19)
(17.5533 -24.4888 -4.75213e-19)
(16.98 -24.3783 0)
(16.4544 -24.2754 5.11854e-19)
(15.9443 -24.1986 -5.0331e-19)
(15.4767 -24.1219 4.2386e-20)
(15.0362 -24.1005 -5.18489e-20)
(14.6148 -24.0528 -4.50648e-20)
(14.2033 -24.01 -3.89307e-20)
(13.8176 -23.9969 -2.25523e-19)
(13.4289 -23.9454 3.44894e-19)
(13.0659 -23.9184 -2.76635e-19)
(12.7079 -23.9083 2.16331e-19)
(12.3746 -23.966 -7.7478e-20)
(12.1847 -23.7711 1.25737e-20)
(8.35309 -9.66374 0)
(18.1413 -20.1662 -5.17137e-19)
(20.1949 -23.4836 2.75046e-19)
(19.6003 -23.452 3.0612e-19)
(18.9276 -23.3628 -4.7206e-20)
(18.2637 -23.2806 -4.20296e-20)
(17.6787 -23.182 -2.92426e-19)
(17.0995 -23.1482 0)
(16.587 -23.1036 0)
(16.074 -23.0694 0)
(15.6008 -23.0357 -4.2385e-20)
(15.1295 -22.9815 0)
(14.6859 -22.9739 -1.63934e-19)
(14.2564 -22.9273 1.48526e-19)
(13.8484 -22.9293 -7.43839e-20)
(13.4716 -22.9322 1.14925e-19)
(13.0999 -22.9278 -4.10459e-20)
(12.7191 -22.9331 1.81216e-20)
(12.3675 -22.9972 -4.86048e-20)
(12.1908 -22.8409 3.91981e-20)
(8.71837 -9.27426 0)
(18.4643 -19.0443 0)
(20.3236 -21.9331 1.08585e-19)
(19.7657 -21.9916 9.41768e-20)
(19.0896 -21.9667 0)
(18.4562 -21.9587 2.10453e-19)
(17.8363 -21.9083 -2.06751e-19)
(17.2311 -21.8669 0)
(16.6833 -21.8532 2.1052e-19)
(16.1571 -21.8534 -2.07004e-19)
(15.6711 -21.8647 0)
(15.1997 -21.8674 -5.93391e-20)
(14.7537 -21.8747 5.28795e-20)
(14.3243 -21.8885 1.82659e-20)
(13.9009 -21.8903 0)
(13.4897 -21.8894 0)
(13.0912 -21.9093 0)
(12.6882 -21.926 1.28956e-19)
(12.2981 -21.9295 -1.34617e-19)
(12.0418 -21.8457 0)
(4.57442 -32.2401 0)
(4.12468 -30.6304 0)
(3.05027 -30.0042 -1.69883e-21)
(2.73653 -29.359 -1.37548e-21)
(2.05728 -28.6665 0)
(1.76241 -28.1529 9.73016e-23)
(1.37638 -27.6237 7.11873e-22)
(1.11901 -27.2434 0)
(0.890098 -26.8543 2.69594e-22)
(0.693265 -26.555 0)
(0.547374 -26.3202 -5.16421e-23)
(0.420502 -26.1096 3.40165e-23)
(0.308342 -25.9488 -3.41979e-23)
(0.237011 -25.7982 -1.87862e-22)
(0.14512 -25.7069 0)
(0.135408 -25.44 7.68874e-23)
(0.065912 -24.4328 -4.10389e-22)
(0.0719507 -21.2782 0)
(-0.0141903 -14.9 0)
(-0.0182954 -6.25102 -3.82621e-22)
(4.97321 -31.8592 1.28867e-20)
(4.40101 -30.4861 0)
(3.39581 -29.9297 7.72107e-21)
(3.03602 -29.2707 -4.6752e-21)
(2.3414 -28.5636 0)
(1.9922 -28.0694 -3.6675e-21)
(1.57985 -27.5347 1.34148e-21)
(1.28173 -27.1627 0)
(1.03269 -26.7811 1.21414e-22)
(0.810465 -26.4941 -3.93144e-22)
(0.649444 -26.2708 3.79043e-23)
(0.504701 -26.0701 1.87341e-22)
(0.381413 -25.9194 -3.31608e-22)
(0.297712 -25.7774 1.27584e-22)
(0.192453 -25.6914 2.19425e-22)
(0.173296 -25.4266 -3.17466e-22)
(0.0887265 -24.4177 6.37358e-22)
(0.0876667 -21.2649 9.38402e-22)
(-0.00860065 -14.8867 4.95312e-22)
(-0.0247185 -6.25515 4.81048e-22)
(5.40533 -31.6541 -6.01426e-21)
(4.79561 -30.165 -1.09172e-20)
(3.61593 -29.6092 -6.23305e-21)
(3.17487 -29.0506 0)
(2.44531 -28.3865 0)
(2.07558 -27.937 4.04342e-21)
(1.65814 -27.4342 -7.57267e-22)
(1.34803 -27.091 -5.87021e-22)
(1.09509 -26.7266 -5.23364e-22)
(0.86273 -26.4504 -6.77705e-22)
(0.695718 -26.2352 0)
(0.543505 -26.0384 0)
(0.414142 -25.8904 0)
(0.326375 -25.7493 8.76143e-22)
(0.215857 -25.6724 0)
(0.196873 -25.4181 1.27112e-21)
(0.10921 -24.4183 -1.28324e-21)
(0.107072 -21.27 -5.57195e-22)
(0.000983125 -14.8872 -9.80745e-22)
(-0.026906 -6.26724 -1.61384e-21)
(5.78093 -31.2564 1.85845e-20)
(5.05291 -29.989 -3.52861e-20)
(3.91999 -29.5108 1.14551e-21)
(3.46414 -28.9383 1.11016e-20)
(2.72404 -28.2739 0)
(2.29814 -27.846 4.69527e-21)
(1.85898 -27.3419 -9.79115e-21)
(1.50689 -27.0066 4.32183e-21)
(1.2353 -26.6513 -1.7944e-21)
(0.977459 -26.3861 1.57599e-22)
(0.795505 -26.1829 -2.26025e-22)
(0.626443 -25.9954 5.00142e-22)
(0.485237 -25.8578 -5.02565e-22)
(0.386387 -25.7251 -3.81878e-22)
(0.261646 -25.6541 -4.96598e-22)
(0.230415 -25.4051 -1.27038e-21)
(0.117652 -24.4139 1.65828e-21)
(0.127757 -21.2703 -7.71188e-22)
(0.00932739 -14.8827 3.97377e-22)
(-0.0207036 -6.27531 1.61117e-21)
(6.24298 -30.9982 4.79025e-20)
(5.45456 -29.6527 8.16649e-21)
(4.16059 -29.178 -1.08313e-20)
(3.59451 -28.724 1.51726e-20)
(2.82627 -28.0952 0)
(2.3751 -27.7067 -2.53013e-21)
(1.93375 -27.2367 1.83394e-21)
(1.5686 -26.9276 0)
(1.29438 -26.5915 1.22171e-22)
(1.02657 -26.3364 0)
(0.839017 -26.1421 2.31007e-22)
(0.662248 -25.9592 0)
(0.515838 -25.8253 0)
(0.413477 -25.6929 2.05436e-21)
(0.283838 -25.6311 -1.05148e-21)
(0.252985 -25.3925 1.36963e-21)
(0.135727 -24.4156 0)
(0.148888 -21.2852 -4.06785e-22)
(0.0208669 -14.8909 4.0549e-22)
(-0.00501698 -6.2873 0)
(6.59459 -30.5806 1.86883e-20)
(5.68218 -29.4501 -1.50721e-20)
(4.4438 -29.0369 2.50479e-20)
(3.87521 -28.5781 -2.473e-20)
(3.10026 -27.9725 6.01998e-21)
(2.59136 -27.6066 2.53808e-21)
(2.13027 -27.1408 -3.02906e-21)
(1.724 -26.8393 -1.97767e-21)
(1.43146 -26.514 6.06917e-22)
(1.13857 -26.269 -9.69134e-23)
(0.935942 -26.0869 -6.61546e-23)
(0.742564 -25.9132 0)
(0.583449 -25.79 0)
(0.469912 -25.6654 3.46373e-23)
(0.325562 -25.6098 1.11438e-21)
(0.280876 -25.3784 -1.36831e-21)
(0.162109 -24.4196 0)
(0.169465 -21.2994 3.29315e-21)
(0.0345191 -14.8985 3.20928e-21)
(0.0186009 -6.29402 2.11725e-22)
(7.07804 -30.2479 -5.18737e-20)
(6.09288 -29.0879 4.83506e-20)
(4.68571 -28.716 -1.07583e-20)
(3.99407 -28.3713 0)
(3.19929 -27.7923 -6.04574e-21)
(2.6639 -27.4608 7.39103e-21)
(2.20142 -27.0314 -4.378e-21)
(1.78258 -26.7534 1.9833e-21)
(1.48726 -26.4488 0)
(1.18505 -26.2132 0)
(0.976745 -26.0407 -9.53828e-22)
(0.775713 -25.8719 9.57236e-22)
(0.610969 -25.7534 0)
(0.494165 -25.6291 -3.32283e-21)
(0.349783 -25.5824 1.17536e-21)
(0.302745 -25.3663 1.48583e-21)
(0.176443 -24.4265 -1.45227e-21)
(0.190433 -21.3228 -4.13145e-21)
(0.0492202 -14.9199 -2.14195e-21)
(0.0530406 -6.30001 -4.2249e-22)
(7.40379 -29.8182 0)
(6.29422 -28.8448 -2.39276e-20)
(4.97059 -28.5154 2.40014e-20)
(4.27209 -28.19 0)
(3.468 -27.6599 0)
(2.87439 -27.3515 -6.67337e-21)
(2.39275 -26.9315 6.6932e-21)
(1.93453 -26.6614 0)
(1.62065 -26.3692 1.74983e-22)
(1.29421 -26.1429 3.54246e-22)
(1.07082 -25.9825 -5.31342e-22)
(0.853555 -25.8229 -1.66368e-21)
(0.675475 -25.7156 1.66868e-21)
(0.545266 -25.5996 0)
(0.390555 -25.5583 0)
(0.32973 -25.3512 1.53041e-21)
(0.195276 -24.4366 -2.32528e-21)
(0.212332 -21.3497 -4.27755e-23)
(0.0632966 -14.9437 1.29577e-21)
(0.0752486 -6.29978 -4.19828e-22)
(7.8809 -29.397 2.98092e-20)
(6.67654 -28.4628 -2.98669e-20)
(5.18243 -28.2142 -2.55126e-20)
(4.37777 -27.987 2.92089e-20)
(3.5632 -27.4752 -2.11937e-20)
(2.94349 -27.1988 2.74126e-21)
(2.46059 -26.8177 5.98475e-21)
(1.99106 -26.5688 0)
(1.67335 -26.2983 0)
(1.33846 -26.0813 -5.98165e-22)
(1.1092 -25.931 0)
(0.884815 -25.7764 0)
(0.701245 -25.674 0)
(0.566639 -25.56 0)
(0.411806 -25.5275 0)
(0.350366 -25.3373 0)
(0.214009 -24.45 1.65231e-21)
(0.233166 -21.3838 -1.66504e-21)
(0.0739826 -14.977 4.39917e-22)
(0.0942823 -6.29933 -4.24039e-22)
(8.19752 -28.9569 -3.34684e-20)
(6.89331 -28.1706 -4.02404e-20)
(5.48902 -27.9497 -6.64243e-21)
(4.64985 -27.7767 -2.64251e-21)
(3.82586 -27.3354 7.92963e-21)
(3.14762 -27.0803 1.0968e-20)
(2.64602 -26.7138 1.70556e-21)
(2.13913 -26.4733 0)
(1.80263 -26.2165 5.87715e-22)
(1.44476 -26.0085 -9.11592e-22)
(1.20042 -25.87 -1.35463e-21)
(0.960831 -25.7249 -1.95886e-21)
(0.764064 -25.6336 0)
(0.617059 -25.5276 -2.73535e-21)
(0.449397 -25.5017 -2.88631e-21)
(0.376522 -25.3203 0)
(0.230904 -24.4653 0)