/*--------------------------------*- C++ -*----------------------------------*\
  =========                 |
  \\      /  F ield         | OpenFOAM: The Open Source CFD Toolbox
   \\    /   O peration     | Website:  https://openfoam.org
    \\  /    A nd           | Version:  9
     \\/     M anipulation  |
\*---------------------------------------------------------------------------*/
FoamFile
{
    format      ascii;
    class       volScalarField;
    location    "6.5";
    object      nut;
}
// * * * * * * * * * * * * * * * * * * * * * * * * * * * * * * * * * * * * * //

dimensions      [0 2 -1 0 0 0 0];

internalField   nonuniform List<scalar> 
46400
(
0.0196305
0.00505284
0.00133817
0.00156836
0.00146046
0.00147321
0.00139386
0.0013681
0.00130011
0.00126251
0.00121771
0.00117417
0.00114803
0.00111055
0.00106227
0.00106973
0.00104408
0.000969588
0.00126292
0.00102084
0.0191553
0.00432595
0.00127042
0.00158812
0.00147132
0.00146344
0.00140924
0.00137854
0.00132012
0.00127883
0.00123108
0.00120901
0.0011477
0.00111999
0.0010848
0.00103235
0.000965609
0.000866342
0.00111648
0.000981035
0.0185638
0.00421175
0.00136303
0.00162606
0.00146973
0.001473
0.00139593
0.00136898
0.00130475
0.00126949
0.0012171
0.00117271
0.00113998
0.00108931
0.00105565
0.00104588
0.000980099
0.000898602
0.00116801
0.000991835
0.0178875
0.00528772
0.00141642
0.00163284
0.00150608
0.00148704
0.00142383
0.0013893
0.00133344
0.00127514
0.00123409
0.00120097
0.00115903
0.00112069
0.0010813
0.00105203
0.00101514
0.000917249
0.0011943
0.00105661
0.0173263
0.00516272
0.00153887
0.00168663
0.00151265
0.00148022
0.00141443
0.00137213
0.00132453
0.00128745
0.00122869
0.00118437
0.00115254
0.00110976
0.00106438
0.00104109
0.00100719
0.000944066
0.00121048
0.00107081
0.0163421
0.00479303
0.00155773
0.00165842
0.00153261
0.00148242
0.0014044
0.00136952
0.00131404
0.00126203
0.00123049
0.00117763
0.00115798
0.00112917
0.00110324
0.00105617
0.0010022
0.000941813
0.0012137
0.00109201
0.0150751
0.00390839
0.00153555
0.00168806
0.00154547
0.00149752
0.00143203
0.00135952
0.00133468
0.00127228
0.00124904
0.00118354
0.00112634
0.00109561
0.0010707
0.00106056
0.00101549
0.000905261
0.00115311
0.001085
0.0119581
0.00285099
0.0015755
0.00156941
0.00152734
0.00146483
0.0014297
0.00136162
0.00131523
0.00124911
0.00121728
0.00121429
0.00116442
0.00111867
0.00109257
0.00106708
0.00105089
0.000964349
0.00113775
0.00105733
0.0097397
0.00237878
0.00152771
0.00154178
0.00150417
0.00145064
0.00143042
0.00137733
0.00135633
0.00128227
0.00121031
0.00116376
0.00114975
0.00108737
0.00106053
0.00103854
0.00102492
0.000977398
0.00118546
0.00110191
0.00791603
0.00207661
0.0016015
0.00149834
0.00145767
0.00139337
0.00135279
0.00129327
0.00130389
0.00130448
0.00125381
0.00117769
0.00116187
0.0011153
0.00106411
0.00101315
0.000971062
0.000901516
0.00106111
0.0010653
0.00663391
0.00183176
0.00158255
0.00153924
0.00148172
0.00141164
0.00139424
0.00126662
0.00118893
0.00116276
0.00118574
0.00114585
0.00112103
0.00111861
0.00110394
0.00107718
0.00102733
0.000949694
0.00101897
0.000988622
0.00571547
0.00172577
0.00157849
0.00155348
0.00150975
0.00142298
0.00148752
0.00146903
0.00136756
0.00123389
0.00116556
0.00111953
0.00106624
0.00102561
0.00101851
0.00101241
0.00100019
0.000959887
0.00104298
0.000986365
0.00515275
0.00170079
0.00153165
0.00142626
0.00147489
0.00129985
0.00125514
0.00130648
0.00134182
0.00133896
0.00127699
0.00122289
0.00117297
0.00110368
0.00105531
0.00102335
0.00100089
0.000960223
0.00105736
0.00101141
0.00468661
0.00168601
0.00161354
0.00157104
0.00163985
0.00159143
0.00139424
0.00127192
0.00122754
0.0011995
0.00119447
0.00114709
0.00113265
0.00109076
0.00104624
0.00100888
0.000975466
0.000924206
0.00100412
0.000985199
0.0041829
0.00164031
0.00165238
0.00142385
0.00138551
0.00145417
0.00145457
0.00139491
0.00133375
0.00126835
0.00123479
0.0012056
0.0011611
0.00114013
0.00109663
0.00106249
0.00101208
0.000950632
0.000994045
0.000950305
0.00395047
0.00166119
0.00173621
0.00164661
0.0014303
0.00134976
0.0013404
0.00131159
0.00127511
0.00125349
0.00119014
0.00118171
0.00112803
0.00111676
0.0010763
0.00106392
0.00102502
0.000963983
0.00101285
0.000930247
0.00404404
0.00163543
0.00152183
0.00156967
0.00153908
0.00145359
0.00137491
0.00132015
0.001262
0.00123023
0.00118877
0.0011547
0.00112461
0.00109225
0.00106087
0.00104055
0.00101701
0.000961226
0.00102413
0.000967375
0.00279076
0.00180733
0.00164325
0.00152536
0.00146784
0.00145856
0.00139836
0.00137378
0.00130791
0.00127079
0.0012219
0.00118213
0.00114474
0.00110346
0.00106252
0.00102625
0.00098884
0.000925453
0.000968877
0.000907583
0.00175027
0.00166764
0.00158742
0.00153969
0.00147062
0.00143792
0.00140348
0.00135465
0.00132029
0.00127402
0.00123339
0.00119038
0.00115305
0.00111304
0.00108215
0.00104525
0.00101729
0.000935862
0.000986626
0.000901296
0.00194546
0.00174705
0.00160404
0.00144837
0.00153101
0.00142657
0.00142578
0.00132618
0.00132514
0.00124519
0.00122541
0.00117058
0.00113396
0.00109486
0.00106578
0.0010355
0.00101463
0.000958053
0.000983959
0.000948173
0.00782094
0.0126038
0.0108537
0.00366581
0.000154096
0.000451456
0.00077933
0.00090005
0.000807558
0.000795176
0.000791045
0.000720108
0.000743792
0.000773852
0.000751074
0.000761524
0.000791967
0.000937427
0.00094217
0.000787009
0.00984144
0.0132609
0.0100156
0.00170039
0.000460686
0.00075736
0.000932625
0.000864287
0.000859729
0.000838107
0.000779402
0.000807265
0.000790849
0.000780188
0.000762474
0.00080957
0.000861369
0.000944166
0.000882278
0.000757577
0.0123387
0.0134837
0.00909362
0.000739699
0.000360393
0.000882233
0.000956439
0.000930731
0.00088995
0.000851712
0.000866178
0.000810819
0.00078717
0.000821807
0.000811963
0.000842411
0.000855268
0.000946747
0.000881064
0.000775781
0.0152039
0.0136741
0.00806872
0.000269364
0.000646545
0.00101734
0.00102328
0.000917735
0.000921075
0.000903541
0.000839402
0.000835171
0.000855809
0.000840663
0.0008117
0.00085036
0.000892033
0.000973714
0.000847896
0.000750427
0.0161812
0.0136615
0.00554829
0.000334342
0.000792227
0.00104081
0.00103662
0.000988384
0.000950647
0.000904222
0.000910356
0.000892777
0.000843673
0.000854823
0.00084878
0.000896154
0.000896616
0.000938225
0.00084039
0.00079308
0.0173313
0.013481
0.00423937
0.000312298
0.00104165
0.00116578
0.00107478
0.00101388
0.000990168
0.000957224
0.000911153
0.000866136
0.000886713
0.000877276
0.000844612
0.000867918
0.00087543
0.000965219
0.000873574
0.000809266
0.0182519
0.0132814
0.00265276
0.000331084
0.00107971
0.00115017
0.0011122
0.00103927
0.00100397
0.000955794
0.000933989
0.000940102
0.000885985
0.000867935
0.000862475
0.000903321
0.000916235
0.000978435
0.000849187
0.000813954
0.0188644
0.0129497
0.00200171
0.000401737
0.00118832
0.00121526
0.0011296
0.00107628
0.00104387
0.000987641
0.000964989
0.000900625
0.000898907
0.000895035
0.000861799
0.000878036
0.000873979
0.000985834
0.000915848
0.00085542
0.0196515
0.0126772
0.00122854
0.00071893
0.00124413
0.00121049
0.00118353
0.00108078
0.00105072
0.00100835
0.000956285
0.000966213
0.000921772
0.000879588
0.000870778
0.000901059
0.000931273
0.00105607
0.000915882
0.00083935
0.0201948
0.0122483
0.00105429
0.000825346
0.00127812
0.00124522
0.00119407
0.00113328
0.00109548
0.00102501
0.00101132
0.000949366
0.000922453
0.000919145
0.00088971
0.000907662
0.00091219
0.0010354
0.000949964
0.000887319
0.020644
0.0119125
0.00103178
0.00103135
0.00135477
0.00126245
0.00124251
0.00112953
0.0011021
0.00106607
0.000997794
0.000998739
0.000969314
0.00091671
0.000898602
0.000916216
0.000965134
0.0011316
0.000956668
0.000862998
0.0209844
0.0114567
0.00150221
0.00111331
0.00134825
0.00127585
0.00125115
0.00118187
0.00113957
0.00107466
0.00105551
0.00100776
0.000966338
0.000958099
0.00093305
0.000944837
0.000950448
0.00108194
0.000935279
0.000883849
0.0211545
0.0111042
0.00179042
0.00119299
0.0014445
0.00132274
0.00130014
0.00119468
0.00116321
0.00112922
0.00105513
0.00103986
0.00101936
0.000969187
0.000932358
0.000920149
0.000953772
0.00111409
0.000914947
0.000849549
0.0213173
0.0109338
0.00199053
0.00129058
0.00143147
0.00131682
0.00130543
0.00122756
0.0011783
0.00113408
0.00110335
0.00106855
0.00102522
0.00101378
0.000994153
0.000984527
0.00096495
0.00108371
0.000925089
0.000896595
0.0212852
0.0106108
0.00217491
0.00125144
0.00150115
0.00137693
0.00134372
0.00126143
0.00121245
0.00118207
0.00111472
0.00108329
0.00106729
0.00103156
0.000982404
0.000948859
0.000952947
0.00107418
0.000859723
0.000861827
0.0212434
0.0103933
0.00200284
0.00137165
0.00147733
0.00138023
0.00135106
0.00127918
0.00122067
0.00119065
0.00115058
0.00112025
0.00107154
0.00105993
0.00104864
0.00101952
0.000974866
0.0010385
0.000860117
0.000892169
0.0210198
0.0090553
0.00175152
0.00134541
0.00149649
0.0014246
0.00138
0.00132086
0.00125294
0.0012267
0.00117443
0.00113175
0.00111151
0.00108729
0.00104101
0.00101337
0.000999035
0.00103389
0.000786797
0.000879451
0.020777
0.00843086
0.00205641
0.00146993
0.00149205
0.0014318
0.00138688
0.00133661
0.00127008
0.00124252
0.00120097
0.00117604
0.00111827
0.00110505
0.00109856
0.00106835
0.00103906
0.00103691
0.000794185
0.000922431
0.0204574
0.00705943
0.00149329
0.00145727
0.00148474
0.00146351
0.00140397
0.0013672
0.00129215
0.0012615
0.00122053
0.00117772
0.00115318
0.00112769
0.00108356
0.0010773
0.00109429
0.00108616
0.000776201
0.000917674
0.0200413
0.00628175
0.00169927
0.0015547
0.00148669
0.0014619
0.00140726
0.0013787
0.00131603
0.0012848
0.00124536
0.00123323
0.00118028
0.00116883
0.00115669
0.00114832
0.00114782
0.00111706
0.000943326
0.0010424
0.00549814
0.00314374
0.00246402
0.00176595
0.00144394
0.00105962
0.000910883
0.000834691
0.000754166
0.000615204
0.000498777
0.000398659
0.000327627
0.000339451
0.000202274
0.000477247
0.00107185
0.00583678
0.0103917
0.0147419
0.0055132
0.00312592
0.00223208
0.00169042
0.00140187
0.00110996
0.000947425
0.00087055
0.000785215
0.000648155
0.000517012
0.000405311
0.000327848
0.000338167
0.000202714
0.000473933
0.00102983
0.00585515
0.0103683
0.0147512
0.00566604
0.00326873
0.00243279
0.00179003
0.00150938
0.00110956
0.000962849
0.000888504
0.000779285
0.000625781
0.000507732
0.000407592
0.000327414
0.00035297
0.000190646
0.000447896
0.00101075
0.0058317
0.0103793
0.0146405
0.00548838
0.00334759
0.00195373
0.00173584
0.00153076
0.00117615
0.00100019
0.00092288
0.000813284
0.000661357
0.000527425
0.000413992
0.000328471
0.000348999
0.000186355
0.000438631
0.000973093
0.00580961
0.0103548
0.014646
0.00571653
0.00346272
0.0025927
0.00182013
0.00165135
0.00122793
0.00104097
0.00093817
0.000799149
0.000638798
0.000518807
0.000418007
0.000330789
0.000366787
0.000170956
0.000410779
0.000947655
0.00578848
0.0103655
0.0145792
0.00591038
0.00350659
0.002607
0.00177791
0.00167047
0.00126242
0.00110878
0.000974825
0.000835692
0.000675019
0.000539486
0.000426372
0.000331392
0.000362616
0.000156711
0.000380353
0.000908478
0.00574663
0.0103645
0.0145759
0.00614817
0.0035625
0.00274917
0.00184263
0.0017593
0.00130994
0.00110238
0.000978734
0.000817878
0.000652813
0.000532147
0.000431631
0.000336799
0.000382566
0.000142323
0.000338385
0.000869678
0.0057231
0.0103638
0.0145461
0.00604911
0.00357959
0.00279359
0.00186172
0.0017562
0.00137112
0.00118968
0.00101241
0.000853824
0.00069032
0.000553321
0.000442935
0.000339331
0.000377325
0.00014531
0.000344852
0.000801345
0.00569188
0.010374
0.0145318
0.0061054
0.00356161
0.00279755
0.00190705
0.00177937
0.00141323
0.00115017
0.00101821
0.000831209
0.000669642
0.000546043
0.000452054
0.000347894
0.000395786
0.000150217
0.000311068
0.000743598
0.00565837
0.0103686
0.0145195
0.00600385
0.00349959
0.00287279
0.00195465
0.00178509
0.00146889
0.00120306
0.0010466
0.000870384
0.000702805
0.000565873
0.000463575
0.000351838
0.000386547
0.000146646
0.00031656
0.000694923
0.00562298
0.0103786
0.0145076
0.0059834
0.00341541
0.00285079
0.00201974
0.00176184
0.0014936
0.00119165
0.0010515
0.000849016
0.000686287
0.000558299
0.00047619
0.000362205
0.000410006
0.000143094
0.000297738
0.000643865
0.00558565
0.0103745
0.0145063
0.00602031
0.00335811
0.00280713
0.00208672
0.00178275
0.00153075
0.00121939
0.00108323
0.000889705
0.000721053
0.000574116
0.000488185
0.000364713
0.000399465
0.000159037
0.000295351
0.000590314
0.0055536
0.0103799
0.014504
0.00600577
0.00332647
0.00280257
0.002119
0.00176495
0.0015305
0.00122164
0.00108141
0.000872896
0.000717594
0.000567478
0.000502389
0.000379359
0.000419955
0.000145843
0.000264746
0.000521808
0.00551114
0.0103748
0.0145112
0.00593761
0.00327384
0.00273115
0.00212597
0.00179381
0.00156254
0.0012592
0.00111206
0.000900724
0.000752107
0.000585181
0.000512854
0.00038238
0.000409158
0.000165368
0.000265127
0.000456754
0.00545516
0.0103705
0.0145249
0.00602683
0.00332621
0.00279664
0.00212145
0.00178232
0.00155334
0.00124292
0.0011182
0.000884052
0.000751571
0.000585548
0.000526458
0.000399528
0.00042749
0.000173616
0.000255095
0.00036908
0.00539998
0.0103673
0.0145258
0.00595361
0.00327794
0.00273323
0.00208481
0.0017786
0.00159515
0.00128084
0.0011443
0.000914464
0.000782238
0.000604605
0.000529721
0.000401887
0.000417972
0.0002055
0.000265468
0.000289059
0.00536444
0.0103982
0.0145554
0.00605241
0.00329607
0.00276131
0.00211315
0.00176862
0.00156913
0.00126184
0.00114832
0.00089979
0.000793673
0.000611979
0.000544197
0.000418831
0.000435793
0.000221507
0.000259509
0.000200353
0.00523779
0.0103614
0.0145741
0.00605883
0.00327179
0.0026831
0.00207255
0.00176905
0.00161719
0.00129703
0.00118237
0.000931229
0.000827007
0.000638418
0.00055275
0.000423602
0.000434714
0.000264392
0.000283137
0.000122557
0.00528864
0.0104025
0.014561
0.00600841
0.00329337
0.00263388
0.00208426
0.00175734
0.00156593
0.00127086
0.00117651
0.000918664
0.000843182
0.000648662
0.00056899
0.000445388
0.000444804
0.000304056
0.000314496
6.15354e-05
0.00525004
0.0104912
0.0147853
0.00653524
0.00348573
0.00260114
0.00205808
0.00176674
0.00159242
0.00128616
0.00119059
0.000929116
0.000854244
0.000669019
0.000567955
0.000459281
0.000452242
0.000376352
0.000377679
0.000138633
0.004889
0.0103442
0.0143654
0.0166654
0.033272
0.0255813
0.0233656
0.0199133
0.0173235
0.0139826
0.0129814
0.0103738
0.00957609
0.00782961
0.00690149
0.00558329
0.00528113
0.00434106
0.00487729
0.00440351
0.0494091
0.0974956
0.132321
0.0279419
0.0218236
0.0199403
0.0169553
0.0144613
0.0121274
0.010243
0.00922892
0.00804001
0.00705379
0.00608846
0.0055619
0.00495077
0.0045222
0.00402902
0.0034452
0.0140517
0.0494431
0.095018
0.131239
0.0147877
0.0150117
0.0141863
0.011148
0.0097292
0.00858944
0.00792167
0.00700085
0.00650307
0.00605368
0.00552039
0.00533503
0.00513516
0.00485974
0.00463116
0.00390781
0.00683552
0.0512958
0.0946542
0.129416
0.0115898
0.00963431
0.00815489
0.00823285
0.0077284
0.00731183
0.0067089
0.00621396
0.00579333
0.00534198
0.00504342
0.00466212
0.00424822
0.00404445
0.00365379
0.0027563
0.00903441
0.0475269
0.0945852
0.125848
0.00427088
0.00680154
0.00723851
0.00664408
0.00589396
0.00527956
0.00494477
0.00489259
0.00480149
0.0046263
0.00438054
0.00419448
0.00397376
0.00391819
0.00389311
0.00299918
0.00554467
0.0430428
0.0950919
0.124744
0.00537971
0.00507864
0.00428375
0.00410042
0.0041843
0.00454951
0.00449483
0.00418724
0.00402189
0.00395841
0.00396873
0.00395614
0.00386988
0.00368425
0.0036703
0.00260817
0.00487395
0.0378857
0.0954678
0.124818
0.00255682
0.00310865
0.00347856
0.00381745
0.00379992
0.00362527
0.00340905
0.0036841
0.00359642
0.00358203
0.00341724
0.00347354
0.00340645
0.00348234
0.0034415
0.00278854
0.00321882
0.0305563
0.0961867
0.128065
0.00268426
0.00268845
0.00263154
0.00243478
0.00248784
0.00299158
0.00285189
0.00272187
0.00284476
0.00304479
0.00305401
0.00326499
0.00333274
0.0036081
0.00352605
0.00296396
0.00383336
0.0237188
0.0952423
0.134223
0.00114014
0.00149308
0.00172007
0.00188002
0.00204128
0.00229486
0.00246812
0.00261751
0.00250712
0.00263428
0.00261837
0.00280815
0.00273136
0.00309743
0.00329623
0.00336915
0.00311763
0.0161721
0.0927694
0.143796
0.00114942
0.0012527
0.00130725
0.00137963
0.00132378
0.00152538
0.00155396
0.0017497
0.00198448
0.00220614
0.002385
0.00264064
0.00281893
0.00308941
0.00316083
0.00355449
0.0025821
0.0105412
0.0859202
0.15533
0.000413581
0.000651651
0.000768106
0.000935722
0.00103214
0.00130361
0.00149704
0.0016392
0.00168881
0.00185864
0.00193569
0.00220454
0.00233825
0.00284239
0.00307127
0.00376256
0.00330248
0.00684787
0.0640129
0.169697
0.000370964
0.000506962
0.0005922
0.000692815
0.000660113
0.000737409
0.000898238
0.00117989
0.00126238
0.0014999
0.00167857
0.00190728
0.00218673
0.00229542
0.00268634
0.00301946
0.00415905
0.00453282
0.0469435
0.19156
0.000209948
0.00034669
0.00042687
0.000567749
0.000675058
0.00078031
0.00079295
0.000925101
0.000985701
0.00113432
0.00126692
0.00146695
0.00166475
0.00191479
0.00231475
0.00284082
0.00367992
0.00770571
0.0221904
0.141976
0.000301192
0.000271967
0.000316429
0.00039177
0.000433792
0.000535689
0.000583762
0.00067682
0.000807824
0.000988046
0.00108355
0.00133336
0.00141351
0.00181358
0.0019466
0.00243346
0.00231996
0.00483915
0.0115131
0.093791
0.000447207
0.000456151
0.000479023
0.000523354
0.000554999
0.000586977
0.000615111
0.000682443
0.000710484
0.000816293
0.000892562
0.001013
0.00115616
0.00135475
0.00164401
0.00215326
0.00254125
0.00271217
0.00329375
0.0525177
0.00044547
0.000487024
0.000514107
0.000528948
0.000535747
0.000570993
0.000605077
0.000668401
0.000709502
0.000799709
0.000824983
0.000921206
0.00096445
0.00110649
0.00112303
0.000904256
0.000816254
0.00203751
0.00309663
0.0300051
0.000451945
0.000449914
0.000424765
0.000437923
0.000467201
0.000505721
0.000529817
0.000560576
0.000588369
0.000593777
0.000646304
0.000689404
0.000754718
0.000709432
0.00071405
0.00109539
0.00123615
0.000807569
0.000505577
0.0157698
0.00030466
0.000328872
0.000371488
0.000405822
0.000437072
0.0004568
0.000484279
0.000504975
0.000530971
0.000570556
0.00060551
0.000634109
0.000609926
0.00067604
0.000642052
0.000645804
0.000529692
0.00111691
0.00171355
0.00354747
0.000194402
0.00019799
0.000213938
0.000220676
0.000242835
0.000268627
0.000301807
0.000322564
0.000351161
0.000357089
0.000442015
0.000372219
0.000444085
0.000445003
0.000417757
0.000707142
0.000431311
0.000493856
0.000866655
0.00145958
8.11839e-05
0.000109739
0.000129581
0.000144318
0.000172292
0.000183299
0.000216103
0.000214984
0.000255824
0.000253793
0.000299545
0.000308344
0.000346586
0.000348794
0.00035238
0.000227756
0.00026389
0.000249035
0.000167376
0.000371338
0.0139826
0.0141326
0.0139898
0.0141007
0.0137283
0.0137783
0.0136321
0.0135561
0.0131791
0.0130324
0.0129702
0.0121016
0.0117836
0.011978
0.0114154
0.0102236
0.00952348
0.00895026
0.0096494
0.00952352
0.00687764
0.00689827
0.00681149
0.00677276
0.00664094
0.00667082
0.00654895
0.0065392
0.0063226
0.00661765
0.00682711
0.00660064
0.00649503
0.0065559
0.00619725
0.00699829
0.00677774
0.00656459
0.00651844
0.00714213
0.00407198
0.00404912
0.0040453
0.00405937
0.00412568
0.0041877
0.00420223
0.00420183
0.00425551
0.00424
0.00414798
0.00395156
0.00384172
0.00401584
0.00373012
0.00374158
0.0033305
0.00353647
0.00306921
0.003454
0.00258473
0.00256297
0.00256774
0.00255142
0.00252262
0.00248273
0.00243235
0.00241148
0.00224697
0.0022752
0.00227771
0.00238367
0.00247422
0.00235205
0.00230729
0.00242658
0.00239571
0.00277414
0.00243785
0.00274451
0.00156153
0.00155618
0.0015527
0.00154915
0.00154446
0.00154702
0.00154452
0.00155437
0.00170448
0.00176243
0.0017038
0.00174882
0.00156732
0.00169238
0.00167974
0.00165329
0.00145094
0.00134967
0.00128103
0.00143138
0.00108992
0.00108879
0.00108817
0.0010869
0.00108679
0.00109092
0.00109099
0.00109884
0.0011018
0.00104203
0.00097984
0.000905437
0.000946721
0.000975455
0.00100779
0.001144
0.00123829
0.0013336
0.00107713
0.00108914
0.000633681
0.000632465
0.000634563
0.000635185
0.000637883
0.000639106
0.000643592
0.000651849
0.0006648
0.000681351
0.000735878
0.000858131
0.000868119
0.000847621
0.000745395
0.000679451
0.000652451
0.000753343
0.000758985
0.00064036
0.000450479
0.000449564
0.000449337
0.000453315
0.000454232
0.000456481
0.000459972
0.000467253
0.000471694
0.000467198
0.000458965
0.000441047
0.000380315
0.000384844
0.00045699
0.000540122
0.000474932
0.000513046
0.000428753
0.000419205
0.000228116
0.000226238
0.000223542
0.000219532
0.000216712
0.000216822
0.000219863
0.000223721
0.000228879
0.000232514
0.000238064
0.000258044
0.000278711
0.000331017
0.000277481
0.000310193
0.000333416
0.00036386
0.00022739
0.00020602
0.00014406
0.000137851
0.00013728
0.000138731
0.000136396
0.000133942
0.00013459
0.0001354
0.000138098
0.000141449
0.000146045
0.000153444
0.000153433
0.000157084
0.000149514
0.000165923
0.000124476
0.000139461
0.000175393
0.000244075
8.14101e-05
7.25977e-05
6.59608e-05
6.26882e-05
6.13745e-05
5.85259e-05
5.49049e-05
5.00528e-05
5.00776e-05
5.32025e-05
5.80134e-05
6.58611e-05
6.95469e-05
7.58104e-05
7.7619e-05
8.72414e-05
0.000100586
0.000115272
0.000103684
0.00010123
6.72036e-05
5.83779e-05
5.49324e-05
4.8117e-05
4.03052e-05
3.14334e-05
2.05792e-05
1.4718e-05
4.05105e-06
2.15091e-06
6.1893e-06
8.68633e-06
1.22215e-05
2.04074e-05
2.53778e-05
2.86589e-05
3.13672e-05
4.02091e-05
5.57497e-05
6.96017e-05
0.000108783
0.000101577
9.5943e-05
9.45646e-05
9.47048e-05
8.90471e-05
8.38871e-05
7.84212e-05
7.48465e-05
6.92954e-05
6.45078e-05
5.86312e-05
5.3174e-05
3.93225e-05
2.92715e-05
1.80444e-05
1.89977e-05
1.38334e-05
2.70939e-05
4.71105e-05
0.000139995
0.000135496
0.0001317
0.000124234
0.000120128
0.000117767
0.000113384
0.000108445
0.000107095
0.000104544
0.000102973
0.000100641
9.90871e-05
9.39899e-05
9.26323e-05
8.58354e-05
8.56022e-05
7.64112e-05
8.22457e-05
8.3195e-05
0.000121656
0.000122788
0.000125466
0.000128686
0.000128812
0.000124461
0.000121927
0.000118253
0.000115405
0.000118714
0.000128008
0.000124907
0.000118053
0.000112259
0.000113771
0.000110747
0.000115031
0.000114705
0.000122728
0.000116272
0.000125789
0.000125486
0.000123143
0.000120912
0.000117489
0.000114008
0.000111237
0.000110608
0.000109429
0.000101223
9.33701e-05
9.44826e-05
0.000104768
0.000106222
0.000108114
0.000103477
0.000105294
9.59891e-05
9.91919e-05
0.000101391
9.44458e-05
9.4003e-05
9.12156e-05
8.60276e-05
8.39939e-05
8.74679e-05
9.26723e-05
9.78174e-05
0.000105838
0.000113886
0.000116641
0.00010992
0.000103371
9.95979e-05
0.000101132
0.000100263
0.000103523
0.000101877
0.000105626
0.00010609
4.89931e-05
5.15904e-05
5.4128e-05
5.84953e-05
6.1518e-05
6.08723e-05
5.98617e-05
6.03499e-05
5.89939e-05
5.66941e-05
5.56354e-05
5.77964e-05
6.02439e-05
6.22527e-05
6.35162e-05
6.42776e-05
6.50575e-05
6.83693e-05
7.12259e-05
6.82736e-05
1.72828e-05
1.76916e-05
1.79723e-05
1.85181e-05
1.94979e-05
2.09444e-05
2.27264e-05
2.51788e-05
2.69923e-05
2.9016e-05
3.26516e-05
3.6395e-05
3.95194e-05
4.02431e-05
4.31764e-05
4.27297e-05
4.6612e-05
4.5551e-05
4.55553e-05
4.72344e-05
4.17616e-06
5.74364e-06
8.95309e-06
1.21179e-05
1.25036e-05
1.24887e-05
7.38371e-06
5.76467e-06
4.0085e-06
4.20443e-06
5.88043e-06
7.54549e-06
9.05317e-06
1.02444e-05
1.11035e-05
1.19492e-05
1.303e-05
1.30811e-05
1.07954e-05
1.01567e-05
0.00110721
0.00130382
0.00101655
0.00110971
0.00113866
0.00114885
0.00118841
0.00122213
0.0012659
0.00129695
0.00135154
0.00138631
0.00145354
0.00148512
0.00156591
0.00161289
0.00160061
0.00235784
0.00813746
0.0211124
0.00106618
0.00118043
0.000962246
0.00106206
0.00111464
0.00114049
0.00118219
0.00122538
0.00126801
0.00130979
0.00135493
0.00139509
0.0014588
0.00148979
0.00156655
0.00159232
0.00162565
0.00174332
0.00704446
0.0206501
0.00111154
0.00126575
0.000979616
0.00106955
0.00111505
0.00113868
0.00118364
0.00122528
0.00126603
0.00129992
0.00135847
0.00139867
0.00146033
0.00149152
0.00157735
0.0015902
0.00165913
0.0014807
0.00614243
0.0201693
0.00115427
0.00126087
0.000977774
0.00107444
0.00111431
0.00113925
0.00118359
0.00122398
0.0012632
0.00131336
0.00136124
0.00139681
0.00145892
0.00148954
0.0015721
0.00157402
0.00167866
0.0014608
0.00531428
0.0196203
0.00113568
0.00126176
0.000988501
0.00108752
0.00112191
0.00115733
0.00119844
0.00123666
0.00128043
0.00131861
0.0013642
0.0014052
0.00146527
0.00149487
0.00157191
0.00156485
0.00168309
0.00144634
0.00457382
0.0190133
0.00119083
0.00128471
0.00102426
0.00111167
0.00114885
0.00117941
0.00120582
0.00124853
0.0012821
0.00132175
0.00136473
0.00140838
0.00145774
0.00148999
0.00156341
0.0015808
0.0017004
0.00150893
0.0049981
0.0182903
0.00117448
0.00126435
0.00102447
0.00111688
0.0011549
0.00117105
0.00120604
0.00124129
0.00127169
0.00131479
0.00136147
0.00139868
0.0014577
0.00149855
0.00158371
0.00159051
0.00171396
0.00158723
0.00526071
0.0175376
0.00117046
0.00122687
0.00103163
0.00111184
0.00113337
0.00116172
0.00119222
0.0012318
0.00126817
0.00131635
0.00134698
0.00140377
0.00146003
0.00150961
0.00157969
0.00160639
0.00174732
0.00161952
0.00503913
0.0167415
0.00113624
0.00119679
0.00103113
0.00109308
0.00113165
0.00115085
0.00118154
0.00122336
0.00124932
0.00129438
0.00134863
0.00141635
0.0014598
0.00150985
0.00157256
0.00162126
0.00175458
0.00164377
0.00430995
0.0156099
0.00109605
0.00114724
0.000999263
0.00106582
0.00109473
0.00111864
0.00117524
0.00121558
0.00125846
0.00133076
0.00137845
0.00140667
0.00143258
0.00150331
0.00156676
0.00162823
0.00170435
0.00166687
0.00349793
0.0140621
0.00106197
0.0011143
0.00100134
0.00107696
0.00111418
0.00117193
0.00121655
0.00124185
0.00128327
0.00132377
0.00131316
0.00135539
0.00143159
0.00150548
0.0015399
0.00160396
0.00166752
0.00168823
0.00292209
0.0118903
0.00106499
0.00112166
0.0010346
0.00110119
0.00113439
0.00116827
0.00117388
0.00119901
0.00123433
0.00125546
0.00128422
0.00141087
0.00145795
0.00149376
0.00152918
0.00158715
0.00163278
0.00168824
0.00247465
0.00969245
0.0010864
0.0011334
0.00103891
0.00109218
0.00110634
0.00112477
0.0011382
0.00118638
0.00122507
0.00126316
0.00136
0.00142008
0.00138506
0.0014473
0.00147985
0.0015356
0.00156707
0.00165938
0.00210873
0.00780319
0.000999225
0.00100603
0.000959265
0.00100245
0.00103803
0.00107749
0.00111342
0.00118343
0.00121151
0.00128371
0.00134148
0.00132977
0.00137766
0.00149928
0.00150079
0.00157775
0.00163198
0.00170717
0.00190159
0.00636487
0.000994265
0.0010619
0.0010248
0.00108516
0.00113628
0.00116539
0.00121512
0.00125552
0.00128264
0.00133967
0.00133082
0.00135967
0.00142387
0.00142178
0.00141583
0.00153816
0.00158215
0.0016518
0.0016893
0.00513598
0.00101252
0.00107375
0.00102042
0.00107705
0.00109414
0.0011115
0.00113864
0.00115123
0.00117888
0.00118954
0.00120456
0.00126129
0.00131009
0.00135826
0.00146932
0.00167337
0.00163634
0.00169166
0.0017002
0.00453866
0.000977325
0.00100727
0.0009713
0.00101929
0.00104595
0.00107782
0.00111459
0.00115634
0.00119677
0.0012478
0.00131402
0.00140452
0.0014591
0.00155101
0.00164009
0.00158475
0.0014135
0.00157116
0.0016415
0.00429628
0.000990917
0.00102048
0.000992142
0.0010478
0.00107507
0.00111166
0.00114902
0.00118541
0.0012348
0.00128177
0.00131757
0.00135565
0.00135538
0.00137453
0.00133075
0.00124367
0.00139785
0.0016723
0.00173681
0.00396749
0.000952689
0.000990842
0.000975383
0.00103452
0.00106632
0.00109875
0.001123
0.00115607
0.00117753
0.00120453
0.00124027
0.00125069
0.00129482
0.00132921
0.00137117
0.0015299
0.00177227
0.00175945
0.00161942
0.00402697
0.000972728
0.00101205
0.000985448
0.00104016
0.00106633
0.00109744
0.00112464
0.00117053
0.00118943
0.00124644
0.00126881
0.00133918
0.00137954
0.00146192
0.00152406
0.00164282
0.00158171
0.00146128
0.00151605
0.00263003
0.000743857
0.000831126
0.000771454
0.000681571
0.000664206
0.000641262
0.000651609
0.000608456
0.000609298
0.000606653
0.00061316
0.000672384
0.000603217
0.000388395
0.000151129
0.00211501
0.00856949
0.0143177
0.0122897
0.00332435
0.00073286
0.000832496
0.000798421
0.000705324
0.000691285
0.000653052
0.000662469
0.000640389
0.000637954
0.000633279
0.000645283
0.000681064
0.000696422
0.000569071
0.000304445
0.000662483
0.00670389
0.0133319
0.0135263
0.0029721
0.00074786
0.000844945
0.000846246
0.000749749
0.000737397
0.000703143
0.000717139
0.000686938
0.000682001
0.000684496
0.000691098
0.000707048
0.000784756
0.00071332
0.000413775
0.000193841
0.00379706
0.0122663
0.0143483
0.00557388
0.000750086
0.000840809
0.000869087
0.000767196
0.000759064
0.00072808
0.000743118
0.000727399
0.00072853
0.000739194
0.000752852
0.000779964
0.000820754
0.000814989
0.000657174
0.000381863
0.00192748
0.0109744
0.0148385
0.00844432
0.000773135
0.000861068
0.00091389
0.00080936
0.000804099
0.000772592
0.000790703
0.00077545
0.00077625
0.000786697
0.000808596
0.000848356
0.000882158
0.000961237
0.000883028
0.000534085
0.000691178
0.0098514
0.0150492
0.011047
0.000788836
0.00085921
0.000930948
0.000829314
0.000833136
0.000805806
0.000826374
0.000821382
0.000825479
0.000849559
0.000870166
0.000903642
0.000948839
0.000998888
0.000974292
0.000672026
0.000376064
0.00818718
0.0150248
0.0135797
0.000813995
0.000877133
0.000969461
0.000856235
0.000857599
0.000840087
0.000863404
0.000857577
0.000864305
0.000884804
0.000914602
0.000959028
0.00100441
0.00106179
0.00110974
0.000911748
0.000405329
0.00607518
0.0148186
0.0167084
0.00082579
0.000876149
0.000975906
0.000867742
0.000887662
0.000868769
0.000887497
0.000892569
0.000904489
0.00093611
0.000963073
0.00101091
0.00106284
0.00109575
0.00114812
0.00107035
0.000249463
0.00421362
0.0147078
0.0179852
0.0008565
0.000898236
0.00101881
0.000894811
0.000899673
0.00089739
0.000930819
0.000935922
0.000945506
0.000972609
0.00100941
0.00105393
0.00109661
0.00115477
0.00122806
0.00117283
0.000307608
0.00307221
0.0142057
0.0194313
0.000855391
0.000887146
0.0010066
0.000878955
0.000918574
0.000924786
0.000937307
0.000944342
0.000965089
0.00100515
0.00103781
0.00109634
0.00114924
0.00120699
0.00124883
0.0012436
0.000583716
0.00211169
0.0140132
0.0199744
0.000881728
0.00090089
0.00104325
0.000926419
0.00094561
0.000947331
0.00097994
0.000999866
0.00101777
0.00105068
0.00109611
0.00114127
0.0011837
0.00124642
0.00129389
0.00136797
0.000718366
0.00156244
0.0134741
0.0206084
0.00085887
0.000876364
0.00103466