/*--------------------------------*- C++ -*----------------------------------*\
  =========                 |
  \\      /  F ield         | OpenFOAM: The Open Source CFD Toolbox
   \\    /   O peration     | Website:  https://openfoam.org
    \\  /    A nd           | Version:  9
     \\/     M anipulation  |
\*---------------------------------------------------------------------------*/
FoamFile
{
    format      ascii;
    class       volScalarField;
    location    "6.5";
    object      p;
}
// * * * * * * * * * * * * * * * * * * * * * * * * * * * * * * * * * * * * * //

dimensions      [0 2 -2 0 0 0 0];

internalField   nonuniform List<scalar> 
46400
(
-36.6556
-28.4807
-16.4038
-5.62479
3.71023
12.5838
20.446
27.7492
34.3381
40.421
45.9902
51.1707
55.9346
60.4246
64.6422
68.6801
72.4559
76.3947
80.5955
81.8306
-3.45661
2.93907
13.67
23.4929
32.0305
40.0412
47.154
53.6814
59.5595
64.9209
69.8024
74.25
78.336
82.0637
85.5082
88.6931
91.5962
94.4648
97.2087
97.4836
27.8523
32.8859
42.7669
52.051
59.7648
66.9785
73.2736
78.9975
84.0866
88.687
92.8249
96.5918
99.9752
103.067
105.867
108.395
110.633
112.844
114.711
114.128
57.3291
62.7133
72.0875
80.4978
87.4143
93.7548
99.2178
104.115
108.427
112.255
115.653
118.67
121.366
123.744
125.882
127.779
129.408
130.973
132.38
131.441
87.4391
93.3635
101.463
108.726
114.581
119.892
124.471
128.481
132.006
135.067
137.766
140.116
142.179
143.957
145.515
146.843
147.954
149.02
150.002
148.804
117.526
123.964
130.55
136.56
141.301
145.566
149.165
152.286
154.966
157.255
159.202
160.846
162.238
163.392
164.346
165.118
165.674
166.222
166.656
165.206
147.26
153.914
158.475
163.173
166.84
170.01
172.742
174.973
176.894
178.442
179.74
180.755
181.58
182.179
182.638
182.924
183.058
183.128
183.272
181.589
175.717
181.267
184.881
188.218
191.008
193.259
195.157
196.638
197.817
198.687
199.334
199.727
199.964
200.007
199.934
199.74
199.404
199.06
198.835
197.037
201.635
205.617
208.627
210.987
213.022
214.512
215.726
216.53
217.095
217.348
217.433
217.304
217.044
216.628
216.102
215.478
214.739
213.997
213.337
211.327
225.115
228.366
230.679
232.377
233.694
234.54
235.123
235.34
235.361
235.089
234.647
233.982
233.205
232.283
231.285
230.192
229.024
227.863
226.802
224.61
246.051
248.518
250.351
251.352
252.122
252.347
252.359
252.012
251.481
250.737
249.871
248.844
247.702
246.437
245.094
243.654
242.131
240.598
239.147
236.757
265.754
267.701
268.981
269.491
269.775
269.531
269.071
268.224
267.177
265.878
264.481
262.923
261.317
259.609
257.873
256.07
254.216
252.363
250.566
247.989
282.21
283.581
284.404
284.487
284.315
283.699
282.833
281.741
280.475
278.991
277.334
275.512
273.58
271.55
269.459
267.321
265.13
262.945
260.813
258.008
298.443
299.304
299.693
299.277
298.634
297.454
296.046
294.379
292.582
290.642
288.586
286.44
284.205
281.914
279.569
277.2
274.782
272.388
270.092
267.125
311.179
311.263
311.367
310.641
309.732
308.465
306.979
305.203
303.235
301.096
298.827
296.459
294.005
291.489
288.926
286.335
283.708
281.108
278.651
275.549
322.9
322.906
322.323
321.247
319.73
318.01
316.013
313.878
311.561
309.143
306.625
304.035
301.395
298.711
296.004
293.282
290.531
287.815
285.257
282.065
330.49
330.557
329.97
328.89
327.453
325.709
323.688
321.47
319.06
316.538
313.882
311.173
308.376
305.562
302.7
299.851
296.961
294.115
291.46
288.144
337.99
337.629
336.6
335.117
333.337
331.236
328.96
326.452
323.845
321.098
318.299
315.428
312.532
309.604
306.672
303.744
300.807
297.912
295.243
291.947
341.312
341.046
340.024
338.752
337.09
335.168
332.977
330.554
327.968
325.215
322.395
319.467
316.525
313.519
310.533
307.522
304.525
301.553
298.829
295.46
344.034
342.849
342.073
340.432
338.728
336.528
334.235
331.669
329.04
326.246
323.4
320.462
317.494
314.487
311.473
308.461
305.437
302.441
299.621
296.36
-388.66
-387.267
-381.648
-370.662
-356.773
-343.263
-330.455
-317.964
-306.15
-294.772
-283.864
-273.375
-263.344
-253.606
-244.382
-235.335
-226.842
-218.5
-210.664
-203.198
-392.609
-390.763
-381.357
-368.838
-354.04
-339.638
-326.208
-313.289
-300.967
-289.306
-278.107
-267.421
-257.201
-247.342
-238.012
-228.908
-220.39
-212.017
-204.242
-196.774
-393.501
-391.235
-379.492
-365.704
-349.918
-334.861
-320.856
-307.581
-294.948
-282.95
-271.57
-260.67
-250.317
-240.365
-230.974
-221.825
-213.315
-204.936
-197.25
-189.768
-390.048
-388.639
-374.719
-359.573
-344.078
-328.817
-314.377
-300.894
-287.988
-275.827
-264.207
-253.207
-242.725
-232.701
-223.24
-214.065
-205.56
-197.176
-189.548
-182.038
-387.733
-385.897
-372.897
-354.907
-338.172
-322.328
-307.338
-293.313
-280.101
-267.622
-255.857
-244.683
-234.109
-224.035
-214.551
-205.383
-196.917
-188.548
-180.992
-173.481
-383.31
-380.539
-365.674
-347.286
-329.665
-313.383
-298.185
-284.02
-270.647
-258.138
-246.274
-235.096
-224.52
-214.477
-205.011
-195.903
-187.528
-179.148
-171.802
-164.245
-374.551
-371.478
-356.078
-337.151
-319.608
-303.029
-287.687
-273.36
-259.887
-247.275
-235.403
-224.211
-213.654
-203.66
-194.263
-185.268
-176.944
-168.729
-161.551
-154.133
-365.131
-360.861
-344.348
-325.112
-307.221
-290.645
-275.171
-260.905
-247.463
-234.931
-223.145
-212.049
-201.625
-191.767
-182.494
-173.645
-165.466
-157.425
-150.397
-143.072
-351.834
-346.966
-329.753
-310.499
-292.746
-276.246
-260.9
-246.706
-233.389
-220.991
-209.344
-198.43
-188.16
-178.488
-169.396
-160.765
-152.765
-144.93
-138.127
-130.93
-336.335
-330.682
-313.025
-293.826
-276.18
-259.974
-244.746
-230.815
-217.725
-205.537
-194.162
-183.449
-173.445
-164.019
-155.165
-146.785
-139.003
-131.429
-124.89
-117.884
-317.834
-311.589
-293.627
-274.913
-257.484
-241.636
-226.744
-213.076
-200.306
-188.447
-177.35
-166.989
-157.277
-148.161
-139.613
-131.55
-124.056
-116.79
-110.553
-103.682
-297.007
-290.257
-272.352
-253.92
-236.921
-221.522
-207.066
-193.836
-181.479
-169.973
-159.301
-149.264
-139.927
-131.165
-122.954
-115.238
-108.035
-101.118
-95.1834
-88.5571
-273.822
-266.793
-248.753
-231.126
-214.482
-199.658
-185.665
-172.895
-161.013
-149.996
-139.748
-130.203
-121.308
-112.993
-105.234
-97.9689
-91.2108
-84.7482
-79.222
-72.8698
-248.545
-241.289
-223.352
-206.625
-190.578
-176.311
-162.979
-150.724
-139.396
-128.838
-119.105
-109.985
-101.53
-93.6336
-86.2777
-79.4163
-73.0027
-66.9551
-61.752
-55.7019
-221.805
-214.441
-196.235
-180.459
-165.079
-151.485
-138.776
-127.163
-116.429
-106.482
-97.2913
-88.7502
-80.8429
-73.4762
-66.6475
-60.3028
-54.4008
-48.8639
-44.0848
-38.3328
-193.676
-185.708
-167.664
-152.943
-138.488
-125.564
-113.663
-102.643
-92.5683
-83.1723
-74.5513
-66.525
-59.1025
-52.2156
-45.8506
-39.9634
-34.4793
-29.4353
-25.0457
-19.662
-164.018
-155.99
-138.655
-124.506
-110.993
-98.7754
-87.5702
-77.2807
-67.8377
-59.0987
-51.0685
-43.629
-36.7876
-30.4263
-24.5793
-19.1875
-14.1943
-9.67093
-5.6925
-0.653753
-133.157
-125.088
-108.645
-95.4183
-82.7735
-71.3254
-60.9224
-51.2791
-42.5398
-34.3989
-26.9504
-20.0634
-13.7084
-7.84533
-2.4659
2.48929
7.07476
11.0903
14.6767
19.3174
-101.389
-93.4539
-78.1109
-65.5989
-54.0785
-43.3957
-33.8073
-24.9265
-16.8552
-9.39351
-2.55229
3.77822
9.57954
14.9767
19.9156
24.5021
28.7317
32.3115
35.697
40.6022
-69.6686
-61.5199
-47.4848
-35.8239
-25.2298
-15.3971
-6.57747
1.59099
8.99382
15.8642
22.1841
28.0373
33.4904
38.5696
43.3287
47.8826
52.1241
56.0141
60.4133
65.502
-166.525
-126.19
-88.0736
-64.4533
-40.6111
-25.6822
-10.3904
-0.370732
9.3749
16.4131
22.5724
27.6247
31.6416
35.2212
37.8834
40.4074
42.5832
43.8093
44.6725
44.9226
-160.494
-122.071
-84.6581
-61.9787
-38.6838
-24.1279
-9.10051
0.673841
10.2382
17.1983
23.1868
28.1765
32.0782
35.5952
38.0858
40.6608
42.615
43.8918
44.7214
44.9229
-154.036
-117.533
-81.0567
-59.3458
-36.5676
-22.4061
-7.74315
1.82658
11.1496
18.0003
23.8252
28.7671
32.5554
36.0317
38.3425
40.9428
42.6007
44.076
44.8717
44.9792
-146.961
-112.758
-77.2018
-56.3914
-34.3712
-20.4959
-6.24191
3.09873
12.1661
18.9214
24.5544
29.3988
33.0781
36.4706
38.5789
41.2239
42.5975
44.2434
44.9843
45.0131
-139.326
-107.51
-73.0057
-53.3331
-31.8963
-18.6158
-4.71494
4.43013
13.2047
19.8533
25.3108
30.0687
33.6432
36.9729
38.8885
41.5214
42.6166
44.5373
45.0956
45.0917
-131.077
-102.031
-68.5885
-50.1006
-29.3994
-16.5091
-2.99654
5.88856
14.3684
20.907
26.1595
30.7765
34.2506
37.4774
39.199
41.8602
42.6644
44.8177
45.1835
45.1554
-122.249
-96.0187
-63.7979
-46.7156
-26.597
-14.4064
-1.30668
7.39215
15.5298
21.9638
27.0279
31.5339
34.903
38.0551
39.5838
42.3056
42.7957
45.165
45.2485
45.2559
-113.06
-89.5608
-58.9638
-43.0027
-23.8647
-12.0562
0.57172
9.02778
16.8293
23.1476
27.9889
32.331
35.5912
38.6311
39.9317
42.824
43.0333
45.4781
45.3116
45.3424
-103.322
-82.6102
-53.8985
-39.0287
-20.9101
-9.63081
2.42606
10.6975
18.1125
24.3197
28.9633
33.1789
36.3292
39.2677
40.3455
43.3614
43.3204
45.7895
45.378
45.4631
-93.1822
-75.2732
-48.6745
-34.8344
-17.9268
-7.0389
4.45384
12.5029
19.5501
25.6194
30.0253
34.0736
37.1029
39.8908
40.812
43.9192
43.5909
46.0839
45.4584
45.5778
-82.2624
-67.4924
-43.2524
-30.4403
-14.7944
-4.36161
6.48276
14.3133
20.955
26.9055
31.098
35.0157
37.9279
40.5855
41.4316
44.4923
43.8759
46.3703
45.5396
45.7225
-70.9767
-59.3912
-37.6276
-25.8669
-11.5584
-1.57663
8.66854
16.2737
22.5271
28.3052
32.2532
36.0034
38.787
41.2832
42.12
44.9918
44.142
46.6611
45.6229
45.8731
-58.6421
-50.9318
-31.8188
-21.149
-8.18822
1.26121
10.8482
18.2187
24.0573
29.71
33.4193
37.0304
39.6954
42.0482
42.8421
45.5181
44.4132
46.9618
45.7029
46.0436
-46.0696
-42.1254
-25.806
-16.2648
-4.7029
4.21899
13.1833
20.313
25.7169
31.2383
34.6688
38.0994
40.6386
42.8166
43.5742
46.0629
44.6421
47.2544
45.7732
46.2151
-32.5309
-33.0602
-19.7229
-11.2809
-1.11852
7.19402
15.4723
22.4141
27.3362
32.773
35.9352
39.2023
41.6337
43.6465
44.3248
46.6861
44.8483
47.5634
45.7773
46.395
-18.2245
-23.5277
-13.4184
-6.19522
2.56173
10.2725
17.8825
24.6051
29.0684
34.3733
37.2684
40.326
42.6503
44.4566
45.0627
47.324
45.0153
47.7722
45.7096
46.6768
-3.55266
-13.5704
-6.88308
-0.802549
6.48054
13.4831
20.3695
26.8811
30.8406
36.0296
38.6459
41.531
43.7483
45.3705
45.9039
48.0732
45.2426
47.9776
45.5462
46.8243
10.7043
-4.37222
-0.789746
4.35221
10.3796
16.7392
22.8965
29.2347
32.7157
37.7656
40.1209
42.7806
44.9145
46.2908
46.8342
48.7961
45.4549
48.665
45.5282
47.3911
29.9876
6.30311
4.89279
8.56596
13.5612
19.1916
24.7814
31.0935
34.166
39.1765
41.32
43.6984
45.8563
46.869
47.5116
49.1995
45.603
48.5224
45.3198
47.4005
53.6209
22.4402
14.8198
16.1939
19.0995
23.6569
28.2984
33.9704
36.5284
41.1661
42.9212
45.2764
47.1086
48.245
48.7295
50.4928
46.5374
48.1906
44.033
48.078
94.0244
94.8464
77.3582
73.1224
62.8285
63.9684
58.5205
60.046
57.9908
59.8815
58.726
61.6205
60.2089
63.0322
61.2989
63.9528
60.5106
64.8338
48.1557
71.2119
140.936
130.731
107.691
101.519
88.9887
85.0305
78.3535
76.4376
72.5211
71.7983
69.3216
69.3771
67.626
68.2989
66.7872
67.755
65.5445
67.5429
65.0315
67.9
150.357
139.888
127.518
119.023
110.263
104.559
98.421
95.1181
91.304
89.2353
86.7536
85.6122
83.9783
83.438
82.1441
82.1808
80.9949
80.8297
80.0224
80.6377
152.623
145.121
135.007
128.072
120.529
115.18
109.659
105.355
101.275
98.2101
95.2401
92.9165
90.5837
88.9648
87.3357
86.2665
85.1908
84.5617
83.9391
83.9811
148.685
142.273
136.58
131.072
126.071
121.373
117.235
113.51
110.159
107.263
104.582
102.341
100.158
98.3205
96.4477
94.8602
93.1548
91.7186
90.8285
90.8248
146.908
142.697
138.584
134.076
130.038
126.032
122.371
118.921
115.71
112.799
110.027
107.583
105.168
103.041
100.995
99.0141
97.337
95.6631
94.5312
94.2013
143.296
140.06
137.033
133.968
131.09
128.245
125.484
122.894
120.322
118.037
115.628
113.58
111.31
109.427
107.214
105.33
103.173
101.158
99.7353
99.0767
142.748
140.496
138.669
135.981
133.466
130.983
128.691
126.388
124.096
121.97
119.736
117.787
115.546
113.702
111.402
109.545
107.098
105.071
102.983
102.339
140.779
138.797
137.213
135.564
134.07
132.462
130.699
129.144
127.366
125.863
124.032
122.596
120.639
119.231
117.059
115.575
112.943
111.372
108.739
108.196
141.078
140.219
139.087
137.972
136.53
135.131
133.521
132.17
130.707
129.412
127.92
126.685
125.108
123.923
122.095
120.874
118.363
117.201
113.637
113.511
140.94
140.055
139.07
138.281
137.496
136.771
135.923
135.107
134.085
133.317
132.274
131.569
130.471
129.812
128.545
128.014
126.059
126.194
122.326
124.419
141.938
141.568
141.002
140.425
139.638
138.982
138.271
137.71
137.127
136.676
136.207
135.853
135.528
135.273
135.093
135.048
135.013
135.296
136.309
138.285
142.689
142.395
141.967
141.674
141.291
141.005
140.616
140.393
140.042
139.942
139.781
139.866
140.023
140.305
141.009
141.375
143.003
143.24
146.576
147.236
143.443
143.249
142.951
142.785
142.539
142.485
142.336
142.409
142.379
142.634
142.763
143.296
143.651
144.592
145.288
146.782
148.02
150.407
153.148
154.549
144.48
144.401
144.243
144.213
144.123
144.176
144.169
144.345
144.459
144.817
145.116
145.741
146.332
147.295
148.254
149.751
151.217
153.464
155.995
159.971
145.155
145.121
145.058
145.088
145.091
145.232
145.334
145.627
145.842
146.319
146.665
147.38
147.848
148.886
149.548
150.936
151.814
153.55
154.144
164.453
145.919
145.928
145.918
145.998
146.105
146.306
146.49
146.767
147.011
147.427
147.797
148.39
148.882
149.715
150.246
151.343
151.811
154.801
155.186
156.919
146.423
146.439
146.485
146.592
146.682
146.854
147.028
147.348
147.661
148.125
148.524
149.141
149.625
150.383
150.978
151.947
152.582
153.77
154.312
156.135
146.735
146.791
146.869
147.004
147.154
147.368
147.596
147.897
148.19
148.58
148.946
149.451
149.89
150.538
151.01
151.739
152.277
153.103
153.685
154.315
146.913
146.961
147.032
147.145
147.282
147.476
147.697
147.989
148.304
148.702
149.095
149.583
150.025
150.566
151.044
151.629
152.054
152.62
152.754
155.506
257.294
256.229
254.361
252.093
248.851
245.296
240.703
235.831
229.823
223.367
216.421
208.242
199.567
190.684
180.99
170.605
159.917
148.585
137.179
125.229
229.514
228.901
227.908
226.673
225.043
223.214
220.956
218.522
215.677
212.741
209.244
204.076
198.968
195.196
190.524
186.362
181.375
176.578
170.983
164.638
190.465
190.019
189.533
188.857
188.081
187.179
186.102
184.982
183.596
182.232
180.502
178.87
177.02
175.264
173.051
171.069
168.329
165.914
162.853
160.673
178.546
178.244
177.846
177.421
176.896
176.34
175.667
174.954
174.105
173.244
172.212
171.223
170.017
168.916
167.545
166.326
164.813
163.341
161.142
159.357
162.169
161.941
161.712
161.421
161.093
160.737
160.31
159.891
159.37
158.892
158.312
157.774
157.111
156.523
155.759
155.121
154.252
153.574
152.625
152.031
156.852
156.686
156.488
156.275
156.035
155.774
155.492
155.183
154.857
154.499
154.078
153.67
153.17
152.716
152.151
151.657
151.021
150.497
149.791
149.267
150.277
150.153
150.008
149.85
149.667
149.476
149.255
149.031
148.774
148.511
148.205
147.904
147.567
147.257
146.881
146.545
146.081
145.713
145.047
144.536
147.913
147.81
147.693
147.568
147.429
147.281
147.118
146.948
146.763
146.572
146.366
146.16
145.896
145.654
145.356
145.103
144.774
144.52
144.171
143.852
145.446
145.359
145.262
145.154
145.033
144.902
144.76
144.611
144.455
144.288
144.104
143.911
143.673
143.457
143.086
142.787
142.357
142.023
141.621
141.294
144.451
144.381
144.299
144.215
144.121
144.026
143.92
143.807
143.68
143.55
143.405
143.26
143.099
142.935
142.753
142.57
142.38
142.18
141.959
141.757
143.966
143.885
143.798
143.71
143.62
143.528
143.432
143.332
143.223
143.108
142.985
142.855
142.715
142.568
142.411
142.25
142.075
141.9
141.712
141.521
144.044
143.97
143.898
143.822
143.738
143.65
143.558
143.462
143.36
143.256
143.154
143.061
142.969
142.874
142.775
142.674
142.57
142.461
142.355
142.24
144.503
144.451
144.396
144.338
144.278
144.213
144.145
144.073
143.999
143.92
143.838
143.751
143.663
143.57
143.477
143.378
143.28
143.177
143.075
142.966
144.804
144.76
144.714
144.666
144.616
144.564
144.511
144.455
144.398
144.339
144.279
144.215
144.152
144.085
144.019
143.947
143.877
143.8
143.728
143.645
145.508
145.468
145.428
145.386
145.343
145.3
145.256
145.21
145.164
145.117
145.07
145.021
144.973
144.922
144.873
144.82
144.771
144.716
144.667
144.61
145.914
145.872
145.83
145.79
145.751
145.712
145.675
145.638
145.603
145.567
145.533
145.498
145.464
145.429
145.396
145.361
145.33
145.294
145.265
145.227
146.536
146.508
146.479
146.449
146.418
146.389
146.359
146.327
146.295
146.259
146.224
146.188
146.156
146.123
146.094
146.065
146.039
146.011
145.99
145.964
146.786
146.745
146.707
146.672
146.638
146.605
146.575
146.549
146.527
146.51
146.495
146.48
146.468
146.457
146.448
146.44
146.434
146.429
146.425
146.421
147.167
147.131
147.097
147.064
147.033
147.003
146.973
146.945
146.917
146.892
146.87
146.85
146.833
146.816
146.801
146.785
146.774
146.762
146.757
146.752
147.294
147.261
147.229
147.197
147.167
147.138
147.11
147.084
147.058
147.034
147.012
146.991
146.971
146.952
146.936
146.921
146.911
146.903
146.899
146.9
93.7346
91.3497
85.9859
81.0539
76.1459
70.8975
65.3826
59.5202
53.2423
46.4429
39.1238
31.1022
22.453
12.8823
2.52943
-8.95818
-21.6101
-35.1882
-51.803
-60.28
107.49
106.32
102.671
98.8595
94.9119
90.5764
85.8828
80.7918
75.2455
69.2071
62.6297
55.4278
47.577
38.8954
29.4739
18.9276
7.4978
-5.15979
-20.2065
-28.9569
123.157
122.91
120.017
116.905
113.624
109.953
105.946
101.566
96.7756
91.5155
85.7723
79.408
72.479
64.7333
56.3315
46.8565
36.5832
25.0881
11.5155
3.01485
139.511
139.549
137.162
134.697
132.068
129.091
125.801
122.162
118.107
113.628
108.654
103.139
97.0414
90.2307
82.7771
74.3191
65.2438
54.8152
42.9884
35.3523
155.527
156.059
154.273
152.414
150.403
148.052
145.41
142.426
139.074
135.317
131.114
126.382
121.133
115.178
108.633
101.13
93.0254
83.5721
73.0679
66.9445
171.974
172.689
171.263
169.875
168.35
166.553
164.491
162.14
159.447
156.396
152.912
148.972
144.505
139.416
133.719
127.136
119.904
111.362
101.642
96.3332
187.739
188.643
187.664
186.764
185.75
184.496
183.005
181.26
179.209
176.843
174.087
170.914
167.262
163.028
158.239
152.572
146.315
138.71
129.731
124.533
202.29
203.437
202.982
202.571
202.079
201.385
200.483
199.365
197.985
196.319
194.303
191.922
189.085
185.753
181.844
177.194
171.951
165.419
157.717
151.963
216.276
217.706
217.732
217.798
217.799
217.622
217.265
216.724
215.945
214.926
213.598
211.958
209.901
207.419
204.416
200.789
196.601
191.248
185.292
179.058
229.022
230.678
231.174
231.709
232.192
232.55
232.744
232.808
232.653
232.307
231.674
230.766
229.478
227.841
225.709
223.103
219.88
215.873
211.291
205.501
240.867
242.855
243.848
244.848
245.823
246.655
247.355
247.908
248.271
248.44
248.357
248.065
247.452
246.555
245.209
243.483
241.185
238.37
234.81
230.354
251.534
253.791
255.185
256.606
257.982
259.245
260.383
261.419
262.286
263.027
263.566
263.926
263.987
263.774
263.138
262.172
260.687
258.753
256.114
252.609
261.949
264.42
266.035
267.729
269.409
270.997
272.505
273.93
275.229
276.409
277.397
278.184
278.697
278.988
278.911
278.557
277.707
276.501
274.562
271.804
270.348
272.883
274.817
276.833
278.84
280.796
282.685
284.515
286.23
287.849
289.283
290.584
291.63
292.496
293.017
293.283
293.035
292.469
291.113
289.034
277.886
280.754
283.015
285.364
287.694
289.975
292.18
294.325
296.355
298.281
300.038
301.663
303.046
304.266
305.142
305.841
305.991
305.869
304.963
303.419
284.486
287.434
289.787
292.266
294.745
297.18
299.566
301.912
304.163
306.354
308.415
310.389
312.179
313.829
315.196
316.354
316.987
317.378
316.946
316.031
289.311
292.343
294.905
297.597
300.307
302.981
305.645
308.264
310.842
313.348
315.765
318.071
320.199
322.142
323.763
325.114
326.041
326.865
326.899
326.833
293.319
296.48
299.177
302.023
304.874
307.704
310.5
313.273
315.967
318.602
321.105
323.501
325.692
327.744
329.518
331.157
332.519
333.676
334.323
334.497
295.58
298.754
301.502
304.415
307.342
310.26
313.157
316.047
318.878
321.68
324.374
327.01
329.486
331.862
334.025
336.014
337.686
338.952
339.684
339.761
296.917
300.231
303.087
306.115
309.142
312.172
315.169
318.171
321.096
324.001
326.774
329.502
332.016
334.459
336.574
338.544
340.011
341.277
342.075
342.403
-134.867
-140.351
-146.115
-152.174
-158.255
-164.709
-171.158
-177.917
-184.726
-191.756
-198.865
-206.067
-213.469
-220.789
-228.294
-235.218
-240.925
-244.53
-244.092
-244.602
-130.934
-136.616
-142.522
-148.834
-155.144
-161.906
-168.692
-175.851
-183.139
-190.674
-198.411
-206.35
-214.534
-222.688
-231.175
-239.306
-246.884
-252.687
-252.493
-253.566
-126.424
-132.345
-138.459
-145.083
-151.727
-158.873
-166.123
-173.776
-181.648
-189.848
-198.332
-207.118
-216.183
-225.651
-235.299
-245.278
-255.035
-262.92
-265.25
-265.836
-121.983
-128.151
-134.437
-141.359
-148.286
-155.793
-163.453
-171.579
-180.023
-188.869
-198.143
-207.826
-218.053
-228.855
-239.934
-251.96
-264.218
-275.022
-280.697
-281.388
-116.724
-123.141
-129.611
-136.813
-144.053
-151.909
-160.008
-168.618
-177.639
-187.155
-197.188
-207.794
-219.063
-230.965
-243.731
-257.434
-272.017
-285.857
-295.605
-296.48
-111.065
-117.716
-124.32
-131.773
-139.263
-147.416
-155.875
-164.881
-174.38
-184.425
-195.1
-206.419
-218.518
-231.441
-245.476
-260.44
-276.674
-292.937
-306.158
-306.682
-104.548
-111.389
-118.088
-125.733
-133.43
-141.806
-150.556
-159.887
-169.77
-180.277
-191.467
-203.399
-216.181
-229.913
-244.683
-260.593
-277.808
-295.592
-310.99
-313.856
-97.4568
-104.411
-111.067
-118.814
-126.601
-135.103
-144.035
-153.58
-163.734
-174.546
-186.108
-198.442
-211.738
-225.989
-241.402
-258.174
-276.399
-295.587
-310.905
-315.566
-88.9722
-96.0398
-102.73
-110.511
-118.406
-126.988
-136.06
-145.748
-156.077
-167.075
-178.869
-191.501
-205.093
-219.688
-235.462
-252.64
-270.955
-290.14
-308.625
-312.927
-80.0604
-87.1381
-93.6595
-101.345
-109.187
-117.696
-126.739
-136.423
-146.788
-157.885
-169.811
-182.614
-196.473
-211.353
-227.623
-245.22
-264.115
-285.464
-302.913
-306.918
-69.4556
-76.4473
-82.8335
-90.3845
-98.1564
-106.571
-115.569
-125.211
-135.536
-146.611
-158.499
-171.294
-185.106
-200.011
-216.281
-233.86
-253.294
-274.172
-293.553
-299.239
-58.1696
-65.1353
-71.2559
-78.5881
-86.1791
-94.3915
-103.197
-112.65
-122.805
-133.727
-145.488
-158.171
-171.922
-186.728
-202.927
-220.403
-239.35
-260.322
-279.577
-285.328
-44.3991
-51.3859
-57.4227
-64.5549
-72.0186
-80.0369
-88.666
-97.9375
-107.893
-118.61
-130.147
-142.61
-156.079
-170.647
-186.626
-203.773
-222.88
-243.522
-263.355
-270.334
-30.4178
-37.3346
-43.1835
-50.0501
-57.2529
-64.985
-73.311
-82.2601
-91.8792
-102.255
-113.437
-125.531
-138.638
-152.831
-168.345
-185.038
-203.455
-223.525
-243.25
-250.374
-15.6403
-22.2386
-27.6489
-34.0373
-40.8552
-48.1705
-56.1012
-64.6597
-73.8865
-83.8666
-94.6458
-106.342
-119.003
-132.744
-147.792
-163.958
-182.125
-201.465
-221.223
-228.907
0.628898
-5.75571
-10.8877
-16.8931
-23.384
-30.35
-37.9049
-46.0781
-54.8848
-64.4274
-74.7251
-85.8975
-97.9992
-111.161
-125.536
-141.062
-158.386
-176.658
-196.668
-204.305
17.4313
11.3145
6.61466
1.13669
-4.92681
-11.4293
-18.5117
-26.2021
-34.5122
-43.5355
-53.2965
-63.9359
-75.4544
-88.0249
-101.734
-116.574
-133.11
-150.586
-170.281
-178.202
35.4414
29.6553
25.3133
20.3248
14.6338
8.51209
1.85262
-5.40682
-13.2508
-21.7828
-31.0134
-41.0595
-51.942
-63.8184
-76.7758
-90.8415
-106.497
-123.147
-142.245
-150.394
55.4356
49.2815
45.0357
40.4698
35.0782
29.2645
23.0005
16.1817
8.81741
0.812571
-7.8271
-17.2703
-27.4637
-38.6707
-50.8361
-64.1118
-78.8932
-94.516
-112.911
-121.167
79.5236
73.2714
67.6171
62.5535
57.0646
51.1918
45.0329
38.4653
31.4518
23.9013
15.778
6.9585
-2.58224
-13.0315
-24.3613
-36.821
-50.5833
-65.3406
-82.9161
-91.1128
59.9245
59.9141
59.0395
57.95
56.1934
53.4679
51.5358
47.8637
44.9753
40.1665
35.5828
29.3219
21.8906
13.6642
1.42412
-9.84385
-29.3351
-46.6006
-76.7547
-107.68
60.0489
60.0366
59.4132
58.2333
56.7086
54.0427
52.2576
48.6866
45.9271
41.2489
36.8371
30.752
23.5317
15.5805
3.63359
-7.25985
-26.5775
-42.9553
-72.8828
-103.139
60.238
60.2265
59.8179
58.5324
57.1945
54.5984
52.9653
49.5057
46.891
42.3408
38.0832
32.1684
25.1672
17.4921
5.76061
-4.52696
-23.4625
-39.1839
-68.9251
-97.9119
60.3949
60.3544
60.1772
58.8806
57.7254
55.2099
53.7288
50.3842
47.9
43.4824
39.4084
33.6596
26.906
19.4568
8.06512
-1.7786
-20.5881
-35.3012
-64.8619
-92.9137
60.6278
60.5683
60.4949
59.2449
58.2754
55.8041
54.4837
51.257
48.9192
44.6325
40.7229
35.1348
28.6314
21.4244
10.3538
0.982657
-17.3384
-31.1746
-60.5307
-87.1434
60.8471
60.7945
60.8222
59.6197
58.9269
56.4714
55.2768
52.194
49.9874
45.8331
42.1166
36.6873
30.4611
23.4517
12.8074
3.80479
-14.1847
-27.1722
-56.2053
-81.352
61.0952
61.049
61.1721
60.0013
59.6155
57.1162
56.0695
53.1209
51.0643
47.043
43.4973
38.2241
32.274
25.4846
15.24
6.62236
-10.7211
-22.8549
-51.2792
-74.7421
61.3465
61.3346
61.5801
60.4023
60.2708
57.851
57.0201
54.1208
52.1933
48.3036
44.955
39.8386
34.1879
27.5831
17.82
9.53975
-7.31477
-18.6273
-46.361
-68.1648
61.6154
61.6513
61.96
60.8243
60.9154
58.5943
57.8581
55.1298
53.3246
49.5736
46.3984
41.4385
36.0838
29.6839
20.3877
12.4314
-3.6513
-14.0588
-40.7723
-60.6134
61.8998
61.9849
62.3205
61.2827
61.5771
59.4171
58.7827
56.1879
54.5097
50.8923
47.9138
43.1154
38.073
31.8575
23.0859
15.4357
0.0282548
-9.53226
-35.2706
-53.1394
62.2143
62.3577
62.7077
61.7738
62.248
60.1629
59.6941
57.2468
55.6961
52.2202
49.415
44.7791
40.0449
34.0302
25.7775
18.4078
3.90822
-4.68985
-29.1051
-44.7325
62.5477
62.7522
63.0827
62.3076
62.9162
60.994
60.6935
58.3552
56.9354
53.5937
50.9813
46.5167
42.0988
36.281
28.5788
21.4869
7.86851
0.112893
-22.9522
-35.0776
62.859
63.1267
63.4726
62.8671
63.6242
61.7009
61.6548
59.4594
58.1742
54.9751
52.5338
48.2422
44.1377
38.529
31.3725
24.5368
11.9441
5.12338
-16.0747
-23.7278
63.1514
63.4456
63.8574
63.4204
64.3863
62.568
62.6901
60.6189
59.4654
56.4005
54.1454
50.0394
46.2503
40.8627
34.2628
27.6968
16.1893
10.7142
-9.35025
-13.8029
63.4178
63.6983
64.2598
63.9615
65.1606
63.463
63.7122
61.7781
60.754
57.8294
55.7426
51.8233
48.3461
43.1838
37.1199
30.8015
20.5366
16.6923
-1.95758
-2.46936
63.6907
63.9048
64.6068
64.5106
65.963
64.3942
64.7993
62.9872
62.0838
59.2879
57.377
53.6563
50.4856
45.5657
40.0221
33.9554
25.0156
21.8245
5.58817
9.35648
63.9054
64.0878
64.9522
65.0938
66.8252
65.3657
65.8875
64.1998
63.4295
60.7795
59.036
55.5223
52.6845
48.0358
43.0321
37.2912
29.8029
27.3594
13.7997
22.1272
64.3756
64.391
65.8376
65.7029
67.718
66.4058
67.0541
65.4952
64.8351
62.3076
60.7537
57.4658
54.9318
50.5382
45.9595
40.4954
34.369
32.5489
21.273
34.3455
64.4279
64.2481
65.9643
66.2571
68.476
67.3334
68.0859
66.6399
66.0547
63.6024
62.1755
59.0759
56.7447
52.4891
48.0493
42.7951
38.0077
36.7199
29.6516
51.8113
64.9751
63.04
65.6444
67.0442
69.5578
68.4631
69.3126
67.9412
67.5174
65.2949
63.9582
61.0821
59.2527
55.4798
52.019
47.7292
45.1487
45.1756
43.2478
72.6179
84.8741
70.1105
80.2413
76.0596
79.8927
78.0641
79.6539
78.7541
79.8983
79.5902
81.0112
80.6782
83.1939
83.2887
88.2595
90.1198
97.5629
100.96
114.617
107.443
83.6945
80.7938
83.7558
82.0753
84.5694
84.0538
85.6204
86.0327
87.585
88.6423
91.1115
93.3721
97.4627
100.849
107.444
111.918
123.078
129.946
148.794
157.885
97.5266
97.2415
97.2195
98.0029
98.0243
98.9915
99.8861
101.066
102.739
104.437
107.177
109.53
113.162
116.496
121.778
126.648
134.48
140.879
152.36
161.042
101.008
101.124
101.025
102.041
102.766
103.797
105.226
106.986
109.264
111.731
114.628
117.665
121.641
125.595
130.904
135.867
142.97
148.812
157.909
162.45
107.373
107.484
108.057
109.229
110.211
111.514
112.974
114.644
116.512
118.454
120.85
123.405
126.404
129.582
133.184
137.026
141.248
145.583
150.224
156.136
110.183
110.359
110.928
112.21
113.443
115.101
116.81
118.576
120.67
122.8
125.338
127.756
130.754
133.535
136.992
140.135
143.765
147.275
150.971
153.888
113.934
114.105
115.11
116.33
117.698
119.276
120.851
122.504
124.341
126.127
128.144
130.13
132.308
134.498
136.789
139.118
141.436
143.802
145.575
148.039
115.706
116.139
117.212
118.585
120.163
121.824
123.628
125.231
127.162
128.794
130.812
132.503
134.561
136.331
138.321
140.203
141.926
143.972
145.575
147.041
117.441
118.015
119.604
121.247
123.406
124.852
126.846
128.174
130.016
131.305
133.033
134.314
135.975
137.231
138.856
140.03
141.568
142.63
143.509
144.309
118.324
119.044
121.603
123.307
125.832
127.311
129.343
130.61
132.339
133.491
135.015
136.097
137.462
138.484
139.691
140.643
141.653
142.49
143.424
144.055
122.115
122.622
125.702
127.279
130.065
131.262
133.231
134.15
135.676
136.464
137.709
138.425
139.487
140.142
141.071
141.658
142.457
142.965
143.431
143.724
126.236
125.615
131.896
132.265
134.815
135.454
136.952
137.513
138.573
139.068
139.9
140.371
141.075
141.496
142.088
142.447
142.914
143.221
143.63
143.82
142.835
140.154
141.105
140.07
141.618
141.443
142.198
142.185
142.709
142.762
143.196
143.264
143.629
143.712
144.043
144.126
144.41
144.465
144.674
144.655
153.768
151.525
148.932
148.719
147.486
147.073
146.441
146.127
145.795
145.552
145.434
145.254
145.257
145.176
145.234
145.167
145.235
145.17
145.25
145.14
160.748
160.338
156.974
155.246
153.605
151.942
151.059
149.916
149.513
148.651
148.396
147.792
147.623
147.156
147.051
146.721
146.638
146.387
146.297
146.075
169.312
164.636
161.375
158.418
156.811
155.129
153.972
152.638
151.781
150.859
150.257
149.539
149.107
148.52
148.188
147.742
147.506
147.171
147.019
146.752
174.553
161.628
160.894
158.795
157.58
155.861
154.92
153.668
152.884
151.887
151.274
150.554
150.055
149.549
149.17
148.776
148.483
148.139
147.878
147.563
164.828
162.153
161.321
159.176
158.394
156.857
156.027
154.802
154.086
153.113
152.465
151.666
151.115
150.452
149.962
149.435
149.027
148.614
148.298
147.975
166.69
160.385
160.079
158.831
158.207
156.917
156.196
155.086
154.32
153.43
152.737
152.011
151.417
150.835
150.345
149.857
149.45
149.042
148.704
148.368
162.393
160.847
160.355
159.192
158.356
157.279
156.435
155.466
154.676
153.825
153.117
152.385
151.768
151.15
150.62
150.107
149.661
149.242
148.874
148.536
137.589