/*--------------------------------*- C++ -*----------------------------------*\
  =========                 |
  \\      /  F ield         | OpenFOAM: The Open Source CFD Toolbox
   \\    /   O peration     | Website:  https://openfoam.org
    \\  /    A nd           | Version:  9
     \\/     M anipulation  |
\*---------------------------------------------------------------------------*/
FoamFile
{
    format      ascii;
    class       volVectorField;
    location    "6.5";
    object      U;
}
// * * * * * * * * * * * * * * * * * * * * * * * * * * * * * * * * * * * * * //

dimensions      [0 1 -1 0 0 0 0];

internalField   nonuniform List<vector> 
46400
(
(8.7763 -8.41151 -1.3822e-19)
(17.0308 -16.5385 8.71294e-20)
(17.913 -18.1062 -4.49914e-20)
(17.1935 -18.267 -4.77166e-20)
(16.6203 -18.2968 -3.4697e-20)
(16.0014 -18.4101 6.7583e-20)
(15.446 -18.4588 -6.0677e-20)
(14.864 -18.464 3.67783e-20)
(14.3577 -18.5305 -4.16898e-20)
(13.8718 -18.5808 4.59906e-20)
(13.4142 -18.6486 -4.97232e-20)
(12.9902 -18.717 0)
(12.5804 -18.7784 3.31153e-19)
(12.1833 -18.8324 -3.80918e-19)
(11.8319 -18.9202 -4.9023e-19)
(11.4996 -18.9995 -8.72528e-20)
(11.1221 -19.02 -2.4122e-20)
(10.7747 -18.9877 3.92716e-19)
(10.4555 -18.9577 5.47681e-19)
(10.0239 -19.1574 -5.00695e-19)
(8.97327 -7.93738 0)
(17.0678 -15.4343 -2.6183e-20)
(17.7794 -16.7328 0)
(17.0471 -16.8762 1.16379e-19)
(16.4441 -16.9475 -1.05739e-19)
(15.8496 -17.0954 2.46181e-20)
(15.303 -17.2154 0)
(14.7434 -17.3039 -3.67776e-20)
(14.2084 -17.3609 4.16889e-20)
(13.7197 -17.4523 -4.59896e-20)
(13.2822 -17.5886 5.44536e-19)
(12.8383 -17.6606 2.88451e-20)
(12.4217 -17.7742 -4.51645e-19)
(12.0574 -17.8706 0)
(11.6562 -17.9471 6.05014e-20)
(11.3288 -18.0365 6.24507e-20)
(10.994 -18.1323 0)
(10.6943 -18.1584 -6.046e-19)
(10.4167 -18.1945 -1.55135e-19)
(10.0356 -18.3904 6.08244e-19)
(9.14105 -7.42093 6.48106e-20)
(16.9885 -14.2513 -1.61907e-19)
(17.5106 -15.3726 1.4871e-19)
(16.7325 -15.55 2.1695e-19)
(16.1535 -15.6689 -2.12995e-19)
(15.544 -15.8353 0)
(14.9977 -15.9762 -6.3907e-19)
(14.4574 -16.1077 5.50132e-19)
(13.9599 -16.2538 -6.99113e-19)
(13.4483 -16.3127 6.91128e-19)
(13.0102 -16.4741 6.50683e-19)
(12.5964 -16.5882 -6.67739e-20)
(12.2008 -16.7304 -5.61757e-19)
(11.828 -16.8432 0)
(11.4898 -16.9867 6.90683e-19)
(11.1815 -17.1339 -6.8019e-19)
(10.8547 -17.2669 0)
(10.5469 -17.3181 -1.40604e-20)
(10.2578 -17.3956 7.91368e-20)
(9.8956 -17.6579 -7.24098e-19)
(9.37934 -6.89476 -1.81979e-19)
(16.7472 -12.9201 4.52702e-20)
(17.1037 -13.9219 2.99904e-19)
(16.4058 -14.1751 -2.96048e-19)
(15.786 -14.3489 -2.48915e-19)
(15.2163 -14.5731 3.38957e-19)
(14.6755 -14.793 4.53029e-19)
(14.1334 -14.9432 -1.13519e-18)
(13.6357 -15.1456 9.4709e-19)
(13.1572 -15.2838 -8.77272e-20)
(12.7062 -15.4501 0)
(12.2978 -15.61 9.09425e-20)
(11.8855 -15.7654 -9.20241e-20)
(11.5443 -15.9444 0)
(11.1379 -16.042 8.17674e-19)
(10.8134 -16.1789 -6.9628e-19)
(10.5412 -16.3998 0)
(10.2695 -16.5469 9.38982e-20)
(9.98335 -16.6319 1.05877e-19)
(9.59918 -16.9068 8.35776e-19)
(9.70215 -6.4745 0)
(16.3963 -11.6424 0)
(16.646 -12.6105 -4.1321e-19)
(15.8606 -12.8543 2.8881e-19)
(15.2642 -13.099 -5.4288e-19)
(14.6831 -13.332 4.38707e-19)
(14.158 -13.5878 0)
(13.6501 -13.7977 4.7058e-19)
(13.1723 -14.0287 -5.69344e-19)
(12.7008 -14.1997 -1.27622e-19)
(12.2625 -14.4076 -1.27523e-19)
(11.8606 -14.5725 0)
(11.4735 -14.7677 9.51712e-19)
(11.1434 -14.9633 -9.36821e-19)
(10.8458 -15.1965 0)
(10.4946 -15.3047 -1.04486e-18)
(10.1631 -15.4566 9.21893e-19)
(9.92832 -15.6517 9.2124e-19)
(9.69233 -15.8329 -1.00771e-18)
(9.32436 -16.1184 0)
(10.0275 -6.05951 0)
(15.8368 -10.3702 0)
(15.8551 -11.1576 0)
(15.2502 -11.5553 -2.64121e-20)
(14.6683 -11.8789 0)
(14.1442 -12.1856 0)
(13.6378 -12.494 0)
(13.1339 -12.7087 -1.4781e-19)
(12.6837 -13.0078 0)
(12.2354 -13.1973 1.27626e-19)
(11.8228 -13.4546 -1.80246e-20)
(11.4501 -13.6701 -1.23631e-18)
(11.0393 -13.8548 9.31661e-19)
(10.6973 -14.0623 -1.21443e-18)
(10.3648 -14.2816 9.16644e-19)
(10.0967 -14.52 0)
(9.78757 -14.7028 -1.03792e-18)
(9.48037 -14.8341 8.87995e-19)
(9.25904 -15.0364 0)
(8.94431 -15.385 -1.37518e-19)
(10.3617 -5.62556 5.70703e-19)
(15.2148 -9.25646 1.67445e-19)
(15.1405 -9.9487 6.35357e-19)
(14.4651 -10.3023 -6.49139e-19)
(13.8976 -10.6988 -6.41706e-19)
(13.407 -11.0332 1.27158e-18)
(12.9414 -11.4363 -1.43835e-18)
(12.4697 -11.6906 1.40306e-19)
(12.0278 -12.0123 4.58531e-19)
(11.6118 -12.268 0)
(11.1699 -12.5024 -1.72338e-20)
(10.8291 -12.7828 -1.64266e-20)
(10.4608 -13.0011 1.42955e-19)
(10.1219 -13.2095 1.1795e-18)
(9.82439 -13.4475 -1.03622e-18)
(9.52547 -13.6538 -1.31372e-18)
(9.27412 -13.9089 1.14453e-18)
(9.02423 -14.1052 -1.26472e-20)
(8.75073 -14.2282 -1.44411e-19)
(8.45314 -14.5815 -1.02254e-18)
(10.5396 -5.31009 -1.75697e-19)
(14.3362 -8.0683 2.58816e-20)
(14.0562 -8.73594 -1.94425e-19)
(13.6147 -9.18273 -7.59096e-19)
(13.0793 -9.61271 5.30057e-19)
(12.6064 -9.96039 0)
(12.1987 -10.3975 1.07817e-18)
(11.7695 -10.7192 -5.21219e-19)
(11.3524 -11.0542 3.506e-19)
(10.9799 -11.3559 1.81645e-19)
(10.5859 -11.6233 -3.43719e-19)
(10.2602 -11.9155 8.35132e-19)
(9.94003 -12.2203 1.73378e-19)
(9.60025 -12.4381 -9.8252e-19)
(9.29264 -12.6937 2.74528e-18)
(9.02186 -12.93 -1.11695e-18)
(8.7483 -13.1758 1.40793e-18)
(8.52957 -13.4255 -9.21379e-19)
(8.32521 -13.6406 3.01391e-19)
(8.0004 -13.9351 1.42881e-18)
(10.429 -4.90505 9.10313e-19)
(13.4917 -7.07453 -1.93773e-19)
(13.1878 -7.70621 -2.26342e-20)
(12.7237 -8.11952 4.088e-19)
(12.2291 -8.60241 1.92454e-19)
(11.7835 -8.96056 2.10074e-19)
(11.37 -9.41886 -9.83476e-19)
(10.9956 -9.78167 5.94307e-19)
(10.5993 -10.1736 -1.84215e-19)
(10.2661 -10.5236 -1.81637e-19)
(9.85202 -10.8105 -1.78978e-19)
(9.48431 -11.0474 -1.90672e-19)
(9.19826 -11.372 -3.60594e-19)
(8.91666 -11.6426 1.24636e-18)
(8.62758 -11.8953 -1.74297e-18)
(8.35899 -12.1362 -1.76863e-19)
(8.10706 -12.384 1.15788e-20)
(7.87403 -12.6243 -1.30547e-18)
(7.69309 -12.8711 9.73757e-19)
(7.48424 -13.2746 -1.52116e-18)
(10.0867 -4.38564 8.35733e-19)
(12.4549 -6.10292 -2.06739e-18)
(12.0758 -6.77037 1.36241e-18)
(11.6655 -7.21779 -2.15122e-19)
(11.2329 -7.71805 -2.31435e-19)
(10.795 -8.08188 8.96671e-19)
(10.4329 -8.53861 -1.08761e-18)
(10.0784 -8.89426 0)
(9.7003 -9.26143 8.35566e-19)
(9.43926 -9.66366 -8.21571e-19)
(9.18076 -10.0826 -5.96898e-19)
(8.86353 -10.3857 7.78657e-19)
(8.5463 -10.6821 1.87204e-19)
(8.29669 -10.999 -7.58909e-19)
(8.03932 -11.2809 1.83656e-19)
(7.79504 -11.5452 9.09458e-19)
(7.53995 -11.7745 -1.60243e-18)
(7.30968 -12.0022 1.05721e-18)
(7.06944 -12.1735 -9.79474e-21)
(6.8434 -12.5165 -1.44211e-18)
(9.53688 -3.81179 1.15652e-18)
(11.4084 -5.21529 -7.52177e-19)
(11.0114 -5.84703 4.97488e-19)
(10.73 -6.38204 3.43735e-21)
(10.3318 -6.94268 -9.76533e-19)
(9.95035 -7.34538 -9.28155e-19)
(9.60374 -7.84307 1.15201e-18)
(9.31977 -8.2638 -6.74796e-19)
(8.91963 -8.59837 8.94426e-19)
(8.55176 -8.88363 0)
(8.25709 -9.23995 1.28131e-20)
(8.01022 -9.5961 2.0401e-19)
(7.74052 -9.9146 2.11651e-19)
(7.49063 -10.2329 -2.07112e-19)
(7.27864 -10.5638 0)
(7.08218 -10.885 1.98305e-19)
(6.88625 -11.1889 0)
(6.70393 -11.4679 3.70293e-19)
(6.5164 -11.7059 1.80763e-18)
(6.28327 -11.9966 -1.17727e-20)
(8.77241 -3.20984 6.31613e-19)
(10.2222 -4.39764 -1.31613e-19)
(9.80588 -5.03643 -1.8692e-18)
(9.4004 -5.49396 1.04502e-18)
(9.12836 -6.14809 2.48604e-19)
(8.75058 -6.55082 -2.44153e-19)
(8.40398 -7.06237 -9.87697e-19)
(8.23121 -7.59811 7.35657e-19)
(8.00677 -8.12685 0)
(7.754 -8.51928 0)
(7.44629 -8.87726 -1.12698e-18)
(7.19877 -9.20086 8.91453e-19)
(6.93455 -9.52909 -2.11676e-19)
(6.69235 -9.80011 -6.40168e-19)
(6.45031 -10.0938 5.70494e-21)
(6.25533 -10.3719 1.42766e-18)
(6.06361 -10.6732 -7.97952e-19)
(5.90367 -10.9482 5.84956e-19)
(5.76366 -11.2334 -9.49334e-19)
(5.58488 -11.5476 0)
(7.88877 -2.59087 -5.43226e-19)
(9.12249 -3.63617 8.51569e-19)
(8.77432 -4.32822 1.44385e-19)
(8.46882 -4.78373 1.41637e-19)
(8.20606 -5.39088 0)
(7.94142 -5.88439 1.06041e-18)
(7.49711 -6.23848 -1.04179e-18)
(7.18544 -6.65009 1.30124e-19)
(6.96417 -7.12953 0)
(6.78667 -7.60502 9.71499e-19)
(6.59736 -8.07402 -8.34056e-19)
(6.38773 -8.46899 9.27931e-19)
(6.20114 -8.87906 -9.13206e-19)
(6.00308 -9.22461 8.85719e-19)
(5.7947 -9.55851 -7.61463e-19)
(5.60317 -9.85721 -8.45261e-19)
(5.41807 -10.1652 1.65838e-18)
(5.24886 -10.4451 -7.10468e-19)
(5.10292 -10.7294 1.00741e-19)
(4.95711 -11.0748 8.30011e-19)
(6.9051 -2.00532 -4.33251e-19)
(7.68378 -2.93769 4.54032e-19)
(7.42408 -3.63819 -1.44365e-19)
(7.11224 -4.19651 -1.41605e-19)
(6.80163 -4.81754 0)
(6.71214 -5.48413 0)
(6.4751 -6.06217 0)
(6.18034 -6.47022 -2.65561e-19)
(5.90933 -6.9141 -1.03603e-18)
(5.66803 -7.28916 2.03043e-18)
(5.47374 -7.72189 -1.1166e-18)
(5.31104 -8.105 -1.23148e-19)
(5.127 -8.48938 0)
(4.99095 -8.85673 0)
(4.82398 -9.20215 -2.25179e-19)
(4.67465 -9.5201 0)
(4.51324 -9.82859 8.55674e-19)
(4.37181 -10.1152 -1.05274e-18)
(4.22667 -10.3828 -9.16342e-19)
(4.0917 -10.7161 8.68357e-19)
(5.92151 -1.50068 4.49163e-19)
(6.54649 -2.29114 7.85906e-19)
(6.3115 -3.04093 -6.11631e-22)
(5.9742 -3.60773 -1.58653e-21)
(5.63636 -4.09971 1.47873e-19)
(5.38043 -4.6332 -4.31894e-19)
(5.28051 -5.23268 0)
(5.14512 -5.7752 -4.14216e-19)
(4.98356 -6.28883 1.40135e-19)
(4.83515 -6.75794 5.27722e-19)
(4.6442 -7.19434 5.11288e-19)
(4.51391 -7.6254 -3.79885e-19)
(4.34799 -8.0311 9.73759e-19)
(4.21931 -8.41462 -8.37732e-19)
(4.08057 -8.79806 1.04178e-18)
(3.95719 -9.13927 -1.93307e-18)
(3.81905 -9.48518 8.91384e-19)
(3.69416 -9.78032 1.06594e-19)
(3.56767 -10.0758 8.4139e-19)
(3.41988 -10.3831 -8.95815e-19)
(4.93691 -1.2102 1.57501e-19)
(4.86259 -1.94236 -1.596e-19)
(4.68526 -2.64406 6.36168e-19)
(4.67361 -3.42566 -6.24424e-19)
(4.49661 -4.02079 -3.04092e-19)
(4.26673 -4.54812 -7.39913e-19)
(4.07089 -5.04967 3.79863e-21)
(3.86848 -5.55674 5.6909e-19)
(3.7212 -6.02633 -1.36502e-19)
(3.58383 -6.50193 0)
(3.45143 -6.94007 0)
(3.33387 -7.35604 0)
(3.22252 -7.7768 0)
(3.12256 -8.1432 2.87997e-21)
(3.01812 -8.54324 0)
(2.93458 -8.87209 1.1501e-19)
(2.8455 -9.25417 4.52178e-19)
(2.76086 -9.54492 -1.32841e-18)
(2.68454 -9.87726 9.79475e-19)
(2.59043 -10.188 -9.07779e-19)
(3.32249 -0.753283 0)
(3.77172 -1.6163 -8.39431e-20)
(3.37497 -2.21145 0)
(3.1867 -2.83554 2.37902e-19)
(3.17585 -3.52436 -1.58502e-19)
(3.06863 -4.11101 -6.07633e-19)
(2.95525 -4.6877 3.89641e-21)
(2.88121 -5.19591 5.82874e-19)
(2.76322 -5.70795 -5.64501e-19)
(2.6607 -6.14901 1.10563e-18)
(2.57258 -6.62404 -4.60833e-21)
(2.46223 -7.01817 -5.28226e-19)
(2.38902 -7.45452 5.10576e-19)
(2.28488 -7.81521 -6.26244e-19)
(2.21703 -8.21502 0)
(2.12433 -8.54416 -4.7371e-19)
(2.05401 -8.91657 4.66624e-19)
(1.98479 -9.2233 0)
(1.91527 -9.54725 -1.09442e-19)
(1.85321 -9.88568 0)
(2.18546 -0.462565 8.68736e-20)
(1.99394 -1.27724 8.41124e-20)
(2.04879 -2.04314 0)
(1.93622 -2.6938 3.23134e-19)
(1.82826 -3.31366 -3.98279e-19)
(1.76955 -3.90047 2.30929e-19)
(1.70374 -4.49458 -6.80753e-19)
(1.61654 -5.00965 2.96046e-19)
(1.55991 -5.56448 -7.2356e-20)
(1.49772 -6.01405 0)
(1.42019 -6.51964 -6.87877e-20)
(1.37946 -6.92022 -6.7064e-20)
(1.30361 -7.38042 -6.5391e-20)
(1.27309 -7.74214 0)
(1.20839 -8.15976 -4.9199e-19)
(1.17612 -8.48127 1.02504e-18)
(1.12146 -8.86233 -8.81676e-19)
(1.07783 -9.14733 4.61243e-19)
(1.03659 -9.47675 5.63732e-20)
(0.980078 -9.77926 4.69539e-19)
(0.79191 -0.379157 -1.31038e-19)
(0.675133 -1.05958 -1.7157e-19)
(0.517326 -1.82809 5.66928e-22)
(0.519783 -2.42591 4.51564e-19)
(0.607271 -3.13773 -1.21376e-19)
(0.48952 -3.6499 -7.83534e-20)
(0.483742 -4.30555 7.71211e-20)
(0.430992 -4.775 1.49857e-19)
(0.428909 -5.37143 7.2355e-20)
(0.380246 -5.79714 -2.82759e-19)
(0.378269 -6.34008 3.12237e-19)
(0.333872 -6.72014 6.70626e-20)
(0.326154 -7.21518 3.27362e-19)
(0.295776 -7.55543 -2.45281e-21)
(0.296791 -8.00852 2.8915e-20)
(0.277196 -8.31586 -5.48831e-19)
(0.275293 -8.73085 1.50304e-19)
(0.260071 -9.00894 0)
(0.250832 -9.35884 -2.79785e-20)
(0.23753 -9.65953 -2.37491e-19)
(-0.579352 -0.481815 0)
(-0.941905 -1.06597 -8.61844e-20)
(-0.830981 -2.00635 1.68855e-19)
(-0.781668 -2.44579 -4.16004e-20)
(-0.785319 -3.22835 -4.06403e-20)
(-0.759703 -3.71572 0)
(-0.762149 -4.38923 -7.65174e-20)
(-0.760044 -4.85677 1.4981e-19)
(-0.742622 -5.43103 -7.33452e-20)
(-0.732297 -5.88144 7.09145e-20)
(-0.719698 -6.37658 -3.50822e-20)
(-0.698494 -6.7979 -6.7389e-20)
(-0.690849 -7.23673 1.32015e-19)
(-0.665548 -7.61902 -1.28721e-19)
(-0.662847 -8.01605 3.17319e-20)
(-0.638666 -8.36705 2.17698e-34)
(-0.630048 -8.73067 -2.96036e-20)
(-0.606048 -9.05777 1.74483e-19)
(-0.592075 -9.37254 -8.60995e-20)
(-0.562733 -9.70701 -6.0343e-20)
(-0.143001 -3.26695 9.78082e-20)
(1.19194 -13.3179 4.79395e-20)
(2.78946 -25.5451 0)
(3.87899 -32.3563 4.45637e-20)
(4.0784 -34.09 4.23574e-20)
(4.11147 -34.1823 3.88456e-20)
(4.08813 -33.9672 0)
(4.02508 -33.6142 3.56645e-20)
(3.96434 -33.2435 0)
(3.9203 -33.0117 0)
(3.84563 -32.6703 -2.96764e-20)
(3.79699 -32.4405 2.16869e-21)
(3.7358 -32.2108 5.58137e-20)
(3.67389 -31.9356 0)
(3.58333 -31.6894 2.43031e-20)
(3.5432 -31.4169 2.30315e-20)
(3.42314 -31.1959 2.18519e-20)
(3.39944 -30.8436 0)
(3.23347 -30.4644 -3.92577e-20)
(3.21813 -30.0931 3.80396e-20)
(0.0525502 -4.15294 1.08141e-19)
(2.08847 -15.7582 -1.57246e-19)
(3.80719 -27.7728 0)
(4.78531 -33.3287 -2.19404e-19)
(4.8974 -34.2908 2.06379e-19)
(4.90459 -34.184 -3.4353e-19)
(4.83042 -33.8075 1.50361e-19)
(4.75743 -33.4252 1.03157e-19)
(4.69373 -33.1713 -4.64899e-19)
(4.61182 -32.7972 2.57866e-19)
(4.54733 -32.561 -3.0181e-20)
(4.47299 -32.2833 2.21753e-19)
(4.38084 -32.0033 -8.35173e-21)
(4.31488 -31.743 -2.06559e-19)
(4.21094 -31.4936 -2.43028e-20)
(4.16267 -31.2324 -2.30301e-20)
(4.0218 -30.9552 -2.18504e-20)
(3.98692 -30.5833 0)
(3.80727 -30.2429 -1.52172e-19)
(3.81371 -29.9167 5.44073e-21)
(0.411714 -5.15543 0)
(2.9595 -17.5915 0)
(4.86153 -29.1168 0)
(5.78195 -33.6636 -8.77956e-20)
(5.84463 -34.2125 8.22305e-20)
(5.79333 -34.0314 0)
(5.67671 -33.6177 -7.28416e-20)
(5.59997 -33.2887 2.03573e-19)
(5.49333 -32.9122 -2.01505e-19)
(5.40422 -32.6486 2.42235e-19)
(5.30921 -32.3273 -2.95787e-19)
(5.20301 -32.0333 0)
(5.12028 -31.8029 -2.04093e-19)
(5.02246 -31.5274 -1.85039e-19)
(4.91289 -31.2672 3.34168e-19)
(4.83458 -30.9741 -3.45387e-19)
(4.6902 -30.7159 2.99242e-19)
(4.64661 -30.349 0)
(4.45097 -30.0249 -3.3042e-19)
(4.45271 -29.6934 5.62768e-19)
(0.66382 -6.3149 4.8164e-19)
(3.78501 -19.3243 0)
(6.04671 -30.4363 1.82447e-19)
(6.71729 -33.9815 2.55787e-19)
(6.74619 -34.134 -4.90105e-19)
(6.63015 -33.7925 1.49924e-19)
(6.48452 -33.365 7.30314e-20)
(6.37034 -33.0069 7.35319e-19)
(6.25288 -32.7134 -1.0242e-18)
(6.13591 -32.3622 -9.79124e-20)
(6.01778 -32.0744 5.21589e-19)
(5.92155 -31.8242 1.05216e-19)
(5.79659 -31.5319 -4.94626e-19)
(5.68917 -31.2496 4.82736e-19)
(5.56173 -30.9899 1.33982e-19)
(5.47725 -30.7182 -8.32287e-20)
(5.31815 -30.4453 1.19583e-19)
(5.2505 -30.0603 0)
(5.04054 -29.7453 -3.36105e-20)
(5.05152 -29.453 0)
(1.25994 -7.14037 0)
(4.51705 -20.8394 5.48953e-19)
(7.18427 -31.2585 -9.25871e-19)
(7.64966 -33.8892 8.34515e-19)
(7.63287 -33.8731 -6.41659e-19)
(7.51059 -33.4968 -1.50679e-19)
(7.35094 -33.093 0)
(7.22149 -32.7268 3.84024e-19)
(7.08007 -32.3807 -5.09475e-19)
(6.93546 -32.0786 5.76012e-19)
(6.81464 -31.7946 -4.49787e-19)
(6.65767 -31.4736 -1.0521e-19)
(6.53617 -31.2194 4.80249e-19)
(6.40429 -30.9525 -8.27674e-19)
(6.2683 -30.6923 5.19249e-19)
(6.1547 -30.4023 -1.70458e-19)
(5.98129 -30.1191 -3.79989e-19)
(5.90975 -29.7571 8.66083e-19)
(5.69436 -29.4908 -4.90664e-19)
(5.69143 -29.1711 -5.70826e-19)
(1.59381 -7.84112 7.52604e-19)
(5.65328 -21.7616 7.35083e-19)
(8.31487 -31.6611 -7.31967e-19)
(8.78351 -33.7729 -1.64282e-19)
(8.63867 -33.6001 1.57218e-19)
(8.43598 -33.1234 5.71495e-19)
(8.23494 -32.7063 -5.62454e-19)
(8.05945 -32.3674 0)
(7.87342 -32.023 4.69795e-19)
(7.71315 -31.7096 -4.61939e-19)
(7.53474 -31.3931 -4.13606e-19)
(7.39331 -31.1451 4.0691e-19)
(7.2364 -30.8756 0)
(7.0818 -30.5904 0)
(6.92984 -30.3336 7.30871e-19)
(6.80038 -30.0616 -7.16081e-19)
(6.62406 -29.8113 -5.73323e-19)
(6.52957 -29.4467 5.64802e-19)
(6.28343 -29.1566 -5.10119e-19)
(6.25225 -28.8232 6.26622e-19)
(2.14563 -8.66663 -5.49658e-19)
(6.70527 -22.7977 1.98608e-19)
(9.51479 -31.9053 3.37248e-20)
(9.73835 -33.356 8.32829e-19)
(9.54593 -33.0661 0)
(9.32289 -32.655 0)
(9.0879 -32.2675 1.03195e-18)
(8.88272 -31.8771 -5.02529e-20)
(8.68474 -31.5836 -9.47515e-19)
(8.4748 -31.26 8.43323e-19)
(8.30897 -31.007 -8.29434e-19)
(8.10662 -30.7065 0)
(7.93189 -30.438 6.94246e-19)
(7.76274 -30.1953 -6.83352e-19)
(7.59264 -29.9492 0)
(7.43868 -29.6796 0)
(7.24012 -29.404 0)
(7.11256 -29.0418 0)
(6.85404 -28.7782 0)
(6.82361 -28.441 -5.98494e-20)
(2.62382 -9.17893 5.29286e-19)
(7.80128 -23.3104 -8.9634e-19)
(10.5656 -31.7518 0)
(10.7861 -32.8945 0)
(10.5056 -32.5749 1.27576e-18)
(10.2416 -32.1226 7.26461e-20)
(9.95305 -31.7207 -1.16391e-18)
(9.71773 -31.415 0)
(9.46254 -31.0438 1.06789e-19)
(9.24535 -30.7811 -9.95608e-20)
(9.01499 -30.4753 0)
(8.81103 -30.2264 8.67384e-20)
(8.61836 -29.9971 -7.35509e-19)
(8.41423 -29.7298 1.3328e-18)
(8.2254 -29.4968 -2.92161e-20)
(8.04715 -29.2409 -5.65392e-19)
(7.84367 -29.0053 -6.21954e-20)
(7.6958 -28.6688 5.82126e-20)
(7.40353 -28.3869 0)
(7.31785 -27.995 5.16776e-20)
(3.17269 -9.67896 3.41646e-19)
(8.91806 -23.7607 2.90713e-19)
(11.6924 -31.5352 -1.01634e-18)
(11.727 -32.2462 2.92499e-19)
(11.3762 -31.8586 1.27738e-19)
(11.0778 -31.469 1.12387e-18)
(10.7578 -31.1023 -1.56578e-18)
(10.4729 -30.7302 1.13325e-18)
(10.2154 -30.4882 -9.14123e-19)
(9.93975 -30.166 1.07969e-18)
(9.71254 -29.9446 1.7333e-19)
(9.46787 -29.6888 7.28187e-19)
(9.23295 -29.4295 -4.117e-19)
(9.01758 -29.219 -7.85658e-19)
(8.80722 -29.0017 6.91659e-19)
(8.6039 -28.7665 0)
(8.37268 -28.5188 1.7623e-19)
(8.17272 -28.1644 4.81991e-20)
(7.84851 -27.8596 -9.98061e-20)
(7.76138 -27.4982 4.22939e-20)
(3.73279 -10.0269 -6.46547e-19)
(9.98073 -23.9127 6.65143e-19)
(12.6564 -30.9463 -1.77936e-20)
(12.6616 -31.4966 -5.68848e-19)
(12.2574 -31.1496 -5.24659e-19)
(11.9319 -30.7588 -2.50931e-19)
(11.5568 -30.402 -1.57025e-20)
(11.2508 -30.1265 -2.15746e-19)
(10.9277 -29.7722 0)
(10.6436 -29.5566 -1.86274e-19)
(10.3649 -29.2866 -1.73324e-19)
(10.0913 -29.0553 -1.32872e-20)
(9.8544 -28.8652 5.48565e-19)
(9.59932 -28.636 -2.84603e-19)
(9.36429 -28.4393 -6.17594e-19)
(9.13244 -28.2146 4.79362e-19)
(8.8866 -27.9936 3.08802e-19)
(8.66982 -27.6754 -5.22954e-19)
(8.32956 -27.4019 9.96979e-20)
(8.19343 -26.9848 6.04333e-19)
(4.28899 -10.281 -1.54537e-18)
(11.0255 -23.8912 1.55942e-18)
(13.6597 -30.358 -1.6979e-18)
(13.5417 -30.6465 1.38058e-18)
(13.0566 -30.2699 1.20574e-18)
(12.6794 -29.9154 -9.34305e-19)
(12.2777 -29.5808 -1.22502e-18)
(11.9136 -29.2738 4.77854e-20)
(11.5941 -29.0698 7.34444e-19)
(11.2538 -28.7816 -4.8252e-19)
(10.9602 -28.5955 1.22023e-18)
(10.6717 -28.3902 -7.30185e-19)
(10.3773 -28.1673 -1.37531e-19)
(10.111 -27.9864 3.43439e-19)
(9.85434 -27.8131 -9.0111e-19)
(9.60356 -27.6221 4.30483e-19)
(9.33466 -27.4182 0)
(9.06363 -27.082 -7.0028e-19)
(8.67919 -26.7661 6.90169e-19)
(8.55004 -26.4102 -5.43561e-19)
(4.86103 -10.4465 2.91032e-19)
(12.0174 -23.7185 3.2356e-19)
(14.4789 -29.4987 1.38692e-18)
(14.2933 -29.6674 1.18866e-18)
(13.7921 -29.3546 -7.20544e-19)
(13.394 -29.0395 9.99358e-19)
(12.9563 -28.7448 -5.88746e-19)
(12.5735 -28.4987 6.78291e-19)
(12.1974 -28.2097 -1.29117e-18)
(11.846 -28.0322 4.57446e-19)
(11.522 -27.8139 0)
(11.1854 -27.6226 0)
(10.9007 -27.4671 0)
(10.5974 -27.2875 -8.32209e-19)
(10.319 -27.1324 8.1934e-19)
(10.0365 -26.9514 0)
(9.75355 -26.7562 0)
(9.47869 -26.4776 -7.15653e-20)
(9.10467 -26.2009 0)
(8.96129 -25.8231 -5.98619e-19)
(5.40123 -10.4974 -5.45754e-19)
(12.9102 -23.2976 -1.34267e-18)
(15.2938 -28.5431 -9.45012e-19)
(15.0824 -28.634 -1.68863e-19)
(14.4964 -28.3343 1.23058e-18)
(14.0398 -28.0314 -2.51e-19)
(13.5657 -27.7443 -4.92171e-20)
(13.1343 -27.5319 -7.94187e-19)
(12.7508 -27.3514 0)
(12.3531 -27.1254 -3.84384e-19)
(11.998 -26.9752 6.09017e-19)
(11.6666 -26.8228 0)
(11.3242 -26.6576 7.79503e-19)
(11.0101 -26.5074 -7.67298e-19)
(10.7104 -26.3889 6.55192e-19)
(10.4261 -26.2573 -1.17549e-18)
(10.1355 -26.1295 5.91601e-19)
(9.82604 -25.8531 7.15656e-20)
(9.42188 -25.5724 -5.33854e-20)
(9.27554 -25.2283 4.34356e-19)
(5.93681 -10.497 -6.99271e-19)
(13.7905 -22.8518 4.96913e-20)
(15.9879 -27.5449 6.82511e-20)
(15.6477 -27.487 1.60569e-18)
(15.0584 -27.2299 1.35197e-19)
(14.5816 -27.0017 -8.40104e-19)
(14.0963 -26.7631 -5.7686e-19)
(13.636 -26.5575 1.88811e-19)
(13.2247 -26.3764 6.29007e-19)
(12.8126 -26.2297 -6.57627e-19)
(12.4448 -26.0786 3.14824e-19)
(12.0602 -25.9399 -7.99039e-19)
(11.7271 -25.8249 6.27851e-19)
(11.3821 -25.6952 -5.89155e-19)
(11.0595 -25.5858 5.18426e-19)
(10.7331 -25.4615 4.13538e-19)
(10.42 -25.3343 -4.76646e-19)
(10.1109 -25.1648 3.51914e-19)
(9.71003 -24.9232 -3.35749e-19)
(9.53203 -24.5813 -3.67963e-19)
(6.42082 -10.3845 -8.49315e-19)
(14.5314 -22.1525 -1.4717e-19)
(16.5251 -26.274 8.08459e-19)
(16.2435 -26.3075 -6.70696e-19)
(15.6111 -26.0953 6.58522e-19)
(15.0765 -25.8708 1.53356e-19)
(14.5554 -25.6502 0)
(14.0693 -25.5235 -1.03806e-19)
(13.6301 -25.3688 2.82386e-19)
(13.1924 -25.2323 -9.98514e-19)
(12.7866 -25.1124 7.00209e-19)
(12.415 -25.021 1.4958e-19)
(12.0425 -24.9242 7.58303e-20)
(11.6826 -24.8073 0)
(11.3464 -24.7298 1.62913e-20)
(11.0324 -24.6515 3.64213e-19)
(10.7282 -24.5957 -3.57733e-20)
(10.4005 -24.4228 4.29642e-20)
(9.99818 -24.2183 -2.80582e-19)
(9.83824 -23.904 5.77731e-20)
(6.89008 -10.2515 7.38775e-19)
(15.2753 -21.4399 -1.2345e-18)
(17.098 -25.153 6.95348e-19)
(16.6208 -25.0266 5.65662e-19)
(16.0039 -24.8433 -5.21791e-20)
(15.449 -24.715 -3.89257e-19)
(14.9213 -24.5245 9.24922e-20)
(14.4003 -24.3843 1.03804e-19)
(13.9631 -24.3197 0)
(13.503 -24.2066 0)
(13.0967 -24.1323 -4.84761e-19)
(12.6784 -24.0406 7.89478e-19)
(12.305 -23.983 -4.17942e-19)
(11.9363 -23.9108 0)
(11.5749 -23.851 1.69511e-20)
(11.2181 -23.7718 -2.59839e-19)
(10.8854 -23.7239 2.51848e-19)
(10.576 -23.6881 -3.01525e-20)
(10.1796 -23.5343 -1.46455e-19)
(9.98156 -23.2251 1.06236e-19)
(7.33107 -9.97595 -6.2383e-19)
(15.804 -20.5651 7.44306e-19)
(17.4007 -23.7116 0)
(16.9698 -23.759 0)
(16.3515 -23.627 9.23025e-20)
(15.7557 -23.5048 -4.53712e-19)
(15.207 -23.365 1.52824e-20)
(14.6705 -23.2824 2.97891e-19)
(14.1891 -23.1803 -4.50986e-19)
(13.7334 -23.1541 8.2833e-19)
(13.286 -23.0715 -3.78557e-19)
(12.8803 -23.0451 7.34498e-20)
(12.4893 -23.0183 2.44615e-19)
(12.0914 -22.9421 -2.43129e-20)
(11.7253 -22.9051 -1.38085e-19)
(11.3783 -22.8701 2.34723e-20)
(11.0449 -22.8541 -9.36848e-20)
(10.7124 -22.8181 7.35603e-20)
(10.3476 -22.7586 1.49737e-20)
(10.164 -22.4858 2.08417e-20)
(7.74504 -9.67835 0)
(16.2938 -19.6203 3.03384e-19)
(17.8074 -22.4749 -3.67961e-19)
(17.1818 -22.3811 0)
(16.5662 -22.2805 -9.2298e-20)
(15.9637 -22.2558 2.47525e-19)
(15.4034 -22.1282 -3.11425e-19)
(14.8446 -22.0704 0)
(14.3763 -22.071 2.73373e-19)
(13.8821 -22.0081 -2.68807e-19)
(13.4526 -22.023 1.2669e-20)
(13.0047 -21.9711 -2.69086e-20)
(12.6063 -21.994 -2.09942e-20)
(12.2312 -21.9942 -1.56622e-20)
(11.8362 -21.9769 -1.08624e-20)
(11.4562 -21.9235 -3.03564e-20)
(11.0948 -21.9182 8.66347e-20)
(10.7805 -21.9771 -1.3529e-19)
(10.4273 -21.9798 7.48067e-20)
(10.2159 -21.7537 -7.15203e-21)
(8.1253 -9.31855 0)
(16.6387 -18.6383 -3.09375e-19)
(17.8724 -20.9527 1.84027e-19)
(17.2907 -21.0529 1.83136e-19)
(16.6949 -21.0009 -4.23112e-20)
(16.0677 -20.9955 -3.79382e-20)
(15.5065 -20.9482 -1.41976e-19)
(14.9271 -20.8889 0)
(14.4221 -20.8732 0)
(13.9578 -20.9226 0)
(13.4854 -20.8955 -1.26687e-20)
(13.0569 -20.9219 0)
(12.6509 -20.9506 9.95316e-20)
(12.2393 -20.9508 -8.03463e-20)
(11.8666 -20.9878 1.43135e-19)
(11.4967 -20.9898 -3.09898e-19)
(11.1121 -20.9619 1.66404e-19)
(10.7477 -21.0024 2.42474e-19)
(10.4134 -21.0627 -4.36321e-19)
(10.2272 -20.9152 2.3484e-19)
(8.46771 -8.88116 0)
(16.8927 -17.5878 0)
(18.0551 -19.611 6.17749e-20)
(17.3243 -19.6206 4.92032e-20)
(16.7214 -19.6131 0)
(16.1063 -19.684 4.11675e-20)
(15.5357 -19.6615 -4.04441e-20)
(14.965 -19.6805 0)
(14.45 -19.6925 -8.82223e-20)
(13.9485 -19.7117 8.67492e-20)
(13.5123 -19.809 0)
(13.0426 -19.7947 2.07885e-19)
(12.6217 -19.8722 1.7127e-20)
(12.2397 -19.9268 -2.35852e-19)
(11.8255 -19.9703 0)
(11.4465 -19.9794 0)
(11.0343 -19.9772 0)
(10.6705 -19.9952 3.24594e-19)
(10.3048 -20.0058 -3.53424e-19)
(10.0534 -19.9174 0)
(2.68487 -29.1332 0)
(2.54145 -27.4797 0)
(2.08255 -27.1737 -1.80484e-21)
(1.91567 -26.1989 -1.32593e-21)
(1.61986 -26.0728 0)
(1.50891 -25.4975 1.45836e-22)
(1.34622 -25.4 3.84601e-22)
(1.26693 -25.0204 0)
(1.10484 -24.8433 -2.11528e-22)
(1.00489 -24.5343 0)
(0.894454 -24.4103 4.98722e-22)
(0.820799 -24.2294 3.24499e-22)
(0.702463 -24.2215 -3.26426e-22)
(0.651068 -24.1618 -7.84089e-22)
(0.507438 -24.1711 0)
(0.506314 -23.9402 2.32133e-22)
(0.338844 -23.5852 -1.04325e-21)
(0.378043 -21.2116 0)
(0.0918165 -15.1427 0)
(0.190579 -6.25521 -5.15511e-24)
(3.11741 -28.9926 1.59715e-20)
(2.8526 -27.3212 0)
(2.25913 -27.068 7.93995e-21)
(2.10317 -26.1794 -4.836e-21)
(1.79134 -26.0748 0)
(1.65073 -25.4927 -2.22252e-21)
(1.45427 -25.4052 7.0914e-22)
(1.33906 -25.0133 0)
(1.16413 -24.8328 -3.80521e-22)
(1.04583 -24.5153 5.95188e-22)
(0.925694 -24.3878 -1.6187e-21)
(0.848294 -24.203 2.44418e-21)
(0.728902 -24.1976 -2.07298e-21)
(0.675489 -24.1369 7.17609e-22)
(0.530825 -24.1503 7.08591e-22)
(0.53067 -23.9138 -9.26484e-22)
(0.356577 -23.5694 1.63692e-21)
(0.3906 -21.172 2.46446e-21)
(0.0987257 -15.1126 9.92024e-22)
(0.185291 -6.21678 1.27775e-21)
(3.64974 -28.7556 -8.35782e-21)
(3.28185 -27.2275 -1.30464e-20)
(2.56816 -26.987 -6.63312e-21)
(2.33247 -26.0619 0)
(1.9393 -25.9582 0)
(1.76138 -25.3978 2.27203e-21)
(1.54986 -25.3219 -1.03598e-21)
(1.40324 -24.9377 -8.11829e-22)
(1.21861 -24.7664 -6.98365e-22)
(1.09238 -24.4701 1.2654e-21)
(0.97441 -24.3569 0)
(0.886934 -24.1753 0)
(0.768665 -24.1718 0)
(0.710416 -24.1061 3.21067e-21)
(0.553617 -24.1295 0)
(0.55591 -23.894 3.62157e-21)
(0.374431 -23.5543 -3.29949e-21)
(0.409388 -21.1551 -1.45614e-21)
(0.104048 -15.102 -1.24632e-21)
(0.205676 -6.1841 -4.09289e-21)
(4.12785 -28.5624 2.15968e-20)
(3.60313 -27.0249 -4.0558e-20)
(2.72578 -26.8338 1.73432e-21)
(2.50987 -26.0026 1.12753e-20)
(2.11428 -25.933 0)
(1.89932 -25.3827 2.27576e-21)
(1.657 -25.3144 -3.02698e-21)
(1.47737 -24.9225 -3.87266e-22)
(1.28095 -24.7519 1.75716e-21)
(1.13452 -24.449 -1.88877e-21)
(1.00582 -24.3317 -2.78571e-22)
(0.912016 -24.1474 2.73699e-21)
(0.792591 -24.147 -2.75362e-21)
(0.731754 -24.0788 -1.54835e-21)
(0.57617 -24.1079 -1.43498e-21)
(0.578383 -23.8689 -3.59334e-21)
(0.392181 -23.5403 4.13674e-21)
(0.423468 -21.1279 -1.88579e-21)
(0.100241 -15.0888 5.71687e-22)
(0.206743 -6.14634 4.08619e-21)
(4.58766 -28.2551 5.67892e-20)
(3.95862 -26.8505 9.23938e-21)
(3.02683 -26.7176 -1.10019e-20)
(2.74057 -25.9011 1.50656e-20)
(2.28077 -25.8076 0)
(2.00296 -25.2787 -1.49799e-21)
(1.74945 -25.221 4.70139e-22)
(1.54098 -24.8407 0)
(1.33874 -24.6826 9.53821e-23)
(1.18283 -24.4018 0)
(1.05571 -24.3 4.4232e-21)
(0.950753 -24.119 0)
(0.831683 -24.1208 0)
(0.764815 -24.0465 6.65157e-21)
(0.597719 -24.0859 -2.89873e-21)
(0.6012 -23.8497 3.62191e-21)
(0.409563 -23.5277 0)
(0.439719 -21.1129 -8.24001e-22)
(0.102555 -15.0862 6.05614e-22)
(0.221094 -6.1176 0)
(5.06248 -27.9737 2.12561e-20)
(4.2916 -26.6186 -1.66832e-20)
(3.24524 -26.5445 2.52621e-20)
(2.90504 -25.8088 -2.45406e-20)
(2.4487 -25.7601 4.77322e-21)
(2.1545 -25.2396 1.50315e-21)
(1.86091 -25.2 -3.69982e-22)
(1.61985 -24.8176 1.14805e-21)
(1.40247 -24.6627 -1.19627e-21)
(1.22527 -24.3772 -4.10056e-21)
(1.08694 -24.2714 1.86393e-21)
(0.97326 -24.0894 0)
(0.853082 -24.0949 0)
(0.783722 -24.0169 -2.74754e-24)
(0.617738 -24.0633 2.92707e-21)
(0.621131 -23.8255 -3.33687e-21)
(0.427259 -23.5165 0)
(0.454543 -21.0959 4.13138e-21)
(0.100904 -15.0852 5.57602e-21)
(0.224866 -6.08273 5.10236e-22)
(5.46419 -27.6154 -5.82647e-20)
(4.5648 -26.372 5.37603e-20)
(3.51953 -26.3804 -1.12401e-20)
(3.11238 -25.6988 0)
(2.633 -25.6276 -4.78913e-21)
(2.2459 -25.1329 2.69654e-21)
(1.95341 -25.0963 -2.34141e-21)
(1.68367 -24.7303 -1.1513e-21)
(1.46344 -24.5907 0)
(1.27532 -24.3283 0)
(1.1376 -24.2383 -5.12311e-21)
(1.01254 -24.0593 5.14142e-21)
(0.891163 -24.0681 0)
(0.814342 -23.9827 -1.01126e-20)
(0.63624 -24.0401 2.99248e-21)
(0.638514 -23.8046 2.40242e-21)
(0.44489 -23.5055 -2.25024e-21)
(0.467025 -21.0853 -4.49461e-21)
(0.0980897 -15.0919 -5.07951e-21)
(0.2372 -6.05723 -1.01903e-21)
(5.90856 -27.2509 0)
(4.91701 -26.1127 -2.5345e-20)
(3.80717 -26.2024 2.54023e-20)
(3.28205 -25.5843 0)
(2.80635 -25.5645 0)
(2.38632 -25.0648 -1.98149e-21)
(2.06234 -25.0638 1.99024e-21)
(1.76385 -24.6992 0)
(1.528 -24.564 -3.48653e-21)
(1.31654 -24.2987 7.96998e-21)
(1.1683 -24.2057 -4.48024e-21)
(1.03216 -24.0279 -5.96856e-21)
(0.909607 -24.0408 5.99513e-21)
(0.828653 -23.9507 0)
(0.655052 -24.0153 0)
(0.649849 -23.783 2.64236e-21)
(0.456872 -23.4961 -1.7926e-21)
(0.479735 -21.078 -2.42706e-23)
(0.0953894 -15.102 3.04885e-21)
(0.24572 -6.02712 -1.01688e-21)
(6.25113 -26.8612 3.19359e-20)
(5.15831 -25.8239 -3.19778e-20)
(4.04966 -25.9823 -2.48534e-20)
(3.46782 -25.4466 2.64228e-20)
(2.98231 -25.4199 -1.56532e-20)
(2.48846 -24.9514 4.04733e-21)
(2.15854 -24.9527 1.25408e-21)
(1.82839 -24.6083 0)
(1.59075 -24.4897 0)
(1.36876 -24.2484 -4.37854e-21)
(1.2199 -24.1712 0)
(1.07301 -23.9954 0)
(0.946567 -24.013 0)
(0.857276 -23.9155 0)
(0.674918 -23.9896 0)
(0.665147 -23.7653 0)
(0.463434 -23.4907 1.61747e-21)
(0.492498 -21.0747 -1.98237e-21)
(0.0890931 -15.1187 8.22973e-22)
(0.257203 -6.0042 -1.01363e-21)
(6.64362 -26.4421 -3.55803e-20)
(5.49673 -25.5441 -4.16324e-20)
(4.36803 -25.7907 -5.60423e-21)
(3.65853 -25.3183 -3.26697e-22)
(3.15871 -25.3444 7.69194e-21)
(2.62092 -24.8626 5.35027e-21)
(2.26436 -24.9057 -9.58121e-22)
(1.90996 -24.5679 0)
(1.6536 -24.4551 4.37468e-21)
(1.40928 -24.2126 -8.17109e-21)
(1.24874 -24.1343 -5.3772e-21)
(1.0911 -23.9613 -6.08743e-21)
(0.961429 -23.9835 0)
(0.867405 -23.8823 -7.05918e-21)
(0.693466 -23.962 -6.4661e-21)
(0.67647 -23.7423 0)
(0.470915 -23.4863 0)