/*--------------------------------*- C++ -*----------------------------------*\
  =========                 |
  \\      /  F ield         | OpenFOAM: The Open Source CFD Toolbox
   \\    /   O peration     | Website:  https://openfoam.org
    \\  /    A nd           | Version:  9
     \\/     M anipulation  |
\*---------------------------------------------------------------------------*/
FoamFile
{
    format      ascii;
    class       volScalarField;
    location    "2.1";
    object      nut;
}
// * * * * * * * * * * * * * * * * * * * * * * * * * * * * * * * * * * * * * //

dimensions      [0 2 -1 0 0 0 0];

internalField   nonuniform List<scalar> 
46400
(
0.0180145
0.00679839
0.00198036
0.00127305
0.00131331
0.00127438
0.00118339
0.00116558
0.0011018
0.00107998
0.00102367
0.000987984
0.000959742
0.000943291
0.00091378
0.000903286
0.000865063
0.000808352
0.00116192
0.000952013
0.0177089
0.00566086
0.00146096
0.00131436
0.00126892
0.00125057
0.0011959
0.0011973
0.00113748
0.00109498
0.0010503
0.00101174
0.000974763
0.000937767
0.000903359
0.0008798
0.000812385
0.000729419
0.000992394
0.000911975
0.0173806
0.00482882
0.00124197
0.0013986
0.00132237
0.00131601
0.00121488
0.00120265
0.00114678
0.00111958
0.00106647
0.00102868
0.000997333
0.000970001
0.000938433
0.000920435
0.000857012
0.000801246
0.0010997
0.00093939
0.01697
0.00390947
0.00117718
0.00140986
0.001283
0.00129057
0.00122785
0.00121853
0.00116522
0.00112408
0.00108931
0.00104534
0.00100561
0.000970161
0.000939491
0.000919773
0.00087367
0.000802862
0.00112083
0.00101698
0.0164612
0.00394384
0.00126929
0.00147147
0.00135566
0.00134569
0.00125086
0.00123432
0.00118867
0.00115167
0.00110566
0.00107472
0.00104125
0.00100652
0.000981069
0.000950299
0.000896025
0.000851181
0.00114063
0.00101161
0.0158644
0.00480157
0.00132898
0.00148984
0.00134802
0.0013428
0.00127064
0.00123792
0.00119558
0.00115407
0.00112085
0.00107855
0.0010518
0.00101183
0.000989781
0.00098146
0.000923151
0.000862318
0.00118034
0.00108295
0.0153335
0.00442307
0.00141846
0.00153406
0.00141125
0.00138295
0.00129954
0.001259
0.00121338
0.00116987
0.00112805
0.00109253
0.00106686
0.00103629
0.000993791
0.00097418
0.000932438
0.00085055
0.00112683
0.00106106
0.0142609
0.00395577
0.00141909
0.00153123
0.00139718
0.00137235
0.0013082
0.00125419
0.0012174
0.00116879
0.00113605
0.00108874
0.0010641
0.00104756
0.00103485
0.00100308
0.000963327
0.000897772
0.00111817
0.00107623
0.0130165
0.00318891
0.00145833
0.00153097
0.00143991
0.0013823
0.00133521
0.00126756
0.0012182
0.00117528
0.00113468
0.00108754
0.00104257
0.00100558
0.000996658
0.000989733
0.000943521
0.00089706
0.00107417
0.00100388
0.0104045
0.00254474
0.00147951
0.00146128
0.0014189
0.00136072
0.00132394
0.00128339
0.0012292
0.00116971
0.00115636
0.00111735
0.00108337
0.001037
0.00100276
0.000995285
0.000967328
0.000925281
0.00110838
0.00105367
0.00847223
0.00213789
0.00151388
0.00145936
0.00140709
0.00135285
0.00132364
0.00127115
0.00125162
0.00116676
0.00110881
0.0010888
0.00105399
0.00102408
0.000989477
0.000954269
0.000927854
0.000884744
0.00103079
0.00100436
0.00681916
0.00185428
0.00148629
0.00143953
0.00141327
0.00132844
0.00131291
0.00127763
0.00126094
0.00123572
0.0011666
0.00110344
0.00108355
0.00103454
0.00102081
0.000989904
0.000949867
0.000917539
0.00103
0.00100126
0.00573422
0.00169933
0.00152295
0.0014359
0.0014206
0.00133471
0.00127989
0.00123675
0.00122719
0.00119554
0.00118401
0.0011129
0.00106373
0.00102641
0.000970129
0.000958196
0.000902108
0.000869491
0.000959381
0.000939029
0.00486901
0.00162508
0.00151824
0.00145668
0.00144307
0.0013611
0.00131769
0.00123795
0.00122055
0.00120772
0.00119119
0.0011888
0.00113357
0.00110574
0.00105775
0.00100987
0.000966177
0.00089908
0.000957698
0.000900846
0.00432409
0.00157197
0.00150388
0.00143151
0.00145899
0.00136761
0.00131565
0.00124242
0.00115873
0.00113311
0.0011038
0.00109692
0.00109961
0.00107075
0.00107603
0.00104562
0.0010285
0.000980642
0.00104871
0.000981135
0.00429833
0.00165813
0.00153099
0.0014055
0.00144416
0.00144726
0.00139713
0.00135382
0.00127987
0.00119289
0.00114801
0.00107826
0.00105729
0.00101336
0.000995006
0.000974182
0.00095208
0.000917815
0.000980882
0.00094192
0.00364442
0.00160537
0.0014707
0.00135471
0.00128683
0.00127874
0.001307
0.0012815
0.0012975
0.00124275
0.00122021
0.00117197
0.0011351
0.0010951
0.00105648
0.00102542
0.000985062
0.000939387
0.000982857
0.000928517
0.00376407
0.00176783
0.00168494
0.0015227
0.00141612
0.00129337
0.00125774
0.00119912
0.00118451
0.00115332
0.00112756
0.00110114
0.00107618
0.00105209
0.00102601
0.00100644
0.000973322
0.000925696
0.000974617
0.000911233
0.0026685
0.00135807
0.00152574
0.00148966
0.00150219
0.00142387
0.00137747
0.00131542
0.00126998
0.00122148
0.00118316
0.00113535
0.00110297
0.00106063
0.00103513
0.00100192
0.000975519
0.000916178
0.000959448
0.00089863
0.000707803
0.000611128
0.00132907
0.00124196
0.00137378
0.00127797
0.00130836
0.00123173
0.0012338
0.00117599
0.00117098
0.00112112
0.00110712
0.0010597
0.00104013
0.00100234
0.000976173
0.00091493
0.00096402
0.000887761
0.00065087
0.000114425
0.00367207
0.00817116
0.0107249
0.00817722
0.00402865
0.0015187
0.000422109
7.94629e-05
0.000137365
0.000244206
0.000247924
0.000152009
0.000131257
0.000198697
0.00022775
0.000197824
0.000161957
0.000243542
3.21148e-23
0.00161602
0.00649549
0.010506
0.00933762
0.00521385
0.00198774
0.000509985
9.65236e-05
0.000158977
0.000258229
0.000256613
0.000173553
0.00020482
0.000236024
0.000231139
0.000188103
0.000208344
0.000232903
0.000287046
0.000157821
0.00402395
0.00900163
0.010757
0.00705134
0.002925
0.000751469
0.000108666
0.000145099
0.000258148
0.000271379
0.000221476
0.000226393
0.000247707
0.00020505
0.000191144
0.000215693
0.000292044
0.000262598
0.000271187
0.000822706
0.00687236
0.0106856
0.00940962
0.00485529
0.00133287
9.5249e-05
0.000105076
0.000268166
0.000324755
0.000285314
0.000259874
0.000238156
0.00023459
0.000226319
0.00026844
0.000292212
0.000286661
0.000237444
0.000306269
0.00249399
0.00871762
0.0112893
0.00765588
0.00257232
0.000362317
0.000140022
0.000265217
0.000352089
0.000337051
0.000264609
0.000253734
0.000257722
0.000295363
0.000266237
0.000287496
0.000275943
0.000292969
0.000294563
0.000342124
0.00242912
0.0100737
0.0109396
0.00575697
0.00114551
0.000163823
0.000261295
0.000367714
0.000394218
0.00032508
0.000313013
0.000320162
0.000326542
0.000307263
0.000276408
0.000338183
0.000330597
0.00035726
0.000330877
0.000365219
0.00519595
0.0111922
0.00974884
0.00351022
0.000287243
0.00017844
0.000374916
0.000421877
0.000411605
0.000395423
0.000350951
0.000342903
0.000326689
0.000343277
0.00034153
0.000380685
0.000332715
0.000365252
0.000361747
0.000397524
0.00725388
0.0117349
0.00865871
0.00167556
0.000254528
0.000370625
0.000488075
0.000527896
0.000486663
0.000419705
0.000395221
0.000399383
0.000414032
0.000396609
0.000366882
0.000412656
0.000371628
0.000443311
0.000412923
0.000418823
0.0096827
0.0119734
0.00746921
0.000721951
0.000247541
0.000557263
0.000612884
0.00053823
0.000521446
0.000496143
0.000459915
0.000457159
0.000427848
0.000419665
0.000429286
0.000464119
0.000401641
0.00046526
0.000427236
0.000439136
0.0122316
0.0118019
0.00545636
0.000399779
0.000463895
0.000629713
0.000648073
0.000649649
0.000613294
0.000539328
0.000506208
0.000499463
0.000506978
0.000491881
0.00046963
0.000490457
0.000444012
0.000534201
0.00047496
0.000468976
0.014051
0.0117607
0.00372828
0.000218391
0.000657326
0.000777348
0.000752323
0.000684127
0.000641865
0.000608242
0.000572287
0.000571098
0.000535351
0.000512314
0.000523579
0.000541494
0.000485504
0.000549976
0.000486849
0.000500793
0.015463
0.011304
0.00240158
0.000237412
0.000771587
0.000796152
0.000769389
0.000767888
0.000732715
0.000660493
0.000621126
0.00060843
0.000606963
0.000592004
0.000573981
0.000572394
0.000543396
0.000613573
0.000512478
0.000532216
0.0161432
0.0110131
0.00158043
0.000442302
0.000889578
0.000892457
0.000887995
0.000808927
0.000758619
0.000721992
0.000682281
0.000678895
0.000640068
0.000611906
0.000619244
0.000622489
0.000583019
0.000625251
0.00050841
0.000553439
0.0168574
0.0105341
0.00107565
0.000569871
0.00100723
0.000894873
0.000902071
0.000886292
0.000845748
0.000779783
0.000731908
0.000716199
0.000708095
0.000689163
0.000668688
0.00065604
0.000641617
0.000677886
0.000527322
0.000588929
0.0174994
0.0101875
0.00112507
0.000782055
0.00108885
0.000996622
0.000995992
0.000922325
0.000866033
0.000832013
0.000787597
0.000778735
0.000738934
0.000711697
0.000711628
0.000699588
0.000678538
0.00068693
0.000517031
0.000611976
0.0177669
0.00972225
0.00185591
0.000897045
0.00113955
0.00100541
0.0010141
0.000997372
0.000949261
0.000890028
0.000834483
0.000816263
0.000803689
0.000779599
0.000753262
0.000735536
0.000744353
0.000738406
0.000533248
0.000654192
0.0181829
0.00941921
0.00222582
0.00105754
0.00119646
0.00110369
0.00108371
0.00102347
0.000962417
0.000935439
0.000886136
0.000868687
0.000831064
0.000809153
0.000796592
0.000771582
0.000775273
0.000749363
0.000519815
0.000679392
0.0181893
0.00909395
0.00222361
0.00106863
0.00123492
0.00109162
0.00109596
0.00108932
0.00103315
0.000982674
0.000926143
0.000905968
0.000890346
0.000863583
0.00083202
0.000815236
0.000841844
0.000810713
0.000546582
0.000728756
0.0183194
0.00862999
0.00212397
0.00115301
0.00128465
0.00120087
0.00114429
0.00111011
0.00104579
0.00102513
0.000972314
0.000945678
0.000915359
0.000900579
0.000874806
0.000848407
0.000865836
0.000854284
0.000561757
0.000708795
0.0181501
0.00773082
0.00194877
0.00118183
0.00126851
0.00118239
0.00115567
0.00115968
0.0011013
0.00105906
0.00101054
0.000988401
0.000972142
0.000948904
0.000924113
0.000935785
0.000938693
0.000937207
0.000729901
0.000787543
0.00224374
0.00185646
0.0018225
0.00153677
0.0016365
0.00148847
0.00145742
0.00137316
0.00132513
0.00125343
0.00115233
0.00108426
0.000986478
0.000933764
0.000850066
0.000837176
0.000948534
0.00415023
0.00999174
0.0222533
0.00235529
0.00180056
0.00183535
0.00156212
0.00164162
0.00158465
0.00156925
0.00141771
0.00131475
0.00123312
0.00112911
0.00106069
0.000953807
0.00090174
0.000813896
0.000779392
0.000921915
0.00427239
0.0100199
0.0219989
0.00237326
0.00195481
0.00194813
0.00155664
0.00169338
0.00151784
0.00144367
0.00135962
0.00130804
0.00124352
0.00113862
0.00107461
0.000975984
0.000926286
0.000837359
0.000821695
0.000945386
0.00431047
0.010061
0.0218572
0.00244918
0.00193565
0.00198088
0.0015894
0.00168559
0.0015908
0.00155141
0.00141589
0.00130325
0.00122474
0.00111655
0.00105338
0.000945725
0.000895501
0.000801622
0.000764254
0.000918481
0.00440182
0.0100861
0.0216052
0.00245936
0.00203823
0.00205829
0.00160312
0.00175761
0.00154594
0.00143345
0.00135495
0.00129258
0.00123462
0.00112706
0.00106698
0.000968011
0.000921049
0.000826681
0.000807578
0.000947093
0.00441217
0.0101259
0.0214683
0.00267258
0.00205942
0.00210361
0.001647
0.00173983
0.00159939
0.00153096
0.00141534
0.00129199
0.00121692
0.00110626
0.00104762
0.000939853
0.000891624
0.000791799
0.000750865
0.000919845
0.00448324
0.0101457
0.0212351
0.00269846
0.0021291
0.00215623
0.00167839
0.00181121
0.00156616
0.00142662
0.00135828
0.00127932
0.00122547
0.00111764
0.00106108
0.000962549
0.000918133
0.000818438
0.000794723
0.000953304
0.00447911
0.0101882
0.0211041
0.00307229
0.00218252
0.00220824
0.00174892
0.00179306
0.0016078
0.00151355
0.00141625
0.00128016
0.0012088
0.00109825
0.00104299
0.000936404
0.000890404
0.00078493
0.00073921
0.000925684
0.00452838
0.0101993
0.0208918
0.00316609
0.0022608
0.00226108
0.00177929
0.00184277
0.00157914
0.00142319
0.00136535
0.00126763
0.00121566
0.00111001
0.00105649
0.000959462
0.00091752
0.000813148
0.000783473
0.000958677
0.00450871
0.0102443
0.0207674
0.00359776
0.00232025
0.00231784
0.00186845
0.00182793
0.00162131
0.00150466
0.00141817
0.00126824
0.00120004
0.00109211
0.00103939
0.000935422
0.000891794
0.000781729
0.00072984
0.000928737
0.0045383
0.0102485
0.0205775
0.00371707
0.00241705
0.00238172
0.00188886
0.00185393
0.00159303
0.00142206
0.00136907
0.00125593
0.00120484
0.00110345
0.00105276
0.000958641
0.000919095
0.000811838
0.000774443
0.000957175
0.00449932
0.0102948
0.0204601
0.00392564
0.0024762
0.00244331
0.00197049
0.00183127
0.00164069
0.00150403
0.00141856
0.00125743
0.00119032
0.00108717
0.00103681
0.000936762
0.000895683
0.000783178
0.000723246
0.00092653
0.00450146
0.0102969
0.0202909
0.00400158
0.00256944
0.00251013
0.00198235
0.00184459
0.00161197
0.00142429
0.00136726
0.0012447
0.00119304
0.00109757
0.00104978
0.000959726
0.000922923
0.000814977
0.000768275
0.000952363
0.00445406
0.0103418
0.0201805
0.00424705
0.00261816
0.0025771
0.00204187
0.00180578
0.00166246
0.00150738
0.00141451
0.00124821
0.00117969
0.00108288
0.0010352
0.000940068
0.00090229
0.000789516
0.000720686
0.000921503
0.00443144
0.0103418
0.0200306
0.00434394
0.00270082
0.00262207
0.00204246
0.00181118
0.00163032
0.00143027
0.00136195
0.00123527
0.00118019
0.00109165
0.00104728
0.000962207
0.000929253
0.000823065
0.000766397
0.000946423
0.00436865
0.0103816
0.0199408
0.00461035
0.00274572
0.00267605
0.00208169
0.00176152
0.00168021
0.00151051
0.00140457
0.00123901
0.00116674
0.00107766
0.00103344
0.000944071
0.000911135
0.000800734
0.000722786
0.000917638
0.00431375
0.0103738
0.0198028
0.00481321
0.00283388
0.00268826
0.00208178
0.00176569
0.0016431
0.00144268
0.00135998
0.00123055
0.00116819
0.00108659
0.00104602
0.000966079
0.000938785
0.000836099
0.000769834
0.000940857
0.00426451
0.0104203
0.0196907
0.00497388
0.00283318
0.00269385
0.00210842
0.00172425
0.00170088
0.00152371
0.00140268
0.00123823
0.00115938
0.00107692
0.00103659
0.000952656
0.00092717
0.000821246
0.000736021
0.000912617
0.00418593
0.010442
0.019687
0.0049147
0.00294613
0.0026277
0.00206725
0.0016996
0.00162479
0.00144085
0.00134255
0.00121169
0.00114175
0.00107057
0.00103622
0.000964737
0.000946371
0.000854684
0.000772648
0.000956189
0.00409959
0.0104339
0.019553
0.00574782
0.0031776
0.00266554
0.00212944
0.00167739
0.00169382
0.00154316
0.00141917
0.00125291
0.00116462
0.00108614
0.00104501
0.000962926
0.000942846
0.000841313
0.000749294
0.000910691
0.0038553
0.0101547
0.0190301
0.0167757
0.0324839
0.0172684
0.0230527
0.0198651
0.0180061
0.0158567
0.0143008
0.0128801
0.0118646
0.0110003
0.0105742
0.0101124
0.010098
0.00969306
0.00959061
0.0108508
0.0358148
0.0970695
0.167886
0.0323421
0.023178
0.0202065
0.0184557
0.0168079
0.0145839
0.0132322
0.0120011
0.0109156
0.00980158
0.00935507
0.00939593
0.00892016
0.0081761
0.0078778
0.00682729
0.0113477
0.04119
0.095928
0.155349
0.0156033
0.014846
0.0155273
0.0132931
0.0119114
0.01115
0.0106086
0.00983073
0.00898206
0.00850102
0.0081376
0.00782265
0.0074632
0.00735149
0.00713229
0.00690684
0.0109999
0.0380904
0.0952134
0.152059
0.0131563
0.0117806
0.0101528
0.0095497
0.00951457
0.00899223
0.00853026
0.00823303
0.00808047
0.00758199
0.00718053
0.00673699
0.00656305
0.00608584
0.00599536
0.00511186
0.00928946
0.0400434
0.095309
0.141429
0.00656732
0.00718057
0.0083103
0.00821461
0.00738563
0.00699033
0.00667861
0.00631724
0.00594261
0.00589333
0.00578878
0.00578281
0.00556794
0.00550429
0.00532939
0.00468045
0.00976156
0.0371643
0.0951614
0.139632
0.00582209
0.006449
0.00591783
0.00534976
0.00522106
0.00533578
0.00537086
0.00544942
0.00548516
0.00530749
0.00509956
0.00483554
0.00476292
0.00460356
0.00441683
0.00371149
0.00724862
0.0349623
0.0959177
0.135063
0.00331037
0.00366909
0.00408515
0.00468005
0.00470652
0.00453685
0.00434809
0.00417473
0.00400629
0.00413022
0.00422901
0.0043867
0.00428936
0.00430225
0.00424085
0.00329654
0.00530076
0.031858
0.0963014
0.133871
0.00293068
0.00329742
0.00347169
0.0033337
0.00304094
0.00313942
0.0033585
0.00366185
0.00387272
0.00391983
0.00378758
0.00371122
0.00369046
0.00372557
0.0037469
0.00302668
0.00621175
0.0273728
0.0962219
0.134249
0.001636
0.00204339
0.00224457
0.00250995
0.00279005
0.00306402
0.00311476
0.00304144
0.00291763
0.00311577
0.00327115
0.003621
0.00360003
0.00364392
0.00358365
0.00293706
0.00196094
0.0235376
0.0964684
0.137592
0.00166969
0.00174709
0.00189774
0.00198484
0.00191396
0.00191914
0.00212634
0.00252418
0.00281714
0.00299568
0.00294169
0.003005
0.00312261
0.00341019
0.00348393
0.00328124
0.00342263
0.0173137
0.0943501
0.143774
0.000866945
0.00118293
0.0012935
0.00152759
0.00171636
0.00204686
0.00216796
0.00220373
0.00218979
0.00250686
0.00277579
0.00313563
0.00319017
0.00351373
0.00356316
0.00356185
0.00216183
0.0132903
0.0912936
0.152863
0.00083947
0.000998936
0.0011037
0.00120101
0.00124631
0.00137543
0.00151535
0.00185815
0.0021082
0.00233908
0.00244245
0.00265969
0.0028879
0.00327361
0.00354
0.0040798
0.00271974
0.00751662
0.0741965
0.164753
0.000593582
0.00073166
0.000879899
0.00108078
0.00119658
0.00144276
0.00162066
0.00171754
0.00177734
0.00199686
0.00226334
0.00264865
0.00283679
0.00322709
0.00345616
0.00421021
0.00392411
0.00624666
0.0587857
0.178884
0.000528351
0.000665582
0.000681107
0.000817143
0.000880611
0.0010006
0.00109286
0.00138157
0.00159786
0.00176816
0.00185721
0.00216273
0.00252682
0.00285
0.00339262
0.00362066
0.00469274
0.00698217
0.0388897
0.180281
0.000490159
0.000597705
0.000672087
0.000774783
0.00083299
0.000997764
0.00104549
0.00114911
0.00119006
0.00149307
0.00167238
0.00187575
0.00196162
0.00230022
0.00258048
0.00296457
0.00366798
0.00686987
0.0182507
0.125627
0.000353833
0.000457858
0.000509314
0.000585688
0.000651078
0.000742918
0.000838778
0.000968149
0.00104198
0.00119921
0.00128611
0.00155903
0.00166907
0.00209544
0.00213138
0.00284069
0.00252514
0.00387871
0.00591955
0.0731386
0.00036063
0.000410674
0.000431633
0.000502575
0.000527318
0.000584266
0.000592605
0.000712845
0.000800451
0.000907333
0.00087934
0.00105352
0.00112005
0.00137352
0.00148225
0.00189197
0.00214265
0.00273652
0.00285999
0.0305726
0.00025373
0.000281261
0.00030841
0.000345794
0.000379162
0.000448594
0.000544824
0.000576628
0.000586696
0.000654932
0.000763893
0.000870355
0.000900146
0.00101027
0.0010181
0.00111235
0.00111437
0.00106035
0.00206785
0.0132409
0.000205237
0.000230019
0.000251969
0.000276709
0.000295929
0.000309763
0.000321722
0.000385537
0.000441598
0.00049015
0.000525034
0.000550284
0.00060202
0.000599655
0.000757056
0.000720813
0.00071531
0.000759262
0.000648645
0.00478424
0.00011053
0.000133934
0.000145738
0.000189297
0.0002372
0.000294454
0.000310503
0.000367229
0.000389523
0.000458166
0.000454913
0.000520629
0.000516436
0.00062156
0.000570227
0.000625145
0.000556885
0.000521079
0.000502804
0.000603187
0.0138859
0.0138581
0.0138437
0.0137252
0.0137253
0.0136272
0.0134078
0.0139207
0.0132045
0.0132975
0.0124316
0.0122911
0.0124523
0.0111287
0.0112008
0.00987095
0.0096905
0.00911124
0.0092073
0.00786331
0.00701684
0.00700481
0.00695492
0.00696197
0.00684173
0.00678543
0.00683607
0.00659646
0.00664035
0.0065424
0.00642854
0.00781196
0.00712105
0.00667422
0.00607528
0.00667281
0.00660992
0.0066101
0.00671296
0.00748121
0.00434881
0.00436015
0.00439591
0.00442519
0.00443594
0.00456549
0.00444815
0.00460285
0.00453407
0.00450787
0.00465041
0.0042908
0.00409428
0.0041505
0.00407448
0.00422918
0.00379622
0.00395875
0.00348973
0.00378
0.00277117
0.00276463
0.00276237
0.00273216
0.00274332
0.00270701
0.00267538
0.00264175
0.0026306
0.00267269
0.00243825
0.00264194
0.00269174
0.00287995
0.00277218
0.00281607
0.00266551
0.00295502
0.00276165
0.00303481
0.00174881
0.00174575
0.00175257
0.00174691
0.00176046
0.00175784
0.00175664
0.00184535
0.00181886
0.00180116
0.00198108
0.00192087
0.00186907
0.00190969
0.00185028
0.00192464
0.00183871
0.0019413
0.00181272
0.00177191
0.00125735
0.00125575
0.00126157
0.0012575
0.00126836
0.00125558
0.00126149
0.001267
0.00122444
0.00127147
0.00122626
0.00124772
0.00127757
0.00133415
0.00129884
0.00132803
0.00127024
0.00141867
0.00134303
0.0012505
0.000781358
0.000782177
0.000784261
0.0007877
0.000790366
0.000787323
0.000791235
0.000798058
0.000797445
0.000804473
0.000813451
0.000845287
0.000870538
0.000904758
0.000863156
0.000882223
0.000872169
0.000951342
0.000865487
0.000743433
0.000570843
0.000572807
0.000575212
0.000580618
0.000582551
0.000583602
0.000586139
0.000590571
0.000591149
0.000597495
0.000595669
0.00061956
0.00063988
0.000675379
0.000637768
0.000636137
0.00062476
0.000680665
0.000616611
0.000539921
0.000321621
0.000322695
0.000324958
0.000329483
0.000331573
0.000331638
0.000332368
0.000336717
0.000338214
0.000342982
0.000344587
0.000380193
0.000409539
0.000457134
0.000420424
0.000418679
0.000414009
0.000476805
0.00040861
0.000296364
0.000215842
0.000217744
0.000221633
0.000228045
0.000228883
0.000229311
0.000228897
0.000232665
0.000232916
0.000237359
0.000236517
0.000248305
0.000251744
0.000280967
0.000248491
0.000243548
0.000227749
0.000204199
0.000302844
0.000353234
8.04411e-05
8.27437e-05
9.09919e-05
0.000100373
0.000105429
0.000106963
0.000110749
0.000117667
0.000123918
0.000134106
0.000137728
0.000151778
0.000164156
0.000221027
0.000187332
0.000202148
0.000168436
0.000212039
0.000169708
0.000137944
7.70575e-06
1.44889e-05
3.41325e-05
4.77523e-05
5.21197e-05
5.65705e-05
6.4731e-05
7.23254e-05
8.42576e-05
9.18896e-05
9.58955e-05
9.50672e-05
0.000102527
7.99656e-05
0.000101662
0.000136472
0.000157522
0.000152707
0.000195065
0.000242974
1.63675e-05
2.8983e-05
4.30804e-05
4.52739e-05
4.15638e-05
4.34868e-05
4.42258e-05
5.22234e-05
6.14045e-05
7.33289e-05
7.0651e-05
7.00338e-05
7.01818e-05
9.87535e-05
7.62241e-05
8.28919e-05
9.35772e-05
0.000100866
0.00012683
0.000102559
5.13856e-05
4.93304e-05
5.19281e-05
3.86218e-05
5.0835e-05
4.73892e-05
6.29024e-05
6.32191e-05
7.23741e-05
7.17626e-05
8.22165e-05
9.5986e-05
0.000102212
8.88671e-05
0.000109961
0.000100844
0.000100604
9.95998e-05
0.000103154
0.000123991
6.14978e-05
6.55544e-05
6.91431e-05
7.50646e-05
7.12521e-05
6.72173e-05
6.63653e-05
6.98761e-05
6.97874e-05
7.05887e-05
6.92224e-05
7.12087e-05
7.34005e-05
7.88081e-05
8.17605e-05
8.74196e-05
9.37787e-05
9.61461e-05
0.000106936
0.000111024
6.38811e-05
6.5461e-05
6.93941e-05
7.24619e-05
7.25083e-05
6.88357e-05
7.21413e-05
7.11946e-05
7.68283e-05
7.90956e-05
8.16878e-05
8.43177e-05
8.29931e-05
7.75218e-05
8.20831e-05
7.99052e-05
8.30559e-05
8.35448e-05
8.83945e-05
9.41266e-05
6.03137e-05
5.9241e-05
5.81571e-05
6.54328e-05
6.38389e-05
5.84114e-05
5.81195e-05
6.01161e-05
6.12864e-05
6.32264e-05
6.41584e-05
6.54211e-05
6.86162e-05
6.91665e-05
7.34881e-05
7.45826e-05
7.73352e-05
7.77514e-05
8.13473e-05
8.52698e-05
3.94257e-05
3.93531e-05
4.1374e-05
4.88548e-05
4.93799e-05
4.80797e-05
4.96286e-05
4.84687e-05
4.98077e-05
5.07784e-05
5.12409e-05
4.89283e-05
4.86516e-05
4.95098e-05
5.10426e-05
5.21387e-05
5.32694e-05
5.47804e-05
5.56983e-05
5.96736e-05
2.83959e-05
2.88848e-05
2.84808e-05
2.64203e-05
2.30222e-05
2.43684e-05
2.43998e-05
2.55665e-05
2.95523e-05
3.45863e-05
3.46366e-05
3.60495e-05
4.03418e-05
3.96196e-05
4.23865e-05
4.16905e-05
4.38581e-05
4.44094e-05
4.52928e-05
4.78155e-05
7.76485e-06
7.79871e-06
8.06315e-06
9.76249e-06
1.10112e-05
1.29024e-05
1.41096e-05
1.54343e-05
1.71698e-05
1.63749e-05
1.70981e-05
1.81985e-05
1.93434e-05
2.05171e-05
2.09641e-05
2.24546e-05
2.28163e-05
2.42884e-05
2.45469e-05
2.61869e-05
0.000957351
0.00116748
0.00081776
0.000870038
0.000906141
0.00091245
0.000943796
0.000963739
0.000988423
0.00102505
0.00108086
0.00110419
0.00116387
0.00117492
0.00125971
0.00130112
0.00127596
0.00196049
0.00675245
0.0180165
0.000910058
0.000985746
0.000728402
0.000810526
0.000880567
0.000906389
0.000937632
0.000970812
0.00100937
0.00104803
0.00109204
0.0011434
0.00120369
0.00119145
0.00125075
0.00127857
0.00131616
0.00151171
0.00568061
0.0177179
0.000939412
0.00109553
0.00080498
0.000857579
0.000918912
0.000935439
0.000966658
0.000999794
0.00103099
0.00106696
0.0011201
0.00114977
0.00119837
0.00120606
0.00130695
0.00131801
0.00140144
0.00123987
0.00478767
0.0173826
0.00101488
0.00111472
0.000804709
0.000871237
0.000919216
0.00094178
0.000971002
0.00100574
0.00104175
0.00108658
0.00112421
0.00117043
0.00121931
0.00122204
0.00128987
0.00128983
0.0014103
0.00118502
0.00392787
0.0169716
0.00100768
0.00113379
0.000850556
0.000890897
0.000947201
0.000976989
0.00100515
0.0010416
0.00107383
0.00110611
0.00115159
0.00118715
0.00122654
0.00124472
0.00134292
0.00136233
0.00147809
0.00127497
0.00395484
0.0164566
0.00107366
0.00116963
0.000864011
0.000922846
0.000985582
0.000998927
0.00101739
0.00105256
0.00107795
0.00112224
0.00115621
0.00120012
0.001241
0.00127243
0.00135149
0.00135394
0.00148204
0.001325
0.00479031
0.0158526
0.00105693
0.00112543
0.00085778
0.000937473
0.000979373
0.00099239
0.00103018
0.00106527
0.00109197
0.00112769
0.00116688
0.00121062
0.00125376
0.00129911
0.00138185
0.00141838
0.00154414
0.00142952
0.00443831
0.0153181
0.00108944
0.00113258
0.000906237
0.000973401
0.00100512
0.00103635
0.00105369
0.00107034
0.00109189
0.00113942
0.00117228
0.00122584
0.00126314
0.00131743
0.00138322
0.001403
0.0015228
0.00141509
0.00395043
0.0142549
0.00101468
0.00107487
0.000899268
0.000941156
0.000985528
0.000998848
0.00100623
0.00104237
0.00108548
0.00113059
0.00117388
0.00122274
0.00126992
0.00133881
0.00138356
0.00144439
0.00153118
0.00145858
0.00320455
0.013014
0.00106347
0.00110739
0.000924409
0.00096552
0.000997836
0.00100531
0.00103562
0.00108178
0.00111198
0.00115932
0.00118169
0.00124552
0.00129152
0.00133229
0.0013596
0.00141283
0.00145967
0.00148671
0.00254029
0.0104534
0.00100717
0.00101617
0.000877402
0.000923363
0.000952057
0.000981472
0.00101837
0.00104677
0.00108723
0.00111894
0.00117695
0.00125557
0.00127105
0.00131941
0.00134453
0.00141033
0.00145038
0.00151148
0.00215339
0.00852878
0.00100009
0.00101248
0.000912891
0.000945551
0.000977972
0.00101161
0.00102754
0.0010792
0.00111489
0.00118115
0.00124706
0.00126913
0.00127758
0.00130582
0.00131843
0.00140906
0.00144105
0.00150431
0.00185436
0.00685788
0.000934166
0.000935847
0.000862615
0.000886508
0.000945856
0.000968481
0.00102932
0.00108575
0.00113927
0.00120178
0.00120717
0.00122652
0.001226
0.00126832
0.00132856
0.00142811
0.00143779
0.00152452
0.00169579
0.00579033
0.000907315
0.000968091
0.000918985
0.000986832
0.00104701
0.00109528
0.00115666
0.00117955
0.00121829
0.001207
0.00120927
0.00121326
0.00122382
0.00131454
0.00136268
0.00145853
0.00146626
0.00152063
0.0016081
0.00494313
0.00102575
0.00108519
0.0010189
0.00106674
0.00108114
0.00109926
0.00108678
0.00108554
0.00107678
0.00106856
0.00110214
0.00112757
0.00122918
0.00131563
0.00138305
0.00147974
0.00140787
0.00149411
0.00156445
0.00447105
0.000954352
0.00096204
0.000914418
0.000938886
0.000956722
0.000969415
0.000983713
0.00102582
0.00105916
0.00113632
0.00120297
0.0012984
0.0013928
0.0014394
0.00149125
0.0014499
0.00140032
0.00153015
0.00165218
0.00432147
0.000947419
0.000974864
0.000948212
0.000984685
0.00102885
0.00105676
0.00110718
0.0011502
0.00119989
0.00124959
0.00127473
0.00131978
0.00130274
0.001306
0.00125699
0.00123962
0.00133706
0.001488
0.00162059
0.0035508
0.000930584
0.000968699
0.000935054
0.000976511
0.00101089
0.00102976
0.00105974
0.00107797
0.00110582
0.00111813
0.00114611
0.00116523
0.00119044
0.00122827
0.00129323
0.00141876
0.00159144
0.00171233
0.00178413
0.00350593
0.000917253
0.000964271
0.000932105
0.000984577
0.00101213
0.00104197
0.00106892
0.00110521
0.00114067
0.00118128
0.0012329
0.00127456
0.00134274
0.0013926
0.00149185
0.00154167
0.00161466
0.0015034
0.00142786
0.00241489
0.000913585
0.000955517
0.000925185
0.000975803
0.00100592
0.00103429
0.00106386
0.00109949
0.00113105
0.00116959
0.00120224
0.00124427
0.00127867
0.00132812
0.00136019
0.00140378
0.00142541
0.00145134
0.00163935
0.00215559
0.000246166
0.00016586
0.000208345
0.00023597
0.000202215
0.00013805
0.000141269
0.000198555
0.000246093
0.000135807
7.73715e-05
0.000407233
0.00151235
0.0039684
0.00805488
0.0107141
0.00822052
0.00369901
0.000268109
0.000535267
0.00029274
0.000233058
0.00020838
0.000196242
0.000235263
0.000236023
0.000211526
0.000169736
0.000256019
0.000271384
0.000175604
0.000103643
0.000495252
0.00197192
0.0051487
0.00928253
0.0105185
0.00664341
0.00188294
6.80227e-23
0.000279772
0.000271536
0.000292852
0.000218911
0.000197639
0.000207301
0.000241072
0.000231054
0.000216855
0.000263749
0.000272353
0.000157902
0.000108416
0.000750912
0.00290356
0.00701179
0.0107646
0.00906505
0.00407324
0.000486344
0.000308645
0.000245442
0.000290049
0.000298891
0.000278293
0.000236216
0.000237705
0.000229628
0.000267491
0.000284493
0.000310299
0.00026251
0.000115707
8.82303e-05
0.00131489
0.00484651
0.00939356
0.0107221
0.00689829
0.000951739
0.000347956
0.000302158
0.000296713
0.000275915
0.000289296
0.000273171
0.000303421
0.000264766
0.000248901
0.000269158
0.00034783
0.000343602
0.000245605
0.000140326
0.000340151
0.0026264
0.00763692
0.0113035
0.00876227
0.00257252
0.000365485
0.000336408
0.00035812
0.000335642
0.000344871
0.000282037
0.000303467
0.000319506
0.000328978
0.000305202
0.000317728
0.000403255
0.000368752
0.000254661
0.000151157
0.00113302
0.00572371
0.0109329
0.0101167
0.00244263
0.000402334
0.000370277
0.000370586
0.000328928
0.000380282
0.000353664
0.00035799
0.000326852
0.000332852
0.000357861
0.000392878
0.000403097
0.000415391
0.000358761
0.000165204
0.000288214
0.00341012
0.00974407
0.0112022
0.00521129
0.000416851
0.00041626
0.00044504
0.000376527
0.000415292
0.000367932
0.000395268
0.000417003
0.000410468
0.000386134
0.000415806
0.0004938
0.000525915
0.00048168
0.000351973
0.000252566
0.00165549
0.00863385
0.0117599
0.00727984
0.00044388
0.000435318
0.000470941
0.000398038
0.000462993
0.000440852
0.000432082
0.000420789
0.000446374
0.000470371
0.000490168
0.000513075
0.000538909
0.000597361
0.000551986
0.000259715
0.000697597
0.00746439
0.01197
0.00970672
0.000467616
0.000477122
0.00053582
0.00044837
0.000492279
0.000470341
0.000494911
0.000516231
0.000508016
0.000494863
0.000537362
0.00061858
0.000650646
0.000645291
0.000614041
0.000467196
0.000393784
0.00533882
0.0118232
0.012258
0.000506477
0.000497068
0.000558047
0.000484829
0.000541815
0.000533816
0.000523082
0.00052768
0.000564268
0.000585975