/*--------------------------------*- C++ -*----------------------------------*\
  =========                 |
  \\      /  F ield         | OpenFOAM: The Open Source CFD Toolbox
   \\    /   O peration     | Website:  https://openfoam.org
    \\  /    A nd           | Version:  9
     \\/     M anipulation  |
\*---------------------------------------------------------------------------*/
FoamFile
{
    format      ascii;
    class       surfaceScalarField;
    location    "2.1";
    object      phi;
}
// * * * * * * * * * * * * * * * * * * * * * * * * * * * * * * * * * * * * * //

dimensions      [0 3 -1 0 0 0 0];

internalField   nonuniform List<scalar> 
92080
(
0.00146991
-0.428273
0.426803
-0.014928
-0.876022
0.89242
-0.0500066
-0.964804
0.999883
-0.0860409
-0.950555
0.986589
-0.121058
-0.935564
0.970581
-0.155725
-0.920984
0.955651
-0.189777
-0.90866
0.942713
-0.223749
-0.894981
0.928953
-0.257136
-0.883233
0.91662
-0.290106
-0.871668
0.904637
-0.323116
-0.861672
0.894682
-0.35614
-0.852632
0.885655
-0.388846
-0.844837
0.877543
-0.420771
-0.836859
0.868784
-0.452779
-0.829186
0.861194
-0.485057
-0.821969
0.854248
-0.5168
-0.815707
0.84745
-0.547759
-0.808782
0.839741
-0.57772
-0.801182
0.831144
-0.795958
0.823874
-0.605636
-0.000543733
-0.427729
-0.020863
-0.855703
-0.0569039
-0.928763
-0.0941219
-0.913337
-0.130778
-0.898907
-0.167308
-0.884454
-0.203299
-0.872669
-0.238622
-0.859658
-0.27399
-0.847864
-0.309172
-0.836486
-0.34413
-0.826715
-0.378913
-0.817848
-0.413423
-0.810327
-0.447643
-0.802639
-0.481047
-0.795783
-0.513694
-0.789322
-0.545864
-0.783538
-0.576753
-0.777892
-0.605895
-0.77204
-0.767141
-0.634712
-0.00300351
-0.424725
-0.0272601
-0.831447
-0.067258
-0.888765
-0.107293
-0.873302
-0.146435
-0.859766
-0.185086
-0.845803
-0.223168
-0.834588
-0.260956
-0.82187
-0.29798
-0.810841
-0.334584
-0.799881
-0.371161
-0.790138
-0.407675
-0.781334
-0.443846
-0.774156
-0.479393
-0.767091
-0.515171
-0.760005
-0.550985
-0.753508
-0.586219
-0.748305
-0.620625
-0.743485
-0.654099
-0.738566
-0.733919
-0.687322
-0.00538542
-0.41934
-0.0338348
-0.802997
-0.0742368
-0.848363
-0.115032
-0.832506
-0.155325
-0.819473
-0.195482
-0.805647
-0.2349
-0.795169
-0.273561
-0.783209
-0.312364
-0.772038
-0.350718
-0.761527
-0.388758
-0.752098
-0.426802
-0.74329
-0.464768
-0.736191
-0.502213
-0.729646
-0.53853
-0.723688
-0.574899
-0.717139
-0.612061
-0.711142
-0.648807
-0.70674
-0.684535
-0.702838
-0.698202
-0.720251
-0.00476276
-0.414577
-0.0395713
-0.768189
-0.0827888
-0.805146
-0.125841
-0.789454
-0.168273
-0.777041
-0.210408
-0.763513
-0.25224
-0.753337
-0.293424
-0.742025
-0.333802
-0.731661
-0.373839
-0.721489
-0.41363
-0.712307
-0.453419
-0.703501
-0.493157
-0.696453
-0.532764
-0.690038
-0.57237
-0.684082
-0.610451
-0.679058
-0.648378
-0.673216
-0.68737
-0.667748
-0.725709
-0.664498
-0.660756
-0.763155
-0.000708374
-0.413869
-0.038531
-0.730366
-0.0842205
-0.759456
-0.129829
-0.743845
-0.174518
-0.732352
-0.218627
-0.719404
-0.261751
-0.710213
-0.303842
-0.699934
-0.345948
-0.689554
-0.387434
-0.680004
-0.428233
-0.671507
-0.46899
-0.662745
-0.510028
-0.655415
-0.550439
-0.649627
-0.590838
-0.643683
-0.631749
-0.638148
-0.671201
-0.633764
-0.710932
-0.628017
-0.751608
-0.623822
-0.620389
-0.791975
-3.25663e-05
-0.413836
-0.0411574
-0.689241
-0.0904708
-0.710143
-0.138368
-0.695948
-0.185333
-0.685386
-0.231674
-0.673063
-0.277691
-0.664196
-0.322235
-0.655389
-0.365389
-0.6464
-0.40854
-0.636853
-0.451113
-0.628934
-0.492895
-0.620963
-0.535185
-0.613125
-0.577607
-0.607205
-0.618789
-0.6025
-0.659778
-0.597159
-0.700866
-0.592676
-0.740607
-0.588276
-0.781023
-0.583405
-0.579774
-0.821639
0.00123083
-0.415067
-0.0415
-0.64651
-0.0931059
-0.658537
-0.143189
-0.645866
-0.191731
-0.636843
-0.239352
-0.625443
-0.2861
-0.617448
-0.332027
-0.609463
-0.377083
-0.601344
-0.420914
-0.593022
-0.46443
-0.585418
-0.507074
-0.578319
-0.549371
-0.570828
-0.592816
-0.56376
-0.636607
-0.558709
-0.679436
-0.554329
-0.722048
-0.550064
-0.764177
-0.546147
-0.805117
-0.542466
-0.53803
-0.84686
-0.00108104
-0.413986
-0.0484815
-0.59911
-0.102235
-0.604783
-0.153743
-0.594358
-0.20395
-0.586635
-0.253232
-0.576161
-0.30239
-0.56829
-0.349785
-0.562068
-0.395683
-0.555446
-0.441341
-0.547365
-0.486192
-0.540566
-0.529972
-0.534539
-0.572447
-0.528353
-0.614365
-0.521842
-0.657273
-0.515801
-0.700665
-0.510938
-0.743608
-0.507121
-0.786555
-0.5032
-0.82859
-0.500431
-0.497177
-0.869443
-0.00733235
-0.406654
-0.055678
-0.550764
-0.109274
-0.551187
-0.161288
-0.542344
-0.211937
-0.535986
-0.261291
-0.526807
-0.310427
-0.519154
-0.359862
-0.512633
-0.407321
-0.507988
-0.452895
-0.50179
-0.499194
-0.494268
-0.545108
-0.488625
-0.590188
-0.483272
-0.634216
-0.477814
-0.677306
-0.47271
-0.721049
-0.467195
-0.765051
-0.463119
-0.809148
-0.459103
-0.853649
-0.45593
-0.453161
-0.897664
-0.017731
-0.388923
-0.0683051
-0.50019
-0.121906
-0.497586
-0.174424
-0.489826
-0.225385
-0.485025
-0.275579
-0.476614
-0.325427
-0.469306
-0.374774
-0.463286
-0.424446
-0.458316
-0.471543
-0.454692
-0.516561
-0.44925
-0.562172
-0.443015
-0.607056
-0.438388
-0.651716
-0.433154
-0.695623
-0.428803
-0.738538
-0.42428
-0.781798
-0.419859
-0.824735
-0.416165
-0.868026
-0.41264
-0.40966
-0.911527
-0.0248856
-0.364037
-0.0758374
-0.449238
-0.129085
-0.444338
-0.182229
-0.436683
-0.234238
-0.433017
-0.283919
-0.426932
-0.333817
-0.419408
-0.383972
-0.413131
-0.434124
-0.408164
-0.484633
-0.404183
-0.532816
-0.401068
-0.579302
-0.396528
-0.625861
-0.39183
-0.671204
-0.387811
-0.716786
-0.383221
-0.761669
-0.379398
-0.806035
-0.375493
-0.850598
-0.371602
-0.894603
-0.368634
-0.365196
-0.939068
-0.0327024
-0.331335
-0.0857216
-0.396219
-0.139485
-0.390574
-0.192702
-0.383466
-0.245823
-0.379895
-0.297165
-0.37559
-0.346342
-0.370231
-0.395446
-0.364027
-0.445027
-0.358583
-0.494537
-0.354672
-0.544373
-0.351231
-0.592222
-0.348679
-0.638811
-0.345241
-0.684868
-0.341754
-0.729231
-0.338858
-0.773824
-0.334805
-0.817148
-0.332169
-0.860575
-0.328176
-0.903586
-0.325622
-0.322147
-0.946635
-0.0375286
-0.293806
-0.0914383
-0.342309
-0.146057
-0.335955
-0.200645
-0.328878
-0.254673
-0.325867
-0.307368
-0.322895
-0.358807
-0.318792
-0.408218
-0.314616
-0.457636
-0.309165
-0.507757
-0.304551
-0.55786
-0.301128
-0.608943
-0.297596
-0.658362
-0.295823
-0.707651
-0.292464
-0.755717
-0.290793
-0.802559
-0.287962
-0.848775
-0.285953
-0.893453
-0.283497
-0.937821
-0.281255
-0.279049
-0.980919
-0.0414853
-0.252321
-0.0965711
-0.287224
-0.149917
-0.282609
-0.203871
-0.274924
-0.259085
-0.270654
-0.312666
-0.269314
-0.364614
-0.266844
-0.415133
-0.264097
-0.462958
-0.26134
-0.510933
-0.256577
-0.558423
-0.253638
-0.606495
-0.249524
-0.655314
-0.247004
-0.703676
-0.244102
-0.752857
-0.241612
-0.801362
-0.239457
-0.850107
-0.237209
-0.898169
-0.235435
-0.946006
-0.233418
-0.231769
-0.993286
-0.0431814
-0.209139
-0.102539
-0.227867
-0.15815
-0.226998
-0.211153
-0.221922
-0.265822
-0.215984
-0.322439
-0.212698
-0.377585
-0.211698
-0.43238
-0.209302
-0.485022
-0.208698
-0.535315
-0.206284
-0.584739
-0.204213
-0.63235
-0.201913
-0.679897
-0.199457
-0.726572
-0.197427
-0.773126
-0.195058
-0.819457
-0.193126
-0.865713
-0.190952
-0.911968
-0.18918
-0.958118
-0.187268
-0.185571
-1.00432
-0.0496959
-0.159443
-0.108296
-0.169266
-0.162406
-0.172888
-0.214331
-0.169996
-0.263827
-0.166488
-0.314649
-0.161876
-0.366964
-0.159384
-0.419458
-0.156808
-0.473109
-0.155046
-0.52568
-0.153712
-0.577958
-0.151936
-0.629347
-0.150524
-0.679877
-0.148926
-0.729765
-0.147539
-0.778723
-0.1461
-0.827125
-0.144724
-0.874737
-0.14334
-0.922005
-0.141912
-0.968663
-0.14061
-0.1391
-1.01513
-0.0510986
-0.108345
-0.114874
-0.10549
-0.177038
-0.110725
-0.234894
-0.11214
-0.289472
-0.111909
-0.340753
-0.110596
-0.391462
-0.108674
-0.441145
-0.107125
-0.490855
-0.105337
-0.540449
-0.104118
-0.589599
-0.102786
-0.638677
-0.101447
-0.687327
-0.100276
-0.735907
-0.0989591
-0.784002
-0.0980059
-0.831942
-0.0967833
-0.879316
-0.0959657
-0.926416
-0.0948127
-0.973029
-0.093997
-0.0928797
-1.01925
-0.0496927
-0.0586521
-0.0983885
-0.0567947
-0.155274
-0.053839
-0.211841
-0.0555736
-0.269783
-0.0539674
-0.325951
-0.0544274
-0.381121
-0.0535046
-0.435084
-0.0531623
-0.488021
-0.0524002
-0.540128
-0.0520104
-0.59145
-0.0514637
-0.641825
-0.0510721
-0.691624
-0.0504762
-0.740564
-0.0500187
-0.789194
-0.049376
-0.837031
-0.0489464
-0.884673
-0.0483243
-0.931517
-0.0479684
-0.978097
-0.0474167
-0.0470741
-1.0239
-0.0761979
0.0175458
-0.127874
-0.00511864
-0.181111
-0.000601836
-0.231732
-0.00495229
-0.284234
-0.00146574
-0.335725
-0.00293663
-0.388276
-0.000953735
-0.439479
-0.00195951
-0.491122
-0.00075717
-0.541728
-0.00140377
-0.592645
-0.000547289
-0.642627
-0.00108986
-0.692608
-0.000494796
-0.741651
-0.000975885
-0.790477
-0.000549659
-0.838472
-0.000952015
-0.886147
-0.000649068
-0.933141
-0.000974522
-0.979775
-0.000782924
-1.02572
-0.00112565
-0.00879959
0.0475316
-0.038732
0.00538533
0.0386549
-0.0528398
0.0705434
-0.0512398
-0.0139183
0.23827
-0.281722
0.113995
0.474239
-0.626401
0.390431
0.662256
-0.88939
0.701374
0.762237
-1.02412
0.92414
0.808392
-1.07448
1.02832
0.832383
-1.09039
1.0664
0.847088
-1.09386
1.07915
0.857498
-1.09307
1.08267
0.864926
-1.08936
1.08193
0.872429
-1.08725
1.07975
0.881344
-1.08571
1.0768
0.8907
-1.08578
1.07643
0.898338
-1.08376
1.07613
0.905045
-1.08336
1.07665
0.912096
-1.08196
1.07491
0.919489
-1.08237
1.07498
-1.08014
0.92567
1.07396
-0.00331612
0.0508478
0.0334771
0.00186167
0.136306
-0.154069
0.351042
-0.496457
0.546165
-0.821524
0.660925
-1.00415
0.714332
-1.07753
0.739397
-1.09954
0.752935
-1.10393
0.761957
-1.10288
0.768241
-1.09936
0.774396
-1.09551
0.781696
-1.09455
0.78828
-1.0923
0.793583
-1.09109
0.799008
-1.08919
0.804937
-1.08929
0.810493
-1.08751
0.814649
-1.08653
-1.08369
0.818196
0.00729678
0.043551
0.0639352
-0.0547768
0.215317
-0.305451
0.413457
-0.694597
0.546525
-0.954593
0.613514
-1.07114
0.642009
-1.10602
0.655955
-1.11349
0.664977
-1.11295
0.671346
-1.10925
0.676521
-1.10453
0.682743
-1.10174
0.68809
-1.0999
0.692928
-1.09714
0.698024
-1.09618
0.703273
-1.09444
0.707706
-1.09372
0.710292
-1.0901
0.712744
-1.08898
-1.08627
0.715325
0.0259276
0.0176234
0.10014
-0.128989
0.278068
-0.483378
0.433542
-0.850071
0.521521
-1.04257
0.556435
-1.10605
0.5716
-1.12119
0.580132
-1.12202
0.585861
-1.11868
0.589066
-1.11246
0.59302
-1.10849
0.59698
-1.1057
0.60071
-1.10363
0.604497
-1.10092
0.607716
-1.0994
0.610127
-1.09685
0.61148
-1.09508
0.612942
-1.09156
0.614719
-1.09076
-1.08669
0.615137
0.0404049
-0.0227816
0.129934
-0.218518
0.294891
-0.648335
0.408084
-0.963265
0.459403
-1.09389
0.480168
-1.12682
0.489933
-1.13095
0.495975
-1.12806
0.498817
-1.12152
0.502169
-1.11581
0.505847
-1.11217
0.509317
-1.10917
0.511999
-1.10631
0.513915
-1.10284
0.515337
-1.10083
0.516499
-1.09801
0.517085
-1.09566
0.517549
-1.09203
0.517199
-1.09041
-1.08518
0.515695
0.0383709
-0.0611524
0.15586
-0.336008
0.293498
-0.785972
0.372203
-1.04197
0.403006
-1.12469
0.414582
-1.13839
0.420464
-1.13683
0.423089
-1.13069
0.425351
-1.12378
0.427573
-1.11803
0.429246
-1.11384
0.430195
-1.11011
0.430425
-1.10654
0.430607
-1.10302
0.430393
-1.10061
0.429412
-1.09703
0.427582
-1.09383
0.425527
-1.08997
0.422922
-1.0878
-1.08169
0.419427
0.0349295
-0.096082
0.156051
-0.457129
0.260557
-0.890479
0.313446
-1.09486
0.331476
-1.14272
0.338962
-1.14588
0.343157
-1.14103
0.345114
-1.13265
0.346643
-1.12531
0.347412
-1.1188
0.347782
-1.11421
0.347637
-1.10997
0.347003
-1.10591
0.345715
-1.10173
0.343631
-1.09853
0.341052
-1.09445
0.338097
-1.09088
0.335031
-1.08691
0.331127
-1.0839
-1.07667
0.326111
0.0390537
-0.135136
0.145932
-0.564007
0.229014
-0.973561
0.264189
-1.13003
0.275578
-1.15411
0.280872
-1.15117
0.281829
-1.14199
0.28205
-1.13287
0.281535
-1.1248
0.280532
-1.1178
0.278883
-1.11256
0.276452
-1.10754
0.273151
-1.10261
0.269453
-1.09803
0.265312
-1.09439
0.260614
-1.08975
0.2553
-1.08556
0.249629
-1.08124
0.243212
-1.07748
-1.06977
0.236311
0.0433557
-0.178491
0.13246
-0.653112
0.192246
-1.03335
0.212209
-1.15
0.21723
-1.15913
0.217554
-1.1515
0.216634
-1.14107
0.215133
-1.13137
0.212737
-1.1224
0.209574
-1.11463
0.205793
-1.10878
0.201346
-1.10309
0.196501
-1.09776
0.191144
-1.09268
0.185099
-1.08834
0.178583
-1.08324
0.171663
-1.07864
0.164467
-1.07404
0.156611
-1.06963
-1.06136
0.148199
0.0459868
-0.224478
0.116309
-0.723434
0.159802
-1.07684
0.170536
-1.16073
0.171968
-1.16057
0.169657
-1.14919
0.166687
-1.1381
0.162442
-1.12712
0.157417
-1.11737
0.151789
-1.109
0.145542
-1.10253
0.138661
-1.09621
0.131038
-1.09014
0.12291
-1.08455
0.114341
-1.07977
0.105311
-1.07421
0.0958142
-1.06915
0.0859837
-1.06421
0.075615
-1.05926
-1.05081
0.0650676
0.0424658
-0.266944
0.0994324
-0.780401
0.127266
-1.10467
0.128972
-1.16244
0.124807
-1.1564
0.118743
-1.14312
0.11224
-1.13159
0.105152
-1.12003
0.0974835
-1.10971
0.0892277
-1.10075
0.0804264
-1.09373
0.0710866
-1.08687
0.0614023
-1.08045
0.0513005
-1.07445
0.0407392
-1.06921
0.0298154
-1.06328
0.0184866
-1.05782
0.00685474
-1.05258
-0.00507397
-1.04733
-1.03859
-0.0172957
0.0365909
-0.303535
0.0835622
-0.827372
0.099283
-1.12039
0.0961278
-1.15928
0.0886504
-1.14892
0.0805125
-1.13499
0.0715818
-1.12266
0.0618764
-1.11033
0.0515145
-1.09934
0.0405446
-1.08978
0.0290364
-1.08222
0.0169695
-1.0748
0.00432986
-1.06781
-0.00877708
-1.06134
-0.0222853
-1.0557
-0.036191
-1.04938
-0.0504467
-1.04356
-0.0648321
-1.03819
-0.0794412
-1.03272
-1.02409
-0.0939439
0.0282389
-0.331774
0.0616564
-0.86079
0.0690224
-1.12776
0.0606819
-1.15094
0.0493387
-1.13758
0.037715
-1.12336
0.0254358
-1.11038
0.0125724
-1.09747
-0.000705266
-1.08607
-0.0144677
-1.07602
-0.0286511
-1.06804
-0.0431418
-1.06031
-0.0579559
-1.053
-0.0731451
-1.04615
-0.0885796
-1.04027
-0.104286
-1.03367
-0.120402
-1.02745
-0.136843
-1.02175
-0.153227
-1.01634
-1.00778
-0.169534
0.0267263
-0.3585
0.0522525
-0.886316
0.0502871
-1.12579
0.0380904
-1.13874
0.0235065
-1.123
0.00871166
-1.10857
-0.00653921
-1.09513
-0.0222096
-1.08179
-0.038328
-1.06995
-0.0549692
-1.05938
-0.0720609
-1.05095
-0.089595
-1.04278
-0.10743
-1.03516
-0.125632
-1.02795
-0.144156
-1.02174
-0.162873
-1.01495
-0.181779
-1.00854
-0.200814
-1.00271
-0.219518
-0.997633
-0.989224
-0.238073
0.0188273
-0.377327
0.0338607
-0.90135
0.0251742
-1.11711
0.00811873
-1.12169
-0.00956899
-1.10531
-0.0275094
-1.09063
-0.0457048
-1.07694
-0.0643544
-1.06315
-0.0832698
-1.05103
-0.102561
-1.04008
-0.12216
-1.03135
-0.14193
-1.02301
-0.162009
-1.01508
-0.1824
-1.00756
-0.202888
-1.00126
-0.223508
-0.994332
-0.244463
-0.987584
-0.265759
-0.981419
-0.286571
-0.976821
-0.968696
-0.307099
0.0172951
-0.394622
0.0275931
-0.911647
0.0132859
-1.1028
-0.00688347
-1.10152
-0.0278753
-1.08432
-0.0491522
-1.06935
-0.0706485
-1.05544
-0.0922915
-1.0415
-0.114138
-1.02919
-0.136382
-1.01784
-0.158985
-1.00874
-0.181856
-1.00014
-0.20476
-0.992181
-0.227928
-0.984392
-0.251389
-0.977795
-0.274901
-0.970819
-0.298466
-0.96402
-0.322325
-0.957559
-0.345937
-0.95321
-0.94579
-0.368842
0.0120095
-0.406632
0.0146681
-0.914306
-0.00544929
-1.08268
-0.0304066
-1.07656
-0.0548681
-1.05986
-0.0792495
-1.04497
-0.103418
-1.03127
-0.127831
-1.01709
-0.152324
-1.00469
-0.176983
-0.993181
-0.201852
-0.983876
-0.226833
-0.975158
-0.252103
-0.966911
-0.277563
-0.958932
-0.30295
-0.952407
-0.328352
-0.945417
-0.353939
-0.938433
-0.379883
-0.931616
-0.405831
-0.927261
-0.920719
-0.430903
0.00979752
-0.416429
0.00757202
-0.912081
-0.0158214
-1.05929
-0.0424233
-1.04996
-0.069443
-1.03284
-0.0965654
-1.01785
-0.123658
-1.00418
-0.150629
-0.990118
-0.17766
-0.977663
-0.205025
-0.965816
-0.232697
-0.956205
-0.260493
-0.947362
-0.288122
-0.939281
-0.316126
-0.930929
-0.344549
-0.923984
-0.372858
-0.917108
-0.401042
-0.91025
-0.429591
-0.903067
-0.458862
-0.89799
-0.892143
-0.487438
0.00608463
-0.422514
-0.0011865
-0.90481
-0.0302926
-1.03018
-0.0612466
-1.01901
-0.0913573
-1.00272
-0.121385
-0.987818
-0.150927
-0.974637
-0.180598
-0.960447
-0.210106
-0.948154
-0.239536
-0.936386
-0.269139
-0.926603
-0.298925
-0.917576
-0.328911
-0.909295
-0.35884
-0.900999
-0.388874
-0.893949
-0.419117
-0.886865
-0.449509
-0.879857
-0.480099
-0.872477
-0.512165
-0.865924
-0.860778
-0.54353
0.0042888
-0.00810035
-0.0384009
-0.070818
-0.102962
-0.135129
-0.167054
-0.198548
-0.230082
-0.261831
-0.293751
-0.325672
-0.357424
-0.389639
-0.422394
-0.455011
-0.487419
-0.520156
-0.554936
-0.59184
0.848385
-9.56929
9.64658
0.783211
-9.43288
9.49806
0.718985
-9.45482
9.51905
0.661621
-9.4768
9.53416
0.604538
-9.50205
9.55914
0.550285
-9.5274
9.58165
0.49921
-9.53837
9.58945
0.450578
-9.56657
9.6152
0.404145
-9.58985
9.63629
0.360533
-9.60873
9.65234
0.320377
-9.62466
9.66481
0.283316
-9.6338
9.67086
0.249378
-9.64608
9.68002
0.218068
-9.65112
9.68243
0.18961
-9.65202
9.68048
0.16261
-9.62813
9.65513
0.139476
-9.58457
9.60771
0.106919
-9.06699
9.09955
0.0543037
-7.38411
7.43672
-3.99268
4.04699
0.741496
-9.49259
0.682635
-9.37402
0.62393
-9.39612
0.570797
-9.42366
0.519117
-9.45037
0.467235
-9.47552
0.417987
-9.48912
0.37342
-9.52201
0.332983
-9.54942
0.2958
-9.57154
0.262155
-9.59101
0.231654
-9.6033
0.20457
-9.619
0.180118
-9.62667
0.158652
-9.63056
0.139426
-9.60891
0.123133
-9.56828
0.0960581
-9.03991
0.0502879
-7.33834
-3.94239
0.644216
-9.42148
0.584927
-9.31473
0.528115
-9.33931
0.4803
-9.37585
0.432559
-9.40263
0.388464
-9.43142
0.348968
-9.44963
0.312026
-9.48506
0.277396
-9.51479
0.245525
-9.53967
0.217202
-9.56269
0.191933
-9.57803
0.169769
-9.59683
0.150218
-9.60712
0.133619
-9.61396
0.118575
-9.59386
0.107297
-9.557
0.0875256
-9.02014
0.048086
-7.2989
-3.89431
0.541232
-9.34758
0.486859
-9.26036
0.434545
-9.28699
0.390494
-9.3318
0.348264
-9.3604
0.307122
-9.39028
0.269507
-9.41201
0.236189
-9.45175
0.207246
-9.48584
0.181638
-9.51406
0.159677
-9.54073
0.140786
-9.55914
0.125297
-9.58134
0.112483
-9.59431
0.102786
-9.60426
0.0954358
-9.58651
0.0909765
-9.55254
0.0769354
-9.0061
0.0443487
-7.26631
-3.84996
0.446002
-9.27789
0.392261
-9.20662
0.342616
-9.23735
0.303011
-9.29219
0.264057
-9.32145
0.229953
-9.35617
0.201567
-9.38363
0.175747
-9.42592
0.152589
-9.46269
0.132175
-9.49365
0.115381
-9.52393
0.10162
-9.54538
0.090955
-9.57068
0.0829149
-9.58627
0.0779378
-9.59928
0.0746643
-9.58324
0.0751687
-9.55305
0.0683919
-8.99932
0.0421603
-7.24008
-3.8078
0.347582
-9.20604
0.296894
-9.15593
0.250929
-9.19138
0.214595
-9.25586
0.181117
-9.28797
0.150316
-9.32537
0.123966
-9.35728
0.10156
-9.40352
0.0838157
-9.44494
0.0694766
-9.47931
0.0588565
-9.51331
0.0512742
-9.5378
0.047086
-9.56649
0.0456234
-9.58481
0.0474141
-9.60107
0.0517138
-9.58754
0.0589641
-9.5603
0.0580921
-8.99845
0.0386581
-7.22065
-3.76914
0.255335
-9.13527
0.206056
-9.10665
0.162882
-9.14821
0.130135
-9.22311
0.0998133
-9.25765
0.075607
-9.30117
0.0577683
-9.33944
0.0424794
-9.38823
0.0303881
-9.43285
0.0211229
-9.47005
0.0154985
-9.50769
0.0128981
-9.5352
0.0133995
-9.56699
0.0165449
-9.58795
0.0228807
-9.60741
0.0311386
-9.5958
0.0432771
-9.57244
0.0495728
-9.00475
0.0364985
-7.20757
-3.73264
0.162483
-9.06144
0.114684
-9.05885
0.0743607
-9.10789
0.044029
-9.19278
0.0186524
-9.23227
-0.00213353
-9.28038
-0.0178435
-9.32373
-0.0297533
-9.37632
-0.0366366
-9.42597
-0.0400483
-9.46663
-0.0397226
-9.50801
-0.0363463
-9.53857
-0.0296003
-9.57374
-0.0200732
-9.59748
-0.00715012
-9.62033
0.00850959
-9.61145
0.0272826
-9.59121
0.039578
-9.01704
0.0331894
-7.20118
-3.69945
0.0747152
-8.98795
0.0280018
-9.01214
-0.010875
-9.06901
-0.0375414
-9.16612
-0.0592569
-9.21056
-0.073885
-9.26575
-0.0817832
-9.31583
-0.0870693
-9.37103
-0.0885402
-9.4245
-0.0870161
-9.46816
-0.0818905
-9.51314
-0.0737049
-9.54676
-0.0624534
-9.58499
-0.048489
-9.61144
-0.0312441
-9.63758
-0.011759
-9.63094
0.011801
-9.61477
0.0311093
-9.03635
0.0310706
-7.20114
-3.66838
-0.0136213
-8.90927
-0.0590115
-8.96675
-0.0947586
-9.03326
-0.120514
-9.14036
-0.137767
-9.1933
-0.149386
-9.25413
-0.155126
-9.31009
-0.156991
-9.36917
-0.15344
-9.42805
-0.146309
-9.47529
-0.135479
-9.52397
-0.121554
-9.56068
-0.104308
-9.60223
-0.0842113
-9.63154
-0.0606219
-9.66117
-0.0339449
-9.65762
-0.00388882
-9.64483
0.021416
-9.06166
0.0279379
-7.20767
-3.64044
-0.0949685
-8.83159
-0.142232
-8.91948
-0.176523
-8.99897
-0.198862
-9.11802
-0.212252
-9.17991
-0.217963
-9.24842
-0.216575
-9.31148
-0.212242
-9.3735
-0.203551
-9.43674
-0.191651
-9.48719
-0.176215
-9.53941
-0.157688
-9.57921
-0.136133
-9.62379
-0.111806
-9.65587
-0.0841323
-9.68884
-0.0538146
-9.68793
-0.0190783
-9.67956
0.0129801
-9.09372
0.0258656
-7.22055
-3.61458
-0.177065
-8.74847
-0.224239
-8.87231
-0.256958
-8.96625
-0.278046
-9.09693
-0.287288
-9.17067
-0.29042
-9.24529
-0.287068
-9.31483
-0.27938
-9.38119
-0.265925
-9.45019
-0.248703
-9.50441
-0.227841
-9.56027
-0.203842
-9.60321
-0.176581
-9.65105
-0.146413
-9.68603
-0.112672
-9.72258
-0.0754595
-9.72515
-0.0344024
-9.72062
0.00348544
-9.1316
0.0229332
-7.24
-3.59165
-0.255014
-8.66299
-0.303369
-8.82395
-0.335181
-8.93444
-0.352715
-9.0794
-0.358259
-9.16513
-0.355849
-9.2477
-0.345864
-9.32481
-0.33231
-9.39474
-0.313982
-9.46852
-0.29218
-9.52621
-0.266918
-9.58553
-0.238542
-9.63158
-0.207188
-9.68241
-0.173019
-9.7202
-0.135455
-9.76015
-0.0948311
-9.76577
-0.0492361
-9.76622
-0.00489321
-9.17595
0.0209113
-7.2658
-3.57073
-0.332326
-8.56874
-0.380796
-8.77549
-0.411836
-8.9034
-0.427937
-9.0633
-0.429223
-9.16384
-0.424649
-9.25227
-0.412986
-9.33648
-0.396243
-9.41149
-0.373475
-9.49129
-0.346655
-9.55303
-0.316267
-9.61592
-0.282715
-9.66514
-0.245972
-9.71915
-0.206299
-9.75987
-0.162985
-9.80346
-0.11582
-9.81294
-0.0641616
-9.81787
-0.014068
-9.22604
0.0181323
-7.298
-3.5526
-0.405703
-8.47014
-0.456015
-8.72517
-0.48597
-8.87345
-0.498667
-9.0506
-0.496579
-9.16593
-0.486666
-9.26219
-0.468835
-9.35431
-0.446591
-9.43373
-0.419243
-9.51864
-0.388056
-9.58422
-0.353478
-9.6505
-0.315785
-9.70283
-0.275178
-9.75976
-0.231759
-9.80329
-0.18491
-9.85031
-0.134601
-9.86325
-0.0786545
-9.87382
-0.0224434
-9.28225
0.0160941
-7.33654
-3.53651
-0.477188
-8.36179
-0.528357
-8.674
-0.55811
-8.84369
-0.569401
-9.03931
-0.563131
-9.1722
-0.551464
-9.27385
-0.532233
-9.37354
-0.506991
-9.45897
-0.475523
-9.55011
-0.439635
-9.62011
-0.400247
-9.68988
-0.3577
-9.74538
-0.312048
-9.80541
-0.263503
-9.85184
-0.211266
-9.90255
-0.154819
-9.91969
-0.0932
-9.93544
-0.0314232
-9.34403
0.0135965
-7.38156
-3.52291
-0.5466
-8.24609
-0.599502
-8.6211
-0.627382
-8.81581
-0.635791
-9.0309
-0.626578
-9.18141
-0.609525
-9.29091
-0.584631
-9.39843
-0.554401
-9.4892
-0.518701
-9.58581
-0.478688
-9.66012
-0.435334
-9.73324
-0.388897
-9.79181
-0.339624
-9.85468
-0.287617
-9.90385
-0.232176
-9.95799
-0.172856
-9.97901
-0.107291
-10.001
-0.0398076
-9.41151
0.0116193
-7.43299
-3.51129
-0.615576
-8.11796
-0.668599
-8.56808
-0.695312
-8.7891
-0.702185
-9.02403
-0.689065
-9.19453
-0.670721
-9.30925
-0.644584
-9.42457
-0.611425
-9.52236
-0.571807
-9.62542
-0.527345
-9.70458
-0.479441
-9.78114
-0.428429
-9.84283
-0.374432
-9.90868
-0.317678
-9.9606
-0.257217
-10.0184
-0.192195
-10.044
-0.121264
-10.0719
-0.0483738
-9.4844
0.00935453
-7.49072
-3.50194
-0.672097
-7.98939
-0.734217
-8.50596
-0.759622
-8.76369
-0.764747
-9.0189
-0.749058
-9.21022
-0.724979
-9.33333
-0.69368
-9.45587
-0.656184
-9.55986
-0.612656
-9.66895
-0.56426
-9.75298
-0.51255
-9.83285
-0.457845
-9.89753
-0.400448
-9.96607
-0.340531
-10.0205
-0.277161
-10.0818
-0.209554
-10.1116
-0.135195
-10.1463
-0.0570061
-9.56259
0.00750709
-7.55523
-3.49443
-0.724038
-7.85719
-0.793231
-8.43677
-0.817074
-8.73985
-0.82098
-9.015
-0.804281
-9.22692
-0.778837
-9.35877
-0.746846
-9.48786
-0.706942
-9.59976
-0.660385
-9.71551
-0.608127
-9.80524
-0.552633
-9.88835
-0.493809
-9.95635
-0.432471
-10.0274
-0.368165
-10.0848
-0.300681
-10.1493
-0.227382
-10.1849
-0.14918
-10.2245
-0.0652186
-9.64655
0.00496645
-7.62542
-3.48946
8.01462
-7.49295
-8.37886
7.36686
-7.789
6.79451
-8.16751
6.20646
-8.42694
5.64377
-8.66424
5.13829
-8.85329
4.67809
-9.02766
4.25841
-9.18008
3.86156
-9.31866
3.49009
-9.43377
3.13361
-9.53187
2.78805
-9.61079
2.4461
-9.68546
2.11241
-9.75113
1.77184
-9.80874
1.46859
-9.88169
1.1374
-9.89331
0.778095
-9.28724
0.328729
-7.17605
-3.16074
4.70594
-7.40991
-4.78898
4.56215
-7.64522
4.34214
-7.9475
4.0977
-8.18249
3.84339
-8.40993
3.58548
-8.59538
3.32353
-8.76571
3.05845
-8.915
2.7864
-9.0466
2.51153
-9.1589
2.23617
-9.25652
1.97324
-9.34785
1.72094
-9.43317
1.48266
-9.51285
1.25696
-9.58303
1.03938
-9.66411
0.796735
-9.65066
0.534315
-9.02482
0.177545
-6.81928
-2.98319
3.39404
-7.50015
-3.30381
3.44135
-7.69252
3.41122
-7.91738
3.33882
-8.11009
3.20762
-8.27873
3.05208
-8.43984
2.87295
-8.58658
2.68169
-8.72373
2.4789
-8.84382
2.27109
-8.95109
2.06078
-9.04621
1.85175
-9.13882
1.63662
-9.21804
1.41906
-9.29528
1.19701
-9.36098
0.96217
-9.42927
0.727656
-9.41615
0.499649
-8.79682
0.221895
-6.54153
-2.7613
2.18152
-7.66021
-2.02145
2.28408
-7.79508
2.30191
-7.9352
2.27854
-8.08672
2.2248
-8.22499
2.14576
-8.3608
2.04153
-8.48235
1.91446
-8.59667
1.77132
-8.70067
1.62027
-8.80004
1.46514
-8.89108
1.30574
-8.97943
1.1454
-9.0577
0.987157
-9.13705
0.827993
-9.20182
0.672374
-9.27365
0.518575
-9.26235
0.36702
-8.64526
0.163514
-6.33802
-2.59778
1.55461
-7.79616
-1.41866
1.64392
-7.8844
1.70323
-7.99451
1.73809
-8.12158
1.73523
-8.22213
1.6992
-8.32477
1.6378
-8.42095
1.55772
-8.51658
1.46249
-8.60545
1.35402
-8.69157
1.2367
-8.77375
1.10876
-8.8515
0.975023
-8.92396
0.832598
-8.99462
0.687696
-9.05692
0.533345
-9.1193
0.37955
-9.10856
0.26485
-8.53056
0.140645
-6.21381
-2.45714
1.03018
-7.90789
-0.918451
1.12862
-7.98284
1.18511
-8.05101
1.1985
-8.13496
1.19182
-8.21545
1.16531
-8.29826
1.12376
-8.3794
1.06618
-8.459
0.996763
-8.53603
0.917164
-8.61197
0.828447
-8.68504
0.734558
-8.75761
0.635347
-8.82474
0.53254
-8.89181
0.428843
-8.95322
0.326267
-9.01672
0.228665
-9.01095
0.168829
-8.47073
0.106686
-6.15167
-2.35045
0.707051
-7.99072
-0.624212
0.764609
-8.04039
0.80418
-8.09058
0.831786
-8.16257
0.847632
-8.23129
0.845049
-8.29568
0.82543
-8.35978
0.789955
-8.42353
0.741623
-8.4877
0.681373
-8.55172
0.611691
-8.61535
0.531559
-8.67748
0.444273
-8.73746
0.349866
-8.79741
0.254785
-8.85814
0.158455
-8.92039
0.0600211
-8.91252
0.0204701
-8.43118
0.0528337
-6.18403
-2.29762
0.478411
-8.04707
-0.422061
0.52586
-8.08784
0.563554
-8.12828
0.581186
-8.1802
0.577119
-8.22723
0.558046
-8.27661
0.529475
-8.33121
0.492277
-8.38633
0.44707
-8.44249
0.392894
-8.49754
0.331314
-8.55377
0.263357
-8.60952
0.194142
-8.66824
0.123776
-8.72704
0.0501311
-8.78449
-0.0256839
-8.84458
-0.0921068
-8.8461
-0.0959774
-8.4273
0.0155629
-6.29557
-2.28205
0.291053
-8.08216
-0.255965
0.315439
-8.11223
0.331829
-8.14467
0.33528
-8.18365
0.331468
-8.22342
0.319975
-8.26511
0.298299
-8.30954
0.266398
-8.35443
0.225383
-8.40148
0.175881
-8.44804
0.121665
-8.49956
0.0612829
-8.54914
-0.00169091
-8.60527
-0.0696907
-8.65904
-0.139654
-8.71453
-0.210095
-8.77414
-0.269074
-8.78712
-0.251979
-8.4444
-0.0635033
-6.48405
-2.34556
0.184102
-8.10102
-0.165247
0.197902
-8.12603
0.205226
-8.15199
0.203829
-8.18226
0.193786
-8.21337
0.172463
-8.24379
0.140725
-8.2778
0.100481
-8.31418
0.0527243
-8.35372
0.00067988
-8.396
-0.0553263
-8.44355
-0.115503
-8.48896
-0.182042
-8.53873
-0.253657
-8.58743
-0.324471
-8.64372
-0.396622
-8.70198
-0.454783
-8.72896
-0.433002
-8.46618
-0.175976
-6.74108
-2.52153
0.080014
-8.10653
-0.0744997
0.0798494
-8.12586
0.0743947
-8.14654
0.0609176
-8.16878
0.0399486
-8.1924
0.0136642
-8.21751
-0.016198
-8.24794
-0.0532456
-8.27714
-0.0959594
-8.31101
-0.147039
-8.34492
-0.207397
-8.38319
-0.274925
-8.42143
-0.348604
-8.46505
-0.426963
-8.50907
-0.509861
-8.56082
-0.598124
-8.61372
-0.673989
-8.65309
-0.668274
-8.4719
-0.344614
-7.06474
-2.86615
0.0218139
-8.10487
-0.0234739
0.0140311
-8.11808
0.00226355
-8.13477
-0.0145434
-8.15197
-0.0359929
-8.17095
-0.0642937
-8.18921
-0.100286
-8.21194
-0.142733
-8.23469
-0.191014
-8.26273
-0.248264
-8.28767
-0.314357
-8.3171
-0.386914
-8.34887
-0.467364
-8.3846
-0.555506
-8.42092
-0.654117
-8.46221
-0.763926
-8.50391
-0.867665
-8.54935
-0.902633
-8.43693
-0.588296
-7.37907
-3.45444
-0.0253562
-8.09439
0.0148715
-0.0400412
-8.1034
-0.0596724
-8.11514
-0.0854408
-8.1262
-0.115756
-8.14064
-0.151147
-8.15381
-0.192042
-8.17105
-0.237837
-8.18889
-0.291323
-8.20924
-0.351005
-8.22798
-0.417465
-8.25064
-0.49422
-8.27212
-0.581208
-8.29761
-0.680036
-8.3221
-0.792329
-8.34991
-0.922344
-8.3739
-1.07013
-8.40157
-1.14537
-8.36168
-0.909249
-7.6152
-4.36369
-0.0545398
-8.08061
0.0407671
-0.0709054
-8.08703
-0.0898961
-8.09615
-0.112579
-8.10352
-0.139408
-8.11381
-0.170975
-8.12225
-0.207553
-8.13447
-0.252122
-8.14433
-0.303847
-8.15752
-0.361546
-8.17029
-0.42566
-8.18653
-0.501407
-8.19637
-0.589673
-8.20935
-0.690578
-8.22119
-0.809084
-8.23141
-0.940031
-8.24295
-1.10173
-8.23987
-1.22591
-8.23751
-1.03599
-7.80512
-5.39968
-0.0678389
-8.06429
0.0515132
-0.0870714
-8.0678
-0.109737
-8.07348
-0.134911
-8.07835
-0.163455
-8.08527
-0.195178
-8.09052
-0.230345
-8.0993
-0.268922
-8.10575
-0.312057
-8.11438
-0.363456
-8.11889
-0.423679
-8.12631
-0.488881
-8.13117
-0.559558
-8.13867
-0.640366
-8.14038
-0.730364
-8.14141
-0.833222
-8.14009
-0.947948
-8.12514
-1.0698
-8.11565
-0.938801
-7.93612
-6.33848
-0.0680795
-8.05014
0.0539296
-0.0836527
-8.05223
-0.10189
-8.05524
-0.12219
-8.05805
-0.145653
-8.0618
-0.171555
-8.06462
-0.201547
-8.06931
-0.235333
-8.07196
-0.273014
-8.0767
-0.313809
-8.07809
-0.358387
-8.08173
-0.409052
-8.0805
-0.465627
-8.0821
-0.529886
-8.07612
-0.598056
-8.07324
-0.676781
-8.06137
-0.753293
-8.04863
-0.836146
-8.0328
-0.784342
-7.98792
-7.12283
-0.0620641
-8.03708
0.0490003
-0.0763158
-8.03797
-0.0918804
-8.03968
-0.109268
-8.04066
-0.128181
-8.04289
-0.148405
-8.0444
-0.169993
-8.04773
-0.193114
-8.04884
-0.219707
-8.05011
-0.248458
-8.04934
-0.277605
-8.05258
-0.307282
-8.05083
-0.3379
-8.05148
-0.369213
-8.04481
-0.401136
-8.04132
-0.433625
-8.02888
-0.460944
-8.02131
-0.49465
-7.99909
-0.489481
-7.99309
-7.61231