/*--------------------------------*- C++ -*----------------------------------*\
  =========                 |
  \\      /  F ield         | OpenFOAM: The Open Source CFD Toolbox
   \\    /   O peration     | Website:  https://openfoam.org
    \\  /    A nd           | Version:  9
     \\/     M anipulation  |
\*---------------------------------------------------------------------------*/
FoamFile
{
    format      ascii;
    class       volScalarField;
    location    "7.4";
    object      p;
}
// * * * * * * * * * * * * * * * * * * * * * * * * * * * * * * * * * * * * * //

dimensions      [0 2 -2 0 0 0 0];

internalField   nonuniform List<scalar> 
46400
(
63.3318
70.7282
84.8244
96.4198
106.908
116.549
125.141
133.039
140.157
146.675
152.612
158.067
163.096
167.769
172.162
176.379
180.401
184.496
189.245
191.36
91.2105
99.1379
111.684
122.306
131.777
140.476
148.207
155.31
161.696
167.566
172.887
177.783
182.25
186.354
190.099
193.536
196.631
199.506
202.328
202.859
120.472
127.682
138.609
148.218
156.538
164.293
171.105
177.33
182.869
187.889
192.395
196.474
200.16
203.501
206.533
209.29
211.751
214.008
216.306
216.27
149.054
154.891
164.562
173.256
180.733
187.597
193.614
199.054
203.863
208.198
212.037
215.479
218.536
221.248
223.646
225.757
227.563
229.159
230.808
230.268
176.266
181.025
189.884
197.72
204.296
210.321
215.491
220.125
224.138
227.697
230.809
233.538
235.94
238.031
239.862
241.455
242.792
243.967
245.214
244.46
201.564
206.091
214.466
221.493
227.341
232.542
236.967
240.839
244.167
247.032
249.506
251.602
253.4
254.896
256.148
257.187
258
258.677
259.52
258.561
226.507
231.645
238.867
244.935
249.707
254.008
257.507
260.54
263.05
265.163
266.913
268.347
269.515
270.446
271.163
271.704
272.032
272.255
272.609
271.407
251.157
256.937
262.509
267.578
271.462
274.804
277.566
279.796
281.654
283.077
284.228
285.037
285.623
285.968
286.14
286.148
285.996
285.748
285.627
284.124
275.511
281.19
285.213
288.95
291.77
294.09
295.91
297.299
298.352
299.076
299.565
299.8
299.853
299.702
299.4
298.941
298.348
297.664
297.084
295.327
298.909
303.254
306.42
308.963
311.055
312.526
313.68
314.352
314.77
314.841
314.709
314.344
313.815
313.119
312.299
311.353
310.29
309.156
308.128
306.049
319.186
322.407
324.721
326.414
327.657
328.434
328.889
328.986
328.836
328.411
327.826
327.038
326.135
325.078
323.939
322.691
321.361
319.988
318.778
316.544
337.587
340.095
341.79
342.737
343.39
343.496
343.374
342.848
342.116
341.103
339.942
338.6
337.164
335.609
333.99
332.295
330.54
328.76
327.062
324.769
352.644
354.497
355.686
356.093
356.267
355.909
355.369
354.483
353.458
352.168
350.73
349.087
347.334
345.445
343.48
341.434
339.311
337.151
335.051
332.342
366.814
368.046
368.722
368.558
368.169
367.263
366.15
364.722
363.168
361.421
359.576
357.595
355.539
353.386
351.184
348.924
346.622
344.291
342.09
339.273
377.795
378.309
378.684
378.139
377.535
376.36
375.072
373.416
371.62
369.594
367.462
365.196
362.853
360.433
357.959
355.448
352.895
350.332
347.905
344.957
387.687
387.574
387.425
386.48
385.397
383.842
382.117
380.134
378.002
375.717
373.317
370.821
368.258
365.633
362.976
360.289
357.577
354.86
352.305
349.249
393.666
393.58
393.052
391.948
390.708
389.076
387.249
385.152
382.898
380.462
377.926
375.27
372.564
369.786
366.993
364.166
361.33
358.485
355.82
352.68
398.536
398.49
397.72
396.35
394.747
392.815
390.694
388.356
385.878
383.258
380.546
377.744
374.885
371.982
369.049
366.11
363.147
360.189
357.391
354.181
400.693
400.292
399.414
398.271
396.559
394.603
392.371
389.922
387.343
384.614
381.817
378.921
376
373.015
370.039
367.034
364.043
361.038
358.252
354.964
400.609
399.996
399.291
397.933
396.296
394.272
392.054
389.578
386.981
384.206
381.371
378.416
375.447
372.409
369.384
366.336
363.306
360.277
357.47
354.194
-90.2317
-90.2812
-89.0928
-89.1967
-86.1154
-81.2689
-76.376
-71.0629
-65.8162
-60.4226
-55.3127
-50.2093
-45.2637
-40.3047
-35.6315
-30.8894
-26.4287
-21.981
-17.6684
-13.5897
-94.8955
-94.5076
-94.2573
-92.0745
-87.5513
-82.1367
-76.3019
-70.6304
-64.8108
-59.1964
-53.6388
-48.1694
-42.9319
-37.6769
-32.732
-27.7361
-23.0798
-18.3829
-13.9277
-9.67751
-101.486
-100.81
-100.524
-95.9165
-90.3882
-84.1928
-77.5898
-71.1735
-64.8122
-58.5775
-52.5392
-46.6413
-40.9347
-35.321
-30.0327
-24.7297
-19.8104
-14.8628
-10.2347
-5.78356
-110.666
-109.807
-108.57
-102.273
-94.6994
-86.9864
-79.3983
-71.9758
-64.826
-57.9444
-51.2824
-44.84
-38.7058
-32.6911
-27.0675
-21.4599
-16.3067
-11.0853
-6.30533
-1.64544
-123.155
-122.401
-117.782
-109.359
-99.8141
-90.3671
-81.6463
-73.1098
-65.0231
-57.3573
-50.0185
-43.0301
-36.3524
-29.9325
-23.9061
-17.9698
-12.523
-7.04555
-2.09079
2.77998
-136.154
-135.39
-127.2
-115.922
-104.264
-93.1919
-82.9223
-73.4072
-64.3749
-55.9283
-47.9435
-40.3731
-33.2387
-26.4058
-20.0428
-13.8254
-8.15451
-2.4392
2.63555
7.69881
-143.977
-143.834
-132.855
-119.4
-106.272
-94.1556
-82.7909
-72.3791
-62.6162
-53.5297
-44.973
-36.9583
-29.3895
-22.2414
-15.5537
-9.07805
-3.1793
2.74278
7.94365
13.1818
-151.197
-148.268
-135.836
-120.645
-106.227
-93.0445
-80.8556
-69.6388
-59.2274
-49.5822
-40.5647
-32.1332
-24.2442
-16.8085
-9.89411
-3.26151
2.76658
8.83102
14.0125
19.3889
-151.867
-147.341
-134.134
-118.128
-102.928
-89.1113
-76.4497
-64.8289
-54.0047
-44.0409
-34.7226
-26.0603
-17.9546
-10.3761
-3.3162
3.40548
9.51428
15.6
20.7627
26.1966
-147.662
-143.884
-128.019
-112.173
-96.9669
-82.7994
-69.827
-57.8928
-46.8092
-36.5999
-27.0974
-18.2668
-10.0435
-2.36561
4.75186
11.476
17.5887
23.6373
28.6986
34.0937
-141.119
-137.323
-122.258
-104.674
-89.0546
-74.5992
-61.1955
-49.1153
-37.8085
-27.4683
-17.8558
-8.94474
-0.666353
7.03119
14.1938
20.9023
27.0324
33.0772
38.0739
43.5976
-133.202
-128.013
-111.275
-93.929
-77.849
-63.4298
-50.0222
-37.9077
-26.6798
-16.3458
-6.80197
2.04754
10.2596
17.8973
24.9942
31.6387
37.7532
43.7596
48.7547
54.4798
-119.553
-114.161
-97.5141
-80.2264
-64.3958
-50.1889
-36.8741
-24.8501
-13.7076
-3.49789
5.94139
14.6626
22.723
30.1968
37.1298
43.5574
49.4964
55.2586
60.0136
65.7112
-104.392
-98.1367
-81.1598
-64.2509
-48.5303
-34.5327
-21.5406
-9.75051
1.08541
11.0392
20.1824
28.6385
36.4329
43.6508
50.3343
56.502
62.2125
67.6701
72.1695
77.6779
-85.5864
-79.0837
-62.1644
-45.726
-30.4021
-16.874
-4.21715
7.19294
17.7166
27.3486
36.1968
44.3458
51.829
58.7374
65.1069
70.935
76.3692
81.4278
85.593
90.9974
-64.5708
-57.884
-40.754
-25.3424
-10.5261
2.5111
14.5885
25.5879
35.6158
44.8324
53.2471
61.0023
68.097
74.6288
80.6291
86.088
91.1991
95.7866
99.6075
104.919
-41.9093
-35.0566
-17.7261
-2.97621
11.1543
23.6368
35.1731
45.6428
55.2209
63.9876
71.9938
79.3527
86.0677
92.2374
97.8622
102.96
107.722
111.775
115.177
120.216
-17.2186
-9.86906
6.89662
20.6836
33.9099
45.6976
56.504
66.401
75.3714
83.6292
91.1237
98.0144
104.283
110.022
115.231
119.941
124.313
127.85
130.774
135.398
8.48784
15.7111
31.8259
45.182
57.7292
68.9502
79.1733
88.5203
97.0033
104.784
111.871
118.372
124.297
129.704
134.586
139.011
143.046
146.093
148.846
153.706
35.6371
43.0986
58.4115
70.6141
82.1379
92.5325
101.922
110.604
118.466
125.769
132.462
138.721
144.558
150.072
155.297
160.368
165.227
169.717
175.507
180.572
6.81263
29.5664
52.7929
66.0159
81.2887
89.6118
99.2321
105.281
110.978
115.68
118.871
122.649
124.291
127.234
127.967
130.867
131.329
132.324
132.504
132.526
11.3304
33.1723
56.3889
68.9391
83.978
91.7633
101.172
106.937
112.41
116.952
119.966
123.629
125.126
128.107
128.601
131.52
131.59
132.616
132.633
132.687
15.8703
36.7242
59.8908
71.6044
86.4765
93.8387
103.035
108.564
113.84
118.233
121.064
124.626
125.952
128.835
129.226
132.091
131.825
133.018
132.904
132.911
20.5344
40.417
63.6389
74.6372
89.2913
96.0267
105.019
110.291
115.319
119.563
122.209
125.642
126.846
129.637
129.853
132.671
132.043
133.409
133.085
133.096
25.4818
44.3482
67.3989
77.3815
91.8445
98.2402
106.935
112.001
116.795
120.902
123.352
126.657
127.734
130.366
130.504
133.184
132.294
133.776
133.265
133.363
30.6107
48.2539
71.2431
80.5584
94.6055
100.604
108.959
113.801
118.32
122.292
124.543
127.763
128.677
131.169
131.158
133.69
132.551
134.08
133.404
133.599
36.2115
52.5761
75.0622
83.6592
97.2684
102.929
110.935
115.589
119.844
123.686
125.739
128.813
129.602
131.954
131.789
134.219
132.827
134.434
133.612
133.879
42.0455
56.8908
79.004
86.9575
100.079
105.372
112.996
117.459
121.416
125.131
126.979
129.938
130.594
132.813
132.455
134.781
133.106
134.848
133.845
134.137
48.2861
61.7983
83.0038
90.277
102.857
107.802
115.029
119.321
122.988
126.579
128.226
131.048
131.56
133.641
133.097
135.362
133.415
135.228
134.046
134.424
55.0498
66.5445
86.9939
93.6975
105.729
110.329
117.129
121.255
124.607
128.076
129.517
132.212
132.601
134.528
133.793
135.956
133.744
135.629
134.266
134.713
64.1288
71.9307
91.9797
97.2462
108.626
112.861
119.214
123.185
126.228
129.572
130.815
133.361
133.61
135.378
134.325
136.577
134.042
136.024
134.49
135.01
73.4286
77.7196
97.5003
100.855
111.57
115.474
121.353
125.176
127.895
131.116
132.155
134.571
134.704
136.27
134.889
137.231
134.337
136.412
134.718
135.312
81.7888
83.6758
102.254
104.543
114.505
118.095
123.484
127.162
129.565
132.656
133.504
135.761
135.773
137.129
135.653
137.906
134.623
136.794
134.949
135.621
90.8285
89.7217
107.044
108.354
117.469
120.784
125.664
129.204
131.28
134.241
134.894
137.013
136.93
138.064
136.507
138.611
134.932
137.158
135.169
135.939
100.584
96.1723
111.434
112.184
120.417
123.463
127.837
131.236
132.998
135.821
136.293
138.246
138.057
138.973
137.348
139.335
135.26
137.533
135.387
136.25
111.326
102.865
115.962
116.086
123.365
126.163
130.03
133.299
134.746
137.431
137.722
139.529
139.261
139.936
138.283
139.986
135.623
137.831
135.562
136.605
122.345
110.144
120.723
120.216
126.46
128.959
132.286
135.392
136.522
139.049
139.168
140.805
140.448
140.915
139.25
140.895
135.956
138.091
135.711
136.85
132.767
116.441
125.151
124.195
129.505
131.733
134.575
137.548
138.368
140.735
140.683
142.158
141.722
141.95
140.304
142.109
136.31
138.95
135.953
137.516
149.128
124.423
129.003
127.093
131.78
133.788
136.398
139.354
139.976
142.221
142.049
143.346
142.853
142.73
141.135
142.722
136.64
138.757
135.764
137.685
168.991
137.473
135.493
133.305
135.981
137.513
139.047
141.624
141.829
143.852
143.492
144.687
144.11
143.967
142.33
143.751
137.632
138.452
134.105
138.229
197.087
202.623
184.615
181.753
170.568
169.759
162.829
162.185
158.697
158.619
156.508
156.97
154.932
156.356
153.582
155.784
151.492
155.345
137.574
161.573
236.129
225.882
209.069
201.483
190.631
185.49
178.888
175.144
170.679
167.916
164.909
163.595
161.338
161.134
158.923
159.689
157.104
158.744
156.634
158.694
232.814
222.996
213.367
206.869
199.571
194.615
189.287
186.058
182.122
179.906
176.786
175.258
173.041
172.058
170.459
169.816
168.725
168.191
167.615
168.114
231.156
225.115
218.728
212.25
206.427
201.554
196.617
192.727
188.899
185.846
182.925
180.424
178.011
176.132
174.322
173.111
171.846
171.104
170.463
170.508
220.597
215.182
211.582
207.807
204.153
200.786
197.481
194.637
191.757
189.445
186.948
185.156
183.04
181.553
179.732
178.429
176.97
175.711
175.012
174.863
216.328
214.378
211.892
208.718
205.992
203.11
200.271
197.717
195.01
192.775
190.336
188.315
186.132
184.291
182.422
180.651
179.108
177.723
176.565
176.358
210.054
207.728
206.213
204.61
202.807
201.075
199.191
197.469
195.571
193.942
192.047
190.539
188.627
187.187
185.226
183.768
181.751
180.158
178.811
178.25
207.199
206.581
205.836
204.442
203.256
201.894
200.4
199.026
197.346
195.986
194.2
192.831
190.96
189.535
187.556
185.996
183.813
182.111
180.14
179.579
204.39
203.694
203.192
202.706
201.821
201.129
200.057
199.263
198.058
197.182
195.826
194.894
193.329
192.29
190.414
189.156
186.742
185.211
182.624
182.103
203.082
203.052
202.822
202.514
202.12
201.661
201.019
200.482
199.622
198.981
197.936
197.245
195.991
195.159
193.572
192.514
190.218
188.977
185.898
185.618
202.314
202.432
202.437
202.544
202.231
202.198
201.806
201.689
201.204
201.023
200.443
200.208
199.505
199.2
198.258
197.856
196.21
196.185
192.129
193.836
202.139
202.421
202.509
202.837
202.743
202.878
202.807
202.907
202.781
202.857
202.73
202.837
202.721
202.852
202.766
203.029
202.866
203.454
204.168
205.995
202.337
202.812
203.144
203.525
203.754
204.152
204.252
204.67
204.809
205.297
205.532
206.068
206.525
207.132
208.04
208.575
210.271
210.571
213.747
214.623
202.679
203.105
203.382
203.862
204.118
204.643
204.935
205.503
205.821
206.566
206.922
207.917
208.457
209.81
210.568
212.393
213.715
216.201
219.046
220.602
203.233
203.859
204.288
204.883
205.245
205.878
206.28
206.986
207.493
208.307
208.973
210.106
210.845
212.274
213.302
215.432
216.745
219.588
222.084
226.363
203.497
204.04
204.464
205.074
205.531
206.215
206.656
207.461
207.895
208.852
209.312
210.393
210.924
212.408
213.004
214.899
215.672
218.853
219.167
229.988
204.109
204.688
205.108
205.688
206.121
206.774
207.211
208.009
208.326
209.458
209.719
211.21
211.498
213.19
213.53
215.952
216.28
218.294
218.497
220.729
204.307
204.825
205.311
205.884
206.406
207.031
207.58
208.275
208.852
209.67
210.264
211.21
211.767
212.911
213.355
215.257
214.973
217.638
216.527
221.186
204.642
205.147
205.612
206.169
206.665
207.274
207.807
208.481
209.037
209.796
210.35
211.191
211.733
212.612
213.116
213.988
214.284
215.213
215.51
215.819
204.712
205.193
205.693
206.225
206.762
207.345
207.916
208.551
209.149
209.84
210.446
211.196
211.773
212.586
213.064
213.956
214.24
215.241
215.336
218.439
314.545
315.644
316.102
315.888
314.979
313.532
311.253
308.476
304.85
300.681
296.007
290.468
284.719
277.326
269.717
261.754
251.08
242.22
232.65
223.626
286.03
286.862
287.411
287.658
287.565
287.251
286.522
285.7
284.322
283.035
281.071
279.089
277.111
273.099
268.594
265.514
262.068
259.224
255.595
251.978
247.014
247.797
248.319
248.881
249.138
249.474
249.481
249.591
249.353
249.252
248.815
248.502
247.772
247.119
246.028
245.29
243.901
243.024
241.347
240.484
234.829
235.462
236.02
236.529
236.945
237.32
237.585
237.8
237.9
237.957
237.838
237.762
237.436
237.408
236.973
236.687
236.022
235.699
234.777
234.475
218.521
219.003
219.444
219.863
220.224
220.586
220.872
221.18
221.394
221.662
221.835
222.053
222.1
222.267
222.269
222.428
222.326
222.462
222.236
222.35
213.048
213.461
213.855
214.226
214.573
214.903
215.198
215.488
215.731
215.972
216.123
216.316
216.454
216.621
216.637
216.75
216.688
216.792
216.642
216.827
206.206
206.559
206.888
207.206
207.5
207.782
208.043
208.289
208.518
208.733
208.933
209.131
209.294
209.48
209.628
209.8
209.908
210.076
210.103
210.249
203.535
203.831
204.122
204.396
204.664
204.917
205.161
205.394
205.613
205.827
206.017
206.208
206.37
206.531
206.632
206.775
206.839
206.97
207.015
207.184
201.116
201.376
201.627
201.863
202.09
202.305
202.509
202.702
202.881
203.052
203.208
203.359
203.483
203.622
203.738
203.874
203.983
204.103
204.185
204.304
199.938
200.159
200.372
200.579
200.783
200.981
201.171
201.356
201.531
201.704
201.864
202.024
202.178
202.322
202.446
202.565
202.653
202.764
202.832
202.929
199.528
199.735
199.936
200.13
200.31
200.48
200.646
200.802
200.95
201.092
201.228
201.358
201.48
201.601
201.708
201.818
201.909
202.009
202.081
202.173
199.503
199.677
199.845
200.008
200.168
200.322
200.471
200.616
200.757
200.891
201.022
201.146
201.267
201.381
201.491
201.595
201.693
201.79
201.872
201.965
199.837
199.99
200.14
200.286
200.429
200.568
200.704
200.836
200.966
201.091
201.213
201.331
201.445
201.556
201.661
201.766
201.86
201.959
202.044
202.135
200.215
200.351
200.485
200.618
200.749
200.879
201.006
201.132
201.255
201.377
201.494
201.612
201.724
201.838
201.944
202.053
202.153
202.258
202.351
202.452
200.825
200.943
201.058
201.173
201.288
201.404
201.52
201.636
201.753
201.868
201.983
202.096
202.211
202.323
202.435
202.546
202.653
202.763
202.865
202.974
201.263
201.374
201.488
201.602
201.715
201.826
201.936
202.043
202.15
202.255
202.361
202.465
202.568
202.668
202.77
202.87
202.967
203.069
203.16
203.268
201.857
201.96
202.061
202.162
202.264
202.365
202.467
202.57
202.673
202.777
202.882
202.986
203.091
203.196
203.305
203.409
203.518
203.627
203.771
203.91
202.094
202.187
202.281
202.376
202.473
202.571
202.67
202.769
202.87
202.971
203.074
203.176
203.281
203.385
203.491
203.597
203.705
203.812
203.919
204.031
202.444
202.533
202.626
202.721
202.824
202.921
203.023
203.121
203.222
203.321
203.421
203.522
203.623
203.726
203.829
203.934
204.04
204.148
204.255
204.366
202.552
202.637
202.724
202.812
202.901
202.993
203.085
203.18
203.276
203.373
203.472
203.572
203.674
203.777
203.882
203.987
204.095
204.203
204.314
204.424
99.4054
97.4746
92.206
87.2863
82.4721
77.3737
72.0603
66.4275
60.4605
54.0472
47.1692
39.685
31.6455
22.7767
13.2317
2.56056
-8.87664
-21.5585
-36.5209
-45.6546
116.542
115.606
111.973
108.22
104.392
100.263
95.7882
91.024
85.835
80.2317
74.1524
67.5023
60.3348
52.3709
43.803
34.1679
23.9919
12.428
-0.678837
-9.30099
135.236
135.289
132.588
129.549
126.447
122.994
119.254
115.167
110.747
105.892
100.61
94.7831
88.4643
81.3833
73.7352
65.0773
55.8769
45.2099
33.617
26.9069
154.6
154.98
152.784
150.442
147.99
145.255
142.194
138.891
135.172
131.121
126.602
121.621
116.111
109.887
103.072
95.2561
86.9041
77.0232
66.221
60.7567
173.562
174.357
172.767
171.026
169.21
167.098
164.751
162.101
159.15
155.825
152.106
147.92
143.246
137.892
132.004
125.163
117.743
108.725
98.6196
92.905
192.541
193.615
192.461
191.27
189.985
188.471
186.704
184.73
182.418
179.83
176.841
173.488
169.633
165.226
160.275
154.462
148.148
140.302
131.581
125.158
210.941
212.26
211.451
210.796
210.021
209.066
207.903
206.546
204.908
203.022
200.784
198.214
195.2
191.718
187.738
183.064
177.879
171.36
164.281
157.411
228.77
230.189
229.866
229.626
229.375
228.912
228.312
227.52
226.503
225.27
223.728
221.937
219.731
217.189
214.163
210.614
206.582
201.434
196.293
189.144
245.012
246.701
246.814
247.076
247.265
247.317
247.214
246.971
246.532
245.914
245.062
243.981
242.58
240.881
238.754
236.246
233.16
229.502
225.47
219.47
260.503
262.42
263.005
263.695
264.36
264.896
265.325
265.639
265.794
265.81
265.606
265.218
264.503
263.541
262.16
260.426
258.173
255.421
252.058
247.599
274.934
276.969
277.914
278.963
280
280.951
281.817
282.592
283.238
283.763
284.104
284.263
284.139
283.778
283.024
281.968
280.35
278.395
275.704
272.127
287.805
290.16
291.606
293.131
294.651
296.088
297.443
298.714
299.864
300.898
301.744
302.42
302.802
303.006
302.808
302.382
301.405
300.13
298.124
295.283
300.167
302.661
304.393
306.2
307.993
309.72
311.383
312.982
314.472
315.848
317.061
318.126
318.986
319.657
320.011
320.096
319.707
319.111
317.721
315.605
310.682
313.412
315.513
317.685
319.852
321.957
324.013
326.002
327.897
329.707
331.374
332.942
334.29
335.501
336.34
337.002
337.159
337.163
336.34
334.866
321.222
324.093
326.313
328.658
331.007
333.312
335.582
337.811
339.97
342.066
344.033
345.895
347.531
349.004
350.144
351.129
351.684
352.061
351.586
350.695
329.476
332.496
334.986
337.602
340.225
342.814
345.384
347.91
350.385
352.764
355.053
357.179
359.186
360.985
362.625
364.04
365.108
365.885
365.891
365.671
337.345
340.515
343.106
345.859
348.601
351.322
354.007
356.667
359.252
361.784
364.205
366.543
368.734
370.803
372.66
374.301
375.593
376.538
376.965
377.081
343.505
346.705
349.365
352.228
355.101
357.972
360.828
363.674
366.471
369.223
371.897
374.478
376.942
379.218
381.303
383.059
384.54
385.608
386.274
386.344
348.607
351.913
354.619
357.566
360.514
363.47
366.399
369.33
372.197
375.034
377.77
380.43
382.927
385.277
387.389
389.257
390.836
392.04
393
393.122
351.969
355.264
358.031
361.027
364.026
367.031
370.021
373.01
375.951
378.862
381.687
384.434
387.045
389.504
391.776
393.796
395.577
396.951
397.966
398.334
-213.829
-222.722
-232.006
-241.965
-252.145
-263.032
-274.211
-286.017
-298.281
-311.135
-324.608
-338.661
-353.525
-369.207
-385.411
-402.9
-421.204
-435.863
-447.902
-449.955
-207.101
-216.015
-225.279
-235.27
-245.513
-256.463
-267.757
-279.747
-292.205
-305.317
-319.075
-333.517
-348.773
-364.765
-381.693
-399.752
-418.662
-435.3
-449.277
-451.839
-199.586
-208.534
-217.696
-227.717
-237.942
-248.952
-260.305
-272.344
-284.923
-298.183
-312.118
-326.8
-342.337
-358.722
-376.243
-394.897
-414.313
-432.759
-449.181
-452.199
-191.169
-200.139
-209.259
-219.28
-229.502
-240.519
-251.944
-264.083
-276.795
-290.192
-304.378
-319.295
-335.146
-351.9
-369.803
-388.762
-408.608
-429.347
-445.44
-447.176
-182
-191.069
-199.984
-209.981
-220.136
-231.114
-242.501
-254.611
-267.327
-280.804
-295.016
-310.086
-326.116
-343.168
-361.388
-380.915
-401.706
-423.595
-440.911
-444.446
-171.842
-180.724
-189.478
-199.366
-209.403
-220.291
-231.65
-243.723
-256.448
-269.898
-284.22
-299.328
-315.503
-332.64
-351.026
-370.782
-391.774
-414.348
-432.177
-435.503
-160.772
-169.603
-178.177
-187.922
-197.863
-208.596
-219.814
-231.768
-244.365
-257.765
-271.941
-287.033
-303.15
-320.318
-338.795
-358.684
-379.888
-402.852
-421.816
-426.286
-148.343
-157.029
-165.34
-174.868
-184.59
-195.117
-206.175
-217.918
-230.354
-243.555
-257.642
-272.576
-288.628
-305.655
-324.11
-343.858
-365.149
-388.201
-408.026
-413.243
-135.109
-143.673
-151.729
-161.019
-170.539
-180.804
-191.611
-203.144
-215.337
-228.335
-242.13
-256.854
-272.615
-289.429
-307.611
-327.085
-347.996
-370.79
-391.086
-397.005
-120.602
-128.97
-136.694
-145.65
-154.859
-164.793
-175.283
-186.435
-198.274
-210.913
-224.399
-238.779
-254.257
-270.717
-288.695
-307.808
-328.729
-351.373
-372.13
-378.855
-105.087
-113.224
-120.629
-129.238
-138.131
-147.693
-157.837
-168.672
-180.178
-192.464
-205.55
-219.556
-234.572
-250.65
-268.077
-286.666
-306.862
-328.751
-349.593
-356.785
-88.6874
-96.5756
-103.58
-111.75
-120.237
-129.363
-139.043
-149.376
-160.354
-172.154
-184.731
-198.233
-212.765
-228.278
-245.304
-263.338
-283.297
-304.879
-325.614
-333.411
-70.945
-78.5231
-85.1491
-92.8735
-100.952
-109.608
-118.861
-128.759
-139.329
-150.638
-162.734
-175.731
-189.676
-204.697
-221.009
-238.318
-257.577
-278.059
-298.686
-306.644
-52.6206
-59.892
-66.1029
-73.3193
-80.9259
-89.0858
-97.7835
-107.125
-117.064
-127.816
-139.266
-151.645
-164.948
-179.264
-194.915
-211.559
-230.289
-249.812
-270.577
-278.713
-33.0376
-39.9688
-45.7364
-52.4195
-59.5373
-67.146
-75.3434
-84.1433
-93.5843
-103.723
-114.615
-126.37
-139.003
-152.694
-167.542
-183.422
-201.192
-219.554
-240.343
-248.534
-12.676
-19.2566
-24.6343
-30.7931
-37.442
-44.5564
-52.1948
-60.4423
-69.2473
-78.8207
-89.0188
-100.118
-112.018
-124.943
-138.98
-154.081
-170.981
-188.538
-208.799
-217.297
8.4427
2.21817
-2.68741
-8.28484
-14.4165
-20.9638
-28.0582
-35.7213
-43.9617
-52.8533
-62.4311
-72.8218
-83.9988
-96.1914
-109.386
-123.651
-139.581
-155.973
-175.801
-184.705
30.3637
24.5364
20.0516
14.9998
9.29538
3.21265
-3.36825
-10.5004
-18.1562
-26.4895
-35.3875
-45.1119
-55.5161
-66.9191
-79.1938
-92.6293
-107.441
-122.933
-141.827
-150.809
53.9014
47.6713
43.4848
38.9418
33.6213
27.9488
21.8519
15.2389
8.14189
0.476101
-7.78069
-16.7674
-26.4347
-37.0333
-48.4682
-61.037
-74.8308
-89.3993
-107.247
-116.17
80.7909
74.3669
69.1591
64.3324
59.0735
53.4892
47.6144
41.381
34.7237
27.5627
19.9199
11.588
2.70242
-7.09148
-17.5766
-29.2442
-41.8344
-55.4616
-72.0374
-81.0075
78.1217
77.7862
76.5477
75.1961
72.7219
69.3151
66.4917
61.5368
57.3527
50.587
43.9719
34.6609
24.2787
11.3282
-5.20669
-23.6053
-50.3399
-78.5968
-122.43
-170.476
78.1223
77.8493
76.6614
75.2646
73.0231
69.5913
66.9788
62.0262
58.0146
51.3263
44.8882
35.6949
25.5373
12.8308
-3.44492
-21.3346
-47.7065
-74.8918
-117.946
-164.009
78.2629
77.9517
76.9457
75.3377
73.3489
69.8897
67.4672
62.538
58.6977
52.1045
45.8213
36.7622
26.8306
14.3734
-1.56437
-18.8812
-44.8028
-70.8898
-113.238
-157.244
78.2971
78.1076
77.2115
75.4283
73.7203
70.236
67.9943
63.1425
59.4544
52.9761
46.8734
37.949
28.2834
16.0665
0.486273
-16.3303
-41.6389
-66.5434
-107.981
-149.529
78.3893
78.175
77.5077
75.5499
74.1321
70.6165
68.533
63.7625
60.2431
53.8879
47.9519
39.1719
29.775
17.8098
2.66117
-13.5892
-38.2794
-62.1069
-102.517
-141.395
78.4553
78.2643
77.7826
75.7001
74.6341
71.0423
69.1615
64.4732
61.1067
54.8879
49.137
40.5066
31.4135
19.6899
4.98562
-10.757
-34.6533
-57.3405
-96.2996
-132.399
78.5712
78.3566
78.1426
75.9161
75.2406
71.4998
69.8394
65.1979
62.0055
55.9352
50.3545
41.8817
33.092
21.6236
7.43689
-7.74256
-30.8792
-52.4042
-89.9561
-122.912
78.687
78.489
78.5044
76.2725
75.9521
71.9968
70.6096
66.0471
62.9684
57.0615
51.6673
43.3596
34.903
23.6827
10.0243
-4.64404
-26.8352
-47.1405
-82.844
-112.834
78.8307
78.6111
78.8899
76.6738
76.7028
72.6195
71.425
66.9445
63.9925
58.2368
53.0167
44.8811
36.7554
25.7963
12.7359
-1.37469
-22.6387
-41.7184
-75.4217
-102.168
79.0124
78.7685
79.2559
77.0356
77.4388
73.4187
72.3272
67.9238
65.1085
59.4796
54.4503
46.4974
38.7235
28.0253
15.5694
1.97002
-18.1937
-35.9615
-67.4122
-90.9959
79.2132
78.9174
79.6666
77.3764
78.18
74.3018
73.311
68.8993
66.2671
60.7622
55.9199
48.1579
40.7339
30.3086
18.5221
5.47749
-13.5936
-30.066
-59.1731
-78.9771
79.4238
79.0788
80.0248
77.7069
78.8231
75.1964
74.3486
69.9417
67.4831
62.1026
57.4642
49.9067
42.843
32.6991
21.5818
9.04872
-8.76843
-23.8872
-50.4258
-66.4591
79.6499
79.2494
80.3957
78.0577
79.5193
76.0925
75.3901
71.0796
68.727
63.4831
59.0416
51.6973
44.9924
35.1409
24.7503
12.7766
-3.80916
-17.5843
-41.4419
-53.0907
79.8843
79.4356
80.8082
78.421
80.2544
77.003
76.446
72.2784
70.0168
64.9282
60.6865
53.5736
47.2283
37.6884
28.0183
16.5647
1.35002
-11.0499
-31.9978
-39.0879
80.1328
79.6279
81.2443
78.8142
81.0467
77.8451
77.4921
73.5059
71.3434
66.4071
62.3596
55.4862
49.4986
40.2789
31.3741
20.4869
6.59019
-4.46242
-22.3855
-24.3381
80.4134
79.8062
81.6563
79.1756
81.9064
78.655
78.5062
74.7604
72.6956
67.9325
64.0802
57.4623
51.8184
42.9441
34.785
24.4229
11.9549
2.27274
-12.2119
-8.52778
80.6056
79.9523
82.0434
79.6096
82.8553
79.564
79.5856
76.0405
74.1066
69.5125
65.8561
59.5147
54.2356
45.7374
38.3886
28.6652
17.6104
9.30343
-1.60244
7.76226
81.2039
80.1622
83.0538
80.0611
83.877
80.6533
80.7717
77.3779
75.5795
71.1639
67.7182
61.6605
56.7288
48.6236
42.0494
32.8112
23.0312
15.8909
8.54603
23.6447
81.2809
80.0574
83.1434
80.4056
84.6282
81.7174
81.8347
78.5365
76.8895
72.6075
69.2869
63.4394
58.7102
50.8999
44.9553
36.0204
27.1262
21.3896
19.2934
44.9995
81.948
78.9112
83.0658
81.1249
85.8249
82.8864
83.1452
79.8666
78.4473
74.3926
71.3154
65.9396
61.6647
54.4968
49.5247
41.8684
35.6168
32.2142
36.2015
70.3932
106.767
83.7438
100.028
93.1256
97.528
93.6049
95.1577
92.395
92.6291
90.0718
90.4384
88.3753
89.8088
88.8509
92.3798
92.8989
101.954
107.192
122.626
117.543
105.433
102.37
104.419
101.673
103.352
101.936
102.892
102.379
103.359
103.604
105.361
106.537
109.665
112.224
118.351
122.969
135.168
142.374
165.757
175.516
119.282
118.713
118.922
118.494
119.485
119.074
120.411
120.615
122.365
123.544
126.047
128.078
131.936
135.43
141.357
147.429
156.49
165.643
179.186
190.342
123.825
123.731
123.864
124.727
125.433
126.495
127.946
129.678
131.987
134.286
137.362
140.682
144.987
149.586
155.803
161.658
170.392
177.844
189.234
198.307
133.264
133.366
133.937
134.998
136.213
137.509
139.205
140.917
143.105
145.39
148.28
151.377
155.024
159.184
163.607
169.015
174.321
180.785
187.075
194.794
136.91
136.972
137.923
139.067
140.776
142.807
144.941
147.22
149.832
152.488
155.632
158.798
162.558
166.31
170.732
175.085
180.091
184.925
191.222
194.987
142.43
142.548
143.964
145.843
148.13
150.137
152.487
154.568
157.091
159.389
162.154
164.79
167.813
170.881
174.14
177.651
181.069
184.967
187.691
192.592
145.953
146.392
147.973
150.678
152.814
155.179
157.537
159.705
162.232
164.473
167.195
169.643
172.549
175.18
178.253
181.029
184.382
187.51
190.708
192.962
151.021
152.002
153.728
156.204
158.916
160.928
163.483
165.298
167.807
169.625
172.116
173.945
176.34
178.326
180.745
182.912
185.165
187.141
189.394
191.871
157.569
158.174
160.799
162.396
165.19
166.773
169.178
170.665
172.862
174.305
176.377
177.922
180.056
181.705
183.917
185.654
187.922
189.664
191.584
192.957
164.563
164.597
168
169.308
171.805
172.936
174.99
176
177.854
178.921
180.718
181.843
183.589
184.788
186.383
187.591
189.033
190.191
191.727
193.132
175.556
173.871
177.482
176.98
179.255
179.559
181.054
181.66
182.895
183.656
184.839
185.647
186.924
187.786
189.17
190.12
191.514
192.539
193.785
194.525
190.202
188.299
187.23
187.031
187.022
186.966
187.283
187.415
187.975
188.238
188.995
189.427
190.306
190.862
191.779
192.377
193.309
193.934
194.861
195.532
199.578
198.867
195.526
195.034
193.641
193.014
192.594
192.201
192.243
192.101
192.425
192.468
192.993
193.182
193.82
194.165
194.881
195.343
196.109
196.63
206.479
204.778
202.854
200.541
199.636
197.961
197.544
196.508
196.384
195.784
195.87
195.596
195.823
195.801
196.174
196.307
196.766
197.023
197.539
197.883
218.781
206.287
206.031
203.144
202.428
200.727
200.156
199.086
198.702
198.082
197.919
197.592
197.646
197.5
197.702
197.739
198.053
198.243
198.622
198.919
214.132
209.989
209.164
206.186
205.367
203.536
202.909
201.666
201.331
200.353
200.24
199.572
199.586
199.199
199.305
199.159
199.3
199.354
199.605
199.774
222.482
209.25
208.797
206.397
205.856
204.245
203.816
202.572
202.215
201.455
201.141
200.706
200.488
200.29
200.164
200.137
200.179
200.216
200.327
200.482
211.289
209.791
209.543
207.26
206.945
205.038
204.765
203.382
203.154
202.347
202.019
201.551
201.298
201.012
200.917
200.733
200.745
200.746
200.866
200.973
218.397
211.934
214.829
206.551
206.147
205.146
204.665
203.824
203.307
202.682
202.291
201.846
201.594
201.316
201.171
201.076
201.043
201.015
201.115
201.195
152.059
165.88
178.831
191.976
204.229
216.247
227.481
238.171
248.39
257.8
266.831
274.608
282.041
288.321
294.281
299.194
303.719
307.311
310.419
312.776
202.818
210.97
218.38
224.481
229.906
235.258
240.416
245.126
249.811
254.536
260.335