/*--------------------------------*- C++ -*----------------------------------*\
  =========                 |
  \\      /  F ield         | OpenFOAM: The Open Source CFD Toolbox
   \\    /   O peration     | Website:  https://openfoam.org
    \\  /    A nd           | Version:  9
     \\/     M anipulation  |
\*---------------------------------------------------------------------------*/
FoamFile
{
    format      ascii;
    class       surfaceScalarField;
    location    "7.4";
    object      phi;
}
// * * * * * * * * * * * * * * * * * * * * * * * * * * * * * * * * * * * * * //

dimensions      [0 3 -1 0 0 0 0];

internalField   nonuniform List<scalar> 
92080
(
-0.00385167
-0.474052
0.477904
-0.0297996
-0.952466
0.978414
-0.0725186
-1.04464
1.08736
-0.116598
-1.02722
1.0713
-0.159236
-1.01051
1.05315
-0.201174
-0.994195
1.03613
-0.242473
-0.978941
1.02024
-0.283113
-0.964315
1.00496
-0.323191
-0.950703
0.990781
-0.363134
-0.937172
0.977116
-0.402374
-0.925403
0.964643
-0.441175
-0.913697
0.952498
-0.479211
-0.903415
0.941451
-0.51646
-0.892979
0.930228
-0.552981
-0.883954
0.920476
-0.588654
-0.875012
0.910684
-0.623441
-0.866715
0.901502
-0.656182
-0.857974
0.890715
-0.685936
-0.849194
0.878947
-0.841636
0.87029
-0.71459
-0.00439872
-0.469654
-0.0327552
-0.924109
-0.0771103
-1.00029
-0.121805
-0.982526
-0.166073
-0.966246
-0.209904
-0.950364
-0.253476
-0.935369
-0.296421
-0.92137
-0.338401
-0.908723
-0.380053
-0.89552
-0.421453
-0.884003
-0.462576
-0.872575
-0.503664
-0.862327
-0.544463
-0.85218
-0.58515
-0.843267
-0.624781
-0.835381
-0.663374
-0.828123
-0.701181
-0.820167
-0.73705
-0.813325
-0.807638
-0.771048
-0.00715777
-0.462496
-0.0391404
-0.892127
-0.086688
-0.952742
-0.134352
-0.934861
-0.180475
-0.920124
-0.22525
-0.90559
-0.269372
-0.891247
-0.31357
-0.877172
-0.356555
-0.865738
-0.398618
-0.853457
-0.440148
-0.842473
-0.480875
-0.831848
-0.521208
-0.821994
-0.560867
-0.81252
-0.600528
-0.803607
-0.640347
-0.795561
-0.678959
-0.789511
-0.716289
-0.782836
-0.753509
-0.776106
-0.7701
-0.791047
-0.00873477
-0.453761
-0.0445653
-0.856296
-0.0919125
-0.905395
-0.139162
-0.887612
-0.186551
-0.872734
-0.233526
-0.858615
-0.279078
-0.845695
-0.324561
-0.831689
-0.369997
-0.820302
-0.414289
-0.809165
-0.458236
-0.798527
-0.501533
-0.788551
-0.544454
-0.779073
-0.587102
-0.769872
-0.629023
-0.761685
-0.671634
-0.752951
-0.714631
-0.746514
-0.756574
-0.740893
-0.796816
-0.735864
-0.730906
-0.83601
-0.00905413
-0.444707
-0.0499691
-0.815381
-0.0995853
-0.855778
-0.149037
-0.83816
-0.197431
-0.824341
-0.245458
-0.810588
-0.292921
-0.798231
-0.339259
-0.785351
-0.385501
-0.77406
-0.43092
-0.763746
-0.475548
-0.753899
-0.519622
-0.744477
-0.562779
-0.735916
-0.605679
-0.726972
-0.647647
-0.719717
-0.689162
-0.711436
-0.731755
-0.703921
-0.775307
-0.697341
-0.819285
-0.691885
-0.688033
-0.862158
-0.00748882
-0.437218
-0.0507346
-0.772135
-0.102012
-0.804501
-0.153117
-0.787056
-0.203616
-0.773842
-0.25306
-0.761144
-0.301566
-0.749725
-0.349682
-0.737235
-0.397293
-0.726449
-0.444584
-0.716455
-0.491041
-0.707442
-0.537217
-0.698301
-0.582723
-0.69041
-0.62818
-0.681515
-0.673097
-0.6748
-0.716493
-0.668041
-0.759302
-0.661111
-0.801828
-0.654816
-0.84553
-0.648183
-0.644094
-0.889469
-0.00558148
-0.431637
-0.0506043
-0.727113
-0.104755
-0.75035
-0.157377
-0.734433
-0.209651
-0.721568
-0.261368
-0.709426
-0.311747
-0.699347
-0.360836
-0.688145
-0.409778
-0.677508
-0.457916
-0.668316
-0.505217
-0.660142
-0.551639
-0.651878
-0.596904
-0.645146
-0.641797
-0.636621
-0.687629
-0.628968
-0.732792
-0.622878
-0.777756
-0.616147
-0.821538
-0.611034
-0.865246
-0.604475
-0.599963
-0.909377
-0.0026612
-0.428975
-0.0505578
-0.679216
-0.107548
-0.69336
-0.162975
-0.679006
-0.216759
-0.667784
-0.269471
-0.656714
-0.321284
-0.647534
-0.371562
-0.637867
-0.421271
-0.627799
-0.471434
-0.618154
-0.520956
-0.610619
-0.570601
-0.602233
-0.619148
-0.5966
-0.665362
-0.590406
-0.711437
-0.582893
-0.756989
-0.577326
-0.802466
-0.570669
-0.847734
-0.565766
-0.892
-0.560209
-0.555191
-0.936772
-0.00240364
-0.426572
-0.0542359
-0.627384
-0.113537
-0.634059
-0.16924
-0.623304
-0.224479
-0.612545
-0.278555
-0.602638
-0.331347
-0.594742
-0.382463
-0.58675
-0.431567
-0.578696
-0.480302
-0.569419
-0.528432
-0.562489
-0.576332
-0.554333
-0.625545
-0.547387
-0.673513
-0.542439
-0.720763
-0.535644
-0.767382
-0.530707
-0.813077
-0.524975
-0.858681
-0.520162
-0.903351
-0.515539
-0.510658
-0.947883
-0.00850027
-0.418071
-0.0617303
-0.574154
-0.120573
-0.575217
-0.17814
-0.565736
-0.234196
-0.556489
-0.290031
-0.546803
-0.345137
-0.539636
-0.399343
-0.532544
-0.45174
-0.526299
-0.503075
-0.518084
-0.553982
-0.511582
-0.602714
-0.505601
-0.651739
-0.498361
-0.700231
-0.493947
-0.747902
-0.487972
-0.795381
-0.483228
-0.842084
-0.478271
-0.888704
-0.473542
-0.934481
-0.469762
-0.46542
-0.97972
-0.016478
-0.401593
-0.0711957
-0.519436
-0.130083
-0.516329
-0.186264
-0.509555
-0.241161
-0.501592
-0.295085
-0.492879
-0.348731
-0.48599
-0.401613
-0.479662
-0.45293
-0.474982
-0.502533
-0.468481
-0.552884
-0.461231
-0.602337
-0.456148
-0.65145
-0.449248
-0.700912
-0.444485
-0.749559
-0.439325
-0.798282
-0.434505
-0.846326
-0.430226
-0.894553
-0.425316
-0.942589
-0.421725
-0.418022
-0.989988
-0.0263053
-0.375288
-0.0829325
-0.462809
-0.142
-0.457261
-0.200126
-0.45143
-0.25664
-0.445078
-0.312302
-0.437217
-0.368013
-0.430279
-0.424103
-0.423571
-0.479671
-0.419413
-0.531624
-0.416528
-0.581963
-0.410892
-0.630902
-0.407209
-0.678234
-0.401917
-0.725413
-0.397306
-0.771836
-0.392902
-0.81801
-0.388332
-0.863487
-0.384749
-0.908315
-0.380488
-0.953222
-0.376818
-0.373422
-0.997822
-0.0329575
-0.342331
-0.0884837
-0.407283
-0.146118
-0.399627
-0.203169
-0.394379
-0.258316
-0.389931
-0.31151
-0.384022
-0.363362
-0.378428
-0.415271
-0.371662
-0.469967
-0.364717
-0.525118
-0.361377
-0.579679
-0.356332
-0.633841
-0.353047
-0.686486
-0.349271
-0.738116
-0.345676
-0.788777
-0.342241
-0.838554
-0.338556
-0.887873
-0.335429
-0.936042
-0.332319
-0.983708
-0.329152
-0.326088
-1.03104
-0.0408824
-0.301448
-0.100225
-0.34794
-0.160955
-0.338896
-0.219908
-0.335426
-0.278704
-0.331136
-0.336307
-0.326419
-0.391911
-0.322824
-0.443649
-0.319924
-0.494048
-0.314318
-0.544537
-0.310888
-0.594794
-0.306075
-0.645499
-0.302342
-0.696016
-0.298754
-0.746183
-0.295509
-0.79597
-0.292455
-0.845312
-0.289213
-0.894501
-0.28624
-0.94347
-0.28335
-0.99189
-0.280733
-0.277947
-1.04003
-0.0443078
-0.25714
-0.101317
-0.290931
-0.159055
-0.281158
-0.216808
-0.277673
-0.272463
-0.27548
-0.328262
-0.27062
-0.385486
-0.2656
-0.44215
-0.263261
-0.497212
-0.259256
-0.551231
-0.256869
-0.603715
-0.253591
-0.655389
-0.250668
-0.706596
-0.247547
-0.757227
-0.244877
-0.807262
-0.24242
-0.856726
-0.23975
-0.90564
-0.237326
-0.954302
-0.234687
-1.00262
-0.23242
-0.229979
-1.05058
-0.0516536
-0.205487
-0.109429
-0.233156
-0.166692
-0.223895
-0.226581
-0.217784
-0.286274
-0.215787
-0.342175
-0.21472
-0.396977
-0.210798
-0.451466
-0.208772
-0.505509
-0.205213
-0.559376
-0.203002
-0.612484
-0.200483
-0.665143
-0.198009
-0.716776
-0.195914
-0.768427
-0.193226
-0.819204
-0.191643
-0.869523
-0.18943
-0.919035
-0.187815
-0.967948
-0.185774
-1.01633
-0.184043
-0.182051
-1.06425
-0.0624821
-0.143005
-0.120894
-0.174744
-0.173919
-0.170871
-0.227001
-0.164701
-0.283347
-0.159441
-0.340051
-0.158016
-0.396004
-0.154844
-0.452067
-0.15271
-0.506531
-0.150749
-0.561162
-0.148371
-0.614272
-0.147374
-0.6673
-0.14498
-0.7191
-0.144115
-0.77054
-0.141786
-0.82137
-0.140812
-0.871885
-0.138915
-0.921691
-0.138008
-0.97095
-0.136516
-1.01946
-0.13553
-0.1342
-1.06731
-0.0587079
-0.0842969
-0.129444
-0.104008
-0.191352
-0.108963
-0.246644
-0.109409
-0.300445
-0.10564
-0.35449
-0.10397
-0.407932
-0.101403
-0.461936
-0.0987056
-0.515078
-0.0976073
-0.568536
-0.0949123
-0.621307
-0.0946027
-0.673628
-0.0926591
-0.725756
-0.0919865
-0.776846
-0.0906962
-0.828022
-0.0896365
-0.878393
-0.088544
-0.928876
-0.0875251
-0.978732
-0.0866593
-1.02842
-0.0858436
-0.0851556
-1.07746
-0.043238
-0.0410589
-0.101493
-0.0457527
-0.165644
-0.0448127
-0.230004
-0.0450482
-0.291126
-0.044519
-0.351935
-0.0431608
-0.409555
-0.0437832
-0.466107
-0.0421536
-0.520892
-0.0428225
-0.574456
-0.0413477
-0.627727
-0.0413322
-0.679917
-0.0404692
-0.731608
-0.0402953
-0.782592
-0.0397122
-0.832882
-0.0393468
-0.882713
-0.0387123
-0.932004
-0.0382344
-0.981132
-0.0375308
-1.0298
-0.037174
-0.0364235
-1.07853
-0.0473719
0.00631295
-0.103005
0.00988071
-0.16159
0.0137725
-0.220178
0.0135398
-0.279116
0.0144185
-0.336806
0.0145297
-0.395364
0.0147746
-0.45207
0.0145523
-0.509637
0.0147445
-0.56567
0.0146852
-0.62142
0.0144176
-0.676039
0.0141503
-0.729742
0.0134072
-0.782715
0.0132607
-0.834464
0.0124027
-0.885549
0.0123724
-0.935491
0.0117081
-0.984877
0.0118549
-1.03344
0.0113909
-1.08152
0.0116518
0.0471503
0.0324669
-0.0796171
0.141772
-0.157957
0.0633351
0.334042
-0.620269
0.427998
0.484369
-1.04705
0.896724
0.562706
-1.25719
1.17885
0.591832
-1.3219
1.29277
0.601836
-1.33299
1.32298
0.606409
-1.33077
1.3262
0.606541
-1.32254
1.3224
0.607114
-1.31479
1.31421
0.607264
-1.30842
1.30827
0.607349
-1.30258
1.30249
0.607434
-1.29794
1.29786
0.607426
-1.2922
1.29221
0.60643
-1.28662
1.28762
0.605037
-1.28
1.2814
0.603201
-1.27571
1.27754
0.600343
-1.26885
1.2717
0.596003
-1.26191
1.26625
-1.24993
0.591481
1.25445
0.0477922
-0.0153254
0.163833
-0.273997
0.339179
-0.795614
0.453555
-1.16143
0.501103
-1.30474
0.516543
-1.33734
0.521992
-1.33844
0.522733
-1.33151
0.522496
-1.3223
0.522607
-1.3149
0.522648
-1.30846
0.522481
-1.30241
0.521502
-1.29696
0.519374
-1.29007
0.516407
-1.28365
0.513547
-1.27714
0.510268
-1.27243
0.506487
-1.26507
0.501634
-1.25706
-1.24478
0.496482
0.0456911
-0.0610165
0.178197
-0.406503
0.319246
-0.936663
0.397949
-1.24013
0.426296
-1.33308
0.435119
-1.34616
0.438877
-1.3422
0.439267
-1.3319
0.439957
-1.32299
0.439999
-1.31494
0.439218
-1.30768
0.437603
-1.3008
0.435038
-1.2944
0.432252
-1.28729
0.429384
-1.28079
0.426217
-1.27398
0.422463
-1.26867
0.417788
-1.26039
0.41192
-1.25119
-1.23865
0.405791
0.0449957
-0.106012
0.174569
-0.536076
0.286401
-1.0485
0.341746
-1.29548
0.359002
-1.35034
0.365313
-1.35247
0.366405
-1.34329
0.366299
-1.33179
0.365437
-1.32213
0.363885
-1.31339
0.361694
-1.30549
0.359143
-1.29824
0.356178
-1.29143
0.352446
-1.28355
0.347749
-1.27609
0.342842
-1.26907
0.337213
-1.26304
0.33089
-1.25407
0.323833
-1.24413
-1.23164
0.316827
0.0424567
-0.148469
0.155473
-0.649092
0.243798
-1.13682
0.279964
-1.33164
0.290299
-1.36067
0.293874
-1.35605
0.293486
-1.3429
0.292969
-1.33128
0.291649
-1.32081
0.28935
-1.31109
0.286304
-1.30244
0.282384
-1.29432
0.277257
-1.28631
0.27166
-1.27796
0.265955
-1.27039
0.259813
-1.26293
0.253185
-1.25642
0.246109
-1.24699
0.23841
-1.23643
-1.2236
0.23037
0.0451274
-0.193596
0.139669
-0.743634
0.207202
-1.20435
0.230554
-1.35499
0.236528
-1.36665
0.236677
-1.3562
0.235107
-1.34133
0.232622
-1.32879
0.228837
-1.31702
0.224345
-1.3066
0.218984
-1.29708
0.212992
-1.28833
0.206695
-1.28001
0.19989
-1.27115
0.192529
-1.26302
0.184922
-1.25532
0.176579
-1.24807
0.167576
-1.23799
0.158011
-1.22687
-1.2141
0.148508
0.0493685
-0.242965
0.123135
-0.817401
0.171693
-1.25291
0.182847
-1.36615
0.18319
-1.36699
0.179434
-1.35244
0.175374
-1.33727
0.170345
-1.32376
0.164838
-1.31151
0.158462
-1.30022
0.151588
-1.29021
0.144175
-1.28092
0.135789
-1.27162
0.126995
-1.26236
0.117847
-1.25388
0.108175
-1.24565
0.0982158
-1.23811
0.0881898
-1.22796
0.0777956
-1.21647
-1.2034
0.0670976
0.0468489
-0.289814
0.108211
-0.878763
0.141896
-1.2866
0.145646
-1.3699
0.142032
-1.36338
0.135724
-1.34613
0.128943
-1.33049
0.121429
-1.31625
0.11289
-1.30298
0.103848
-1.29118
0.0939414
-1.2803
0.0834593
-1.27044
0.0728814
-1.26105
0.0617569
-1.25124
0.0504885
-1.24261
0.0392562
-1.23442
0.0275635
-1.22642
0.0155962
-1.21599
0.00342236
-1.2043
-1.19115
-0.00882354
0.0406506
-0.330464
0.0915432
-0.929656
0.112225
-1.30728
0.10902
-1.36669
0.100183
-1.35454
0.0905714
-1.33652
0.0804393
-1.32036
0.0697264
-1.30554
0.0587355
-1.29198
0.0472186
-1.27966
0.0355575
-1.26864
0.0234632
-1.25834
0.0108542
-1.24844
-0.00181135
-1.23857
-0.0151176
-1.2293
-0.0288742
-1.22066
-0.0424394
-1.21286
-0.0557778
-1.20266
-0.0693176
-1.19076
-1.17737
-0.0830979
0.0361015
-0.366566
0.0794981
-0.973052
0.0878483
-1.31563
0.0780469
-1.35689
0.0653289
-1.34182
0.0527745
-1.32397
0.0397644
-1.30735
0.0264125
-1.29218
0.0124308
-1.278
-0.00190736
-1.26532
-0.0169725
-1.25358
-0.0322958
-1.24302
-0.0477664
-1.23297
-0.0636834
-1.22265
-0.0793842
-1.2136
-0.0951319
-1.20491
-0.111133
-1.19686
-0.126683
-1.18711
-0.141888
-1.17555
-1.16196
-0.157305
0.0241866
-0.390752
0.0540715
-1.00294
0.0583105
-1.31987
0.0466746
-1.34526
0.0321698
-1.32732
0.017138
-1.30894
0.00133596
-1.29154
-0.0148793
-1.27597
-0.0314779
-1.2614
-0.0484351
-1.24837
-0.0654098
-1.2366
-0.0830083
-1.22542
-0.100621
-1.21535
-0.118221
-1.20505
-0.136647
-1.19517
-0.155297
-1.18626
-0.173707
-1.17845
-0.192091
-1.16872
-0.210282
-1.15736
-1.14356
-0.228676
0.0254726
-0.416225
0.0474766
-1.02494
0.0397547
-1.31215
0.0220427
-1.32754
0.00278324
-1.30806
-0.0160672
-1.29009
-0.0350633
-1.27255
-0.0543783
-1.25665
-0.0738716
-1.24191
-0.0936776
-1.22856
-0.113866
-1.21641
-0.133959
-1.20533
-0.154526
-1.19479
-0.175018
-1.18456
-0.195112
-1.17508
-0.215751
-1.16562
-0.236382
-1.15782
-0.256115
-1.14899
-0.275601
-1.13788
-1.12376
-0.295403
0.0183595
-0.434585
0.0330485
-1.03963
0.0213946
-1.30049
0.000657907
-1.30681
-0.0207102
-1.28669
-0.042413
-1.26838
-0.0643727
-1.25059
-0.0865218
-1.2345
-0.109057
-1.21938
-0.131703
-1.20591
-0.154422
-1.19369
-0.177624
-1.18213
-0.200323
-1.17209
-0.223386
-1.1615
-0.246567
-1.1519
-0.269376
-1.14281
-0.292271
-1.13492
-0.314355
-1.1269
-0.334986
-1.11725
-1.10324
-0.35551
0.0155164
-0.450101
0.0222755
-1.04639
0.00321554
-1.28143
-0.0219082
-1.28168
-0.0472285
-1.26137
-0.072213
-1.2434
-0.0971134
-1.22569
-0.122111
-1.20951
-0.147001
-1.19449
-0.172174
-1.18074
-0.197249
-1.16862
-0.222305
-1.15707
-0.247758
-1.14663
-0.272556
-1.1367
-0.297746
-1.12671
-0.323381
-1.11718
-0.3488
-1.1095
-0.373602
-1.1021
-0.396862
-1.09399
-1.08057
-0.419528
0.0118924
-0.461993
0.0138174
-1.04831
-0.0084889
-1.25913
-0.0364193
-1.25375
-0.0645612
-1.23323
-0.0927413
-1.21522
-0.120786
-1.19764
-0.148787
-1.18151
-0.177075
-1.1662
-0.205403
-1.15241
-0.23402
-1.14
-0.262622
-1.12847
-0.290889
-1.11837
-0.319129
-1.10846
-0.346438
-1.0994
-0.373975
-1.08964
-0.401881
-1.08159
-0.429151
-1.07483
-0.454423
-1.06871
-1.05616
-0.478831
0.00812994
-0.470123
0.00313373
-1.04332
-0.0253784
-1.23061
-0.0565406
-1.22259
-0.0874777
-1.20229
-0.118137
-1.18456
-0.148685
-1.1671
-0.179091
-1.1511
-0.209158
-1.13613
-0.239371
-1.1222
-0.26932
-1.11005
-0.299828
-1.09796
-0.330574
-1.08762
-0.361183
-1.07785
-0.391832
-1.06875
-0.422009
-1.05946
-0.452518
-1.05109
-0.483172
-1.04418
-0.512164
-1.03972
-1.02949
-0.538837
0.00589143
-0.476015
-0.0023685
-1.03506
-0.03347
-1.19951
-0.0679357
-1.18812
-0.102037
-1.16819
-0.135933
-1.15066
-0.169326
-1.1337
-0.202748
-1.11768
-0.236241
-1.10264
-0.269829
-1.08861
-0.303326
-1.07656
-0.336311
-1.06498
-0.369686
-1.05425
-0.40298
-1.04456
-0.435878
-1.03585
-0.468901
-1.02644
-0.501894
-1.01809
-0.534987
-1.01109
-0.567415
-1.00729
-0.999261
-0.597643
0.00224227
-0.478257
-0.012855
-1.01996
-0.0477046
-1.16466
-0.0841073
-1.15172
-0.119974
-1.13232
-0.155834
-1.1148
-0.191492
-1.09805
-0.226721
-1.08245
-0.261619
-1.06774
-0.296756
-1.05348
-0.332173
-1.04114
-0.367629
-1.02952
-0.402897
-1.01898
-0.438675
-1.00878
-0.474222
-1.00031
-0.509609
-0.991055
-0.545744
-0.981957
-0.582626
-0.974203
-0.619398
-0.970523
-0.965389
-0.65327
0.000626796
-0.478884
-0.0186548
-1.00068
-0.0554941
-1.12782
-0.0949484
-1.11227
-0.133763
-1.09351
-0.172171
-1.07639
-0.210184
-1.06003
-0.248226
-1.04441
-0.285854
-1.03011
-0.323331
-1.016
-0.361117
-1.00335
-0.399228
-0.991409
-0.437601
-0.980604
-0.476254
-0.970127
-0.515296
-0.961264
-0.553977
-0.952373
-0.592807
-0.943127
-0.633761
-0.93325
-0.677794
-0.92649
-0.92247
-0.720713
-0.000979818
-0.0232452
-0.0637049
-0.104672
-0.145026
-0.185288
-0.22508
-0.264532
-0.30386
-0.342745
-0.381454
-0.420365
-0.459518
-0.499416
-0.540204
-0.581893
-0.623518
-0.666052
-0.713595
-0.765774
0.47901
-10.8822
10.9946
0.391472
-10.3715
10.4591
0.320761
-10.2865
10.3573
0.26048
-10.0911
10.1514
0.21059
-9.94652
9.99641
0.170775
-9.79051
9.83033
0.138101
-9.67553
9.7082
0.110988
-9.53987
9.56698
0.0883326
-9.42434
9.447
0.070165
-9.3293
9.34747
0.0558161
-9.25608
9.27043
0.0440612
-9.18237
9.19412
0.03498
-9.14464
9.15372
0.0290703
-9.07681
9.08272
0.0266965
-9.03939
9.04177
0.0235611
-8.96115
8.96428
0.0240585
-8.71464
8.71415
0.016585
-7.70053
7.70801
0.00841659
-5.36429
5.37246
-2.12934
2.13776
0.389534
-10.7752
0.311329
-10.2933
0.249
-10.2242
0.192161
-10.0343
0.145462
-9.89982
0.108746
-9.75379
0.0794157
-9.6462
0.0562115
-9.51666
0.0378895
-9.40602
0.0240129
-9.31542
0.0141899
-9.24626
0.00695514
-9.17513
0.00181098
-9.13949
-0.000311481
-9.07469
0.00242429
-9.04213
0.00363464
-8.96236
0.0101677
-8.72118
0.00900254
-7.69937
0.00585647
-5.36114
-2.12349
0.302316
-10.6717
0.223908
-10.2149
0.159553
-10.1599
0.105896
-9.98064
0.0651221
-9.85905
0.034905
-9.72358
0.0115876
-9.62288
-0.00581747
-9.49926
-0.0185603
-9.39328
-0.0270557
-9.30693
-0.0314998
-9.24182
-0.0335328
-9.1731
-0.0336398
-9.13939
-0.030346
-9.07798
-0.02269
-9.04978
-0.0160842
-8.96896
-0.00388434
-8.73338
0.00168783
-7.70494
0.00411083
-5.36356
-2.11938
0.214562
-10.5695
0.142028
-10.1424
0.0870813
-10.1049
0.0383879
-9.93194
0.000276373
-9.82094
-0.0262153
-9.69709
-0.04628
-9.60282
-0.059901
-9.48564
-0.0684147
-9.38477
-0.0727491
-9.30259
-0.0730335
-9.24153
-0.0705362
-9.1756
-0.0664067
-9.14352
-0.0590343
-9.08536
-0.0468437
-9.06197
-0.0357308
-8.98008
-0.0178643
-8.75124
-0.00604758
-7.71676
0.00167208
-5.37128
-2.1177
0.132009
-10.4711
0.0600105
-10.0704
0.000378428
-10.0453
-0.0459225
-9.88564
-0.0779797
-9.78888
-0.0992536
-9.67581
-0.113418
-9.58865
-0.121433
-9.47762
-0.124474
-9.38172
-0.12349
-9.30358
-0.118483
-9.24654
-0.110727
-9.18335
-0.101148
-9.1531
-0.0887916
-9.09771
-0.0713959
-9.07937
-0.0553156
-8.99616
-0.0318671
-8.77469
-0.013665
-7.73496
-0.000479107
-5.38447
-2.11818
0.0461618
-10.3688
-0.0213063
-10.0029
-0.0706886
-9.9959
-0.112384
-9.84395
-0.140558
-9.76071
-0.159069
-9.6573
-0.170121
-9.5776
-0.174493
-9.47325
-0.173456
-9.38276
-0.168415
-9.30862
-0.159396
-9.25556
-0.147311
-9.19544
-0.133276
-9.16713
-0.117273
-9.11371
-0.0955655
-9.10108
-0.0748667
-9.01685
-0.0457945
-8.80376
-0.0213045
-7.75945
-0.00270625
-5.40307
-2.12089
-0.0294545
-10.2722
-0.098854
-9.93353
-0.153152
-9.9416
-0.194069
-9.80303
-0.217614
-9.73716
-0.230719
-9.6442
-0.236105
-9.57222
-0.235068
-9.47429
-0.228679
-9.38915
-0.218388
-9.31891
-0.20411
-9.26984
-0.186928
-9.21262
-0.167497
-9.18656
-0.146332
-9.13488
-0.119756
-9.12765
-0.0943845
-9.04223
-0.0597861
-8.83836
-0.0290063
-7.79023
-0.00494402
-5.42713
-2.12583
-0.112685
-10.1683
-0.177255
-9.86896
-0.222816
-9.89604
-0.258783
-9.76706
-0.278605
-9.71734
-0.289075
-9.63372
-0.291351
-9.56994
-0.286841
-9.4788
-0.276517
-9.39947
-0.262389
-9.33304
-0.244007
-9.28822
-0.222569
-9.23406
-0.199013
-9.21012
-0.174253
-9.15964
-0.143864
-9.15804
-0.113961
-9.07213
-0.0736789
-8.87865
-0.0366839
-7.82722
-0.00721108
-5.4566
-2.13304
-0.183187
-10.0683
-0.254316
-9.79783
-0.304215
-9.84614
-0.337961
-9.73331
-0.353318
-9.70199
-0.358755
-9.62829
-0.355691
-9.57301
-0.346001
-9.48849
-0.330469
-9.41501
-0.311278
-9.35223
-0.287975
-9.31152
-0.261389
-9.26064
-0.232464
-9.23904
-0.202502
-9.1896
-0.167823
-9.19272
-0.133557
-9.10639
-0.0878249
-8.92438
-0.0444644
-7.87058
-0.00915603
-5.49191
-2.1422
-0.260739
-9.96482
-0.325342
-9.73323
-0.369817
-9.80167
-0.400169
-9.70296
-0.412543
-9.68961
-0.415444
-9.62539
-0.409254
-9.5792
-0.396227
-9.50151
-0.376902
-9.43433
-0.353998
-9.37513
-0.326725
-9.3388
-0.296191
-9.29118
-0.263424
-9.27181
-0.229786
-9.22324
-0.191482
-9.23103
-0.152886
-9.14499
-0.10197
-8.97529
-0.05224
-7.92031
-0.0110212
-5.53313
-2.15322
-0.330539
-9.86296
-0.403357
-9.66041
-0.448958
-9.75607
-0.476592
-9.67533
-0.484509
-9.6817
-0.482677
-9.62722
-0.471487
-9.59039
-0.453518
-9.51948
-0.429206
-9.45864
-0.40142
-9.40292
-0.369424
-9.37079
-0.334014
-9.32659
-0.29595
-9.30988
-0.257171
-9.26202
-0.214993
-9.27321
-0.17206
-9.18792
-0.115706
-9.03165
-0.0596378
-7.97638
-0.0128608
-5.57991
-2.16608
-0.403942
-9.75442
-0.470015
-9.59434
-0.511857
-9.71423
-0.536271
-9.65091
-0.541682
-9.67629
-0.537464
-9.63144
-0.52314
-9.60471
-0.501931
-9.54069
-0.47402
-9.48655
-0.442681
-9.43426
-0.406905
-9.40657
-0.367869
-9.36562
-0.326455
-9.35129
-0.283657
-9.30481
-0.237991
-9.31887
-0.19103
-9.23488
-0.129569
-9.09311
-0.0671903
-8.03876
-0.0146455
-5.63245
-2.18073
-0.473743
-9.63619
-0.548566
-9.51952
-0.590135
-9.67266
-0.609996
-9.63105
-0.610361
-9.67592
-0.60173
-9.64007
-0.582801
-9.62364
-0.556905
-9.56659
-0.52429
-9.51917
-0.488294
-9.47026
-0.448091
-9.44677
-0.404442
-9.40927
-0.358189
-9.39754
-0.310785
-9.35222
-0.260891
-9.36877
-0.209615
-9.28616
-0.143037
-9.15969
-0.0743734
-8.10743
-0.0163861
-5.69044
-2.19711
-0.536304
-9.51941
-0.606211
-9.44961
-0.64739
-9.63148
-0.666831
-9.61161
-0.665192
-9.67756
-0.654253
-9.65101
-0.632268
-9.64562
-0.603228
-9.59563
-0.567222
-9.55517
-0.527838
-9.50964
-0.484075
-9.49053
-0.437134
-9.45621
-0.387788
-9.44689
-0.33764
-9.40237
-0.283984
-9.42242
-0.22797
-9.34217
-0.156506
-9.23115
-0.0817394
-8.18219
-0.0180906
-5.75409
-2.21521
-0.606339
-9.3919
-0.681346
-9.3746
-0.721277
-9.59155
-0.73634
-9.59655
-0.729959
-9.68394
-0.715006
-9.66596
-0.688906
-9.67172
-0.655474
-9.62906
-0.615071
-9.59558
-0.571304
-9.55341
-0.523419
-9.53842
-0.472119
-9.50751
-0.418014
-9.50099
-0.363523
-9.45686
-0.306194
-9.47975
-0.246119
-9.40225
-0.169586
-9.30768
-0.088691
-8.26309
-0.0195495
-5.82323
-2.23475
-0.662765
-9.26797
-0.733744
-9.30362
-0.773841
-9.55145
-0.790042
-9.58035
-0.782296
-9.69169
-0.764904
-9.68335
-0.735908
-9.70072
-0.699451
-9.66552
-0.655847
-9.63918
-0.608823
-9.60043
-0.557563
-9.58968
-0.503325
-9.56175
-0.446279
-9.55804
-0.388628
-9.51451
-0.327786
-9.54059
-0.263743
-9.46629
-0.182515
-9.38891
-0.0957765
-8.34982
-0.0209857
-5.89802
-2.25574
-0.732955
-9.13266
-0.806058
-9.23052
-0.842309
-9.5152
-0.854093
-9.56857
-0.842545
-9.70323
-0.821565
-9.70433
-0.789053
-9.73323
-0.748585
-9.70599
-0.700915
-9.68685
-0.649769
-9.65158
-0.594686
-9.64476
-0.53648
-9.61996
-0.474974
-9.61955
-0.413527
-9.57596
-0.349239
-9.60488
-0.281017
-9.53451
-0.195102
-9.47483
-0.102504
-8.44242
-0.0220718
-5.97845
-2.27781
-0.787936
-8.998
-0.856795
-9.16166
-0.891725
-9.48027
-0.904585
-9.55571
-0.891967
-9.71585
-0.868385
-9.72791
-0.833113
-9.7685
-0.789858
-9.74924
-0.739228
-9.73748
-0.684961
-9.70584
-0.62663
-9.70309
-0.565751
-9.68084
-0.501378
-9.68392
-0.436629
-9.64071
-0.369141
-9.67237
-0.297431
-9.60622
-0.207582
-9.56468
-0.109046
-8.54096
-0.023037
-6.06446
-2.30085
-0.85078
-8.86793
-0.926293
-9.08615
-0.957332
-9.44923
-0.965639
-9.5474
-0.949179
-9.73231
-0.922108
-9.75498
-0.883172
-9.80744
-0.836068
-9.79635
-0.781566
-9.79198
-0.723401
-9.76401
-0.661392
-9.7651
-0.596844
-9.74538
-0.528374
-9.75239
-0.460065
-9.70901
-0.388919
-9.74352
-0.313523
-9.68162
-0.219707
-9.65849
-0.116202
-8.64446
-0.0243797
-6.15628
-2.32523
-0.897264
-8.73644
-0.970223
-9.01319
-0.999986
-9.41946
-1.0086
-9.53878
-0.992831
-9.74808
-0.96381
-9.784
-0.923511
-9.84774
-0.874088
-9.84577
-0.817383
-9.84869
-0.756114
-9.82528
-0.691283
-9.82993
-0.624139
-9.81253
-0.553137
-9.82339
-0.481537
-9.78061
-0.408694
-9.81636
-0.330064
-9.76025
-0.231564
-9.75699
-0.122619
-8.75341
-0.0246683
-6.25424
-2.3499
7.4799
-8.05008
-8.16626
6.70459
-8.23788
5.89309
-8.60796
5.14642
-8.79212
4.43551
-9.03717
3.80798
-9.15648
3.24858
-9.28834
2.74695
-9.34414
2.30752
-9.40926
1.92231
-9.44007
1.58456
-9.49218
1.28808
-9.51605
1.01743
-9.55274
0.787665
-9.55085
0.565356
-9.59405
0.384529
-9.57942
0.198194
-9.57066
0.108197
-8.66341
0.102337
-6.24838
-2.24756
4.27443
-7.80949
-4.51502
4.00038
-7.96383
3.6756
-8.28318
3.3454
-8.46193
2.9915
-8.68327
2.6504
-8.81537
2.3184
-8.95634
2.01736
-9.0431
1.7421
-9.134
1.50061
-9.19858
1.27511
-9.26668
1.06692
-9.30786
0.865601
-9.35142
0.689929
-9.37518
0.512682
-9.4168
0.359816
-9.42656
0.144882
-9.35572
0.03749
-8.55602
-0.0928265
-6.11806
-2.34039
2.97568
-7.78584
-2.99933
2.96418
-7.95233
2.84822
-8.16721
2.71049
-8.3242
2.52313
-8.49591
2.3211
-8.61334
2.10027
-8.73551
1.88563
-8.82845
1.66903
-8.9174
1.45991
-8.98946
1.24891
-9.05568
1.04569
-9.10464
0.848498
-9.15423
0.664502
-9.19119
0.483447
-9.23575
0.317886
-9.26099
0.186825
-9.22466
0.102018
-8.47121
0.00144094
-6.01748
-2.33895
1.85613
-7.86987
-1.7721
1.89554
-7.99175
1.86326
-8.13492
1.80063
-8.26157
1.69858
-8.39386
1.58485
-8.49962
1.4512
-8.60185
1.30936
-8.68662
1.16197
-8.77001
1.01317
-8.84066
0.864677
-8.90719
0.725578
-8.96554
0.59093
-9.01958
0.470426
-9.07068
0.344429
-9.10975
0.226566
-9.14313
0.11065
-9.10875
0.0548754
-8.41544
0.0501129
-6.01272
-2.28883
1.30165
-7.94822
-1.22329
1.34856
-8.03866
1.37189
-8.15826
1.36114
-8.25082
1.3122
-8.34492
1.24237
-8.42979
1.15269
-8.51217
1.05338
-8.58731
0.944823
-8.66145
0.833748
-8.72958
0.717463
-8.7909
0.599667
-8.84775
0.47985
-8.89976
0.360862
-8.95169
0.248967
-8.99785
0.142624
-9.03679
0.0436724
-9.00979
0.0113268
-8.38309
0.042314
-6.04371
-2.24652
0.867588
-8.02698
-0.788828
0.929235
-8.1003
0.93923
-8.16825
0.931996
-8.24358
0.89895
-8.31187
0.850825
-8.38166
0.788018
-8.44937
0.713364
-8.51265
0.62938
-8.57747
0.538399
-8.6386
0.444608
-8.69711
0.349212
-8.75235
0.257365
-8.80791
0.162528
-8.85686
0.0694503
-8.90478
-0.0123317
-8.95501
-0.0922516
-8.92987
-0.0803859
-8.39496
0.0235152
-6.14761
-2.223
0.625358
-8.07391
-0.578437
0.651574
-8.12652
0.664992
-8.18167
0.66007
-8.23866
0.640401
-8.2922
0.605269
-8.34653
0.56096
-8.40506
0.507206
-8.4589
0.44272
-8.51298
0.368043
-8.56392
0.286442
-8.61551
0.199598
-8.66551
0.106285
-8.7146
0.0129587
-8.76353
-0.0845549
-8.80726
-0.180756
-8.85881
-0.2507
-8.85993
-0.216422
-8.42923
-0.0354551
-6.32858
-2.25846
0.469614
-8.10888
-0.434637
0.493932
-8.15084
0.500884
-8.18862
0.488541
-8.22632
0.463629
-8.26729
0.427439
-8.31034
0.378588
-8.35621
0.321917
-8.40223
0.258635
-8.4497
0.187453
-8.49274
0.110328
-8.53839
0.0277488
-8.58293
-0.059965
-8.62689
-0.152156
-8.67134
-0.238998
-8.72042
-0.329866
-8.76794
-0.405336
-8.78446
-0.371843
-8.46273
-0.125807
-6.57461
-2.38427
0.339299
-8.12229
-0.325894
0.341964
-8.1535
0.332763
-8.17942
0.313569
-8.20712
0.288676
-8.2424
0.256838
-8.2785
0.215142
-8.31451
0.161566
-8.34865
0.0981674
-8.3863
0.0290056
-8.42358
-0.047403
-8.46198
-0.130381
-8.49995
-0.217331
-8.53994
-0.308726
-8.57995
-0.406497
-8.62265
-0.505679
-8.66876
-0.586972
-8.70317
-0.574378
-8.47532
-0.27213
-6.87686
-2.6564
0.265549
-8.12716
-0.26067
0.259673
-8.14763
0.24792
-8.16767
0.229932
-8.18913
0.203176
-8.21564
0.164217
-8.23955
0.117636
-8.26793
0.0631267
-8.29414
-0.00311757
-8.32006
-0.07639
-8.35031
-0.157924
-8.38044
-0.245001
-8.41287
-0.339433
-8.44551
-0.4418
-8.47758
-0.550539
-8.51391
-0.67444
-8.54486
-0.78533
-8.59228
-0.814597
-8.44605
-0.490171
-7.20129
-3.14657
0.178632
-8.11829
-0.187503
0.161609
-8.1306
0.138796
-8.14485
0.112463
-8.1628
0.0775843
-8.18076
0.0338797
-8.19584
-0.0169747
-8.21708
-0.0732378
-8.23788
-0.131505
-8.26179
-0.202148
-8.27967
-0.279569
-8.30302
-0.367129
-8.32531
-0.46705
-8.34558
-0.579812
-8.36482
-0.703455
-8.39027
-0.840372
-8.40794
-0.989585
-8.44306
-1.04488
-8.39076
-0.772543
-7.47362
-3.91911
0.118059
-8.10516
-0.131195
0.100667
-8.11321
0.0797665
-8.12395
0.0491969
-8.13223
0.0129561
-8.14452
-0.0270559
-8.15583
-0.0732175
-8.17091
-0.129396
-8.1817
-0.192418
-8.19877
-0.260952
-8.21113
-0.338776
-8.2252
-0.430532
-8.23356
-0.531982
-8.24413
-0.646561
-8.25024
-0.769341
-8.26749
-0.905627
-8.27165
-1.07456
-8.27413
-1.20342
-8.2619
-1.00253
-7.67451
-4.92164
0.0359602
-8.0875
-0.0536215
0.0137464
-8.091
-0.0120436
-8.09816
-0.0411981
-8.10308
-0.071888
-8.11383
-0.108311
-8.11941
-0.147737
-8.13149
-0.193384
-8.13605
-0.246819
-8.14533
-0.306182
-8.15177
-0.372287
-8.15909
-0.447727
-8.15812
-0.526655
-8.16521
-0.621219
-8.15567
-0.730411
-8.1583
-0.856168
-8.1459
-1.00151
-8.12879
-1.12999
-8.13343
-0.97137
-7.83312
-5.89301
-0.00577129
-8.07088
-0.0108478
-0.0236911
-8.07308
-0.0439121
-8.07794
-0.0666799
-8.08031
-0.0936368
-8.08688
-0.125685
-8.08736
-0.162131
-8.09504
-0.201661
-8.09652
-0.24373
-8.10326
-0.294719
-8.10078
-0.349574
-8.10424
-0.410495
-8.0972
-0.477731
-8.09797
-0.552721
-8.08068
-0.635366
-8.07565
-0.724227
-8.05704
-0.812309
-8.0407
-0.903101
-8.04264
-0.817289
-7.91893
-6.7103
-0.0521357
-8.05393
0.0351914
-0.0705349
-8.05468
-0.089789
-8.05869
-0.111381
-8.05872
-0.133542
-8.06472
-0.157336
-8.06356
-0.184744
-8.06764
-0.214629
-8.06664
-0.248182
-8.06971
-0.283375
-8.06559
-0.320382
-8.06723
-0.359472
-8.05811
-0.401509
-8.05593
-0.438297
-8.0439
-0.479597
-8.03435
-0.519129
-8.0175
-0.554586
-8.00525
-0.604414
-7.99281
-0.581043
-7.94231
-7.29135
-0.0675781
-8.04363
0.0572786
-0.0788382
-8.04342
-0.0920035
-8.04552
-0.106583
-8.04414
-0.12515
-8.04615
-0.144231
-8.04448
-0.165419
-8.04645
-0.187516
-8.04454
-0.211023
-8.04621
-0.235202
-8.04141
-0.257939
-8.04449
-0.280136
-8.03591
-0.298474
-8.03759
-0.318389
-8.02398
-0.331606
-8.02113
-0.341458
-8.00765
-0.335597
-8.01111
-0.335405
-7.993
-0.32683
-7.95088
-7.61818
-0.079542
-8.03261
0.0685151
-0.0910882
-8.03187
-0.103331
-8.03328
-0.115205
-8.03226
-0.127715
-8.03364
-0.139977
-8.03222
-0.153287
-8.03314
-0.166382
-8.03145
-0.179328
-8.03326
-0.191483
-8.02925
-0.204289
-8.03169
-0.215481
-8.02472
-0.225671
-8.02741
-0.234005
-8.01565
-0.23468
-8.02046
-0.236915
-8.00542