/*--------------------------------*- C++ -*----------------------------------*\
  =========                 |
  \\      /  F ield         | OpenFOAM: The Open Source CFD Toolbox
   \\    /   O peration     | Website:  https://openfoam.org
    \\  /    A nd           | Version:  9
     \\/     M anipulation  |
\*---------------------------------------------------------------------------*/
FoamFile
{
    format      ascii;
    class       volVectorField;
    location    "7.4";
    object      U;
}
// * * * * * * * * * * * * * * * * * * * * * * * * * * * * * * * * * * * * * //

dimensions      [0 1 -1 0 0 0 0];

internalField   nonuniform List<vector> 
46400
(
(8.52861 -8.31468 2.32577e-19)
(17.4093 -16.7428 -3.45634e-19)
(18.7425 -18.8763 -4.73066e-20)
(18.1177 -19.0197 -1.39395e-19)
(17.4913 -19.0426 -3.58896e-20)
(16.8691 -19.1075 7.0176e-19)
(16.2799 -19.1236 -4.15663e-19)
(15.7304 -19.1696 1.2185e-19)
(15.2036 -19.2037 -1.2539e-19)
(14.704 -19.2319 1.28356e-19)
(14.2295 -19.2837 -1.30772e-19)
(13.7873 -19.31 0)
(13.3613 -19.3665 8.95228e-19)
(12.9628 -19.3838 -1.01344e-18)
(12.5795 -19.4332 -1.18771e-18)
(12.2336 -19.4519 -1.61806e-19)
(11.8955 -19.5093 -2.37505e-20)
(11.5847 -19.5177 9.13417e-19)
(11.2911 -19.4401 1.20844e-18)
(10.8733 -19.5462 -1.09704e-18)
(8.81846 -7.85413 0)
(17.5046 -15.6401 -2.42227e-20)
(18.7335 -17.5267 0)
(17.9779 -17.5975 5.6054e-19)
(17.3741 -17.673 -4.52886e-19)
(16.7314 -17.7766 1.12496e-19)
(16.1824 -17.8683 0)
(15.6091 -17.9586 -1.21847e-19)
(15.0985 -18.0428 1.25389e-19)
(14.5864 -18.1083 -1.28355e-19)
(14.1234 -18.1999 1.25778e-18)
(13.6725 -18.272 2.96105e-20)
(13.2526 -18.3681 -9.85953e-19)
(12.8475 -18.4466 0)
(12.4729 -18.5498 1.36561e-19)
(12.1138 -18.6359 1.37329e-19)
(11.7647 -18.7151 0)
(11.4332 -18.7726 -1.16891e-18)
(11.1718 -18.8272 -2.95124e-19)
(10.7937 -19.0245 1.18669e-18)
(9.0275 -7.38728 3.00819e-19)
(17.4683 -14.544 -4.68357e-19)
(18.3714 -16.0272 4.90143e-19)
(17.6928 -16.2698 5.53329e-19)
(17.0721 -16.3809 -5.43219e-19)
(16.453 -16.5328 0)
(15.8612 -16.6247 -1.35538e-18)
(15.3265 -16.7562 1.17786e-18)
(14.8173 -16.8952 -1.39273e-18)
(14.3323 -16.9852 1.37331e-18)
(13.8629 -17.1026 1.24984e-18)
(13.4327 -17.1873 -1.38274e-19)
(13.0098 -17.2929 -1.07138e-18)
(12.6179 -17.3698 0)
(12.237 -17.4662 1.25408e-18)
(11.9126 -17.5722 -1.23504e-18)
(11.5979 -17.7075 0)
(11.2919 -17.7768 -1.06845e-20)
(11.0068 -17.8186 1.4757e-19)
(10.6269 -18.0589 -1.27691e-18)
(9.15456 -6.89614 -3.91495e-19)
(17.3147 -13.3892 1.19001e-19)
(18.0764 -14.6924 6.21652e-19)
(17.2978 -14.8535 -6.1337e-19)
(16.738 -15.0443 -4.84976e-19)
(16.1417 -15.2601 6.44821e-19)
(15.604 -15.4402 8.32188e-19)
(15.0332 -15.5727 -2.02573e-18)
(14.551 -15.7655 1.67736e-18)
(14.0642 -15.9132 -1.61788e-19)
(13.6149 -16.0715 0)
(13.1856 -16.2159 1.62831e-19)
(12.7808 -16.3624 -1.62864e-19)
(12.3977 -16.502 0)
(12.0265 -16.6398 1.35531e-18)
(11.6673 -16.7525 -1.16125e-18)
(11.3528 -16.9293 0)
(11.0625 -17.0807 1.59675e-19)
(10.8038 -17.1896 1.68252e-19)
(10.4146 -17.4414 1.36548e-18)
(9.23997 -6.38117 0)
(17.0221 -12.1929 0)
(17.5408 -13.3029 -7.12861e-19)
(16.8836 -13.6048 5.13447e-19)
(16.2515 -13.7924 -9.10651e-19)
(15.6565 -14.0144 7.25844e-19)
(15.1039 -14.238 0)
(14.5771 -14.4257 7.50913e-19)
(14.0712 -14.6265 -9.15965e-19)
(13.6236 -14.8197 -1.93912e-19)
(13.1679 -15.004 -1.92972e-19)
(12.7576 -15.1684 0)
(12.3468 -15.339 1.47491e-18)
(11.9632 -15.472 -1.45182e-18)
(11.6028 -15.6436 0)
(11.2577 -15.7552 -1.61171e-18)
(10.9264 -15.9166 1.41673e-18)
(10.6421 -16.0742 1.40996e-18)
(10.3912 -16.236 -1.55249e-18)
(10.055 -16.5576 0)
(9.31963 -5.88661 0)
(16.5872 -10.9133 0)
(17.0277 -11.991 0)
(16.2587 -12.2344 -2.14315e-20)
(15.7239 -12.5413 0)
(15.1542 -12.823 0)
(14.6351 -13.087 0)
(14.1083 -13.3152 -2.11866e-19)
(13.633 -13.5633 0)
(13.1808 -13.7866 1.93908e-19)
(12.7603 -14.0252 -1.45052e-20)
(12.3573 -14.2287 -1.80237e-18)
(11.9861 -14.4572 1.36805e-18)
(11.6198 -14.6419 -1.76648e-18)
(11.283 -14.8619 1.34242e-18)
(10.9467 -15.0262 0)
(10.6097 -15.19 -1.51161e-18)
(10.2968 -15.3359 1.29797e-18)
(10.0278 -15.4605 0)
(9.6952 -15.7897 -1.97047e-19)
(9.43169 -5.35718 8.22798e-19)
(16.0516 -9.70452 2.26307e-19)
(16.2843 -10.6267 8.91445e-19)
(15.6487 -11.0078 -8.99254e-19)
(15.0444 -11.3044 -8.97851e-19)
(14.4963 -11.6319 1.77727e-18)
(13.986 -11.9609 -2.00082e-18)
(13.4861 -12.2145 2.02492e-19)
(13.0048 -12.4997 6.43707e-19)
(12.5813 -12.7506 0)
(12.1636 -13.0202 -1.39496e-20)
(11.7736 -13.2368 -1.32159e-20)
(11.3952 -13.4772 2.03407e-19)
(11.0216 -13.6476 1.64713e-18)
(10.6871 -13.8794 -1.43463e-18)
(10.3952 -14.0918 -1.82202e-18)
(10.0928 -14.3075 1.59078e-18)
(9.82482 -14.5061 -9.75406e-21)
(9.5453 -14.6431 -1.98177e-19)
(9.24451 -14.9599 -1.42233e-18)
(9.5967 -4.83707 -2.40803e-19)
(15.389 -8.54723 2.31117e-20)
(15.5144 -9.37301 -2.52597e-19)
(14.808 -9.75469 -9.98556e-19)
(14.2752 -10.1657 7.09816e-19)
(13.7522 -10.5086 0)
(13.2814 -10.8936 1.43529e-18)
(12.8229 -11.2044 -6.98222e-19)
(12.3618 -11.5085 4.67197e-19)
(11.9525 -11.8034 2.37783e-19)
(11.5734 -12.1174 -4.58837e-19)
(11.2121 -12.3975 1.11873e-18)
(10.8956 -12.7094 2.27731e-19)
(10.5526 -12.9482 -1.31512e-18)
(10.202 -13.1582 3.67205e-18)
(9.89711 -13.3901 -1.4926e-18)
(9.58376 -13.586 1.8864e-18)
(9.3187 -13.8171 -1.23675e-18)
(9.05758 -13.9747 4.05046e-19)
(8.74954 -14.2802 1.91394e-18)
(9.76497 -4.4001 1.21768e-18)
(14.5776 -7.42519 -2.51882e-19)
(14.4542 -8.16345 -2.02946e-20)
(13.9296 -8.62657 5.23981e-19)
(13.3989 -9.0766 2.50991e-19)
(12.9268 -9.47179 2.65499e-19)
(12.4758 -9.89355 -1.2669e-18)
(12.0591 -10.2383 7.58852e-19)
(11.6265 -10.585 -2.40949e-19)
(11.2106 -10.8479 -2.37805e-19)
(10.8394 -11.1779 -2.34556e-19)
(10.464 -11.4182 -2.42759e-19)
(10.1434 -11.7341 -4.66446e-19)
(9.8668 -12.0265 1.61088e-18)
(9.55431 -12.2883 -2.25819e-18)
(9.29479 -12.5491 -2.26581e-19)
(9.01249 -12.7877 8.88488e-21)
(8.76766 -13.0162 -1.70595e-18)
(8.53241 -13.2204 1.2675e-18)
(8.257 -13.5098 -1.9812e-18)
(9.81124 -4.04696 1.04898e-18)
(13.6003 -6.36735 -2.5648e-18)
(13.4019 -7.10943 1.69263e-18)
(12.9109 -7.56953 -2.71385e-19)
(12.3991 -8.08694 -2.84623e-19)
(11.9559 -8.494 1.11129e-18)
(11.5485 -8.98547 -1.3533e-18)
(11.1842 -9.38128 0)
(10.8145 -9.8117 1.04615e-18)
(10.4498 -10.1366 -1.02871e-18)
(10.1147 -10.5138 -7.52776e-19)
(9.79153 -10.8192 9.83838e-19)
(9.45185 -11.1109 2.38709e-19)
(9.18086 -11.42 -9.57877e-19)
(8.87758 -11.6869 2.33266e-19)
(8.62066 -11.9604 1.15274e-18)
(8.3602 -12.2187 -2.03491e-18)
(8.12329 -12.4642 1.34024e-18)
(7.90803 -12.6894 -7.70214e-21)
(7.64612 -12.9879 -1.83167e-18)
(9.64205 -3.63806 1.40324e-18)
(12.5915 -5.45411 -9.10033e-19)
(12.2532 -6.15182 6.04278e-19)
(11.8359 -6.63957 5.33288e-21)
(11.4126 -7.17954 -1.18043e-18)
(10.9911 -7.59063 -1.13732e-18)
(10.6091 -8.07102 1.40697e-18)
(10.2595 -8.46747 -8.28065e-19)
(9.93067 -8.90513 1.09313e-18)
(9.57827 -9.2322 0)
(9.25332 -9.59241 1.01383e-20)
(8.97918 -9.94112 2.53535e-19)
(8.67357 -10.2537 2.58024e-19)
(8.43724 -10.5863 -2.52977e-19)
(8.17664 -10.893 0)
(7.93976 -11.1855 2.43166e-19)
(7.70121 -11.4777 0)
(7.46965 -11.7385 4.6042e-19)
(7.27518 -11.9986 2.25626e-18)
(7.03881 -12.3247 -1.11774e-20)
(9.23224 -3.18883 7.49497e-19)
(11.3647 -4.60402 -1.55014e-19)
(11.0173 -5.31262 -2.21932e-18)
(10.6997 -5.84184 1.2429e-18)
(10.2821 -6.42772 2.99062e-19)
(9.92361 -6.87736 -2.94104e-19)
(9.56959 -7.39823 -1.1803e-18)
(9.27398 -7.84435 8.76e-19)
(9.00774 -8.35132 0)
(8.74345 -8.76635 0)
(8.41926 -9.12804 -1.35886e-18)
(8.16551 -9.48453 1.07297e-18)
(7.87688 -9.79399 -2.58052e-19)
(7.62819 -10.0944 -7.72694e-19)
(7.3932 -10.3916 4.9979e-21)
(7.16712 -10.6625 1.73091e-18)
(6.96725 -10.9446 -9.69773e-19)
(6.75317 -11.1856 7.11569e-19)
(6.57452 -11.4258 -1.16087e-18)
(6.38785 -11.7117 0)
(8.60265 -2.70474 -6.31669e-19)
(10.2481 -3.83797 9.95882e-19)
(9.8495 -4.52411 1.67523e-19)
(9.52034 -5.03369 1.64484e-19)
(9.21055 -5.65199 0)
(8.8644 -6.08991 1.24549e-18)
(8.5205 -6.58516 -1.22361e-18)
(8.18862 -6.97237 1.5198e-19)
(7.91506 -7.43975 0)
(7.73526 -7.9116 1.14842e-18)
(7.49763 -8.35609 -9.86855e-19)
(7.30116 -8.78206 1.10104e-18)
(7.07852 -9.18492 -1.08355e-18)
(6.86842 -9.54837 1.05512e-18)
(6.65988 -9.90344 -9.07929e-19)
(6.45402 -10.2237 -1.01096e-18)
(6.27055 -10.5448 1.98543e-18)
(6.08761 -10.8407 -8.52227e-19)
(5.91139 -11.1039 1.20216e-19)
(5.72781 -11.4231 9.96605e-19)
(7.77682 -2.21726 -4.95124e-19)
(8.91289 -3.16807 5.20184e-19)
(8.51191 -3.91431 -1.67512e-19)
(8.26854 -4.47635 -1.64471e-19)
(7.99418 -5.12453 0)
(7.76101 -5.66437 0)
(7.52075 -6.2274 0)
(7.26699 -6.68577 -3.07976e-19)
(6.93888 -7.08817 -1.20424e-18)
(6.70043 -7.49442 2.36237e-18)
(6.44383 -7.87992 -1.30157e-18)
(6.24156 -8.26484 -1.42865e-19)
(6.04734 -8.64409 0)
(5.86548 -9.00559 0)
(5.69549 -9.35552 -2.64625e-19)
(5.52416 -9.68878 0)
(5.3625 -10.0082 1.01073e-18)
(5.20938 -10.3239 -1.24373e-18)
(5.06518 -10.6024 -1.08793e-18)
(4.90202 -10.9361 1.02471e-18)
(6.79031 -1.74439 5.08228e-19)
(7.62979 -2.54422 8.90683e-19)
(7.21509 -3.24157 -1.54694e-22)
(7.00638 -3.80987 -1.04359e-21)
(6.7486 -4.43516 1.68439e-19)
(6.48533 -4.93756 -4.9363e-19)
(6.26481 -5.49929 0)
(6.12542 -6.04239 -4.73729e-19)
(5.94489 -6.54455 1.5888e-19)
(5.7936 -7.02176 6.05574e-19)
(5.60482 -7.45748 5.88764e-19)
(5.42446 -7.86749 -4.36391e-19)
(5.25011 -8.25689 1.12549e-18)
(5.08819 -8.63489 -9.68846e-19)
(4.93294 -8.98989 1.20956e-18)
(4.77632 -9.33211 -2.24441e-18)
(4.63189 -9.65615 1.03627e-18)
(4.48637 -9.96974 1.2515e-19)
(4.36225 -10.2552 9.84098e-19)
(4.2228 -10.5855 -1.04271e-18)
(5.68278 -1.34326 1.75755e-19)
(6.25741 -2.10401 -1.80065e-19)
(5.90445 -2.77962 7.15963e-19)
(5.70606 -3.37765 -7.02641e-19)
(5.59632 -4.06525 -3.42956e-19)
(5.40137 -4.63981 -8.36966e-19)
(5.15788 -5.15019 3.18862e-21)
(4.96896 -5.67103 6.44297e-19)
(4.7555 -6.13583 -1.55713e-19)
(4.59462 -6.61906 0)
(4.44345 -7.05606 0)
(4.30571 -7.49605 0)
(4.16415 -7.89472 0)
(4.0363 -8.2881 1.79072e-21)
(3.92037 -8.66457 0)
(3.80214 -9.01774 1.32871e-19)
(3.68944 -9.36269 5.21127e-19)
(3.57424 -9.68128 -1.53274e-18)
(3.46663 -9.97645 1.13016e-18)
(3.35203 -10.3041 -1.04722e-18)
(4.37137 -1.01381 0)
(4.94147 -1.84547 -9.30654e-20)
(4.62004 -2.46563 0)
(4.32615 -3.00062 2.65901e-19)
(4.13065 -3.57045 -1.75897e-19)
(4.07715 -4.19352 -6.79685e-19)
(3.95264 -4.72374 3.3743e-21)
(3.86353 -5.29261 6.52866e-19)
(3.74328 -5.7804 -6.3427e-19)
(3.63547 -6.27994 1.24328e-18)
(3.51675 -6.73347 -4.17181e-21)
(3.39006 -7.16965 -5.95481e-19)
(3.29497 -7.59163 5.77573e-19)
(3.16332 -7.97697 -7.09331e-19)
(3.07785 -8.364 0)
(2.97199 -8.7184 -5.38736e-19)
(2.89156 -9.0754 5.30679e-19)
(2.80152 -9.40049 0)
(2.72592 -9.70745 -1.25725e-19)
(2.63401 -10.0341 0)
(2.63304 -0.532277 9.54022e-20)
(3.44044 -1.52967 9.31747e-20)
(3.39792 -2.3346 0)
(3.25069 -2.94958 3.58461e-19)
(3.05107 -3.51595 -4.40851e-19)
(2.89851 -4.06453 2.56843e-19)
(2.74141 -4.59215 -7.56265e-19)
(2.59842 -5.09431 3.29276e-19)
(2.5041 -5.60067 -8.03138e-20)
(2.38023 -6.0533 0)
(2.33872 -6.53729 -7.65819e-20)
(2.24482 -6.94846 -7.47802e-20)
(2.19456 -7.39224 -7.30277e-20)
(2.1182 -7.77382 0)
(2.06249 -8.1705 -5.54344e-19)
(1.98853 -8.52849 1.1555e-18)
(1.939 -8.8888 -9.96035e-19)
(1.87531 -9.22949 5.21293e-19)
(1.82912 -9.54143 6.35285e-20)
(1.77671 -9.88931 5.3132e-19)
(1.51727 -0.278882 0)
(1.58763 -0.994638 -1.88417e-19)
(1.76136 -1.69939 4.67119e-22)
(1.81158 -2.49536 4.96724e-19)
(1.7249 -3.15547 -1.33107e-19)
(1.69693 -3.80034 -8.60627e-20)
(1.63473 -4.41617 8.51879e-20)
(1.56119 -4.94128 1.65303e-19)
(1.51685 -5.4928 8.03079e-20)
(1.43417 -5.94605 -3.13104e-19)
(1.38335 -6.43382 3.4621e-19)
(1.31418 -6.85445 7.47805e-20)
(1.26122 -7.28649 3.6442e-19)
(1.21219 -7.67488 -2.2828e-21)
(1.15229 -8.06269 3.25932e-20)
(1.11525 -8.4174 -6.1319e-19)
(1.05672 -8.7712 1.67647e-19)
(1.02402 -9.10056 0)
(0.979273 -9.4094 -3.1762e-20)
(0.942363 -9.74783 -2.66117e-19)
(0.513325 -0.374119 6.9139e-21)
(0.633608 -0.852924 -9.42267e-20)
(0.346381 -1.68201 1.84625e-19)
(0.261057 -2.22199 -4.55203e-20)
(0.261855 -2.982 -4.43244e-20)
(0.177255 -3.49554 0)
(0.218056 -4.17337 -8.4029e-20)
(0.169426 -4.67268 1.6462e-19)
(0.20173 -5.26247 -8.06473e-20)
(0.1737 -5.75013 7.81798e-20)
(0.184344 -6.26484 -3.85682e-20)
(0.176423 -6.72019 -7.44966e-20)
(0.186316 -7.17452 1.4604e-19)
(0.175222 -7.58776 -1.426e-19)
(0.186199 -7.99583 3.507e-20)
(0.16356 -8.36313 2.4085e-34)
(0.170317 -8.73245 -3.29087e-20)
(0.142161 -9.06129 1.94509e-19)
(0.145023 -9.37823 -9.60287e-20)
(0.117769 -9.707 -6.70348e-20)
(0.465866 1.46377 1.82525e-20)
(0.712808 -2.6523 1.0643e-20)
(3.13774 -13.204 0)
(5.57372 -24.4229 1.0115e-20)
(6.95309 -30.5427 9.60073e-21)
(7.346 -32.6412 8.85638e-21)
(7.39549 -33.092 0)
(7.35557 -33.0981 6.83739e-21)
(7.25039 -32.9484 0)
(7.13614 -32.7332 0)
(7.02448 -32.5946 -5.13317e-21)
(6.93012 -32.418 9.93931e-22)
(6.80987 -32.2951 9.29305e-21)
(6.73839 -32.1905 0)
(6.60123 -32.0759 3.22345e-21)
(6.54054 -31.8911 2.72209e-21)
(6.37764 -31.8222 2.2642e-21)
(6.33448 -31.6558 0)
(6.14836 -31.4907 -2.77584e-21)
(6.07652 -31.1814 2.64483e-21)
(0.344763 0.171708 3.39013e-20)
(1.155 -5.18223 -5.42269e-20)
(4.17959 -17.6233 0)
(6.6403 -27.5105 -5.03727e-20)
(7.59375 -31.7846 4.79888e-20)
(7.84639 -32.9041 -8.05229e-20)
(7.81096 -33.0035 3.25898e-20)
(7.74778 -32.897 2.01052e-20)
(7.61553 -32.6406 -9.26438e-20)
(7.51434 -32.4804 5.07109e-20)
(7.41343 -32.3072 -5.47692e-21)
(7.3186 -32.1986 3.60479e-20)
(7.21425 -32.1 -4.08468e-21)
(7.12301 -31.924 -3.08896e-20)
(6.97455 -31.7707 -3.22335e-21)
(6.90263 -31.63 -2.72202e-21)
(6.73502 -31.4972 -2.26412e-21)
(6.68685 -31.3236 0)
(6.49498 -31.1565 -8.38621e-21)
(6.43103 -30.8718 2.87791e-21)
(0.211668 -0.889718 -2.51183e-20)
(1.86062 -8.31615 0)
(5.38827 -21.5221 0)
(7.41456 -29.622 -2.22634e-20)
(8.12507 -32.4173 1.97307e-20)
(8.22666 -32.9093 0)
(8.19931 -32.8721 -1.5887e-20)
(8.09854 -32.6435 4.14018e-20)
(8.00091 -32.459 -4.30828e-20)
(7.91171 -32.2601 4.54417e-20)
(7.8079 -32.1274 -5.5129e-20)
(7.71306 -31.9477 0)
(7.58998 -31.7891 -2.96898e-20)
(7.49323 -31.6341 -2.08674e-20)
(7.35573 -31.4873 4.39297e-20)
(7.28631 -31.3121 -3.30989e-20)
(7.12592 -31.2333 2.92971e-20)
(7.07974 -31.0452 0)
(6.87127 -30.8416 -1.28521e-20)
(6.80717 -30.5201 1.59084e-20)
(0.236143 -2.12249 1.29228e-19)
(2.80543 -11.5901 0)
(6.38956 -24.2503 5.14465e-20)
(8.25964 -30.9793 6.34697e-20)
(8.70103 -32.7186 -1.31227e-19)
(8.75937 -32.8611 3.76202e-20)
(8.69165 -32.7089 1.63593e-20)
(8.58041 -32.4432 1.61592e-19)
(8.47486 -32.2023 -2.15908e-19)
(8.3651 -32.0203 -1.24955e-20)
(8.25613 -31.8121 9.82973e-20)
(8.1443 -31.6685 1.73808e-20)
(8.03671 -31.5335 -7.02071e-20)
(7.93103 -31.3541 6.67185e-20)
(7.79093 -31.207 1.49983e-20)
(7.70396 -31.058 -7.32289e-21)
(7.53182 -30.9096 8.57677e-21)
(7.46585 -30.6937 0)
(7.24257 -30.4853 -2.23935e-23)
(7.18202 -30.1899 0)
(0.416312 -3.16697 0)
(3.77493 -14.5359 2.21081e-19)
(7.44772 -26.6492 -2.70371e-19)
(8.99923 -31.8831 2.3711e-19)
(9.27609 -32.8081 -1.83865e-19)
(9.26662 -32.7617 -3.71956e-20)
(9.15852 -32.4791 0)
(9.05185 -32.1959 8.6197e-20)
(8.93774 -31.9808 -1.14894e-19)
(8.83209 -31.753 1.11389e-19)
(8.71535 -31.5962 -8.637e-20)
(8.60278 -31.4086 -1.73795e-20)
(8.47103 -31.235 6.62225e-20)
(8.34413 -31.0522 -1.04062e-19)
(8.19485 -30.8661 5.43255e-20)
(8.09479 -30.6886 -1.78921e-20)
(7.92653 -30.5848 -1.96016e-20)
(7.85434 -30.3681 2.73015e-20)
(7.62243 -30.1449 -1.15037e-20)
(7.55814 -29.8275 1.58178e-20)
(0.786209 -4.21615 2.54339e-19)
(4.90165 -16.8762 2.41953e-19)
(8.5559 -28.163 -2.39698e-19)
(9.8502 -32.2821 -5.33161e-20)
(9.99749 -32.743 4.45701e-20)
(9.93772 -32.5628 1.51114e-19)
(9.78165 -32.2206 -1.51636e-19)
(9.66717 -31.9552 0)
(9.52294 -31.6857 1.00055e-19)
(9.38326 -31.4656 -9.83794e-20)
(9.24313 -31.2322 -7.10349e-20)
(9.10019 -31.0552 6.9883e-20)
(8.9603 -30.8745 0)
(8.82314 -30.6833 0)
(8.67287 -30.5432 5.9411e-20)
(8.56101 -30.3827 -5.62461e-20)
(8.37542 -30.2255 -1.55223e-20)
(8.28366 -29.9941 1.52907e-20)
(8.0285 -29.7763 1.46613e-20)
(7.96053 -29.4659 -1.9775e-20)
(1.2941 -5.20217 -1.9917e-19)
(6.07843 -18.725 7.76223e-20)
(9.72743 -29.3704 2.23486e-20)
(10.717 -32.4512 2.82289e-19)
(10.7128 -32.5585 0)
(10.575 -32.2538 0)
(10.387 -31.9155 2.67169e-19)
(10.2274 -31.6018 -3.41331e-20)
(10.0597 -31.3417 -2.24534e-19)
(9.90408 -31.0969 1.61104e-19)
(9.74941 -30.9114 -1.58452e-19)
(9.59594 -30.7103 0)
(9.44198 -30.5326 8.04099e-20)
(9.27728 -30.3412 -7.91442e-20)
(9.10875 -30.139 0)
(8.96536 -29.9638 0)
(8.78223 -29.8361 0)
(8.66804 -29.5979 0)
(8.40825 -29.3664 0)
(8.32916 -29.0555 3.64139e-21)
(2.04908 -6.57285 7.07847e-20)
(7.21931 -20.0097 -2.61215e-19)
(10.8673 -29.9309 0)
(11.6147 -32.2388 0)
(11.5255 -32.1981 3.93924e-19)
(11.3278 -31.838 -4.53042e-21)
(11.1072 -31.5026 -3.33242e-19)
(10.9198 -31.2097 0)
(10.714 -30.9373 2.35346e-20)
(10.5212 -30.6921 -1.91334e-20)
(10.3269 -30.4554 0)
(10.139 -30.2688 1.15074e-20)
(9.94838 -30.0607 -7.21491e-20)
(9.76852 -29.867 1.09085e-19)
(9.5861 -29.7275 -2.04388e-20)
(9.43554 -29.5583 -1.95692e-20)
(9.22799 -29.4052 2.24619e-21)
(9.10674 -29.1818 -4.40182e-21)
(8.81889 -28.972 0)
(8.73551 -28.6494 -7.98502e-21)
(2.56662 -7.16457 0)
(8.32173 -21.1247 1.0174e-19)
(11.9761 -30.2871 -3.96986e-19)
(12.5176 -31.9398 1.03559e-19)
(12.2919 -31.7379 4.20985e-20)
(12.0293 -31.3418 3.25529e-19)
(11.7671 -31.013 -4.31446e-19)
(11.5264 -30.6991 2.90904e-19)
(11.2857 -30.4194 -1.86595e-19)
(11.0629 -30.1807 2.12432e-19)
(10.8556 -29.9763 2.48517e-20)
(10.645 -29.7745 7.56875e-20)
(10.4553 -29.6123 -4.94442e-20)
(10.244 -29.418 -3.10951e-20)
(10.0489 -29.2264 2.01417e-20)
(9.85804 -29.0756 0)
(9.65729 -28.9408 -1.21604e-20)
(9.49514 -28.7084 -9.73716e-21)
(9.20901 -28.4891 1.75634e-20)
(9.10833 -28.18 -1.31941e-20)
(3.01593 -8.33805 -2.65607e-19)
(9.67587 -21.7656 2.09779e-19)
(12.9772 -30.1359 -5.46545e-21)
(13.3554 -31.3367 -2.0172e-19)
(13.0587 -31.0949 -1.70918e-19)
(12.7653 -30.7378 -7.52891e-20)
(12.4526 -30.4197 -6.56308e-21)
(12.1918 -30.128 -5.18887e-20)
(11.9137 -29.8778 0)
(11.661 -29.6347 -3.29563e-20)
(11.4067 -29.4224 -2.4849e-20)
(11.169 -29.2403 -6.76822e-21)
(10.9236 -29.0353 1.26195e-20)
(10.699 -28.8641 -1.59502e-20)
(10.472 -28.718 2.49949e-20)
(10.2752 -28.5517 -2.40813e-20)
(10.0434 -28.4308 -5.03854e-20)
(9.88498 -28.2385 7.35406e-20)
(9.56907 -28.0465 -1.75636e-20)
(9.47042 -27.7175 -1.8383e-19)
(3.69584 -8.71587 -6.43728e-19)
(10.5184 -22.5108 6.44557e-19)
(14.0084 -29.9458 -6.4103e-19)
(14.1379 -30.7303 5.08919e-19)
(13.7908 -30.4185 3.73399e-19)
(13.4706 -30.0608 -2.86751e-19)
(13.1183 -29.7494 -2.94104e-19)
(12.8036 -29.4589 3.95547e-20)
(12.4915 -29.1835 1.44555e-19)
(12.1951 -28.9674 -5.62269e-20)
(11.9295 -28.7583 1.16042e-19)
(11.6565 -28.58 -5.31911e-20)
(11.4202 -28.4398 -4.16755e-21)
(11.1557 -28.2553 -3.07029e-20)
(10.9239 -28.1006 8.49019e-20)
(10.6839 -27.9772 -5.21085e-20)
(10.4546 -27.8527 0)
(10.2457 -27.6688 2.05071e-19)
(9.92603 -27.4989 -2.02088e-19)
(9.79324 -27.1871 2.25021e-19)
(4.24964 -9.17822 1.2535e-19)
(11.7202 -22.4786 1.52432e-19)
(14.89 -29.3811 5.4883e-19)
(14.9665 -29.9198 3.9065e-19)
(14.4931 -29.6145 -2.42569e-19)
(14.1309 -29.2757 2.48529e-19)
(13.7233 -28.9829 -1.47442e-19)
(13.382 -28.7179 1.09273e-19)
(13.0391 -28.496 -1.78987e-19)
(12.7212 -28.2776 5.24705e-20)
(12.4121 -28.1051 0)
(12.1207 -27.9286 0)
(11.8279 -27.7586 0)
(11.5591 -27.6215 1.31363e-19)
(11.2858 -27.4652 -1.29335e-19)
(11.0391 -27.3214 0)
(10.7865 -27.2368 0)
(10.5808 -27.0751 3.568e-20)
(10.2416 -26.9211 0)
(10.1107 -26.592 3.55954e-19)
(4.87795 -9.49221 -2.28106e-19)
(12.6971 -22.5769 -5.44252e-19)
(15.7496 -28.641 -3.27659e-19)
(15.6607 -28.9671 -1.89247e-20)
(15.1679 -28.6799 3.48684e-19)
(14.778 -28.3951 -9.79581e-20)
(14.3467 -28.1298 -4.36054e-20)
(13.9485 -27.8794 -1.19053e-19)
(13.5709 -27.639 0)
(13.2035 -27.4572 8.69443e-22)
(12.8762 -27.2709 -1.43848e-20)
(12.5482 -27.1402 0)
(12.2581 -27.0154 -1.64664e-19)
(11.951 -26.8721 1.62081e-19)
(11.6806 -26.7735 -2.43351e-19)
(11.3989 -26.6567 4.78892e-19)
(11.1454 -26.5619 -2.7225e-19)
(10.9096 -26.4544 -3.56808e-20)
(10.5841 -26.3253 4.69181e-20)
(10.4425 -26.0016 -3.84799e-19)
(5.45791 -9.64763 -2.68279e-19)
(13.6306 -22.2692 4.29201e-20)
(16.5075 -27.8246 6.24453e-20)
(16.3252 -28.0139 4.69241e-19)
(15.7598 -27.7366 -2.66202e-21)
(15.2978 -27.447 -1.68043e-19)
(14.8284 -27.199 -5.38948e-20)
(14.4072 -26.9865 5.28873e-20)
(14.0048 -26.7987 6.64132e-21)
(13.6267 -26.627 6.97519e-20)
(13.2696 -26.498 -3.96494e-20)
(12.9253 -26.343 2.34611e-19)
(12.5973 -26.2392 -1.68137e-19)
(12.2851 -26.1227 2.87898e-19)
(11.9746 -25.9966 -2.39925e-19)
(11.6856 -25.9119 -3.15467e-19)
(11.4139 -25.8484 3.47339e-19)
(11.1679 -25.766 -3.49379e-19)
(10.8462 -25.7034 3.49713e-19)
(10.6918 -25.3922 5.12028e-19)
(6.01431 -9.70522 -3.01353e-19)
(14.483 -21.8577 -2.00808e-20)
(17.1352 -26.7044 2.60245e-19)
(16.8779 -26.7945 -1.38327e-19)
(16.2865 -26.5909 1.35837e-19)
(15.8311 -26.3913 2.2506e-20)
(15.3308 -26.1928 0)
(14.8654 -26.0008 1.38552e-20)
(14.4267 -25.8214 -6.70383e-20)
(13.9988 -25.6807 2.65528e-19)
(13.6161 -25.5509 -2.04202e-19)
(13.2404 -25.4696 -7.0503e-20)
(12.8969 -25.3726 -3.43388e-20)
(12.5594 -25.3047 0)
(12.2466 -25.2269 1.14225e-20)
(11.9239 -25.1281 -4.37535e-19)
(11.6458 -25.0783 -3.07062e-20)
(11.3786 -25.0416 -1.44189e-19)
(11.073 -25.0134 4.74312e-19)
(10.9138 -24.7288 -1.30709e-19)
(6.54986 -9.67879 2.24062e-19)
(15.2451 -21.3159 -3.45971e-19)
(17.7147 -25.7208 1.81784e-19)
(17.3683 -25.7205 6.52107e-20)
(16.7335 -25.5083 -4.96726e-20)
(16.1843 -25.2954 -2.55502e-20)
(15.6747 -25.1148 -2.14012e-20)
(15.1821 -24.9756 -1.38549e-20)
(14.7316 -24.8305 0)
(14.2971 -24.7191 0)
(13.897 -24.6269 3.67207e-19)
(13.5064 -24.5274 -6.72374e-19)
(13.1452 -24.4884 4.01743e-19)
(12.7953 -24.4204 0)
(12.4602 -24.3865 1.23498e-20)
(12.1328 -24.3331 5.96781e-19)
(11.8311 -24.2864 -5.91454e-19)
(11.5435 -24.2869 6.36279e-20)
(11.2651 -24.337 6.55002e-19)
(11.09 -24.0891 -4.36999e-19)
(7.00491 -9.53449 -1.40884e-19)
(15.9 -20.5473 1.63336e-19)
(18.0844 -24.3282 0)
(17.7094 -24.3491 0)
(17.0733 -24.2295 -2.00869e-20)
(16.548 -24.1264 1.14362e-19)
(16.0002 -23.9938 1.98353e-20)
(15.4853 -23.8774 -1.36565e-19)
(14.999 -23.7758 3.96109e-19)
(14.5279 -23.6843 -8.33813e-19)
(14.098 -23.6275 4.37023e-19)
(13.6815 -23.5657 -1.25596e-19)
(13.288 -23.5134 -6.28902e-19)
(12.923 -23.4964 -1.13584e-19)
(12.5692 -23.4683 4.25677e-19)
(12.2215 -23.4383 -7.01897e-20)
(11.9059 -23.4157 7.14907e-19)
(11.5876 -23.4296 -6.27569e-19)
(11.3196 -23.5017 1.09803e-20)
(11.1653 -23.3554 -6.84422e-19)
(7.45674 -9.36468 0)
(16.5109 -19.784 -1.50727e-20)
(18.4998 -23.1899 -2.33803e-20)
(17.9908 -23.1502 0)
(17.3466 -23.0147 2.0085e-20)
(16.7303 -22.9047 -1.78888e-19)
(16.1991 -22.8118 2.15172e-19)
(15.6519 -22.7457 0)
(15.1642 -22.6601 -5.28361e-19)
(14.6824 -22.6107 5.19541e-19)
(14.2511 -22.5805 -8.15618e-20)
(13.8287 -22.5677 7.01125e-20)
(13.4341 -22.5596 7.40474e-20)
(13.0504 -22.5513 7.74469e-20)
(12.6969 -22.5838 7.89578e-19)
(12.3379 -22.5728 -1.42389e-18)
(12.0051 -22.5757 1.45224e-18)
(11.6691 -22.6308 -1.45704e-18)
(11.3992 -22.7447 6.40816e-19)
(11.2331 -22.6427 -9.22951e-20)
(7.83518 -9.02939 0)
(16.8829 -18.7796 8.64909e-20)
(18.6358 -21.693 -2.80632e-20)
(18.1251 -21.738 -1.34228e-19)
(17.4806 -21.6916 -4.23815e-20)
(16.8965 -21.6705 -3.75512e-20)
(16.316 -21.6068 2.54727e-19)
(15.7725 -21.5775 0)
(15.2547 -21.552 0)
(14.7501 -21.5059 0)
(14.2768 -21.4968 8.15529e-20)
(13.8316 -21.4875 0)
(13.4016 -21.5084 8.94896e-19)
(12.9994 -21.5208 -7.77935e-19)
(12.611 -21.5705 8.25033e-19)
(12.2434 -21.6017 -1.65009e-18)
(11.8716 -21.6129 8.25025e-19)
(11.4985 -21.6705 9.56741e-19)
(11.2093 -21.8175 -1.68506e-18)
(11.0687 -21.8448 8.83225e-19)
(8.20766 -8.74045 0)
(17.2555 -17.7841 0)
(18.8581 -20.4211 -4.15042e-20)
(18.2086 -20.4045 -5.25523e-20)
(17.571 -20.3626 0)
(16.9208 -20.3635 -3.40399e-19)
(16.3753 -20.3572 3.34421e-19)
(15.7969 -20.3595 0)
(15.288 -20.3605 -8.11576e-19)
(14.7812 -20.3773 7.98018e-19)
(14.3161 -20.3886 0)
(13.8609 -20.4096 8.95661e-19)
(13.4309 -20.4379 -6.92469e-20)
(13.0059 -20.4629 -9.02299e-19)
(12.6067 -20.5197 0)
(12.2118 -20.5646 0)
(11.8071 -20.6155 0)
(11.3517 -20.6187 8.80871e-19)
(10.9816 -20.5547 -9.76766e-19)
(10.5899 -20.6995 0)
(5.25081 -30.4135 0)
(4.58934 -28.9091 0)
(3.65285 -28.6154 1.06779e-21)
(3.20691 -28.0964 1.32663e-21)
(2.54101 -27.6923 0)
(2.20063 -27.2546 7.42418e-23)
(1.77965 -26.9293 -1.88531e-21)
(1.5239 -26.5458 0)
(1.22778 -26.2178 -2.25328e-21)
(1.04539 -25.9461 0)
(0.827633 -25.7362 2.43444e-21)
(0.731393 -25.5255 1.26547e-21)
(0.539678 -25.4147 -1.27224e-21)
(0.520304 -25.2208 -2.50732e-21)
(0.359804 -25.1088 0)
(0.441885 -24.8914 5.24772e-22)
(0.229333 -24.2029 -3.25841e-21)
(0.397903 -21.3997 0)
(0.0108702 -14.9139 0)
(0.180394 -5.92805 -2.82663e-21)
(5.55105 -30.0409 5.85307e-22)
(4.85301 -28.7076 0)
(3.96845 -28.5254 -5.97546e-21)
(3.48243 -27.9547 3.6042e-21)
(2.78033 -27.5546 0)
(2.39763 -27.1262 9.32494e-21)
(1.94885 -26.8117 -3.85414e-21)
(1.65649 -26.4415 0)
(1.3469 -26.1274 -2.37465e-21)
(1.14097 -25.8708 4.65321e-21)
(0.91292 -25.6734 -7.40174e-21)
(0.800672 -25.4745 1.00934e-20)
(0.601831 -25.3747 -7.73586e-21)
(0.554401 -25.1874 2.18274e-21)
(0.391101 -25.0915 1.98852e-21)
(0.46103 -24.8742 -2.06946e-21)
(0.234391 -24.1981 4.6822e-21)
(0.410634 -21.3702 7.00258e-21)
(0.00196318 -14.8802 3.51681e-21)
(0.183283 -5.89914 3.53166e-21)
(5.86245 -29.7859 -4.63362e-21)
(5.1213 -28.4411 1.09358e-21)
(4.11109 -28.2351 4.84422e-21)
(3.57214 -27.7505 0)
(2.85251 -27.3991 0)
(2.46508 -27.0128 -1.15251e-20)
(2.01674 -26.7275 -5.88823e-22)
(1.71262 -26.3766 -4.34292e-22)
(1.40043 -26.0743 -3.90548e-22)
(1.18385 -25.8268 9.42221e-21)
(0.9534 -25.6391 0)
(0.834168 -25.4423 0)
(0.630171 -25.3437 0)
(0.578918 -25.17 1.04607e-20)
(0.409401 -25.0802 0)
(0.480701 -24.8576 9.67369e-21)
(0.240319 -24.1961 -9.61021e-21)
(0.418548 -21.3543 -4.1303e-21)
(0.00328939 -14.8664 -6.88469e-21)
(0.191733 -5.88409 -1.13197e-20)
(6.16891 -29.3984 -4.73731e-21)
(5.34421 -28.2038 1.11061e-20)
(4.39212 -28.0936 8.6427e-22)
(3.83265 -27.5772 -1.09235e-20)
(3.08714 -27.2487 0)
(2.65824 -26.8843 -1.60273e-20)
(2.18321 -26.6068 4.18495e-20)
(1.84212 -26.2702 -2.64137e-20)
(1.51775 -25.983 1.85114e-20)
(1.27753 -25.75 -9.82472e-21)
(1.03668 -25.5748 -1.54691e-22)
(0.897036 -25.3898 1.03592e-20)
(0.691485 -25.2995 -1.04093e-20)
(0.616037 -25.1311 -5.16513e-21)
(0.441459 -25.0612 -4.47263e-21)
(0.50019 -24.8384 -1.01023e-20)
(0.246783 -24.1945 1.20158e-20)
(0.426794 -21.3394 -5.24247e-21)
(-0.00546563 -14.8515 2.65282e-21)
(0.196281 -5.86103 1.13011e-20)
(6.48881 -29.1158 -1.58246e-21)
(5.62776 -27.9372 -3.3292e-21)
(4.56497 -27.8308 1.11223e-20)
(3.92178 -27.3881 -1.77305e-20)
(3.15814 -27.0923 0)
(2.71843 -26.764 7.94817e-21)
(2.24669 -26.5152 -8.50933e-21)
(1.89316 -26.1992 0)
(1.56675 -25.9245 1.21579e-22)
(1.31627 -25.7002 0)
(1.07355 -25.535 2.01665e-20)
(0.926486 -25.3541 0)
(0.720101 -25.2644 0)
(0.642784 -25.1104 2.15756e-20)
(0.460776 -25.0457 -9.67839e-21)
(0.519892 -24.8189 1.09287e-20)
(0.252463 -24.1945 0)
(0.433411 -21.3319 -2.50897e-21)
(-0.0107074 -14.8463 2.59059e-21)
(0.202954 -5.84926 0)
(6.78518 -28.7241 -5.24686e-21)
(5.82626 -27.6797 7.95776e-21)
(4.8159 -27.629 -3.01553e-20)
(4.15741 -27.179 3.04345e-20)
(3.39147 -26.932 -1.53252e-20)
(2.9064 -26.6304 -7.97313e-21)
(2.41132 -26.3922 1.77047e-20)
(2.01997 -26.0909 1.85439e-20)
(1.68196 -25.8323 -9.54177e-21)
(1.40796 -25.622 -2.01161e-20)
(1.15526 -25.4691 1.00556e-20)
(0.987383 -25.2987 0)
(0.777991 -25.219 0)
(0.68374 -25.0662 9.84437e-23)
(0.484972 -25.0268 9.9104e-21)
(0.538406 -24.7967 -1.10415e-20)
(0.257398 -24.1957 0)
(0.440439 -21.328 1.98489e-20)
(-0.0177809 -14.8458 1.95447e-20)
(0.209923 -5.83444 1.383e-21)
(7.13334 -28.3831 1.93142e-20)
(6.13144 -27.3979 -2.20962e-20)
(4.99697 -27.3965 1.16531e-20)
(4.24588 -26.9996 0)
(3.46583 -26.7766 1.53908e-20)
(2.95983 -26.5004 -3.44315e-20)
(2.47083 -26.2924 1.67892e-20)
(2.06636 -26.0131 -1.85966e-20)
(1.72708 -25.7684 0)
(1.44329 -25.5666 0)
(1.18963 -25.4235 -2.0858e-20)
(1.01571 -25.2614 2.09326e-20)
(0.803465 -25.1817 0)
(0.71075 -25.0393 -3.26731e-20)
(0.506969 -25.0057 9.59298e-21)
(0.554656 -24.7733 1.1134e-20)
(0.261435 -24.1982 -9.70814e-21)
(0.445839 -21.3289 -2.63225e-20)
(-0.0262049 -14.8513 -1.35367e-20)
(0.217676 -5.82593 -2.72936e-21)
(7.40255 -28.0017 0)
(6.31054 -27.1144 2.17143e-20)
(5.24442 -27.1354 -2.17802e-20)
(4.46068 -26.7575 0)
(3.69385 -26.6058 0)
(3.14026 -26.3628 3.53138e-20)
(2.6329 -26.1678 -3.54183e-20)
(2.18997 -25.9031 0)
(1.83977 -25.6755 -2.0114e-20)
(1.53289 -25.4872 4.08036e-20)
(1.26766 -25.3568 -2.06913e-20)
(1.07866 -25.2019 -2.14464e-20)
(0.859271 -25.1349 2.15107e-20)
(0.749726 -24.9924 0)
(0.530506 -24.9829 0)
(0.565399 -24.7484 1.11587e-20)
(0.265225 -24.2021 -1.48857e-20)
(0.451982 -21.3349 -1.54123e-23)
(-0.036459 -14.8644 8.4158e-21)
(0.226327 -5.81858 -2.71078e-21)
(7.77674 -27.5904 -1.76862e-20)
(6.57927 -26.8143 1.77252e-20)
(5.39873 -26.9235 4.1687e-20)
(4.54306 -26.5817 -5.92804e-20)
(3.76709 -26.4476 6.54813e-20)
(3.18897 -26.2227 1.97874e-21)
(2.68864 -26.0598 -3.63049e-20)
(2.23243 -25.8183 0)
(1.88147 -25.6061 0)
(1.56566 -25.426 -2.08906e-20)
(1.29833 -25.3065 0)
(1.10184 -25.1626 0)
(0.884872 -25.0949 0)
(0.773596 -24.96 0)
(0.555529 -24.9559 0)
(0.571001 -24.7222 0)
(0.268853 -24.2075 1.02799e-20)
(0.44992 -21.3469 -1.12071e-20)
(-0.0409095 -14.8833 2.80297e-21)
(0.235469 -5.81465 -2.70417e-21)
(8.02998 -27.2088 -5.49052e-21)
(6.79524 -26.4902 3.09985e-20)
(5.64956 -26.6195 1.53693e-20)
(4.74895 -26.3231 1.86139e-20)
(3.98726 -26.2701 -1.47816e-20)
(3.36105 -26.0816 -5.35719e-20)
(2.84645 -25.9339 -1.93521e-20)
(2.3527 -25.7067 0)
(1.99092 -25.5127 2.09065e-20)
(1.65326 -25.3453 -4.18224e-20)
(1.37384 -25.2381 -2.14516e-20)
(1.16343 -25.1015 -2.19177e-20)
(0.935613 -25.0468 0)
(0.80815 -24.9111 -2.23002e-20)
(0.578133 -24.9269 -1.93606e-20)
(0.577276 -24.6937 0)