/*--------------------------------*- C++ -*----------------------------------*\
  =========                 |
  \\      /  F ield         | OpenFOAM: The Open Source CFD Toolbox
   \\    /   O peration     | Website:  https://openfoam.org
    \\  /    A nd           | Version:  9
     \\/     M anipulation  |
\*---------------------------------------------------------------------------*/
FoamFile
{
    format      ascii;
    class       volScalarField;
    location    "15";
    object      nut;
}
// * * * * * * * * * * * * * * * * * * * * * * * * * * * * * * * * * * * * * //

dimensions      [0 2 -1 0 0 0 0];

internalField   nonuniform List<scalar> 
46400
(
0.0237689
0.00962307
0.0028514
0.00178329
0.00180719
0.00171951
0.0016555
0.00163094
0.00155157
0.00149406
0.00144191
0.00141217
0.00136127
0.00132727
0.00129988
0.00129033
0.001209
0.00118434
0.00154819
0.00121677
0.0232672
0.00852942
0.00243734
0.00174829
0.00175123
0.00170748
0.00163553
0.00160221
0.00153851
0.0014981
0.0014297
0.00137111
0.00133873
0.00129222
0.00124564
0.00121675
0.00112743
0.00102308
0.00136387
0.0012253
0.0227492
0.00780438
0.0020518
0.00182469
0.00178905
0.00172938
0.00164109
0.00161451
0.00154198
0.001486
0.0014355
0.00139301
0.00133261
0.00129567
0.00125763
0.0012338
0.00113401
0.00109118
0.0014429
0.00120133
0.0222068
0.00665139
0.00161575
0.00177232
0.00171063
0.00170356
0.00161284
0.0015842
0.00152082
0.00148207
0.00141347
0.00136087
0.00133269
0.00127786
0.00124201
0.001218
0.00113961
0.00105516
0.0014424
0.00126642
0.0215926
0.00592698
0.00159005
0.00184235
0.00174718
0.00172373
0.00163035
0.00159885
0.00153656
0.00148104
0.00144034
0.0013833
0.00132883
0.00129842
0.00125228
0.00123752
0.00116279
0.00111153
0.00146471
0.0012774
0.020946
0.00504336
0.00155542
0.00178272
0.00166877
0.00168265
0.0015959
0.00156955
0.00151384
0.00147658
0.00141415
0.00137409
0.001327
0.00128147
0.00125187
0.00121675
0.00114669
0.00108877
0.00142847
0.00124227
0.0201968
0.00543373
0.00164743
0.00184968
0.00172045
0.00170351
0.00161154
0.00157223
0.00152091
0.0014762
0.00144419
0.00139209
0.00135511
0.00130309
0.00128214
0.00126306
0.00118516
0.00112695
0.00143175
0.00127092
0.0193912
0.00569928
0.00165894
0.00181512
0.00167384
0.00168048
0.00159299
0.00155013
0.00149051
0.00144825
0.00140023
0.00135913
0.00133108
0.00128722
0.00125182
0.00123742
0.00119712
0.0011154
0.00143937
0.00129642
0.0186229
0.00532908
0.00172013
0.00190661
0.00172247
0.00169463
0.00160572
0.0015535
0.00150548
0.00144773
0.00142368
0.00137271
0.0013469
0.00132398
0.00128254
0.00123115
0.0011967
0.00112191
0.00138842
0.00128246
0.0173815
0.0045754
0.00164977
0.00182569
0.00168947
0.00166862
0.00159756
0.00151877
0.00147339
0.00140977
0.0013619
0.00131383
0.00127325
0.00124319
0.00124559
0.00122194
0.00116543
0.00111911
0.00135162
0.00126134
0.0156146
0.00383681
0.00172387
0.00186933
0.00172078
0.00165204
0.00161661
0.00155399
0.00150123
0.00143997
0.00139962
0.00136742
0.00131123
0.0012406
0.00120268
0.00118737
0.00113578
0.00106466
0.00125846
0.00117149
0.0134439
0.00314156
0.00168426
0.0016907
0.00167297
0.00159513
0.00154487
0.00148942
0.00146758
0.00142231
0.00136394
0.00131995
0.00131594
0.00127166
0.0012337
0.00120553
0.00117432
0.00111191
0.0012752
0.00121264
0.0110709
0.00276956
0.00174456
0.0017208
0.00166387
0.00160547
0.00155465
0.00148526
0.00143627
0.00141197
0.00138457
0.00130491
0.00125959
0.00123009
0.00119131
0.00115823
0.00112847
0.00108438
0.00120285
0.00113589
0.00893678
0.00224513
0.00169949
0.00162354
0.00158635
0.00154853
0.00151968
0.00144216
0.00137529
0.00132194
0.0013163
0.00129002
0.00125568
0.00121493
0.00119523
0.00115477
0.00110904
0.00107543
0.00118952
0.00113883
0.00744793
0.00204668
0.0016691
0.00166987
0.00163762
0.00154608
0.00154608
0.00152918
0.00148483
0.00137468
0.00130755
0.00125513
0.00121253
0.00116314
0.00113292
0.00111194
0.00105109
0.00100045
0.00106771
0.00102829
0.00610442
0.00184491
0.00172757
0.00154823
0.00152152
0.00147251
0.00140457
0.00137255
0.00139094
0.00138241
0.00134762
0.00130526
0.00127711
0.00122774
0.00118211
0.00116181
0.00112921
0.00106581
0.00111825
0.00105533
0.0051754
0.00173945
0.0017265
0.00168132
0.00163252
0.00153753
0.00148156
0.00137507
0.00132215
0.00128047
0.00124702
0.00121313
0.00118683
0.0011661
0.00112155
0.00108792
0.00107306
0.00104007
0.00108873
0.0010474
0.00411517
0.0016229
0.00171929
0.00156783
0.00152712
0.00149582
0.00148549
0.0014306
0.00136628
0.0013302
0.00128425
0.0012465
0.00119756
0.00118785
0.00115674
0.00112003
0.00107006
0.00102134
0.00105296
0.00100673
0.0037359
0.00165337
0.00168178
0.00155792
0.00154144
0.00144302
0.00140224
0.00140621
0.00134202
0.00131355
0.00125264
0.00123963
0.00117359
0.00113833
0.00111743
0.00109747
0.00107581
0.00102417
0.00105101
0.0010003
0.00353527
0.00159231
0.00152703
0.00152883
0.00153114
0.00147378
0.00138668
0.00133245
0.00129887
0.00127849
0.00122677
0.00120694
0.0011819
0.00113763
0.00109897
0.00107401
0.00104319
0.00100424
0.00103006
0.000983581
0.0108551
0.0166019
0.0122291
0.00178497
0.000530012
0.00104361
0.00123322
0.00118635
0.00111094
0.00108538
0.00107947
0.00103326
0.00104314
0.00109175
0.00109125
0.00116422
0.00120687
0.00124375
0.00116705
0.00100238
0.0138388
0.0167457
0.011329
0.000600225
0.000736423
0.00121566
0.00126954
0.00119233
0.00118127
0.00112031
0.00107925
0.00110199
0.00108357
0.00104922
0.00106978
0.00117693
0.00124726
0.0013039
0.0011806
0.00100172
0.0171924
0.0168193
0.0105617
0.000298701
0.000889931
0.00131581
0.00134243
0.00127203
0.00120721
0.00117316
0.00115736
0.00110414
0.00110049
0.00114352
0.00115972
0.00124376
0.00126346
0.00128462
0.00115296
0.00100348
0.0190022
0.0168268
0.00836559
0.000615592
0.00111081
0.00138841
0.00132766
0.00127921
0.00125339
0.00119446
0.0011576
0.0011728
0.00115895
0.00112119
0.00113261
0.00122847
0.00128183
0.00134538
0.00118655
0.00102462
0.0204671
0.0166899
0.00666021
0.000367136
0.00129873
0.00148394
0.00139607
0.00134222
0.00128607
0.00124556
0.00121776
0.00116045
0.00114753
0.001182
0.00120401
0.00129081
0.00130278
0.00132137
0.00115661
0.00102767
0.0215159
0.0164873
0.00482229
0.000303738
0.00136719
0.00148692
0.0013948
0.00134821
0.00131673
0.00125714
0.00122485
0.00123191
0.00121411
0.0011748
0.00118232
0.00125946
0.00130557
0.00137575
0.00117337
0.00104192
0.0221889
0.0162442
0.00373377
0.000456165
0.00151957
0.00155702
0.00147822
0.00140288
0.00135205
0.00130718
0.00126568
0.00120782
0.00119036
0.00121333
0.00122835
0.00130829
0.00133575
0.00137395
0.0011577
0.00104006
0.0229431
0.0159132
0.00260296
0.000667341
0.00157247
0.00155664
0.00146431
0.00140887
0.00137157
0.00131063
0.00128184
0.00127851
0.00124933
0.00121049
0.0012139
0.00127214
0.00131498
0.0014062
0.00117971
0.00106332
0.0236339
0.0155764
0.00211007
0.000824471
0.00164126
0.00160965
0.00154533
0.00144696
0.00140252
0.00135577
0.00130025
0.00124882
0.00123003
0.00123737
0.00123831
0.00130495
0.00134664
0.00140169
0.00116102
0.00106881
0.0241657
0.0152043
0.00152949
0.00105205
0.00167222
0.00160088
0.00152755
0.00145915
0.001412
0.00135671
0.00132977
0.00131202
0.00127065
0.00123577
0.00123207
0.00126509
0.00131624
0.00142953
0.00116991
0.00108047
0.0246159
0.0148157
0.00145348
0.00116507
0.00170745
0.00164716
0.00159462
0.00148384
0.00144088
0.00139161
0.00132798
0.00128758
0.0012659
0.00125474
0.00124067
0.00128568
0.00133416
0.0014168
0.00115909
0.00109364
0.0249119
0.0143778
0.00178007
0.00130693
0.00172218
0.00163261
0.001586
0.00150394
0.00144324
0.00139678
0.0013685
0.00133604
0.0012872
0.00125715
0.00124094
0.00124273
0.0012964
0.00142755
0.00115049
0.00110018
0.0251591
0.0139682
0.00190359
0.00140337
0.00176593
0.0016659
0.00162808
0.00152362
0.00147319
0.00142026
0.00135482
0.00132679
0.00130025
0.00127302
0.00124886
0.00126815
0.00130608
0.00140657
0.0011429
0.00111963
0.0252538
0.0134492
0.00259317
0.00145261
0.00177581
0.00165964
0.00162647
0.00154416
0.00147089
0.00143107
0.00139866
0.00135368
0.00130431
0.00127756
0.00124282
0.00121798
0.00126734
0.00139504
0.00111342
0.00112529
0.0253205
0.0130725
0.00256811
0.00152476
0.00179398
0.00169329
0.0016507
0.001565
0.00150604
0.00144642
0.00138368
0.00136702
0.0013348
0.00130217
0.00127255
0.00125745
0.00126975
0.00136749
0.00110162
0.00114715
0.025243
0.0126728
0.0028706
0.00154906
0.00177558
0.00168145
0.00165418
0.00157468
0.00149733
0.00146286
0.00142091
0.00136723
0.00132297
0.0012982
0.00125484
0.00121594
0.00124277
0.00133443
0.00105469
0.00115953
0.0251147
0.0123205
0.00293756
0.00163945
0.00179153
0.00170539
0.00166575
0.00160349
0.00153485
0.00147122
0.00141516
0.00140486
0.00136645
0.00133498
0.00130297
0.00126531
0.00125012
0.00130458
0.00101314
0.00117341
0.0248546
0.011862
0.00257102
0.00165492
0.00177119
0.00169089
0.0016653
0.00159762
0.00152388
0.00149067
0.00143474
0.001379
0.00134417
0.00131947
0.00127712
0.00124135
0.00124887
0.00127869
0.000941974
0.00116488
0.0245816
0.0113313
0.00283357
0.0017322
0.00180387
0.00171335
0.00167133
0.00163356
0.00155798
0.00149812
0.0014483
0.00143518
0.00139444
0.00136648
0.00133433
0.0013044
0.00129109
0.00129473
0.000923417
0.00112447
0.0241701
0.0102966
0.00257844
0.00171606
0.00177339
0.00170144
0.00166018
0.00161281
0.0015474
0.00151446
0.00145234
0.00140393
0.00138567
0.00136728
0.00134085
0.00135363
0.00136524
0.00132184
0.00110048
0.00131008
0.0069537
0.00530531
0.004334
0.003339
0.00296282
0.00241151
0.0020017
0.00162529
0.001392
0.0011496
0.000940335
0.000770429
0.00061605
0.000501071
0.000500881
0.000849183
0.00196788
0.00637128
0.0108688
0.015431
0.00689199
0.00527812
0.00432714
0.00332689
0.00301612
0.00243857
0.00203287
0.00164573
0.00140336
0.00115808
0.000941992
0.000776314
0.000622084
0.000505333
0.000497058
0.000845734
0.00193574
0.00637912
0.0108524
0.0154122
0.0070275
0.0053015
0.00418181
0.00327352
0.00295467
0.00236715
0.00198141
0.00160558
0.00137149
0.00113384
0.000917599
0.000756718
0.000600947
0.000486566
0.000477155
0.00081746
0.00191719
0.00636001
0.0108409
0.0154221
0.00706946
0.00525026
0.00436047
0.00327647
0.00300166
0.00240427
0.00201223
0.00163037
0.00138572
0.00114647
0.000923943
0.000766908
0.000612458
0.000492751
0.000459009
0.000806138
0.00187448
0.00635171
0.0108407
0.0154237
0.00726287
0.00527759
0.00438221
0.0032266
0.00293226
0.0023389
0.00196084
0.0015935
0.00135486
0.00112366
0.00090102
0.000748582
0.00059293
0.000476651
0.000443565
0.000774248
0.00184573
0.00634975
0.0108055
0.0154359
0.00725877
0.00521778
0.00437989
0.00324071
0.00297316
0.00238045
0.00199079
0.00162205
0.00137012
0.0011397
0.000910883
0.000761557
0.000606272
0.000483393
0.000427797
0.000762568
0.00180321
0.00631746
0.0108241
0.0154431
0.00744905
0.00526549
0.0043948
0.0031928
0.00290171
0.00232163
0.00194152
0.00158876
0.00134029
0.00111891
0.000890076
0.000744947
0.000588349
0.000471706
0.000411802
0.000731577
0.00176849
0.00630588
0.0107894
0.0154471
0.00736137
0.00518811
0.00438902
0.00321072
0.00293837
0.00236389
0.00197137
0.00161985
0.00135692
0.00113716
0.000902514
0.000758897
0.000602543
0.000485459
0.000404151
0.000713903
0.00170101
0.0062161
0.0107637
0.0154136
0.00755114
0.00523277
0.00439135
0.00316261
0.00286708
0.00230917
0.00192465
0.00159068
0.00132974
0.00111899
0.00088513
0.000744651
0.000586777
0.000481634
0.0003417
0.000673449
0.00165092
0.00621844
0.0108361
0.0154217
0.00742594
0.00513481
0.00438241
0.0031854
0.00289872
0.0023506
0.00195298
0.00162209
0.00134745
0.00113936
0.000900608
0.000760229
0.000600932
0.000499046
0.000419595
0.000629098
0.00158252
0.00614993
0.0108823
0.0154554
0.00762587
0.00515504
0.00436584
0.00313688
0.00282462
0.00230096
0.00190946
0.00159753
0.00132325
0.00112365
0.000887681
0.000749499
0.000588226
0.00048742
0.000306195
0.000625308
0.00152907
0.0061414
0.0108918
0.0155322
0.0074786
0.00503199
0.00434856
0.00316573
0.00284794
0.00234014
0.00193303
0.00162836
0.00134144
0.00114463
0.000905514
0.000766952
0.000602682
0.000492299
0.000366877
0.000605678
0.00143825
0.00610049
0.010891
0.0156867
0.00768397
0.00502061
0.00430877
0.0031144
0.00277107
0.00229663
0.00189275
0.0016076
0.00132017
0.00113154
0.000896895
0.000761039
0.000602329
0.000481924
0.00036981
0.000579134
0.00130769
0.00607524
0.0108867
0.0157625
0.00756393
0.004876
0.00428168
0.00314678
0.0027854
0.00233202
0.00191159
0.00163664
0.00133853
0.00115132
0.000916097
0.00078107
0.000627663
0.000513847
0.000431137
0.000557414
0.00121915
0.00603327
0.0108759
0.0159181
0.00776248
0.00482357
0.00420239
0.00309085
0.00270869
0.00229372
0.00187586
0.00161922
0.00132222
0.00114113
0.000911323
0.000778151
0.000629514
0.000504764
0.000421179
0.000516365
0.00111924
0.00598723
0.010851
0.0160137
0.00772935
0.00468709
0.00415662
0.00311665
0.00270926
0.00231803
0.00188697
0.00164125
0.00133833
0.00115701
0.000929121
0.000796344
0.000652302
0.000530077
0.000436024
0.000495082
0.00100618
0.0059325
0.0107688
0.0160829
0.00795982
0.00460384
0.00402802
0.003058
0.00263427
0.00228122
0.0018541
0.00162308
0.0013245
0.00114642
0.000923755
0.000791999
0.000652898
0.000526826
0.000429865
0.00046624
0.000893231
0.00584495
0.0107237
0.0161203
0.00794382
0.0045095
0.00398206
0.0030977
0.0026525
0.00231948
0.00188198
0.00165755
0.00135295
0.0011714
0.000948294
0.000815116
0.00068047
0.000565638
0.000458268
0.000457897
0.000778839
0.00582516
0.0107661
0.0160638
0.00799894
0.00447554
0.00375771
0.00301162
0.00256451
0.00226901
0.0018454
0.001636
0.00134281
0.00116243
0.000944665
0.000810749
0.000674225
0.000556743
0.000459937
0.000445327
0.000712537
0.00584315
0.0108281
0.0160671
0.00843682
0.00447188
0.00366418
0.00300194
0.00252775
0.00223163
0.00180541
0.00159911
0.00132129
0.00114037
0.000933951
0.000802959
0.000682902
0.00057537
0.000473802
0.00042571
0.000598801
0.00558646
0.0106643
0.0158023
0.0156507
0.047347
0.0357202
0.0326856
0.0271368
0.0245098
0.0195626
0.0170383
0.0140608
0.0120721
0.00979382
0.00823047
0.00689597
0.00595636
0.00520741
0.00491539
0.00294931
0.0530545
0.100832
0.146173
0.0416607
0.0298527
0.0234197
0.0204033
0.018185
0.0158473
0.0131982
0.0112495
0.00934371
0.00790003
0.00689399
0.00624271
0.00569006
0.00512059
0.0046769
0.00458147
0.0155139
0.0525038
0.0989544
0.143756
0.0201715
0.0169976
0.0175614
0.0147954
0.0131369
0.0115479
0.0103149
0.0095772
0.00862471
0.00803752
0.00739146
0.00703407
0.00647806
0.00606669
0.00544391
0.00504123
0.0105068
0.0490769
0.0974018
0.14406
0.0138369
0.0128512
0.010988
0.0112415
0.0100447
0.00963293
0.00875838
0.00809766
0.00747292
0.00700902
0.00637196
0.0057146
0.00500774
0.00462409
0.00438918
0.00371125
0.0120633
0.043152
0.0972422
0.140325
0.00887571
0.0087507
0.00928478
0.00807046
0.00748045
0.00691368
0.00660285
0.00631794
0.00596263
0.00574266
0.00541952
0.00529698
0.00508584
0.00477397
0.00463579
0.00427949
0.00666853
0.039894
0.0970216
0.139843
0.00646063
0.00609866
0.00519333
0.00599988
0.00597932
0.00599779
0.0056627
0.00564824
0.00531051
0.00522855
0.00490523
0.00476536
0.00451132
0.00452119
0.0041377
0.0033617
0.00857616
0.0325386
0.0971914
0.139393
0.0042265
0.00493781
0.00543272
0.00486843
0.00456683
0.00437746
0.0043654
0.00448696
0.0044614
0.00446
0.00435878
0.00438714
0.00421269
0.00419142
0.0040919
0.00355953
0.00380217
0.0281791
0.0974072
0.141807
0.00342763
0.00322672
0.00295119
0.00328855
0.00343918
0.00394718
0.00376893
0.00383938
0.00386527
0.00400852
0.00393503
0.00408939
0.00404248
0.00413014
0.00394742
0.00379866
0.00496039
0.0215059
0.0959945
0.14615
0.00235726
0.0027003
0.0029071
0.00315974
0.00305138
0.00295672
0.00317692
0.00333804
0.00335936
0.00356801
0.00358781
0.00377292
0.00373365
0.00401467
0.00392182
0.00405652
0.00377662
0.0153256
0.0933625
0.154193
0.00187388
0.00189033
0.00188858
0.00202036
0.002288
0.0025833
0.00266356
0.00291656
0.0029935
0.00323468
0.00329016
0.00365911
0.00369109
0.00417439
0.00419858
0.00479531
0.00361508
0.0108379
0.0841711
0.16476
0.00144005
0.00171524
0.00182685
0.00205244
0.00201911
0.00227231
0.00228604
0.0025406
0.00273683
0.00295922
0.00310193
0.00332196
0.00355082
0.00385875
0.00407668
0.00480018
0.00484988
0.00713029
0.0647991
0.177426
0.00119459
0.00127952
0.00132686
0.00148537
0.00156792
0.00196649
0.00216643
0.00229642
0.00237817
0.00262642
0.0028545
0.00304217
0.00339869
0.00346745
0.00413359
0.00407792
0.00557322
0.00980634
0.0425471
0.199637
0.00110187
0.00126842
0.00133951
0.00151388
0.00159006
0.00162013
0.00174338
0.00202094
0.00205654
0.00222735
0.00236196
0.00258766
0.00281772
0.00314881
0.00343852
0.00388511
0.00446338
0.007936
0.0215425
0.144698
0.000890881
0.000983817
0.00104003
0.00116797
0.00125432
0.00142158
0.00143611
0.00154812
0.00172037
0.00191546
0.0019908
0.00223058
0.0022742
0.00260119
0.00272237
0.00315842
0.00286369
0.00492159
0.0111366
0.0978453
0.00082166
0.000915205
0.00094978
0.00104798
0.00105314
0.00109835
0.00118509
0.00128532
0.00130521
0.00143898
0.00146494
0.00161632
0.00168312
0.00199765
0.001908
0.00222686
0.00261966
0.00373135
0.00575792
0.0521693
0.00067123
0.000731605
0.000758289
0.000812894
0.000868551
0.000968346
0.00092414
0.00105468
0.00107214
0.00119687
0.00113921
0.00129929
0.00124384
0.00137656
0.00132808
0.00163094
0.00129683
0.00154382
0.00207342
0.0319161
0.00065401
0.000670264
0.000677716
0.000708392
0.00071194
0.000752115
0.000814603
0.000752395
0.000738289
0.000774346
0.000769761
0.000795607
0.000834875
0.000878276
0.00097692
0.000921623
0.00117066
0.00112432
0.000967363
0.0153454
0.000549793
0.000537447
0.000518899
0.000519419
0.000503027
0.000508482
0.000483893
0.000549443
0.000530921
0.000558251
0.000527746
0.000539839
0.000546027
0.000563332
0.000503101
0.000613236
0.000574526
0.000510191
0.000848678
0.00600894
0.000396352
0.000424981
0.000413359
0.000398668
0.000380135
0.000354123
0.000255772
0.000285261
0.00025784
0.000232405
0.000272435
0.000287933
0.000303756
0.000300988
0.000347081
0.000303545
0.000305092
0.000295198
0.000254486
0.00312239
0.000270716
0.000236547
0.000222677
0.000206115
0.000182179
0.000172009
0.000142754
0.00014948
0.000117893
0.000129615
0.000157763
0.000198702
0.000213541
0.000238619
0.000253786
0.00026214
0.000262672
0.000273611
0.000160906
9.2375e-05
0.0144248
0.0144819
0.0145925
0.0147782
0.0148967
0.0150843
0.015136
0.0151987
0.0148984
0.0144054
0.0145984
0.0138276
0.0143015
0.0130728
0.0134503
0.0124371
0.0124694
0.0115258
0.0114514
0.0124302
0.00710651
0.00710679
0.00712987
0.00708194
0.0072791
0.00688255
0.00772301
0.00807168
0.00724952
0.00754168
0.00734498
0.00742382
0.00728069
0.00632081
0.00803413
0.00738666
0.00718194
0.00661084
0.00676934
0.00850168
0.0043331
0.00441103
0.00445116
0.00463385
0.00470553
0.00486077
0.00510073
0.00489247
0.00532152
0.00576294
0.0053346
0.00468095
0.00427831
0.00388601
0.00369189
0.00402203
0.00421679
0.00453974
0.00496996
0.00540841
0.00284052
0.00287817
0.00287914
0.00292587
0.00285539
0.00292396
0.00282068
0.00292448
0.00270033
0.00333246
0.00308883
0.00266272
0.00289025
0.00306985
0.00305028
0.00285843
0.00231315
0.00328305
0.00302092
0.00308235
0.00170838
0.00173009
0.00173948
0.0017558
0.00174462
0.00179857
0.00187124
0.00210931
0.00210066
0.00256288
0.002384
0.00199451
0.00148798
0.00131505
0.00130882
0.00153211
0.0012965
0.00109981
0.00132826
0.00165678
0.00126027
0.00127803
0.00126355
0.00123949
0.00121863
0.00123966
0.00129565
0.00138152
0.00126436
0.00121538
0.00133886
0.00130945
0.00131209
0.00129661
0.000928942
0.00088823
0.000946311
0.00120031
0.00125261
0.00154844
0.000735588
0.000728192
0.000715132
0.000727951
0.000736601
0.000793746
0.000871994
0.000996611
0.0010085
0.000910071
0.000836613
0.000883829
0.000830292
0.000767945
0.000791055
0.000698566
0.000496423
0.000545073
0.000626879
0.00074893
0.000527222
0.00052048
0.000522394
0.00051922
0.000522089
0.000537159
0.000569588
0.000580667
0.000577049
0.000510291
0.000474676
0.000570628
0.000575759
0.000593635
0.000606804
0.000627022
0.000652251
0.000677785
0.000658347
0.000792886
0.000332296
0.000348841
0.000347808
0.000334617
0.00034827
0.000368906
0.000396452
0.000399601
0.000407992
0.000408057
0.000410048
0.000370261
0.00038662
0.000425797
0.000439359
0.00045162
0.000436084
0.000440653
0.000377786
0.000460533
0.000219937
0.000219047
0.000212301
0.000212221
0.000259274
0.000292661
0.000305839
0.000302276
0.000310872
0.000319027
0.000330344
0.000335039
0.000346829
0.000352349
0.000364855
0.000374929
0.000377401
0.00039029
0.000396412
0.000432177
0.000168131
0.000171202
0.000177899
0.000184546
0.000185648
0.000182813
0.000186328
0.000192621
0.000202245
0.000209749
0.000219071
0.000219801
0.000227865
0.000242972
0.000257447
0.000268082
0.000272518
0.000280468
0.000279972
0.000286266
0.000132207
0.000140231
0.000152302
0.000164044
0.000173184
0.000181872
0.000186323
0.000186826
0.000194696
0.000207507
0.000224523
0.000231315
0.00023129
0.000221746
0.000229033
0.000218686
0.00022037
0.000213476
0.00020364
0.000265286
0.000116195
0.0001217
0.000129584
0.00013785
0.000144201
0.000148737
0.000157561
0.000163994
0.000166903
0.000156247
0.000158125
0.000166908
0.000179115
0.000187258
0.000201329
0.000205346
0.000214253
0.000215968
0.000228791
0.000251684
0.000137813
0.000145059
0.000140124
0.000138316
0.000141575
0.000148253
0.000158802
0.000165626
0.000168632
0.000173177
0.000167261
0.000164156
0.000167776
0.000169949
0.000177914
0.000184009
0.000189171
0.000188281
0.000192619
0.000205409
0.000114315
0.000112504
0.0001207
0.000127174
0.000130369
0.000133571
0.000136914
0.000140829
0.000146585
0.00015489
0.000162769
0.000162456
0.000165456
0.000163969
0.000159846
0.000160681
0.000169166
0.000173231
0.00018148
0.000193408
0.000151846
0.000157004
0.000150849
0.000146872
0.000145492
0.000142378
0.00013455
0.00012967
0.000129951
0.000126978
0.000128636
0.000135769
0.000140202
0.000145641
0.000147861
0.000148782
0.00014946
0.00014983
0.000154462
0.000160552
0.000118027
0.000116807
0.000122327
0.000128197
0.000132385
0.000137244
0.000147937
0.000154977
0.000153848
0.000155883
0.000154138
0.000150601
0.000149982
0.000151779
0.000156401
0.000158151
0.000154393
0.000150626
0.000147647
0.000156267
0.000137436
0.000138297
0.000136315
0.000132863
0.000130801
0.00012831
0.000119836
0.000114845
0.000118122
0.000118363
0.000122005
0.000127639
0.000126386
0.000123931
0.000119465
0.000118011
0.000125435
0.000137179
0.000135834
0.000135947
0.000121446
0.000121072
0.000121503
0.000121956
0.000121457
0.000122344
0.000126058
0.00012734
0.000122778
0.000120944
0.000117759
0.000114126
0.000111906
0.000110809
0.000109402
0.000108787
0.000101063
9.54322e-05
9.29474e-05
9.79157e-05
8.64764e-05
8.57049e-05
8.39006e-05
8.38737e-05
8.25423e-05
8.16755e-05
7.97191e-05
8.06118e-05
8.10752e-05
8.05865e-05
8.00689e-05
7.85254e-05
7.88093e-05
7.76001e-05
7.66555e-05
7.65099e-05
7.64487e-05
7.41854e-05
7.2924e-05
7.17244e-05
0.00092662
0.00107505
0.000786295
0.000877943
0.000908132
0.000899943
0.000935112
0.000963059
0.000990134
0.00101943
0.0010593
0.00108824
0.00113216
0.00116783
0.00125996
0.00124162
0.00135727
0.00111768
0.00390898
0.0161351
0.000894119
0.00101672
0.000810828
0.000876971
0.000897311
0.000928918
0.000966419
0.000996629
0.00103865
0.00108181
0.00111419
0.0011426
0.00118983
0.0012091
0.00127245
0.00126001
0.00137145
0.0011513
0.00328696
0.0157387
0.00093407
0.00103295
0.000769044
0.000828522
0.000887806
0.000940176
0.000966076
0.00100606
0.00103712
0.00106977
0.00110236
0.00114094
0.00117565
0.00121326
0.00128937
0.0012886
0.00139184
0.00124095
0.00440512
0.0151176
0.000942635
0.00103133
0.000793435
0.000935063
0.0010034
0.000984902
0.0010038
0.00103723
0.00107233
0.0011116
0.00114369
0.00117679
0.00121179
0.00124606
0.00131145
0.001313
0.0014584
0.0013772
0.00439195
0.014544
0.00102387
0.00106414
0.000842275
0.000927983
0.000901798
0.00091462
0.00095792
0.00100448
0.00102899
0.00106257
0.0011009
0.00113999
0.00117558
0.00123279
0.00129826
0.00133852
0.00146563
0.00139575
0.00424979
0.0138122
0.000929678
0.000969589
0.000807971
0.000874562
0.00092013
0.000986769
0.001028
0.00104974
0.00106252
0.00111273
0.00114084
0.00117513
0.00120854
0.00127191
0.0013295
0.00138479
0.00152354
0.001456
0.00337064
0.0129399
0.000986565
0.00102431
0.000861699
0.000919796
0.000948047
0.000949267
0.00094327
0.000962814
0.00100241
0.00106558
0.00109548
0.00113468
0.00118577
0.00125891
0.00130599
0.0013983
0.00143812
0.00143528
0.0024847
0.0101582
0.000917871
0.000950486
0.000812865
0.000871472
0.000899636
0.00093063
0.000983811
0.00106584
0.0011301
0.00117113
0.00114989
0.00118983
0.00125104
0.00131809
0.00137522
0.00143805
0.00145796
0.00150002
0.00208539
0.00812328
0.000988296
0.00100118
0.000886468
0.000945176
0.000972301
0.00100675
0.00104722
0.00106817
0.0010593
0.00105324
0.00108084
0.00119667
0.00126203
0.00131031
0.00132418
0.00136564
0.00136387
0.00142105
0.00173561
0.00631403
0.000935613
0.000931925
0.000845134
0.000890362
0.000911532
0.000946667
0.000976175
0.000999171
0.00103802
0.00111717
0.0012178
0.00130907
0.0012881
0.00130315
0.00132916
0.00140536
0.00140858
0.00147079
0.00161309
0.00526193
0.000949457
0.000952329
0.000889916
0.000949303
0.000994796
0.00104838
0.00106621
0.00109793
0.00114485
0.00116513
0.00117095
0.00114318
0.00110315
0.00117254
0.00126697
0.00132956
0.0013251
0.00147653
0.00154955
0.00447156
0.000902124
0.000913103
0.000881496
0.000931244
0.000972712
0.00098449
0.000979116
0.00101654
0.00102102
0.00104407
0.00108996
0.00113755
0.00123628
0.00140857
0.00143395
0.00139756
0.00142976
0.00161876
0.00164921
0.00416816
0.00092628
0.000963483
0.000928502
0.000970338
0.000998488
0.000995336
0.00103316
0.00107468
0.0011051
0.00118751
0.00122714
0.00126432
0.00130866
0.00130486
0.00119694
0.00125613
0.00138101
0.00150733
0.00153014
0.00386277
0.000926828
0.000962224
0.000916877
0.000963029
0.000982738
0.00100981
0.00106316
0.00109574
0.00115295
0.00118692
0.00118232
0.00122683
0.00125769
0.00126468
0.00131192
0.0015021
0.00161822
0.00148539
0.00142923
0.0039006
0.000927591
0.000948018
0.000902777
0.000959658
0.000983879
0.00102623
0.00106005
0.00109808
0.00112994
0.0011478
0.001192
0.00125769
0.00128934
0.00135155
0.00147572
0.00157457
0.00140473
0.00137127
0.00152426
0.00326451
0.000907533
0.000932281
0.000921012
0.000975041
0.00101705
0.00104795
0.00108227
0.00111183
0.00113577
0.00117448
0.00120844
0.00125741
0.0012611
0.00136753
0.00132961
0.00140349
0.00138274
0.00164007
0.00187712
0.00193558
0.000932273
0.000972858
0.000954968
0.00101546
0.00104127
0.00107457
0.00109551
0.00114112
0.0011638
0.0012248
0.00125366
0.00130625
0.00133467
0.00138929
0.00138041
0.00143805
0.00148876
0.00164478
0.00167803
0.00100507
0.000937325
0.000971291
0.000954464
0.00100139
0.00103034
0.00105553
0.00109283
0.00112677
0.00116819
0.00120295
0.00123022
0.00127924
0.00130584
0.00135334
0.00143358
0.00150965
0.0015707
0.00160167
0.00167179
0.00189905
0.000953156
0.000988571
0.000977723
0.0010351
0.00106131
0.0010933
0.00112225
0.00115036
0.00118968
0.0012198
0.00126872
0.00131529
0.00136941
0.00140655
0.00142461
0.00143455
0.00157577
0.00158016
0.00162302
0.00280722
0.000953608
0.000976428
0.000963918
0.00101371
0.00104852
0.0010766
0.00111345
0.00114698
0.00117219
0.00123244
0.0012615
0.00129321
0.00136084
0.00138381
0.00147041
0.00147506
0.00149023
0.00155482
0.00172952
0.00403624
0.000208399
0.000124443
0.000102896
0.000206599
0.000270028
0.000224809
0.000215387
0.000148547
0.000219978
0.000260346
0.00018476
0.000114397
0.000407668
0.00168565
0.00468465
0.00862512
0.00954344
0.00581972
0.00054025
0.000457811
0.000258025
0.000170481
0.00016662
0.000157002
0.000227147
0.000221556
0.000229739
0.000242085
0.00019555
0.000237717
0.000276518
0.000186902
0.000112946
0.000634096
0.00251831
0.00631057
0.00980555
0.00833511
0.00373545
4.92785e-25
0.00029296
0.000164802
0.000157862
0.000187933
0.000264288
0.000246179
0.000220642
0.000212574
0.00026539
0.000239448
0.00027087
0.000272146
0.00015017
9.11918e-05
0.00109147
0.0041994
0.0085431
0.00984646
0.00624326
0.000236697
0.000365632
0.000227848
0.000184447
0.000121867
0.000225251
0.000294844
0.000287741
0.000248939
0.000235195
0.000273035
0.000288834
0.000313736
0.000283559
7.032e-05
0.000210605
0.00211132
0.00668071
0.0103316
0.00842239
0.00149991
0.000415581
0.000312168
0.000257595
0.000200053
0.000221877
0.000252801
0.000296584
0.000299546
0.000309334
0.000278892
0.000307531
0.000353341
0.000338396
0.000288885
0.000153613
0.000812936
0.00499782
0.00990316
0.00942224
0.00393807
0.000489354
0.000389697
0.000282412
0.000195403
0.000276892
0.000319508
0.000331568
0.00030367
0.000317798
0.000350302
0.000343977
0.000378619
0.000428979
0.00036562
0.000217132
0.000185443
0.0027767
0.00872849
0.0105349
0.00614071
0.000526383
0.000502267
0.000410243
0.000255626
0.000274417
0.000300186
0.000383791
0.000388805
0.000371612
0.000359869
0.000400652
0.000434073
0.000459283
0.000482772
0.000381553
0.000183887
0.00113534
0.00768345
0.0109896
0.00791438
0.000537488
0.000518596
0.000450668
0.000303197
0.000363554
0.000366685
0.000387306
0.000397236
0.000424159
0.000441344
0.000437669
0.000502188
0.000507867
0.000538644
0.000535411
0.000268515
0.000438275
0.00607638
0.0110962
0.0101023
0.000559535
0.000576921
0.00053948
0.000346576
0.000361868
0.000391919
0.000469408
0.000474931
0.000455687
0.000463391
0.000513739
0.000552324
0.000590859
0.000619458
0.000610382
0.000500687
0.000280823
0.0042144
0.0110324
0.0120114
0.000568701
0.000576543
0.000567976
0.000417387
0.000462228
0.000457467
0.000471925
0.000504567
0.000534068
0.000542844
0.000550157
0.000625974
0.000638066
0.000658982
0.000728425
0.000668196
0.000212844
0.00254876
0.0107315
0.0140302
0.000583577
0.000595257
0.000619738
0.000448203
0.000466676
0.000503894
0.000564776
0.000570844
0.00056018
0.000579432
0.00063698
0.000681822
0.000719827
0.000740951
0.000753432
0.000787962
0.00026093
0.00170069
0.0103279
0.0147164
0.00060815
0.000599819
0.00063866
0.000511299
0.000554722
0.000562247
0.000569534
0.000607925
0.000640045
0.000650542
0.000672059
0.000745976
0.00075377
0.000783553
0.000838408
0.00088338
0.000517628
0.000986111
0.00996453
0.0155431