/*--------------------------------*- C++ -*----------------------------------*\
  =========                 |
  \\      /  F ield         | OpenFOAM: The Open Source CFD Toolbox
   \\    /   O peration     | Website:  https://openfoam.org
    \\  /    A nd           | Version:  9
     \\/     M anipulation  |
\*---------------------------------------------------------------------------*/
FoamFile
{
    format      ascii;
    class       volScalarField;
    location    "15";
    object      p;
}
// * * * * * * * * * * * * * * * * * * * * * * * * * * * * * * * * * * * * * //

dimensions      [0 2 -2 0 0 0 0];

internalField   nonuniform List<scalar> 
46400
(
-198.67
-187.851
-166.893
-148.681
-131.736
-116.229
-102.01
-88.8367
-76.7491
-65.5039
-55.1113
-45.3777
-36.2595
-27.6598
-19.5006
-11.7105
-4.38132
3.30023
10.9295
14.5333
-158.952
-148.297
-128.57
-111.611
-96.0461
-81.7406
-68.7387
-56.6519
-45.6099
-35.3593
-25.884
-17.0929
-8.92147
-1.32093
5.79401
12.4196
18.5693
24.6727
30.3245
32.7843
-118.9
-107.938
-89.7158
-74.187
-59.9995
-46.9319
-35.1156
-24.1973
-14.2433
-5.05973
3.3834
11.1966
18.4462
25.1619
31.3963
37.1789
42.4281
47.6587
52.0228
53.1848
-78.4431
-68.291
-51.8246
-37.6205
-24.8935
-13.0621
-2.45081
7.38856
16.3009
24.4972
31.994
38.872
45.1835
50.9924
56.3525
61.2605
65.75
70.1359
73.9932
74.7958
-38.0822
-28.8154
-14.1148
-1.26855
10.138
20.7303
30.1932
38.8909
46.7704
53.9659
60.5315
66.5272
72.0375
77.0543
81.6731
85.8719
89.6293
93.3616
96.5275
96.8888
0.984102
8.41507
21.4809
33.2708
43.5183
53.0615
61.5029
69.2459
76.1832
82.4676
88.1457
93.2681
97.9044
102.113
105.939
109.387
112.5
115.582
118.089
118.147
37.8817
44.4407
56.7077
67.4129
76.6211
85.0751
92.48
99.1867
105.189
110.581
115.433
119.786
123.708
127.207
130.355
133.126
135.539
137.937
139.785
139.327
72.7852
79.3963
90.6099
100.31
108.361
115.784
122.187
127.919
132.992
137.486
141.492
145.034
148.192
150.997
153.514
155.746
157.713
159.606
161.273
160.647
107.737
114.952
124.422
132.878
139.731
145.935
151.299
156.003
160.15
163.785
166.982
169.787
172.243
174.354
176.194
177.777
179.091
180.433
181.602
180.835
141.432
149.16
156.671
163.758
169.438
174.477
178.783
182.491
185.695
188.437
190.814
192.828
194.578
196.06
197.344
198.396
199.232
200.019
200.692
199.66
174.472
182.288
187.982
193.454
197.962
201.83
205.156
207.919
210.273
212.203
213.811
215.08
216.093
216.853
217.438
217.835
218.061
218.299
218.409
217.11
205.744
211.964
216.73
220.811
224.274
227.107
229.492
231.412
232.975
234.169
235.106
235.772
236.242
236.507
236.6
236.527
236.296
236.051
235.705
234.116
234.585
239.311
242.974
245.954
248.456
250.424
251.988
253.113
253.952
254.456
254.702
254.692
254.5
254.12
253.619
252.972
252.208
251.437
250.579
248.741
259.815
263.643
266.569
268.756
270.493
271.695
272.582
273.058
273.266
273.19
272.951
272.502
271.904
271.142
270.271
269.283
268.194
267.111
266.013
263.952
282.585
285.686
287.874
289.302
290.387
290.967
291.207
291.086
290.68
290.007
289.126
288.083
286.907
285.611
284.228
282.754
281.208
279.677
278.114
275.968
302.605
305.001
306.604
307.476
307.952
307.985
307.743
307.2
306.434
305.443
304.26
302.901
301.395
299.776
298.055
296.26
294.374
292.49
290.565
288.058
320.937
322.646
323.713
323.91
323.829
323.262
322.409
321.28
319.956
318.47
316.832
315.086
313.232
311.296
309.285
307.219
305.095
302.98
300.884
298.299
336.02
337.115
337.757
337.648
337.245
336.41
335.307
333.937
332.32
330.544
328.595
326.545
324.382
322.158
319.868
317.532
315.151
312.782
310.465
307.708
350.071
350.292
350.281
349.614
348.665
347.365
345.831
344.067
342.15
340.066
337.879
335.586
333.225
330.797
328.331
325.832
323.29
320.763
318.299
315.441
360.381
360.301
359.913
359.084
357.971
356.514
354.767
352.846
350.696
348.444
346.033
343.552
340.976
338.359
335.698
333.02
330.317
327.633
325.063
322.073
-593.865
-592.919
-581.121
-561.838
-539.248
-517.801
-497.914
-479.036
-461.106
-444.146
-428.035
-412.648
-398.035
-384.043
-370.764
-357.957
-345.967
-334.382
-323.635
-313.358
-606.668
-605.386
-588.732
-566.976
-542.736
-519.935
-498.74
-478.887
-460.175
-442.495
-425.712
-409.827
-394.687
-380.277
-366.631
-353.526
-341.309
-329.481
-318.612
-308.108
-615.442
-612.424
-591.37
-567.819
-543.072
-519.541
-497.46
-476.807
-457.343
-439.004
-421.676
-405.233
-389.695
-374.928
-360.954
-347.583
-335.117
-323.084
-312.077
-301.401
-619.312
-614.448
-594.274
-567.682
-541.605
-517.129
-494.318
-472.944
-452.91
-434.081
-416.292
-399.529
-383.633
-368.582
-354.366
-340.811
-328.228
-316.046
-304.974
-294.109
-619.917
-613.67
-590.102
-563.015
-536.529
-511.527
-488.343
-466.613
-446.186
-427.01
-408.947
-391.868
-375.779
-360.559
-346.18
-332.52
-319.813
-307.483
-296.555
-285.526
-614.283
-609.105
-585.58
-556.535
-529.815
-504.318
-480.602
-458.449
-437.676
-418.212
-399.891
-382.677
-366.418
-351.074
-336.611
-322.921
-310.183
-297.932
-287.07
-276.074
-607.268
-602.009
-578.028
-547.752
-519.815
-493.943
-469.936
-447.577
-426.655
-407.091
-388.728
-371.424
-355.179
-339.859
-325.417
-311.768
-299.03
-286.838
-275.963
-264.931
-596.553
-590.325
-564.975
-534.642
-506.861
-480.853
-456.777
-434.418
-413.47
-393.916
-375.572
-358.36
-342.16
-326.91
-312.564
-299.045
-286.439
-274.401
-263.731
-252.743
-581.628
-574.471
-548.681
-518.402
-490.571
-464.828
-440.859
-418.649
-397.885
-378.483
-360.328
-343.261
-327.278
-312.229
-298.072
-284.747
-272.271
-260.416
-249.896
-238.979
-563.328
-555.368
-528.896
-498.971
-471.54
-446.052
-422.394
-400.486
-379.999
-360.896
-343.022
-326.271
-310.545
-295.772
-281.898
-268.858
-256.656
-245.095
-234.856
-224.069
-541.41
-532.591
-506.069
-476.647
-449.649
-424.76
-401.518
-380.039
-359.994
-341.268
-323.785
-307.378
-292.047
-277.626
-264.094
-251.396
-239.469
-228.23
-218.255
-207.659
-516.492
-507.16
-480.548
-451.602
-425.204
-400.891
-378.235
-357.309
-337.788
-319.599
-302.619
-286.719
-271.83
-257.867
-244.776
-232.494
-220.967
-210.141
-200.516
-190.126
-488.446
-478.636
-452.155
-424.251
-398.45
-374.979
-353.012
-332.703
-313.813
-296.163
-279.722
-264.321
-249.958
-236.466
-223.847
-212.027
-200.897
-190.512
-181.225
-171.113
-458.013
-448.024
-421.313
-394.683
-369.655
-346.86
-325.696
-306.134
-287.94
-271.013
-255.238
-240.481
-226.695
-213.793
-201.72
-190.417
-179.791
-169.906
-161.021
-151.177
-425.003
-414.811
-388.304
-362.93
-338.988
-317.137
-296.806
-278.019
-260.586
-244.302
-229.179
-215.035
-201.869
-189.523
-178.017
-167.248
-157.104
-147.739
-139.231
-129.697
-390.294
-380.017
-353.806
-329.499
-306.668
-285.759
-266.385
-248.484
-231.882
-216.445
-202.073
-188.643
-176.121
-164.424
-153.505
-143.301
-133.713
-124.881
-116.79
-107.546
-353.711
-343.278
-318.017
-294.811
-273.137
-253.269
-234.811
-217.759
-201.985
-187.259
-173.625
-160.89
-149.049
-137.971
-127.68
-118.051
-109.014
-100.777
-93.1618
-84.3422
-316.02
-305.602
-281.32
-259.185
-238.632
-219.814
-202.402
-186.299
-171.426
-157.595
-144.735
-132.735
-121.561
-111.155
-101.474
-92.4375
-84.0039
-76.4055
-69.3747
-60.8838
-277.378
-266.824
-243.683
-222.795
-203.356
-185.577
-169.116
-153.886
-139.847
-126.75
-114.645
-103.329
-92.7914
-82.9396
-73.7714
-65.1386
-57.1492
-50.0453
-43.1087
-34.2324
-238.341
-227.755
-205.655
-186.003
-167.783
-151.135
-135.811
-121.581
-108.478
-96.2549
-84.8544
-74.1686
-64.1398
-54.7063
-45.7532
-37.2151
-29.2615
-21.6482
-13.2595
-4.39911
-263.646
-207.505
-157.218
-125.681
-94.9238
-74.5972
-55.7574
-41.5224
-29.559
-19.2079
-11.3753
-3.78585
1.50413
7.08772
10.7647
14.7861
17.4939
19.7129
20.783
21.1943
-258.063
-202.848
-152.687
-122.226
-91.8376
-72.0999
-53.6013
-39.6544
-27.9541
-17.7855
-10.1354
-2.67763
2.48025
7.96327
11.506
15.4703
17.9574
20.2302
21.1054
21.5465
-251.043
-197.702
-148.174
-118.766
-88.797
-69.5457
-51.4324
-37.7502
-26.3308
-16.3384
-8.87485
-1.5562
3.46909
8.8398
12.2513
16.1541
18.4502
20.7862
21.4987
21.9697
-244.053
-192.367
-143.299
-114.866
-85.5267
-66.811
-49.1386
-35.7252
-24.6078
-14.7992
-7.53197
-0.35349
4.5389
9.78943
13.0716
16.9
19.0075
21.427
21.9136
22.4147
-235.784
-186.26
-138.365
-111.001
-82.2878
-64.0247
-46.8284
-33.6654
-22.864
-13.2347
-6.16642
0.86281
5.61896
10.7439
13.8997
17.6464
19.6097
22.0649
22.3416
22.8743
-227.419
-179.951
-133.057
-106.715
-78.8096
-61.0647
-44.3914
-31.4893
-21.0224
-11.5826
-4.72084
2.15854
6.78004
11.7703
14.8003
18.4515
20.2626
22.6881
22.8119
23.3806
-217.829
-172.864
-127.641
-102.444
-75.3568
-58.0534
-41.9359
-29.2801
-19.1572
-9.90546
-3.25124
3.46837
7.9501
12.8066
15.7116
19.2619
20.9517
23.3094
23.3122
23.9127
-207.99
-165.598
-121.85
-97.7737
-71.6689
-54.8753
-39.3561
-26.9609
-17.1972
-8.14578
-1.70438
4.85471
9.19696
13.916
16.6893
20.1287
21.6831
23.9606
23.8683
24.4874
-196.903
-157.579
-115.927
-93.102
-67.9982
-51.6492
-36.755
-24.6113
-15.211
-6.36234
-0.13298
6.25583
10.4552
15.0341
17.6807
21.0135
22.4486
24.6531
24.4911
25.1119
-185.462
-149.383
-109.633
-88.0494
-64.1048
-48.2646
-34.0337
-22.1601
-13.1338
-4.50192
1.51224
7.72981
11.7889
16.2169
18.7504
21.9449
23.2521
25.3625
25.1835
25.781
-172.734
-140.497
-103.215
-82.9868
-60.2204
-44.839
-31.2886
-19.6823
-11.0283
-2.61948
3.18154
9.21922
13.1372
17.4243
19.8022
22.894
24.0971
26.1161
25.9438
26.5031
-159.577
-131.425
-96.4374
-77.5636
-56.1316
-41.2694
-28.4308
-17.1144
-8.83778
-0.666794
4.91946
10.7758
14.5495
18.702
20.9464
23.8811
24.9376
26.8834
26.7517
27.2623
-145.098
-121.731
-89.5623
-72.1129
-52.0341
-37.6611
-25.5427
-14.5219
-6.61624
1.30689
6.68087
12.3475
15.9811
19.9795
22.0756
24.9035
25.7825
27.6649
27.5792
28.0472
-130.138
-111.865
-82.383
-66.3401
-47.7524
-33.9253
-22.547
-11.8476
-4.31295
3.34705
8.50712
13.9828
17.4752
21.3329
23.3092
25.9695
26.6862
28.461
28.3832
28.8459
-113.725
-101.412
-75.2098
-60.5934
-43.4933
-30.1936
-19.5446
-9.17153
-1.99116
5.39788
10.3485
15.6274
18.9865
22.6813
24.522
27.0663
27.6129
29.2699
29.1462
29.6409
-96.5481
-90.4655
-67.6396
-54.4905
-39.0271
-26.3409
-16.4425
-6.43096
0.397725
7.50086
12.2401
17.3222
20.5493
24.1034
25.8157
28.2001
28.5707
30.0661
29.8311
30.4492
-78.7344
-79.1377
-59.9608
-48.1656
-34.3342
-22.3003
-13.1747
-3.5716
2.89229
9.67974
14.1954
19.0642
22.1555
25.541
27.1299
29.3889
29.6041
30.8559
30.4253
31.208
-60.6822
-68.3243
-52.8391
-42.2453
-29.879
-18.4215
-9.98075
-0.74714
5.39913
11.8865
16.1867
20.8509
23.8115
27.0574
28.5079
30.6254
30.6754
31.8558
31.093
32.0535
-36.6696
-55.6918
-46.3505
-37.3198
-26.2901
-15.3794
-7.47217
1.50448
7.48821
13.752
17.9018
22.4131
25.2983
28.4215
29.7555
31.728
31.6769
32.516
31.4346
32.6794
-11.7753
-37.6254
-35.0478
-28.2258
-19.8004
-10.2314
-3.40476
4.83496
10.3455
16.1685
20.0415
24.2987
27.0596
30.0183
31.2455
33.0422
32.9136
32.5877
31.0961
33.5321
40.9932
56.5251
45.946
44.4905
37.3777
38.7255
36.0845
37.1733
36.8605
38.4003
39.0449
40.4166
41.0635
42.4439
42.8274
44.3176
43.4071
44.701
42.7448
47.7939
124.193
116.632
91.4322
85.137
73.9038
68.8363
63.2736
60.3022
57.2882
55.746
54.4805
54.1682
53.7263
53.7412
53.3757
53.4584
52.8448
53.2602
52.3621
53.3564
150.185
137.34
123.362
113.756
104.6
98.362
92.3007
88.5508
84.6506
82.1747
79.3526
77.6441
75.9264
74.8484
73.853
73.0108
72.6838
71.8638
72.085
72.0504
164.48
154.42
141.848
133.255
123.813
117.282
110.595
105.515
100.685
96.8964
93.4482
90.4961
87.8041
85.5892
83.776
82.2209
80.9876
80.0637
79.57
79.2972
162.981
154.924
147.011
140.2
133.633
127.876
122.606
118.106
113.945
110.501
107.212
104.637
102.067
99.9165
97.8833
96.053
94.5372
92.6301
91.7208
91.4333
167.736
161.954
154.732
149.376
143.228
138.412
133.162
128.99
124.592
121.082
117.486
114.501
111.547
109.056
106.626
104.451
102.628
100.813
99.8273
99.2482
164.783
160.592
156.401
151.954
147.684
143.629
139.756
136.207
132.753
129.704
126.63
124.04
121.273
119.011
116.487
114.4
112.077
110.021
108.503
107.772
167.762
164.246
160.127
156.563
152.864
149.581
146.014
143.01
139.71
136.984
133.967
131.502
128.697
126.469
123.776
121.66
118.939
116.875
114.591
113.837
166.815
164.581
161.941
159.304
156.272
153.698
150.888
148.455
145.847
143.608
141.146
139.093
136.686
134.774
132.277
130.413
127.577
125.662
122.937
122.061
168.869
166.818
164.169
162.092
159.61
157.586
155.222
153.261
151.031
149.169
147.06
145.325
143.262
141.629
139.402
137.87
134.93
133.766
129.848
129.386
169.842
168.371
166.564
164.945
163.059
161.417
159.647
158.11
156.482
155.078
153.579
152.295
150.871
149.679
148.2
147.101
144.991
144.519
140.774
142.636
171.095
169.832
168.228
167.013
165.509
164.327
162.931
161.834
160.591
159.614
158.627
157.79
157.13
156.4
156.165
155.426
155.726
154.963
155.689
157.607
172.694
171.791
170.603
169.666
168.568
167.713
166.754
166.048
165.282
164.795
164.236
164.023
163.789
163.862
164.138
164.519
165.754
166.266
169.37
169.278
173.835
173.053
172.09
171.368
170.504
169.891
169.166
168.721
168.185
168.003
167.679
167.842
167.807
168.426
168.889
170.065
171.294
173.259
175.965
177.797
175.274
174.677
173.938
173.412
172.783
172.384
171.896
171.688
171.385
171.418
171.375
171.753
172.009
172.881
173.395
174.95
176.122
178.256
179.869
183.457
176.185
175.661
175.061
174.624
174.136
173.832
173.478
173.354
173.159
173.27
173.248
173.669
173.811
174.618
174.991
176.386
176.788
179.001
179.819
187.836
177.18
176.737
176.253
175.894
175.521
175.288
175.047
174.976
174.91
175.042
175.19
175.554
175.918
176.607
177.209
178.225
178.954
180.495
180.976
183.839
177.774
177.38
176.987
176.695
176.369
176.2
175.982
175.93
175.866
176.057
176.073
176.482
176.621
177.195
177.473
178.206
178.588
179.567
179.887
186.744
178.241
177.858
177.488
177.208
176.99
176.814
176.703
176.646
176.621
176.687
176.834
177.033
177.274
177.665
177.969
178.517
178.803
179.429
179.609
180.634
178.439
178.065
177.72
177.443
177.191
177.038
176.919
176.922
176.848
176.98
177.05
177.291
177.48
177.83
178.108
178.558
178.863
179.417
179.636
185
287.832
283.548
278.704
272.935
266.799
259.436
251.81
243.164
233.51
223.216
212.495
200.447
188.399
174.7
160.883
145.786
130.437
114.33
98.1294
81.7837
260.649
258.105
255.434
252.206
249.054
245.046
241.538
236.661
230.539
225.674
220.235
215.007
209.7
203.882
198.476
192.039
184.165
175.363
165.927
155.37
224.68
223.041
221.074
219.18
216.921
214.649
212.063
209.209
206.064
202.336
197.795
193.572
189.527
185.743
182.303
179.025
175.258
171.632
167.544
163.674
212.432
211.218
209.879
208.565
207.024
205.605
203.811
202.245
200.186
198.545
196.023
193.334
191.141
188.709
186.296
183.893
181.428
179.075
176.189
173.691
197.128
196.152
195.12
194.06
192.941
191.82
190.564
189.37
187.836
186.479
184.496
182.397
180.33
178.407
176.51
174.73
173.033
171.537
169.833
168.328
191.297
190.534
189.738
188.944
188.09
187.274
186.36
185.499
184.531
183.479
182.534
181.189
179.815
178.657
177.413
176.452
175.371
174.304
173.053
171.957
184.751
184.1
183.435
182.752
182.034
181.336
180.55
179.769
178.758
177.578
176.43
175.314
174.26
173.264
172.301
171.407
170.49
169.592
168.597
167.715
182.223
181.683
181.118
180.531
179.946
179.351
178.779
178.168
177.592
176.926
176.229
175.645
174.951
174.297
173.608
172.923
172.209
171.515
170.774
170.062
179.527
179.018
178.448
177.87
177.306
176.751
176.193
175.646
175.11
174.548
173.983
173.393
172.801
172.199
171.594
170.996
170.381
169.791
169.173
168.595
178.721
178.349
177.974
177.593
177.209
176.807
176.405
175.992
175.578
175.154
174.729
174.293
173.863
173.417
172.963
172.492
172.003
171.508
170.987
170.44
178.044
177.714
177.378
177.034
176.683
176.326
175.964
175.595
175.222
174.842
174.458
174.068
173.676
173.28
172.889
172.498
172.108
171.723
171.33
170.948
178.223
177.947
177.665
177.38
177.089
176.794
176.494
176.189
175.881
175.565
175.248
174.924
174.594
174.248
173.899
173.542
173.183
172.818
172.454
172.087
178.464
178.218
177.971
177.72
177.468
177.212
176.955
176.695
176.434
176.169
175.904
175.635
175.37
175.107
174.847
174.579
174.312
174.038
173.762
173.48
178.898
178.68
178.46
178.238
178.014
177.788
177.56
177.331
177.1
176.867
176.633
176.397
176.16
175.921
175.683
175.442
175.204
174.962
174.723
174.48
179.464
179.272
179.079
178.886
178.693
178.499
178.306
178.112
177.918
177.723
177.53
177.335
177.141
176.947
176.754
176.559
176.366
176.172
175.979
175.785
179.904
179.726
179.548
179.37
179.192
179.016
178.839
178.663
178.487
178.313
178.139
177.966
177.793
177.622
177.451
177.282
177.114
176.946
176.78
176.616
180.409
180.248
180.087
179.927
179.768
179.61
179.453
179.297
179.143
178.99
178.838
178.688
178.539
178.391
178.245
178.1
177.957
177.816
177.676
177.538
180.718
180.564
180.411
180.259
180.109
179.96
179.814
179.668
179.525
179.384
179.244
179.106
178.97
178.837
178.705
178.576
178.448
178.324
178.201
178.082
180.996
180.849
180.704
180.56
180.418
180.278
180.14
180.003
179.868
179.736
179.605
179.476
179.349
179.224
179.101
178.982
178.863
178.748
178.633
178.524
181.104
180.961
180.819
180.679
180.541
180.405
180.27
180.138
180.007
179.878
179.751
179.627
179.504
179.383
179.265
179.149
179.035
178.923
178.814
178.708
221.482
221.332
219.157
217.312
215.574
213.669
211.656
209.48
207.088
204.445
201.492
198.181
194.499
190.318
185.718
180.393
174.707
167.902
160.492
155.212
232.411
233.038
231.959
230.81
229.635
228.282
226.756
225.03
223.065
220.838
218.309
215.44
212.203
208.51
204.403
199.593
194.392
188.097
181.516
177.805
244.001
244.976
244.249
243.476
242.686
241.728
240.621
239.344
237.862
236.159
234.166
231.868
229.215
226.121
222.593
218.4
213.74
208.023
201.508
198.178
255.402
256.717
256.442
256.207
255.91
255.463
254.834
254.046
253.044
251.826
250.332
248.564
246.448
243.941
241.044
237.499
233.559
228.511
222.743
218.715
266.721
268.092
268.007
268.022
268.019
267.886
267.647
267.278
266.742
266.038
265.099
263.935
262.465
260.685
258.509
255.831
252.747
248.715
244.078
239.558
276.648
278.326
278.755
279.28
279.787
280.189
280.469
280.633
280.621
280.453
280.066
279.487
278.616
277.488
276.004
274.108
271.85
268.739
265.535
260.946
286.684
288.508
289.225
290.014
290.79
291.466
292.051
292.56
292.947
293.215
293.304
293.238
292.941
292.448
291.602
290.486
288.903
286.886
284.49
280.762
295.196
297.238
298.386
299.585
300.805
301.96
303.047
304.076
304.986
305.785
306.404
306.882
307.132
307.191
306.918
306.384
305.417
304.103
302.29
299.634
303.661
305.934
307.404
308.921
310.429
311.869
313.221
314.5
315.662
316.743
317.696
318.539
319.161
319.614
319.736
319.646
319.119
318.337
316.963
314.958
310.672
313.06
314.823
316.634
318.462
320.248
321.982
323.679
325.294
326.853
328.288
329.615
330.708
331.633
332.248
332.688
332.666
332.435
331.543
330.037
317.452
320.077
322.097
324.185
326.271
328.305
330.266
332.178
333.984
335.704
337.278
338.739
340.027
341.225
342.136
342.871
343.192
343.393
342.843
341.949
322.849
325.536
327.703
329.952
332.228
334.469
336.678
338.861
340.99
343.081
345.072
347.012
348.797
350.505
351.927
353.204
354.052
354.803
354.784
354.498
327.792
330.647
333.028
335.495
337.976
340.426
342.846
345.236
347.564
349.824
351.963
353.992
355.834
357.519
358.953
360.277
361.261
362.117
362.295
362.474
330.9
333.816
336.323
338.93
341.563
344.176
346.782
349.37
351.912
354.406
356.818
359.152
361.359
363.449
365.346
367.094
368.435
369.485
369.971
370.078
333.885
336.914
339.486
342.203
344.951
347.685
350.4
353.1
355.73
358.328
360.794
363.215
365.426
367.549
369.37
370.979
372.162
373.069
373.562
373.367
334.799
337.81
340.446
343.232
346.048
348.859
351.658
354.451
357.202
359.924
362.569
365.161
367.609
369.983
372.106
374.149
375.746
377.323
378.36
379.397
335.092
338.184
340.907
343.772
346.666
349.553
352.423
355.288
358.093
360.875
363.533
366.147
368.552
370.89
372.932
374.875
376.445
377.851
378.694
379.138
333.588
336.664
339.381
342.229
345.106
347.96
350.819
353.647
356.463
359.21
361.919
364.518
367.034
369.392
371.598
373.57
375.314
376.653
377.661
378.033
331.208
334.256
336.98
339.843
342.719
345.596
348.444
351.295
354.076
356.833
359.477
362.042
364.454
366.698
368.746
370.553
372.079
373.217
374.008
374.095
327.362
330.313
332.931
335.665
338.44
341.181
343.925
346.627
349.304
351.91
354.456
356.903
359.218
361.403
363.359
365.096
366.525
367.651
368.312
368.346
41.7441
39.418
36.9178
34.5647
32.1626
29.6501
27.1989
24.5616
22.0559
19.3737
16.4871
13.5781
10.6893
7.66872
4.66638
2.04062
1.29905
0.109743
0.616145
0.482887
46.2285
43.8618
41.4371
38.8943
36.4154
33.7659
31.1072
28.3739
25.5306
22.6924
19.7396
16.5661
13.5018
10.4019
7.16961
4.54113
2.17748
1.37161
1.26578
1.14452
50.9528
48.3918
45.8482
43.2051
40.5683
37.8001
34.9877
32.0539
29.1201
26.0102
22.8388
19.5721
16.1588
12.9525
9.62908
6.43635
3.44649
2.94543
1.54938
2.16335
55.5098
52.912
50.3876
47.6149
44.882
42.0282
39.0484
35.9678
32.7784
29.5025
26.1102
22.5801
19.0004
15.1789
11.6584
8.0278
4.88741
3.11205
1.36632
1.38684
60.4415
57.7909
55.1695
52.346
49.4583
46.4334
43.319
39.9959
36.6275
33.0583
29.3958
25.6129
21.6326
17.6707
13.3188
9.32829
5.49565
1.74244
1.00297
0.560167
66.0362
63.2121
60.5011
57.4967
54.4937
51.2538
47.9425
44.4234
40.7482
36.9213
32.8903
28.6878
24.3196
19.6606
14.9033
10.0159
4.96376
0.436479
-0.946203
-1.95437
72.011
69.0776
66.2735
63.0857
59.9594
56.54
53.0386
49.28
45.3748
41.2153
36.848
32.2473
27.324
22.1194
16.6416
10.7859
4.57143
-0.964843
-4.74963
-5.7774
78.4025
75.337
72.5155
69.2066
65.9623
62.3954
58.7241
54.7949
50.617
46.2075
41.4934
36.493
31.1109
25.4012
19.194
12.512
5.28036
-1.59391
-7.87472
-9.65435
85.0265
82.0417
79.2545
75.8979
72.6065
68.9738
65.1677
61.0837
56.7459
52.0818
47.1132
41.7801
36.0285
29.8575
23.0725
15.8761
7.96081
0.00153267
-8.03823
-9.76491
92.6877
89.5967
86.8421
83.4456
80.0897
76.3989
72.502
68.318
63.8075
58.9881
53.784
48.1975
42.1103
35.528
28.3503
20.5584
11.9811
2.78689
-5.11943
-5.96004
100.931
97.8143
95.1126
91.77
88.4096
84.7355
80.8
76.5697
72.0243
67.0846
61.7825
56.0265
49.7433
42.9543
35.4539
27.3017
18.2136
8.57733
-0.46913
-2.72825
110.071
106.931
104.297
101.018
97.6732
94.0547
90.1384
85.9212
81.338
76.3915
71.0282
65.2
58.8237
51.9007
44.2422
35.947
26.7376
16.8209
7.20445
4.53311
119.73
116.614
114.132
111.016
107.777
104.274
100.447
96.3077
91.8264
86.9164
81.6091
75.7937
69.4175
62.4857
54.7333
46.4822
37.0899
26.8922
16.5855
13.169
130.271
127.21
124.881
121.964
118.844
115.507
111.825
107.826
103.448
98.6748
93.4771
87.7531
81.4933
74.6077
66.9498
58.7954
49.26
39.4632
29.1
25.0619
141.412
138.389
136.271
133.63
130.695
127.563
124.08
120.266
116.111
111.524
106.526
100.999
94.941
88.2461
80.8522
72.8528
63.5737
53.806
43.033
38.7809
153.24
150.3
148.427
146.107
143.386
140.508
137.278
133.719
129.789
125.461
120.714
115.433
109.649
103.216
96.1151
88.4081
79.3602
70.2698
59.147
54.349
165.554
162.703
161.124
159.241
156.785
154.167
151.217
147.919
144.288
140.25
135.804
130.849
125.421
119.332
112.717
105.339
96.9044
88.399
76.9755
71.9068
178.205
175.809
174.57
172.952
170.815
168.463
165.808
162.822
159.486
155.775
151.668
147.068
142.007
136.334
130.131
123.135
115.326
107.096
96.2177
91.0442
191.74
189.204
188.286
187.089
185.262
183.197
180.864
178.194
175.201
171.846
168.105
163.906
159.283
154.051
148.372
141.868
134.719
126.88
116.809
111.64
209.796
207.357
205.292
203.595
201.626
199.428
197.07
194.485
191.639
188.506
185.051
181.205
176.97
172.217
167.039
161.046
154.629
147.234
138.327
133.09
127.783
127.881
127.7
127.53
126.303
125.204
124.039
122.62
120.854
119.039
116.535
114.133
110.344
106.939
100.818
95.9645
86.3069
79.5897
62.8976
52.1924
128.036
128.118
128.084
127.863
126.84
125.785
124.748
123.406
121.779
120.067
117.702
115.394
111.872
108.682
102.971
98.3492
89.1968
82.8995
66.8376
56.6027
128.332
128.427
128.529
128.201
127.435
126.406
125.506
124.244
122.739
121.125
118.932
116.713
113.388
110.335
104.994
100.641
91.9783
86.1716
71.0083
61.7647
128.592
128.641
128.962
128.498
127.993
126.973
126.226
125.032
123.686
122.153
120.133
117.997
114.972
112.095
107.185
103.045
94.9159
89.6778
74.8239
66.7529
128.881
128.936
129.473
128.792
128.603
127.586
126.994
125.875
124.67
123.217
121.382
119.344
116.526
113.791
109.281
105.392
97.7508
93.4074
78.9979
72.247
129.138
129.133
129.934
129.08
129.174
128.171
127.716
126.68
125.618
124.253
122.602
120.66
118.114
115.58
111.542
107.809
100.841
97.8214
83.1777
78.3818
129.419
129.41
130.445
129.413
129.771
128.809
128.476
127.546
126.601
125.336
123.865
122.027
119.715
117.345
113.676
110.131
103.717
101.64
87.6055
84.4851
129.674
129.611
130.888
129.743
130.347
129.426
129.187
128.385
127.541
126.389
125.092
123.366
121.312
119.189
115.975
112.547
106.918
105.436
91.9487
90.5793
129.946
129.811
131.405
130.11
131.081
130.112
129.932
129.287
128.52
127.489
126.366
124.746
122.965
121.021
118.106
114.878
109.975
109.148
96.6668
96.9711
130.197
130.04
131.91
130.478
131.531
130.811
130.621
130.175
129.448
128.559
127.596
126.1
124.575
122.909
120.414
117.385
113.303
113.085
101.469
103.575
130.466
130.242
132.436
130.884
132.032
131.57
131.337
131.146
130.411
129.672
128.873
127.489
126.241
124.802
122.538
119.809
116.481
116.997
106.561
110.661
130.716
130.414
132.83
131.283
132.552
132.334
131.999
132.091
131.325
130.754
130.105
128.852
127.869
126.727
124.811
122.482
119.898
121.047
111.774
118.081
130.984
130.546
133.186
131.713
133.079
133.157
132.682
133.131
132.274
131.884
131.383
130.249
129.543
128.657
126.941
125.13
123.195
125.078
117.317
126.162
131.237
130.6
133.519
132.136
133.565
133.997
133.316
134.161
133.179
132.984
132.628
131.624
131.18
130.616
129.17
127.985
126.566
129.252
122.923
134.594
131.529
130.577
133.933
132.591
134.066
134.901
133.966
135.253
134.078
134.098
133.872
132.992
132.84
132.532
131.28
130.906
129.773
133.424
128.69
143.71
131.854
130.483
134.362
133.058
134.502
135.812
134.578
136.368
134.924
135.196
135.075
134.326
134.468
134.477
133.504
134.102
133.53
138.61
134.755
153.405
132.142
130.246
134.762
133.564
135.081
136.817
135.249
137.623
135.968
136.509
136.585
135.817
136.356
136.592
135.766
137.395
136.749
143.735
140.637
163.556
132.875
130.075
135.414
134.031
135.5
137.84
135.812
138.843
136.672
137.551
137.646
137.051
137.912
138.375
137.881
140.569
139.605
148.582
146.081
172.985
132.89
129.864
135.448
134.277
135.298
138.729
136.207
139.927
137.18
138.302
138.361
137.812
138.844
139.573
139.286
144.005
142.388
155.008
153.298
186.158
133.833
128.905
135.714
135.151
136.988
139.891
138.266
141.295
139.532
140.446
141.087
140.603
142.144
143.209
143.671
149.23
150.153
163.236
166.593
202.209
157.074
132.405
152.287
147.147
155.834
151.331
158.349
154.722
161.175
160.747
164.97
167.117
171.449
173.342
182.093
179.553
195.53
193.098
218.984
218.263
153.571
151.185
154.109
152.769
156.542
155.917
159.97
160.191
164.55
165.822
170.646
172.833
178.783
182.046
190.274
194.36
205.718
212.197
229.08
237.346
160.826
159.908
161.71
161.728
164.669
165.536
168.359
170.258
172.997
175.483
178.419
181.813
185.6
189.628
194.586
199.476
206.133
212.469
220.794
229.967
162.756
162.93
163.926
164.893
166.521
168.065
170.333
172.209
175.049
177.389
180.896
183.814
187.684
191.543
195.986
200.739
205.54
211.443
215.887
221.277
164.547
164.666
165.493
167.45
169.231
171.275
173.236
175.467
177.567
180.003
182.25
184.955
187.402
190.466
193.021
196.489
198.984
202.795
205.269
209.786
165.194
165.6
166.786
168.701
170.505
172.435
174.475
176.403
178.622
180.666
183.007
185.231
187.594
190.022
192.311
194.893
196.925
199.438
199.885
202.166
164.788
166.137
167.286
169.681
171.623
173.641
175.542
177.311
179.112
180.772
182.452
184.074
185.608
187.203
188.558
190.054
191.163
193.056
193.431
194.856
165.567
166.594
168.397
170.941
173.041
174.908
176.83
178.367
180.064
181.481
182.972
184.323
185.566
186.902
187.842
189.234
189.863
190.597
190.174
190.593
168.85
169.218
171.798
173.08
175.577
176.736
178.568
179.508
180.974
181.779
182.914
183.571
184.471
184.927
185.552
185.985
186.542
186.867
186.84
186.887
172.966
173.008
175.945
176.851
178.737
179.625
180.847
181.584
182.522
183.094
183.819
184.288
184.843
185.189
185.691
185.781
185.945
185.896
185.441
185.122
180.537
178.812
181.805
181.337
182.947
183.013
183.942
184.029
184.625
184.681
185.099
185.057
185.274
185.081
184.92
184.732
184.486
184.273
183.973
183.597
191.456
189.743
188.352
188.048
187.593
187.436
187.132
186.961
186.738
186.526
186.347
186.106
185.988
185.698
185.63
185.318
184.981
184.395
183.843
183.136
198.063
197.441
194.065
193.612
191.953
191.067
190.301
189.43
189.07
188.332
188.079
187.46
187.098
186.59
186.035
185.485
185.006
184.333
183.75
183.049
202.347
200.701
198.379
196.308
195.173
193.612
192.751
191.548
190.825
189.894
189.251
188.473
187.878
187.134
186.574
185.847
185.243
184.545
183.914
183.182
210.328
201.576
200.593
198.157
196.982
195.218
194.21
192.844
192.001
190.883
190.163
189.207
188.565
187.718
187.084
186.319
185.668
184.925
184.246
183.505
205.792
202.683
201.618
199.155
198.124
196.287
195.331
193.891
193.015
191.84
191.027
190.026
189.258
188.367
187.63
186.809
186.085
185.309
184.593
183.842
204.746
202.224
201.092
199.168
198.078
196.541
195.534
194.243
193.322
192.207
191.363
190.372
189.587
188.691
187.941
187.117
186.388
185.616
184.899
184.164
201.883
200.626
199.761
198.472
197.588
196.375
195.496
194.379
193.517
192.496
191.656
190.719
189.903
189.037
188.246
187.436
186.67
185.905
185.163
184.438
200.35
199.375
198.636
197.713
197.01
196.019
195.241
194.253
193.447
192.494
191.689
190.783
189.992
189.137
188.367
187.561
186.814
186.054
185.329
184.614
201.007
198.203
198.061
197.293
196.689
195.841
195.099
194.222
193.418
192.548
191.725
190.878
190.063
189.246
188.453
187.669
186.903
186.155
185.42
184.708
243.466
251.51
258.683
264.523
270.463
274.999
280.64
284.903
288.797
292.107
294.759
296.834
298.356
299.219
299.472
299.091
298.137
296.512
294.277
291.336
250.48
252.287
256.005
259.815
262.241
263.791
265.518
266.76
267.829
268.638
269.304
269.629