/*--------------------------------*- C++ -*----------------------------------*\
  =========                 |
  \\      /  F ield         | OpenFOAM: The Open Source CFD Toolbox
   \\    /   O peration     | Website:  https://openfoam.org
    \\  /    A nd           | Version:  9
     \\/     M anipulation  |
\*---------------------------------------------------------------------------*/
FoamFile
{
    format      ascii;
    class       surfaceScalarField;
    location    "15";
    object      phi;
}
// * * * * * * * * * * * * * * * * * * * * * * * * * * * * * * * * * * * * * //

dimensions      [0 3 -1 0 0 0 0];

internalField   nonuniform List<scalar> 
92080
(
-0.00438275
-0.565321
0.569704
-0.0318815
-1.15052
1.17802
-0.0769128
-1.28669
1.33173
-0.123058
-1.26758
1.31373
-0.168523
-1.24467
1.29013
-0.213641
-1.22426
1.26938
-0.258067
-1.20493
1.24935
-0.301541
-1.18575
1.22922
-0.344634
-1.16739
1.21049
-0.387371
-1.15039
1.19312
-0.428914
-1.13534
1.17688
-0.469682
-1.12085
1.16162
-0.509793
-1.10712
1.14723
-0.549522
-1.0934
1.13312
-0.588247
-1.08065
1.11937
-0.626397
-1.06729
1.10544
-0.663953
-1.05509
1.09265
-0.700109
-1.04291
1.07907
-0.735616
-1.02927
1.06478
-1.02077
1.0523
-0.767153
-0.00570987
-0.559611
-0.0349241
-1.12131
-0.0814642
-1.24015
-0.129169
-1.21988
-0.176027
-1.19781
-0.222522
-1.17776
-0.267944
-1.15951
-0.312518
-1.14117
-0.35621
-1.1237
-0.399741
-1.10686
-0.443601
-1.09148
-0.486686
-1.07777
-0.52881
-1.06499
-0.569977
-1.05223
-0.610194
-1.04043
-0.648829
-1.02866
-0.686765
-1.01716
-0.722385
-1.00729
-0.754629
-0.997029
-0.988194
-0.7872
-0.00652184
-0.55309
-0.0381301
-1.0897
-0.0873265
-1.19096
-0.136753
-1.17045
-0.185416
-1.14915
-0.23386
-1.12932
-0.281682
-1.11169
-0.328302
-1.09455
-0.374019
-1.07799
-0.418506
-1.06237
-0.462257
-1.04773
-0.506171
-1.03385
-0.549106
-1.02206
-0.591686
-1.00965
-0.633667
-0.99845
-0.674882
-0.987441
-0.715817
-0.976225
-0.756789
-0.966317
-0.796915
-0.956904
-0.949254
-0.835855
-0.0082597
-0.54483
-0.0414993
-1.05646
-0.0918903
-1.14057
-0.142187
-1.12016
-0.191198
-1.10013
-0.239925
-1.08059
-0.288179
-1.06343
-0.335854
-1.04688
-0.382773
-1.03107
-0.429436
-1.01571
-0.475158
-1.002
-0.520612
-0.988398
-0.56598
-0.976687
-0.609787
-0.965842
-0.653587
-0.954651
-0.696057
-0.944971
-0.737384
-0.934898
-0.777918
-0.925783
-0.817293
-0.917528
-0.908459
-0.858088
-0.0101597
-0.53467
-0.0468279
-1.01979
-0.0990861
-1.08831
-0.151209
-1.06803
-0.202197
-1.04915
-0.252799
-1.02999
-0.303035
-1.0132
-0.352264
-0.997648
-0.400529
-0.982801
-0.447955
-0.968282
-0.494868
-0.95509
-0.540676
-0.94259
-0.58669
-0.930673
-0.632735
-0.919797
-0.677521
-0.909866
-0.723221
-0.899271
-0.768573
-0.889546
-0.814415
-0.879941
-0.858265
-0.873678
-0.866372
-0.900352
-0.0106699
-0.524
-0.0511891
-0.979275
-0.10361
-1.03589
-0.155559
-1.01608
-0.206167
-0.998539
-0.256229
-0.979928
-0.306395
-0.96303
-0.356666
-0.947377
-0.406241
-0.933226
-0.455399
-0.919124
-0.504013
-0.906476
-0.552339
-0.894263
-0.599056
-0.883956
-0.645777
-0.873076
-0.692017
-0.863626
-0.735751
-0.855536
-0.779079
-0.846218
-0.823263
-0.835756
-0.869149
-0.827793
-0.821903
-0.913618
-0.00985202
-0.514148
-0.0548768
-0.93425
-0.109595
-0.98117
-0.164348
-0.961329
-0.217502
-0.945385
-0.269442
-0.927987
-0.320567
-0.911905
-0.371138
-0.896805
-0.421384
-0.88298
-0.47111
-0.869398
-0.520457
-0.857129
-0.56967
-0.84505
-0.619383
-0.834243
-0.667545
-0.824914
-0.71723
-0.81394
-0.767716
-0.805051
-0.815176
-0.798758
-0.86073
-0.790203
-0.907137
-0.781386
-0.774898
-0.954142
-0.00734811
-0.5068
-0.0529156
-0.888683
-0.108541
-0.925545
-0.16411
-0.905761
-0.218649
-0.890847
-0.27171
-0.874926
-0.324194
-0.859421
-0.376163
-0.844836
-0.427026
-0.832117
-0.477515
-0.818909
-0.527518
-0.807126
-0.576614
-0.795954
-0.625733
-0.785123
-0.674077
-0.77657
-0.719734
-0.768283
-0.767387
-0.757398
-0.817136
-0.749009
-0.864945
-0.742394
-0.911993
-0.734337
-0.72707
-0.959821
-0.00544606
-0.501354
-0.0540828
-0.840046
-0.113499
-0.866128
-0.171909
-0.847351
-0.228648
-0.834107
-0.2836
-0.819974
-0.336679
-0.806342
-0.389476
-0.792039
-0.441676
-0.779917
-0.49253
-0.768055
-0.543646
-0.756011
-0.5942
-0.7454
-0.645445
-0.733878
-0.698003
-0.724012
-0.749483
-0.716804
-0.797307
-0.709573
-0.845818
-0.700498
-0.894965
-0.693248
-0.942989
-0.686313
-0.679813
-0.990246
-0.00184126
-0.499513
-0.0520581
-0.789829
-0.111441
-0.806745
-0.169921
-0.788872
-0.228137
-0.775892
-0.285078
-0.763033
-0.340414
-0.751005
-0.393608
-0.738845
-0.446729
-0.726796
-0.498296
-0.716488
-0.548747
-0.705559
-0.597856
-0.696291
-0.644933
-0.686801
-0.692969
-0.675977
-0.743234
-0.666539
-0.793581
-0.659226
-0.842296
-0.651783
-0.891231
-0.644312
-0.940353
-0.637191
-0.630792
-0.989374
-0.00304693
-0.496466
-0.0578408
-0.735035
-0.121151
-0.743435
-0.181356
-0.728666
-0.239805
-0.717443
-0.297017
-0.705822
-0.353921
-0.694101
-0.409607
-0.683159
-0.463907
-0.672496
-0.517629
-0.662766
-0.570773
-0.652416
-0.624675
-0.642388
-0.676889
-0.634586
-0.726188
-0.626678
-0.774997
-0.617729
-0.824214
-0.61001
-0.873044
-0.602954
-0.920925
-0.59643
-0.968279
-0.589837
-0.584038
-1.01503
-0.00787378
-0.488592
-0.0626964
-0.680213
-0.122798
-0.683334
-0.181721
-0.669743
-0.240837
-0.658327
-0.297574
-0.649085
-0.352797
-0.638877
-0.407456
-0.628501
-0.46229
-0.617663
-0.515855
-0.6092
-0.567071
-0.6012
-0.617729
-0.591731
-0.67005
-0.582266
-0.721868
-0.57486
-0.772473
-0.567125
-0.822966
-0.559516
-0.873577
-0.552342
-0.923611
-0.546396
-0.973661
-0.539787
-0.53399
-1.02371
-0.0157702
-0.472822
-0.0735356
-0.622447
-0.135395
-0.621474
-0.193703
-0.611435
-0.252177
-0.599854
-0.310869
-0.590393
-0.367978
-0.581768
-0.422899
-0.573579
-0.47685
-0.563712
-0.532469
-0.553581
-0.587674
-0.545995
-0.639877
-0.539527
-0.690659
-0.531484
-0.741558
-0.52396
-0.791616
-0.517067
-0.840697
-0.510436
-0.890119
-0.50292
-0.939301
-0.497214
-0.987415
-0.491673
-0.485767
-1.03564
-0.0234356
-0.449386
-0.081182
-0.564701
-0.141663
-0.560993
-0.200567
-0.552531
-0.2574
-0.543021
-0.314249
-0.533544
-0.371157
-0.52486
-0.426688
-0.518048
-0.47914
-0.511261
-0.529798
-0.502923
-0.582333
-0.49346
-0.635397
-0.486463
-0.687346
-0.479535
-0.738611
-0.472695
-0.789836
-0.465842
-0.839879
-0.460394
-0.888908
-0.453891
-0.938994
-0.447128
-0.988478
-0.442188
-0.436563
-1.03768
-0.0303483
-0.419038
-0.088316
-0.506733
-0.14751
-0.501799
-0.20689
-0.493151
-0.265897
-0.484014
-0.323342
-0.476099
-0.381488
-0.466714
-0.440488
-0.459048
-0.499053
-0.452696
-0.554237
-0.447739
-0.606865
-0.440831
-0.658725
-0.434603
-0.710039
-0.428221
-0.760194
-0.422541
-0.810149
-0.415886
-0.860096
-0.410446
-0.908097
-0.40589
-0.955169
-0.400056
-1.00255
-0.394811
-0.389885
-1.04922
-0.0352101
-0.383828
-0.0947092
-0.447234
-0.156478
-0.44003
-0.213746
-0.435884
-0.270005
-0.427754
-0.325503
-0.420601
-0.378825
-0.413391
-0.432489
-0.405384
-0.487681
-0.397505
-0.543495
-0.391925
-0.598958
-0.385368
-0.65347
-0.380092
-0.707466
-0.374224
-0.760267
-0.36974
-0.811784
-0.364369
-0.863631
-0.358599
-0.915457
-0.354065
-0.965819
-0.349694
-1.01537
-0.345264
-0.340736
-1.06452
-0.0402724
-0.343555
-0.0997259
-0.387781
-0.161528
-0.378228
-0.224063
-0.373349
-0.284228
-0.36759
-0.34317
-0.361659
-0.400664
-0.355897
-0.454771
-0.351277
-0.508023
-0.344253
-0.560743
-0.339205
-0.612709
-0.333401
-0.664429
-0.328372
-0.716171
-0.322483
-0.767919
-0.317992
-0.818443
-0.313845
-0.867911
-0.309131
-0.917715
-0.304262
-0.967672
-0.299737
-1.0174
-0.295532
-0.291369
-1.06677
-0.0430728
-0.300483
-0.101
-0.329853
-0.161769
-0.317459
-0.220699
-0.314419
-0.2782
-0.310089
-0.335517
-0.304342
-0.393366
-0.298048
-0.450418
-0.294225
-0.505722
-0.288948
-0.560501
-0.284426
-0.614746
-0.279157
-0.667847
-0.27527
-0.719839
-0.270491
-0.772361
-0.26547
-0.824608
-0.261599
-0.876006
-0.257733
-0.926162
-0.254106
-0.975674
-0.250224
-1.02472
-0.246492
-0.242701
-1.07338
-0.0483894
-0.252093
-0.108658
-0.269585
-0.169551
-0.256565
-0.228661
-0.25531
-0.287011
-0.251739
-0.343161
-0.248192
-0.398532
-0.242677
-0.454995
-0.237763
-0.50988
-0.234063
-0.564535
-0.229771
-0.617527
-0.226166
-0.671218
-0.221578
-0.722971
-0.218738
-0.774026
-0.214415
-0.825074
-0.210551
-0.875921
-0.206886
-0.926742
-0.203285
-0.976821
-0.200145
-1.02651
-0.196798
-0.193728
-1.07549
-0.0594795
-0.192614
-0.117641
-0.211424
-0.172992
-0.201214
-0.23106
-0.197241
-0.289905
-0.192894
-0.34746
-0.190637
-0.402766
-0.187371
-0.456873
-0.183656
-0.510987
-0.179949
-0.564791
-0.175967
-0.61778
-0.173176
-0.670305
-0.169053
-0.722933
-0.16611
-0.774345
-0.163003
-0.825016
-0.159879
-0.875238
-0.156664
-0.924902
-0.153621
-0.974589
-0.150458
-1.02373
-0.147658
-1.07277
-0.144689
0.0456549
-0.20755
0.161895
0.142789
-0.824841
0.727707
0.225822
-1.41371
1.33067
0.261907
-1.6709
1.63481
0.273403
-1.70359
1.69209
0.278022
-1.69334
1.68872
0.27926
-1.67163
1.6704
0.2803
-1.65255
1.65151
0.280576
-1.63458
1.63431
0.28014
-1.61814
1.61857
0.278905
-1.6026
1.60384
0.276975
-1.5875
1.58943
0.274418
-1.57264
1.5752
0.271126
-1.55759
1.56089
0.267279
-1.54271
1.54655
0.263023
-1.52614
1.5304
0.258215
-1.50768
1.51249
0.253015
-1.4861
1.4913
0.247513
-1.46732
1.47282
-1.44932
0.242532
1.4543
0.0503784
-0.257928
0.133751
-0.908214
0.200445
-1.4804
0.224716
-1.69517
0.231092
-1.70997
0.231636
-1.69389
0.231353
-1.67135
0.230761
-1.65195
0.229597
-1.63342
0.227705
-1.61624
0.22528
-1.60018
0.222373
-1.58459
0.218978
-1.56925
0.215351
-1.55397
0.211245
-1.5386
0.20646
-1.52136
0.2008
-1.50202
0.194885
-1.48019
0.188835
-1.46127
-1.44372
0.183234
0.0537088
-0.311637
0.124678
-0.979183
0.175795
-1.53152
0.18845
-1.70782
0.189597
-1.71111
0.186543
-1.69083
0.183852
-1.66866
0.180592
-1.64869
0.176831
-1.62966
0.172767
-1.61218
0.168172
-1.59559
0.163043
-1.57947
0.157523
-1.56373
0.151383
-1.54783
0.144786
-1.532
0.137828
-1.5144
0.130546
-1.49474
0.123119
-1.47276
0.11559
-1.45374
-1.43644
0.108305
0.0417189
-0.353356
0.100881
-1.03835
0.144429
-1.57507
0.153489
-1.71688
0.152822
-1.71044
0.1487
-1.68671
0.144321
-1.66428
0.139503
-1.64388
0.134221
-1.62438
0.128248
-1.60621
0.121839
-1.58918
0.115127
-1.57275
0.108058
-1.55666
0.100824
-1.54059
0.093319
-1.5245
0.0855507
-1.50663
0.0772975
-1.48648
0.0687784
-1.46424
0.0599137
-1.44487
-1.42778
0.0512609
0.0393319
-0.392688
0.0949493
-1.09396
0.123422
-1.60354
0.124108
-1.71757
0.117697
-1.70403
0.110119
-1.67913
0.102622
-1.65678
0.0948382
-1.63609
0.0867545
-1.61629
0.0785546
-1.59801
0.0700172
-1.58064
0.0610336
-1.56377
0.0518533
-1.54748
0.0423629
-1.5311
0.0326018
-1.51474
0.0226556
-1.49669
0.0125787
-1.47641
0.00245935
-1.45412
-0.00762911
-1.43478
-1.41758
-0.0178327
0.0309887
-0.423676
0.0763085
-1.13928
0.0975048
-1.62473
0.0944232
-1.71449
0.0866401
-1.69625
0.0783407
-1.67083
0.0691267
-1.64757
0.0595736
-1.62654
0.0496933
-1.60641
0.0392565
-1.58757
0.0285427
-1.56992
0.0177393
-1.55297
0.00666871
-1.53641
-0.00458002
-1.51985
-0.0158756
-1.50344
-0.0270938
-1.48547
-0.0384609
-1.46504
-0.0499255
-1.44266
-0.061744
-1.42297
-1.40582
-0.0735012
0.0261939
-0.44987
0.0635712
-1.17666
0.0768467
-1.63801
0.0699549
-1.7076
0.0582236
-1.68452
0.0461225
-1.65873
0.0338004
-1.63525
0.0212025
-1.61394
0.00844353
-1.59365
-0.00433371
-1.57479
-0.017345
-1.55691
-0.0307168
-1.5396
-0.0440463
-1.52308
-0.0573631
-1.50654
-0.070778
-1.49003
-0.0841506
-1.47209
-0.0974386
-1.45175
-0.110642
-1.42946
-0.12435
-1.40926
-1.39198
-0.138189
0.025766
-0.475636
0.056984
-1.20788
0.0610637
-1.64209
0.0488705
-1.6954
0.0346247
-1.67027
0.0202601
-1.64437
0.00535919
-1.62035
-0.00960716
-1.59898
-0.0246675
-1.57859
-0.0400399
-1.55942
-0.0554269
-1.54153
-0.0707195
-1.5243
-0.0862462
-1.50755
-0.101879
-1.49091
-0.117316
-1.47459
-0.132395
-1.45702
-0.1472
-1.43695
-0.161932
-1.41472
-0.176773
-1.39442
-1.37686
-0.1919
0.0213598
-0.496996
0.0456464
-1.23216
0.0432964
-1.63974
0.027453
-1.67956
0.00988714
-1.65271
-0.00750309
-1.62698
-0.0250708
-1.60278
-0.0428539
-1.58119
-0.0605814
-1.56087
-0.0782201
-1.54178
-0.0960487
-1.5237
-0.114061
-1.50629
-0.131811
-1.4898
-0.149357
-1.47336
-0.166925
-1.45702
-0.184195
-1.43975
-0.201131
-1.42001
-0.217987
-1.39787
-0.23528
-1.37712
-1.35974
-0.2524
0.0187886
-0.515785
0.0379849
-1.25136
0.0303169
-1.63207
0.0109189
-1.66016
-0.00922637
-1.63256
-0.0294337
-1.60677
-0.049932
-1.58228
-0.070352
-1.56077
-0.0907454
-1.54047
-0.111206
-1.52132
-0.131452
-1.50345
-0.151522
-1.48622
-0.171787
-1.46954
-0.191967
-1.45318
-0.211706
-1.43728
-0.230922
-1.42053
-0.249412
-1.40152
-0.267524
-1.37976
-0.286002
-1.35865
-1.34107
-0.304667
0.0155394
-0.531324
0.0284183
-1.26424
0.0144398
-1.61809
-0.00835428
-1.63737
-0.03131
-1.60961
-0.0538925
-1.58419
-0.0766091
-1.55956
-0.0995772
-1.5378
-0.122317
-1.51773
-0.144897
-1.49874
-0.167631
-1.48072
-0.190358
-1.46349
-0.21272
-1.44717
-0.234876
-1.43102
-0.256988
-1.41517
-0.278575
-1.39894
-0.29942
-1.38067
-0.319704
-1.35947
-0.340195
-1.33816
-1.32064
-0.360629
0.013251
-0.544575
0.0216371
-1.27263
0.00425958
-1.60072
-0.0215295
-1.61158
-0.0474184
-1.58372
-0.0731912
-1.55841
-0.0989647
-1.53379
-0.124604
-1.51217
-0.150233
-1.4921
-0.17568
-1.47329
-0.200739
-1.45566
-0.225594
-1.43864
-0.250536
-1.42223
-0.275217
-1.40634
-0.299345
-1.39104
-0.323058
-1.37523
-0.345895
-1.35784
-0.367832
-1.33754
-0.38992
-1.31607
-1.29849
-0.412064
0.0103099
-0.554885
0.0130176
-1.27533
-0.0101046
-1.57759
-0.0387028
-1.58298
-0.0670404
-1.55538
-0.094697
-1.53076
-0.122349
-1.50614
-0.150285
-1.48423
-0.177905
-1.46448
-0.205416
-1.44578
-0.233036
-1.42804
-0.260522
-1.41115
-0.287636
-1.39512
-0.314622
-1.37936
-0.341405
-1.36426
-0.367271
-1.34936
-0.392265
-1.33284
-0.416336
-1.31347
-0.440094
-1.29231
-1.27464
-0.463946
0.00845788
-0.563343
0.00717338
-1.27405
-0.0189586
-1.55146
-0.0503679
-1.55157
-0.0815341
-1.52421
-0.112483
-1.49981
-0.143038
-1.47558
-0.17346
-1.45381
-0.203975
-1.43397
-0.234064
-1.4157
-0.263632
-1.39847
-0.292982
-1.3818
-0.322339
-1.36576
-0.351424
-1.35027
-0.380269
-1.33541
-0.40887
-1.32076
-0.436147
-1.30557
-0.462117
-1.28749
-0.487671
-1.26676
-1.24915
-0.513164
0.00601499
-0.569358
-8.46864e-06
-1.26803
-0.030585
-1.52088
-0.0647178
-1.51744
-0.0980913
-1.49084
-0.130686
-1.46721
-0.163122
-1.44315
-0.195692
-1.42124
-0.227988
-1.40167
-0.260385
-1.3833
-0.292826
-1.36603
-0.324966
-1.34966
-0.356633
-1.33409
-0.388146
-1.31876
-0.41933
-1.30423
-0.449862
-1.29023
-0.479668
-1.27576
-0.507863
-1.2593
-0.535009
-1.23961
-1.22188
-0.562277
0.00407179
-0.57343
-0.00582948
-1.25812
-0.0387136
-1.488
-0.0755673
-1.48059
-0.111784
-1.45462
-0.147487
-1.43151
-0.182387
-1.40825
-0.217101
-1.38652
-0.251891
-1.36688
-0.286066
-1.34912
-0.319741
-1.33235
-0.35337
-1.31603
-0.386976
-1.30049
-0.420253
-1.28548
-0.45351
-1.27097
-0.486665
-1.25708
-0.518707
-1.24372
-0.549306
-1.2287
-0.578223
-1.21069
-1.19322
-0.606887
0.00156557
-0.574995
-0.0134527
-1.24311
-0.0489706
-1.45248
-0.0876328
-1.44192
-0.125597
-1.41666
-0.162802
-1.39431
-0.199649
-1.3714
-0.236354
-1.34982
-0.27293
-1.33031
-0.30987
-1.31218
-0.34662
-1.2956
-0.38282
-1.27983
-0.418636
-1.26467
-0.454292
-1.24983
-0.489415
-1.23585
-0.524348
-1.22214
-0.558996
-1.20907
-0.59211
-1.19559
-0.623191
-1.17961
-1.16266
-0.653748
-0.000162266
-0.574833
-0.0184005
-1.22487
-0.0563435
-1.41454
-0.0973635
-1.4009
-0.137859
-1.37616
-0.177802
-1.35436
-0.216631
-1.33257
-0.255105
-1.31134
-0.293433
-1.29198
-0.331146
-1.27447
-0.368712
-1.25804
-0.4063
-1.24224
-0.443733
-1.22724
-0.481061
-1.2125
-0.518504
-1.19841
-0.555732
-1.18491
-0.59258
-1.17222
-0.628759
-1.15941
-0.662699
-1.14567
-1.1298
-0.695562
-0.00217769
-0.572655
-0.0243501
-1.2027
-0.0647347
-1.37415
-0.107285
-1.35835
-0.149236
-1.33421
-0.190645
-1.31295
-0.231556
-1.29166
-0.271985
-1.27091
-0.312333
-1.25163
-0.353046
-1.23376
-0.39328
-1.2178
-0.432942
-1.20258
-0.47217
-1.18801
-0.511165
-1.1735
-0.550071
-1.1595
-0.589365
-1.14562
-0.628882
-1.1327
-0.668544
-1.11975
-0.706956
-1.10726
-1.09367
-0.743079
-0.00295129
-0.027623
-0.0700515
-0.114676
-0.158757
-0.202334
-0.24464
-0.286333
-0.327477
-0.368109
-0.409033
-0.449997
-0.490782
-0.531162
-0.571288
-0.611467
-0.65152
-0.6922
-0.734681
-0.776052
0.168076
-12.6002
12.6746
0.115466
-11.9318
11.9845
0.0725308
-11.4605
11.5034
0.0432786
-11.0591
11.0883
0.0181047
-10.7362
10.7614
0.00163955
-10.4057
10.4221
-0.0110125
-10.1507
10.1634
-0.0193746
-9.94278
9.95115
-0.0249812
-9.76509
9.77069
-0.0282687
-9.60758
9.61086
-0.0289815
-9.48814
9.48885
-0.0280784
-9.37981
9.37891
-0.026092
-9.30691
9.30492
-0.0231644
-9.22911
9.22618
-0.0182881
-9.19177
9.18689
-0.012752
-9.08339
9.07786
-0.00537374
-8.85172
8.84434
7.70196e-05
-7.88679
7.88134
0.00327572
-5.64468
5.64148
-2.34567
2.34895
0.109604
-12.5265
0.0576274
-11.8799
0.012322
-11.4152
-0.0175155
-11.0293
-0.0411921
-10.7125
-0.055316
-10.3915
-0.064698
-10.1414
-0.0698195
-9.93766
-0.0718343
-9.76307
-0.0714067
-9.608
-0.0681896
-9.49136
-0.0633419
-9.38466
-0.057263
-9.31299
-0.0501034
-9.23627
-0.0411156
-9.20076
-0.0308967
-9.09361
-0.018104
-8.86451
-0.00639223
-7.8985
0.0013925
-5.65247
-2.34428
0.0227168
-12.4409
-0.0322383
-11.8249
-0.0734842
-11.3739
-0.0984372
-11.0043
-0.116373
-10.6946
-0.125725
-10.3822
-0.129855
-10.1372
-0.129862
-9.93766
-0.126688
-9.76625
-0.121091
-9.6136
-0.112807
-9.49964
-0.102978
-9.39449
-0.0918874
-9.32408
-0.0796279
-9.24853
-0.0654539
-9.21493
-0.0496696
-9.1094
-0.0311915
-8.88299
-0.0133932
-7.9163
-0.000924201
-5.66494
-2.34521
-0.0354241
-12.3543
-0.0904761
-11.7699
-0.133379
-11.331
-0.159641
-10.978
-0.17598
-10.6782
-0.182687
-10.3755
-0.1837
-10.1362
-0.180409
-9.94095
-0.173613
-9.77304
-0.16429
-9.62292
-0.152072
-9.51186
-0.138257
-9.4083
-0.123058
-9.33928
-0.106591
-9.265
-0.0883724
-9.23315
-0.0679821
-9.12979
-0.0442564
-8.90671
-0.0203123
-7.94025
-0.00318085
-5.68207
-2.34839
-0.116678
-12.2554
-0.177803
-11.7087
-0.217691
-11.2911
-0.238671
-10.9571
-0.249797
-10.6671
-0.251946
-10.3733
-0.247919
-10.1402
-0.239661
-9.94921
-0.227785
-9.78492
-0.213407
-9.6373
-0.196266
-9.529
-0.177524
-9.42705
-0.157343
-9.35946
-0.135897
-9.28644
-0.112775
-9.25627
-0.0869674
-9.1556
-0.0576917
-8.93599
-0.027768
-7.97017
-0.00581225
-5.70402
-2.3542
-0.174448
-12.1545
-0.235641
-11.6475
-0.277676
-11.2491
-0.299838
-10.9349
-0.309299
-10.6577
-0.308708
-10.3739
-0.301556
-10.1474
-0.289968
-9.96079
-0.274476
-9.80041
-0.256386
-9.65539
-0.235323
-9.55006
-0.21255
-9.44982
-0.188287
-9.38372
-0.162777
-9.31195
-0.135694
-9.28335
-0.105415
-9.18588
-0.0706594
-8.97075
-0.0345872
-8.00624
-0.00815536
-5.73045
-2.36235
-0.252239
-12.0404
-0.319633
-11.5802
-0.359048
-11.2097
-0.376442
-10.9175
-0.381216
-10.6529
-0.376304
-10.3788
-0.364371
-10.1593
-0.348004
-9.97716
-0.327582
-9.82083
-0.304575
-9.6784
-0.278767
-9.57587
-0.251183
-9.4774
-0.222075
-9.41283
-0.191757
-9.34227
-0.159943
-9.31517
-0.124223
-9.22159
-0.0838201
-9.01115
-0.0420277
-8.04803
-0.0111136
-5.76137
-2.37347
-0.309099
-11.9232
-0.376529
-11.5127
-0.418501
-11.1677
-0.437158
-10.8988
-0.440197
-10.6498
-0.432468
-10.3866
-0.417434
-10.1744
-0.397742
-9.99685
-0.373735
-9.84484
-0.347031
-9.7051
-0.31733
-9.60557
-0.285723
-9.50901
-0.252591
-9.44596
-0.218448
-9.37642
-0.182699
-9.35092
-0.142428
-9.26187
-0.0966146
-9.05696
-0.049184
-8.09547
-0.0145793
-5.79597
-2.38805
-0.38336
-11.7923
-0.456811
-11.4393
-0.496263
-11.1283
-0.510837
-10.8843
-0.509709
-10.651
-0.497914
-10.3984
-0.478374
-10.1939
-0.454138
-10.0211
-0.425404
-9.87357
-0.393974
-9.73653
-0.35975
-9.63979
-0.323503
-9.54526
-0.285647
-9.48381
-0.24684
-9.41522
-0.206595
-9.39116
-0.161225
-9.30724
-0.109936
-9.10825
-0.0566124
-8.14879
-0.0181941
-5.83439
-2.40624
-0.438798
-11.6581
-0.512257
-11.3658
-0.554679
-11.0858
-0.570623
-10.8683
-0.567746
-10.6539
-0.553144
-10.413
-0.530496
-10.2166
-0.502949
-10.0486
-0.470677
-9.90584
-0.435577
-9.77163
-0.397515
-9.67786
-0.357334
-9.58544
-0.315454
-9.52569
-0.272856
-9.45782
-0.228938
-9.43508
-0.179285
-9.35689
-0.122656
-9.16488
-0.0638044
-8.20764
-0.0220112
-5.87619
-2.42825
-0.509542
-11.5092
-0.588493
-11.2869
-0.628414
-11.0459
-0.64092
-10.8558
-0.634372
-10.6604
-0.616005
-10.4313
-0.589141
-10.2434
-0.557321
-10.0805
-0.520538
-9.94263
-0.480937
-9.81123
-0.438603
-9.72019
-0.394018
-9.63002
-0.347546
-9.57217
-0.300103
-9.50526
-0.251758
-9.48342
-0.197501
-9.41115
-0.135717
-9.22666
-0.0711205
-8.27224
-0.0254038
-5.9219
-2.45366
-0.563267
-11.358
-0.64244
-11.2077
-0.685426
-11.0029
-0.699316
-10.8419
-0.69109
-10.6686
-0.66995
-10.4525
-0.63995
-10.2734
-0.604839
-10.1156
-0.564593
-9.98287
-0.521351
-9.85448
-0.475245
-9.7663
-0.426881
-9.67839
-0.376599
-9.62245
-0.325516
-9.55635
-0.273592
-9.53535
-0.215097
-9.46964
-0.148178
-9.29358
-0.0780514
-8.34236
-0.0281572
-5.9718
-2.48181
-0.63062
-11.1913
-0.714524
-11.1238
-0.754859
-10.9626
-0.765782
-10.831
-0.754432
-10.68
-0.729866
-10.477
-0.695941
-10.3073
-0.656813
-10.1547
-0.612315
-10.0274
-0.564822
-9.90197
-0.514689
-9.81643
-0.46221
-9.73087
-0.407978
-9.67668
-0.352382
-9.61194
-0.295699
-9.59203
-0.232863
-9.53248
-0.160959
-9.36549
-0.0849476
-8.41838
-0.0299438
-6.0268
-2.51176
-0.682223
-11.0223
-0.767046
-11.039
-0.810197
-10.9194
-0.822351
-10.8189
-0.809411
-10.6929
-0.782114
-10.5043
-0.745064
-10.3444
-0.702682
-10.1971
-0.654811
-10.0752
-0.603706
-9.95307
-0.549884
-9.87025
-0.49378
-9.78697
-0.43603
-9.73443
-0.376858
-9.67112
-0.316464
-9.65243
-0.250014
-9.59893
-0.173383
-9.44212
-0.0916994
-8.50006
-0.0308243
-6.08768
-2.54258
-0.746563
-10.838
-0.835363
-10.9502
-0.875265
-10.8795
-0.884738
-10.8094
-0.869218
-10.7084
-0.838813
-10.5347
-0.79812
-10.3851
-0.751941
-10.2433
-0.700127
-10.1271
-0.645039
-10.0082
-0.587399
-9.92789
-0.527305
-9.84706
-0.46556
-9.79618
-0.401779
-9.7349
-0.337121
-9.71708
-0.267011
-9.66904
-0.185682
-9.52345
-0.0984333
-8.58731
-0.0310449
-6.15506
-2.57363
-0.79477
-10.6501
-0.886085
-10.8588
-0.928652
-10.837
-0.939045
-10.799
-0.922032
-10.7254
-0.888993
-10.5678
-0.845236
-10.4288
-0.79584
-10.2927
-0.740746
-10.1822
-0.682097
-10.0668
-0.620853
-9.98914
-0.557228
-9.91069
-0.492056
-9.86135
-0.424861
-9.80209
-0.357039
-9.78491
-0.283706
-9.74237
-0.197825
-9.60933
-0.104944
-8.68019
-0.0309342
-6.22907
-2.60456
-0.856861
-10.447
-0.950586
-10.7651
-0.988651
-10.7989
-0.996581
-10.7911
-0.977604
-10.7444
-0.941878
-10.6035
-0.894864
-10.4759
-0.841952
-10.3456
-0.7833
-10.2408
-0.720989
-10.1291
-0.656132
-10.054
-0.588682
-9.97814
-0.519776
-9.93025
-0.448568
-9.8733
-0.376807
-9.85667
-0.29999
-9.81919
-0.209916
-9.6994
-0.111641
-8.77846
-0.0310021
-6.30971
-2.63556
-0.903991
-10.2386
-1.00165
-10.6675
-1.04112
-10.7594
-1.04893
-10.7832
-1.02818
-10.7652
-0.989735
-10.6419
-0.939674
-10.5259
-0.883541
-10.4017
-0.821707
-10.3026
-0.755935
-10.1949
-0.687607
-10.1223
-0.616773
-10.049
-0.544582
-10.0024
-0.470242
-9.94764
-0.395554
-9.93136
-0.315794
-9.89895
-0.221826
-9.79337
-0.118233
-8.88206
-0.0311643
-6.39678
-2.66673
-0.955123
-10.0265
-1.06339
-10.5592
-1.09947
-10.7234
-1.10468
-10.778
-1.08178
-10.7881
-1.04058
-10.6831
-0.987126
-10.5794
-0.927346
-10.4615
-0.862002
-10.368
-0.792709
-10.2642
-0.720852
-10.1942
-0.646255
-10.1236
-0.57026
-10.0784
-0.492204
-10.0257
-0.414279
-10.0093
-0.331406
-9.98182
-0.233636
-9.89114
-0.125116
-8.99058
-0.03175
-6.49015
-2.69848
-0.990382
-9.81219
-1.10499
-10.4446
-1.14298
-10.6854
-1.14841
-10.7726
-1.12624
-10.8102
-1.08321
-10.7262
-1.0281
-10.6345
-0.965323
-10.5243
-0.897562
-10.4357
-0.82496
-10.3368
-0.750121
-10.269
-0.672299
-10.2014
-0.593655
-10.1571
-0.512818
-10.1065
-0.432023
-10.0901
-0.346212
-10.0676
-0.245113
-9.99224
-0.132036
-9.10365
-0.0327129
-6.58947
-2.73119
9.40829
-8.79968
-10.4208
8.13279
-9.16908
6.93228
-9.48486
5.84755
-9.68788
4.86961
-9.8323
4.02266
-9.87922
3.31439
-9.92622
2.72049
-9.93035
2.21836
-9.93361
1.79983
-9.91826
1.45353
-9.92271
1.16974
-9.9176
0.926825
-9.91417
0.724186
-9.90389
0.536087
-9.90198
0.370768
-9.90231
0.243748
-9.86522
0.147162
-9.00707
0.0694192
-6.51173
-2.66177
5.79699
-8.35851
-6.23817
5.21219
-8.58428
4.61772
-8.8904
4.0284
-9.09856
3.47056
-9.27446
2.97766
-9.38631
2.53979
-9.48835
2.16049
-9.55106
1.83368
-9.6068
1.55916
-9.64374
1.31493
-9.67849
1.09526
-9.69793
0.891519
-9.71043
0.711178
-9.72355
0.542926
-9.73373
0.39238
-9.75177
0.214119
-9.68696
0.0880168
-8.88096
-0.0225837
-6.40113
-2.68436
4.39931
-8.1693
-4.58852
4.17117
-8.35614
3.87251
-8.59174
3.54684
-8.77289
3.21037
-8.93798
2.88548
-9.06143
2.56494
-9.16781
2.26131
-9.24742
1.97363
-9.31912
1.7044
-9.37451
1.44634
-9.42042
1.20233
-9.45393
0.974719
-9.48282
0.763054
-9.51189
0.573431
-9.5441
0.393292
-9.57163
0.220216
-9.51388
0.123741
-8.78449
0.0558726
-6.33326
-2.62848
2.90434
-8.11693
-2.9567
2.83225
-8.28405
2.69324
-8.45273
2.52316
-8.60281
2.32412
-8.73894
2.10981
-8.84712
1.89044
-8.94844
1.67435
-9.03133
1.4605
-9.10527
1.25381
-9.16782
1.06098
-9.22759
0.885599
-9.27855
0.729611
-9.32683
0.586918
-9.36919
0.448509
-9.4057
0.316674
-9.43979
0.181536
-9.37874
0.112775
-8.71573
0.0807742
-6.30126
-2.54771
2.17319
-8.15703
-2.13309
2.15726
-8.26812
2.10437
-8.39984
2.00699
-8.50543
1.88688
-8.61883
1.75114
-8.71138
1.60105
-8.79836
1.44429
-8.87457
1.28368
-8.94466
1.12295
-9.00709
0.963256
-9.0679
0.803893
-9.11919
0.64714
-9.17007
0.494409
-9.21646
0.344136
-9.25542
0.19437
-9.29003
0.0678058
-9.25218
0.0227216
-8.67065
0.0493311
-6.32787
-2.49838
1.59851
-8.17195
-1.58359
1.60024
-8.26985
1.55562
-8.35522
1.49272
-8.44252
1.40584
-8.53195
1.30157
-8.60712
1.18482
-8.6816
1.05774
-8.74749
0.928971
-8.81589
0.798805
-8.87692
0.66943
-8.93852
0.54052
-8.99028
0.414595
-9.04415
0.288379
-9.09024
0.169784
-9.13683
0.0536913
-9.17393
-0.0491273
-9.14936
-0.0629937
-8.65678
0.0367943
-6.42766
-2.46158
1.18401
-8.19633
-1.15964
1.17309
-8.25892
1.15754
-8.33967
1.1259
-8.41088
1.06591
-8.47196
0.993794
-8.535
0.910714
-8.59852
0.815522
-8.6523
0.7129
-8.71327
0.605226
-8.76925
0.49131
-8.82461
0.37516
-8.87413
0.258184
-8.92717
0.138027
-8.97009
0.0159804
-9.01478
-0.096864
-9.06109
-0.181731
-9.06449
-0.182772
-8.65574
-0.0203995
-6.59003
-2.48198
0.942024
-8.20902
-0.929332
0.943605
-8.2605
0.916126
-8.31219
0.864966
-8.35972
0.808848
-8.41584
0.739616
-8.46577
0.661526
-8.52043
0.578194
-8.56897
0.487708
-8.62278
0.389931
-8.67147
0.286377
-8.72105
0.17881
-8.76656
0.0647998
-8.81316
-0.0489832
-8.85631
-0.155325
-8.90844
-0.266077
-8.95034
-0.358653
-8.97192
-0.350814
-8.66358
-0.119013
-6.82183
-2.601
0.72473
-8.20302
-0.73073
0.704749
-8.24052
0.677832
-8.28528
0.643164
-8.32506
0.598985
-8.37166
0.541337
-8.40812
0.472278
-8.45138
0.398867
-8.49556
0.316897
-8.54081
0.225172
-8.57975
0.127521
-8.6234
0.022019
-8.66106
-0.084968
-8.70618
-0.195607
-8.74567
-0.310856
-8.79319
-0.432147
-8.82905
-0.537823
-8.86624
-0.556175
-8.64522
-0.270699
-7.1073
-2.87169
0.611391
-8.19364
-0.620769
0.59349
-8.22262
0.564104
-8.25589
0.522962
-8.28391
0.46583
-8.31453
0.407692
-8.34998
0.343671
-8.38735
0.268899
-8.42078
0.185383
-8.4573
0.0935231
-8.48789
-0.00391533
-8.52596
-0.110698
-8.55428
-0.221998
-8.59487
-0.348557
-8.61911
-0.480979
-8.66077
-0.623311
-8.68672
-0.754009
-8.73554
-0.805932
-8.5933
-0.50488
-7.40836
-3.37658
0.50126
-8.17113
-0.523774
0.470559
-8.19192
0.432738
-8.21807
0.388838
-8.24001
0.343958
-8.26965
0.289497
-8.29552
0.229081
-8.32694
0.157453
-8.34916
0.0756689
-8.37551
-0.0135132
-8.3987
-0.111443
-8.42803
-0.217353
-8.44837
-0.336801
-8.47543
-0.462827
-8.49308
-0.602793
-8.5208
-0.758192
-8.53132
-0.937739
-8.55599
-1.04455
-8.48649
-0.793445
-7.65946
-4.17002
0.439578
-8.15043
-0.46028
0.413558
-8.1659
0.381051
-8.18556
0.343686
-8.20265
0.297764
-8.22373
0.240683
-8.23844
0.172395
-8.25865
0.0990513
-8.27581
0.0202928
-8.29675
-0.066201
-8.31221
-0.16321
-8.33103
-0.267627
-8.34395
-0.384011
-8.35904
-0.50655
-8.37054
-0.649954
-8.3774
-0.798632
-8.38264
-0.989928
-8.3647
-1.15066
-8.32575
-0.972109
-7.83802
-5.14213
0.368575
-8.12312
-0.395886
0.336926
-8.13425
0.301175
-8.14981
0.260293
-8.16177
0.213623
-8.17706
0.163502
-8.18832
0.107115
-8.20226
0.0427262
-8.21142
-0.0266139
-8.22741
-0.102553
-8.23627
-0.185898
-8.24768
-0.276707
-8.25314
-0.377207
-8.25854
-0.488518
-8.25923
-0.609201
-8.25671
-0.743337
-8.2485
-0.882768
-8.22527
-1.01077
-8.19775
-0.896973
-7.95181
-6.0391
0.328902
-8.10035
-0.351669
0.302847
-8.1082
0.271327
-8.11829
0.234857
-8.1253
0.192837
-8.13504
0.146979
-8.14246
0.0969449
-8.15223
0.0434478
-8.15793
-0.0180449
-8.16592
-0.0847503
-8.16956
-0.15686
-8.17557
-0.234214
-8.17579
-0.315809
-8.17695
-0.404029
-8.17101
-0.495422
-8.16532
-0.594476
-8.14945
-0.681932
-8.13781
-0.776723
-8.10296
-0.74047
-7.98807
-6.77957
0.27224
-8.07707
-0.29552
0.245711
-8.08167
0.21573
-8.08831
0.183504
-8.09307
0.149085
-8.10062
0.112465
-8.10584
0.0712508
-8.11102
0.0277959
-8.11447
-0.0192366
-8.11889
-0.0693818
-8.11942
-0.122285
-8.12267
-0.17713
-8.12094
-0.235166
-8.11891
-0.296599
-8.10958
-0.357359
-8.10456
-0.418454
-8.08836
-0.477792
-8.07847
-0.533759
-8.04699
-0.521923
-7.9999
-7.3015
0.24434
-8.05864
-0.26277
0.223261
-8.06059
0.19954
-8.06459
0.173803
-8.06733
0.144402
-8.07122
0.112303
-8.07374
0.0792196
-8.07793
0.0424941
-8.07775
0.00364073
-8.08003
-0.0379069
-8.07787
-0.079346
-8.08123
-0.122501
-8.07779
-0.165025
-8.07639
-0.207123
-8.06748
-0.245892
-8.06579
-0.285235
-8.04901
-0.31864
-8.04507
-0.33795
-8.02768
-0.317282
-8.02057
-7.61878
0.177953
-8.0402
-0.196394
0.159184
-8.04182
0.13907
-8.04447
0.117851
-8.04612
0.09488
-8.04825
0.0700776
-8.04894
0.0420069
-8.04986
0.0164888
-8.05223
-0.0101172
-8.05343
-0.0372062
-8.05078
-0.0646373
-8.0538
-0.0911262
-8.0513
-0.117377
-8.05014
-0.141665
-8.04319
-0.166503
-8.04095
-0.184169
-8.03135
-0.201671
-8.02756
-0.218436
-8.01092
-0.222621
-8.01639
-7.8414
0.134712
-8.02849
-0.146421
0.122049
-8.02916
0.108028
-8.03045
0.0929454
-8.03103