/*--------------------------------*- C++ -*----------------------------------*\
  =========                 |
  \\      /  F ield         | OpenFOAM: The Open Source CFD Toolbox
   \\    /   O peration     | Website:  https://openfoam.org
    \\  /    A nd           | Version:  9
     \\/     M anipulation  |
\*---------------------------------------------------------------------------*/
FoamFile
{
    format      ascii;
    class       volVectorField;
    location    "15";
    object      U;
}
// * * * * * * * * * * * * * * * * * * * * * * * * * * * * * * * * * * * * * //

dimensions      [0 1 -1 0 0 0 0];

internalField   nonuniform List<vector> 
46400
(
(10.12 -9.97475 -8.67628e-19)
(21.0523 -20.143 9.76761e-19)
(23.1698 -23.2119 -8.78653e-20)
(22.4336 -23.2435 6.63943e-20)
(21.66 -23.1729 -7.07684e-20)
(20.9178 -23.1837 -8.92546e-19)
(20.2629 -23.1588 4.59247e-19)
(19.5962 -23.1625 -7.5205e-20)
(18.9702 -23.1107 6.21795e-20)
(18.3995 -23.1388 -5.04034e-20)
(17.8604 -23.1363 3.98119e-20)
(17.3304 -23.1222 0)
(16.8262 -23.1047 -2.21949e-19)
(16.355 -23.096 2.39644e-19)
(15.8956 -23.0831 1.21566e-19)
(15.4473 -23.0371 -5.52711e-20)
(15.0231 -23.052 -5.37338e-20)
(14.6406 -22.963 -1.62108e-20)
(14.2257 -22.8639 1.0307e-19)
(13.7375 -23.1104 -8.99388e-20)
(10.4193 -9.45258 0)
(21.2518 -18.8567 -4.36354e-20)
(23.1262 -21.4979 0)
(22.4095 -21.6245 -6.05658e-19)
(21.6804 -21.6341 4.52901e-19)
(20.9568 -21.706 -1.0599e-19)
(20.2952 -21.7332 0)
(19.6332 -21.7529 7.52091e-20)
(19.0254 -21.7874 -6.21816e-20)
(18.4223 -21.7754 5.04043e-20)
(17.8797 -21.8361 -2.08912e-19)
(17.3847 -21.8912 6.56375e-20)
(16.9094 -21.9573 7.76335e-20)
(16.4385 -21.9781 0)
(16.0049 -22.0231 -6.32302e-21)
(15.5817 -22.0375 3.22171e-22)
(15.1647 -22.044 0)
(14.8208 -22.05 -2.13524e-19)
(14.4683 -21.9916 -8.09413e-20)
(13.9577 -22.158 2.28035e-19)
(10.7007 -8.90534 -3.98166e-19)
(21.3574 -17.5615 3.76695e-19)
(23.0427 -19.8978 -4.43931e-19)
(22.2279 -20.008 -2.98063e-19)
(21.4731 -20.0357 2.92667e-19)
(20.7242 -20.1456 0)
(20.0846 -20.236 2.69484e-19)
(19.4383 -20.3394 -2.45421e-19)
(18.824 -20.3926 7.75372e-20)
(18.2554 -20.4822 -6.75618e-20)
(17.7031 -20.5223 5.72509e-20)
(17.1868 -20.597 3.40714e-20)
(16.7052 -20.6675 -8.25113e-20)
(16.2543 -20.7415 0)
(15.8152 -20.808 2.53021e-19)
(15.3987 -20.8656 -2.49188e-19)
(14.9926 -20.9359 0)
(14.6496 -20.9652 -2.00456e-20)
(14.2988 -21.0595 3.50966e-20)
(13.8565 -21.3395 -4.07301e-19)
(10.9133 -8.34074 2.19386e-19)
(21.3456 -16.2843 -9.04362e-20)
(22.75 -18.2127 -2.01087e-19)
(21.9877 -18.4448 1.98775e-19)
(21.2921 -18.54 7.48007e-20)
(20.5707 -18.6935 -8.1364e-20)
(19.9217 -18.8149 -9.43209e-21)
(19.2936 -18.9415 -1.0802e-19)
(18.704 -19.0769 1.29311e-19)
(18.1329 -19.1702 -9.71398e-21)
(17.605 -19.3161 0)
(17.1096 -19.4042 2.4216e-20)
(16.6567 -19.5687 -3.02864e-20)
(16.1967 -19.6499 0)
(15.777 -19.7701 4.3402e-19)
(15.3718 -19.8683 -3.60593e-19)
(14.952 -19.9379 0)
(14.5979 -19.9947 5.19399e-20)
(14.2354 -20.0316 7.29098e-20)
(13.739 -20.3084 5.6336e-19)
(11.0585 -7.74944 0)
(21.2024 -14.9936 0)
(22.3841 -16.6514 3.46499e-20)
(21.5512 -16.8849 -5.20265e-20)
(20.8395 -17.0247 -5.9194e-20)
(20.1077 -17.2129 6.60376e-20)
(19.4773 -17.3945 0)
(18.8609 -17.5773 1.77088e-19)
(18.2654 -17.73 -2.06144e-19)
(17.7099 -17.8828 -6.81828e-20)
(17.1814 -18.0258 -7.30845e-20)
(16.6716 -18.1635 0)
(16.1949 -18.2793 5.67662e-19)
(15.7868 -18.4686 -5.5879e-19)
(15.3477 -18.5762 0)
(14.9683 -18.7315 -7.04689e-19)
(14.5973 -18.8949 6.28346e-19)
(14.2621 -19.0091 6.69761e-19)
(13.96 -19.1895 -7.27252e-19)
(13.486 -19.475 0)
(11.1431 -7.13064 0)
(20.9522 -13.7093 0)
(21.8833 -15.0751 0)
(21.1182 -15.4027 -3.81405e-20)
(20.4692 -15.5988 0)
(19.7723 -15.8202 0)
(19.1375 -16.0179 0)
(18.5498 -16.2328 -8.70786e-20)
(17.9951 -16.4637 0)
(17.4554 -16.6418 6.8185e-20)
(16.9496 -16.8597 -2.69885e-20)
(16.4938 -17.0434 -8.42696e-19)
(16.0387 -17.2533 6.22431e-19)
(15.5889 -17.3708 -8.87268e-19)
(15.2078 -17.5995 6.58801e-19)
(14.7827 -17.6964 0)
(14.3699 -17.8283 -8.16648e-19)
(14.0026 -17.9002 6.92732e-19)
(13.6865 -18.0804 0)
(13.2924 -18.4346 -1.17706e-19)
(11.2031 -6.54862 1.54376e-19)
(20.5214 -12.3243 6.59712e-20)
(21.2796 -13.597 2.78546e-19)
(20.4777 -13.9334 -3.12821e-19)
(19.8143 -14.1957 -3.52537e-19)
(19.1249 -14.4581 7.26469e-19)
(18.4971 -14.7052 -8.89763e-19)
(17.8996 -14.9296 6.07922e-20)
(17.3355 -15.1708 2.94397e-19)
(16.8075 -15.3855 0)
(16.2996 -15.6102 -2.62232e-20)
(15.8068 -15.8035 -2.50362e-20)
(15.3822 -16.0393 1.0548e-19)
(14.98 -16.27 9.42465e-19)
(14.5622 -16.4399 -8.41484e-19)
(14.2674 -16.745 -1.10767e-18)
(13.9259 -16.9576 9.61905e-19)
(13.555 -17.093 -1.94108e-20)
(13.2128 -17.233 -1.29343e-19)
(12.8182 -17.6122 -9.18328e-19)
(11.2864 -5.93886 -9.6454e-20)
(19.9944 -10.9626 3.89748e-20)
(20.5849 -12.077 -1.20684e-19)
(19.8309 -12.4815 -4.99773e-19)
(19.2444 -12.8206 3.19748e-19)
(18.6063 -13.1428 0)
(18.0052 -13.4426 7.83073e-19)
(17.4527 -13.7239 -3.70413e-19)
(16.9243 -14.0186 2.70054e-19)
(16.4202 -14.258 1.50575e-19)
(15.945 -14.5342 -2.8546e-19)
(15.5083 -14.7669 6.82411e-19)
(15.0531 -14.9982 1.52524e-19)
(14.6626 -15.2281 -8.58608e-19)
(14.2424 -15.4298 2.41727e-18)
(13.7911 -15.5427 -9.92776e-19)
(13.4868 -15.8309 1.28685e-18)
(13.1791 -16.028 -8.38142e-19)
(12.8387 -16.1916 2.78343e-19)
(12.4326 -16.565 1.35666e-18)
(11.4043 -5.32021 5.76117e-19)
(19.3339 -9.68425 -1.09528e-19)
(19.7434 -10.6733 -3.71194e-20)
(18.9568 -11.1158 2.94153e-19)
(18.3367 -11.5039 1.35244e-19)
(17.7329 -11.8717 1.7156e-19)
(17.1367 -12.215 -7.90495e-19)
(16.5817 -12.5033 4.88702e-19)
(16.0735 -12.8422 -1.48994e-19)
(15.5784 -13.1081 -1.50575e-19)
(15.1054 -13.3948 -1.51646e-19)
(14.6613 -13.6585 -1.75385e-19)
(14.2518 -13.9303 -3.27119e-19)
(13.8961 -14.225 1.16148e-18)
(13.5886 -14.5426 -1.61811e-18)
(13.2467 -14.7926 -1.70906e-19)
(12.8475 -14.9689 1.85817e-20)
(12.5583 -15.2158 -1.25921e-18)
(12.2685 -15.4086 9.4251e-19)
(11.8834 -15.7831 -1.51414e-18)
(11.5727 -4.73154 6.50465e-19)
(18.5621 -8.44585 -1.546e-18)
(18.7576 -9.26666 1.04314e-18)
(18.0832 -9.74804 -1.64711e-19)
(17.568 -10.2401 -2.00299e-19)
(17.0307 -10.6579 7.86533e-19)
(16.5169 -11.0963 -9.4535e-19)
(15.9978 -11.43 0)
(15.5176 -11.7896 7.60673e-19)
(15.0845 -12.1233 -7.48016e-19)
(14.6274 -12.4169 -5.55534e-19)
(14.2305 -12.7124 7.20397e-19)
(13.7749 -12.9404 1.74625e-19)
(13.351 -13.1554 -7.3738e-19)
(12.9923 -13.4162 1.68021e-19)
(12.6838 -13.7083 8.90125e-19)
(12.3782 -13.9708 -1.59887e-18)
(12.0542 -14.1881 1.05615e-18)
(11.7705 -14.4102 -1.59896e-20)
(11.4455 -14.8015 -1.49401e-18)
(11.7444 -4.21549 9.7851e-19)
(17.6349 -7.29412 -6.25473e-19)
(17.6897 -8.09821 4.38808e-19)
(17.0001 -8.58953 2.21703e-20)
(16.4046 -9.08746 -8.83403e-19)
(15.8953 -9.52092 -8.4351e-19)
(15.3875 -9.97697 1.0584e-18)
(14.9404 -10.3891 -6.37705e-19)
(14.4591 -10.7758 8.50217e-19)
(14.0466 -11.1369 0)
(13.6416 -11.4981 2.17752e-20)
(13.2758 -11.8356 1.97303e-19)
(12.9686 -12.2152 2.15325e-19)
(12.6071 -12.49 -2.12448e-19)
(12.242 -12.7523 0)
(11.9287 -13.0129 2.06458e-19)
(11.6136 -13.283 0)
(11.3462 -13.5184 3.84846e-19)
(11.0625 -13.7399 1.89328e-18)
(10.7425 -14.0776 -2.71929e-21)
(11.7563 -3.78872 5.52726e-19)
(16.5842 -6.16659 -1.03879e-19)
(16.3925 -6.91424 -1.73052e-18)
(15.928 -7.42014 9.7195e-19)
(15.5191 -8.02226 2.30226e-19)
(15.0753 -8.49479 -2.29711e-19)
(14.6178 -8.96492 -9.70019e-19)
(14.1808 -9.36751 7.26131e-19)
(13.7911 -9.80165 0)
(13.4067 -10.1939 0)
(12.9944 -10.5496 -1.14676e-18)
(12.5872 -10.8534 9.11099e-19)
(12.2161 -11.1768 -2.15324e-19)
(11.921 -11.5298 -6.74321e-19)
(11.5991 -11.8294 -3.76066e-23)
(11.2923 -12.1273 1.51279e-18)
(11.0215 -12.4209 -8.46514e-19)
(10.7502 -12.7011 6.31766e-19)
(10.5078 -12.9505 -1.01717e-18)
(10.2427 -13.3435 0)
(11.607 -3.33089 -4.98286e-19)
(15.4682 -5.21861 8.15501e-19)
(15.328 -6.01718 1.44092e-19)
(14.7524 -6.51445 1.42923e-19)
(14.1958 -7.04146 0)
(13.829 -7.56639 1.07624e-18)
(13.4273 -8.09009 -1.05739e-18)
(13.0443 -8.53604 1.36044e-19)
(12.5911 -8.94342 0)
(12.2698 -9.35637 1.01803e-18)
(11.9988 -9.81607 -8.71619e-19)
(11.6903 -10.1927 9.85284e-19)
(11.3522 -10.5314 -9.69655e-19)
(11.0428 -10.8523 9.51769e-19)
(10.7575 -11.179 -8.16248e-19)
(10.476 -11.4691 -9.18248e-19)
(10.185 -11.7511 1.80631e-18)
(9.96172 -12.037 -7.74108e-19)
(9.69737 -12.2859 1.12239e-19)
(9.43034 -12.6233 9.31192e-19)
(11.2263 -2.83517 -4.12434e-19)
(14.1823 -4.33146 4.55537e-19)
(13.8422 -5.04219 -1.44143e-19)
(13.584 -5.64114 -1.42948e-19)
(13.2201 -6.24157 0)
(12.8135 -6.71787 0)
(12.4645 -7.26314 0)
(12.1617 -7.7375 -2.81932e-19)
(11.8528 -8.21201 -1.11131e-18)
(11.4331 -8.55612 2.18496e-18)
(11.0696 -8.93675 -1.20394e-18)
(10.8182 -9.34108 -1.35599e-19)
(10.5326 -9.71855 0)
(10.2585 -10.0676 0)
(9.99489 -10.4065 -2.48794e-19)
(9.75293 -10.7397 0)
(9.48879 -11.0321 9.58502e-19)
(9.25148 -11.3189 -1.17925e-18)
(9.07071 -11.6136 -1.03344e-18)
(8.82538 -11.9635 9.92337e-19)
(10.6386 -2.33063 4.36204e-19)
(12.9548 -3.56026 8.26663e-19)
(12.7575 -4.30192 4.09593e-21)
(12.3099 -4.83851 2.79388e-21)
(11.8897 -5.46469 1.64961e-19)
(11.5677 -5.9907 -4.62344e-19)
(11.2099 -6.53589 0)
(10.9266 -7.04979 -4.55788e-19)
(10.646 -7.58647 1.52861e-19)
(10.4411 -8.07021 5.80573e-19)
(10.1311 -8.48818 5.67671e-19)
(9.83923 -8.86485 -4.22917e-19)
(9.58932 -9.25007 1.09039e-18)
(9.3473 -9.59915 -9.36174e-19)
(9.09944 -9.93365 1.17455e-18)
(8.90396 -10.2659 -2.18753e-18)
(8.68869 -10.5853 1.00995e-18)
(8.44915 -10.8431 1.20594e-19)
(8.24173 -11.1178 9.63339e-19)
(8.04553 -11.431 -1.03949e-18)
(9.90309 -1.83545 1.539e-19)
(11.6144 -2.84923 -1.69287e-19)
(11.2631 -3.59618 6.95009e-19)
(11.0363 -4.21537 -6.82265e-19)
(10.7505 -4.79686 -3.35481e-19)
(10.4538 -5.34621 -8.2014e-19)
(10.1217 -5.84844 8.25828e-22)
(9.8163 -6.31271 6.36136e-19)
(9.56573 -6.79576 -1.51791e-19)
(9.32265 -7.27177 0)
(9.10012 -7.73709 0)
(8.90795 -8.18203 0)
(8.67184 -8.59297 0)
(8.47304 -8.99601 6.01844e-21)
(8.24249 -9.35679 0)
(8.02487 -9.70365 1.31559e-19)
(7.8727 -10.0647 5.25411e-19)
(7.69938 -10.3902 -1.5463e-18)
(7.52635 -10.6893 1.14215e-18)
(7.33948 -11.0332 -1.07858e-18)
(9.00579 -1.37532 0)
(10.2001 -2.25784 -9.46599e-20)
(9.95282 -2.99305 0)
(9.77014 -3.66922 2.67906e-19)
(9.45116 -4.32123 -1.80969e-19)
(9.20971 -4.91009 -6.91689e-19)
(9.01045 -5.49021 2.085e-21)
(8.76023 -6.00761 6.65888e-19)
(8.46881 -6.45731 -6.49272e-19)
(8.28276 -6.9303 1.27376e-18)
(8.03699 -7.34314 -3.32811e-21)
(7.8262 -7.76416 -6.11524e-19)
(7.63896 -8.15264 5.94758e-19)
(7.48341 -8.55337 -7.28651e-19)
(7.32618 -8.92058 0)
(7.14117 -9.26724 -5.56583e-19)
(6.95437 -9.58892 5.48256e-19)
(6.80062 -9.92199 0)
(6.6525 -10.2206 -1.28532e-19)
(6.49935 -10.575 0)
(8.03192 -0.980972 9.23643e-20)
(8.87207 -1.73851 9.46963e-20)
(8.46358 -2.45017 0)
(8.23517 -3.11309 3.71342e-19)
(8.10954 -3.72548 -4.6164e-19)
(7.90543 -4.32997 2.68258e-19)
(7.67597 -4.87289 -7.95317e-19)
(7.55781 -5.4604 3.46131e-19)
(7.38162 -5.95159 -8.57323e-20)
(7.19617 -6.45339 0)
(7.04686 -6.90576 -8.19381e-20)
(6.9004 -7.36415 -8.00906e-20)
(6.69915 -7.76065 -7.82799e-20)
(6.53418 -8.16382 0)
(6.39421 -8.55273 -5.88281e-19)
(6.25768 -8.92691 1.22753e-18)
(6.12094 -9.27751 -1.05728e-18)
(5.9702 -9.60235 5.53963e-19)
(5.83623 -9.90873 6.83257e-20)
(5.6968 -10.2464 5.75538e-19)
(6.88523 -0.650683 -1.42217e-19)
(7.40329 -1.39721 -2.01757e-19)
(7.08357 -2.11688 1.91332e-22)
(7.06025 -2.80993 5.33036e-19)
(6.87963 -3.41469 -1.45087e-19)
(6.70353 -4.04804 -9.41059e-20)
(6.53907 -4.55155 9.0495e-20)
(6.37738 -5.13249 1.78422e-19)
(6.2126 -5.61773 8.57364e-20)
(6.09241 -6.13454 -3.38969e-19)
(5.90635 -6.57598 3.73311e-19)
(5.78591 -7.02882 8.00934e-20)
(5.68108 -7.45804 3.94478e-19)
(5.53136 -7.84296 -2.29376e-21)
(5.41481 -8.23054 3.60147e-20)
(5.29824 -8.5933 -6.65433e-19)
(5.19594 -8.95647 1.82576e-19)
(5.09874 -9.29605 0)
(4.9961 -9.61294 -3.337e-20)
(4.89249 -9.95824 -2.94915e-19)
(5.6978 -0.469316 4.99131e-20)
(5.9957 -1.24442 -1.03797e-19)
(5.60924 -1.86488 2.03695e-19)
(5.51096 -2.51715 -4.94896e-20)
(5.45861 -3.14943 -4.96017e-20)
(5.40306 -3.78111 0)
(5.24791 -4.33539 -9.31162e-20)
(5.11659 -4.8685 1.82498e-19)
(5.05774 -5.36862 -8.94424e-20)
(4.92216 -5.85836 8.68157e-20)
(4.89301 -6.32695 -4.33456e-20)
(4.74926 -6.76195 -8.28077e-20)
(4.67946 -7.19536 1.62363e-19)
(4.5827 -7.60263 -1.58597e-19)
(4.4769 -7.98657 3.94655e-20)
(4.3827 -8.35359 2.71061e-34)
(4.2775 -8.70793 -3.70659e-20)
(4.19211 -9.04289 2.16518e-19)
(4.10253 -9.36208 -1.06493e-19)
(4.02656 -9.70356 -7.5912e-20)
(-0.0732164 -4.63938 1.69001e-19)
(1.53561 -19.5107 8.35208e-20)
(3.07784 -34.4028 0)
(3.91033 -41.3494 7.79712e-20)
(3.99543 -42.4238 7.16182e-20)
(3.99834 -42.2567 6.65748e-20)
(3.95497 -41.7325 0)
(3.90518 -41.2402 6.19373e-20)
(3.85407 -40.7982 0)
(3.78809 -40.4309 0)
(3.72898 -40.0214 -5.088e-20)
(3.65411 -39.658 3.62898e-21)
(3.57764 -39.3294 9.64898e-20)
(3.50389 -38.9356 0)
(3.4029 -38.5537 4.2517e-20)
(3.34367 -38.1381 4.03924e-20)
(3.20733 -37.6914 3.84277e-20)
(3.17735 -37.1732 0)
(3.0004 -36.7245 -6.91669e-20)
(2.9952 -36.2747 6.70684e-20)
(0.109846 -5.74764 2.56428e-19)
(2.55785 -21.6219 -4.21725e-19)
(4.30848 -36.0547 0)
(5.15641 -41.9118 -3.85371e-19)
(5.2007 -42.4662 3.61621e-19)
(5.14243 -42.1232 -6.11456e-19)
(5.05583 -41.5667 2.68101e-19)
(4.98461 -41.1089 1.8094e-19)
(4.90301 -40.6607 -8.14377e-19)
(4.82063 -40.2125 4.51337e-19)
(4.73577 -39.85 -5.24791e-20)
(4.64365 -39.4668 3.8922e-19)
(4.55673 -39.057 -1.40684e-20)
(4.45888 -38.7044 -3.63148e-19)
(4.36797 -38.3489 -4.25193e-20)
(4.28071 -37.9414 -4.03923e-20)
(4.14228 -37.4755 -3.84255e-20)
(4.07781 -36.9173 0)
(3.88778 -36.4406 -2.72201e-19)
(3.87466 -35.9892 8.68379e-21)
(0.489032 -7.15665 -1.72174e-19)
(3.81923 -23.4729 0)
(5.67818 -37.3645 0)
(6.41517 -42.1697 -1.573e-19)
(6.41766 -42.3749 1.45107e-19)
(6.29348 -41.9337 0)
(6.16737 -41.3786 -1.30484e-19)
(6.04934 -40.8789 3.60357e-19)
(5.93368 -40.411 -3.58348e-19)
(5.81424 -40.0121 4.30305e-19)
(5.70173 -39.5846 -5.2624e-19)
(5.58103 -39.1997 0)
(5.46412 -38.8563 -3.64004e-19)
(5.34645 -38.4593 -3.31327e-19)
(5.20846 -38.0615 5.96368e-19)
(5.09897 -37.6192 -6.20101e-19)
(4.92187 -37.1385 5.36561e-19)
(4.84562 -36.6126 0)
(4.62104 -36.172 -5.99941e-19)
(4.60845 -35.7464 1.02578e-18)
(1.23259 -8.35014 4.25371e-19)
(4.38515 -24.8918 0)
(7.09577 -38.3243 3.29616e-19)
(7.67996 -42.1962 4.51013e-19)
(7.65755 -42.1368 -8.7285e-19)
(7.49147 -41.5847 2.71976e-19)
(7.34271 -41.0533 1.30483e-19)
(7.19565 -40.5753 1.32348e-18)
(7.04926 -40.1151 -1.8434e-18)
(6.90178 -39.6652 -1.78621e-19)
(6.76153 -39.2856 9.39306e-19)
(6.61163 -38.8927 1.91407e-19)
(6.4719 -38.4725 -8.96889e-19)
(6.32032 -38.1001 8.75722e-19)
(6.18643 -37.733 2.44051e-19)
(6.04393 -37.3187 -1.52897e-19)
(5.86578 -36.8524 2.19096e-19)
(5.74913 -36.2948 0)
(5.50593 -35.8311 -6.36283e-20)
(5.47298 -35.3904 0)
(1.52755 -9.11845 0)
(5.76713 -26.074 1.11965e-18)
(8.49904 -38.8783 -1.67425e-18)
(9.04446 -42.0483 1.51269e-18)
(8.92158 -41.8122 -1.17808e-18)
(8.68079 -41.2299 -2.74948e-19)
(8.47872 -40.6857 0)
(8.28477 -40.189 7.01193e-19)
(8.09433 -39.7165 -9.28121e-19)
(7.91102 -39.2994 1.05102e-18)
(7.7347 -38.8684 -8.22075e-19)
(7.55911 -38.4796 -1.91409e-19)
(7.38965 -38.135 8.81785e-19)
(7.22156 -37.7453 -1.52304e-18)
(7.03856 -37.3476 9.59009e-19)
(6.8725 -36.9063 -3.14738e-19)
(6.64982 -36.4151 -7.06076e-19)
(6.52227 -35.8833 1.61762e-18)
(6.24909 -35.4505 -9.18863e-19)
(6.2142 -35.0354 -1.08337e-18)
(2.06894 -10.0956 1.35434e-18)
(6.8072 -27.1411 9.56598e-19)
(9.99556 -39.2223 -1.33718e-18)
(10.2985 -41.6751 -3.03438e-19)
(10.1522 -41.2867 2.87884e-19)
(9.89714 -40.6976 1.05514e-18)
(9.66309 -40.1844 -1.03659e-18)
(9.43804 -39.7063 0)
(9.21889 -39.2488 8.70228e-19)
(8.99897 -38.8121 -8.55716e-19)
(8.79749 -38.4305 -7.69546e-19)
(8.58367 -38.0377 7.57068e-19)
(8.3861 -37.6228 0)
(8.17667 -37.2517 0)
(7.992 -36.8876 1.37432e-18)
(7.78927 -36.4818 -1.34698e-18)
(7.57226 -36.0268 -1.088e-18)
(7.38827 -35.4866 1.07189e-18)
(7.09513 -35.0465 -9.7829e-19)
(7.04697 -34.6033 1.20774e-18)
(2.58968 -10.5985 -9.99497e-19)
(7.95937 -27.889 3.52944e-19)
(11.3807 -39.2251 6.08077e-20)
(11.6854 -41.2356 1.5457e-18)
(11.4069 -40.7621 0)
(11.0994 -40.1772 0)
(10.7995 -39.6222 1.93103e-18)
(10.5251 -39.1386 -8.9527e-20)
(10.2572 -38.6785 -1.77764e-18)
(10.0021 -38.2608 1.59121e-18)
(9.75646 -37.8438 -1.5651e-18)
(9.51986 -37.4711 0)
(9.29149 -37.138 1.32339e-18)
(9.069 -36.7625 -1.30255e-18)
(8.83433 -36.3832 0)
(8.61273 -35.9663 0)
(8.34426 -35.4863 0)
(8.14273 -34.9672 0)
(7.81843 -34.5405 0)
(7.76337 -34.1256 -1.16974e-19)
(3.19333 -11.1529 9.73011e-19)
(9.29286 -28.3726 -1.66055e-18)
(12.8383 -39.0229 0)
(12.9641 -40.5161 0)
(12.6378 -39.9776 2.41404e-18)
(12.2825 -39.4076 1.45913e-19)
(11.9516 -38.9204 -2.20955e-18)
(11.6388 -38.4628 0)
(11.3407 -38.0273 2.06207e-19)
(11.0437 -37.6201 -1.93033e-19)
(10.7763 -37.2517 0)
(10.4947 -36.8718 1.6967e-19)
(10.2359 -36.4826 -1.43316e-18)
(9.96807 -36.1361 2.60201e-18)
(9.729 -35.7908 -5.1414e-20)
(9.46893 -35.412 -1.11111e-18)
(9.20703 -34.9859 -1.24947e-19)
(8.95762 -34.4744 1.17831e-19)
(8.61713 -34.0415 0)
(8.54053 -33.5966 1.06493e-19)
(3.78863 -11.5811 6.32082e-19)
(10.5761 -28.6701 5.58379e-19)
(14.1378 -38.5507 -1.91927e-18)
(14.2529 -39.7796 5.63747e-19)
(13.8219 -39.2351 2.5196e-19)
(13.4334 -38.6887 2.17448e-18)
(13.0295 -38.1511 -3.0245e-18)
(12.6722 -37.7025 2.20121e-18)
(12.3283 -37.276 -1.78473e-18)
(11.9976 -36.8788 2.11479e-18)
(11.6837 -36.496 3.45773e-19)
(11.386 -36.1571 1.45153e-18)
(11.097 -35.8448 -8.13804e-19)
(10.8185 -35.494 -1.57829e-18)
(10.5311 -35.1523 1.39347e-18)
(10.2572 -34.7805 0)
(9.94255 -34.3373 3.61512e-19)
(9.67228 -33.8485 1.0492e-19)
(9.29977 -33.4438 -2.10508e-19)
(9.21354 -33.0178 9.44454e-20)
(4.41543 -11.887 -1.21827e-18)
(11.8431 -28.7368 1.26318e-18)
(15.469 -37.9157 -2.39657e-20)
(15.4378 -38.7789 -1.10645e-18)
(14.9659 -38.2298 -1.02578e-18)
(14.522 -37.7076 -4.87729e-19)
(14.098 -37.2617 -2.06963e-20)
(13.6972 -36.8396 -4.23516e-19)
(13.325 -36.446 0)
(12.9546 -36.0852 -3.69538e-19)
(12.62 -35.7432 -3.45756e-19)
(12.2719 -35.3938 -1.73542e-20)
(11.9543 -35.05 1.1376e-18)
(11.6321 -34.746 -5.82809e-19)
(11.339 -34.4312 -1.28367e-18)
(11.0282 -34.0984 1.00061e-18)
(10.7248 -33.7189 6.61175e-19)
(10.4096 -33.2444 -1.1072e-18)
(10.0236 -32.8245 2.10172e-19)
(9.91482 -32.3958 1.3302e-18)
(5.03865 -12.1096 -2.95383e-18)
(13.09 -28.6529 3.01434e-18)
(16.6449 -37.11 -3.34888e-18)
(16.5872 -37.8055 2.72716e-18)
(16.0342 -37.2835 2.40968e-18)
(15.5639 -36.7923 -1.8728e-18)
(15.0683 -36.2928 -2.4882e-18)
(14.6311 -35.8978 8.58829e-20)
(14.2169 -35.5192 1.50459e-18)
(13.8151 -35.1623 -9.99324e-19)
(13.4388 -34.8315 2.54901e-18)
(13.0833 -34.5382 -1.52761e-18)
(12.735 -34.2557 -2.86806e-19)
(12.4021 -33.9455 7.4659e-19)
(12.0658 -33.66 -1.9506e-18)
(11.7461 -33.3472 9.36533e-19)
(11.3918 -32.969 0)
(11.0614 -32.5325 -1.5741e-18)
(10.6457 -32.141 1.5478e-18)
(10.5277 -31.7125 -1.24922e-18)
(5.66996 -12.2122 5.69619e-19)
(14.2608 -28.3535 6.32481e-19)
(17.7937 -36.1078 2.77711e-18)
(17.626 -36.5701 2.43536e-18)
(17.0402 -36.0903 -1.46337e-18)
(16.5181 -35.636 2.08416e-18)
(16.0115 -35.2424 -1.22935e-18)
(15.5266 -34.865 1.43756e-18)
(15.0893 -34.5306 -2.74979e-18)
(14.6539 -34.2296 9.83993e-19)
(14.2558 -33.9256 0)
(13.8481 -33.6241 0)
(13.4786 -33.3385 0)
(13.1086 -33.0845 -1.88398e-18)
(12.7648 -32.8111 1.85488e-18)
(12.4131 -32.5402 0)
(12.0748 -32.233 0)
(11.7021 -31.8267 -1.76561e-19)
(11.276 -31.4335 0)
(11.1345 -31.0166 -1.47804e-18)
(6.29172 -12.2488 -1.08747e-18)
(15.3884 -27.9471 -2.71975e-18)
(18.8252 -35.0586 -1.96927e-18)
(18.6193 -35.3997 -3.66731e-19)
(17.9541 -34.9513 2.61326e-18)
(17.4062 -34.5358 -5.127e-19)
(16.8391 -34.0943 -8.89618e-20)
(16.3264 -33.7656 -1.74835e-18)
(15.8491 -33.4405 0)
(15.3846 -33.1425 -8.67858e-19)
(14.955 -32.8773 1.39542e-18)
(14.5466 -32.6378 0)
(14.1429 -32.3971 1.8522e-18)
(13.7607 -32.1417 -1.82319e-18)
(13.3822 -31.9239 1.60847e-18)
(13.0222 -31.67 -2.90162e-18)
(12.6383 -31.3681 1.4778e-18)
(12.2621 -31.0165 1.76568e-19)
(11.8104 -30.6516 -1.47881e-19)
(11.6604 -30.2309 1.17469e-18)
(6.88854 -12.1739 -1.46292e-18)
(16.4199 -27.3345 8.2157e-20)
(19.7395 -33.751 1.19918e-19)
(19.4687 -33.9877 3.51023e-18)
(18.7879 -33.6066 3.14442e-19)
(18.1914 -33.2467 -1.89007e-18)
(17.6209 -32.9153 -1.3295e-18)
(17.0617 -32.5899 4.08339e-19)
(16.5689 -32.3266 1.48657e-18)
(16.0798 -32.0901 -1.59304e-18)
(15.6252 -31.8348 7.71841e-19)
(15.1692 -31.5925 -2.02792e-18)
(14.7569 -31.3715 1.57495e-18)
(14.3452 -31.1697 -1.55742e-18)
(13.9579 -30.9516 1.35826e-18)
(13.5779 -30.7665 1.16261e-18)
(13.2133 -30.542 -1.32506e-18)
(12.8013 -30.2249 1.02689e-18)
(12.3479 -29.8849 -9.95406e-19)
(12.1749 -29.4737 -1.16209e-18)
(7.4668 -12.0578 -1.83528e-18)
(17.4041 -26.641 -3.63513e-19)
(20.5942 -32.5061 1.80579e-18)
(20.2514 -32.6536 -1.55898e-18)
(19.5288 -32.2941 1.53072e-18)
(18.901 -31.9766 3.55474e-19)
(18.2794 -31.6166 0)
(17.7021 -31.3604 -2.7217e-19)
(17.1673 -31.0899 7.47667e-19)
(16.6512 -30.8676 -2.64494e-18)
(16.18 -30.6788 1.8621e-18)
(15.7247 -30.5005 4.15516e-19)
(15.2733 -30.3106 2.03962e-19)
(14.8488 -30.1152 0)
(14.4316 -29.955 2.22392e-20)
(14.035 -29.7569 1.17873e-18)
(13.6335 -29.5587 -6.98329e-20)
(13.2315 -29.3151 1.97135e-19)
(12.7595 -29.0057 -9.88711e-19)
(12.5814 -28.5991 2.25865e-19)
(8.00332 -11.8479 1.68405e-18)
(18.2756 -25.7781 -2.92773e-18)
(21.2647 -30.9815 1.64855e-18)
(20.8695 -31.1167 1.4127e-18)
(20.1509 -30.8396 -9.53954e-20)
(19.498 -30.5909 -9.80223e-19)
(18.8761 -30.3367 2.6362e-19)
(18.2574 -30.0762 2.7217e-19)
(17.7204 -29.8873 0)
(17.1865 -29.7101 0)
(16.6845 -29.5119 -1.53656e-18)
(16.1946 -29.3389 2.55888e-18)
(15.7494 -29.1915 -1.38895e-18)
(15.3045 -29.0469 0)
(14.8832 -28.8933 2.32192e-20)
(14.482 -28.7828 -1.12551e-18)
(14.0962 -28.6375 1.10022e-18)
(13.6702 -28.4441 -1.20171e-19)
(13.2119 -28.1906 -8.62092e-19)
(13.0104 -27.783 5.95019e-19)
(8.50888 -11.5887 -1.52456e-18)
(19.0695 -24.8347 1.92622e-18)
(21.9299 -29.5955 0)
(21.4293 -29.6534 0)
(20.6817 -29.3925 2.78971e-19)
(19.9998 -29.1839 -1.33386e-18)
(19.3443 -28.9263 4.10641e-20)
(18.7158 -28.7486 9.35863e-19)
(18.1325 -28.5369 -1.58261e-18)
(17.5809 -28.4013 2.99918e-18)
(17.0797 -28.2914 -1.41925e-18)
(16.5849 -28.1706 3.11024e-19)
(16.0967 -28.0362 1.22163e-18)
(15.6394 -27.9081 3.66102e-20)
(15.189 -27.799 -7.44932e-19)
(14.7601 -27.6538 1.18716e-19)
(14.3476 -27.553 -8.59587e-19)
(13.9392 -27.4249 7.39936e-19)
(13.4781 -27.2335 2.03398e-20)
(13.2837 -26.8498 6.0329e-19)
(8.96067 -11.2486 0)
(19.7157 -23.74 9.52587e-19)
(22.3659 -27.9636 -1.02291e-18)
(21.832 -28.0458 0)
(21.0912 -27.8711 -2.78979e-19)
(20.4045 -27.7358 9.04277e-19)
(19.7503 -27.5705 -1.11838e-18)
(19.0916 -27.391 0)
(18.5188 -27.2737 1.33778e-18)
(17.9463 -27.1458 -1.3155e-18)
(17.4096 -27.0187 1.27493e-19)
(16.9028 -26.926 -1.41999e-19)
(16.433 -26.8506 -1.2879e-19)
(15.9641 -26.7654 -1.16709e-19)
(15.5207 -26.6898 -8.21335e-19)
(15.0996 -26.6347 1.34605e-18)
(14.6881 -26.5547 -1.20589e-18)
(14.2621 -26.4839 1.08005e-18)
(13.8254 -26.3712 -4.29806e-19)
(13.6199 -25.9994 6.3161e-20)
(9.38237 -10.8776 0)
(20.2845 -22.6274 -1.14493e-18)
(22.7949 -26.4705 5.9883e-19)
(22.1621 -26.4906 7.19277e-19)
(21.3928 -26.3269 -8.11619e-20)
(20.674 -26.2279 -7.33322e-20)
(20.0082 -26.0841 -7.46324e-19)
(19.346 -25.9934 0)
(18.7281 -25.8525 0)
(18.1562 -25.8028 0)
(17.6304 -25.7576 -1.27489e-19)
(17.1056 -25.6933 0)
(16.5944 -25.6214 -7.43795e-19)
(16.1106 -25.5514 6.58642e-19)
(15.6339 -25.4889 -5.12619e-19)
(15.1795 -25.4064 9.49261e-19)
(14.7439 -25.378 -4.37765e-19)
(14.3177 -25.3443 -3.60213e-19)
(13.884 -25.3091 5.86185e-19)
(13.6883 -24.9678 -2.72144e-19)
(9.75409 -10.4295 0)
(20.7052 -21.3826 0)
(22.9922 -24.7762 2.52041e-19)
(22.356 -24.8498 2.26908e-19)
(21.6076 -24.7734 0)
(20.8973 -24.7471 6.14589e-19)
(20.2308 -24.6756 -6.03811e-19)
(19.5559 -24.5904 0)
(18.9563 -24.5441 8.32453e-19)
(18.3545 -24.4621 -8.18584e-19)
(17.7987 -24.4162 0)
(17.2867 -24.3978 -5.35181e-19)
(16.8002 -24.3931 1.48787e-19)
(16.3138 -24.3655 4.45468e-19)
(15.8472 -24.3361 0)
(15.3942 -24.3013 0)
(14.9305 -24.2704 0)
(14.4767 -24.2201 -9.15694e-20)
(14.0575 -24.1527 1.21397e-19)
(13.7545 -23.9502 0)
(2.22229 -35.1072 0)
(2.06412 -33.2308 0)
(1.25132 -31.8796 -3.70923e-21)
(1.10568 -30.7191 -2.98304e-21)
(0.690837 -29.8131 0)
(0.513622 -28.8962 1.98893e-22)
(0.330926 -28.1906 1.59316e-21)
(0.193742 -27.6131 0)
(0.109021 -27.1194 7.10422e-22)
(0.025718 -26.6799 0)
(-0.0247684 -26.346 -2.68533e-22)
(-0.0381672 -26.0441 -1.4289e-23)
(-0.0781298 -25.8416 1.43652e-23)
(-0.0457557 -25.6271 -1.90925e-22)
(-0.0889335 -25.5191 0)
(0.00261218 -25.2226 1.0347e-22)
(-0.044216 -24.5739 -5.60781e-22)
(0.0884232 -21.8965 0)
(-0.00651371 -15.6751 0)
(0.0957027 -6.52062 -5.57141e-22)
(3.01043 -34.8954 2.86966e-20)
(2.7504 -33.0482 0)
(1.81882 -31.7711 1.68822e-20)
(1.5515 -30.7031 -1.02547e-20)
(1.05855 -29.8148 0)
(0.811272 -28.8965 -8.28917e-21)
(0.586196 -28.1858 3.07399e-21)
(0.401761 -27.608 0)
(0.287496 -27.1146 4.19492e-22)
(0.170948 -26.679 -1.13604e-21)
(0.0991154 -26.3494 5.88387e-22)
(0.0626381 -26.0497 -3.2633e-22)
(0.00510737 -25.8471 -1.26957e-22)
(0.0209372 -25.6296 7.6446e-23)
(-0.0353074 -25.53 2.48305e-22)
(0.0390277 -25.225 -4.285e-22)
(-0.0155732 -24.5871 8.87283e-22)
(0.107169 -21.9064 1.32806e-21)
(0.00587148 -15.6755 6.86106e-22)
(0.0941517 -6.50788 6.95759e-22)
(3.58037 -34.6221 -1.3668e-20)
(3.12068 -32.8875 -2.42224e-20)
(2.09106 -31.5861 -1.39869e-20)
(1.77077 -30.5108 0)
(1.25405 -29.6375 0)
(0.962624 -28.7717 9.3438e-21)
(0.715678 -28.0924 -1.55672e-21)
(0.507559 -27.5385 -1.23524e-21)
(0.376961 -27.0624 -1.059e-21)
(0.245605 -26.6366 -2.12076e-21)
(0.162472 -26.3184 0)
(0.115245 -26.0259 0)
(0.0485 -25.8304 0)
(0.0576386 -25.6224 9.45096e-22)
(-0.00403986 -25.5245 0)
(0.0668394 -25.2354 1.69407e-21)
(0.00895219 -24.6014 -1.92894e-21)
(0.123044 -21.9219 -7.34276e-22)
(0.0114492 -15.689 -1.35942e-21)
(0.0904926 -6.5003 -2.25248e-21)
(4.33978 -34.3565 4.15534e-20)
(3.77934 -32.6663 -7.85787e-20)
(2.64258 -31.4517 2.73378e-21)
(2.2021 -30.4734 2.49593e-20)
(1.6145 -29.6278 0)
(1.25232 -28.7608 1.13173e-20)
(0.964774 -28.0806 -2.4401e-20)
(0.709664 -27.5268 1.13359e-20)
(0.550251 -27.052 -5.33756e-21)
(0.386863 -26.6308 1.11082e-21)
(0.28243 -26.3168 -4.31408e-22)
(0.213032 -26.0261 2.10466e-22)
(0.129526 -25.8308 -2.11455e-22)
(0.121889 -25.6203 -3.65088e-22)
(0.0481693 -25.5314 -5.82762e-22)
(0.0999096 -25.2364 -1.69306e-21)
(0.0359552 -24.6158 2.44745e-21)
(0.136424 -21.9375 -9.47874e-22)
(0.0203691 -15.6982 5.6132e-22)
(0.0846982 -6.4942 2.19383e-21)
(4.9185 -33.9976 1.07322e-19)
(4.14582 -32.4526 1.81912e-20)
(2.9116 -31.2345 -2.45651e-20)
(2.41303 -30.2563 3.47398e-20)
(1.80589 -29.4359 0)
(1.39902 -28.6228 -6.1201e-21)
(1.09167 -27.9764 4.71644e-21)
(0.813187 -27.4471 0)
(0.637725 -26.9915 1.77849e-22)
(0.460523 -26.5806 0)
(0.344017 -26.2791 -1.23008e-21)
(0.264151 -25.9965 0)
(0.172023 -25.8091 0)
(0.158202 -25.6088 2.39193e-21)
(0.0778632 -25.5206 -1.25583e-21)
(0.123083 -25.2447 1.84753e-21)
(0.0583088 -24.6306 0)
(0.145171 -21.9638 -5.21305e-22)
(0.0225525 -15.7188 5.74073e-22)
(0.0780107 -6.49133 0)
(5.64732 -33.6704 4.28138e-20)
(4.77333 -32.1829 -3.40578e-20)
(3.44381 -31.0726 5.86021e-20)
(2.82919 -30.1983 -5.72839e-20)
(2.15758 -29.4123 1.50696e-20)
(1.68042 -28.6001 6.13914e-21)
(1.33412 -27.9567 -8.50817e-21)
(1.00937 -27.4284 -6.01379e-21)
(0.805643 -26.9754 2.18043e-21)
(0.597433 -26.5697 1.62634e-21)
(0.459732 -26.2722 -1.08773e-21)
(0.358706 -25.9913 0)
(0.250934 -25.8045 0)
(0.219729 -25.602 3.46197e-24)
(0.126797 -25.5224 1.35326e-21)
(0.153005 -25.2439 -1.84574e-21)
(0.0820179 -24.6462 0)
(0.159781 -21.9874 4.60747e-21)
(0.0310775 -15.7353 4.46143e-21)
(0.0705026 -6.49133 2.91133e-22)
(6.21644 -33.2297 -1.18715e-19)
(5.12851 -31.9155 1.10103e-19)
(3.70986 -30.8208 -2.5402e-20)
(3.03487 -29.9579 0)
(2.3439 -29.2076 -1.51336e-20)
(1.82381 -28.4503 1.97026e-20)
(1.45847 -27.8426 -1.12379e-20)
(1.11123 -27.3393 6.03074e-21)
(0.891067 -26.9071 0)
(0.670347 -26.5121 0)
(0.519674 -26.2281 -2.21773e-23)
(0.408549 -25.9564 2.22573e-23)
(0.292132 -25.7781 0)
(0.254372 -25.5856 -3.9389e-21)
(0.153976 -25.5062 1.4515e-21)
(0.173297 -25.2493 2.05385e-21)
(0.105757 -24.6629 -2.06054e-21)
(0.168988 -22.0215 -5.92057e-21)
(0.0326528 -15.7627 -2.93955e-21)
(0.0573571 -6.49446 -6.08578e-22)
(6.90315 -32.8326 0)
(5.72371 -31.5997 -5.6178e-20)
(4.2226 -30.6315 5.63581e-20)
(3.43524 -29.8784 0)
(2.6857 -29.1679 0)
(2.09699 -28.4152 -1.86507e-20)
(1.69392 -27.8141 1.8708e-20)
(1.30143 -27.3132 0)
(1.05315 -26.8852 2.53086e-21)
(0.802781 -26.4961 -3.52506e-21)
(0.630997 -26.2156 9.89527e-22)
(0.499744 -25.9459 -1.41653e-21)
(0.368293 -25.7682 1.42078e-21)
(0.31311 -25.5737 0)
(0.197393 -25.5026 0)
(0.202242 -25.2476 2.13263e-21)
(0.128909 -24.6806 -3.30546e-21)
(0.183808 -22.0497 -5.59299e-23)
(0.0333244 -15.7848 1.84666e-21)
(0.034327 -6.50252 -6.2081e-22)
(7.43765 -32.3114 6.97246e-20)
(6.05898 -31.2802 -6.98117e-20)
(4.48462 -30.3441 -6.35381e-20)
(3.63486 -29.6152 7.32768e-20)
(2.86745 -28.9518 -5.57144e-20)
(2.2379 -28.2551 6.21586e-21)
(1.81635 -27.6909 1.763e-20)
(1.40221 -27.2155 0)
(1.13678 -26.8095 0)
(0.874913 -26.4315 1.09058e-21)
(0.689143 -26.1656 0)
(0.54801 -25.9063 0)
(0.407538 -25.7374 0)
(0.346532 -25.5517 0)
(0.222381 -25.4813 0)
(0.219846 -25.2506 0)
(0.14776 -24.6987 2.40361e-21)
(0.190221 -22.0886 -2.40554e-21)
(0.0363661 -15.8141 6.33773e-22)
(0.00557175 -6.51683 -6.34107e-22)
(8.06888 -31.842 -7.27443e-20)
(6.61935 -30.9214 -9.53091e-20)
(4.97733 -30.129 -1.6901e-20)
(4.0178 -29.5122 -7.97177e-21)
(3.19919 -28.8944 2.03624e-20)
(2.50177 -28.207 3.17992e-20)
(2.04417 -27.6529 6.54562e-21)
(1.58646 -27.1816 0)
(1.29299 -26.7814 -1.11755e-21)
(1.00293 -26.4102 3.17516e-21)
(0.796261 -26.147 -4.74068e-22)
(0.635759 -25.8903 -1.71311e-21)
(0.480212 -25.7225 0)
(0.403947 -25.535 -3.41062e-21)