/*--------------------------------*- C++ -*----------------------------------*\
  =========                 |
  \\      /  F ield         | OpenFOAM: The Open Source CFD Toolbox
   \\    /   O peration     | Website:  https://openfoam.org
    \\  /    A nd           | Version:  9
     \\/     M anipulation  |
\*---------------------------------------------------------------------------*/
FoamFile
{
    format      ascii;
    class       volScalarField;
    location    "3.1";
    object      p;
}
// * * * * * * * * * * * * * * * * * * * * * * * * * * * * * * * * * * * * * //

dimensions      [0 2 -2 0 0 0 0];

internalField   nonuniform List<scalar> 
46400
(
-34.1356
-28.1965
-16.3331
-7.16156
1.36495
9.13524
16.0201
22.3899
28.0388
33.2448
37.9669
42.2869
46.2687
49.947
53.3938
56.6409
59.6507
62.7911
66.0799
67.0107
-11.4232
-5.5352
5.13106
13.8627
21.6329
28.7965
35.1251
40.906
46.0758
50.7639
55.0048
58.839
62.3203
65.4906
68.3736
71.0025
73.3657
75.7195
77.8786
78.178
12.2392
18.1752
27.5598
35.5678
42.5175
48.965
54.6086
59.7896
64.336
68.4721
72.1745
75.5027
78.5008
81.1957
83.634
85.8078
87.7004
89.5597
91.0632
90.6033
36.2788
41.2304
49.3657
56.8119
63.0817
68.8931
73.9411
78.5058
82.5331
86.0969
89.2825
92.0877
94.5798
96.7803
98.7281
100.442
101.903
103.324
104.539
103.866
59.5672
63.6659
71.2602
78.1224
83.8125
88.9847
93.4146
97.3736
100.781
103.786
106.405
108.69
110.673
112.384
113.863
115.11
116.126
117.12
117.868
116.884
81.8237
86.2298
93.1655
99.3674
104.341
108.808
112.569
115.871
118.716
121.128
123.23
125.001
126.518
127.783
128.849
129.713
130.371
131.012
131.524
130.363
104.854
109.575
115.502
120.732
124.893
128.549
131.593
134.184
136.36
138.169
139.666
140.891
141.873
142.641
143.236
143.657
143.902
144.154
144.332
143.006
127.372
132.484
137.112
141.408
144.73
147.576
149.907
151.822
153.399
154.623
155.608
156.328
156.859
157.186
157.369
157.391
157.265
157.155
156.965
155.454
149.948
154.951
158.33
161.456
163.934
165.918
167.514
168.705
169.618
170.235
170.63
170.814
170.824
170.678
170.411
170.018
169.502
169.005
168.425
166.712
171.319
175.093
177.771
179.921
181.681
182.975
183.96
184.593
184.974
185.086
185.018
184.75
184.337
183.764
183.093
182.302
181.42
180.561
179.627
177.699
190.754
193.546
195.586
197.014
198.106
198.768
199.156
199.215
199.053
198.643
198.074
197.351
196.52
195.563
194.515
193.366
192.13
190.923
189.649
187.558
207.648
209.874
211.426
212.339
212.948
213.131
213.078
212.726
212.17
211.36
210.387
209.251
208.02
206.689
205.286
203.802
202.24
200.699
199.098
196.772
223.117
224.776
225.835
226.224
226.347
226.03
225.502
224.699
223.755
222.607
221.303
219.845
218.278
216.624
214.919
213.156
211.354
209.587
207.821
205.385
236.584
237.794
238.464
238.477
238.237
237.564
236.665
235.505
234.194
232.722
231.127
229.38
227.541
225.585
223.581
221.507
219.398
217.321
215.233
212.657
248.318
249.035
249.324
248.95
248.376
247.382
246.162
244.67
243.039
241.25
239.39
237.418
235.387
233.269
231.098
228.863
226.575
224.307
222.027
219.254
258.955
259.044
258.868
258.12
257.187
255.904
254.419
252.655
250.742
248.672
246.512
244.277
241.987
239.652
237.288
234.891
232.465
230.075
227.727
224.888
266.345
266.214
265.736
264.735
263.55
262.099
260.495
258.668
256.685
254.529
252.259
249.874
247.432
244.921
242.392
239.823
237.239
234.686
232.195
229.274
272.801
272.587
271.931
270.637
269.11
267.304
265.374
263.26
261.064
258.72
256.325
253.821
251.291
248.692
246.09
243.448
240.799
238.188
235.673
232.663
275.643
275.308
274.706
273.621
272.248
270.475
268.52
266.323
264.028
261.584
259.08
256.486
253.859
251.183
248.5
245.799
243.087
240.431
237.893
234.898
279.97
276.898
276.626
275.224
273.747
271.873
269.879
267.641
265.311
262.83
260.29
257.659
254.996
252.283
249.564
246.825
244.076
241.381
238.802
235.755
-129.847
-129.914
-129.674
-130.02
-129.676
-128.477
-127.236
-125.193
-123.235
-121.654
-120.263
-118.804
-117.23
-115.809
-114.399
-112.888
-111.437
-110.056
-108.669
-107.19
-130.608
-130.456
-130.961
-130.3
-130.07
-128.013
-125.931
-123.87
-121.931
-120.109
-118.171
-116.211
-114.438
-112.695
-110.974
-109.245
-107.601
-106.017
-104.487
-102.849
-131.01
-130.745
-131.34
-130.452
-128.773
-127.267
-124.912
-122.542
-120.357
-117.982
-115.72
-113.548
-111.491
-109.412
-107.433
-105.519
-103.666
-101.775
-99.9647
-98.1873
-131.051
-131.124
-130.733
-130.775
-128.146
-125.803
-123.363
-121.005
-118.361
-115.822
-113.354
-110.913
-108.596
-106.255
-104.065
-101.876
-99.7573
-97.7105
-95.7867
-93.7914
-133.169
-133.224
-131.952
-131.19
-129.057
-125.982
-123.032
-119.866
-116.911
-113.929
-111.057
-108.272
-105.599
-102.951
-100.489
-98.0028
-95.7066
-93.4549
-91.3532
-89.1651
-135.669
-135.261
-134.985
-132.431
-129.232
-125.889
-122.138
-118.635
-115.149
-111.829
-108.593
-105.462
-102.466
-99.533
-96.7884
-94.0344
-91.5126
-88.9981
-86.6946
-84.3156
-140.252
-139.508
-138.708
-135.01
-130.762
-126.411
-122.019
-117.841
-113.754
-109.842
-106.111
-102.543
-99.1361
-95.8621
-92.8026
-89.7732
-87.0349
-84.3007
-81.8579
-79.2917
-147.641
-146.658
-143.834
-138.682
-132.671
-126.977
-121.68
-116.612
-111.846
-107.354
-103.114
-99.1051
-95.3127
-91.7109
-88.3354
-85.0478
-82.0995
-79.0973
-76.5061
-73.7923
-154.234
-153.313
-147.605
-140.89
-133.638
-126.844
-120.581
-114.799
-109.363
-104.287
-99.5467
-95.0985
-90.9166
-86.9912
-83.315
-79.8027
-76.6311
-73.4227
-70.7295
-67.8257
-160.254
-158.457
-150.06
-141.681
-133.217
-125.509
-118.308
-111.785
-105.741
-100.131
-94.9384
-90.0956
-85.5798
-81.3633
-77.421
-73.7064
-70.3356
-66.9469
-64.1418
-61.088
-160.928
-158.578
-149.467
-139.727
-130.559
-122.13
-114.384
-107.325
-100.817
-94.8028
-89.2518
-84.095
-79.3041
-74.8577
-70.7142
-66.8634
-63.3244
-59.8481
-57.0574
-53.7419
-158.75
-156.474
-146.193
-135.723
-126.027
-117.08
-108.814
-101.333
-94.4219
-88.0499
-82.2002
-76.7759
-71.7646
-67.1197
-62.8072
-58.8217
-55.1369
-51.6319
-48.7078
-45.3132
-154.587
-152.112
-141.773
-129.889
-119.549
-110.174
-101.486
-93.6467
-86.4713
-79.8657
-73.8181
-68.2304
-63.0733
-58.3113
-53.9
-49.8376
-46.0592
-42.5058
-39.4858
-35.9977
-148.202
-144.574
-133.082
-121.452
-110.545
-101.044
-92.1676
-84.1814
-76.8565
-70.1139
-63.9604
-58.2754
-53.0536
-48.2312
-43.7806
-39.7015
-35.8928
-32.3928
-29.3718
-25.8374
-137.838
-133.67
-122.371
-110.899
-99.8788
-90.1976
-81.215
-73.0892
-65.7089
-58.9209
-52.7401
-47.0531
-41.8273
-37.0206
-32.6008
-28.5498
-24.7568
-21.3462
-18.3479
-14.7622
-126.054
-121.209
-109.445
-97.9799
-86.8571
-77.2135
-68.2833
-60.2429
-52.9315
-46.2097
-40.1058
-34.4888
-29.3494
-24.6182
-20.2829
-16.3159
-12.604
-9.33637
-6.38677
-2.79138
-110.946
-106.113
-93.9696
-82.5398
-71.8953
-62.4739
-53.7985
-45.9024
-38.7827
-32.2235
-26.2702
-20.8096
-15.8028
-11.2167
-7.02945
-3.19318
0.381416
3.45509
6.27837
9.77807
-94.4642
-89.1245
-76.7862
-65.9378
-55.4051
-46.2897
-37.8846
-30.2634
-23.3811
-17.0516
-11.3186
-6.06337
-1.26364
3.13767
7.13973
10.8072
14.1988
17.0483
19.7075
23.03
-75.7972
-70.2832
-57.5202
-47.3051
-37.428
-28.6485
-20.7171
-13.4124
-6.88193
-0.856766
4.60785
9.60821
14.1944
18.3814
22.2005
25.7286
28.9387
31.5801
34.0869
37.7321
-55.8535
-50.0667
-37.6675
-27.8853
-18.559
-10.2386
-2.72381
4.14493
10.3342
16.0258
21.2054
25.9662
30.353
34.4172
38.188
41.7425
44.9816
48.0083
51.3474
55.0783
-101.056
-91.7038
-84.6707
-82.3018
-78.7037
-78.164
-76.2264
-75.4331
-74.2095
-73.085
-72.1088
-70.7852
-69.8252
-68.4059
-67.3339
-65.8737
-64.5274
-63.5225
-62.9302
-62.4164
-95.9937
-87.556
-80.1948
-78.211
-74.4303
-73.9707
-72.192
-71.6798
-70.7515
-69.8566
-69.1164
-68.0021
-67.2636
-66.0505
-65.1963
-63.9344
-62.7827
-61.8453
-61.3855
-60.9333
-90.9896
-83.4498
-75.5707
-73.8513
-70.1878
-70.0649
-68.4812
-68.0964
-67.3434
-66.6376
-66.1244
-65.2131
-64.692
-63.6688
-63.0177
-61.9212
-60.9295
-60.2293
-59.8344
-59.3933
-85.7628
-78.9874
-70.897
-69.657
-65.9324
-65.927
-64.5368
-64.4182
-63.9642
-63.482
-63.198
-62.4894
-62.1871
-61.3613
-60.9257
-60.0278
-59.2381
-58.5856
-58.3311
-57.9452
-80.3662
-74.5465
-66.1291
-65.2467
-61.7053
-62.03
-60.8827
-60.9005
-60.6349
-60.3339
-60.2705
-59.758
-59.666
-59.0268
-58.7925
-58.0554
-57.4371
-56.9997
-56.8374
-56.4552
-74.8188
-69.7536
-61.3096
-60.9424
-57.4705
-57.927
-57.0239
-57.2947
-57.3313
-57.2446
-57.4046
-57.0886
-57.2075
-56.7634
-56.7426
-56.2068
-55.8048
-55.3877
-55.3979
-55.0551
-68.9885
-64.9196
-56.4279
-56.4353
-53.2646
-54.031
-53.4204
-53.8352
-54.0707
-54.1625
-54.5371
-54.4102
-54.7337
-54.472
-54.6511
-54.2756
-54.0633
-53.8297
-53.9482
-53.6233
-62.9986
-59.7168
-51.5053
-52.0074
-49.0365
-49.956
-49.6335
-50.297
-50.8384
-51.1363
-51.7257
-51.7908
-52.3173
-52.2471
-52.6394
-52.4695
-52.4939
-52.2514
-52.6023
-52.2818
-56.7386
-54.4336
-46.3597
-47.5018
-44.8518
-46.06
-46.0774
-46.8928
-47.6404
-48.1155
-48.9114
-49.1611
-49.8838
-49.992
-50.5846
-50.5798
-50.8183
-50.7188
-51.2152
-50.9139
-50.0893
-48.9431
-41.2779
-42.9527
-40.6579
-41.9921
-42.3546
-43.4176
-44.4658
-45.1496
-46.1531
-46.5853
-47.5023
-47.8008
-48.6019
-48.8168
-49.3325
-49.1544
-49.9541
-49.6366
-43.2654
-43.1405
-36.1107
-38.2242
-36.5041
-38.094
-38.8379
-40.0683
-41.3306
-42.1913
-43.39
-44.0009
-45.1056
-45.5808
-46.576
-46.971
-47.7124
-47.6697
-48.6439
-48.337
-36.1505
-37.0113
-30.897
-33.5225
-32.3173
-34.0415
-35.1618
-36.656
-38.2117
-39.284
-40.68
-41.4665
-42.7551
-43.4149
-44.614
-45.2488
-46.2384
-46.198
-47.4582
-47.124
-28.6082
-30.7171
-25.544
-28.6849
-28.1724
-30.1481
-31.6678
-33.3578
-35.1319
-36.3862
-37.9676
-38.9239
-40.3899
-41.2204
-42.6078
-43.443
-44.634
-44.7433
-46.2093
-45.8915
-20.4665
-24.2056
-20.1482
-23.8527
-23.9872
-26.1228
-28.0308
-30.012
-32.0732
-33.541
-35.3078
-36.43
-38.0683
-39.0749
-40.6586
-41.7583
-43.1749
-43.349
-45.1131
-44.7414
-11.7228
-17.5047
-14.6371
-18.9207
-19.8593
-22.2599
-24.562
-26.7781
-29.0607
-30.7169
-32.6583
-33.9387
-35.7424
-36.909
-38.6724
-40.0144
-41.5909
-41.9782
-44.0268
-43.5586
-2.09846
-10.4171
-8.99805
-13.9107
-15.6349
-18.2382
-20.9177
-23.4651
-26.0368
-27.912
-30.0322
-31.4708
-33.4371
-34.7677
-36.7248
-38.3626
-40.133
-40.5881
-43.0543
-42.507
7.65753
-3.2741
-3.31396
-8.80573
-11.4289
-14.3364
-17.3815
-20.2112
-23.0233
-25.1
-27.3896
-28.974
-31.0919
-32.5597
-34.698
-36.5403
-38.5178
-39.075
-41.9412
-41.3034
17.5622
3.50981
2.01054
-3.95208
-7.41232
-10.6159
-13.9936
-17.167
-20.2442
-22.5163
-24.9491
-26.6547
-28.9042
-30.5068
-32.8065
-35.0447
-37.0351
-37.7186
-40.9983
-40.1347
32.079
11.8112
7.81108
1.02886
-3.45801
-7.05469
-10.726
-14.2408
-17.5506
-20.0234
-22.6049
-24.4281
-26.8111
-28.5525
-31.0388
-33.7673
-35.688
-36.6883
-40.4528
-39.5958
48.9412
22.9908
15.4894
7.59116
2.09038
-1.71599
-5.79193
-9.81202
-13.6025
-16.4421
-19.3243
-21.4062
-24.0115
-25.9008
-28.7153
-31.4893
-34.3837
-35.1862
-39.6775
-37.9247
72.7741
66.7478
51.3684
43.1587
32.8092
26.4351
19.6826
14.4655
8.91649
4.40194
-0.245328
-3.68276
-7.08765
-9.02019
-12.4196
-12.4515
-18.4588
-18.6143
-24.9695
-18.9221
107.411
94.2468
76.0202
64.7278
53.0311
43.7857
35.1501
28.412
22.7227
17.9101
13.7438
9.68624
5.78833
2.26031
-0.92649
-4.33318
-6.85022
-9.53177
-10.8659
-10.8962
106.859
94.5597
83.1288
73.6054
65.0379
57.2313
50.4169
43.9423
38.0058
32.8698
28.4057
24.77
21.377
18.7237
16.1854
14.3312
12.2593
10.7306
9.95543
9.66754
105.435
97.5069
89.8092
81.0714
73.5619
66.1166
59.526
53.4852
48.3554
43.3466
38.8342
34.4791
30.813
27.1507
24.2396
21.278
19.1238
16.9744
16.024
15.7436
96.4122
89.718
83.7308
77.8653
72.8197
67.5562
62.8016
58.168
53.8688
49.963
46.2852
43.0279
39.9625
37.2838
34.8659
32.6374
30.8756
29.0066
28.0675
27.7058
92.5559
88.2759
85.2189
80.5259
76.2446
71.7108
67.5066
63.3089
59.4138
55.6128
52.0761
48.6694
45.5371
42.5391
39.851
37.3038
35.1032
33.1816
31.9586
31.5647
85.8885
82.7787
79.7712
76.4776
73.4611
70.4285
67.3546
64.4149
61.4139
58.6471
55.8001
53.218
50.5837
48.147
45.7642
43.3848
41.2611
38.9539
37.4693
37.3343
84.1078
81.9578
80.4045
77.9918
75.278
72.6694
70.1144
67.4803
64.8455
62.2657
59.6382
57.1449
54.5665
52.1486
49.6654
47.2605
44.9445
42.5301
41.0894
40.461
80.3057
78.7454
77.0692
75.3538
73.9173
72.0773
70.1552
68.2825
66.2356
64.3455
62.2037
60.283
58.0407
56.0411
53.6521
51.4486
48.8387
46.3207
44.2489
43.4637
80.0744
78.9876
78.1469
76.8768
75.4234
73.7986
72.2338
70.7186
69.0119
67.3982
65.5511
63.8638
61.8245
60.0357
57.7042
55.7085
52.8412
50.5632
47.8098
47.0809
78.6794
77.7605
76.9665
76.2028
75.4241
74.5754
73.4428
72.3342
71.0939
69.9487
68.588
67.3811
65.8433
64.5308
62.6664
61.1572
58.5171
56.9403
53.122
52.9269
79.0956
78.8252
78.2893
77.6976
76.8878
76.1891
75.3733
74.6384
73.7825
73.0081
72.0659
71.2621
70.1762
69.3746
68.0445
67.3244
65.2288
65.1485
61.119
62.8282
79.1637
78.9176
78.6243
78.3815
78.0365
77.7255
77.2832
76.901
76.4355
76.0803
75.7045
75.3665
75.1601
74.8304
74.8041
74.4866
74.4744
74.5353
75.2238
77.1368
79.9925
79.9217
79.6758
79.5423
79.3148
79.2124
79.0293
78.9912
78.861
78.9034
78.8767
79.0368
79.2219
79.5021
80.1035
80.4275
81.858
82.12
85.0188
85.8851
80.5991
80.6446
80.6217
80.6785
80.6577
80.7583
80.7633
80.9661
81.0433
81.4121
81.5993
82.2288
82.6255
83.7155
84.4088
86.0917
87.334
89.6453
92.4167
93.3156
81.2919
81.4087
81.4724
81.6363
81.7757
82.0115
82.2502
82.5896
82.9556
83.4714
84.0171
84.7932
85.5375
86.5882
87.5707
89.1027
90.472
92.7943
95.0266
98.9204
81.9095
82.0827
82.235
82.4673
82.6776
82.9985
83.2769
83.7286
84.1193
84.7175
85.2212
86.0357
86.7046
87.8057
88.71
90.1872
91.317
93.2451
94.0727
102.88
82.4551
82.6648
82.8882
83.1658
83.4711
83.8363
84.25
84.7237
85.2231
85.8577
86.4906
87.3135
88.0385
89.1068
89.899
91.2616
92.0422
93.9456
94.7542
97.3188
82.795
83.0152
83.2534
83.555
83.8675
84.2667
84.6606
85.1723
85.6774
86.3185
86.9274
87.7148
88.4251
89.3824
90.1571
91.2988
92.0448
93.1907
93.549
98.8984
82.9811
83.2091
83.4836
83.7896
84.1512
84.5472
85.0059
85.5092
86.0715
86.6976
87.3716
88.1363
88.9141
89.8384
90.693
91.8108
92.6745
94.0621
94.7642
96.5677
200.441
200.132
199.056
197.655
195.261
192.691
189.058
185.196
180.538
175.406
169.674
163.359
156.631
148.548
140.943
132.379
123.221
114.291
105.383
95.9598
171.245
171.088
170.685
169.984
168.995
167.809
166.197
164.583
162.33
160.257
157.421
154.978
151.365
146.922
142.911
139.711
135.888
132.137
127.831
123.574
134.051
134.073
133.951
133.748
133.421
132.977
132.461
131.784
131.026
130.171
129.15
128.115
126.803
125.639
124.019
122.555
120.706
119.065
116.956
115.383
121.808
121.831
121.771
121.679
121.455
121.257
120.851
120.512
119.972
119.461
118.775
118.126
117.295
116.533
115.566
114.721
113.601
112.691
111.396
110.564
103.409
103.439
103.453
103.401
103.36
103.234
103.128
102.949
102.765
102.559
102.283
102.054
101.726
101.463
101.046
100.728
100.223
99.8779
99.274
98.9626
97.6074
97.6497
97.6547
97.6638
97.6179
97.5935
97.4974
97.4344
97.2937
97.1649
96.9927
96.8025
96.5546
96.3283
96.0212
95.7709
95.3875
95.1122
94.6386
94.4011
89.1499
89.1754
89.1935
89.182
89.1695
89.1259
89.0763
89.0082
88.9144
88.8264
88.693
88.5772
88.4135
88.2717
88.0734
87.9025
87.6613
87.4666
87.1778
86.9816
86.2938
86.3252
86.3386
86.3505
86.3379
86.3288
86.2919
86.2608
86.2006
86.1466
86.0631
85.9872
85.8769
85.7791
85.6412
85.5239
85.3564
85.2223
85.015
84.8748
82.7514
82.7714
82.7829
82.7797
82.7673
82.7431
82.706
82.6623
82.5994
82.5394
82.4513
82.3742
82.2603
82.158
82.0137
81.8788
81.7023
81.5292
81.3039
81.0628
81.3703
81.3923
81.405
81.4121
81.4078
81.3999
81.3787
81.3573
81.3211
81.29
81.2367
81.2001
81.1235
81.0782
80.9712
80.8946
80.7742
80.6764
80.5478
80.4152
80.3977
80.417
80.4271
80.4287
80.4196
80.399
80.373
80.3369
80.2951
80.244
80.1856
80.1235
80.037
79.9608
79.8132
79.6739
79.4878
79.3402
79.1441
78.9912
79.8914
79.9201
79.9405
79.9586
79.9526
79.9407
79.9342
79.9194
79.8941
79.8626
79.8293
79.7893
79.7517
79.7098
79.6632
79.6016
79.5408
79.4697
79.3853
79.3131
79.9468
79.9768
80.0001
80.0155
80.0282
80.0321
80.0224
80.0101
79.9889
79.9674
79.937
79.9055
79.8649
79.8184
79.7588
79.6868
79.5933
79.506
79.4059
79.3076
80.2807
80.2956
80.3086
80.3183
80.3263
80.3299
80.3344
80.3325
80.3326
80.3254
80.3204
80.3086
80.2973
80.2824
80.2616
80.245
80.2201
80.1913
80.1626
80.1176
80.5882
80.6046
80.6183
80.6318
80.6421
80.6527
80.6592
80.6668
80.6699
80.6742
80.6741
80.6748
80.6721
80.6689
80.6647
80.6578
80.6527
80.6429
80.6362
80.6235
81.1048
81.1185
81.133
81.1457
81.1593
81.1709
81.1837
81.1942
81.206
81.2152
81.2259
81.2339
81.2431
81.2504
81.2578
81.2634
81.2691
81.2733
81.2781
81.2809
81.4856
81.5012
81.5168
81.5337
81.55
81.568
81.5849
81.6039
81.6215
81.6413
81.6598
81.68
81.6998
81.7198
81.7405
81.7608
81.7827
81.803
81.8261
81.8464
81.8902
81.9045
81.921
81.9363
81.9543
81.9722
81.9925
82.0128
82.0353
82.0575
82.0822
82.1084
82.136
82.1647
82.1944
82.225
82.257
82.2893
82.324
82.3578
82.1534
82.1682
82.1848
82.2035
82.2247
82.2485
82.2716
82.2983
82.3222
82.3495
82.3772
82.4057
82.4354
82.4665
82.4992
82.5336
82.5693
82.6068
82.6459
82.6864
82.2837
82.2997
82.3187
82.3382
82.3603
82.3814
82.4059
82.4304
82.4577
82.4869
82.5172
82.5488
82.582
82.6165
82.6527
82.6901
82.7292
82.7702
82.8139
82.8587
54.8934
53.8669
50.3729
46.9899
43.7614
40.2868
36.6088
32.6974
28.4777
23.9054
18.9315
13.4676
7.53583
0.883908
-6.31941
-14.4179
-23.2925
-32.8416
-45.1309
-51.3221
66.5411
66.1243
63.8095
61.264
58.7253
55.9143
52.8388
49.4674
45.7682
41.7105
37.232
32.2899
26.8591
20.8074
14.1885
6.69973
-1.41195
-10.5036
-21.5972
-27.6961
79.6
80.0039
78.3871
76.3529
74.2924
71.9382
69.3103
66.4178
63.2156
59.6734
55.7507
51.3948
46.6079
41.1881
35.2734
28.5448
21.3056
12.9804
3.22207
-2.98547
93.5332
94.1037
92.7596
91.1648
89.5441
87.6722
85.5605
83.1907
80.5175
77.5264
74.1478
70.3697
66.1214
61.327
56.0264
49.9389
43.3861
35.639
27.1523
22.0296
107.011
107.955
107.156
106.035
104.905
103.535
101.917
100.056
97.9119
95.4578
92.6531
89.4628
85.8531
81.6884
77.0191
71.6009
65.6565
58.4967
50.6069
46.3357
121.144
122.295
121.748
120.99
120.218
119.236
118.039
116.635
114.969
113.041
110.776
108.182
105.146
101.642
97.655
92.9494
87.7217
81.2484
74.0242
69.4634
134.379
135.732
135.541
135.204
134.873
134.358
133.657
132.77
131.659
130.297
128.645
126.674
124.324
121.548
118.289
114.411
110.021
104.525
98.3112
93.4704
147.871
149.389
149.469
149.471
149.486
149.345
149.036
148.576
147.907
147.036
145.899
144.507
142.752
140.646
138.111
135.055
131.51
126.951
122.036
116.818
159.823
161.477
161.96
162.346
162.764
163.057
163.219
163.255
163.126
162.82
162.29
161.528
160.463
159.113
157.343
155.183
152.51
149.16
145.576
140.327
171.556
173.466
174.314
175.081
175.876
176.566
177.131
177.585
177.875
178.007
177.934
177.672
177.135
176.34
175.188
173.719
171.762
169.404
166.516
162.474
182.144
184.175
185.343
186.444
187.577
188.62
189.561
190.407
191.125
191.73
192.175
192.462
192.503
192.325
191.808
191.012
189.77
188.197
185.99
183.017
191.962
194.232
195.756
197.215
198.697
200.093
201.406
202.637
203.767
204.791
205.654
206.355
206.804
207.044
206.965
206.646
205.881
204.816
203.091
200.705
201.277
203.634
205.298
206.963
208.668
210.328
211.934
213.487
214.96
216.328
217.556
218.625
219.493
220.192
220.607
220.804
220.555
220.049
218.847
217.043
208.97
211.432
213.467
215.485
217.531
219.543
221.492
223.388
225.179
226.872
228.416
229.822
231.048
232.103
232.89
233.459
233.592
233.475
232.673
231.334
215.964
218.655
220.942
223.19
225.453
227.658
229.804
231.888
233.885
235.807
237.607
239.317
240.861
242.263
243.415
244.339
244.844
245.139
244.736
243.893
222.165
224.947
227.325
229.714
232.134
234.513
236.865
239.166
241.428
243.61
245.722
247.721
249.582
251.286
252.733
253.961
254.822
255.478
255.529
255.247
227.106
229.976
232.496
235.053
237.63
240.183
242.698
245.18
247.603
249.953
252.213
254.343
256.332
258.131
259.73
261.123
262.267
263.216
263.644
263.758
231.096
234.053
236.605
239.227
241.881
244.519
247.126
249.717
252.252
254.744
257.148
259.472
261.675
263.744
265.664
267.38
268.883
270.05
270.709
270.789
233.906
236.88
239.471
242.155
244.88
247.594
250.285
252.967
255.597
258.193
260.693
263.132
265.411
267.59
269.512
271.25
272.583
273.569
274.054
274.133
235.376
238.368
240.98
243.698
246.451
249.2
251.924
254.645
257.315
259.956
262.509
265
267.352
269.598
271.628
273.503
275.056
276.425
277.355
278.078
-127.801
-129.573
-131.242
-132.954
-134.794
-136.655
-138.46
-140.229
-142.148
-144.232
-146.17
-148.11
-150.204
-152.318
-153.814
-155.688
-155.922
-155.956
-156.113
-156.093
-123.469
-125.399
-127.228
-129.125
-131.091
-133.133
-135.196
-137.351
-139.482
-141.764
-144.096
-146.497
-148.757
-151.208
-153.61
-155.043
-155.445
-157.589
-156.906
-157.834
-118.881
-120.939
-123.014
-125.212
-127.386
-129.646
-131.957
-134.387
-136.814
-139.355
-141.912
-144.637
-147.425
-149.967
-152.345
-154.534
-156.943
-157.387
-157.259
-157.504
-114.336
-116.613
-118.842
-121.194
-123.609
-126.145
-128.673
-131.401
-134.093
-136.929
-139.847
-142.855
-145.871
-148.774
-151.803
-154.767
-157.045
-157.285
-158.604
-158.273
-109.698
-112.125
-114.506
-117.054
-119.648
-122.482
-125.285
-128.293
-131.353
-134.54
-137.81
-141.225
-144.656
-148.283
-151.767
-155.313
-158.234
-159.904
-160.946
-160.937
-104.612
-107.224
-109.789
-112.613
-115.434
-118.542
-121.648
-124.98
-128.387
-131.956
-135.662
-139.477
-143.462
-147.457
-151.841
-155.753
-159.332
-162.752
-163.148
-163.53
-99.1424
-101.986
-104.715
-107.812
-110.874
-114.277
-117.721
-121.399
-125.24
-129.267
-133.477
-137.908
-142.528
-147.319
-152.275
-157.463
-162.663
-167.134
-168.208
-169.141
-93.2111
-96.2406
-99.1221
-102.489
-105.783
-109.445
-113.214
-117.24
-121.474
-125.958
-130.709
-135.736
-141.086
-146.769
-152.781
-159.296
-165.882
-172.032
-175.835
-176.756
-86.7729
-90.0169
-93.0228
-96.5941
-100.126
-104.024
-108.101
-112.451
-117.084
-122.012
-127.248
-132.865
-138.874
-145.271
-152.216
-159.738
-167.723
-175.694
-181.851
-182.471
-79.6768
-83.0669
-86.1837
-89.8913
-93.5998
-97.6846
-102.013
-106.65
-111.608
-116.925
-122.633
-128.78
-135.404
-142.539
-150.417
-158.829
-168.063
-177.586
-185.824
-188.01
-71.7641
-75.4114
-78.4807
-82.3306
-86.2069
-90.4377
-94.9753
-99.836
-105.068
-110.695
-116.731
-123.271
-130.346
-138.004
-146.394
-155.512
-165.485
-176.184
-185.544
-188.135
-62.9515
-66.6195
-69.8103
-73.6475
-77.6639
-81.998
-86.6792
-91.7209
-97.1498
-103.021
-109.359
-116.242
-123.703
-131.776
-140.702
-150.381
-160.932
-172.423
-182.576
-184.3
-53.0611
-56.8155
-60.1189
-63.9889
-68.0766
-72.4846
-77.25
-82.3858
-87.9373
-93.945
-100.42
-107.481
-115.144
-123.478
-132.688
-142.642
-153.629
-166.039
-177.359
-180.298
-42.4237
-46.2046
-49.4802
-53.2852
-57.378
-61.7711
-66.5532
-71.728
-77.3231
-83.4025
-89.9866
-97.173
-104.964
-113.435
-122.839
-132.876
-144.254
-156.515
-168.329
-172.044
-30.7993
-34.5868
-37.8212
-41.5293
-45.5854
-49.932
-54.6611
-59.7923
-65.3587
-71.4118
-77.9632
-85.1433
-92.9438
-101.499
-110.937
-121.104
-132.712
-144.777
-156.776
-161.293
-18.2314
-22.0396
-25.2077
-28.759
-32.7259
-36.9662
-41.5961
-46.6379
-52.1067
-58.0675
-64.5447
-71.6468
-79.3544
-87.8005
-97.1589
-107.272
-118.821
-130.829
-143.052
-148.076
-5.02696
-8.77827
-11.8088
-15.1271
-18.9419
-23.0313
-27.4856
-32.3529
-37.6533
-43.433
-49.7102
-56.6118
-64.1014
-72.3752
-81.4604
-91.3071
-102.455
-114.366
-127.06
-132.177
8.87732
5.28494
2.4452
-0.628416
-4.24838
-8.15765
-12.4195
-17.0943
-22.1859
-27.7438
-33.8029
-40.4639
-47.6904
-55.6646
-64.44
-73.9754
-84.9175
-96.2189
-109.035
-114.568
24.1777
20.2351
17.5669
14.7406
11.3222
7.57333
3.52349
-0.906142
-5.74565
-11.0232
-16.7685
-23.089
-29.9425
-37.5748
-45.8693
-55.0252
-65.3256
-75.9691
-89.224
-94.9765
42.1873
38.1966
34.7089
31.5084
28.089
24.3274
20.3306
16.0295
11.3858
6.3586
0.894151
-5.09027
-11.5824
-18.7619
-26.6038
-35.2968
-44.9985
-55.1766
-68.0564
-74.0708
-71.0707
-71.6315
-72.2902
-73.5291
-75.018
-76.7992
-78.0673
-79.8609
-81.1421
-82.8728
-84.2879
-85.8909
-87.6361
-89.0472
-91.6211
-92.9947
-97.4094
-100.944
-109.371
-120.264
-69.5717
-70.0824
-70.5932
-71.7687
-73.0539
-74.6649
-75.6976
-77.2886
-78.3335
-79.849
-81.0178
-82.3886
-83.8387
-84.9711
-87.3635
-88.6419
-93.2484
-96.39
-105.304
-115.106
-68.0201
-68.532
-68.9434
-69.9291
-71.0103
-72.4569
-73.2767
-74.689
-75.5117
-76.8261
-77.7564
-78.9342
-80.1857
-81.1853
-83.3697
-84.3045
-88.8195
-91.6571
-100.997
-109.981
-66.544
-67.0128
-67.2779
-68.2039
-69.0834
-70.364
-70.9515
-72.164
-72.7566
-73.8643
-74.5528
-75.5095
-76.4504
-77.18
-79.1537
-79.9646
-84.5537
-86.8661
-96.5218
-104.684
-65.035
-65.5046
-65.655
-66.4095
-67.08
-68.1967
-68.5751
-69.6109
-69.9895
-70.9005
-71.3568
-72.1258
-72.8655
-73.4623
-75.1596
-75.6247
-80.0546
-81.9769
-91.8469
-99.2278
-63.5959
-64.0292
-64.0202
-64.7266
-65.1894
-66.138
-66.2859
-67.1292
-67.2842
-67.9951
-68.2156
-68.7681
-69.184
-69.5145
-70.9705
-71.2904
-75.6468
-76.9882
-86.927
-93.2994
-62.1391
-62.5761
-62.4261
-62.9836
-63.2272
-64.012
-63.9522
-64.6188
-64.5672
-65.0866
-65.0801
-65.4492
-65.6588
-65.8521
-66.9652
-66.9582
-71.0544
-71.9574
-81.8412
-87.038
-60.7493
-61.1552
-60.823
-61.351
-61.3713
-61.9827
-61.6965
-62.1741
-61.9093
-62.2322
-62
-62.1493
-62.0305
-61.9644
-62.7963
-62.6159
-66.4972
-66.8254
-76.4558
-80.6494
-59.3514
-59.767
-59.2557
-59.6676
-59.4492
-59.8931
-59.4028
-59.7002
-59.241
-59.3724
-58.9231
-58.8909
-58.5545
-58.3367
-58.7758
-58.2864
-61.818
-61.5979
-70.9836
-74.2345
-58.0193
-58.4126
-57.6732
-58.1007
-57.6335
-57.8843
-57.1789
-57.2917
-56.626
-56.5666
-55.8989
-55.6463
-54.9818
-54.5065
-54.5987
-53.9589
-57.0997
-56.3273
-65.1996
-67.4302
-56.6832
-57.0622
-56.1568
-56.4636
-55.749
-55.8222
-54.9189
-54.85
-54.0028
-53.7546
-52.882
-52.442
-51.5507
-50.9023
-50.5607
-49.636
-52.2608
-50.9918
-59.1993
-60.3349
-55.4137
-55.8011
-54.6619
-54.9118
-53.9688
-53.8275
-52.7214
-52.4668
-51.4291
-50.9938
-49.9134
-49.2505
-48.0351
-47.1126
-46.3765
-45.3082
-47.4002
-45.5733
-52.8264
-52.8651
-54.1402
-54.5045
-53.2065
-53.2836
-52.1208
-51.7829
-50.4882
-50.057
-48.8472
-48.2282
-46.9538
-46.095
-44.6449
-43.5185
-42.3232
-40.9803
-42.4304
-40.0316
-46.3344
-44.9186
-52.9359
-53.3517
-51.7686
-51.7457
-50.3741
-49.7976
-48.3106
-47.6984
-46.3147
-45.5142
-44.0437
-42.9581
-41.1899
-39.758
-38.1347
-36.6522
-37.4511
-34.437
-39.5561
-36.3212
-51.7137
-52.2235
-50.3688
-50.1303
-48.5679
-47.7712
-46.1071
-45.3269
-43.784
-42.8073
-41.1546
-39.8643
-37.853
-36.1745
-34.0842
-32.3391
-32.3717
-28.7208
-32.6166
-27.1107
-50.6056
-51.1973
-48.9581
-48.5968
-46.8437
-45.7862
-43.9353
-42.9819
-41.279
-40.1247
-38.2838
-36.7565
-34.4256
-32.3944
-29.8691
-27.9831
-27.2301
-22.8862
-25.2228
-16.9814
-49.3743
-50.0519
-47.428
-46.9531
-45.0016
-43.72
-41.706
-40.5911
-38.742
-37.4204
-35.4047
-33.6602
-31.0717
-28.7517
-25.7761
-23.6215
-21.9715
-16.9616
-17.8088
-6.74336
-48.1559
-49.1004
-46.0475
-45.4118
-43.3779
-41.7819
-39.6154
-38.3564
-36.3824
-34.914
-32.7432
-30.7815
-27.896
-25.1928
-21.7802
-19.4599
-17.0117
-11.4279
-10.7147
3.73514
-47.5274
-48.5453
-44.9655
-44.0085
-41.9476
-39.9581
-37.6202
-36.2209
-34.1232
-32.5087
-30.1749
-27.9823
-24.8104
-21.6926
-17.8907
-15.3629
-11.9142
-5.48657
-2.00469
18.9002
-45.8612
-47.7545
-43.4925
-42.6381
-39.6634
-37.5956
-34.9716
-33.3933
-31.0802
-29.1858
-26.5665
-23.9808
-20.331
-16.6756
-12.6028
-9.92806
-5.1245
2.33684
9.71687
36.213
-27.6594
-33.2134
-27.4717
-26.8494
-21.6677
-21.4096
-18.2864
-16.1843
-12.9934
-9.65877
-5.50766
-1.15482
3.89361
8.41659
14.8557
21.5367
32.1043
40.2337
56.6705
61.5823
-18.9528
-18.8473
-17.5861
-14.9267
-12.5615
-9.10091
-6.01142
-2.60962
1.1437
5.10517
9.39188
14.2326
19.9175
27.0696
35.7826
45.1543
57.197
68.105
87.257
99.1771
2.46819
2.77545
3.47426
4.99605
6.9724
8.81668
11.3172
13.9735
17.3821
21.0435
25.5142
30.6065
36.6298
43.1378
50.1625
58.0809
67.0257
76.7547
88.6581
101.372
9.03257
9.33839
10.2315
12.4098
14.5787
17.5719
20.5092
24.2123
27.9097
32.3102
36.9305
42.0538
47.3681
53.5083
60.325
68.0072
75.8683
84.8432
93.4174
101.285
21.8347
22.173
23.1075
25.0109
26.7724
29.0342
31.4753
34.2133
37.3281
40.6866
44.4439
48.494
52.9203
57.7469
62.7168
68.2158
73.5723
79.7202
86.0115
93.1282
26.1988
26.6139
27.8467
29.7845
32.0085
34.595
37.3377
40.3956
43.6185
47.1067
50.7861
54.6937
58.7937
63.117
67.5987
72.2882
76.9459
82.0177
85.5305
90.0648
32.6427
32.7909
34.282
36.6207
38.7571
41.1973
43.6182
46.1439
48.846
51.5495
54.4943
57.4181
60.5484
63.6837
66.9252
70.1842
73.4511
76.8336
80.252
83.4888
36.2851
36.9189
38.3624
40.7909
43.1278
45.5712
48.1104
50.595
53.2639
55.8467
58.6032
61.2933
64.1012
66.8621
69.6339
72.5322
75.4607
78.0676
79.9054
82.3774
39.7206
40.536
42.5786
45.1556
47.7723
50.0499
52.483
54.577
56.8952
58.9302
61.1813
63.1975
65.3988
67.3898
69.5414
71.3838
73.0911
74.9071
76.8263
78.682
43.6652
44.4302
47.1674
49.5057
52.4013
54.4598
56.8525
58.7207
60.8416
62.6313
64.5735
66.3237
68.1264
69.8288
71.6543
73.3655
75.1182
76.3307
77.7143
78.385
49.7508
49.9887
53.8112
55.4506
58.1559
59.7434
61.6861
63.0818
64.7198
66.0194
67.5107
68.7522
70.1656
71.3707
72.551
73.5391
74.479
75.4283
76.4379
77.5303
59.8417
58.2056
62.3016
62.4804
64.6266
65.4256
66.8229
67.7056
68.8699
69.7674
70.7972
71.6826
72.6404
73.4932
74.4665
75.3123
76.2721
77.0255
77.6692
78.1092
74.4263
72.5248
71.9577
71.9183
72.0438
72.3997
72.5274
72.9193
73.229
73.6426
74.1284
74.5724
75.1542
75.6457
76.1751
76.6124
77.0728
77.4446
77.8768
78.2701
83.5412
82.6286
79.8478
79.6106
78.2456
77.9924
77.4455
77.2411
77.1236
77.0418
77.1453
77.1889
77.4156
77.5374
77.8398
78.0432
78.3944
78.6468
79.0147
79.2167
91.1282
90.3351
87.5581
85.3326
84.1208
82.473
81.8556
80.8145
80.4924
79.9388
79.822
79.5346
79.5377
79.433
79.514
79.5145
79.6374
79.6839
79.8272
79.8865
97.099
93.2171
91.0526
88.7035
87.3996
85.9088
84.9402
83.9491
83.2298
82.5198
82.0385
81.593
81.3037
81.0421
80.893