/*--------------------------------*- C++ -*----------------------------------*\
  =========                 |
  \\      /  F ield         | OpenFOAM: The Open Source CFD Toolbox
   \\    /   O peration     | Website:  https://openfoam.org
    \\  /    A nd           | Version:  9
     \\/     M anipulation  |
\*---------------------------------------------------------------------------*/
FoamFile
{
    format      ascii;
    class       volVectorField;
    location    "3.1";
    object      U;
}
// * * * * * * * * * * * * * * * * * * * * * * * * * * * * * * * * * * * * * //

dimensions      [0 1 -1 0 0 0 0];

internalField   nonuniform List<vector> 
46400
(
(7.56715 -7.44171 -1.82155e-19)
(15.93 -15.0879 1.34344e-19)
(17.2723 -17.1683 -5.70756e-20)
(16.7221 -17.2305 -5.1882e-20)
(16.209 -17.2146 -4.28621e-20)
(15.6423 -17.2601 6.74807e-20)
(15.1808 -17.263 -6.37781e-20)
(14.6896 -17.2841 3.94598e-20)
(14.2663 -17.3273 -4.54229e-20)
(13.8515 -17.3506 5.06284e-20)
(13.4599 -17.4005 -5.5111e-20)
(13.0879 -17.4262 0)
(12.7613 -17.5169 3.79413e-19)
(12.4333 -17.5565 -4.3482e-19)
(12.1048 -17.5985 -5.57348e-19)
(11.8196 -17.6568 -9.73464e-20)
(11.5329 -17.7399 -2.65498e-20)
(11.2637 -17.7455 4.47048e-19)
(10.9826 -17.7104 6.16616e-19)
(10.5796 -17.9031 -5.68086e-19)
(7.89137 -7.09531 0)
(16.0821 -14.2114 -2.8098e-20)
(17.2173 -15.9272 0)
(16.6447 -16.0341 9.94878e-20)
(16.1261 -16.0716 -9.32794e-20)
(15.5948 -16.1563 2.44913e-20)
(15.1433 -16.2561 0)
(14.634 -16.2717 -3.9457e-20)
(14.1654 -16.3224 4.54197e-20)
(13.7762 -16.4122 -5.06259e-20)
(13.3584 -16.4717 5.94901e-19)
(12.9891 -16.5337 3.41356e-20)
(12.643 -16.6326 -4.93935e-19)
(12.3277 -16.7134 0)
(12.0199 -16.8124 6.77351e-20)
(11.7241 -16.8659 6.99278e-20)
(11.4463 -16.9697 0)
(11.2182 -17.0326 -6.67571e-19)
(10.9871 -17.0929 -1.72429e-19)
(10.6557 -17.2956 6.79827e-19)
(8.17927 -6.70302 3.25219e-20)
(16.1301 -13.3031 -1.34539e-19)
(17.0601 -14.6935 1.24015e-19)
(16.4146 -14.8698 2.09073e-19)
(15.9082 -14.939 -2.05259e-19)
(15.327 -15.0533 0)
(14.8664 -15.1577 -6.61977e-19)
(14.3853 -15.2601 5.70422e-19)
(13.9352 -15.3575 -7.41043e-19)
(13.5194 -15.4467 7.33343e-19)
(13.1347 -15.5758 7.00219e-19)
(12.7485 -15.643 -6.82149e-20)
(12.416 -15.7837 -6.07707e-19)
(12.0912 -15.8796 0)
(11.7734 -15.9904 7.53972e-19)
(11.4931 -16.099 -7.4254e-19)
(11.2052 -16.2174 0)
(10.9586 -16.2897 -1.46758e-20)
(10.6984 -16.3696 8.7056e-20)
(10.356 -16.6157 -7.99741e-19)
(8.36208 -6.273 -1.56566e-19)
(16.0713 -12.3535 3.49762e-20)
(16.7667 -13.463 2.87925e-19)
(16.1353 -13.6668 -2.8431e-19)
(15.6376 -13.81 -2.50413e-19)
(15.1178 -13.9701 3.40778e-19)
(14.6643 -14.1587 4.68291e-19)
(14.1673 -14.2426 -1.18307e-18)
(13.6922 -14.3707 9.91742e-19)
(13.3042 -14.5109 -9.31419e-20)
(12.8921 -14.6436 0)
(12.5221 -14.7577 9.77302e-20)
(12.1668 -14.9004 -9.93303e-20)
(11.8669 -15.0453 0)
(11.5579 -15.1938 8.8625e-19)
(11.2632 -15.2969 -7.54727e-19)
(10.9967 -15.4658 0)
(10.7803 -15.6066 1.0254e-19)
(10.5518 -15.7345 1.15337e-19)
(10.193 -15.9973 9.22765e-19)
(8.51317 -5.83151 0)
(15.8771 -11.2958 0)
(16.4054 -12.2819 -4.04724e-19)
(15.7443 -12.5258 2.81138e-19)
(15.2269 -12.6899 -5.50803e-19)
(14.6524 -12.8638 4.46158e-19)
(14.2069 -13.0761 0)
(13.7568 -13.2629 4.94033e-19)
(13.2865 -13.4136 -5.97994e-19)
(12.8765 -13.5675 -1.35526e-19)
(12.511 -13.7718 -1.36103e-19)
(12.1236 -13.8884 0)
(11.7862 -14.0746 1.02403e-18)
(11.4645 -14.2169 -1.00802e-18)
(11.173 -14.4051 0)
(10.8908 -14.5522 -1.13138e-18)
(10.5778 -14.6721 9.98209e-19)
(10.3414 -14.8069 9.99331e-19)
(10.1279 -14.9842 -1.09151e-18)
(9.80727 -15.2811 0)
(8.71293 -5.38921 0)
(15.5263 -10.134 0)
(15.9088 -11.0337 0)
(15.2754 -11.3133 -2.85233e-20)
(14.7867 -11.5801 0)
(14.2795 -11.8075 0)
(13.8248 -12.0836 0)
(13.3677 -12.2568 -1.55861e-19)
(12.9047 -12.4688 0)
(12.5101 -12.6495 1.35521e-19)
(12.1226 -12.8675 -1.97129e-20)
(11.7687 -13.0414 -1.32833e-18)
(11.4043 -13.2214 1.00064e-18)
(11.1089 -13.4132 -1.31247e-18)
(10.8015 -13.6022 9.90504e-19)
(10.556 -13.811 0)
(10.2931 -14.0202 -1.12828e-18)
(10.0253 -14.1357 9.65265e-19)
(9.80455 -14.3128 0)
(9.48817 -14.6433 -1.52222e-19)
(8.93719 -5.00025 5.65314e-19)
(15.0676 -9.04092 1.64107e-19)
(15.2982 -9.87077 6.40719e-19)
(14.654 -10.1898 -6.60536e-19)
(14.141 -10.4865 -6.66189e-19)
(13.5975 -10.7355 1.32598e-18)
(13.18 -11.0609 -1.51265e-18)
(12.784 -11.3387 1.4397e-19)
(12.3201 -11.5536 4.85526e-19)
(11.9189 -11.7611 0)
(11.5789 -12.0296 -1.91891e-20)
(11.2241 -12.22 -1.82671e-20)
(10.8933 -12.4438 1.54017e-19)
(10.5776 -12.6238 1.27529e-18)
(10.2859 -12.8367 -1.12067e-18)
(10.0007 -13.0026 -1.42495e-18)
(9.75645 -13.2329 1.24128e-18)
(9.52817 -13.4071 -1.38974e-20)
(9.29172 -13.5558 -1.57706e-19)
(9.00738 -13.8991 -1.13322e-18)
(9.18499 -4.58719 -1.86191e-19)
(14.4551 -7.97344 3.11592e-20)
(14.5237 -8.68267 -2.01073e-19)
(13.958 -9.05439 -7.93293e-19)
(13.5058 -9.45767 5.493e-19)
(13.0332 -9.75219 0)
(12.5878 -10.1078 1.14522e-18)
(12.2137 -10.396 -5.52457e-19)
(11.8063 -10.7047 3.75465e-19)
(11.4008 -10.9108 1.95734e-19)
(11.0409 -11.1941 -3.71127e-19)
(10.7305 -11.4398 9.00847e-19)
(10.3838 -11.6699 1.88035e-19)
(10.1087 -11.9076 -1.06686e-18)
(9.8247 -12.1465 2.98224e-18)
(9.5798 -12.3754 -1.2143e-18)
(9.3133 -12.5914 1.53347e-18)
(9.09922 -12.7971 -1.00354e-18)
(8.87462 -12.9846 3.28189e-19)
(8.57919 -13.2754 1.58306e-18)
(9.37185 -4.19995 9.5419e-19)
(13.736 -6.98821 -1.97877e-19)
(13.6378 -7.64845 -2.77032e-20)
(13.0975 -8.03382 4.31187e-19)
(12.6277 -8.46164 2.0284e-19)
(12.157 -8.78496 2.25197e-19)
(11.7744 -9.19293 -1.05417e-18)
(11.4428 -9.55179 6.38444e-19)
(11.0557 -9.86832 -1.97926e-19)
(10.6878 -10.1305 -1.95742e-19)
(10.3503 -10.4221 -1.93351e-19)
(10.0519 -10.6887 -2.07336e-19)
(9.75036 -10.9537 -3.91866e-19)
(9.44123 -11.1553 1.35625e-18)
(9.17434 -11.4033 -1.89662e-18)
(8.92386 -11.6201 -1.9298e-19)
(8.70592 -11.8844 1.3033e-20)
(8.49531 -12.0885 -1.42249e-18)
(8.32118 -12.3372 1.06103e-18)
(8.07665 -12.651 -1.68703e-18)
(9.43692 -3.89094 8.61018e-19)
(12.8508 -6.00461 -2.18307e-18)
(12.6291 -6.66984 1.44558e-18)
(12.2221 -7.09765 -2.28502e-19)
(11.8351 -7.60257 -2.49599e-19)
(11.4141 -7.94638 9.68616e-19)
(10.9882 -8.34692 -1.17376e-18)
(10.7011 -8.72678 0)
(10.3964 -9.14243 9.06989e-19)
(10.0298 -9.39612 -8.91906e-19)
(9.68977 -9.71547 -6.49531e-19)
(9.42067 -10.0118 8.46931e-19)
(9.14632 -10.3317 2.03797e-19)
(8.90295 -10.6052 -8.28904e-19)
(8.62159 -10.857 1.99864e-19)
(8.37809 -11.0839 9.93577e-19)
(8.12714 -11.3213 -1.7519e-18)
(7.92128 -11.5346 1.1561e-18)
(7.71778 -11.7602 -1.11157e-20)
(7.50797 -12.094 -1.60709e-18)
(9.22913 -3.50565 1.19697e-18)
(11.8924 -5.17931 -8.06147e-19)
(11.5922 -5.81532 5.38587e-19)
(11.1721 -6.2419 6.7495e-21)
(10.8114 -6.76313 -1.05928e-18)
(10.4313 -7.14344 -1.00801e-18)
(10.0704 -7.58014 1.25242e-18)
(9.75875 -7.95814 -7.36152e-19)
(9.50568 -8.40053 9.76114e-19)
(9.23695 -8.75123 0)
(8.88724 -9.03028 1.5037e-20)
(8.60508 -9.31126 2.22824e-19)
(8.34639 -9.61982 2.32149e-19)
(8.1161 -9.90641 -2.27219e-19)
(7.91631 -10.2269 0)
(7.69637 -10.4785 2.17547e-19)
(7.49996 -10.7614 0)
(7.29608 -10.9729 4.05687e-19)
(7.11739 -11.2147 1.97772e-18)
(6.90385 -11.5023 -1.47105e-20)
(8.81144 -3.05604 6.59749e-19)
(10.8422 -4.37309 -1.39567e-19)
(10.5272 -5.02213 -2.02733e-18)
(10.2069 -5.48577 1.13463e-18)
(9.91043 -6.06774 2.70159e-19)
(9.56987 -6.46611 -2.65899e-19)
(9.17535 -6.8931 -1.08021e-18)
(8.89731 -7.28632 8.04785e-19)
(8.64839 -7.75163 0)
(8.4555 -8.16844 0)
(8.2097 -8.57267 -1.2369e-18)
(7.9254 -8.84642 9.78864e-19)
(7.66475 -9.16848 -2.32167e-19)
(7.4175 -9.42524 -7.03696e-19)
(7.1905 -9.72855 6.4231e-21)
(7.0031 -10.0076 1.56836e-18)
(6.80252 -10.2988 -8.76319e-19)
(6.64362 -10.5627 6.41911e-19)
(6.46699 -10.8254 -1.04121e-18)
(6.29286 -11.1461 0)
(8.19559 -2.57844 -5.74394e-19)
(9.74283 -3.67269 9.27814e-19)
(9.37389 -4.31709 1.58307e-19)
(9.00383 -4.76499 1.55532e-19)
(8.74915 -5.35481 0)
(8.51921 -5.82988 1.16597e-18)
(8.20062 -6.28751 -1.14561e-18)
(7.86721 -6.63612 1.43434e-19)
(7.61191 -7.06884 0)
(7.41019 -7.47625 1.06975e-18)
(7.24023 -7.92139 -9.18165e-19)
(7.06273 -8.3062 1.02184e-18)
(6.8431 -8.64556 -1.00572e-18)
(6.64542 -8.95558 9.75199e-19)
(6.42897 -9.23871 -8.38257e-19)
(6.23496 -9.50127 -9.30241e-19)
(6.05432 -9.78088 1.82499e-18)
(5.87757 -10.0114 -7.81713e-19)
(5.73268 -10.2814 1.10806e-19)
(5.55077 -10.5686 9.31336e-19)
(7.41019 -2.09192 -4.5932e-19)
(8.55927 -3.01339 4.95611e-19)
(8.2542 -3.68881 -1.58314e-19)
(7.98996 -4.18256 -1.55527e-19)
(7.72816 -4.79756 0)
(7.51137 -5.27845 0)
(7.28205 -5.81678 0)
(7.03156 -6.2222 -2.93095e-19)
(6.74159 -6.62879 -1.14449e-18)
(6.5383 -7.02047 2.24322e-18)
(6.32809 -7.44057 -1.23353e-18)
(6.18265 -7.84089 -1.36068e-19)
(6.0297 -8.26787 0)
(5.86694 -8.60598 0)
(5.7197 -8.99002 -2.48365e-19)
(5.54914 -9.26568 0)
(5.40044 -9.60005 9.4262e-19)
(5.24404 -9.83299 -1.15964e-18)
(5.10291 -10.1162 -1.00751e-18)
(4.95509 -10.3841 9.78625e-19)
(6.51074 -1.62961 4.78569e-19)
(7.35411 -2.44641 8.64599e-19)
(7.01334 -3.10589 -1.13343e-22)
(6.67151 -3.56898 -1.26887e-21)
(6.4726 -4.1967 1.64064e-19)
(6.32787 -4.72464 -4.77574e-19)
(6.11964 -5.25171 0)
(5.95759 -5.71969 -4.58366e-19)
(5.73512 -6.15736 1.55496e-19)
(5.51752 -6.51659 5.83712e-19)
(5.34578 -6.93075 5.65252e-19)
(5.15067 -7.26032 -4.19984e-19)
(5.02634 -7.67845 1.0757e-18)
(4.88064 -8.01598 -9.25265e-19)
(4.76402 -8.40946 1.14955e-18)
(4.64323 -8.74094 -2.13229e-18)
(4.52435 -9.09724 9.82808e-19)
(4.41468 -9.40334 1.17369e-19)
(4.30001 -9.71214 9.24537e-19)
(4.18287 -10.0453 -1.01022e-18)
(5.47546 -1.19358 1.6699e-19)
(6.03477 -1.97332 -1.76268e-19)
(5.86739 -2.70875 7.05129e-19)
(5.59962 -3.21757 -6.92172e-19)
(5.32331 -3.79185 -3.37238e-19)
(5.21594 -4.35174 -8.21124e-19)
(5.08317 -4.95085 4.11947e-21)
(4.94764 -5.43515 6.31984e-19)
(4.82993 -5.98697 -1.51262e-19)
(4.65937 -6.37501 0)
(4.50988 -6.83272 0)
(4.3527 -7.16798 0)
(4.19844 -7.5553 0)
(4.06804 -7.87214 3.29129e-21)
(3.93366 -8.22288 0)
(3.82304 -8.52691 1.27016e-19)
(3.70657 -8.85681 4.99166e-19)
(3.61017 -9.14123 -1.46531e-18)
(3.50774 -9.43935 1.07974e-18)
(3.41029 -9.75544 -1.024e-18)
(4.47463 -0.901845 0)
(4.62821 -1.63594 -9.35037e-20)
(4.51185 -2.34714 0)
(4.32931 -2.84429 2.6413e-19)
(4.09765 -3.39065 -1.76154e-19)
(3.88403 -3.81504 -6.74851e-19)
(3.79684 -4.39276 4.35126e-21)
(3.67383 -4.8439 6.47131e-19)
(3.6029 -5.39783 -6.26374e-19)
(3.51957 -5.85209 1.22653e-18)
(3.43086 -6.3427 -5.51545e-21)
(3.34965 -6.76198 -5.85505e-19)
(3.25141 -7.19043 5.65006e-19)
(3.16725 -7.56426 -6.93041e-19)
(3.07086 -7.94577 0)
(2.98853 -8.28164 -5.22592e-19)
(2.89825 -8.63024 5.14797e-19)
(2.82021 -8.93218 0)
(2.73987 -9.24106 -1.20463e-19)
(2.65908 -9.55944 0)
(2.95969 -0.547154 9.55462e-20)
(3.15359 -1.27651 9.33521e-20)
(3.33777 -2.16571 0)
(3.27383 -2.78778 3.59727e-19)
(3.13998 -3.45371 -4.43717e-19)
(2.97088 -3.90555 2.57129e-19)
(2.8086 -4.44042 -7.57944e-19)
(2.69344 -4.85981 3.29572e-19)
(2.56922 -5.34312 -8.04492e-20)
(2.49144 -5.74684 0)
(2.39845 -6.20252 -7.6369e-20)
(2.33481 -6.58257 -7.43916e-20)
(2.25924 -7.01087 -7.24691e-20)
(2.19678 -7.35971 0)
(2.1288 -7.75652 -5.44537e-19)
(2.06858 -8.07409 1.13375e-18)
(2.00487 -8.44306 -9.74183e-19)
(1.94904 -8.72873 5.09274e-19)
(1.89063 -9.05529 6.20199e-20)
(1.83128 -9.36332 5.29805e-19)
(2.18652 -0.522888 -1.45719e-19)
(1.57529 -0.868017 -1.90886e-19)
(1.5906 -1.64925 5.74328e-22)
(1.65609 -2.22974 5.03082e-19)
(1.71646 -2.99491 -1.35246e-19)
(1.68442 -3.52826 -8.71621e-20)
(1.65216 -4.17155 8.5955e-20)
(1.58576 -4.62988 1.66673e-19)
(1.54464 -5.18708 8.04331e-20)
(1.47827 -5.59598 -3.13718e-19)
(1.43672 -6.09071 3.46468e-19)
(1.37932 -6.4604 7.43906e-20)
(1.34316 -6.90808 3.6229e-19)
(1.29709 -7.24656 -3.02699e-21)
(1.26355 -7.65358 3.1632e-20)
(1.22344 -7.96454 -6.05538e-19)
(1.19047 -8.33853 1.65663e-19)
(1.1525 -8.62089 0)
(1.1212 -8.9466 -3.08066e-20)
(1.08147 -9.24807 -2.67508e-19)
(0.443904 -1.13502 0)
(0.775414 -1.02905 -9.37874e-20)
(0.532915 -2.05003 1.17351e-19)
(0.456886 -2.32054 -4.64097e-20)
(0.407404 -3.08909 -4.53376e-20)
(0.409948 -3.47114 0)
(0.390751 -4.14294 -8.52305e-20)
(0.39904 -4.53222 1.66813e-19)
(0.364618 -5.12042 -8.16424e-20)
(0.376674 -5.49267 7.88011e-20)
(0.352109 -6.01888 -3.90326e-20)
(0.357012 -6.36951 -7.47327e-20)
(0.334411 -6.84245 1.4632e-19)
(0.333945 -7.1702 -1.42507e-19)
(0.311668 -7.59692 3.51528e-20)
(0.309921 -7.90039 2.39972e-34)
(0.290297 -8.29006 -3.26278e-20)
(0.289259 -8.56599 1.92162e-19)
(0.274466 -8.90438 -9.48438e-20)
(0.27475 -9.20124 -6.80037e-20)
(-0.122563 1.10496 4.57062e-20)
(-0.304233 1.40774 2.24659e-20)
(0.227439 0.138085 0)
(1.282 -3.75614 1.98706e-20)
(4.2059 -11.7485 2.08131e-20)
(6.99932 -19.5212 2.02967e-20)
(8.7008 -23.9537 0)
(9.3691 -25.8897 1.88177e-20)
(9.578 -26.5202 0)
(9.63089 -26.7098 0)
(9.60426 -26.7444 -1.60524e-20)
(9.5787 -26.7091 3.91376e-22)
(9.48907 -26.655 3.30963e-20)
(9.42433 -26.5822 0)
(9.37276 -26.6094 1.53715e-20)
(9.32756 -26.5871 1.52271e-20)
(9.24083 -26.576 1.47886e-20)
(9.18384 -26.5243 0)
(9.1115 -26.5566 -2.77019e-20)
(9.07802 -26.542 2.56166e-20)
(-0.281866 1.44953 6.8658e-20)
(0.0439489 0.809196 -1.11851e-19)
(0.667501 -1.92939 0)
(3.02623 -8.60094 -1.06038e-19)
(6.42943 -17.3674 4.18228e-20)
(8.47179 -22.9452 -1.83541e-19)
(9.39785 -25.5847 7.82562e-20)
(9.7111 -26.4178 5.45586e-20)
(9.76967 -26.6603 -2.31723e-19)
(9.76276 -26.6674 1.23462e-19)
(9.72383 -26.6436 -1.59268e-20)
(9.65419 -26.5528 1.31471e-19)
(9.5663 -26.4848 -2.02097e-21)
(9.53761 -26.4651 -1.25815e-19)
(9.45841 -26.4564 -1.53675e-20)
(9.41118 -26.3996 -1.52276e-20)
(9.32723 -26.4008 -1.47905e-20)
(9.3008 -26.4072 0)
(9.20951 -26.412 -1.04725e-19)
(9.16943 -26.3411 1.44562e-21)
(-0.235299 1.33576 -1.70982e-20)
(0.407379 -0.180908 0)
(1.61839 -4.6111 0)
(5.28234 -13.848 -4.25938e-20)
(7.92206 -21.1054 4.1807e-20)
(9.40623 -24.9686 0)
(9.88506 -26.2056 -3.78655e-20)
(9.97718 -26.5663 1.10951e-19)
(9.97901 -26.5887 -1.02979e-19)
(9.94015 -26.56 1.27465e-19)
(9.8513 -26.4721 -1.69244e-19)
(9.77652 -26.3583 0)
(9.71203 -26.3508 -1.26962e-19)
(9.66473 -26.2976 -1.20372e-19)
(9.57551 -26.2733 2.12092e-19)
(9.53739 -26.2474 -2.24702e-19)
(9.45542 -26.2674 1.88994e-19)
(9.41342 -26.199 0)
(9.28186 -26.1597 -2.31191e-19)
(9.25978 -26.1211 3.79519e-19)
(0.0394816 0.970171 1.76261e-20)
(0.674469 -1.85703 0)
(3.21966 -8.79979 0)
(7.0532 -18.0484 8.0401e-20)
(9.13691 -23.7075 -2.51718e-19)
(9.97115 -25.8338 7.99677e-20)
(10.1502 -26.4349 3.86011e-20)
(10.1849 -26.521 3.82964e-19)
(10.1439 -26.4946 -5.27776e-19)
(10.0564 -26.3839 -6.17031e-20)
(9.97789 -26.2787 3.06112e-19)
(9.92348 -26.231 6.40086e-20)
(9.85027 -26.184 -3.08528e-19)
(9.80372 -26.1334 3.02263e-19)
(9.71927 -26.1263 8.64095e-20)
(9.6819 -26.0755 -5.43977e-20)
(9.57879 -26.0543 7.96672e-20)
(9.52403 -25.9699 0)
(9.42585 -25.9879 -2.21253e-20)
(9.41001 -25.9339 0)
(0.380618 0.180472 0)
(1.20522 -3.73487 3.58077e-19)
(4.95186 -12.887 -4.37984e-19)
(8.26453 -21.221 4.28355e-19)
(9.87004 -25.0627 -3.37472e-19)
(10.2971 -26.2451 -8.00118e-20)
(10.4118 -26.4629 0)
(10.3883 -26.4476 1.99164e-19)
(10.317 -26.3283 -2.79205e-19)
(10.237 -26.2098 3.40961e-19)
(10.1786 -26.1534 -2.67144e-19)
(10.0991 -26.0541 -6.40069e-20)
(10.0329 -26.0217 3.01275e-19)
(9.97018 -25.9666 -5.25283e-19)
(9.87491 -25.9233 3.35798e-19)
(9.82951 -25.8701 -1.09778e-19)
(9.71564 -25.8526 -2.56069e-19)
(9.6803 -25.7925 5.81508e-19)
(9.55278 -25.7849 -3.25773e-19)
(9.52497 -25.6775 -3.84474e-19)
(0.372702 -0.849195 3.78091e-19)
(2.11222 -5.92593 3.65496e-19)
(6.56449 -16.5125 -3.59431e-19)
(9.42414 -23.2491 -8.83056e-20)
(10.4257 -25.8092 8.33143e-20)
(10.7029 -26.3811 3.02332e-19)
(10.6795 -26.3887 -2.8468e-19)
(10.6337 -26.3024 0)
(10.5264 -26.1381 2.78593e-19)
(10.4628 -26.0608 -2.74013e-19)
(10.372 -25.9388 -2.54156e-19)
(10.2989 -25.8733 2.5004e-19)
(10.2244 -25.8222 0)
(10.1497 -25.7484 0)
(10.0633 -25.7252 4.80033e-19)
(10.0094 -25.6673 -4.71248e-19)
(9.88523 -25.6303 -3.90008e-19)
(9.83751 -25.5366 3.79392e-19)
(9.69535 -25.53 -3.47621e-19)
(9.67932 -25.4312 4.15499e-19)
(0.364549 -1.79007 -2.87626e-19)
(3.37795 -9.01575 9.87635e-20)
(7.89095 -19.2411 5.99227e-21)
(10.2051 -24.6844 4.52077e-19)
(10.873 -26.1863 0)
(10.9551 -26.3473 0)
(10.9441 -26.2969 5.70104e-19)
(10.8474 -26.1206 -2.01827e-20)
(10.7715 -25.9909 -5.68676e-19)
(10.6807 -25.8582 5.2139e-19)
(10.6058 -25.7742 -5.12804e-19)
(10.5177 -25.6797 0)
(10.4391 -25.6219 4.48264e-19)
(10.3543 -25.5569 -4.41205e-19)
(10.2549 -25.4986 0)
(10.1786 -25.4216 0)
(10.049 -25.3756 0)
(10.006 -25.3115 0)
(9.85489 -25.3056 0)
(9.82724 -25.1553 -4.01871e-20)
(0.617014 -2.65341 3.0545e-19)
(4.66905 -11.5101 -4.93814e-19)
(9.04044 -21.2702 0)
(10.9975 -25.417 0)
(11.3491 -26.2667 7.71633e-19)
(11.3919 -26.2817 5.16597e-20)
(11.3089 -26.1299 -6.82936e-19)
(11.1937 -25.9242 0)
(11.0862 -25.7593 6.78858e-20)
(10.9978 -25.6591 -6.38627e-20)
(10.8843 -25.521 0)
(10.7859 -25.4358 5.67025e-20)
(10.6891 -25.3672 -4.83399e-19)
(10.5805 -25.2729 8.81021e-19)
(10.4789 -25.2269 -1.48419e-20)
(10.3908 -25.1581 -3.80306e-19)
(10.2548 -25.1152 -4.28648e-20)
(10.1963 -25.0215 4.02676e-20)
(10.0142 -25.005 0)
(9.98794 -24.8403 3.53519e-20)
(1.00158 -3.57549 2.03902e-19)
(6.05263 -13.7727 1.92684e-19)
(10.1816 -22.7393 -6.08001e-19)
(11.6766 -25.8731 1.88748e-19)
(11.8412 -26.2278 8.54531e-20)
(11.7748 -26.1115 6.99588e-19)
(11.635 -25.8731 -9.97405e-19)
(11.5146 -25.6822 7.29307e-19)
(11.4036 -25.5396 -5.92386e-19)
(11.2723 -25.3812 7.02937e-19)
(11.1579 -25.2689 1.15429e-19)
(11.0412 -25.1675 4.85928e-19)
(10.9311 -25.0887 -2.7264e-19)
(10.8157 -25.0142 -5.31038e-19)
(10.6995 -24.9461 4.68814e-19)
(10.5827 -24.8601 0)
(10.4402 -24.7966 1.22236e-19)
(10.3703 -24.7278 3.39781e-20)
(10.1845 -24.717 -6.97713e-20)
(10.1489 -24.5279 2.93338e-20)
(1.68281 -4.65576 -1.74563e-19)
(7.3936 -15.3637 3.07539e-19)
(11.224 -23.6387 1.25392e-21)
(12.3595 -25.87 -3.77415e-19)
(12.3793 -25.998 -3.41278e-19)
(12.2636 -25.8053 -1.59394e-19)
(12.1089 -25.6101 -3.93591e-21)
(11.9424 -25.3862 -1.41432e-19)
(11.7833 -25.1954 0)
(11.6449 -25.0743 -1.23337e-19)
(11.4912 -24.929 -1.15415e-19)
(11.3548 -24.8339 -6.42422e-21)
(11.2198 -24.754 3.76998e-19)
(11.0721 -24.6483 -1.94099e-19)
(10.9398 -24.5876 -4.26068e-19)
(10.8089 -24.5147 3.3145e-19)
(10.6599 -24.4654 2.17199e-19)
(10.5631 -24.3782 -3.66837e-19)
(10.3555 -24.3578 7.0499e-20)
(10.3069 -24.1577 4.25094e-19)
(2.37092 -5.4488 0)
(8.41374 -16.5169 8.81251e-19)
(12.258 -24.1223 -1.18347e-18)
(13.0084 -25.7498 9.45866e-19)
(12.9252 -25.7007 8.17752e-19)
(12.7156 -25.4429 -6.48307e-19)
(12.509 -25.2006 -8.52781e-19)
(12.312 -24.9894 3.38758e-20)
(12.146 -24.8446 5.10862e-19)
(11.9584 -24.6794 -3.33874e-19)
(11.7908 -24.5559 8.48363e-19)
(11.629 -24.4519 -5.0651e-19)
(11.4734 -24.3647 -9.47221e-20)
(11.3193 -24.2878 2.40947e-19)
(11.171 -24.2203 -6.30563e-19)
(11.0119 -24.1377 3.0171e-19)
(10.8524 -24.0665 0)
(10.735 -24.0055 -4.97576e-19)
(10.5341 -23.9977 4.90289e-19)
(10.4613 -23.7972 -3.8415e-19)
(2.90526 -6.44995 2.16393e-19)
(9.64561 -17.4223 1.75226e-19)
(13.1462 -24.2562 1.0149e-18)
(13.6376 -25.3263 8.68202e-19)
(13.4456 -25.2089 -5.20743e-19)
(13.2194 -24.9587 7.31054e-19)
(12.9953 -24.7762 -4.32101e-19)
(12.7573 -24.5559 4.88668e-19)
(12.533 -24.3618 -9.28168e-19)
(12.3326 -24.2368 3.30017e-19)
(12.1268 -24.0961 0)
(11.9435 -24.0047 0)
(11.7622 -23.9277 0)
(11.5717 -23.8235 -5.87713e-19)
(11.3986 -23.7646 5.78635e-19)
(11.2254 -23.6975 0)
(11.0545 -23.6469 0)
(10.9013 -23.5819 -5.00674e-20)
(10.6914 -23.5615 0)
(10.6071 -23.3654 -4.17744e-19)
(3.60299 -6.94346 -4.19218e-19)
(10.4883 -18.1224 -1.04102e-18)
(13.9934 -24.1373 -7.18555e-19)
(14.2301 -24.8869 -1.17438e-19)
(13.9614 -24.6938 9.40428e-19)
(13.691 -24.4375 -1.93568e-19)
(13.3997 -24.1998 -4.19785e-20)
(13.1236 -23.9925 -5.98027e-19)
(12.8969 -23.8596 0)
(12.6467 -23.7056 -2.80348e-19)
(12.4213 -23.5898 4.46453e-19)
(12.2069 -23.4946 0)
(12.0007 -23.4151 5.57795e-19)
(11.8024 -23.3467 -5.49046e-19)
(11.6121 -23.2906 4.61964e-19)
(11.4119 -23.2183 -8.26399e-19)
(11.2222 -23.1521 4.14244e-19)
(11.0529 -23.1138 5.00353e-20)
(10.8504 -23.1149 -3.59319e-20)
(10.7529 -22.9252 2.91418e-19)
(4.13358 -7.44265 -5.80273e-19)
(11.6127 -18.2466 4.09669e-20)
(14.6878 -23.75 5.94809e-20)
(14.8579 -24.1674 1.29815e-18)
(14.454 -23.9893 9.71653e-20)
(14.1599 -23.7638 -6.7056e-19)
(13.8545 -23.6 -4.47852e-19)
(13.5367 -23.4037 1.49149e-19)
(13.2457 -23.2272 4.82526e-19)
(12.9814 -23.1174 -4.91716e-19)
(12.7182 -22.9934 2.36427e-19)
(12.4855 -22.9198 -5.81286e-19)
(12.2565 -22.8608 4.57045e-19)
(12.0221 -22.7711 -4.16143e-19)
(11.8075 -22.7308 3.67211e-19)
(11.5966 -22.6815 2.82421e-19)
(11.3939 -22.6396 -3.2652e-19)
(11.1917 -22.5971 2.34102e-19)
(10.982 -22.6014 -2.21817e-19)
(10.8765 -22.4282 -2.307e-19)
(4.78591 -7.77579 -7.24394e-19)
(12.4615 -18.3811 -1.31047e-19)
(15.341 -23.2269 6.5893e-19)
(15.3344 -23.4713 -5.64438e-19)
(14.9095 -23.2688 5.53971e-19)
(14.5611 -23.0655 1.23555e-19)
(14.2007 -22.8588 0)
(13.8449 -22.6837 -8.317e-20)
(13.5579 -22.5791 2.18326e-19)
(13.2472 -22.4539 -7.61553e-19)
(12.965 -22.3622 5.29877e-19)
(12.6983 -22.2872 1.0904e-19)
(12.4444 -22.2315 5.44829e-20)
(12.2028 -22.1832 0)
(11.969 -22.1481 1.30763e-20)
(11.7319 -22.0957 2.33749e-19)
(11.5097 -22.0465 -3.11136e-20)
(11.2935 -22.0381 1.75797e-20)
(11.0955 -22.0699 -1.65838e-19)
(10.9765 -21.9081 3.03642e-20)
(5.29855 -7.91989 6.5919e-19)
(13.2938 -18.0772 -1.12476e-18)
(15.9296 -22.4398 6.13735e-19)
(15.8299 -22.5613 4.95408e-19)
(15.3337 -22.3978 -5.46522e-20)
(14.9504 -22.2226 -3.33794e-19)
(14.5796 -22.0956 7.74774e-20)
(14.185 -21.9383 8.31557e-20)
(13.8311 -21.7985 0)
(13.5093 -21.7229 0)
(13.1894 -21.6306 -3.53962e-19)
(12.9101 -21.5887 5.66442e-19)
(12.6358 -21.5608 -2.93288e-19)
(12.3596 -21.4973 0)
(12.1072 -21.4918 1.4229e-20)
(11.8654 -21.4719 -1.37512e-19)
(11.6257 -21.4474 1.31514e-19)
(11.3751 -21.4271 -1.62409e-20)
(11.1665 -21.4638 -3.84036e-20)
(11.0511 -21.3431 3.30094e-20)
(5.88306 -8.02498 -5.78056e-19)
(14.0308 -17.8441 7.21947e-19)
(16.4289 -21.5568 0)
(16.1507 -21.6317 0)
(15.6635 -21.4804 8.37212e-20)
(15.2265 -21.355 -3.90692e-19)
(14.8111 -21.2051 2.27793e-20)
(14.3863 -21.0849 2.48762e-19)
(14.0439 -21.0233 -3.48348e-19)
(13.6818 -20.9409 6.24709e-19)
(13.3483 -20.8869 -2.77549e-19)
(13.0348 -20.8413 4.79374e-20)
(12.742 -20.827 1.3395e-19)
(12.4613 -20.8089 -3.51029e-20)
(12.1857 -20.8008 -6.61292e-20)
(11.9201 -20.7823 1.06896e-20)
(11.6667 -20.7683 9.93517e-21)
(11.4098 -20.7859 -1.61876e-20)
(11.2018 -20.8355 1.35939e-20)
(11.0842 -20.7378 -6.67117e-20)
(6.32222 -7.98388 0)
(14.6374 -17.2277 3.18244e-19)
(16.7632 -20.5964 -3.59106e-19)
(16.4926 -20.5808 0)
(15.9384 -20.4815 -8.37116e-20)
(15.4852 -20.3811 2.17521e-19)
(15.071 -20.3138 -2.71871e-19)
(14.6139 -20.2099 0)
(14.2079 -20.123 1.98367e-19)
(13.8438 -20.0966 -1.95061e-19)
(13.4755 -20.0484 3.97873e-21)
(13.1561 -20.045 -1.56757e-20)
(12.8433 -20.0549 -9.79685e-21)
(12.5324 -20.0295 -4.56508e-21)
(12.2495 -20.0676 7.98965e-20)
(11.9825 -20.0825 -1.88185e-19)
(11.7065 -20.0915 2.42786e-19)
(11.4156 -20.0918 -2.86533e-19)
(11.1909 -20.1531 1.39188e-19)
(11.0783 -20.1008 -1.72848e-20)
(6.79892 -7.88985 0)
(15.2095 -16.6808 -3.43757e-19)
(17.0406 -19.5136 1.91261e-19)
(16.6337 -19.5135 1.76657e-19)
(16.1135 -19.4293 -4.90776e-20)
(15.5978 -19.3921 -4.31721e-20)
(15.1514 -19.311 -1.25337e-19)
(14.6782 -19.2574 0)
(14.2884 -19.2465 0)
(13.8894 -19.2147 0)
(13.5147 -19.2084 -3.97832e-21)
(13.1631 -19.1992 0)
(12.843 -19.239 1.75105e-19)
(12.5281 -19.2541 -1.47191e-19)
(12.2138 -19.2763 2.13257e-19)
(11.9282 -19.3008 -4.49563e-19)
(11.6478 -19.3456 2.35951e-19)
(11.3579 -19.3854 3.16727e-19)
(11.096 -19.4365 -5.67784e-19)
(10.9834 -19.3617 3.05615e-19)
(7.18483 -7.68812 0)
(15.6045 -15.8813 0)
(17.1931 -18.3649 6.45557e-20)
(16.7694 -18.3732 5.03391e-20)
(16.2211 -18.334 0)
(15.7108 -18.3261 3.35391e-20)
(15.2709 -18.3359 -3.29502e-20)
(14.7745 -18.2898 0)
(14.3279 -18.2658 -1.29166e-19)
(13.9399 -18.2944 1.27013e-19)
(13.535 -18.2947 0)
(13.1811 -18.3232 2.62713e-19)
(12.8376 -18.3716 1.324e-20)
(12.5027 -18.3894 -2.92681e-19)
(12.1911 -18.4592 0)
(11.8912 -18.4927 0)
(11.572 -18.5469 0)
(11.2675 -18.5623 3.80191e-19)
(10.955 -18.5842 -4.16427e-19)
(10.7901 -18.5594 0)
(8.50416 -26.5054 0)
(8.12914 -26.1047 0)
(7.37131 -26.1782 -2.37729e-21)
(7.00448 -26.3493 -2.32919e-21)
(6.31382 -26.3456 0)
(5.86854 -26.3688 -3.30741e-23)
(5.35511 -26.436 2.27491e-21)
(4.91192 -26.524 0)
(4.43482 -26.6091 2.15739e-21)
(4.01487 -26.6626 0)
(3.58261 -26.722 -2.12141e-21)
(3.22225 -26.7523 -1.06152e-21)
(2.82853 -26.7841 1.06753e-21)
(2.52981 -26.8009 2.05439e-21)
(2.17125 -26.8117 0)
(1.92716 -26.6948 -5.03784e-22)
(1.60136 -26.6765 1.98191e-21)
(1.40861 -25.3297 0)
(0.881531 -20.8945 0)
(0.294179 -11.3517 1.93014e-21)
(8.56529 -26.3001 1.15925e-20)
(8.18943 -25.9473 0)
(7.34202 -26.0152 1.15177e-20)
(7.02787 -26.1534 -6.86565e-21)
(6.33627 -26.1709 0)
(5.87493 -26.2629 -1.07441e-20)
(5.31018 -26.3337 4.30929e-21)
(4.83113 -26.4028 0)
(4.35005 -26.4835 2.02837e-21)
(3.93861 -26.5419 -4.20315e-21)
(3.51388 -26.608 6.24328e-21)
(3.16095 -26.6438 -8.22789e-21)
(2.77403 -26.6832 6.13344e-21)
(2.48519 -26.7104 -2.08555e-21)
(2.14152 -26.7284 -2.01702e-21)
(1.91074 -26.6273 1.95779e-21)
(1.61201 -26.6063 -3.14953e-21)
(1.4092 -25.2237 -4.75707e-21)
(0.865326 -20.7104 -2.34815e-21)
(0.300322 -11.1729 -2.40759e-21)
(8.60805 -26.0746 -2.33169e-21)
(8.21965 -25.7421 -1.07275e-20)
(7.40673 -25.8336 -8.46788e-21)
(7.02469 -26.0251 0)
(6.29034 -26.0105 0)
(5.85386 -26.0671 1.23678e-20)
(5.33319 -26.1424 -1.16131e-22)
(4.88663 -26.2443 -6.75111e-23)
(4.41551 -26.3479 -8.69247e-23)
(4.00401 -26.4181 -8.01681e-21)
(3.57681 -26.4939 0)
(3.22232 -26.539 0)
(2.83246 -26.5874 0)
(2.54023 -26.62 -7.6392e-21)
(2.18476 -26.6456 0)
(1.94708 -26.5426 -7.53341e-21)
(1.6219 -26.5366 5.95965e-21)
(1.41647 -25.1363 2.86313e-21)
(0.881763 -20.602 4.72328e-21)
(0.304902 -11.0364 7.33371e-21)
(8.68699 -25.8421 1.8811e-20)
(8.29492 -25.574 -3.72345e-20)
(7.3966 -25.6646 1.37176e-22)
(7.04022 -25.8123 1.63865e-20)
(6.31549 -25.8311 0)
(5.86043 -25.9599 1.53536e-20)
(5.29014 -26.0381 -3.80867e-20)
(4.80863 -26.123 2.29452e-20)
(4.33384 -26.2232 -1.50893e-20)
(3.92964 -26.2985 7.58879e-21)
(3.50904 -26.3811 -1.93521e-22)
(3.16148 -26.4322 -7.53985e-21)
(2.77791 -26.4877 7.57604e-21)
(2.49438 -26.5296 3.90367e-21)
(2.15214 -26.5629 3.75642e-21)
(1.92693 -26.4747 7.52888e-21)
(1.62977 -26.4676 -7.41808e-21)
(1.41463 -25.0364 3.64728e-21)
(0.866864 -20.4311 -1.82337e-21)
(0.31187 -10.8643 -7.32237e-21)
(8.73747 -25.5936 4.05338e-20)
(8.33345 -25.356 8.89272e-21)
(7.46615 -25.4666 -1.5843e-20)
(7.04571 -25.6772 2.2742e-20)
(6.29375 -25.6686 0)
(5.84915 -25.7623 -7.07528e-21)
(5.31487 -25.845 7.43e-21)
(4.86475 -25.9649 0)
(4.4004 -26.0896 3.96301e-22)
(3.99506 -26.1765 0)
(3.57152 -26.2682 -1.45317e-20)
(3.2217 -26.3284 0)
(2.83481 -26.393 0)
(2.54821 -26.4414 -1.42727e-20)
(2.19508 -26.4824 7.23507e-21)
(1.96275 -26.3936 -7.0487e-21)
(1.63679 -26.3993 0)
(1.42141 -24.9555 1.76659e-21)
(0.881777 -20.335 -1.7722e-21)
(0.317918 -10.7303 0)
(8.83725 -25.3368 1.66012e-20)
(8.41127 -25.1763 -1.56755e-20)
(7.47837 -25.2886 3.48864e-20)
(7.05555 -25.4501 -3.61112e-20)
(6.31437 -25.4871 1.30498e-20)
(5.85121 -25.651 7.09718e-21)
(5.27354 -25.7381 -1.31206e-20)
(4.78996 -25.8435 -1.32555e-20)
(4.3221 -25.9656 7.06121e-21)
(3.9224 -26.0577 1.3781e-20)
(3.50478 -26.1563 -6.73568e-21)
(3.16129 -26.2231 0)
(2.78028 -26.2949 0)
(2.50122 -26.3517 4.1726e-22)
(2.15988 -26.4007 -6.96634e-21)
(1.93846 -26.3251 7.04181e-21)
(1.64184 -26.332 0)
(1.41707 -24.8627 -1.35379e-20)
(0.8675 -20.1781 -1.27305e-20)
(0.326105 -10.5648 -8.57507e-22)
(8.91133 -25.0603 -4.78655e-20)
(8.46609 -24.9436 4.71289e-20)
(7.53851 -25.0754 -1.38323e-20)
(7.06462 -25.3043 0)
(6.31182 -25.321 -1.3105e-20)
(5.84505 -25.4512 2.55269e-20)
(5.29914 -25.5442 -1.24526e-20)
(4.84726 -25.6863 1.32928e-20)
(4.38958 -25.8338 0)
(3.98792 -25.9373 0)
(3.56693 -26.0446 1.31687e-20)
(3.22043 -26.1203 -1.32135e-20)
(2.83567 -26.2009 0)
(2.55353 -26.2651 2.02596e-20)
(2.20162 -26.3218 -6.69298e-21)
(1.97318 -26.2471 -6.66905e-21)
(1.64598 -26.2656 5.35494e-21)
(1.42353 -24.7897 1.6845e-20)
(0.880601 -20.0941 8.53623e-21)
(0.333722 -10.4337 1.66498e-21)
(9.03177 -24.7787 0)
(8.53543 -24.743 -2.62265e-20)
(7.56561 -24.8843 2.63022e-20)
(7.07347 -25.0692 0)
(6.33215 -25.1385 0)
(5.84474 -25.3336 -2.37639e-20)
(5.26147 -25.4351 2.38339e-20)
(4.77709 -25.5651 0)
(4.31468 -25.7104 1.22743e-20)
(3.91683 -25.8191 -2.47303e-20)
(3.50116 -25.9335 1.24546e-20)
(3.16035 -26.0163 1.26427e-20)
(2.78097 -26.1044 -1.26801e-20)
(2.50519 -26.1762 0)
(2.16398 -26.2412 0)
(1.94431 -26.1782 -6.45264e-21)
(1.64824 -26.2004 7.76372e-21)
(1.41679 -24.705 3.35395e-24)
(0.866209 -19.9547 -4.85304e-21)
(0.341783 -10.2748 1.61741e-21)
(9.13459 -24.4707 2.63049e-20)
(8.60592 -24.4914 -2.64161e-20)
(7.61412 -24.6524 -3.27855e-20)
(7.08148 -24.9157 4.44536e-20)
(6.33709 -24.9671 -4.38501e-20)
(5.83812 -25.1315 -2.93851e-22)
(5.28804 -25.2416 2.2149e-20)
(4.83508 -25.4091 0)
(4.38281 -25.5796 0)
(3.98243 -25.7 1.12871e-20)
(3.56301 -25.8229 0)
(3.21847 -25.9144 0)
(2.83488 -26.011 0)
(2.55569 -26.0907 0)
(2.20398 -26.1631 0)
(1.97745 -26.103 0)
(1.64957 -26.1363 -5.00026e-21)
(1.42253 -24.6408 6.24997e-21)
(0.876484 -19.8802 -1.56811e-21)
(0.35124 -10.1472 1.56833e-21)
(9.26288 -24.158 -2.24891e-20)
(8.66193 -24.2678 -3.47669e-20)
(7.64369 -24.4414 -9.70455e-21)
(7.08927 -24.6784 -9.60704e-21)
(6.36303 -24.785 9.52004e-21)
(5.83855 -25.0074 2.95946e-20)
(5.25476 -25.1314 9.80642e-21)
(4.76962 -25.288 0)
(4.31075 -25.4568 -1.13252e-20)
(3.91293 -25.5825 2.10369e-20)
(3.49829 -25.7126 1.08856e-20)
(3.1586 -25.8116 1.103e-20)
(2.7798 -25.9157 0)
(2.50581 -26.0026 1.14064e-20)
(2.16332 -26.0837 1.16458e-20)
(1.94368 -26.0338 0)
(1.64918 -26.0739 0)
(1.41335 -24.5639 0)
(0.861602 -19.7613 0)