/*--------------------------------*- C++ -*----------------------------------*\
  =========                 |
  \\      /  F ield         | OpenFOAM: The Open Source CFD Toolbox
   \\    /   O peration     | Website:  https://openfoam.org
    \\  /    A nd           | Version:  9
     \\/     M anipulation  |
\*---------------------------------------------------------------------------*/
FoamFile
{
    format      ascii;
    class       volScalarField;
    location    "2.7";
    object      p;
}
// * * * * * * * * * * * * * * * * * * * * * * * * * * * * * * * * * * * * * //

dimensions      [0 2 -2 0 0 0 0];

internalField   nonuniform List<scalar> 
46400
(
-43.9939
-37.8973
-25.7153
-16.3103
-7.55026
0.444199
7.52945
14.0958
19.9288
25.3
30.1784
34.6562
38.7931
42.6189
46.207
49.5943
52.7361
56.0101
59.4311
60.4108
-20.8911
-14.8799
-3.90747
5.0845
13.1079
20.5011
27.0428
33.0203
38.3757
43.2322
47.617
51.5863
55.1903
58.4747
61.4621
64.1885
66.646
69.0991
71.361
71.7361
3.2791
9.38615
19.0865
27.3141
34.4786
41.1304
46.9561
52.316
57.0311
61.3214
65.1694
68.6378
71.7743
74.5977
77.1562
79.4388
81.4294
83.3865
84.9522
84.5117
27.8159
32.9389
41.3361
49.0041
55.4787
61.4915
66.7223
71.4577
75.6487
79.3623
82.6736
85.5937
88.1909
90.4916
92.5304
94.3306
95.8752
97.383
98.6606
98.0091
51.6865
55.8939
63.7112
70.7966
76.6891
82.0539
86.6587
90.7845
94.3522
97.5063
100.267
102.68
104.784
106.607
108.191
109.527
110.626
111.705
112.505
111.529
74.3961
78.9148
86.0768
92.4946
97.6653
102.318
106.245
109.698
112.687
115.237
117.461
119.346
120.968
122.331
123.49
124.442
125.188
125.92
126.492
125.369
97.9963
102.779
108.949
114.383
118.734
122.577
125.788
128.532
130.849
132.79
134.414
135.756
136.848
137.714
138.395
138.888
139.198
139.513
139.731
138.397
121.014
126.161
131.035
135.55
139.04
142.057
144.537
146.59
148.298
149.645
150.745
151.577
152.22
152.659
152.953
153.079
153.05
153.034
152.936
151.456
144.155
149.365
152.89
156.212
158.843
160.979
162.713
164.031
165.059
165.781
166.27
166.544
166.641
166.581
166.398
166.087
165.648
165.233
164.725
163.062
165.973
170.019
172.856
175.184
177.095
178.524
179.633
180.386
180.881
181.099
181.126
180.946
180.622
180.141
179.564
178.867
178.073
177.299
176.447
174.557
186.259
189.207
191.375
192.923
194.132
194.908
195.392
195.548
195.478
195.157
194.666
194.005
193.225
192.32
191.33
190.249
189.09
187.966
186.778
184.756
203.679
206.038
207.708
208.742
209.463
209.75
209.8
209.539
209.083
208.377
207.51
206.463
205.305
204.029
202.674
201.231
199.716
198.225
196.671
194.385
219.864
221.628
222.77
223.233
223.428
223.181
222.716
221.968
221.071
219.971
218.733
217.349
215.86
214.276
212.633
210.921
209.168
207.448
205.72
203.326
233.869
235.174
235.925
236.014
235.855
235.261
234.444
233.356
232.104
230.677
229.124
227.422
225.631
223.726
221.765
219.727
217.647
215.592
213.504
210.954
246.196
246.996
247.334
247.005
246.478
245.533
244.364
242.925
241.35
239.609
237.789
235.855
233.856
231.776
229.641
227.442
225.187
222.944
220.666
217.901
257.432
257.571
257.446
256.737
255.85
254.61
253.17
251.447
249.578
247.547
245.426
243.216
240.951
238.632
236.288
233.905
231.5
229.124
226.785
223.949
265.426
265.308
264.859
263.873
262.71
261.273
259.702
257.908
255.962
253.842
251.609
249.262
246.852
244.372
241.868
239.325
236.764
234.239
231.773
228.865
272.447
272.237
271.537
270.271
268.75
266.975
265.063
262.978
260.801
258.483
256.105
253.626
251.112
248.533
245.943
243.315
240.675
238.071
235.553
232.566
275.649
275.408
274.75
273.767
272.407
270.706
268.766
266.607
264.32
261.895
259.396
256.812
254.19
251.522
248.844
246.147
243.438
240.784
238.241
235.245
280.495
277.696
277.363
275.87
274.489
272.608
270.64
268.393
266.075
263.587
261.052
258.415
255.756
253.041
250.327
247.588
244.846
242.154
239.581
236.537
-142.855
-142.871
-142.774
-143.286
-142.88
-141.257
-139.684
-137.481
-135.468
-133.561
-131.688
-129.74
-127.862
-126.226
-124.578
-122.818
-121.162
-119.628
-118.107
-116.486
-143.666
-143.103
-143.594
-142.701
-142.585
-140.722
-138.416
-135.917
-133.719
-131.552
-129.29
-127.103
-125.088
-123.127
-121.197
-119.275
-117.467
-115.723
-114.051
-112.305
-143.49
-143.242
-143.463
-142.598
-140.886
-139.263
-136.918
-134.465
-132.067
-129.493
-127.049
-124.646
-122.397
-120.13
-117.963
-115.896
-113.891
-111.871
-109.951
-108.054
-143.823
-144.028
-143.261
-143.37
-141.057
-138.457
-135.632
-132.997
-130.103
-127.326
-124.601
-121.949
-119.423
-116.882
-114.519
-112.164
-109.909
-107.691
-105.623
-103.52
-146.27
-146.282
-145.106
-143.945
-141.343
-138.215
-135.136
-131.736
-128.577
-125.393
-122.358
-119.388
-116.545
-113.731
-111.115
-108.482
-106.047
-103.666
-101.439
-99.1469
-148.907
-148.543
-148.191
-145.41
-142.01
-138.225
-134.256
-130.533
-126.832
-123.279
-119.814
-116.479
-113.288
-110.164
-107.255
-104.331
-101.673
-99.0158
-96.5887
-94.1131
-153.575
-152.783
-151.905
-147.906
-143.39
-138.788
-134.115
-129.693
-125.382
-121.258
-117.336
-113.575
-109.988
-106.542
-103.321
-100.13
-97.2506
-94.3605
-91.7861
-89.0943
-161.266
-160.288
-157.18
-151.708
-145.371
-139.325
-133.756
-128.411
-123.393
-118.668
-114.203
-109.983
-105.993
-102.203
-98.6586
-95.2005
-92.1104
-88.9587
-86.2491
-83.4247
-167.602
-166.765
-160.851
-153.697
-146.15
-139.067
-132.515
-126.477
-120.795
-115.496
-110.55
-105.901
-101.531
-97.4265
-93.5827
-89.9047
-86.5893
-83.2212
-80.4027
-77.3829
-173.666
-171.752
-163.32
-154.522
-145.677
-137.653
-130.153
-123.34
-117.036
-111.186
-105.762
-100.701
-95.9802
-91.5715
-87.4516
-83.563
-80.0445
-76.4976
-73.5753
-70.4244
-174.206
-171.691
-162.307
-152.223
-142.724
-133.974
-125.954
-118.637
-111.883
-105.65
-99.8897
-94.5307
-89.5494
-84.9187
-80.6005
-76.5753
-72.8782
-69.2162
-66.3239
-62.7757
-171.667
-169.338
-158.769
-147.971
-137.985
-128.752
-120.205
-112.457
-105.297
-98.6921
-92.6188
-86.98
-81.767
-76.9345
-72.4459
-68.291
-64.4534
-60.803
-57.7518
-54.2058
-167.236
-164.662
-154.04
-141.829
-131.185
-121.537
-112.582
-104.495
-97.0827
-90.2641
-84.0092
-78.2222
-72.8778
-67.9352
-63.3549
-59.1246
-55.2047
-51.4914
-48.3503
-44.7591
-160.715
-156.943
-145.209
-133.286
-122.019
-112.212
-103.054
-94.7931
-87.2195
-80.248
-73.8758
-67.9812
-62.562
-57.5564
-52.9285
-48.6803
-44.7207
-41.0565
-37.9024
-34.2486
-149.885
-145.635
-134.06
-122.268
-110.979
-101.01
-91.77
-83.4033
-75.792
-68.7969
-62.4135
-56.5313
-51.1229
-46.1396
-41.5534
-37.3411
-33.4081
-29.8245
-26.7066
-23.0236
-137.979
-133.016
-120.917
-109.114
-97.6691
-87.745
-78.5458
-70.2496
-62.7032
-55.7654
-49.4554
-43.6381
-38.3107
-33.4033
-28.895
-24.7675
-20.9039
-17.4609
-14.3919
-10.6827
-122.325
-117.383
-104.95
-93.2346
-82.3317
-72.6495
-63.7345
-55.6069
-48.2679
-41.5122
-35.3683
-29.7229
-24.5423
-19.787
-15.4408
-11.4493
-7.72059
-4.48333
-1.52934
2.14095
-105.636
-100.162
-87.5268
-76.3611
-65.5209
-56.1398
-47.4836
-39.6267
-32.5241
-25.9932
-20.0704
-14.6289
-9.65745
-5.09482
-0.937195
2.87601
6.41427
9.40209
12.1544
15.6726
-86.411
-80.7582
-67.7221
-57.2508
-47.1371
-38.117
-29.9669
-22.4489
-15.719
-9.51663
-3.88459
1.2805
6.02257
10.3578
14.3132
17.9761
21.3237
24.0755
26.6501
30.5328
-66.1738
-60.3138
-47.6323
-37.5457
-27.9282
-19.357
-11.6052
-4.51749
1.87739
7.7552
13.1027
18.0246
22.5543
26.7476
30.6345
34.2931
37.6226
40.7018
44.0437
48.0326
-109.779
-100.743
-93.7757
-91.7084
-88.3914
-87.8948
-85.9976
-85.1567
-83.8617
-82.6289
-81.522
-80.0541
-78.9618
-77.3837
-76.1645
-74.5915
-73.0187
-72.042
-71.3205
-70.8292
-104.809
-96.6978
-89.3097
-87.4938
-83.9056
-83.5666
-81.856
-81.2646
-80.266
-79.2655
-78.411
-77.163
-76.3076
-74.9337
-73.9482
-72.5697
-71.206
-70.3078
-69.7353
-69.2912
-100.036
-92.582
-84.5141
-83.0207
-79.6053
-79.4691
-77.9608
-77.5026
-76.7127
-75.9111
-75.2984
-74.2609
-73.626
-72.4537
-71.6803
-70.467
-69.3187
-68.6243
-68.1444
-67.6974
-94.8359
-88.1486
-79.8507
-78.7349
-75.166
-75.1877
-73.901
-73.689
-73.2049
-72.6253
-72.2579
-71.4306
-71.0313
-70.0502
-69.5106
-68.4877
-67.5531
-66.9195
-66.6003
-66.1877
-89.5831
-83.6507
-74.9207
-74.1953
-70.8762
-71.1148
-70.0811
-70.003
-69.7333
-69.3424
-69.2113
-68.5857
-68.4018
-67.6183
-67.2878
-66.425
-65.7088
-65.2604
-65.0586
-64.6347
-83.8127
-78.8141
-70.0895
-69.8098
-66.479
-66.8611
-66.0983
-66.2609
-66.3046
-66.1272
-66.2351
-65.8102
-65.8535
-65.258
-65.1604
-64.4856
-63.9956
-63.5823
-63.5584
-63.1671
-78.079
-73.9174
-65.0626
-65.1704
-62.2005
-62.7981
-62.3439
-62.6433
-62.9072
-62.9176
-63.2486
-63.0221
-63.2746
-62.8708
-62.9791
-62.4622
-62.203
-61.9457
-62.0656
-61.6701
-71.978
-68.6378
-60.0882
-60.657
-57.8272
-58.5667
-58.4268
-58.9704
-59.5457
-59.7677
-60.3292
-60.2974
-60.7679
-60.5491
-60.8916
-60.5582
-60.5451
-60.2943
-60.6179
-60.2493
-65.7161
-63.2944
-54.8752
-55.9494
-53.5579
-54.5082
-54.7255
-55.4153
-56.2182
-56.6254
-57.4035
-57.5644
-58.2357
-58.203
-58.7479
-58.5731
-58.8133
-58.6779
-59.184
-58.8095
-58.9296
-57.6803
-49.7376
-51.2812
-49.2177
-50.2891
-50.8679
-51.8098
-52.9187
-53.5407
-54.5351
-54.8872
-55.7653
-55.9171
-56.6894
-56.7071
-57.223
-57.0403
-57.7974
-57.4402
-52.0194
-51.8275
-44.4653
-46.3902
-44.964
-46.235
-47.2059
-48.3157
-49.6547
-50.4654
-51.6644
-52.2033
-53.2726
-53.6071
-54.5757
-54.7617
-55.544
-55.4659
-56.3923
-56.0602
-44.6177
-45.5834
-39.177
-41.5591
-40.6346
-42.0404
-43.3935
-44.7761
-46.4139
-47.4438
-48.8479
-49.5725
-50.8378
-51.3515
-52.5401
-52.9304
-53.9666
-53.9145
-55.0943
-54.7484
-36.9063
-39.2168
-33.7276
-36.5393
-36.3781
-37.9972
-39.7527
-41.3368
-43.2063
-44.4326
-46.0294
-46.9342
-48.3808
-49.0708
-50.4487
-51.02
-52.2973
-52.3998
-53.7375
-53.4321
-28.4761
-32.5599
-28.2686
-31.5664
-32.0515
-33.8424
-35.978
-37.8634
-40.0262
-41.4762
-43.2664
-44.349
-45.9799
-46.8414
-48.4295
-49.2185
-50.7296
-50.9152
-52.5288
-52.1852
-19.4813
-25.7437
-22.666
-26.441
-27.8002
-29.8396
-32.3646
-34.4906
-36.8881
-38.5424
-40.5127
-41.7655
-43.5661
-44.594
-46.3637
-47.3574
-49.0792
-49.471
-51.3525
-50.9271
-9.53815
-18.4582
-16.972
-21.2855
-23.4221
-25.6958
-28.5847
-31.0491
-33.7445
-35.6303
-37.7869
-39.2113
-41.1866
-42.3768
-44.3505
-45.5797
-47.5157
-48.0203
-50.2865
-49.7845
0.504002
-11.1605
-11.2034
-15.9959
-19.0736
-21.6484
-24.9016
-27.6494
-30.6026
-32.7076
-35.0391
-36.6287
-38.7635
-40.1042
-42.2489
-43.6518
-45.8409
-46.4482
-49.0577
-48.5357
10.7484
-4.21032
-5.89761
-11.0021
-14.9241
-17.8177
-21.375
-24.4592
-27.696
-30.0151
-32.4968
-34.2212
-36.501
-37.9791
-40.2922
-41.967
-44.2673
-45.0343
-48.0247
-47.3055
25.7391
4.49902
0.028725
-5.86374
-10.822
-14.131
-17.9722
-21.3834
-24.8809
-27.4243
-30.0597
-31.915
-34.3425
-35.9672
-38.4636
-40.4922
-42.8544
-43.9443
-47.4588
-46.6978
43.0877
16.3519
7.91831
0.725877
-4.97441
-8.69363
-12.969
-16.8785
-20.8371
-23.7536
-26.6969
-28.8294
-31.4822
-33.2755
-36.0703
-38.2932
-41.4797
-42.4463
-46.65
-45.0114
66.3554
61.2084
45.7545
37.0385
26.6463
19.8395
12.8545
7.76345
2.284
-2.34786
-7.05762
-10.5475
-13.9182
-16.09
-19.3097
-19.9526
-25.4262
-25.9746
-31.8697
-26.1362
102.591
89.812
70.805
59.6555
47.8051
38.6196
29.8887
22.8997
17.0053
12.1325
7.81589
3.54303
-0.447215
-4.2106
-7.59068
-11.0566
-13.648
-16.4814
-17.7742
-17.8428
104.102
91.5849
79.9324
70.2131
61.2325
53.2226
46.0103
39.3331
33.2003
27.9629
23.3913
19.6589
16.1387
13.3824
10.689
8.62319
6.43025
4.65558
3.71456
3.4508
103.32
94.9877
86.6853
77.6088
69.9267
62.3235
55.7036
49.5982
44.2837
39.1159
34.4084
29.9103
26.073
22.2477
19.1682
16.0454
13.6935
11.3315
10.2505
9.96834
94.9666
87.9489
81.8038
75.7142
70.3686
64.9001
59.8933
55.0794
50.5819
46.5532
42.7189
39.3523
36.1345
33.3532
30.7438
28.3964
26.4129
24.3759
23.0334
22.7024
91.3663
86.8122
83.3652
78.3983
73.9039
69.2192
64.8278
60.5409
56.5045
52.6007
48.9382
45.4503
42.201
39.1398
36.3325
33.7357
31.4436
29.3552
28.1412
27.8151
84.9557
81.684
78.4443
75.0523
71.8351
68.6582
65.4134
62.3567
59.22
56.3869
53.4368
50.846
48.1352
45.7646
43.322
40.998
38.8271
36.6638
35.0681
34.693
83.4274
81.0468
79.3043
76.6876
73.7542
70.9942
68.3247
65.5884
62.8647
60.2214
57.5442
55.036
52.4554
50.0895
47.661
45.5233
43.2385
41.1592
39.6998
39.0936
79.7324
77.9874
76.1646
74.3776
72.8323
70.9259
68.8257
66.9156
64.7455
62.8461
60.6402
58.7701
56.5238
54.6795
52.3637
50.4593
48.0904
46.1106
44.1512
43.4452
79.5482
78.5177
77.3738
76.0332
74.364
72.6941
70.9762
69.3711
67.5986
65.9132
64.0547
62.3424
60.3596
58.6344
56.4723
54.7217
52.2025
50.4112
47.972
47.2961
78.3401
77.3362
76.3863
75.5411
74.617
73.6677
72.4357
71.2618
69.9114
68.7177
67.2736
66.0577
64.4741
63.2241
61.3788
60.0669
57.6616
56.4188
53.5839
52.9806
78.8429
78.4414
77.8043
77.0752
76.1605
75.3482
74.4132
73.5476
72.5973
71.6939
70.6566
69.7071
68.5365
67.5243
66.1685
65.0823
63.2044
62.2864
58.4665
58.6699
78.9521
78.5936
78.198
77.8497
77.3968
76.9704
76.4322
75.9453
75.3267
74.8646
74.2794
73.8409
73.3031
72.8912
72.2792
71.8923
70.9154
70.7748
69.7837
71.2792
79.8901
79.7349
79.3791
79.1661
78.8147
78.6302
78.3119
78.1864
77.9362
77.8652
77.7247
77.7421
77.8086
77.9318
78.3212
78.5056
79.4347
79.5359
81.5765
83.3246
80.5497
80.5206
80.4017
80.3783
80.2655
80.276
80.1846
80.2848
80.2478
80.501
80.5481
81.0312
81.2343
82.0181
82.5313
83.657
84.8565
86.1166
89.0728
89.6453
81.3537
81.3974
81.3815
81.4738
81.5308
81.7013
81.8479
82.1309
82.3837
82.8487
83.2331
83.9681
84.48
85.6223
86.2646
88.0667
89.0496
91.6218
93.6325
95.4934
82.0333
82.1511
82.2345
82.4167
82.568
82.8443
83.069
83.4901
83.8278
84.4258
84.8584
85.7825
86.2949
87.8355
88.114
91.0546
91.3765
95.2112
96.354
99.9085
82.6567
82.8243
82.9969
83.2378
83.4986
83.8338
84.2146
84.6813
85.1696
85.8174
86.4756
87.3183
88.0946
89.137
90.0246
91.4193
92.1473
94.0024
94.7784
103.425
83.0501
83.2308
83.4181
83.6817
83.965
84.3412
84.7334
85.2327
85.7566
86.418
87.0735
87.9282
88.7281
89.8485
90.783
92.2313
93.2552
94.9728
95.5883
97.4125
83.2585
83.4537
83.6837
83.968
84.3025
84.6923
85.1411
85.6586
86.2353
86.904
87.6208
88.4621
89.3149
90.3553
91.3175
92.6051
93.589
95.2318
95.9863
99.5152
201.373
200.747
199.387
197.649
194.984
192.098
188.144
183.956
178.974
173.546
167.499
160.89
153.761
145.068
137.496
128.336
118.519
109.323
100.09
90.3408
171.835
171.498
170.893
170.013
168.829
167.455
165.666
163.853
161.435
159.155
156.156
153.504
149.17
144.667
140.981
137.5
133.536
129.487
125.058
120.473
134.729
134.589
134.312
133.95
133.466
132.86
132.187
131.347
130.437
129.41
128.241
127.026
125.586
124.25
122.435
120.841
118.824
117.026
114.778
113.052
122.246
122.158
121.988
121.788
121.452
121.145
120.625
120.176
119.518
118.895
118.095
117.327
116.373
115.489
114.405
113.426
112.192
111.154
109.73
108.754
103.987
103.925
103.846
103.702
103.565
103.349
103.145
102.874
102.592
102.293
101.918
101.596
101.169
100.811
100.304
99.8955
99.3043
98.8602
98.1613
97.7363
98.1064
98.0743
98.0035
97.9381
97.8153
97.7157
97.5418
97.4033
97.1847
96.9785
96.7304
96.457
96.134
95.8229
95.4319
95.0919
94.6221
94.2639
93.7121
93.3812
89.6424
89.6085
89.5638
89.4932
89.417
89.3148
89.2016
89.0754
88.9167
88.77
88.572
88.3938
88.1659
87.9542
87.6923
87.4495
87.1425
86.8732
86.5201
86.2308
86.7556
86.7344
86.6943
86.6532
86.5871
86.5249
86.4343
86.3494
86.235
86.1265
85.9875
85.8579
85.691
85.542
85.3462
85.1761
84.954
84.7591
84.4988
84.2831
83.1494
83.1264
83.0936
83.0474
82.992
82.924
82.8445
82.7568
82.6529
82.548
82.4193
82.2996
82.1388
81.9966
81.7965
81.6286
81.3855
81.1711
80.8335
80.468
81.749
81.7316
81.7055
81.6728
81.6306
81.5826
81.5244
81.4621
81.3888
81.3152
81.2267
81.1446
81.0314
80.9317
80.7903
80.6715
80.5261
80.3883
80.2239
80.0557
80.7968
80.7758
80.7457
80.7051
80.657
80.599
80.5357
80.4646
80.3883
80.3058
80.217
80.1232
79.9993
79.8664
79.6692
79.5045
79.3055
79.1297
78.9316
78.7659
80.3027
80.2749
80.2419
80.2033
80.1582
80.1111
80.0676
80.0255
79.9802
79.933
79.8859
79.8319
79.7687
79.692
79.615
79.5319
79.4229
79.3258
79.2169
79.114
80.3407
80.3236
80.309
80.2915
80.2777
80.2608
80.2267
80.1882
80.1424
80.0951
80.0412
79.9832
79.9154
79.8386
79.7542
79.653
79.5379
79.4298
79.2864
79.1542
80.713
80.7038
80.6916
80.676
80.6581
80.6365
80.6171
80.5918
80.5676
80.5361
80.5059
80.4709
80.4349
80.3961
80.3533
80.3078
80.259
80.203
80.1486
80.0807
81.025
81.0184
81.0099
81.0003
80.9885
80.9759
80.9606
80.9452
80.9271
80.9082
80.8873
80.8644
80.841
80.8139
80.7884
80.7593
80.7316
80.7003
80.6702
80.6366
81.5882
81.5824
81.5767
81.5698
81.5635
81.5554
81.5484
81.5393
81.5314
81.5214
81.5121
81.5012
81.4903
81.4786
81.4664
81.4526
81.4393
81.4236
81.4094
81.392
81.9899
81.9864
81.983
81.9812
81.9795
81.9789
81.9785
81.9788
81.9795
81.9803
81.9821
81.9836
81.9873
81.9896
81.9938
81.9969
82.0019
82.006
82.0115
82.0163
82.4229
82.4186
82.4167
82.4151
82.4161
82.4175
82.4213
82.4252
82.4317
82.4384
82.4485
82.4595
82.4737
82.4869
82.5035
82.5191
82.5379
82.5563
82.5767
82.5981
82.7046
82.7014
82.7004
82.7025
82.7062
82.7131
82.7219
82.7333
82.7467
82.7621
82.7788
82.795
82.8141
82.8322
82.8547
82.8754
82.9009
82.9248
82.9515
82.9821
82.8359
82.8319
82.8313
82.8351
82.8411
82.849
82.8589
82.871
82.8849
82.9005
82.9183
82.938
82.9599
82.9836
83.0102
83.038
83.0698
83.1018
83.1395
83.1758
65.0005
64.0746
60.7634
57.6007
54.5614
51.2802
47.8029
44.0958
40.0815
35.734
30.994
25.7668
20.0972
13.723
6.8203
-0.970612
-9.49656
-18.6723
-30.5707
-36.5548
76.1951
75.8548
73.6718
71.3063
68.9401
66.308
63.4206
60.245
56.7548
52.9076
48.6549
43.9486
38.7546
32.9554
26.5911
19.3965
11.5888
2.80433
-7.88497
-13.772
88.683
89.156
87.6781
85.8124
83.9133
81.7279
79.2735
76.5617
73.5401
70.1933
66.4762
62.3239
57.7615
52.5774
46.9158
40.451
33.4937
25.4697
16.062
10.0826
102.043
102.712
101.505
100.073
98.608
96.8942
94.9463
92.7438
90.2484
87.4404
84.2502
80.6723
76.6289
72.0521
66.9702
61.1361
54.8362
47.3529
39.1927
34.2603
115.185
116.191
115.48
114.489
113.48
112.239
110.756
109.039
107.044
104.749
102.116
99.0989
95.6767
91.7101
87.255
82.0653
76.3511
69.4605
61.8318
57.7005
128.783
129.967
129.501
128.86
128.203
127.344
126.279
125.014
123.494
121.721
119.613
117.186
114.33
111.016
107.225
102.743
97.7435
91.5159
84.5529
80.1176
141.559
142.948
142.83
142.597
142.369
141.962
141.373
140.605
139.616
138.385
136.873
135.054
132.864
130.258
127.184
123.512
119.323
114.074
108.128
103.365
154.488
156.026
156.193
156.287
156.395
156.352
156.148
155.799
155.248
154.508
153.503
152.255
150.653
148.716
146.353
143.491
140.142
135.824
131.172
126.031
165.895
167.592
168.159
168.639
169.146
169.529
169.786
169.921
169.898
169.702
169.291
168.658
167.729
166.519
164.899
162.905
160.402
157.266
153.869
148.845
177.192
179.124
180.034
180.874
181.737
182.502
183.148
183.692
184.078
184.318
184.357
184.213
183.802
183.141
182.129
180.812
179.017
176.832
174.118
170.308
187.259
189.302
190.527
191.694
192.894
194.008
195.03
195.961
196.772
197.472
198.015
198.403
198.548
198.474
198.069
197.389
196.268
194.833
192.775
189.969
196.634
198.916
200.49
202.008
203.549
205.015
206.398
207.708
208.914
210.021
210.966
211.753
212.291
212.629
212.65
212.445
211.798
210.865
209.273
207.027
205.411
207.782
209.513
211.246
213.016
214.743
216.418
218.039
219.579
221.014
222.306
223.447
224.385
225.163
225.662
225.949
225.798
225.402
224.309
222.635
212.68
215.172
217.258
219.329
221.427
223.491
225.494
227.443
229.29
231.037
232.642
234.109
235.404
236.536
237.405
238.066
238.288
238.273
237.559
236.333
219.328
222.037
224.362
226.65
228.951
231.191
233.375
235.492
237.529
239.488
241.34
243.099
244.706
246.164
247.374
248.354
248.914
249.277
248.937
248.215
225
227.791
230.197
232.621
235.068
237.482
239.865
242.208
244.508
246.742
248.902
250.961
252.877
254.635
256.139
257.414
258.345
259.058
259.195
259.107
229.635
232.508
235.047
237.626
240.229
242.808
245.355
247.867
250.322
252.7
254.981
257.13
259.128
260.941
262.547
263.953
265.105
266.025
266.507
266.56
233.085
236.034
238.618
241.265
243.945
246.602
249.234
251.841
254.398
256.901
259.325
261.661
263.885
265.973
267.918
269.659
271.195
272.39
273.113
273.138
235.492
238.472
241.086
243.788
246.526
249.253
251.955
254.649
257.29
259.899
262.414
264.868
267.176
269.371
271.341
273.104
274.515
275.545
276.101
276.209
236.551
239.542
242.171
244.901
247.667
250.427
253.163
255.895
258.578
261.231
263.795
266.302
268.661
270.93
272.958
274.862
276.387
277.781
278.59
279.244
-108.812
-110.303
-111.784
-113.298
-114.861
-116.519
-118.087
-119.701
-121.523
-123.351
-125.029
-126.799
-128.762
-130.77
-132.053
-133.24
-133.703
-133.447
-133.716
-133.637
-104.791
-106.44
-108.037
-109.726
-111.457
-113.286
-115.14
-117.009
-118.928
-121.028
-123.169
-125.16
-127.237
-129.501
-131.555
-133.371
-133.572
-134.537
-133.998
-134.69
-100.68
-102.485
-104.308
-106.237
-108.156
-110.135
-112.209
-114.397
-116.56
-118.872
-121.223
-123.695
-125.964
-128.317
-130.61
-132.377
-133.945
-134.686
-134.479
-134.776
-96.2073
-98.2338
-100.222
-102.369
-104.535
-106.804
-109.083
-111.531
-113.968
-116.534
-119.151
-121.842
-124.639
-127.25
-130.116
-132.695
-134.841
-134.842
-135.563
-135.246
-91.9791
-94.184
-96.3169
-98.597
-100.938
-103.47
-105.984
-108.699
-111.438
-114.305
-117.242
-120.295
-123.367
-126.68
-129.644
-132.665
-135.341
-136.365
-137.41
-137.376
-87.0641
-89.4447
-91.7757
-94.3333
-96.8907
-99.7166
-102.523
-105.538
-108.622
-111.848
-115.186
-118.617
-122.217
-125.791
-129.649
-133.265
-136.377
-138.981
-139.401
-139.694
-82.1772
-84.7609
-87.227
-90.0064
-92.7763
-95.8471
-98.9528
-102.278
-105.741
-109.372
-113.163
-117.148
-121.305
-125.572
-130.069
-134.472
-138.895
-142.715
-143.448
-144.278
-76.5777
-79.3075
-81.9156
-84.9589
-87.9415
-91.2851
-94.7115
-98.3777
-102.238
-106.327
-110.646
-115.219
-120.071
-125.219
-130.601
-136.434
-142.477
-147.721
-150.702
-151.646
-70.6545
-73.5773
-76.2912
-79.5415
-82.745
-86.2973
-90.0166
-93.9889
-98.221
-102.725
-107.521
-112.659
-118.16
-124.014
-130.356
-137.209
-144.572
-151.451
-157.143
-158.043
-63.8121
-66.8839
-69.7079
-73.1292
-76.5321
-80.2954
-84.2814
-88.5521
-93.1261
-98.0397
-103.299
-108.976
-115.093
-121.682
-128.951
-136.745
-145.286
-153.766
-162.115
-163.966
-56.4516
-59.7864
-62.595
-66.1089
-69.672
-73.5631
-77.7448
-82.2334
-87.0678
-92.2733
-97.8737
-103.937
-110.502
-117.608
-125.414
-133.913
-143.158
-152.959
-162.116
-164.519
-47.9038
-51.3008
-54.2449
-57.7905
-61.5013
-65.5334
-69.8887
-74.5818
-79.6471
-85.1357
-91.0424
-97.4697
-104.438
-111.965
-120.284
-129.275
-139.005
-149.526
-159.821
-162.076
-38.5363
-42.0217
-45.0647
-48.6671
-52.4677
-56.5722
-61.0233
-65.8274
-71.0268
-76.6615
-82.7575
-89.4063
-96.6315
-104.506
-113.24
-122.658
-133.052
-144.963
-155.361
-157.872
-28.2195
-31.746
-34.7966
-38.3578
-42.1933
-46.3229
-50.8212
-55.691
-60.9669
-66.7146
-72.9219
-79.7151
-87.0982
-95.1322
-104.06
-113.617
-124.591
-136.242
-147.726
-151.398
-17.1386
-20.6909
-23.7098
-27.1958
-31.0088
-35.0999
-39.5622
-44.4108
-49.679
-55.4124
-61.6403
-68.4696
-75.8956
-84.0482
-93.0709
-102.805
-113.843
-125.356
-136.706
-140.873
-4.96136
-8.54238
-11.525
-14.8801
-18.6288
-22.6452
-27.0339
-31.8135
-37.0061
-42.6828
-48.8342
-55.5988
-62.9608
-71.04
-80.0154
-89.6989
-100.873
-112.405
-124.245
-129.109
7.64335
4.10038
1.24049
-1.90814
-5.52235
-9.39723
-13.6258
-18.2523
-23.2986
-28.8008
-34.7947
-41.3909
-48.5489
-56.4661
-65.1726
-74.6271
-85.2872
-96.7254
-108.917
-113.765
20.993
17.6126
14.9439
12.0331
8.60409
4.89768
0.850863
-3.59147
-8.43576
-13.7425
-19.514
-25.8775
-32.8033
-40.4571
-48.9022
-58.0625
-68.6574
-79.5691
-91.9575
-97.3361
35.6095
31.8692
29.3762
26.6946
23.4464
19.8918
16.046
11.8313
7.21672
2.18823
-3.29998
-9.35022
-15.906
-23.219
-31.169
-39.9695
-49.8362
-60.0296
-72.8363
-78.4187
52.8295
48.9505
45.7226
42.7395
39.5142
35.965
32.1898
28.1161
23.7112
18.9213
13.7188
8.00345
1.77951
-5.1163
-12.6715
-21.0364
-30.4175
-40.2792
-52.704
-58.4571
-67.8077
-68.2509
-69.0239
-69.9431
-71.431
-72.9321
-74.0717
-75.5349
-76.514
-77.841
-78.7946
-79.8511
-80.9445
-81.5506
-83.1283
-83.4048
-86.1781
-88.1383
-94.1017
-102.638
-66.2777
-66.6718
-67.2972
-68.1347
-69.43
-70.7224
-71.6351
-72.8896
-73.6349
-74.7408
-75.4467
-76.2648
-77.0689
-77.4232
-78.8658
-78.9518
-81.938
-83.677
-90.2971
-97.7606
-64.6918
-65.0839
-65.6245
-66.2437
-67.3338
-68.4604
-69.1669
-70.2188
-70.7471
-71.6392
-72.1108
-72.726
-73.3376
-73.531
-74.765
-74.6579
-77.6075
-78.9383
-86.1718
-93.0882
-63.1955
-63.5555
-63.93
-64.4866
-65.3747
-66.2992
-66.7773
-67.6369
-67.932
-68.6108
-68.8438
-69.2311
-69.5486
-69.518
-70.567
-70.2598
-73.3029
-74.2967
-81.9421
-87.9424
-61.6543
-62.0258
-62.2817
-62.6469
-63.32
-64.0842
-64.3586
-65.017
-65.1042
-65.577
-65.5838
-65.7741
-65.8899
-65.6872
-66.4943
-65.9793
-68.8937
-69.4359
-77.4408
-82.807
-60.2016
-60.5498
-60.6157
-60.9447
-61.4
-61.9675
-62.014
-62.4824
-62.3463
-62.6141
-62.3908
-62.3588
-62.1796
-61.7573
-62.3374
-61.6382
-64.5089
-64.631
-72.7737
-77.257
-58.7187
-59.0777
-58.9895
-59.1634
-59.3858
-59.7961
-59.6402
-59.9155
-59.5741
-59.6437
-59.2026
-58.9801
-58.5891
-57.9987
-58.2808
-57.3678
-59.9785
-59.6843
-67.8756
-71.6478
-57.314
-57.6597
-57.3503
-57.5178
-57.5014
-57.7207
-57.3362
-57.4238
-56.8679
-56.7381
-56.0767
-55.6355
-54.9478
-54.1346
-54.1525
-53.0633
-55.4797
-54.7503
-62.7211
-65.6075
-55.8883
-56.2356
-55.7435
-55.8023
-55.5268
-55.5883
-55.0033
-54.9048
-54.1507
-53.8271
-52.9555
-52.3292
-51.4223
-50.4419
-50.1103
-48.8017
-50.8943
-49.5958
-57.3983
-59.4796
-54.5331
-54.8853
-54.1193
-54.2224
-53.6793
-53.5444
-52.7364
-52.4515
-51.4919
-50.9764
-49.894
-49.0496
-47.8444
-46.6354
-45.9899
-44.5399
-46.2664
-44.5009
-51.8945
-52.7455
-53.1643
-53.5017
-52.5528
-52.5658
-51.745
-51.444
-50.4398
-49.9735
-48.8248
-48.1227
-46.8403
-45.8096
-44.3806
-42.9966
-41.9621
-40.2977
-41.4602
-39.3127
-46.094
-45.9577
-51.8622
-52.224
-51.0097
-51.0039
-49.9319
-49.425
-48.2042
-47.558
-46.2122
-45.3254
-43.8422
-42.5919
-40.8655
-39.2347
-37.8538
-36.0437
-36.6805
-34.0847
-39.9264
-38.7214
-50.5513
-50.8887
-49.491
-49.3593
-48.0331
-47.3485
-45.9376
-45.1175
-43.591
-42.5261
-40.8529
-39.4107
-37.4567
-35.6321
-33.8466
-31.8014
-31.741
-28.7164
-33.6355
-31.1554
-49.3077
-49.6869
-48.0145
-47.8062
-46.2504
-45.3476
-43.7289
-42.7376
-41.0239
-39.7837
-37.9201
-36.2566
-34.0077
-31.9113
-29.7626
-27.5393
-26.8332
-23.3239
-27.0532
-22.8652
-48.0488
-48.5238
-46.5765
-46.1804
-44.4017
-43.2984
-41.4968
-40.3422
-38.4571
-37.0501
-35.0079
-33.1452
-30.6643
-28.3473
-25.798
-23.3024
-21.7856
-17.7952
-20.3269
-14.0379
-46.9018
-47.4672
-45.1338
-44.632
-42.6431
-41.3052
-39.3008
-37.985
-35.9203
-34.3457
-32.119
-30.0274
-27.2473
-24.6265
-21.7143
-18.9827
-16.7118
-12.1681
-13.1254
-4.23959
-45.6509
-46.2334
-43.5707
-42.9821
-40.7313
-39.2212
-37.0452
-35.5831
-33.3563
-31.6232
-29.2227
-26.9164
-23.887
-21.0206
-17.7291
-14.6695
-11.5033
-6.46023
-5.92232
5.6594
-44.4168
-45.1983
-42.1642
-41.426
-39.0693
-37.2851
-34.9437
-33.3445
-30.9667
-29.1053
-26.556
-24.0364
-20.7337
-17.5713
-13.9355
-10.5389
-6.58301
-1.21384
0.958545
15.7086
-43.7871
-44.6419
-41.0832
-40.0379
-37.6176
-35.4796
-32.9531
-31.2039
-28.6669
-26.6729
-23.9683
-21.2265
-17.6843
-14.2243
-10.2349
-6.40141
-1.48975
4.70061
9.56556
30.4558
-42.1113
-43.8419
-39.6029
-38.689
-35.4202
-33.1074
-30.2731
-28.3634
-25.5936
-23.3266
-20.3082
-17.2017
-13.2056
-9.25795
-4.88191
-0.708571
4.95514
12.5705
21.1458
47.8316
-23.4875
-29.133
-23.2445
-22.6949
-17.1206
-16.4511
-13.1451
-10.981
-7.60184
-4.02161
0.780307
5.52924
10.94
16.0992
22.9536
29.7001
40.0954
49.0684
64.4099
70.5274
-15.2778
-15.2007
-13.8913
-11.0492
-8.42986
-4.94306
-1.57107
2.26303
6.28554
10.6122
14.8569
19.8184
25.8403
33.0408
41.9742
51.2215
63.0618
74.1217
92.7249
105.788
5.63999
5.91002
6.86002
8.65274
10.8751
12.9608
15.6747
18.4629
21.9686
25.74
30.2897
35.6085
41.6544
48.3052
55.3331
63.2972
72.1457
81.8497
93.3365
105.86
12.0442
12.3286
13.4131
15.8002
18.1459
21.2877
24.3626
28.1943
32.0306
36.5375
41.2231
46.377
51.6664
57.8131
64.4561
72.0426
79.6444
88.5649
96.6921
104.79
24.4719
24.8037
26.1469
28.1819
30.1682
32.5189
35.1185
37.9032
41.0977
44.463
48.255
52.278
56.7048
61.477
66.3921
71.799
77.0242
83.0441
89.0424
95.9788
29.4735
29.7986
30.9987
33.0984
35.374
37.973
40.7658
43.8194
47.0472
50.5188
54.1474
58.0273
62.0158
66.2908
70.6028
75.2339
79.6533
84.5537
87.8422
92.2342
36.1107
36.4923
38.0627
40.2055
42.3738
44.7008
47.1179
49.4833
52.155
54.7396
57.6336
60.454
63.5166
66.5487
69.6966
72.8431
75.9572
79.3209
82.4597
85.688
40.3787
40.9721
42.4416
44.5289
46.796
48.925
51.3304
53.6792
56.2335
58.7207
61.3574
63.9767
66.647
69.3506
71.9543
74.7668
77.55
80.0605
81.7346
84.0054
44.5432
45.2443
47.1955
49.1635
51.5168
53.413
55.7044
57.5459
59.7535
61.6203
63.7735
65.6686
67.7713
69.6703
71.7032
73.5115
75.0281
76.8087
78.5816
80.2437
48.301
48.9711
51.4054
53.1846
55.6974
57.432
59.5796
61.2879
63.245
64.939
66.7557
68.437
70.1243
71.7668
73.4448
75.1206
76.6517
77.9652
78.9446
80.0138
53.8119
54.4056
57.2405
58.4736
60.8732
62.1767
64.0098
65.2469
66.815
68.0103
69.4388
70.5967
71.9385
73.0596
74.1699
75.0799
75.9451
76.8213
77.7154
78.7191
59.4275
59.2165
63.0366
63.9392
65.8193
66.896
68.2412
69.2463
70.3936
71.3289
72.3371
73.2199
74.1375
74.9685
75.8905
76.6943
77.5739
78.2128
78.8013
79.1277
71.8926
70.371
71.3784
71.5269
72.4923
72.8898
73.4906
73.8954
74.4286
74.8527
75.4272
75.8705
76.4702
76.9395
77.4385
77.8295
78.2261
78.5674
78.9181
79.2485
83.8797
82.1267
80.1131
80.0021
79.0423
78.8963
78.4806
78.3702
78.284
78.2599
78.375
78.4305
78.6489
78.7513
79.0295
79.1863
79.5088
79.6897
80.0009
80.1296
90.1116
89.5226
86.5583
85.3125
84.096
83.0133
82.4992
81.7269
81.5133
81.0312
80.9643
80.6988
80.7094
80.5904
80.646
80.6172
80.6912
80.69
80.7735
80.7707
95.4207
93.6931
91.897
89.3789
88.5539
86.8049
86.1283
85.0195
84.4579
83.7263
83.3121
82.8304
82.5536
82.242
82.0731
81.8676
81.7814