/*--------------------------------*- C++ -*----------------------------------*\
  =========                 |
  \\      /  F ield         | OpenFOAM: The Open Source CFD Toolbox
   \\    /   O peration     | Website:  https://openfoam.org
    \\  /    A nd           | Version:  9
     \\/     M anipulation  |
\*---------------------------------------------------------------------------*/
FoamFile
{
    format      ascii;
    class       surfaceScalarField;
    location    "2.7";
    object      phi;
}
// * * * * * * * * * * * * * * * * * * * * * * * * * * * * * * * * * * * * * //

dimensions      [0 3 -1 0 0 0 0];

internalField   nonuniform List<scalar> 
92080
(
0.00165746
-0.428747
0.42709
-0.0145328
-0.878207
0.894397
-0.0494738
-0.967946
1.00289
-0.0853297
-0.9538
0.989656
-0.120242
-0.938725
0.973637
-0.154893
-0.924194
0.958845
-0.188805
-0.912079
0.945991
-0.22259
-0.897912
0.931697
-0.256064
-0.885763
0.919237
-0.289158
-0.874838
0.907932
-0.321992
-0.864568
0.897402
-0.354792
-0.855164
0.887964
-0.387517
-0.847453
0.880178
-0.41951
-0.839281
0.871274
-0.451534
-0.831596
0.863621
-0.483833
-0.824454
0.856752
-0.515517
-0.818328
0.850012
-0.54632
-0.811425
0.842229
-0.576194
-0.803801
0.833675
-0.798585
0.826402
-0.604011
-0.000449643
-0.428298
-0.0207434
-0.857913
-0.0568628
-0.931827
-0.094037
-0.916626
-0.130615
-0.902146
-0.167198
-0.887611
-0.203145
-0.876133
-0.238331
-0.862727
-0.273732
-0.850361
-0.308964
-0.839607
-0.343881
-0.829651
-0.378652
-0.820393
-0.412917
-0.813188
-0.446971
-0.805227
-0.480332
-0.798235
-0.512991
-0.791794
-0.545244
-0.786075
-0.576192
-0.780478
-0.605332
-0.774661
-0.76988
-0.634037
-0.00291672
-0.425381
-0.026986
-0.833843
-0.066883
-0.89193
-0.106963
-0.876546
-0.14598
-0.863129
-0.184521
-0.849069
-0.22245
-0.838204
-0.259896
-0.82528
-0.296833
-0.813424
-0.333508
-0.802932
-0.369918
-0.793241
-0.406373
-0.783938
-0.442585
-0.776975
-0.477978
-0.769834
-0.51361
-0.762603
-0.549286
-0.756119
-0.584432
-0.750928
-0.61868
-0.74623
-0.652131
-0.74121
-0.736531
-0.685481
-0.00533664
-0.420044
-0.0336157
-0.805564
-0.0740476
-0.851498
-0.114777
-0.835817
-0.155107
-0.822799
-0.195407
-0.808769
-0.23491
-0.798701
-0.273367
-0.786823
-0.312105
-0.774686
-0.35059
-0.764448
-0.388563
-0.755267
-0.426532
-0.745969
-0.464386
-0.739121
-0.501708
-0.732512
-0.53802
-0.726292
-0.574385
-0.719753
-0.611666
-0.713648
-0.648583
-0.709313
-0.684142
-0.70565
-0.700956
-0.719717
-0.00488438
-0.41516
-0.039447
-0.771002
-0.082557
-0.808388
-0.125675
-0.792699
-0.167958
-0.780516
-0.210018
-0.766709
-0.251875
-0.756844
-0.292671
-0.746027
-0.332575
-0.734782
-0.372702
-0.724321
-0.412418
-0.715552
-0.4521
-0.706288
-0.491952
-0.699269
-0.531256
-0.693208
-0.570474
-0.687075
-0.608301
-0.681926
-0.645828
-0.67612
-0.684831
-0.67031
-0.723408
-0.667073
-0.663471
-0.760893
-0.000686446
-0.414474
-0.038278
-0.73341
-0.0836624
-0.763003
-0.128925
-0.747436
-0.173517
-0.735925
-0.217711
-0.722514
-0.261135
-0.71342
-0.30337
-0.703792
-0.345145
-0.693007
-0.386387
-0.683078
-0.42727
-0.674669
-0.467925
-0.665633
-0.509138
-0.658056
-0.55001
-0.652335
-0.590399
-0.646686
-0.631292
-0.641033
-0.670662
-0.63675
-0.70986
-0.631111
-0.750365
-0.626569
-0.623104
-0.790732
-6.24076e-05
-0.414411
-0.0409796
-0.692493
-0.0904268
-0.713556
-0.138578
-0.699285
-0.1851
-0.689403
-0.231063
-0.676551
-0.277059
-0.667423
-0.321531
-0.659321
-0.364473
-0.650066
-0.407384
-0.640167
-0.449515
-0.632537
-0.490956
-0.624192
-0.532843
-0.616169
-0.575155
-0.610023
-0.616603
-0.605238
-0.657525
-0.600112
-0.698765
-0.595509
-0.738608
-0.591268
-0.778603
-0.586574
-0.582562
-0.819146
0.00131267
-0.415724
-0.0408959
-0.650285
-0.0918536
-0.662599
-0.1417
-0.649439
-0.190484
-0.640618
-0.237908
-0.629128
-0.284773
-0.620558
-0.33092
-0.613174
-0.375744
-0.605241
-0.419584
-0.596327
-0.463301
-0.588821
-0.505757
-0.581736
-0.548025
-0.573901
-0.591237
-0.566812
-0.634947
-0.561527
-0.67812
-0.556939
-0.72069
-0.55294
-0.763137
-0.54882
-0.804174
-0.545537
-0.54134
-0.845396
-0.000770167
-0.414954
-0.0479457
-0.603109
-0.101858
-0.608686
-0.153387
-0.59791
-0.203247
-0.590759
-0.252271
-0.580104
-0.301188
-0.57164
-0.348733
-0.56563
-0.394576
-0.559398
-0.439614
-0.551289
-0.484077
-0.544358
-0.527573
-0.538239
-0.56955
-0.531924
-0.611369
-0.524993
-0.653816
-0.51908
-0.696943
-0.513812
-0.740196
-0.509686
-0.783216
-0.505801
-0.826172
-0.502581
-0.499748
-0.867765
-0.00674521
-0.408208
-0.0547467
-0.555108
-0.108092
-0.555341
-0.1605
-0.545502
-0.211501
-0.539758
-0.260611
-0.530993
-0.309694
-0.522557
-0.359153
-0.516171
-0.406948
-0.511603
-0.452865
-0.505372
-0.499031
-0.498192
-0.544743
-0.492527
-0.589406
-0.48726
-0.632768
-0.481631
-0.675637
-0.476211
-0.718411
-0.471039
-0.761586
-0.466511
-0.80502
-0.462366
-0.848688
-0.458912
-0.455563
-0.892873
-0.0169828
-0.391226
-0.0674491
-0.504641
-0.120819
-0.501971
-0.172912
-0.493409
-0.224301
-0.488369
-0.27465
-0.480644
-0.324327
-0.47288
-0.373809
-0.466689
-0.423311
-0.462101
-0.470496
-0.458187
-0.51588
-0.452809
-0.561586
-0.446821
-0.606663
-0.442183
-0.651163
-0.437131
-0.694835
-0.43254
-0.737978
-0.427895
-0.780574
-0.423916
-0.822966
-0.419974
-0.865087
-0.416791
-0.413546
-0.907105
-0.0242486
-0.366977
-0.0752316
-0.453658
-0.128776
-0.448426
-0.182009
-0.440176
-0.233813
-0.436566
-0.283426
-0.431031
-0.332947
-0.423359
-0.383016
-0.41662
-0.433282
-0.411835
-0.483647
-0.407821
-0.53194
-0.404517
-0.578696
-0.400064
-0.62529
-0.395589
-0.670931
-0.39149
-0.716393
-0.387078
-0.761432
-0.382857
-0.806453
-0.378894
-0.85131
-0.375117
-0.896035
-0.372067
-0.368984
-0.940596
-0.0322534
-0.334724
-0.0853132
-0.400598
-0.138888
-0.394851
-0.191935
-0.387129
-0.245367
-0.383134
-0.29699
-0.379408
-0.345951
-0.374398
-0.394748
-0.367824
-0.444055
-0.362528
-0.493375
-0.3585
-0.542969
-0.354923
-0.590977
-0.352057
-0.637814
-0.348752
-0.68385
-0.345453
-0.728408
-0.342521
-0.77255
-0.338714
-0.815718
-0.335726
-0.859106
-0.331729
-0.902209
-0.328964
-0.325407
-0.945786
-0.0373911
-0.297333
-0.0911583
-0.346831
-0.145708
-0.340302
-0.200443
-0.332393
-0.254301
-0.329276
-0.30721
-0.326499
-0.358942
-0.322667
-0.408343
-0.318423
-0.458005
-0.312865
-0.507928
-0.308578
-0.557847
-0.305003
-0.608469
-0.301435
-0.658049
-0.299173
-0.707434
-0.296067
-0.755675
-0.29428
-0.802788
-0.291601
-0.848812
-0.289702
-0.893337
-0.287204
-0.937321
-0.28498
-0.282709
-0.98002
-0.041666
-0.255666
-0.0966678
-0.291829
-0.149241
-0.287728
-0.202117
-0.279518
-0.25738
-0.274013
-0.310808
-0.273071
-0.362766
-0.270709
-0.413155
-0.268034
-0.461139
-0.264881
-0.509428
-0.260289
-0.557078
-0.257353
-0.60513
-0.253383
-0.653674
-0.250629
-0.702185
-0.247556
-0.751373
-0.245093
-0.800151
-0.242823
-0.849245
-0.240609
-0.897583
-0.238866
-0.945764
-0.236799
-0.235192
-0.99328
-0.0439285
-0.211738
-0.102813
-0.232945
-0.158213
-0.232328
-0.210981
-0.22675
-0.265525
-0.219469
-0.32283
-0.215766
-0.378563
-0.214976
-0.433524
-0.213072
-0.485993
-0.212412
-0.536272
-0.21001
-0.585673
-0.207952
-0.633291
-0.205765
-0.680609
-0.203311
-0.727029
-0.201136
-0.773406
-0.198717
-0.81954
-0.196689
-0.865658
-0.19449
-0.911867
-0.192657
-0.957936
-0.190729
-0.188984
-1.00415
-0.0508088
-0.160929
-0.109519
-0.174235
-0.163567
-0.178281
-0.21429
-0.176027
-0.261881
-0.171878
-0.311492
-0.166155
-0.363662
-0.162807
-0.416513
-0.160221
-0.470626
-0.158298
-0.523611
-0.157026
-0.576392
-0.155171
-0.628188
-0.153969
-0.679019
-0.15248
-0.729003
-0.151152
-0.777996
-0.149724
-0.826367
-0.148318
-0.873974
-0.146883
-0.921159
-0.145471
-0.967799
-0.14409
-0.142612
-1.01417
-0.0516801
-0.109249
-0.117005
-0.10891
-0.180411
-0.114874
-0.238793
-0.117645
-0.292717
-0.117953
-0.342416
-0.116455
-0.391551
-0.113673
-0.440218
-0.111554
-0.489253
-0.109264
-0.538521
-0.107758
-0.587595
-0.106097
-0.636873
-0.104691
-0.685887
-0.103465
-0.734767
-0.102272
-0.78324
-0.101251
-0.831375
-0.100183
-0.879034
-0.0992236
-0.926325
-0.0981801
-0.973169
-0.0972464
-0.0961979
-1.01958
-0.0492512
-0.0599979
-0.0975967
-0.0605648
-0.154523
-0.0579479
-0.212127
-0.0600413
-0.271697
-0.0583835
-0.328732
-0.0594193
-0.384185
-0.0582198
-0.437672
-0.0580668
-0.490043
-0.0568931
-0.541397
-0.0564038
-0.591972
-0.0555216
-0.641738
-0.0549255
-0.691082
-0.0541218
-0.739752
-0.0536023
-0.788149
-0.0528534
-0.835908
-0.0524234
-0.883383
-0.0517488
-0.9302
-0.0513634
-0.976675
-0.0507716
-0.0503634
-1.02251
-0.0744772
0.0144793
-0.124902
-0.0101399
-0.176392
-0.00645784
-0.227041
-0.00939244
-0.280151
-0.00527308
-0.332886
-0.00668435
-0.386303
-0.00480319
-0.438567
-0.00580249
-0.490883
-0.00457752
-0.542102
-0.00518516
-0.593248
-0.0043747
-0.64332
-0.00485408
-0.693186
-0.00425591
-0.742096
-0.0046917
-0.790759
-0.00419082
-0.838595
-0.0045868
-0.886165
-0.00417873
-0.932997
-0.00453203
-0.979524
-0.00424437
-1.02524
-0.00464646
-0.0105667
0.0518625
-0.0412958
0.0044609
0.0410283
-0.0560559
0.0700482
-0.046501
-0.0190863
0.233448
-0.269915
0.106516
0.468483
-0.613734
0.378698
0.658673
-0.881757
0.691567
0.762281
-1.02211
0.918501
0.811018
-1.0746
1.02586
0.83621
-1.09106
1.06587
0.851532
-1.09451
1.07919
0.86298
-1.09384
1.08239
0.871343
-1.09043
1.08207
0.878579
-1.08731
1.08007
0.887211
-1.08529
1.07666
0.896739
-1.08553
1.07601
0.904684
-1.08349
1.07555
0.911662
-1.08279
1.07581
0.919098
-1.08142
1.07398
0.927025
-1.08188
1.07395
-1.07977
0.933808
1.07299
-0.000944782
0.0528073
0.035308
0.00477551
0.135686
-0.146879
0.348402
-0.482631
0.546143
-0.811475
0.664586
-1.0002
0.719377
-1.0769
0.744727
-1.09994
0.758265
-1.1046
0.767583
-1.10383
0.774537
-1.10079
0.780107
-1.096
0.78719
-1.09439
0.794654
-1.09275
0.800669
-1.09155
0.806421
-1.08925
0.812798
-1.08916
0.818976
-1.0876
0.82391
-1.08681
-1.08367
0.827804
0.00998022
0.0428271
0.0655911
-0.0508354
0.213605
-0.294893
0.413878
-0.682905
0.550221
-0.947818
0.619418
-1.0694
0.64845
-1.10593
0.662434
-1.11393
0.671371
-1.11354
0.677838
-1.11029
0.682589
-1.10554
0.688588
-1.102
0.694796
-1.1006
0.699914
-1.09787
0.704928
-1.09656
0.710294
-1.09461
0.715327
-1.0942
0.718405
-1.09067
0.721129
-1.08953
-1.08645
0.723914
0.024549
0.0182781
0.0981266
-0.124413
0.275096
-0.471862
0.433931
-0.84174
0.524881
-1.03877
0.561037
-1.10555
0.576793
-1.12169
0.585525
-1.12266
0.591581
-1.1196
0.595198
-1.11391
0.599462
-1.10981
0.603888
-1.10642
0.607637
-1.10435
0.611411
-1.10165
0.614864
-1.10001
0.617731
-1.09748
0.619509
-1.09597
0.621189
-1.09235
0.62302
-1.09136
-1.08736
0.623924
0.0386001
-0.020322
0.127001
-0.212814
0.293896
-0.638757
0.409956
-0.957801
0.463799
-1.09261
0.485577
-1.12733
0.495722
-1.13183
0.502156
-1.12909
0.50519
-1.12263
0.508738
-1.11746
0.512163
-1.11323
0.515326
-1.10959
0.518354
-1.10737
0.520699
-1.10399
0.522476
-1.10179
0.524018
-1.09902
0.524966
-1.09692
0.525788
-1.09318
0.525899
-1.09148
-1.08623
0.524768
0.038624
-0.058946
0.154247
-0.328437
0.294526
-0.779036
0.37592
-1.03919
0.407777
-1.12447
0.419766
-1.13932
0.425926
-1.13799
0.428658
-1.13183
0.431001
-1.12497
0.433301
-1.11976
0.43499
-1.11492
0.436543
-1.11114
0.437214
-1.10804
0.437491
-1.10427
0.437416
-1.10172
0.436719
-1.09832
0.435178
-1.09538
0.433389
-1.09139
0.431041
-1.08913
-1.08309
0.427901
0.034935
-0.0938809
0.156551
-0.450053
0.263022
-0.885507
0.316873
-1.09305
0.335822
-1.14342
0.343708
-1.1472
0.348154
-1.14244
0.350236
-1.13391
0.352145
-1.12688
0.353198
-1.12081
0.353763
-1.11549
0.353676
-1.11105
0.353116
-1.10749
0.352004
-1.10316
0.35023
-1.09994
0.347997
-1.09609
0.345344
-1.09273
0.342572
-1.08861
0.339021
-1.08558
-1.07841
0.33434
0.0389026
-0.132784
0.147089
-0.558239
0.231734
-0.970151
0.26852
-1.12983
0.280362
-1.15526
0.285806
-1.15265
0.286879
-1.14351
0.287236
-1.13427
0.286866
-1.12651
0.285851
-1.1198
0.284108
-1.11374
0.281999
-1.10895
0.279087
-1.10457
0.275624
-1.09969
0.271712
-1.09603
0.267248
-1.09163
0.262139
-1.08762
0.256655
-1.08313
0.25043
-1.07935
-1.0717
0.243721
0.0429918
-0.175775
0.133537
-0.648784
0.194713
-1.03133
0.215179
-1.1503
0.220565
-1.16064
0.221113
-1.1532
0.220417
-1.14282
0.219122
-1.13297
0.217036
-1.12443
0.21415
-1.11691
0.210718
-1.11031
0.206562
-1.10479
0.201821
-1.09983
0.196554
-1.09443
0.190684
-1.09016
0.184364
-1.08531
0.177631
-1.08089
0.170664
-1.07616
0.16311
-1.0718
-1.06355
0.154964
0.0465281
-0.222303
0.118083
-0.720339
0.162638
-1.07588
0.174149
-1.16181
0.175858
-1.16235
0.173748
-1.15109
0.170914
-1.13998
0.166859
-1.12891
0.162002
-1.11957
0.156423
-1.11133
0.150121
-1.10401
0.143324
-1.09799
0.135891
-1.0924
0.127939
-1.08647
0.119561
-1.08178
0.110712
-1.07646
0.101339
-1.07151
0.0916009
-1.06642
0.0813441
-1.06154
-1.05306
0.0708579
0.0430004
-0.265304
0.100735
-0.778074
0.129432
-1.10458
0.13146
-1.16384
0.127411
-1.1583
0.121535
-1.14521
0.11524
-1.13369
0.108322
-1.122
0.100864
-1.11211
0.0928463
-1.10331
0.0843828
-1.09555
0.0753688
-1.08898
0.0658455
-1.08288
0.0558535
-1.07648
0.0453939
-1.07132
0.0345476
-1.06561
0.0232977
-1.06026
0.0118264
-1.05495
0.000120831
-1.04984
-1.0409
-0.0120449
0.0372059
-0.30251
0.0855637
-0.826432
0.10185
-1.12087
0.098827
-1.16082
0.0914877
-1.15096
0.0834819
-1.13721
0.0746474
-1.12485
0.0650583
-1.11241
0.054819
-1.10187
0.0439372
-1.09243
0.0324383
-1.08405
0.0203993
-1.07694
0.00788583
-1.07036
-0.0050659
-1.06353
-0.0183843
-1.058
-0.0320842
-1.05191
-0.0461695
-1.04618
-0.0603645
-1.04076
-0.0748138
-1.03539
-1.02659
-0.0891201
0.0278971
-0.330407
0.0615105
-0.860045
0.0697603
-1.12912
0.0620133
-1.15307
0.0510565
-1.14001
0.0397232
-1.12587
0.0277362
-1.11287
0.0151094
-1.09978
0.00201178
-1.08877
-0.0115513
-1.07887
-0.0255189
-1.07008
-0.0398715
-1.06259
-0.0546172
-1.05562
-0.0697467
-1.0484
-0.0852109
-1.04254
-0.100993
-1.03613
-0.117144
-1.03003
-0.133587
-1.02432
-0.149942
-1.01903
-1.01034
-0.166196
0.027356
-0.357763
0.0536692
-0.886358
0.0520673
-1.12751
0.0399243
-1.14093
0.0253383
-1.12542
0.0106089
-1.11114
-0.00458764
-1.09767
-0.0202303
-1.08414
-0.0363024
-1.0727
-0.0528315
-1.06234
-0.0697935
-1.05312
-0.0872475
-1.04513
-0.105011
-1.03785
-0.123095
-1.03032
-0.141474
-1.02416
-0.160117
-1.01749
-0.179038
-1.0111
-0.198076
-1.00528
-0.216774
-1.00033
-0.991681
-0.235431
0.0189032
-0.376666
0.0343014
-0.901756
0.0259974
-1.11921
0.00931584
-1.12424
-0.00804843
-1.10806
-0.0257723
-1.09342
-0.0437645
-1.07968
-0.0622583
-1.06564
-0.0811153
-1.05384
-0.100335
-1.04312
-0.119906
-1.03355
-0.139701
-1.02534
-0.159775
-1.01778
-0.180141
-1.00995
-0.200637
-1.00366
-0.22125
-0.996875
-0.242234
-0.99012
-0.263598
-0.983914
-0.284541
-0.979391
-0.971111
-0.305111
0.0176174
-0.394283
0.0283827
-0.912522
0.0143852
-1.10521
-0.00581275
-1.10405
-0.0268772
-1.08699
-0.0481
-1.0722
-0.0695265
-1.05825
-0.0911264
-1.04404
-0.112969
-1.032
-0.135094
-1.021
-0.157491
-1.01115
-0.180313
-1.00252
-0.203262
-0.994829
-0.226441
-0.986773
-0.249904
-0.980201
-0.273444
-0.973336
-0.297034
-0.966531
-0.320884
-0.960064
-0.344528
-0.955746
-0.948076
-0.367564
0.0122152
-0.406499
0.0152894
-0.915596
-0.00457494
-1.08535
-0.029202
-1.07942
-0.0534005
-1.06279
-0.0776523
-1.04795
-0.101731
-1.03417
-0.126109
-1.01967
-0.150624
-1.00749
-0.175318
-0.996301
-0.200248
-0.986219
-0.225247
-0.977518
-0.25046
-0.969616
-0.275864
-0.961369
-0.301255
-0.95481
-0.326631
-0.94796
-0.352292
-0.940869
-0.378421
-0.933935
-0.404496
-0.929671
-0.922915
-0.429657
0.00996865
-0.416467
0.00795898
-0.913586
-0.0152773
-1.06211
-0.0419551
-1.05274
-0.0690499
-1.0357
-0.0960962
-1.0209
-0.123054
-1.00721
-0.149961
-0.99276
-0.177024
-0.980424
-0.204251
-0.969074
-0.231706
-0.958765
-0.259549
-0.949675
-0.28733
-0.941835
-0.315356
-0.933343
-0.343796
-0.92637
-0.372092
-0.919664
-0.400078
-0.912882
-0.428453
-0.905561
-0.457661
-0.900463
-0.894342
-0.486235
0.00623904
-0.422706
-0.000697883
-0.906649
-0.0296062
-1.0332
-0.0602224
-1.02213
-0.0901266
-1.0058
-0.12008
-0.990945
-0.149551
-0.977743
-0.179193
-0.963117
-0.208776
-0.950841
-0.238293
-0.939557
-0.267908
-0.92915
-0.297565
-0.920018
-0.327457
-0.911943
-0.357415
-0.903385
-0.387491
-0.896294
-0.417864
-0.889291
-0.448383
-0.882363
-0.478968
-0.874976
-0.510917
-0.868513
-0.863199
-0.54206
0.0043836
-0.00786881
-0.0381842
-0.0706533
-0.102812
-0.134912
-0.166664
-0.198085
-0.229689
-0.261313
-0.293061
-0.325115
-0.35688
-0.388991
-0.421664
-0.454203
-0.486554
-0.519302
-0.55414
-0.590937
0.858928
-9.56506
9.63994
0.798492
-9.4343
9.49474
0.734965
-9.46546
9.52898
0.671722
-9.48262
9.54586
0.612401
-9.49827
9.55759
0.559361
-9.53126
9.5843
0.508574
-9.55303
9.60382
0.459503
-9.58203
9.6311
0.41263
-9.61501
9.66188
0.368762
-9.6348
9.67867
0.328229
-9.65298
9.69351
0.290983
-9.66279
9.70004
0.257029
-9.67646
9.71042
0.22562
-9.68149
9.7129
0.19637
-9.68611
9.71536
0.168383
-9.66318
9.69117
0.145041
-9.61518
9.63853
0.111518
-9.107
9.14052
0.0570174
-7.45712
7.51162
-4.05904
4.11606
0.753399
-9.49066
0.69324
-9.37414
0.635045
-9.40726
0.579666
-9.42724
0.524473
-9.44307
0.475226
-9.48201
0.427065
-9.50487
0.382138
-9.5371
0.341215
-9.57409
0.303785
-9.59737
0.269802
-9.619
0.239086
-9.63208
0.211941
-9.64932
0.187354
-9.65691
0.165437
-9.66419
0.145354
-9.6431
0.128822
-9.59865
0.101003
-9.07918
0.0531696
-7.40928
-4.00587
0.655139
-9.42188
0.598609
-9.31761
0.540455
-9.34911
0.486306
-9.37309
0.438775
-9.39554
0.398021
-9.44126
0.358497
-9.46535
0.320647
-9.49925
0.28542
-9.53886
0.253331
-9.56528
0.224702
-9.59037
0.19932
-9.6067
0.177178
-9.62718
0.157573
-9.6373
0.140249
-9.64687
0.12415
-9.627
0.112794
-9.5873
0.0920975
-9.05848
0.0506796
-7.36786
-3.95519
0.55253
-9.35049
0.496451
-9.26153
0.443238
-9.29589
0.396855
-9.32671
0.353386
-9.35207
0.315459
-9.40333
0.278162
-9.42805
0.244358
-9.46545
0.21497
-9.50947
0.189155
-9.53947
0.166934
-9.56815
0.147913
-9.58767
0.132361
-9.61162
0.119431
-9.62437
0.109274
-9.63671
0.101026
-9.61875
0.0965241
-9.58279
0.081753
-9.04371
0.0470175
-7.33313
-3.90817
0.456079
-9.2818
0.403713
-9.20917
0.3513
-9.24348
0.306496
-9.2819
0.270031
-9.31561
0.239749
-9.37305
0.210747
-9.39905
0.183848
-9.43855
0.160082
-9.4857
0.139461
-9.51884
0.122436
-9.55112
0.108594
-9.57383
0.0979494
-9.60098
0.0899458
-9.61637
0.0843538
-9.63112
0.0799835
-9.61438
0.0805313
-9.58334
0.0728776
-9.03606
0.0445389
-7.30479
-3.86363
0.357661
-9.21156
0.304975
-9.15648
0.2575
-9.19601
0.220489
-9.24489
0.187505
-9.28262
0.158956
-9.3445
0.131917
-9.37201
0.109004
-9.41563
0.0909422
-9.46764
0.076422
-9.50432
0.0656178
-9.54032
0.0579518
-9.56617
0.053681
-9.59671
0.0521557
-9.61484
0.0535293
-9.63249
0.0569256
-9.61778
0.0642986
-9.59071
0.0627141
-9.03447
0.0410603
-7.28314
-3.82257
0.264497
-9.14172
0.215457
-9.10744
0.169087
-9.14964
0.133528
-9.20933
0.106585
-9.25568
0.0849505
-9.32286
0.0659725
-9.35303
0.0497796
-9.39944
0.0372547
-9.45512
0.0277949
-9.49486
0.0220033
-9.53453
0.0193321
-9.5635
0.0198436
-9.59722
0.0231271
-9.61812
0.0289787
-9.63835
0.0361548
-9.62496
0.048447
-9.60301
0.0539238
-9.03995
0.0386093
-7.26782
-3.78396
0.171132
-9.06913
0.120832
-9.05714
0.079368
-9.10817
0.0512913
-9.18126
0.0268673
-9.23126
0.00621077
-9.30221
-0.0109085
-9.33591
-0.023181
-9.38717
-0.0301822
-9.44812
-0.0337327
-9.49131
-0.0335371
-9.53472
-0.0302338
-9.5668
-0.023593
-9.60386
-0.014063
-9.62765
-0.00146107
-9.65095
0.0133359
-9.63975
0.0323518
-9.62202
0.0439561
-9.05155
0.0352936
-7.25916
-3.74867
0.0826143
-8.99678
0.0352601
-9.00979
-0.00612741
-9.06678
-0.0325102
-9.15488
-0.0514858
-9.21228
-0.0657409
-9.28795
-0.074955
-9.3267
-0.080677
-9.38145
-0.0823321
-9.44646
-0.080971
-9.49267
-0.0759875
-9.53971
-0.0678841
-9.5749
-0.0566394
-9.61511
-0.0424687
-9.64183
-0.0255619
-9.66785
-0.00705482
-9.65826
0.0167403
-9.64582
0.0352941
-9.07011
0.0328931
-7.25676
-3.71578
-0.00695425
-8.91897
-0.0549337
-8.96181
-0.0908732
-9.03085
-0.11156
-9.13419
-0.128473
-9.19537
-0.141952
-9.27447
-0.149301
-9.31935
-0.151181
-9.37957
-0.147588
-9.45005
-0.140575
-9.49969
-0.129876
-9.5504
-0.116048
-9.58873
-0.0989408
-9.63221
-0.0788019
-9.66196
-0.0554469
-9.69121
-0.029464
-9.68424
0.00091503
-9.6762
0.0255472
-9.09474
0.0297547
-7.26097
-3.68602
-0.08894
-8.84207
-0.137165
-8.91358
-0.172712
-8.9953
-0.192529
-9.11437
-0.204145
-9.18375
-0.211227
-9.26739
-0.210921
-9.31965
-0.206495
-9.38399
-0.197861
-9.45869
-0.186124
-9.51142
-0.170853
-9.56568
-0.152453
-9.60713
-0.130946
-9.65372
-0.106404
-9.68651
-0.0789216
-9.71869
-0.0493742
-9.71379
-0.0143723
-9.7112
0.0170124
-9.12613
0.0274685
-7.27142
-3.65855
-0.171812
-8.75938
-0.222118
-8.86327
-0.253913
-8.9635
-0.268647
-9.09964
-0.278378
-9.17402
-0.284291
-9.26148
-0.282123
-9.32182
-0.274017
-9.3921
-0.260495
-9.47221
-0.243422
-9.5285
-0.222739
-9.58636
-0.198892
-9.63098
-0.171824
-9.68079
-0.141633
-9.7167
-0.107991
-9.75233
-0.071228
-9.75055
-0.0298588
-9.75257
0.00745904
-9.16344
0.0245026
-7.28847
-3.63405
-0.251081
-8.67449
-0.300325
-8.81403
-0.332645
-8.93118
-0.346771
-9.08551
-0.350965
-9.16983
-0.350253
-9.26219
-0.340824
-9.33125
-0.326838
-9.40609
-0.30863
-9.49042
-0.287041
-9.55009
-0.261997
-9.6114
-0.233809
-9.65916
-0.202563
-9.71203
-0.168231
-9.75103
-0.130708
-9.78986
-0.0905614
-9.7907
-0.0447072
-9.79842
-0.00107885
-9.20707
0.0224012
-7.31195
-3.61165
-0.329259
-8.58066
-0.380186
-8.7631
-0.409447
-8.90192
-0.419679
-9.07528
-0.422023
-9.16748
-0.419783
-9.26443
-0.408509
-9.34252
-0.391065
-9.42353
-0.368332
-9.51315
-0.341721
-9.5767
-0.31157
-9.64155
-0.278231
-9.6925
-0.241749
-9.74852
-0.202108
-9.79067
-0.158743
-9.83322
-0.111724
-9.83772
-0.059767
-9.85038
-0.0102575
-9.25658
0.0196483
-7.34185
-3.592
-0.403892
-8.48188
-0.454143
-8.71285
-0.4842
-8.87186
-0.494239
-9.06524
-0.490895
-9.17083
-0.481898
-9.27343
-0.463976
-9.36045
-0.44124
-9.44626
-0.414154
-9.54024
-0.383234
-9.60762
-0.348922
-9.67587
-0.311467
-9.72996
-0.27103
-9.78895
-0.227535
-9.83417
-0.180588
-9.88017
-0.130418
-9.88789
-0.0742143
-9.90658
-0.0185855
-9.31221
0.0176389
-7.37808
-3.57436
-0.476317
-8.37313
-0.528684
-8.66049
-0.555796
-8.84475
-0.562967
-9.05807
-0.558325
-9.17547
-0.547721
-9.28403
-0.527934
-9.38023
-0.501942
-9.47226
-0.470653
-9.57153
-0.43502
-9.64325
-0.395901
-9.71498
-0.353611
-9.77225
-0.308277
-9.83429
-0.259835
-9.88261
-0.207416
-9.93259
-0.15079
-9.94451
-0.0888838
-9.96849
-0.0276794
-9.37341
0.0152192
-7.42097
-3.55914
-0.546218
-8.25657
-0.598144
-8.60856
-0.625806
-8.81709
-0.632722
-9.05115
-0.622387
-9.18581
-0.605357
-9.30106
-0.579828
-9.40576
-0.549204
-9.50288
-0.513884
-9.60685
-0.474177
-9.68296
-0.431106
-9.75805
-0.384936
-9.81842
-0.335881
-9.88334
-0.283891
-9.9346
-0.228253
-9.98823
-0.1687
-10.0041
-0.102904
-10.0343
-0.0360008
-9.44032
0.0134289
-7.4704
-3.54572
-0.61618
-8.12662
-0.669452
-8.55529
-0.692755
-8.79379
-0.697321
-9.04659
-0.686655
-9.19647
-0.668054
-9.31966
-0.640503
-9.43331
-0.606609
-9.53677
-0.567245
-9.64621
-0.523072
-9.72713
-0.475427
-9.8057
-0.424694
-9.86915
-0.371049
-9.93699
-0.314452
-9.99119
-0.2537
-10.049
-0.188179
-10.0696
-0.116961
-10.1055
-0.0447217
-9.51256
0.0112231
-7.52635
-3.53449
-0.671892
-7.99679
-0.732856
-8.49433
-0.757728
-8.76892
-0.761918
-9.0424
-0.745864
-9.21253
-0.721632
-9.34389
-0.689318
-9.46563
-0.651396
-9.5747
-0.60818
-9.68943
-0.560104
-9.77521
-0.508649
-9.85715
-0.454216
-9.92358
-0.397061
-9.99414
-0.337259
-10.051
-0.273633
-10.1126
-0.205478
-10.1377
-0.130811
-10.1802
-0.0532509
-9.59012
0.00950501
-7.58911
-3.52499
-0.724339
-7.86339
-0.793232
-8.42543
-0.814597
-8.74755
-0.817938
-9.03906
-0.80249
-9.22797
-0.776806
-9.36958
-0.743189
-9.49924
-0.70257
-9.61531
-0.656149
-9.73585
-0.604163
-9.82719
-0.548933
-9.91239
-0.490375
-9.98214
-0.429403
-10.0551
-0.365326
-10.1151
-0.297488
-10.1804
-0.223454
-10.2118
-0.144875
-10.2588
-0.0614891
-9.6735
0.00693132
-7.65753
-3.51806
8.07124
-7.50133
-8.43329
7.44832
-7.80251
6.88086
-8.18009
6.26799
-8.42619
5.71516
-8.67514
5.20704
-8.86146
4.74942
-9.04162
4.32686
-9.19275
3.92602
-9.33501
3.55149
-9.45266
3.19196
-9.55286
2.84356
-9.63374
2.49985
-9.71141
2.16448
-9.77971
1.82514
-9.8411
1.52904
-9.91568
1.1917
-9.92141
0.819236
-9.30104
0.343943
-7.18223
-3.17411
4.76474
-7.42091
-4.84516
4.61493
-7.6527
4.38913
-7.95429
4.15341
-8.19047
3.89596
-8.4177
3.63846
-8.60396
3.37227
-8.77543
3.1073
-8.92777
2.83497
-9.06269
2.55918
-9.17687
2.28215
-9.27583
2.01854
-9.37013
1.76564
-9.45851
1.52598
-9.54005
1.29908
-9.6142
1.08255
-9.69915
0.837669
-9.67652
0.565756
-9.02913
0.18644
-6.80292
-2.98767
3.43894
-7.51008
-3.34977
3.4841
-7.69786
3.45386
-7.92406
3.37978
-8.11638
3.25034
-8.28827
3.09579
-8.44941
2.91772
-8.59736
2.72646
-8.73652
2.52143
-8.85766
2.31079
-8.96623
2.09972
-9.06477
1.88915
-9.15955
1.67305
-9.24241
1.45492
-9.32192
1.22927
-9.38856
0.991093
-9.46097
0.753689
-9.43912
0.516525
-8.79196
0.229628
-6.51602
-2.75805
2.2192
-7.66896
-2.06032
2.3217
-7.80037
2.33539
-7.93775
2.31295
-8.09394
2.25839
-8.23371
2.1793
-8.37032
2.07399
-8.49204
1.94542
-8.60795
1.80152
-8.71375
1.64915
-8.81386
1.49252
-8.90813
1.33074
-8.99777
1.16724
-9.0789
1.00402
-9.1587
0.840215
-9.22475
0.679313
-9.30007
0.523033
-9.28284
0.371493
-8.64042
0.167669
-6.31219
-2.59038
1.58238
-7.80339
-1.44795
1.66926
-7.88724
1.73102
-7.99951
1.76426
-8.12718
1.75996
-8.22941
1.7233
-8.33366
1.66233
-8.43108
1.58252
-8.52814
1.48696
-8.6182
1.37764
-8.70453
1.2579
-8.78839
1.12673
-8.8666
0.987943
-8.94012
0.839375
-9.01013
0.68802
-9.0734
0.528
-9.14005
0.370336
-9.12518
0.257316
-8.5274
0.142067
-6.19695
-2.44831
1.05327
-7.91281
-0.943847
1.15232
-7.98629
1.20914
-8.05633
1.22105
-8.1391
1.2119
-8.22026
1.18241
-8.30417
1.13765
-8.38632
1.0769
-8.46739
1.00467
-8.54596
0.922702
-8.62257
0.830258
-8.69595
0.731445
-8.76779
0.628443
-8.83712
0.521519
-8.90321
0.413856
-8.96573
0.302868
-9.02906
0.201078
-9.02339
0.147675
-8.474
0.102886
-6.15216
-2.34542
0.725024
-7.99517
-0.642666
0.781401
-8.04266
0.819857
-8.09478
0.847731
-8.16697
0.865457
-8.23798
0.863046
-8.30176
0.842767
-8.36604
0.803455
-8.42808
0.750128
-8.49263
0.683689
-8.55613
0.607613
-8.61987
0.521724
-8.6819
0.428191
-8.74358
0.328227
-8.80325
0.226614
-8.86412
0.119391
-8.92184
0.0159597
-8.91995
-0.0179554
-8.44009
0.0435108
-6.21362
-2.30191
0.49784
-8.05094
-0.442071
0.544902
-8.08973
0.582009
-8.13189
0.597712
-8.18267
0.591602
-8.23187
0.56936
-8.27951
0.536863
-8.33354
0.497116
-8.38833
0.448952
-8.44447
0.390686
-8.49786
0.325257
-8.55444
0.252909
-8.60955
0.176461
-8.66714
0.0960338
-8.72282
0.0119234
-8.78001
-0.0746523
-8.83526
-0.15092
-8.84369
-0.14761
-8.44339
-0.0013673
-6.35987
-2.30328
0.30906
-8.08597
-0.27403
0.332856
-8.11352
0.349029
-8.14806
0.352041
-8.18568
0.346543
-8.22637
0.333575
-8.26655
0.310995
-8.31096
0.277111
-8.35445
0.234938
-8.40229
0.183753
-8.44668
0.125525
-8.49622
0.0596431
-8.54367
-0.0115773
-8.59592
-0.0886956
-8.6457
-0.168899
-8.6998
-0.252811
-8.75135
-0.32748
-8.76902
-0.312349
-8.45853
-0.0948104
-6.5774
-2.39809
0.201622
-8.10413
-0.183465
0.214607
-8.12651
0.221139
-8.15459
0.218891
-8.18344
0.208114
-8.2156
0.186856
-8.24529
0.152814
-8.27692
0.109937
-8.31157
0.0592582
-8.35162
0.00456339
-8.39198
-0.0557142
-8.43594
-0.121501
-8.47788
-0.193776
-8.52364
-0.271425
-8.56805
-0.352399
-8.61883
-0.436081
-8.66767
-0.509129
-8.69597
-0.498172
-8.46948
-0.220488
-6.85509
-2.61858
0.0945174
-8.10866
-0.089985
0.0944703
-8.12646
0.0880027
-8.14813
0.0740762
-8.16951
0.0518475
-8.19337
0.0241159
-8.21756
-0.00623408
-8.24657
-0.0425689
-8.27524
-0.0873222
-8.30686
-0.140059
-8.33925
-0.201636
-8.37436
-0.270298
-8.40922
-0.345825
-8.44811
-0.427362
-8.48652
-0.514685
-8.53151
-0.608161
-8.57419
-0.694603
-8.60953
-0.699216
-8.46487
-0.392921
-7.16138
-3.0115
0.0342678
-8.10619
-0.0367369
0.0265809
-8.11877
0.0141251
-8.13567
-0.00310163
-8.15228
-0.0256126
-8.17086
-0.0545466
-8.18862
-0.0905474
-8.21057
-0.13412
-8.23167
-0.183764
-8.25722
-0.241727
-8.28128
-0.307932
-8.30816
-0.379865
-8.33728
-0.460014
-8.36797
-0.545364
-8.40116
-0.642152
-8.43472
-0.746277
-8.47007
-0.85311
-8.5027
-0.888846
-8.42913
-0.610607
-7.43962
-3.62211
-0.0134789
-8.09588
0.0031681
-0.0277007
-8.10455
-0.0470172
-8.11635
-0.0724017
-8.1269
-0.102183
-8.14107
-0.136478
-8.15433
-0.17632
-8.17073
-0.221662
-8.18632
-0.272939
-8.20594
-0.331019
-8.2232
-0.395152
-8.24402
-0.468013
-8.26442
-0.548292
-8.28769
-0.639079
-8.31038
-0.741636
-8.33216
-0.854578
-8.35713
-0.986703
-8.37057
-1.07425
-8.34158
-0.866351
-7.64753
-4.48846
-0.0455636
-8.08207
0.0317504
-0.061724
-8.08839
-0.0806049
-8.09747
-0.102894
-8.10461
-0.129119
-8.11485
-0.159937
-8.12351
-0.195034
-8.13563
-0.235542
-8.14582
-0.28295
-8.15853
-0.335952
-8.1702
-0.394703
-8.18527
-0.462636
-8.19649
-0.541816
-8.20851
-0.630954
-8.22124
-0.735178
-8.22794
-0.848108
-8.2442
-0.983049
-8.23563
-1.0886
-8.23603
-0.918396
-7.81773
-5.40685
-0.0585216
-8.06591
0.042367
-0.0773879
-8.06952
-0.0994747
-8.07539
-0.123855
-8.08023
-0.151389
-8.08732
-0.181767
-8.09313
-0.216466
-8.10093
-0.253839
-8.10844
-0.294977
-8.1174
-0.341765
-8.12341
-0.394666
-8.13237
-0.452626
-8.13853
-0.513355
-8.14778
-0.582443
-8.15215
-0.654983
-8.1554
-0.739497
-8.15968
-0.823514
-8.15161
-0.90976
-8.14979
-0.794053
-7.93343
-6.20091
-0.0627292
-8.05181
0.0486228
-0.078249
-8.054
-0.0960358
-8.0576
-0.115604
-8.06066
-0.137695
-8.06522
-0.162225
-8.0686
-0.189302
-8.07385
-0.220826
-8.07692
-0.25583
-8.08239
-0.294394
-8.08485
-0.336141
-8.09063
-0.382285
-8.09239
-0.432809
-8.09725
-0.489398
-8.09556
-0.54558
-8.09922
-0.614221
-8.09104
-0.67168
-8.09415
-0.748248
-8.07322
-0.678141
-8.00354
-6.87905
-0.0582074
-8.03844
0.0448462
-0.0727075
-8.0395
-0.0887898
-8.04152
-0.106411
-8.04304
-0.125974
-8.04566
-0.147233
-8.04734
-0.170925
-8.05016
-0.19516
-8.05268
-0.222641
-8.05491
-0.251435
-8.05606
-0.28245
-8.05961
-0.314333
-8.0605
-0.347599
-8.06399
-0.382381
-8.06078
-0.41721
-8.06439
-0.455408
-8.05284
-0.491226
-8.05834
-0.532959
-8.03149
-0.511405
-8.02509
-7.39045
-0.0447579
-8.02893
0.0352414