/*--------------------------------*- C++ -*----------------------------------*\
  =========                 |
  \\      /  F ield         | OpenFOAM: The Open Source CFD Toolbox
   \\    /   O peration     | Website:  https://openfoam.org
    \\  /    A nd           | Version:  9
     \\/     M anipulation  |
\*---------------------------------------------------------------------------*/
FoamFile
{
    format      ascii;
    class       volVectorField;
    location    "2.7";
    object      U;
}
// * * * * * * * * * * * * * * * * * * * * * * * * * * * * * * * * * * * * * //

dimensions      [0 1 -1 0 0 0 0];

internalField   nonuniform List<vector> 
46400
(
(7.64293 -7.5255 -2.34579e-19)
(16.1252 -15.2639 1.95264e-19)
(17.5021 -17.3944 -5.85646e-20)
(16.952 -17.4553 -4.11298e-20)
(16.4289 -17.4275 -4.4064e-20)
(15.8542 -17.4697 -1.13995e-20)
(15.3882 -17.4706 -2.01785e-20)
(14.8938 -17.4887 2.93723e-20)
(14.4684 -17.5327 -3.5732e-20)
(14.0409 -17.5444 4.13e-20)
(13.6466 -17.5937 -4.61141e-20)
(13.2722 -17.6152 0)
(12.9406 -17.698 3.19817e-19)
(12.6128 -17.7399 -3.67904e-19)
(12.2819 -17.7767 -4.86158e-19)
(11.9963 -17.8364 -9.09443e-20)
(11.7068 -17.9188 -2.76954e-20)
(11.4347 -17.9248 3.95909e-19)
(11.1505 -17.8917 5.54877e-19)
(10.7394 -18.0932 -5.10751e-19)
(7.96985 -7.16813 0)
(16.2777 -14.3784 -2.87239e-20)
(17.4429 -16.124 0)
(16.867 -16.2278 4.11396e-20)
(16.3482 -16.2673 -4.77741e-20)
(15.8146 -16.3514 1.35234e-20)
(15.3602 -16.4484 0)
(14.8539 -16.4701 -2.93701e-20)
(14.3734 -16.5069 3.57295e-20)
(13.972 -16.5865 -4.12982e-20)
(13.5595 -16.6533 5.16474e-19)
(13.2015 -16.7327 3.53383e-20)
(12.8505 -16.8236 -4.36271e-19)
(12.5244 -16.8913 0)
(12.2136 -16.99 5.9892e-20)
(11.9183 -17.0421 6.23341e-20)
(11.6353 -17.1383 0)
(11.4028 -17.1894 -6.12009e-19)
(11.1692 -17.2414 -1.59859e-19)
(10.8319 -17.4367 6.23518e-19)
(8.26622 -6.7834 -3.19778e-21)
(16.3353 -13.4585 -9.47558e-20)
(17.3018 -14.8945 7.71658e-20)
(16.6528 -15.066 1.65431e-19)
(16.1381 -15.1282 -1.62412e-19)
(15.5516 -15.2415 0)
(15.0861 -15.3439 -5.75772e-19)
(14.6053 -15.4466 4.94977e-19)
(14.1582 -15.5492 -6.61456e-19)
(13.724 -15.6209 6.55258e-19)
(13.3259 -15.7377 6.34429e-19)
(12.9429 -15.8123 -5.91233e-20)
(12.6142 -15.9601 -5.52822e-19)
(12.2828 -16.047 0)
(11.9582 -16.1498 6.96791e-19)
(11.6818 -16.2672 -6.86226e-19)
(11.397 -16.3923 0)
(11.1497 -16.4678 -1.50364e-20)
(10.8868 -16.5496 8.04978e-20)
(10.5404 -16.7963 -7.46943e-19)
(8.45147 -6.34661 -1.23801e-19)
(16.284 -12.5081 2.48217e-20)
(17.0057 -13.6382 2.44965e-19)
(16.3728 -13.8459 -2.41887e-19)
(15.8738 -13.9845 -2.20633e-19)
(15.3482 -14.144 3.02019e-19)
(14.8916 -14.3306 4.2265e-19)
(14.3973 -14.4215 -1.07799e-18)
(13.9127 -14.539 9.06556e-19)
(13.5154 -14.6751 -8.47722e-20)
(13.1011 -14.806 0)
(12.7372 -14.929 8.99393e-20)
(12.3891 -15.0795 -9.1803e-20)
(12.0865 -15.2218 0)
(11.7666 -15.3553 8.31472e-19)
(11.4645 -15.4489 -7.07191e-19)
(11.1933 -15.6093 0)
(10.9747 -15.7449 9.60997e-20)
(10.7452 -15.8724 1.0943e-19)
(10.3821 -16.1334 8.71052e-19)
(8.60434 -5.89891 0)
(16.1003 -11.4533 0)
(16.6571 -12.4574 -3.64416e-19)
(15.9914 -12.7016 2.50804e-19)
(15.4669 -12.8591 -5.04158e-19)
(14.8854 -13.0288 4.09854e-19)
(14.433 -13.2366 0)
(13.987 -13.4282 4.61569e-19)
(13.5249 -13.5846 -5.57914e-19)
(13.093 -13.7178 -1.28187e-19)
(12.7073 -13.9079 -1.2904e-19)
(12.3179 -14.0296 0)
(11.9875 -14.2301 9.7044e-19)
(11.6691 -14.3799 -9.55277e-19)
(11.3734 -14.5642 0)
(11.0932 -14.7172 -1.07638e-18)
(10.7814 -14.8416 9.50344e-19)
(10.5401 -14.9715 9.53466e-19)
(10.3245 -15.153 -1.04036e-18)
(9.99727 -15.449 0)
(8.8052 -5.45083 0)
(15.7554 -10.2743 0)
(16.1623 -11.1882 0)
(15.5289 -11.4708 -2.9177e-20)
(15.0412 -11.7328 0)
(14.5269 -11.9593 0)
(14.0657 -12.2314 0)
(13.6116 -12.4139 -1.48487e-19)
(13.1489 -12.6267 0)
(12.7476 -12.7999 1.28186e-19)
(12.3444 -12.9994 -2.02376e-20)
(11.9834 -13.1672 -1.26974e-18)
(11.6286 -13.3594 9.55239e-19)
(11.3431 -13.5669 -1.25772e-18)
(11.0259 -13.7463 9.48067e-19)
(10.7651 -13.9366 0)
(10.5024 -14.1462 -1.08392e-18)
(10.232 -14.2566 9.26731e-19)
(10.0087 -14.4346 0)
(9.69174 -14.7672 -1.46733e-19)
(9.03657 -5.06337 5.27937e-19)
(15.3122 -9.18047 1.5493e-19)
(15.5617 -10.0231 6.05628e-19)
(14.915 -10.3492 -6.26657e-19)
(14.3927 -10.636 -6.34284e-19)
(13.8369 -10.8748 1.26422e-18)
(13.4058 -11.1895 -1.44658e-18)
(13.0118 -11.4712 1.35861e-19)
(12.5694 -11.7074 4.64662e-19)
(12.1601 -11.9076 0)
(11.7968 -12.1575 -1.9726e-20)
(11.4208 -12.329 -1.87938e-20)
(11.0807 -12.5486 1.47943e-19)
(10.7814 -12.7505 1.23056e-18)
(10.5104 -12.9935 -1.08283e-18)
(10.2229 -13.1604 -1.37843e-18)
(9.97011 -13.3857 1.20037e-18)
(9.73938 -13.5564 -1.44136e-20)
(9.49833 -13.7047 -1.53057e-19)
(9.2056 -14.0428 -1.09698e-18)
(9.28388 -4.64597 -1.78824e-19)
(14.7032 -8.09154 3.19725e-20)
(14.7906 -8.80817 -1.93173e-19)
(14.2218 -9.18339 -7.63107e-19)
(13.7872 -9.59539 5.26024e-19)
(13.3084 -9.88781 0)
(12.8475 -10.2319 1.10477e-18)
(12.461 -10.5132 -5.32184e-19)
(12.0602 -10.8327 3.63038e-19)
(11.6677 -11.0501 1.90051e-19)
(11.2987 -11.3233 -3.59802e-19)
(10.9723 -11.5505 8.72669e-19)
(10.6083 -11.7632 1.82972e-19)
(10.3169 -11.9843 -1.03664e-18)
(10.036 -12.2333 2.89879e-18)
(9.79941 -12.4745 -1.18097e-18)
(9.5339 -12.7005 1.49307e-18)
(9.3118 -12.9014 -9.76898e-19)
(9.08936 -13.0984 3.19601e-19)
(8.78767 -13.3974 1.54328e-18)
(9.497 -4.24395 9.25236e-19)
(14.0026 -7.11857 -1.89629e-19)
(13.9172 -7.77258 -2.84926e-20)
(13.3628 -8.16717 4.17055e-19)
(12.8797 -8.58994 1.95749e-19)
(12.4055 -8.90917 2.19133e-19)
(12.0084 -9.30955 -1.02367e-18)
(11.6637 -9.65603 6.20987e-19)
(11.2905 -9.98815 -1.92003e-19)
(10.9353 -10.2606 -1.90056e-19)
(10.5972 -10.5546 -1.87885e-19)
(10.2839 -10.8066 -2.0263e-19)
(9.97221 -11.0625 -3.82275e-19)
(9.65711 -11.2545 1.32448e-18)
(9.38964 -11.5037 -1.85162e-18)
(9.13773 -11.7187 -1.88941e-19)
(8.92554 -11.9924 1.3501e-20)
(8.71228 -12.1944 -1.39024e-18)
(8.52857 -12.4364 1.03735e-18)
(8.2843 -12.7574 -1.65024e-18)
(9.57557 -3.93632 8.37926e-19)
(13.1206 -6.10579 -2.12002e-18)
(12.9001 -6.76191 1.40504e-18)
(12.4858 -7.1818 -2.21816e-19)
(12.1317 -7.71763 -2.43965e-19)
(11.7112 -8.06289 9.46624e-19)
(11.2732 -8.4597 -1.14634e-18)
(10.9582 -8.82062 0)
(10.6417 -9.23507 8.87146e-19)
(10.2948 -9.51321 -8.724e-19)
(9.96302 -9.83909 -6.3561e-19)
(9.68776 -10.1298 8.28465e-19)
(9.39394 -10.4291 1.99274e-19)
(9.12404 -10.6769 -8.12773e-19)
(8.83729 -10.9215 1.95255e-19)
(8.59375 -11.1514 9.74267e-19)
(8.34224 -11.3897 -1.71943e-18)
(8.14328 -11.6175 1.13499e-18)
(7.93479 -11.841 -1.15494e-20)
(7.71497 -12.1799 -1.57886e-18)
(9.39822 -3.55811 1.16676e-18)
(12.1901 -5.283 -7.88131e-19)
(11.8888 -5.92296 5.27545e-19)
(11.4284 -6.3314 7.38395e-21)
(11.0413 -6.84176 -1.03875e-18)
(10.68 -7.24278 -9.8759e-19)
(10.3174 -7.68301 1.22792e-18)
(9.98828 -8.04981 -7.22367e-19)
(9.71251 -8.4748 9.58333e-19)
(9.45704 -8.8427 0)
(9.13679 -9.15868 1.56371e-20)
(8.86427 -9.45362 2.18643e-19)
(8.61717 -9.77514 2.28702e-19)
(8.36942 -10.0429 -2.23898e-19)
(8.14205 -10.3329 0)
(7.91264 -10.5692 2.14446e-19)
(7.70882 -10.8387 0)
(7.50373 -11.0438 3.99502e-19)
(7.33072 -11.2891 1.94802e-18)
(7.11249 -11.5714 -1.39893e-20)
(9.00725 -3.11003 6.4609e-19)
(11.1262 -4.45568 -1.36453e-19)
(10.8071 -5.10436 -1.99215e-18)
(10.4856 -5.56579 1.11505e-18)
(10.1973 -6.14835 2.65257e-19)
(9.85123 -6.54125 -2.61223e-19)
(9.47196 -6.9808 -1.06381e-18)
(9.18971 -7.36829 7.92963e-19)
(8.90009 -7.8053 0)
(8.66793 -8.1887 0)
(8.42975 -8.6054 -1.21965e-18)
(8.16348 -8.90488 9.65534e-19)
(7.91654 -9.25203 -2.28691e-19)
(7.69061 -9.5392 -6.95058e-19)
(7.45493 -9.84256 6.2245e-21)
(7.25101 -10.1127 1.54896e-18)
(7.04022 -10.3956 -8.65341e-19)
(6.86831 -10.6481 6.34388e-19)
(6.6883 -10.907 -1.02817e-18)
(6.5131 -11.2285 0)
(8.40941 -2.63407 -5.65042e-19)
(10.0431 -3.75851 9.14418e-19)
(9.66837 -4.40562 1.56392e-19)
(9.26858 -4.84018 1.53704e-19)
(8.99035 -5.42596 0)
(8.76526 -5.90512 1.15138e-18)
(8.4492 -6.3741 -1.13126e-18)
(8.1356 -6.73851 1.4191e-19)
(7.89011 -7.17952 0)
(7.66475 -7.55723 1.05731e-18)
(7.45908 -7.97365 -9.07251e-19)
(7.27376 -8.3423 1.0104e-18)
(7.05916 -8.69052 -9.94399e-19)
(6.87178 -9.00911 9.64655e-19)
(6.67489 -9.3191 -8.29025e-19)
(6.48097 -9.58497 -9.20509e-19)
(6.29664 -9.86981 1.80607e-18)
(6.11225 -10.0944 -7.73543e-19)
(5.95746 -10.3601 1.09804e-19)
(5.76965 -10.6407 9.22272e-19)
(7.6361 -2.1464 -4.53117e-19)
(8.843 -3.08118 4.90165e-19)
(8.54236 -3.76255 -1.564e-19)
(8.27534 -4.25803 -1.53699e-19)
(8.00505 -4.87262 0)
(7.76817 -5.3364 0)
(7.53696 -5.87785 0)
(7.29005 -6.28344 -2.90343e-19)
(7.01351 -6.71589 -1.13428e-18)
(6.81137 -7.11074 2.22347e-18)
(6.59571 -7.52954 -1.22262e-18)
(6.42304 -7.90577 -1.35049e-19)
(6.25244 -8.31803 0)
(6.08669 -8.65062 0)
(5.93766 -9.03447 -2.46306e-19)
(5.77958 -9.3245 0)
(5.63524 -9.6642 9.35059e-19)
(5.48258 -9.90807 -1.15034e-18)
(5.34209 -10.1936 -9.99285e-19)
(5.19219 -10.4645 9.71342e-19)
(6.73943 -1.68252 4.72747e-19)
(7.65378 -2.51461 8.5737e-19)
(7.29365 -3.18551 1.56329e-23)
(6.9314 -3.62156 -1.14516e-21)
(6.74218 -4.25425 1.63129e-19)
(6.59906 -4.78103 -4.73757e-19)
(6.37895 -5.30261 0)
(6.2013 -5.75981 -4.55298e-19)
(5.98226 -6.20057 1.5449e-19)
(5.77976 -6.57312 5.79667e-19)
(5.6087 -6.99464 5.61478e-19)
(5.42451 -7.33424 -4.17319e-19)
(5.28071 -7.73923 1.06879e-18)
(5.12463 -8.07202 -9.19173e-19)
(4.99619 -8.45268 1.14227e-18)
(4.86573 -8.78193 -2.11919e-18)
(4.74489 -9.13454 9.76732e-19)
(4.63455 -9.44703 1.16544e-19)
(4.51737 -9.75688 9.18811e-19)
(4.40374 -10.1009 -1.00437e-18)
(5.69 -1.23436 1.6504e-19)
(6.30006 -2.01468 -1.75045e-19)
(6.1714 -2.76489 7.01302e-19)
(5.92887 -3.27136 -6.88418e-19)
(5.6 -3.83943 -3.35458e-19)
(5.48148 -4.39124 -8.16817e-19)
(5.35704 -5.00153 4.00989e-21)
(5.21366 -5.48303 6.28926e-19)
(5.07891 -6.02513 -1.50388e-19)
(4.89797 -6.41498 0)
(4.74768 -6.8705 0)
(4.59478 -7.21926 0)
(4.44237 -7.60829 0)
(4.31295 -7.93117 3.55788e-21)
(4.17195 -8.2787 0)
(4.06103 -8.58363 1.26358e-19)
(3.93398 -8.90822 4.97099e-19)
(3.83599 -9.19269 -1.45924e-18)
(3.72521 -9.48894 1.07541e-18)
(3.62261 -9.80584 -1.02006e-18)
(4.70817 -0.947724 0)
(4.93671 -1.664 -9.32812e-20)
(4.79956 -2.38717 0)
(4.59779 -2.89172 2.63183e-19)
(4.37711 -3.45026 -1.75752e-19)
(4.15321 -3.85592 -6.72786e-19)
(4.04583 -4.42803 4.26802e-21)
(3.93921 -4.88162 6.45204e-19)
(3.86311 -5.43034 -6.24658e-19)
(3.78502 -5.88498 1.22324e-18)
(3.67985 -6.36754 -5.42762e-21)
(3.5986 -6.78882 -5.84027e-19)
(3.49623 -7.21847 5.63699e-19)
(3.40489 -7.59379 -6.91307e-19)
(3.30786 -7.97802 0)
(3.21555 -8.31214 -5.21522e-19)
(3.1253 -8.66258 5.13747e-19)
(3.03934 -8.95996 0)
(2.95805 -9.2702 -1.20106e-19)
(2.87154 -9.58514 0)
(3.17452 -0.604905 9.53104e-20)
(3.44059 -1.33991 9.31711e-20)
(3.59322 -2.23432 0)
(3.55823 -2.83732 3.59084e-19)
(3.43209 -3.51258 -4.4321e-19)
(3.27384 -3.9632 2.56737e-19)
(3.08951 -4.48851 -7.57174e-19)
(2.96883 -4.90158 3.2921e-19)
(2.82978 -5.38155 -8.04549e-20)
(2.74499 -5.78149 0)
(2.64677 -6.23415 -7.63848e-20)
(2.57352 -6.60825 -7.4412e-20)
(2.49893 -7.03528 -7.24915e-20)
(2.43709 -7.38371 0)
(2.36898 -7.77989 -5.44222e-19)
(2.31226 -8.1008 1.13318e-18)
(2.24462 -8.46799 -9.73603e-19)
(2.18953 -8.75802 5.09013e-19)
(2.12559 -9.08258 6.20495e-20)
(2.0653 -9.39288 5.29777e-19)
(2.28438 -0.549886 -1.45601e-19)
(1.8817 -0.923833 -1.91018e-19)
(1.89642 -1.69817 5.59329e-22)
(1.96167 -2.24894 5.0333e-19)
(1.98182 -2.99822 -1.35458e-19)
(1.97802 -3.54163 -8.73313e-20)
(1.92726 -4.17971 8.5927e-20)
(1.86964 -4.6462 1.66836e-19)
(1.81215 -5.19836 8.04371e-20)
(1.75709 -5.61024 -3.14094e-19)
(1.69825 -6.10489 3.46773e-19)
(1.64288 -6.47354 7.44096e-20)
(1.58807 -6.92123 3.62696e-19)
(1.5366 -7.25765 -3.02024e-21)
(1.49081 -7.66574 3.17139e-20)
(1.44454 -7.97531 -6.06325e-19)
(1.40588 -8.35116 1.65932e-19)
(1.36355 -8.63269 0)
(1.32906 -8.96047 -3.07626e-20)
(1.28565 -9.2615 -2.67935e-19)
(0.51649 -1.05867 0)
(1.06553 -1.0069 -9.41792e-20)
(0.820253 -2.02451 1.02605e-19)
(0.861012 -2.3028 -4.64328e-20)
(0.699382 -3.06907 -4.54511e-20)
(0.723545 -3.45926 0)
(0.662196 -4.13603 -8.54672e-20)
(0.679284 -4.52916 1.67278e-19)
(0.631781 -5.1264 -8.18717e-20)
(0.631438 -5.49966 7.90276e-20)
(0.604842 -6.03197 -3.9177e-20)
(0.601985 -6.38148 -7.49531e-20)
(0.579627 -6.85739 1.46755e-19)
(0.579002 -7.18146 -1.42937e-19)
(0.554026 -7.60911 3.52878e-20)
(0.554792 -7.90825 2.40938e-34)
(0.529362 -8.29806 -3.27607e-20)
(0.530507 -8.57053 1.92781e-19)
(0.508996 -8.90908 -9.51205e-20)
(0.510471 -9.20373 -6.82246e-20)
(-0.106704 1.1761 1.0958e-20)
(-0.211297 1.37635 2.44808e-20)
(0.304509 -0.124215 0)
(1.4165 -4.18344 4.30574e-22)
(4.42354 -12.4185 1.81771e-20)
(7.1129 -20.1779 2.23191e-20)
(8.72926 -24.5013 0)
(9.32216 -26.2925 2.05336e-20)
(9.52911 -26.8707 0)
(9.57929 -27.0465 0)
(9.55665 -27.046 -1.65867e-20)
(9.5257 -26.997 5.20924e-22)
(9.43658 -26.9167 3.67239e-20)
(9.37357 -26.8319 0)
(9.33392 -26.855 1.61727e-20)
(9.2961 -26.8304 1.6446e-20)
(9.21524 -26.8108 1.61116e-20)
(9.16318 -26.7509 0)
(9.09909 -26.7771 -2.99884e-20)
(9.07161 -26.7535 2.78176e-20)
(-0.24412 1.36689 0)
(0.122584 0.670521 -1.2283e-19)
(0.788712 -2.19866 0)
(3.22263 -9.11713 -5.38703e-20)
(6.57792 -17.86 6.74965e-20)
(8.58065 -23.3487 -2.00944e-19)
(9.46977 -25.928 8.61658e-20)
(9.74515 -26.7276 6.0069e-20)
(9.79232 -26.9579 -2.57355e-19)
(9.77776 -26.9534 1.39302e-19)
(9.72077 -26.9227 -1.80946e-20)
(9.64595 -26.807 1.44755e-19)
(9.55789 -26.7417 -2.28501e-21)
(9.53264 -26.7271 -1.36425e-19)
(9.45638 -26.7202 -1.66301e-20)
(9.40587 -26.648 -1.65954e-20)
(9.32053 -26.64 -1.6113e-20)
(9.29546 -26.6339 0)
(9.20498 -26.6376 -1.11952e-19)
(9.17027 -26.5598 1.53227e-21)
(-0.23277 1.25544 -5.01716e-20)
(0.416059 -0.383269 0)
(1.69475 -4.96893 0)
(5.38678 -14.405 -4.664e-20)
(7.99536 -21.6434 4.57928e-20)
(9.4167 -25.3811 0)
(9.86771 -26.5568 -4.1562e-20)
(9.95567 -26.8905 1.12231e-19)
(9.9504 -26.8927 -1.05807e-19)
(9.90921 -26.8602 1.41288e-19)
(9.82408 -26.7529 -1.85697e-19)
(9.75547 -26.6405 0)
(9.69763 -26.6359 -1.38755e-19)
(9.65732 -26.5734 -1.31584e-19)
(9.56604 -26.5329 2.32835e-19)
(9.53236 -26.4977 -2.45635e-19)
(9.45698 -26.5138 2.04411e-19)
(9.42232 -26.4446 0)
(9.29974 -26.4166 -2.52648e-19)
(9.27508 -26.3414 4.18587e-19)
(0.0683584 0.881588 1.20305e-19)
(0.680719 -2.04276 0)
(3.37699 -9.27108 0)
(7.08319 -18.518 1.39049e-19)
(9.19648 -24.067 -2.7656e-19)
(10.0205 -26.1642 8.70294e-20)
(10.1883 -26.7462 4.25564e-20)
(10.2165 -26.8056 4.20916e-19)
(10.181 -26.7843 -5.75717e-19)
(10.1003 -26.6707 -6.73269e-20)
(10.0142 -26.5578 3.36461e-19)
(9.95932 -26.5066 7.04746e-20)
(9.88279 -26.4567 -3.39431e-19)
(9.83081 -26.3933 3.32579e-19)
(9.74542 -26.3897 9.51991e-20)
(9.70935 -26.3339 -5.97268e-20)
(9.60263 -26.3175 8.74259e-20)
(9.55306 -26.2197 0)
(9.43786 -26.2192 -2.52784e-20)
(9.42068 -26.1442 0)
(0.395366 0.0739764 0)
(1.2501 -3.97036 3.93473e-19)
(5.03102 -13.3167 -4.81222e-19)
(8.35295 -21.6391 4.69702e-19)
(9.91123 -25.4887 -3.73058e-19)
(10.3109 -26.5858 -8.69838e-20)
(10.4263 -26.7857 0)
(10.3976 -26.7639 2.16395e-19)
(10.3341 -26.6507 -3.03008e-19)
(10.2379 -26.503 3.7535e-19)
(10.1801 -26.4321 -2.94165e-19)
(10.1044 -26.3324 -7.04756e-20)
(10.0426 -26.2988 3.32507e-19)
(9.98761 -26.2429 -5.80137e-19)
(9.89365 -26.1919 3.71405e-19)
(9.85345 -26.1316 -1.21411e-19)
(9.74104 -26.1074 -2.83515e-19)
(9.70839 -26.0362 6.46059e-19)
(9.5842 -26.0242 -3.60333e-19)
(9.55753 -25.9026 -4.25929e-19)
(0.372821 -0.934022 4.14813e-19)
(2.18396 -6.17076 4.01322e-19)
(6.69517 -16.9223 -3.94719e-19)
(9.49792 -23.6382 -9.68597e-20)
(10.5065 -26.1474 9.20552e-20)
(10.7574 -26.6915 3.32394e-19)
(10.7369 -26.6944 -3.1328e-19)
(10.692 -26.5994 0)
(10.5775 -26.4158 3.06492e-19)
(10.5172 -26.3333 -3.01931e-19)
(10.428 -26.217 -2.80559e-19)
(10.3601 -26.1596 2.76013e-19)
(10.2843 -26.1079 0)
(10.2036 -26.0182 0)
(10.1128 -25.9935 5.3214e-19)
(10.0604 -25.9308 -5.22016e-19)
(9.92907 -25.896 -4.33214e-19)
(9.88489 -25.7903 4.21616e-19)
(9.72874 -25.7709 -3.89149e-19)
(9.7047 -25.6358 4.66129e-19)
(0.387691 -1.90197 -3.14818e-19)
(3.46838 -9.34492 1.07979e-19)
(7.97503 -19.6033 6.49748e-21)
(10.2771 -25.0481 4.95358e-19)
(10.9172 -26.5329 0)
(11.0028 -26.6763 0)
(10.9883 -26.6166 6.29187e-19)
(10.8883 -26.429 -2.13926e-20)
(10.8211 -26.3048 -6.26304e-19)
(10.7229 -26.1549 5.76031e-19)
(10.6486 -26.0623 -5.6655e-19)
(10.5594 -25.9625 0)
(10.478 -25.8921 4.97748e-19)
(10.3964 -25.8265 -4.89916e-19)
(10.2988 -25.765 0)
(10.2255 -25.6836 0)
(10.0942 -25.6298 0)
(10.0536 -25.5508 0)
(9.89376 -25.5298 0)
(9.86726 -25.3648 -4.52125e-20)
(0.648716 -2.73943 3.33453e-19)
(4.74564 -11.7753 -5.39583e-19)
(9.14484 -21.614 0)
(11.0849 -25.7549 0)
(11.4431 -26.5878 8.45897e-19)
(11.4769 -26.5919 5.77561e-20)
(11.3922 -26.4303 -7.50108e-19)
(11.2822 -26.2293 0)
(11.1621 -26.039 7.49321e-20)
(11.0703 -25.9264 -7.06562e-20)
(10.9577 -25.7932 0)
(10.8637 -25.7136 6.30321e-20)
(10.7681 -25.6482 -5.3817e-19)
(10.6564 -25.5428 9.81899e-19)
(10.5513 -25.494 -1.55977e-20)
(10.4638 -25.4202 -4.25204e-19)
(10.3209 -25.377 -4.82551e-20)
(10.2631 -25.2695 4.54755e-20)
(10.0635 -25.234 0)
(10.0334 -25.0441 4.03198e-20)
(1.05785 -3.67316 2.22231e-19)
(6.13304 -14.0462 2.10397e-19)
(10.2986 -23.0698 -6.61814e-19)
(11.7672 -26.212 2.05883e-19)
(11.9258 -26.5562 9.33822e-20)
(11.8556 -26.4311 7.68643e-19)
(11.712 -26.1854 -1.09688e-18)
(11.585 -25.9806 8.02738e-19)
(11.4767 -25.8373 -6.5499e-19)
(11.3418 -25.6704 7.77797e-19)
(11.2317 -25.5582 1.28381e-19)
(11.1134 -25.4544 5.421e-19)
(10.9971 -25.3586 -3.03659e-19)
(10.881 -25.2816 -5.9545e-19)
(10.7644 -25.2096 5.26213e-19)
(10.6476 -25.1186 0)
(10.5004 -25.0448 1.38243e-19)
(10.4298 -24.9579 3.9049e-20)
(10.2292 -24.9247 -7.99862e-20)
(10.1982 -24.7304 3.41488e-20)
(1.75994 -4.77654 -1.53515e-19)
(7.44553 -15.5853 3.49489e-19)
(11.3455 -23.9422 9.80518e-22)
(12.4781 -26.1766 -4.11531e-19)
(12.4983 -26.3057 -3.73164e-19)
(12.3788 -26.1021 -1.74778e-19)
(12.223 -25.9005 -4.16725e-21)
(12.0615 -25.6819 -1.55927e-19)
(11.8919 -25.4706 0)
(11.7483 -25.3378 -1.36764e-19)
(11.5929 -25.1944 -1.28365e-19)
(11.4555 -25.0969 -6.63822e-21)
(11.3203 -25.0205 4.24135e-19)
(11.1699 -24.9071 -2.17573e-19)
(11.0342 -24.844 -4.81645e-19)
(10.9027 -24.7673 3.75052e-19)
(10.7471 -24.7171 2.48169e-19)
(10.6483 -24.6147 -4.18079e-19)
(10.4202 -24.5722 8.06134e-20)
(10.3713 -24.36 4.92356e-19)
(2.40627 -5.52839 0)
(8.5181 -16.7634 9.8323e-19)
(12.3933 -24.4396 -1.28659e-18)
(13.1338 -26.0758 1.02937e-18)
(13.0396 -26.0143 8.96686e-19)
(12.8218 -25.748 -7.10951e-19)
(12.6128 -25.5045 -9.40305e-19)
(12.4066 -25.2791 3.51319e-20)
(12.2364 -25.1269 5.65754e-19)
(12.0447 -24.9547 -3.72747e-19)
(11.8826 -24.8348 9.49363e-19)
(11.7206 -24.7318 -5.67986e-19)
(11.5593 -24.6288 -1.06578e-19)
(11.4034 -24.5492 2.74595e-19)
(11.2537 -24.4769 -7.18601e-19)
(11.0921 -24.3876 3.44672e-19)
(10.925 -24.3034 0)
(10.8037 -24.2208 -5.76834e-19)
(10.5803 -24.1896 5.68452e-19)
(10.5117 -23.9843 -4.49445e-19)
(2.95817 -6.5657 2.33536e-19)
(9.75132 -17.6213 1.89497e-19)
(13.2824 -24.5214 1.09887e-18)
(13.7765 -25.5966 9.48139e-19)
(13.59 -25.4873 -5.68261e-19)
(13.3669 -25.2385 8.05564e-19)
(13.1374 -25.0475 -4.76091e-19)
(12.9035 -24.8319 5.43561e-19)
(12.6711 -24.6237 -1.03491e-18)
(12.4666 -24.4923 3.68962e-19)
(12.259 -24.3534 0)
(12.0704 -24.2551 0)
(11.8868 -24.1801 0)
(11.6918 -24.0687 -6.75679e-19)
(11.5144 -24.007 6.65244e-19)
(11.3393 -23.9367 0)
(11.1636 -23.884 0)
(11.0049 -23.8059 -5.97306e-20)
(10.7781 -23.7599 0)
(10.691 -23.5498 -4.99995e-19)
(3.65289 -7.0446 -4.53103e-19)
(10.6053 -18.3681 -1.1262e-18)
(14.1422 -24.4439 -7.79138e-19)
(14.3811 -25.2061 -1.31861e-19)
(14.0962 -24.999 1.03171e-18)
(13.8164 -24.7291 -2.09835e-19)
(13.5231 -24.4919 -4.32835e-20)
(13.2391 -24.2721 -6.66148e-19)
(13.005 -24.1272 0)
(12.7494 -23.9647 -3.17631e-19)
(12.5287 -23.8521 5.07233e-19)
(12.3149 -23.7577 0)
(12.1038 -23.6652 6.47049e-19)
(11.9045 -23.5947 -6.36902e-19)
(11.713 -23.5344 5.45404e-19)
(11.51 -23.4555 -9.79357e-19)
(11.3105 -23.3776 4.93831e-19)
(11.1364 -23.3189 5.97176e-20)
(10.9111 -23.2937 -4.49886e-20)
(10.8198 -23.1005 3.63312e-19)
(4.18033 -7.53288 -6.29581e-19)
(11.7291 -18.4198 4.20023e-20)
(14.8392 -24.0076 6.07055e-20)
(15.0146 -24.4119 1.42406e-18)
(14.6186 -24.2439 1.10532e-19)
(14.3296 -24.0257 -7.4328e-19)
(14.0215 -23.8555 -5.02428e-19)
(13.7051 -23.6631 1.63835e-19)
(13.4061 -23.4752 5.46495e-19)
(13.138 -23.3624 -5.6451e-19)
(12.8742 -23.2422 2.72062e-19)
(12.6342 -23.1603 -6.82158e-19)
(12.4016 -23.1015 5.34498e-19)
(12.1606 -23.0047 -4.99659e-19)
(11.9406 -22.959 4.39368e-19)
(11.7255 -22.9049 3.50473e-19)
(11.5178 -22.8607 -4.03406e-19)
(11.311 -22.8064 2.98293e-19)
(11.0798 -22.7851 -2.84248e-19)
(10.9686 -22.5925 -3.08271e-19)
(4.84628 -7.8723 -7.87842e-19)
(12.5991 -18.6162 -1.46164e-19)
(15.5179 -23.5045 7.21239e-19)
(15.5138 -23.7808 -6.24707e-19)
(15.0755 -23.5621 6.13092e-19)
(14.7113 -23.34 1.37747e-19)
(14.3468 -23.1321 0)
(13.9849 -22.9451 -9.58408e-20)
(13.6888 -22.8272 2.54734e-19)
(13.3714 -22.6918 -8.91912e-19)
(13.0928 -22.6039 6.22626e-19)
(12.8261 -22.5289 1.31101e-19)
(12.5666 -22.4624 6.52791e-20)
(12.3252 -22.4134 0)
(12.0909 -22.3771 1.3374e-20)
(11.851 -22.3187 3.10211e-19)
(11.6188 -22.2583 -3.2463e-20)
(11.399 -22.2319 3.42868e-20)
(11.1767 -22.2416 -2.3541e-19)
(11.0617 -22.0656 4.72803e-20)
(5.35211 -8.00084 7.22e-19)
(13.4247 -18.2484 -1.23586e-18)
(16.1097 -22.6794 6.76723e-19)
(15.9979 -22.7791 5.54183e-19)
(15.511 -22.6295 -5.62382e-20)
(15.1357 -22.4655 -3.75567e-19)
(14.7634 -22.3375 9.0294e-20)
(14.3701 -22.1866 9.58254e-20)
(14.0073 -22.0346 0)
(13.6806 -21.955 0)
(13.362 -21.8663 -4.41713e-19)
(13.0758 -21.8164 7.1589e-19)
(12.798 -21.7874 -3.7646e-19)
(12.5142 -21.7166 0)
(12.2557 -21.7035 1.45296e-20)
(12.0088 -21.6789 -2.20096e-19)
(11.7651 -21.651 2.12692e-19)
(11.511 -21.6208 -2.51205e-20)
(11.2823 -21.6402 -1.13136e-19)
(11.1556 -21.4785 8.28944e-20)
(5.94845 -8.11866 -6.37874e-19)
(14.1916 -18.0622 7.9837e-19)
(16.6242 -21.8234 0)
(16.3544 -21.9211 0)
(15.855 -21.7523 9.72322e-20)
(15.401 -21.6069 -4.56003e-19)
(14.9807 -21.4531 2.35531e-20)
(14.5506 -21.3243 2.97744e-19)
(14.1996 -21.2523 -4.4041e-19)
(13.8291 -21.1594 8.03909e-19)
(13.4989 -21.1117 -3.64765e-19)
(13.1845 -21.0654 6.867e-20)
(12.8844 -21.0392 2.23285e-19)
(12.6052 -21.0216 -2.70912e-20)
(12.331 -21.0163 -1.23071e-19)
(12.0628 -20.991 1.98437e-20)
(11.8016 -20.9652 -6.81741e-20)
(11.5389 -20.9712 5.17148e-20)
(11.3192 -21.0107 1.38519e-20)
(11.194 -20.8806 -2.57905e-21)
(6.38349 -8.0627 0)
(14.7884 -17.3964 3.62171e-19)
(16.9588 -20.8194 -4.03972e-19)
(16.6764 -20.7848 0)
(16.1285 -20.7018 -9.72254e-20)
(15.6827 -20.611 2.67765e-19)
(15.2671 -20.5426 -3.33624e-19)
(14.813 -20.4455 0)
(14.3972 -20.345 2.87043e-19)
(14.0258 -20.3097 -2.82263e-19)
(13.6599 -20.2642 1.42025e-20)
(13.3378 -20.2577 -2.58708e-20)
(13.0218 -20.2672 -1.96314e-20)
(12.702 -20.2321 -1.40589e-20)
(12.4131 -20.264 -5.26117e-22)
(12.1437 -20.2781 -4.9134e-20)
(11.864 -20.2795 1.08316e-19)
(11.5687 -20.2727 -1.57508e-19)
(11.333 -20.3223 8.405e-20)
(11.2111 -20.2254 -9.39345e-21)
(6.87083 -7.97867 0)
(15.3891 -16.8831 -3.98685e-19)
(17.2558 -19.7608 2.19443e-19)
(16.8526 -19.7719 2.16154e-19)
(16.3224 -19.6708 -5.03302e-20)
(15.7929 -19.6213 -4.43569e-20)
(15.3416 -19.5364 -1.72834e-19)
(14.8638 -19.4787 0)
(14.4684 -19.4638 0)
(14.0592 -19.4214 0)
(13.6871 -19.4205 -1.42011e-20)
(13.3335 -19.4081 0)
(13.0055 -19.4336 9.15668e-20)
(12.6935 -19.4517 -7.39866e-20)
(12.3821 -19.4762 1.43654e-19)
(12.0962 -19.4971 -3.13666e-19)
(11.8124 -19.5332 1.6961e-19)
(11.5189 -19.5681 2.45937e-19)
(11.256 -19.6212 -4.44835e-19)
(11.1399 -19.5117 2.43689e-19)
(7.25433 -7.7606 0)
(15.7749 -16.057 0)
(17.4043 -18.5774 7.82329e-20)
(16.9721 -18.5733 6.34652e-20)
(16.4271 -18.5457 0)
(15.9202 -18.5413 8.00319e-20)
(15.4777 -18.5472 -7.86265e-20)
(14.9844 -18.5067 0)
(14.5273 -18.4695 -4.71461e-20)
(14.1289 -18.4873 4.63609e-20)
(13.7276 -18.4917 0)
(13.3782 -18.5288 1.89268e-19)
(13.0306 -18.5753 2.36546e-20)
(12.6839 -18.579 -2.22763e-19)
(12.3676 -18.6471 0)
(12.069 -18.6841 0)
(11.746 -18.7331 0)
(11.4383 -18.7437 3.25281e-19)
(11.1201 -18.766 -3.54501e-19)
(10.9622 -18.7098 0)
(8.52062 -26.6688 0)
(8.17502 -26.2845 0)
(7.44813 -26.3869 -2.63769e-21)
(7.00318 -26.4523 -2.6003e-21)
(6.32734 -26.4657 0)
(5.88647 -26.5258 -3.56458e-23)
(5.36401 -26.5875 2.55904e-21)
(4.92281 -26.6783 0)
(4.4416 -26.7716 2.44228e-21)
(4.02404 -26.8231 0)
(3.58996 -26.8699 -2.40261e-21)
(3.23254 -26.8929 -1.20086e-21)
(2.84485 -26.9264 1.20817e-21)
(2.55335 -26.9313 2.32863e-21)
(2.19797 -26.9416 0)
(1.94958 -26.8772 -5.70261e-22)
(1.60905 -26.7383 2.24375e-21)
(1.44068 -25.344 0)
(0.887645 -20.8002 0)
(0.294146 -11.3615 2.19267e-21)
(8.54728 -26.4753 1.2658e-20)
(8.19706 -26.1348 0)
(7.38157 -26.211 1.28373e-20)
(7.00926 -26.2395 -7.6667e-21)
(6.30914 -26.3022 0)
(5.86479 -26.4233 -1.215e-20)
(5.31552 -26.4808 4.87692e-21)
(4.8439 -26.5521 0)
(4.36446 -26.6425 2.3065e-21)
(3.95108 -26.7002 -4.7727e-21)
(3.52606 -26.7533 7.0802e-21)
(3.17505 -26.7838 -9.33989e-21)
(2.79516 -26.8253 6.9643e-21)
(2.51606 -26.8475 -2.36454e-21)
(2.16771 -26.8623 -2.28804e-21)
(1.94161 -26.7992 2.22131e-21)
(1.61801 -26.6694 -3.56896e-21)
(1.44379 -25.2388 -5.41213e-21)
(0.871327 -20.619 -2.67234e-21)
(0.301896 -11.1844 -2.73535e-21)
(8.64084 -26.246 -2.49072e-21)
(8.27437 -25.9339 -1.17615e-20)
(7.44568 -26.0293 -9.49789e-21)
(6.97873 -26.1091 0)
(6.29604 -26.138 0)
(5.86859 -26.2312 1.40351e-20)
(5.3566 -26.2973 -1.16021e-22)
(4.9083 -26.3997 -7.40533e-23)
(4.43675 -26.5097 -9.48351e-23)
(4.01951 -26.5781 -9.13854e-21)
(3.59303 -26.6422 0)
(3.23821 -26.6821 0)
(2.85537 -26.7336 0)
(2.56556 -26.7518 -8.71303e-21)
(2.21276 -26.7749 0)
(1.96833 -26.719 -8.58381e-21)
(1.62616 -26.6012 6.78465e-21)
(1.44889 -25.1501 3.25737e-21)
(0.884028 -20.4991 5.37422e-21)
(0.306987 -11.044 8.36829e-21)
(8.68726 -26.0313 2.08964e-20)
(8.31069 -25.7631 -4.14388e-20)
(7.40047 -25.8412 1.12732e-22)
(6.98869 -25.8908 1.84895e-20)
(6.29864 -25.9725 0)
(5.8578 -26.1274 1.75458e-20)
(5.31334 -26.1899 -4.359e-20)
(4.83113 -26.2736 2.62585e-20)
(4.36168 -26.3809 -1.72936e-20)
(3.94712 -26.4558 8.6855e-21)
(3.52938 -26.5269 -2.05754e-22)
(3.18019 -26.5745 -8.6212e-21)
(2.80416 -26.6334 8.66107e-21)
(2.52547 -26.6686 4.446e-21)
(2.17957 -26.6959 4.28703e-21)
(1.95562 -26.6403 8.57865e-21)
(1.63251 -26.534 -8.44823e-21)
(1.44907 -25.0516 4.16371e-21)
(0.869137 -20.3317 -2.08238e-21)
(0.314193 -10.8743 -8.35536e-21)
(8.78087 -25.7757 4.50866e-20)
(8.38371 -25.5452 9.94875e-21)
(7.47186 -25.64 -1.79129e-20)
(6.97384 -25.7546 2.58584e-20)
(6.3025 -25.8122 0)
(5.86347 -25.9369 -8.13827e-21)
(5.35403 -26.0051 8.5298e-21)
(4.89377 -26.1203 0)
(4.43368 -26.249 4.12429e-22)
(4.01501 -26.3345 0)
(3.59504 -26.4168 -1.6689e-20)
(3.24163 -26.4731 0)
(2.86182 -26.5418 0)
(2.57282 -26.5739 -1.63691e-20)
(2.22249 -26.6103 8.28431e-21)
(1.98144 -26.5632 -8.07559e-21)
(1.63816 -26.4678 0)
(1.4522 -24.9694 2.02225e-21)
(0.879688 -20.2234 -2.02886e-21)
(0.319082 -10.7366 0)
(8.85403 -25.5248 1.82032e-20)
(8.42832 -25.3541 -1.77751e-20)
(7.44399 -25.4412 4.00126e-20)
(6.99234 -25.5327 -4.13011e-20)
(6.32628 -25.6448 1.51653e-20)
(5.85963 -25.8285 8.16343e-21)
(5.3135 -25.8961 -1.5259e-20)
(4.81797 -25.9941 -1.53757e-20)
(4.35977 -26.121 8.14633e-21)
(3.94318 -26.2129 1.59143e-20)
(3.53133 -26.3028 -7.80256e-21)
(3.1829 -26.3668 0)
(2.80928 -26.4427 0)
(2.53028 -26.4913 4.30302e-22)
(2.18648 -26.5319 -8.0043e-21)
(1.96422 -26.484 8.0677e-21)
(1.64219 -26.4026 0)
(1.44932 -24.8784 -1.55587e-20)
(0.865946 -20.0703 -1.46273e-20)
(0.325814 -10.5746 -9.83886e-22)
(8.95643 -25.2556 -5.41772e-20)
(8.50143 -25.1177 5.34759e-20)
(7.52671 -25.226 -1.58771e-20)
(6.99426 -25.3929 0)
(6.34303 -25.4838 -1.52295e-20)
(5.86316 -25.6339 2.97299e-20)
(5.35186 -25.7092 -1.45248e-20)
(4.87864 -25.8407 1.54188e-20)
(4.43052 -25.9901 0)
(4.01064 -26.0925 0)
(3.59567 -26.1933 1.52639e-20)
(3.24256 -26.2656 -1.53189e-20)
(2.86445 -26.351 0)
(2.57539 -26.3976 2.33508e-20)
(2.22682 -26.4476 -7.71886e-21)
(1.98855 -26.4102 -7.67393e-21)
(1.64561 -26.3384 6.15848e-21)
(1.45078 -24.8039 1.93637e-20)
(0.874577 -19.9751 9.8104e-21)
(0.330375 -10.4403 1.91526e-21)
(9.05736 -24.9665 0)
(8.55063 -24.9053 -3.03509e-20)
(7.51528 -25.0163 3.04385e-20)
(7.02424 -25.1667 0)
(6.38067 -25.3121 0)
(5.86261 -25.5188 -2.79168e-20)
(5.31269 -25.5985 2.79992e-20)
(4.80514 -25.7144 0)
(4.35745 -25.8634 1.43628e-20)
(3.93998 -25.9715 -2.89061e-20)
(3.53196 -26.0805 1.45407e-20)
(3.18347 -26.1603 1.47023e-20)
(2.81088 -26.2529 -1.47455e-20)
(2.5309 -26.3154 0)
(2.18832 -26.3704 0)
(1.96733 -26.3308 -7.44472e-21)
(1.64763 -26.2754 8.95206e-21)
(1.44503 -24.7214 2.25323e-24)
(0.861513 -19.8368 -5.60159e-21)
(0.336667 -10.2863 1.86398e-21)
(9.17988 -24.6654 3.05247e-20)
(8.62455 -24.6474 -3.06534e-20)
(7.60399 -24.7888 -3.88452e-20)
(7.03714 -25.0261 5.26006e-20)
(6.4023 -25.1451 -5.20606e-20)
(5.86212 -25.3163 -2.79986e-22)
(5.3475 -25.4101 2.62589e-20)
(4.86549 -25.5614 0)
(4.42721 -25.7339 0)
(4.00732 -25.8523 1.33334e-20)
(3.59514 -25.9715 0)
(3.24148 -26.0595 0)
(2.86378 -26.1612 0)
(2.57364 -26.2227 0)
(2.22568 -26.2871 0)
(1.98969 -26.2604 0)
(1.64908 -26.2135 -5.78251e-21)
(1.44511 -24.6553 7.23153e-21)
(0.868187 -19.7554 -1.81592e-21)
(0.3414 -10.1564 1.81204e-21)
(9.29576 -24.3386 -2.50614e-20)
(8.67806 -24.4165 -4.10663e-20)
(7.60618 -24.5652 -1.16969e-20)
(7.07169 -24.794 -1.16148e-20)
(6.44168 -24.9683 1.15773e-20)
(5.86387 -25.1935 3.56429e-20)
(5.3105 -25.2982 1.18456e-20)
(4.79655 -25.4355 0)
(4.35638 -25.608 -1.33746e-20)
(3.93877 -25.7321 2.50973e-20)
(3.53218 -25.8593 1.29106e-20)
(3.18261 -25.9548 1.30399e-20)
(2.80973 -26.0635 0)
(2.52788 -26.1408 1.33794e-20)
(2.1851 -26.2108 1.36142e-20)
(1.96508 -26.1813 0)
(1.6493 -26.1529 0)
(1.43684 -24.5811 0)
(0.855304 -19.6324 0)
(0.348084 -10.0103 0)
(9.42312 -24.0005 1.08083e-19)