/*--------------------------------*- C++ -*----------------------------------*\
  =========                 |
  \\      /  F ield         | OpenFOAM: The Open Source CFD Toolbox
   \\    /   O peration     | Website:  https://openfoam.org
    \\  /    A nd           | Version:  9
     \\/     M anipulation  |
\*---------------------------------------------------------------------------*/
FoamFile
{
    format      ascii;
    class       volScalarField;
    location    "3.5";
    object      nut;
}
// * * * * * * * * * * * * * * * * * * * * * * * * * * * * * * * * * * * * * //

dimensions      [0 2 -1 0 0 0 0];

internalField   nonuniform List<scalar> 
46400
(
0.0180056
0.00669148
0.00195838
0.00126455
0.00130324
0.00126547
0.00118504
0.00116186
0.00109083
0.00106566
0.00102378
0.000988174
0.00095915
0.000939436
0.000914452
0.000909768
0.000865882
0.000821098
0.0011792
0.000954994
0.0177112
0.00556987
0.00142426
0.00133211
0.00127012
0.00125462
0.00121023
0.0011895
0.00111672
0.00108828
0.00104992
0.00100312
0.000971527
0.000939376
0.000900432
0.00087642
0.000806502
0.0007254
0.00099033
0.000909878
0.017368
0.00468257
0.00121703
0.00139272
0.00130745
0.00130388
0.00121867
0.00120524
0.00113766
0.00110411
0.00106818
0.00103001
0.000994282
0.000966428
0.000938939
0.000921688
0.000855872
0.00080525
0.00110504
0.000939204
0.0169569
0.00384628
0.00118016
0.001432
0.00129325
0.00129281
0.00123865
0.0012163
0.00115483
0.00111347
0.0010815
0.00103702
0.00100222
0.000967491
0.000934524
0.000918538
0.00086997
0.000804003
0.00112473
0.00102335
0.0164464
0.00408015
0.00126341
0.00147139
0.0013502
0.00133654
0.00125732
0.00124182
0.00118458
0.00114063
0.00110423
0.00107186
0.00103563
0.00100156
0.000970816
0.000939885
0.000881247
0.000838514
0.00112919
0.000997023
0.0158808
0.0047808
0.00133878
0.00150427
0.00135952
0.00134518
0.00127776
0.00124378
0.00119854
0.00114937
0.0011154
0.00107301
0.00104846
0.00101478
0.000995691
0.000981569
0.000919618
0.000857206
0.00117032
0.0010743
0.0153348
0.00441646
0.00140917
0.0015422
0.00140734
0.00137119
0.00129937
0.00126016
0.00121569
0.00117004
0.00113006
0.0010929
0.00105961
0.00102321
0.000989933
0.000974464
0.000930941
0.000850967
0.00112571
0.00105572
0.0141964
0.00388674
0.00140886
0.00153143
0.0014113
0.00137352
0.00131236
0.0012571
0.0012204
0.00117387
0.00114396
0.00109483
0.0010781
0.00105395
0.00103097
0.00100724
0.00096587
0.000900657
0.00112788
0.00107356
0.0127562
0.00307631
0.00145253
0.00151847
0.00143096
0.00136675
0.00132563
0.00125815
0.00121336
0.00117168
0.00114075
0.00109214
0.00104069
0.00101429
0.000998452
0.000986598
0.000950518
0.000902762
0.0010988
0.00102565
0.0101151
0.0024761
0.00147751
0.00145153
0.00142477
0.00136053
0.00132712
0.00127637
0.00121688
0.00116914
0.00116457
0.00113784
0.00110326
0.00104269
0.00101452
0.000988994
0.000957258
0.000914892
0.00110158
0.00105812
0.00824492
0.00209848
0.00150558
0.00144078
0.00139299
0.00133988
0.00131228
0.00126905
0.0012225
0.00112553
0.00108679
0.00107506
0.0010677
0.00104661
0.00100948
0.000981188
0.000934601
0.000887635
0.00102451
0.000997752
0.00666398
0.00182243
0.00149282
0.00144021
0.00141401
0.00133631
0.00132381
0.00129785
0.00129382
0.00122729
0.00114222
0.0010785
0.0010559
0.00103042
0.0010266
0.00100422
0.000976557
0.000935767
0.00104916
0.001004
0.00563782
0.00168406
0.0015035
0.00141208
0.00139943
0.00131222
0.00126407
0.00122007
0.0012333
0.00121628
0.00118493
0.00110992
0.00105561
0.00100932
0.000970961
0.000963652
0.000921666
0.000902054
0.00100906
0.000989827
0.00481407
0.00162805
0.00154403
0.00145069
0.00142287
0.00135781
0.00132185
0.00123696
0.00121586
0.00120509
0.00119279
0.00117294
0.00111762
0.00108107
0.00101941
0.000983132
0.0009303
0.000874415
0.000938369
0.000899228
0.00426682
0.00154428
0.00151339
0.00145529
0.00143459
0.00132728
0.00129633
0.00123488
0.00117139
0.00114781
0.00112613
0.00112235
0.00110878
0.0010863
0.00107365
0.00103912
0.0010162
0.000964046
0.0010274
0.000969775
0.00426316
0.00162614
0.00155532
0.00146837
0.00148888
0.00143471
0.00136254
0.00130836
0.00123717
0.00116825
0.00112532
0.00107702
0.00105948
0.00102139
0.00100708
0.000984378
0.000958334
0.000923609
0.000985844
0.000946053
0.00360624
0.00153886
0.00141983
0.00135529
0.00134684
0.00134618
0.00134234
0.00130463
0.0012902
0.00123265
0.00119851
0.00114672
0.00111246
0.00107698
0.00104279
0.00102005
0.000982343
0.000937789
0.000984552
0.000933772
0.0037596
0.00179261
0.00162405
0.00146453
0.0013974
0.0013069
0.0012808
0.00122728
0.0012032
0.00117131
0.00114117
0.00111072
0.00107639
0.00104709
0.00101716
0.000994301
0.000964209
0.000916416
0.000967995
0.000909563
0.00279919
0.00147157
0.00152496
0.00141868
0.00143208
0.00136599
0.00133244
0.00128756
0.00124596
0.0012073
0.00117464
0.00113684
0.00110903
0.00106833
0.00104183
0.00100676
0.00097659
0.000914771
0.000960802
0.000898182
0.000629188
0.000429396
0.00140329
0.00125936
0.00137417
0.00128008
0.00131441
0.00124543
0.00124766
0.00118255
0.00116748
0.00111248
0.00109329
0.00104725
0.00102738
0.000991277
0.000966761
0.000903077
0.000952728
0.00088131
0.000509999
0.00070046
0.00335779
0.00776807
0.0106187
0.00837056
0.00418578
0.00154102
0.000430702
2.65289e-05
0.000112326
0.000191801
0.000266292
0.000121236
0.000116626
0.000188693
0.000205217
0.000205886
0.000173664
0.00022625
3.99277e-05
0.00160045
0.00626111
0.0103064
0.00949458
0.00531033
0.0020694
0.000542081
5.88176e-05
0.000112538
0.000208885
0.000274206
0.000195002
0.000163824
0.000210855
0.000232454
0.000194238
0.000202599
0.000207297
0.000269123
0.00028153
0.00379183
0.00878026
0.0107103
0.00706953
0.00298411
0.000780463
7.27802e-05
0.000125602
0.000229672
0.000257136
0.000215049
0.000184537
0.000239188
0.000222289
0.000193358
0.000201306
0.000268964
0.000253743
0.000274838
0.000408768
0.00657834
0.0104862
0.00939806
0.00492877
0.00136779
0.000120259
9.10528e-05
0.000253856
0.000301464
0.000249305
0.000237936
0.00025052
0.000243251
0.000217433
0.000257143
0.000281143
0.000292029
0.000239341
0.000300057
0.00219326
0.00868006
0.0111935
0.00764947
0.00257228
0.000410369
0.000136291
0.00026797
0.000311472
0.000284024
0.000276397
0.000273266
0.000243775
0.000275887
0.000259983
0.000287226
0.000270664
0.000282172
0.000282426
0.00033839
0.00274332
0.00990823
0.0108391
0.00574895
0.00119849
0.000166549
0.000258842
0.000344103
0.00035236
0.000328026
0.000318975
0.000291036
0.000313403
0.000315146
0.000281072
0.000329603
0.000317356
0.000354877
0.000328544
0.000362794
0.0053896
0.0111353
0.00970988
0.0033396
0.000309439
0.000215805
0.000382487
0.000413301
0.000380197
0.000364987
0.000344636
0.000349014
0.0003335
0.000336514
0.000328999
0.000372302
0.000323696
0.00036107
0.000354612
0.000392055
0.00735911
0.0116413
0.00853995
0.0018232
0.000255417
0.000370564
0.00049571
0.000498304
0.000435407
0.000427491
0.000415585
0.000384119
0.000398957
0.000395751
0.000371612
0.000409188
0.000362666
0.000444204
0.000412079
0.000414568
0.0096852
0.0119493
0.00744226
0.000647371
0.000301115
0.000561003
0.000606829
0.000511327
0.000498963
0.000483536
0.000447499
0.000449306
0.000438126
0.00042101
0.000418094
0.000452588
0.000391176
0.000463818
0.000419069
0.000431578
0.0122233
0.0117337
0.00530515
0.000389466
0.000425625
0.00062604
0.000658109
0.000619693
0.000569562
0.000548575
0.000526308
0.000495558
0.000498392
0.000486725
0.000472357
0.000488667
0.000437108
0.000535766
0.000471962
0.000461917
0.0139829
0.0117693
0.0037977
0.00027621
0.000678507
0.000790865
0.0007424
0.000652129
0.000624604
0.000604853
0.00056121
0.000558481
0.000544878
0.000517631
0.00051586
0.000531051
0.000478225
0.000553689
0.000484494
0.000496926
0.0154694
0.0112407
0.00225544
0.000231293
0.000745448
0.000787958
0.000783023
0.000739021
0.000695579
0.000668464
0.000637744
0.000608424
0.000601316
0.000584105
0.000572723
0.00056672
0.000534652
0.000610594
0.000508708
0.000530636
0.0161039
0.0109486
0.00161508
0.000427343
0.00091252
0.000909307
0.000881364
0.000779993
0.00074607
0.0007231
0.000673667
0.000666899
0.000649775
0.00061902
0.000614482
0.00061651
0.000580543
0.000627052
0.000502663
0.00055034
0.0169183
0.0104909
0.00105074
0.000599746
0.000974937
0.000887315
0.00091087
0.000854678
0.000807462
0.000782377
0.000744782
0.000715162
0.000702154
0.000682047
0.000666936
0.00064879
0.000632637
0.000676631
0.000524807
0.000588254
0.0174617
0.0101323
0.00114435
0.000770933
0.00110135
0.00100629
0.00099405
0.000899589
0.000856915
0.000833453
0.00077983
0.000768068
0.000746922
0.000715213
0.000706177
0.000695019
0.000675407
0.000685039
0.000510784
0.000610871
0.0178196
0.00968503
0.00183576
0.00092201
0.00111744
0.00100137
0.00102379
0.000969094
0.00091064
0.000890087
0.000846829
0.000814366
0.000799462
0.000778749
0.000754738
0.000730327
0.00073708
0.000739528
0.000529615
0.000651302
0.0181565
0.00937324
0.00220629
0.00104512
0.00120445
0.0011072
0.00108327
0.00100651
0.000953315
0.000931648
0.000877597
0.000859118
0.000834539
0.00080658
0.0007908
0.000767604
0.000771873
0.000746532
0.000516079
0.000679811
0.0182228
0.00906974
0.00216773
0.00108821
0.00122127
0.00109328
0.00111124
0.00106936
0.000999044
0.000983759
0.000938714
0.000902496
0.000888379
0.000867678
0.000834866
0.000812175
0.0008377
0.000808478
0.000537027
0.000727965
0.018304
0.00860392
0.00210344
0.0011408
0.00128695
0.00119798
0.00114398
0.00109913
0.00103473
0.00101454
0.00096639
0.000940016
0.000915388
0.000895445
0.00087064
0.000847598
0.000861957
0.000852022
0.00055635
0.000705677
0.0181642
0.00761887
0.00190273
0.00119731
0.00126201
0.0011885
0.00117317
0.00114712
0.00107327
0.00105822
0.00101858
0.000981576
0.000970007
0.000953461
0.000925361
0.000933631
0.000934504
0.000931538
0.000712352
0.000776648
0.00212597
0.0017646
0.00181385
0.00166269
0.00172225
0.00150233
0.00149523
0.00142051
0.00136129
0.00126235
0.00116494
0.00110091
0.000984895
0.000921642
0.000821273
0.000772421
0.00100073
0.00420296
0.00994025
0.0222602
0.00230573
0.00181494
0.0018496
0.00163016
0.00171575
0.00161003
0.00161655
0.00145574
0.00133771
0.00123749
0.00113981
0.00106774
0.000939614
0.000879357
0.000777057
0.000731933
0.00101571
0.00431689
0.00997191
0.0219957
0.00221092
0.00185591
0.00193788
0.00168536
0.00173866
0.00150873
0.00148911
0.00140953
0.00133529
0.00124752
0.00114822
0.00108623
0.000964252
0.000904611
0.000805125
0.000763841
0.00100363
0.00435001
0.0100101
0.0218472
0.00230452
0.00191576
0.00198225
0.00164702
0.0017322
0.00161798
0.00161273
0.00145241
0.00131499
0.00122417
0.00112462
0.00105336
0.000918856
0.000863674
0.000764001
0.000726931
0.00101358
0.00444537
0.0100371
0.0215915
0.0022603
0.00194339
0.00207237
0.00171236
0.00176151
0.00153927
0.00148851
0.00140074
0.00130967
0.00123438
0.00113333
0.00107095
0.000943467
0.000889315
0.000794917
0.000763054
0.00100136
0.00446294
0.0100745
0.0214486
0.002437
0.00204606
0.00212542
0.00165943
0.00175792
0.00164802
0.00160515
0.00144494
0.00129297
0.0012124
0.00111047
0.00103863
0.000900779
0.000852825
0.000758097
0.00072847
0.00100382
0.00453646
0.0100939
0.0212116
0.00252357
0.00207721
0.00219675
0.00173185
0.00179126
0.0015847
0.00148694
0.00139125
0.00128693
0.001223
0.00112015
0.00105642
0.000927276
0.000880826
0.000792369
0.000767069
0.00099028
0.00453755
0.0101346
0.0210735
0.00281417
0.00221989
0.0022509
0.00168218
0.00179492
0.00168633
0.00159014
0.0014309
0.00127391
0.00120281
0.00109806
0.00102564
0.000889395
0.000850771
0.00076011
0.000732946
0.000983412
0.00458732
0.0101449
0.0208589
0.00304255
0.0022634
0.0022948
0.00176056
0.00182606
0.00162643
0.0014785
0.0013779
0.00126928
0.00121343
0.0011089
0.00104436
0.000919521
0.00088216
0.00079748
0.000772451
0.000969995
0.00457012
0.0101849
0.0207296
0.00339954
0.00241537
0.00234884
0.00173377
0.00183548
0.00171353
0.00156648
0.00141254
0.00126026
0.00119508
0.00108835
0.0010161
0.000887011
0.000857333
0.000769734
0.000738402
0.000953952
0.00460141
0.0101901
0.0205375
0.00370124
0.00246768
0.00238128
0.00181785
0.00185892
0.00165066
0.00146279
0.00136381
0.00125849
0.00120511
0.00109963
0.00103621
0.00092046
0.000890983
0.000810033
0.000777588
0.000944012
0.00456439
0.0102288
0.0204169
0.00390438
0.00259526
0.00243197
0.00182131
0.00186828
0.00171642
0.00153568
0.00139524
0.00125262
0.00118806
0.00108104
0.00101127
0.000892491
0.000869883
0.000786068
0.000743216
0.000922356
0.00457015
0.010231
0.0202448
0.00403853
0.00263686
0.00246889
0.00190711
0.00187862
0.00165117
0.00144239
0.00135389
0.00125308
0.00119645
0.00109233
0.00103207
0.000927709
0.000904571
0.000826703
0.000781236
0.000924471
0.00452355
0.010271
0.0201286
0.00425118
0.00272583
0.00250817
0.0019291
0.00187871
0.00169883
0.0015072
0.00138533
0.00124892
0.00118042
0.0010758
0.00101046
0.00090376
0.000886043
0.000804365
0.000746995
0.000901665
0.0045096
0.0102732
0.0199743
0.00439289
0.00275401
0.00254413
0.00200532
0.00186958
0.00163394
0.00142396
0.00134965
0.00124862
0.00118584
0.00108632
0.00103068
0.000938518
0.000920436
0.000842683
0.000783853
0.000927372
0.00444854
0.010309
0.0198836
0.00463649
0.00282741
0.00255719
0.00202404
0.0018573
0.0016752
0.00149075
0.00138185
0.00124358
0.00116936
0.00107087
0.00101139
0.000917009
0.000902378
0.000820384
0.00075083
0.000911219
0.00440282
0.0103027
0.0197555
0.00486905
0.00287349
0.00258955
0.00208422
0.00183134
0.00161779
0.00142254
0.00135324
0.00124368
0.00117445
0.001082
0.00103173
0.000950488
0.000936388
0.000855707
0.000788469
0.000926322
0.00435701
0.0103605
0.0196507
0.00502384
0.00289984
0.00254832
0.00208974
0.00182255
0.00167038
0.00150224
0.00139077
0.00124171
0.00116202
0.00107137
0.00101824
0.000933778
0.000922388
0.000838368
0.00076292
0.000910538
0.00428593
0.0103916
0.0196487
0.00497752
0.00296456
0.00251679
0.00209427
0.00175227
0.00158654
0.00142152
0.00133944
0.00121661
0.00114622
0.00106764
0.00102467
0.000955379
0.000945669
0.000864443
0.000791709
0.00094749
0.00419792
0.0103792
0.019579
0.0057872
0.0032362
0.00258401
0.00209635
0.00175937
0.00166715
0.00154053
0.00141461
0.00125233
0.00116899
0.00108455
0.00103092
0.000948527
0.0009328
0.000846504
0.000774944
0.000921513
0.00395568
0.0100981
0.0190249
0.0166903
0.0320091
0.0155676
0.0237272
0.0197855
0.0178768
0.0157061
0.0143009
0.0128939
0.0119029
0.0110203
0.0105909
0.0102569
0.0103033
0.00964111
0.0097221
0.0110952
0.0360185
0.096792
0.167509
0.0320773
0.0231898
0.0203425
0.0185418
0.0166606
0.0145356
0.0131893
0.0120296
0.0109224
0.00986324
0.00944835
0.00939961
0.00893912
0.00808103
0.00777537
0.00660248
0.0115986
0.0418285
0.0956814
0.154687
0.0156627
0.0149694
0.0154749
0.0131798
0.0120909
0.0111593
0.0106199
0.00977186
0.00898487
0.00846117
0.0081106
0.00780524
0.00743962
0.007401
0.00724637
0.00690293
0.0112706
0.0390294
0.0949465
0.151531
0.0130546
0.0118667
0.010166
0.00962676
0.00949556
0.00902751
0.00851925
0.00821094
0.00803273
0.00760354
0.00721173
0.00670843
0.00655226
0.00599739
0.00603127
0.00514492
0.0094294
0.0410114
0.0951008
0.140847
0.00674726
0.00722669
0.00827377
0.00814244
0.00733358
0.00700201
0.00678756
0.00643561
0.00600302
0.0058119
0.0057692
0.0058341
0.00561182
0.00550718
0.00537666
0.00468255
0.00999795
0.038075
0.0949847
0.13912
0.00581035
0.00644691
0.00594574
0.00547908
0.00535662
0.00535378
0.00526274
0.00536773
0.0055245
0.00543801
0.00514596
0.00483384
0.00474798
0.00459893
0.00444134
0.00365439
0.00734142
0.0357638
0.0957617
0.134641
0.00333085
0.00367877
0.00408319
0.00462954
0.00460535
0.00448301
0.00442855
0.00428697
0.00405353
0.00407646
0.00418502
0.00444319
0.00434993
0.00427278
0.00418423
0.0032831
0.00500974
0.0327717
0.096208
0.133254
0.00295621
0.00328845
0.00345244
0.00336168
0.00314625
0.00323382
0.00329825
0.0034752
0.00373446
0.00395575
0.00380301
0.00364211
0.0036607
0.00374986
0.00372493
0.00300919
0.00613422
0.0282893
0.0961675
0.133971
0.00165068
0.00206024
0.00223432
0.00250859
0.00269909
0.00289534
0.00310055
0.00319088
0.00297592
0.00300715
0.00320261
0.00360637
0.00359138
0.0036799
0.00362795
0.00296544
0.00212457
0.0237667
0.0964985
0.137408
0.00149111
0.00175998
0.00187632
0.00202022
0.00199025
0.00203035
0.00207797
0.00239776
0.00276694
0.00306799
0.00301964
0.00297718
0.00306195
0.00335192
0.0034749
0.00327393
0.00357931
0.017708
0.0943247
0.14375
0.000953738
0.00115391
0.00129471
0.00151646
0.00170262
0.00194861
0.00214326
0.00232001
0.00226704
0.00242758
0.00270607
0.00319486
0.00322472
0.0034586
0.00347145
0.00344096
0.00218166
0.0133512
0.0912547
0.152775
0.000822192
0.000992874
0.00111328
0.00121801
0.00126965
0.00145301
0.00152224
0.00174448
0.002044
0.00238498
0.00241774
0.00255126
0.00279317
0.00319926
0.00345796
0.00388376
0.0025968
0.00720515
0.0752876
0.164577
0.000574946
0.000728825
0.000870222
0.00106276
0.00118873
0.00135534
0.00155672
0.00174375
0.00173282
0.00191187
0.00221683
0.00266681
0.00278888
0.00313334
0.00332126
0.00406774
0.00359406
0.00600607
0.0583441
0.178209
0.00053386
0.000660939
0.000705286
0.000825392
0.000900701
0.00106774
0.00111583
0.00133632
0.001547
0.00174996
0.00183067
0.00207057
0.0024256
0.00274892
0.00323414
0.00351806
0.00442136
0.00672292
0.0415947
0.187061
0.000479949
0.00059493
0.000660952
0.000778449
0.000829463
0.000964445
0.00106285
0.00122235
0.00125151
0.00151284
0.00165505
0.00191187
0.0019779
0.00229797
0.00254835
0.00288731
0.00375085
0.00709155
0.0191834
0.132015
0.000410278
0.000468934
0.000520324
0.00059962
0.000657929
0.000756504
0.000824368
0.000954452
0.0010642
0.00124525
0.00133696
0.00158861
0.00171547
0.00212288
0.0021568
0.00289811
0.00245017
0.00401508
0.00777236
0.0810447
0.000370113
0.000420819
0.000448762
0.000514691
0.00055498
0.000636799
0.000668283
0.000750228
0.000828417
0.000937939
0.000925382
0.00106542
0.00114303
0.00143811
0.00143353
0.00207589
0.00178051
0.00289268
0.00223279
0.0394386
0.000262093
0.00029236
0.000324174
0.000361032
0.000408939
0.000452426
0.000557674
0.000620673
0.000599209
0.00065503
0.000770951
0.000949788
0.000920612
0.0010756
0.000991754
0.00111808
0.000881138
0.00176004
0.00316946
0.0151827
0.000203557
0.000238291
0.000258503
0.000297317
0.000314001
0.000371668
0.000325355
0.000378029
0.000468159
0.000533505
0.00051746
0.000545538
0.00062943
0.000642342
0.000849355
0.000724719
0.000860512
0.000550798
0.000850418
0.00514435
8.59633e-05
0.000107462
0.000124509
0.000145834
0.000170206
0.000224887
0.000309397
0.000366718
0.000330641
0.00043745
0.000450004
0.000556515
0.000535725
0.000661718
0.000635323
0.00074917
0.000668931
0.000701531
0.000652236
0.000976124
0.0138925
0.0139101
0.0138487
0.0138128
0.0137451
0.0136406
0.0135916
0.0137604
0.0130315
0.0131836
0.0123148
0.0123284
0.0120578
0.0110669
0.0109242
0.0100747
0.00990986
0.00894595
0.00922761
0.00793644
0.00700742
0.0070055
0.00695935
0.00695243
0.00681351
0.00683297
0.00675554
0.0066428
0.00664517
0.00641163
0.00669004
0.00772963
0.00696988
0.00675041
0.00629584
0.0067882
0.00661391
0.00690468
0.00669916
0.00743466
0.00434064
0.00435167
0.00437526
0.00439691
0.00445736
0.00451199
0.0044433
0.00459684
0.00450072
0.00460985
0.00462866
0.00426934
0.00406076
0.00413054
0.00400766
0.00419016
0.0038035
0.00395603
0.00350402
0.00379398
0.00277273
0.00276739
0.00275645
0.00274384
0.00274052
0.0026917
0.00270589
0.00267912
0.00265626
0.00260094
0.00243613
0.00262491
0.00271866
0.00288057
0.00282614
0.00290205
0.00271003
0.00296674
0.00272271
0.00300686
0.00175311
0.0017518
0.00175181
0.00174827
0.00175262
0.00175722
0.00176574
0.00179653
0.00178904
0.00184329
0.00198692
0.00196616
0.0018497
0.00186347
0.00183293
0.00190139
0.00181171
0.00189254
0.00176348
0.00176426
0.0012613
0.00125921
0.00125834
0.00125442
0.00125885
0.00125636
0.00126354
0.001267
0.00125418
0.0012657
0.00122589
0.00122137
0.00124738
0.00132709
0.00132761
0.00138559
0.00131277
0.00140303
0.00131874
0.00128798
0.000783281
0.000783252
0.00078284
0.000783632
0.000786793
0.000790436
0.000796868
0.00080235
0.000800698
0.000801954
0.000810741
0.000831942
0.000860104
0.000898971
0.000895493
0.000917795
0.000868157
0.0009084
0.000850046
0.000735136
0.000573194
0.000574299
0.000574841
0.000577645
0.000582273
0.000587453
0.000591386
0.000597059
0.000595058
0.000598276
0.000599819
0.000612175
0.00063268
0.000674797
0.000654672
0.000671858
0.000645088
0.000686707
0.000611951
0.000512749
0.000325275
0.000325268
0.000325155
0.000327583
0.000332208
0.000335147
0.000338679
0.000343195
0.000339793
0.000344514
0.000346029
0.000366544
0.000397938
0.000458586
0.000424285
0.000471212
0.000432026
0.000535877
0.000365315
0.000270553
0.000219247
0.000218883
0.000219825
0.000225556
0.000231057
0.000233807
0.000236468
0.00023724
0.000235032
0.000244747
0.000245769
0.000263517
0.000278794
0.000292013
0.000260808
0.000262734
0.000240796
0.000222669
0.000354898
0.000393743
8.2068e-05
8.21074e-05
8.50392e-05
9.21936e-05
9.93537e-05
0.00010693
0.00011382
0.000113144
0.000121445
0.000138537
0.000146536
0.000177274
0.000188863
0.000199623
0.000172208
0.000181481
0.00017158
0.000170978
0.000157107
9.99555e-05
2.0939e-05
2.37059e-05
3.28468e-05
4.57115e-05
5.3162e-05
6.1569e-05
5.93473e-05
5.71681e-05
7.75382e-05
9.00674e-05
0.000102078
0.000106861
0.000109861
0.000126457
0.00012546
0.000138824
0.000128447
0.000134991
0.00017174
0.000195212
9.9962e-06
1.33915e-05
2.62142e-05
3.5337e-05
4.40217e-05
5.69857e-05
4.70075e-05
5.1185e-05
6.2419e-05
5.60668e-05
5.63808e-05
6.20097e-05
6.59124e-05
7.35665e-05
7.76114e-05
8.63019e-05
8.7496e-05
0.000114929
9.88557e-05
0.000107525
4.99922e-05
5.18137e-05
5.56757e-05
5.8163e-05
6.08918e-05
6.44831e-05
6.55431e-05
6.60723e-05
6.50464e-05
6.32354e-05
6.25038e-05
6.01021e-05
6.24379e-05
8.18397e-05
8.72801e-05
0.000100852
0.000103221
8.8011e-05
0.00010445
9.0271e-05
5.96198e-05
5.78677e-05
5.84464e-05
5.8681e-05
6.12277e-05
6.95532e-05
7.63334e-05
7.24617e-05
7.30903e-05
7.39931e-05
7.56631e-05
7.57558e-05
7.80812e-05
7.25652e-05
7.91157e-05
7.99077e-05
8.95903e-05
9.80048e-05
0.000102756
0.000110874
7.50373e-05
7.58188e-05
7.30279e-05
7.2535e-05
7.2819e-05
7.4934e-05
7.66249e-05
7.83984e-05
7.51719e-05
7.90829e-05
7.95416e-05
8.255e-05
9.15572e-05
9.53494e-05
9.06458e-05
8.63808e-05
9.03885e-05
8.45637e-05
9.26711e-05
9.35593e-05
5.6542e-05
5.52772e-05
5.754e-05
5.81572e-05
5.82385e-05
5.65731e-05
6.08783e-05
6.79885e-05
6.52038e-05
6.31749e-05
6.76279e-05
6.96106e-05
7.5063e-05
7.68285e-05
7.76874e-05
7.52999e-05
7.91993e-05
8.01617e-05
8.30476e-05
8.75637e-05
4.17393e-05
4.08172e-05
4.02479e-05
4.1593e-05
4.12628e-05
4.47592e-05
5.11243e-05
5.42789e-05
5.36941e-05
5.51754e-05
5.69767e-05
5.76118e-05
5.72745e-05
5.3743e-05
5.54335e-05
5.22649e-05
5.58815e-05
5.43088e-05
5.92573e-05
5.9315e-05
3.04031e-05
2.939e-05
2.97691e-05
2.96721e-05
2.9841e-05
3.01491e-05
2.8682e-05
2.55366e-05
2.50969e-05
2.59171e-05
2.68623e-05
2.80075e-05
3.15426e-05
3.23319e-05
3.63591e-05
3.93172e-05
4.2846e-05
4.31521e-05
4.41121e-05
4.95391e-05
1.45681e-05
1.40467e-05
1.21662e-05
1.19741e-05
1.09189e-05
1.10508e-05
1.02085e-05
9.82071e-06
7.12447e-06
8.74513e-06
8.71514e-06
8.7519e-06
9.68716e-06
1.03921e-05
1.19757e-05
1.29263e-05
1.46833e-05
1.49079e-05
1.7501e-05
2.13678e-05
0.000943105
0.00113688
0.000800954
0.00086222
0.000902162
0.000912154
0.000938488
0.000956815
0.000991655
0.00102596
0.0010725
0.00109833
0.00115851
0.00118146
0.00127813
0.00131852
0.00127196
0.0020253
0.00689619
0.0179839
0.000912571
0.000988077
0.000731639
0.000816364
0.000884531
0.000903564
0.000938786
0.000975453
0.00101179
0.00104791
0.00108176
0.00112551
0.00118438
0.00119514
0.0012479
0.00126628
0.00131039
0.00147193
0.00575917
0.017677
0.000937557
0.00108461
0.000798739
0.000857722
0.000916083
0.000932524
0.00096484
0.000995637
0.00102907
0.00106257
0.00110981
0.00114382
0.00119754
0.00121439
0.00131865
0.00132596
0.00139845
0.00125917
0.00493385
0.0173549
0.00101973
0.00111404
0.000808252
0.000875111
0.000919047
0.000939081
0.000971955
0.00100465
0.00103915
0.00107854
0.00111097
0.00115737
0.00120803
0.00123001
0.00129032
0.00128154
0.00141049
0.00117957
0.00396442
0.0169458
0.00100254
0.00112748
0.000845217
0.000885467
0.000942946
0.000974772
0.00099982
0.00103607
0.00106977
0.00110317
0.0011499
0.00118973
0.0012339
0.00125433
0.00134752
0.00135669
0.00147208
0.00126505
0.00384407
0.0164455
0.00107695
0.00116134
0.000855694
0.000923366
0.000985241
0.000991705
0.00101526
0.00104894
0.00107337
0.0011158
0.00114643
0.00119516
0.00123396
0.00127559
0.00134268
0.00134554
0.00148992
0.00132448
0.004787
0.0158334
0.00105415
0.00110697
0.000852474
0.000940002
0.000971223
0.000992474
0.00102432
0.0010598
0.00109359
0.00113406
0.00118081
0.00122173
0.00126093
0.00130522
0.00138305
0.00141353
0.00154011
0.00141742
0.0043937
0.0153083
0.00106523
0.00111728
0.000913948
0.000966643
0.00100748
0.00102977
0.00104917
0.00108048
0.00110383
0.00115418
0.00117376
0.0012202
0.00125565
0.0013157
0.00137307
0.00139698
0.00152745
0.00140994
0.00401055
0.0142884
0.00102425
0.00109594
0.000899231
0.000942907
0.000977572
0.000990512
0.00101823
0.00105603
0.00110284
0.00113953
0.00117297
0.00122069
0.00126518
0.00133573
0.00137384
0.00143951
0.00154083
0.00146308
0.00326723
0.0130536
0.00105824
0.0010783
0.000904626
0.000949861
0.000989152
0.00102442
0.00106272
0.00111095
0.00113049
0.00115903
0.00117231
0.00123329
0.00128299
0.001326
0.00135496
0.00142281
0.00144915
0.00147049
0.0025949
0.0105771
0.000976486
0.00100468
0.000888751
0.000943501
0.000996908
0.00102469
0.0010515
0.00105949
0.00107637
0.00109631
0.00115469
0.00124125
0.00126109
0.00131119
0.00134641
0.00140879
0.00146669
0.0015391
0.00220113
0.00870162
0.00102455
0.0010647
0.000956109
0.000993756
0.00101258
0.00102449
0.00102354
0.00105673
0.00108607
0.00115973
0.00124021
0.00127231
0.00127634
0.00131732
0.00133309
0.00142211
0.00144169
0.00148164
0.00186408
0.00691126
0.000982301
0.000983933
0.000882434
0.000905328
0.000945092
0.000959209
0.00101155
0.00106359
0.00112692
0.00119906
0.0012102
0.00121938
0.00122747
0.00128319
0.00134903
0.00142978
0.00143403
0.00153
0.00171813
0.00590126
0.000912516
0.000931729
0.000888146
0.000950113
0.00100262
0.00105399
0.00110853
0.00114456
0.00118782
0.00118877
0.00119006
0.00121289
0.00124422
0.00134307
0.00136912
0.00142145
0.00144479
0.00151251
0.00160383
0.0049144
0.000987686
0.00103522
0.000986278
0.00102834
0.00105393
0.00107522
0.00107776
0.00109147
0.00109483
0.0011009
0.00114443
0.00118187
0.00127159
0.00133257
0.00134941
0.001454
0.00142675
0.00150976
0.0015723
0.00450473
0.000951974
0.000978102
0.000921594
0.000954954
0.000978216
0.00099401
0.00101613
0.00105583
0.00108912
0.00115665
0.00120952
0.00128057
0.00134618
0.00135909
0.00141941
0.00142259
0.00141313
0.00155477
0.00164352
0.00432462
0.000942958
0.00097395
0.000943965
0.000986599
0.00102291
0.0010521
0.00109382
0.00113219
0.00117604
0.00121648
0.00124258
0.00128193
0.00127993
0.00130149
0.00131128
0.00131403
0.0013897
0.00147108
0.00157652
0.00362056
0.000927194
0.000967181
0.00092921
0.000974723
0.00100871
0.00103182
0.0010631
0.00108667
0.00111878
0.00113413
0.00116848
0.00118641
0.00122061
0.00126636
0.00131953
0.00141178
0.00152569
0.001609
0.00173842
0.0036505
0.000920061
0.000963294
0.000934707
0.000983591
0.00101468
0.00104222
0.00107056
0.00110563
0.00113638
0.00117752
0.00121977
0.00126921
0.00133199
0.0013926
0.00147922
0.00154214
0.00161901
0.00154239
0.00148668
0.00234493
0.000924371
0.000969421
0.000936334
0.000987743
0.00101581
0.00104476
0.00106946
0.00110697
0.00113211
0.00117539
0.00120086
0.00125257
0.0012767
0.00134192
0.00136914
0.00143995
0.00146562
0.0014797
0.0015782
0.00204628
0.000253202
0.000163712
0.000205285
0.000236067
0.000209354
0.000130015
0.000139958
0.000268925
0.000222618
0.000122884
7.19593e-05
0.000446755
0.00159614
0.00418479
0.00830377
0.0107252
0.00805517
0.00360591
0.00012083
0.000862613
0.000290861
0.000231054
0.000204485
0.000191941
0.000240775
0.000221868
0.000178135
0.000192378
0.000274496
0.000235022
0.000138068
9.63331e-05
0.000547241
0.00207443
0.00540897
0.00949522
0.0104168
0.00639695
0.00166319
6.18561e-23
0.00028146
0.000269433
0.00029416
0.000216553
0.000201786
0.000227845
0.000248701
0.000198014
0.000234474
0.000293342
0.000248764
0.000137216
9.08006e-05
0.000794788
0.00305409
0.00722844
0.0108278
0.00886144
0.00391226
0.00032044
0.000309208
0.000238987
0.000291717
0.00029284
0.000264566
0.000225873
0.000245146
0.000251251
0.000243532
0.000271138
0.000324302
0.000259521
9.62425e-05
0.000107015
0.00139435
0.00499435
0.00954959
0.0106449
0.00666223
0.000734807
0.000349067
0.000294658
0.000288179
0.000278357
0.000295787
0.000273858
0.000286171
0.000246756
0.000281332
0.000277814
0.000321008
0.000347242
0.000264704
0.000143179
0.000399267
0.0027345
0.00780166
0.011299
0.00864541
0.00244765
0.00036915
0.000334796
0.000358689
0.00032629
0.000333347
0.000285683
0.000323402
0.000317905
0.000292313
0.000319421
0.000333525
0.000373702
0.000350878
0.000250994
0.0001611
0.00124236
0.00590674
0.0110346
0.00996476
0.00253578
0.00040135
0.000364494
0.000362637
0.000332016
0.000380777
0.000340971
0.000342103
0.000333596
0.000360124
0.000344539
0.000384773
0.000411606
0.000414855
0.000373389
0.000184861
0.000318709
0.00369217
0.0098668
0.0111566
0.0048997
0.000428285
0.00042703
0.000451011
0.000372903
0.000413365
0.000378247
0.000410352
0.000401786
0.000382069
0.000412648
0.000423483
0.000463647
0.00050575
0.000473824
0.000364386
0.000251576
0.00181766
0.00877007
0.0117118
0.00706386
0.00044285
0.000430865
0.000464989
0.000400173
0.000459927
0.000425523
0.000423412
0.000438203
0.000460173
0.000446195
0.000492027
0.000524742
0.000521236
0.000601634
0.000551644
0.000271147
0.000745366
0.007584
0.0119834
0.00951606
0.000476124
0.000484692
0.000539253
0.00044701
0.000493348
0.00048007
0.000504168
0.000499939
0.000492502
0.000524701
0.00053957
0.000594067
0.00062931
0.000634905
0.000627363
0.00042837
0.000412386
0.00554579
0.0118143
0.0120298
0.000502703
0.000492628
0.00055277
0.000484553
0.000537636
0.000519938
0.000517675
0.000543911
0.000567069
0.000560481
0.000607671
0.000642075
0.000661748