/*--------------------------------*- C++ -*----------------------------------*\
  =========                 |
  \\      /  F ield         | OpenFOAM: The Open Source CFD Toolbox
   \\    /   O peration     | Website:  https://openfoam.org
    \\  /    A nd           | Version:  9
     \\/     M anipulation  |
\*---------------------------------------------------------------------------*/
FoamFile
{
    format      ascii;
    class       volScalarField;
    location    "3.5";
    object      p;
}
// * * * * * * * * * * * * * * * * * * * * * * * * * * * * * * * * * * * * * //

dimensions      [0 2 -2 0 0 0 0];

internalField   nonuniform List<scalar> 
46400
(
-49.0787
-42.9952
-30.9935
-21.6728
-13.048
-5.15221
1.85847
8.31679
14.0855
19.405
24.2352
28.671
32.7759
36.5741
40.1429
43.515
46.6441
49.9298
53.32
54.2331
-25.5007
-19.5148
-8.69564
0.194883
8.08643
15.3741
21.8153
27.6924
32.9603
37.7421
42.0733
45.9938
49.5605
52.8085
55.77
58.4777
60.9203
63.3737
65.622
65.979
-1.00303
4.97998
14.4774
22.6582
29.7122
36.2863
42.0543
47.3221
51.9803
56.2203
60.0225
63.4514
66.5566
69.3536
71.8868
74.1536
76.1281
78.0808
79.6223
79.1408
23.769
28.7865
37.0672
44.7048
51.1134
57.0431
62.2098
66.8611
70.9705
74.6159
77.8773
80.7514
83.3151
85.5879
87.6115
89.4042
90.9513
92.476
93.7732
93.149
47.799
52.0944
59.827
66.8606
72.6689
77.9502
82.4905
86.5273
90.0248
93.1102
95.8095
98.1672
100.222
101.998
103.533
104.831
105.89
106.941
107.698
106.698
71.0814
75.6163
82.6772
88.9914
94.0556
98.6034
102.458
105.824
108.73
111.205
113.367
115.191
116.762
118.082
119.199
120.11
120.815
121.509
122.019
120.82
94.9821
99.9226
105.869
111.224
115.457
119.175
122.301
124.95
127.19
129.055
130.61
131.886
132.915
133.725
134.354
134.803
135.072
135.351
135.514
134.12
118.507
123.831
128.416
132.736
136.108
138.985
141.379
143.343
144.973
146.254
147.295
148.071
148.658
149.039
149.275
149.343
149.261
149.194
149.045
147.479
141.879
146.977
150.374
153.525
156.054
158.069
159.717
160.958
161.92
162.587
163.029
163.257
163.312
163.211
162.988
162.637
162.16
161.715
161.175
159.458
164.027
167.814
170.542
172.721
174.532
175.869
176.903
177.586
178.021
178.193
178.184
177.97
177.607
177.084
176.458
175.711
174.865
174.044
173.137
171.173
184.043
186.875
188.959
190.433
191.58
192.284
192.722
192.824
192.708
192.347
191.833
191.167
190.389
189.485
188.489
187.393
186.213
185.064
183.842
181.756
201.743
204.028
205.626
206.571
207.232
207.452
207.446
207.128
206.605
205.833
204.903
203.815
202.628
201.336
199.967
198.514
196.98
195.473
193.895
191.564
217.775
219.471
220.571
220.992
221.162
220.903
220.427
219.682
218.777
217.672
216.415
215.011
213.505
211.913
210.268
208.561
206.809
205.095
203.378
200.931
232.191
233.441
234.135
234.146
233.907
233.239
232.374
231.233
229.952
228.486
226.905
225.172
223.357
221.436
219.474
217.445
215.385
213.359
211.326
208.781
244.395
245.169
245.527
245.182
244.632
243.65
242.467
241.03
239.452
237.717
235.891
233.953
231.937
229.84
227.683
225.471
223.2
220.956
218.686
215.933
255.924
256.06
255.953
255.234
254.289
252.97
251.452
249.683
247.782
245.736
243.608
241.4
239.136
236.822
234.477
232.097
229.686
227.311
224.973
222.126
263.862
263.791
263.363
262.456
261.355
259.934
258.329
256.483
254.485
252.323
250.059
247.692
245.273
242.79
240.29
237.75
235.194
232.674
230.223
227.302
271.163
270.896
270.187
268.917
267.46
265.698
263.796
261.694
259.494
257.152
254.749
252.251
249.722
247.136
244.544
241.921
239.286
236.695
234.198
231.215
274.876
274.564
273.781
272.652
271.225
269.505
267.595
265.459
263.206
260.793
258.311
255.728
253.11
250.435
247.754
245.051
242.339
239.682
237.144
234.137
279.727
276.938
276.468
274.959
273.47
271.578
269.566
267.332
265.005
262.536
260.001
257.382
254.728
252.03
249.326
246.604
243.873
241.2
238.65
235.622
-158.144
-158.093
-157.681
-157.576
-157.171
-155.989
-154.564
-152.677
-150.869
-149.213
-147.634
-145.823
-143.892
-142.28
-140.648
-138.797
-137.143
-135.554
-133.985
-132.391
-159.167
-157.431
-158.035
-156.78
-156.54
-155.322
-153.308
-150.849
-148.712
-146.75
-144.644
-142.443
-140.464
-138.526
-136.564
-134.63
-132.808
-131.027
-129.342
-127.599
-158.903
-158.645
-158.878
-157.722
-155.573
-153.682
-151.45
-149.072
-146.71
-144.195
-141.791
-139.451
-137.22
-134.954
-132.793
-130.712
-128.684
-126.638
-124.702
-122.776
-159.123
-159.243
-158.785
-158.519
-155.481
-152.782
-149.891
-147.256
-144.379
-141.599
-138.913
-136.248
-133.713
-131.177
-128.798
-126.423
-124.153
-121.919
-119.835
-117.701
-160.346
-160.505
-159.081
-157.892
-155.438
-152.126
-148.99
-145.565
-142.381
-139.219
-136.163
-133.194
-130.348
-127.519
-124.898
-122.24
-119.78
-117.389
-115.137
-112.799
-162.622
-162.214
-161.945
-159.028
-155.466
-151.636
-147.678
-143.966
-140.216
-136.639
-133.173
-129.815
-126.601
-123.471
-120.54
-117.601
-114.931
-112.259
-109.823
-107.324
-166.799
-165.943
-164.917
-160.802
-156.387
-151.778
-147.045
-142.596
-138.279
-134.137
-130.19
-126.414
-122.815
-119.352
-116.119
-112.915
-110.024
-107.118
-104.537
-101.827
-174.109
-173.147
-169.901
-164.223
-157.818
-151.739
-146.17
-140.82
-135.783
-131.041
-126.563
-122.324
-118.315
-114.518
-110.956
-107.487
-104.388
-101.218
-98.5059
-95.6556
-179.244
-178.584
-172.8
-165.46
-158.031
-150.959
-144.405
-138.378
-132.691
-127.38
-122.419
-117.755
-113.374
-109.258
-105.4
-101.714
-98.3856
-95.005
-92.1825
-89.1314
-184.983
-182.858
-174.976
-165.922
-157.046
-149.034
-141.531
-134.723
-128.404
-122.543
-117.109
-112.035
-107.307
-102.897
-98.7736
-94.8846
-91.3653
-87.8211
-84.902
-81.7129
-184.897
-182.428
-173.29
-163.098
-153.614
-144.862
-136.846
-129.538
-122.771
-116.524
-110.751
-105.378
-100.389
-95.7529
-91.4252
-87.3978
-83.6997
-80.0416
-77.1392
-73.6227
-181.288
-179.618
-169.746
-158.65
-148.471
-139.159
-130.567
-122.809
-115.629
-109.015
-102.936
-97.2905
-92.0786
-87.2498
-82.765
-78.6123
-74.7783
-71.1194
-68.073
-64.5285
-177.095
-174.253
-163.33
-151.36
-140.751
-131.138
-122.245
-114.217
-106.829
-100.028
-93.7867
-88.0079
-82.6734
-77.7405
-73.1608
-68.9373
-65.0184
-61.3076
-58.1634
-54.5519
-169.158
-165.524
-154.055
-142.169
-131.071
-121.321
-112.204
-104.001
-96.4496
-89.501
-83.1477
-77.2654
-71.8631
-66.8741
-62.2634
-58.0267
-54.0812
-50.4234
-47.2736
-43.6166
-158.344
-153.956
-142.299
-130.579
-119.326
-109.44
-100.274
-91.9927
-84.4353
-77.4834
-71.1375
-65.2868
-59.9075
-54.9532
-50.3849
-46.1957
-42.2815
-38.7121
-35.6043
-31.9273
-145.401
-140.505
-128.495
-116.745
-105.486
-95.6597
-86.5589
-78.3546
-70.8631
-63.9763
-57.7074
-51.9203
-46.6239
-41.7464
-37.267
-33.1628
-29.3251
-25.8994
-22.843
-19.1509
-129.493
-124.467
-112.064
-100.482
-89.6395
-80.0556
-71.2175
-63.19
-55.917
-49.2148
-43.1207
-37.5201
-32.3793
-27.6642
-23.3478
-19.3915
-15.6933
-12.4839
-9.54959
-5.89231
-112.093
-106.641
-94.0753
-83.0138
-72.3125
-63.0196
-54.4713
-46.7109
-39.6788
-33.2143
-27.3446
-21.9461
-17.0135
-12.4898
-8.36684
-4.58413
-1.08046
1.87741
4.61677
8.11742
-92.5533
-86.847
-73.8404
-63.5113
-53.4949
-44.5773
-36.51
-29.1024
-22.4431
-16.2981
-10.7203
-5.60483
-0.905455
3.38775
7.30986
10.9366
14.2495
16.9772
19.5401
23.3891
-71.7422
-65.8204
-53.1838
-43.2259
-33.7621
-25.2857
-17.648
-10.6636
-4.35203
1.44948
6.73815
11.6087
16.0948
20.2423
24.089
27.7073
30.9889
34.0253
37.3197
41.2584
-125.711
-116.448
-109.004
-105.876
-101.916
-100.524
-97.791
-96.1186
-93.967
-92.0126
-90.1525
-88.0509
-86.3634
-84.2461
-82.6129
-80.6142
-78.698
-77.4387
-76.6134
-76.0202
-120.225
-111.917
-103.992
-101.232
-97.1594
-95.9196
-93.4198
-92.0859
-90.2757
-88.5888
-87.0099
-85.155
-83.7324
-81.8293
-80.4308
-78.6218
-76.9352
-75.7737
-75.0895
-74.5396
-114.844
-107.227
-98.8559
-96.5154
-92.4776
-91.5917
-89.3453
-88.1743
-86.6143
-85.164
-83.8609
-82.2379
-81.0552
-79.3648
-78.198
-76.5614
-75.1096
-74.1479
-73.5509
-72.9976
-109.093
-102.377
-93.7072
-91.8302
-87.7752
-87.0606
-85.0695
-84.2251
-83.0118
-81.8164
-80.784
-79.3983
-78.4711
-76.9889
-76.0546
-74.6046
-73.3694
-72.5038
-72.0525
-71.5436
-103.271
-97.3591
-88.441
-87.0565
-83.1346
-82.7736
-81.0864
-80.4021
-79.4395
-78.4669
-77.6994
-76.5316
-75.8392
-74.5646
-73.8574
-72.5752
-71.5804
-70.8905
-70.543
-70.0418
-97.1477
-92.154
-83.1771
-82.3033
-78.4818
-78.2946
-76.903
-76.5287
-75.9141
-75.1894
-74.6836
-73.75
-73.2985
-72.2297
-71.7501
-70.6479
-69.8815
-69.2616
-69.0848
-68.6168
-90.8798
-86.7537
-77.811
-77.4427
-73.879
-74.0259
-72.9951
-72.7838
-72.4189
-71.9109
-71.6592
-70.9359
-70.7089
-69.8391
-69.5835
-68.6483
-68.1386
-67.6561
-67.5966
-67.154
-84.3051
-81.1175
-72.4399
-72.5965
-69.2594
-69.5997
-68.8867
-68.9825
-68.9689
-68.6974
-68.6983
-68.2038
-68.2101
-67.536
-67.5063
-66.7465
-66.4885
-66.0403
-66.199
-65.7588
-77.5502
-75.3052
-66.9072
-67.6698
-64.6848
-65.3474
-65.0298
-65.3034
-65.5405
-65.4836
-65.7267
-65.44
-65.6546
-65.1781
-65.3691
-64.774
-64.8003
-64.4397
-64.7566
-64.3334
-70.3482
-69.3186
-61.4014
-62.7089
-60.1097
-60.9404
-61.0043
-61.5722
-62.1569
-62.3338
-62.817
-62.7505
-63.1886
-62.9048
-63.3162
-62.8961
-63.2102
-62.8246
-63.4078
-62.9676
-62.9977
-63.0233
-55.8117
-57.6222
-55.5674
-56.6906
-57.1881
-57.9531
-58.7932
-59.1848
-59.8963
-60.0307
-60.6674
-60.5787
-61.2016
-60.9498
-61.5622
-61.2572
-62.0186
-61.5776
-55.2259
-56.4377
-50.1687
-52.5409
-51.0162
-52.3086
-53.223
-54.2914
-55.47
-56.0956
-57.0342
-57.3826
-58.2325
-58.331
-59.1672
-59.0915
-59.9731
-59.7145
-60.7205
-60.24
-47.0871
-49.6759
-44.411
-47.342
-46.4908
-48.0611
-49.4278
-50.726
-52.1663
-53.01
-54.163
-54.7066
-55.7445
-56.0326
-57.0704
-57.1663
-58.3216
-58.191
-59.3661
-58.8809
-38.2647
-42.6921
-38.6058
-42.1621
-41.9601
-43.7063
-45.5085
-47.1334
-48.9048
-49.9842
-51.3496
-52.0986
-53.3389
-53.8083
-55.0498
-55.3224
-56.7296
-56.6984
-58.1431
-57.5698
-28.8609
-35.5176
-32.6971
-36.8782
-37.4701
-39.4824
-41.7358
-43.6334
-45.6737
-46.9753
-48.5397
-49.4753
-50.8929
-51.5441
-52.9777
-53.4251
-55.0789
-55.233
-56.9505
-56.2274
-18.534
-27.9173
-26.6619
-31.5486
-32.9172
-35.1217
-37.8097
-40.0746
-42.4489
-43.9936
-45.7594
-46.8942
-48.5054
-49.3321
-50.9616
-51.5862
-53.4763
-53.7634
-55.8279
-54.9612
-8.07725
-20.2886
-20.5863
-26.1215
-28.3858
-30.8544
-33.9776
-36.5633
-39.2254
-41.0003
-42.9526
-44.2707
-46.0539
-47.0499
-48.8582
-49.6431
-51.7891
-52.1802
-54.5297
-53.6019
2.54359
-13.0201
-14.9265
-21.0299
-24.1109
-26.7668
-30.2817
-33.2587
-36.2404
-38.2376
-40.3476
-41.8262
-43.7765
-44.9308
-46.9116
-47.8659
-50.165
-50.7502
-53.482
-52.2298
17.8634
-4.02371
-8.66018
-15.7854
-19.8966
-22.7805
-26.6365
-30.0327
-33.322
-35.5657
-37.8415
-39.4704
-41.5804
-42.9152
-45.0857
-46.2688
-48.6906
-49.6194
-52.9562
-51.3203
35.5207
8.17168
-0.43715
-8.7019
-13.9368
-17.2118
-21.462
-25.3928
-29.1849
-31.8347
-34.4276
-36.3625
-38.7164
-40.2418
-42.6315
-43.9696
-47.2566
-48.1521
-52.1563
-49.6288
60.577
54.9034
38.5941
30.0513
19.0371
11.7774
4.81167
-0.0598183
-5.38609
-9.98413
-14.3582
-17.7521
-21.0276
-23.0035
-26.0276
-26.8939
-31.5523
-32.6292
-37.6241
-32.9973
97.9053
85.1102
65.6294
54.1085
41.9719
32.4652
23.6451
16.3832
10.619
5.6689
1.3465
-2.81848
-6.531
-10.3908
-13.5606
-17.1401
-19.365
-22.1447
-23.2915
-23.5698
100.226
87.2338
75.1848
65.1287
55.9109
47.7551
40.4412
33.6567
27.4563
22.1404
17.587
13.8067
10.3144
7.61911
4.95359
2.93778
0.841442
-0.907479
-1.75543
-2.05272
100.129
91.7545
83.0335
73.7792
65.8051
57.8884
51.0446
44.7723
39.3893
34.1635
29.4099
24.9012
21.0827
17.2442
14.191
11.0752
8.74109
6.40631
5.31495
4.99866
92.1516
84.8511
78.4535
72.0896
66.5592
60.8774
55.7394
50.7588
46.199
42.0322
38.168
34.7204
31.4999
28.702
26.115
23.7991
21.8646
19.8859
18.6185
18.3092
89.0441
84.3518
80.6436
75.4381
70.7015
65.8376
61.3044
56.8544
52.7069
48.7183
44.9888
41.4637
38.1909
35.137
32.3382
29.8185
27.4981
25.6699
24.2867
23.8514
82.7316
79.3332
75.8445
72.2569
68.914
65.5275
62.1874
58.9711
55.7565
52.8034
49.8005
47.1242
44.3989
41.9698
39.5776
37.2862
35.2364
33.0136
31.7172
31.4842
81.5499
79.024
77.0581
74.2902
71.2838
68.2693
65.4712
62.6091
59.7886
57.0492
54.2994
51.7368
49.1062
46.731
44.2723
42.089
39.9335
37.8721
36.4901
35.919
78.0964
76.0729
74.138
72.1348
70.4106
68.4247
66.2155
64.1551
61.8893
59.8775
57.5931
55.6364
53.3361
51.4353
49.1202
47.1671
44.8399
42.8302
41.0437
40.3493
77.8201
76.7746
75.4798
74.026
72.2759
70.4236
68.5995
66.8404
64.9823
63.2038
61.2324
59.4625
57.3798
55.6064
53.3575
51.542
49.013
47.126
44.7964
44.1348
76.9325
75.7606
74.6776
73.6372
72.5908
71.5204
70.1912
68.9143
67.4215
66.1378
64.5603
63.2532
61.5446
60.1885
58.2298
56.7697
54.264
52.7751
49.9917
49.3477
77.5035
76.9015
76.1758
75.3172
74.2943
73.3493
72.3126
71.3438
70.2876
69.2868
68.14
67.1043
65.816
64.7143
63.1915
62.0039
59.8732
58.749
55.3518
55.1989
77.6871
77.1889
76.6707
76.2011
75.6258
75.1101
74.4365
73.8723
73.1271
72.5939
71.873
71.3638
70.6619
70.1775
69.366
68.9044
67.4801
67.622
64.8182
66.8058
78.6074
78.3366
77.8972
77.5768
77.1399
76.8483
76.4552
76.2212
75.8932
75.7129
75.4927
75.3976
75.3568
75.3686
75.5931
75.6937
76.2231
76.3225
78.0994
80.011
79.3243
79.2043
78.9855
78.8802
78.6769
78.6172
78.4456
78.4839
78.3854
78.5773
78.6071
78.9941
79.2584
79.8714
80.5767
81.3655
82.9789
83.7486
87.1857
88.0467
80.1496
80.1011
80.0071
80.012
79.9903
80.0847
80.1545
80.3714
80.5614
80.9736
81.3138
82.0117
82.5488
83.7006
84.4672
86.3669
87.4142
90.456
92.1983
94.6449
80.8494
80.8887
80.8943
81.0101
81.0881
81.3128
81.4759
81.8627
82.1451
82.7242
83.1349
84.0287
84.6964
86.0335
86.8203
89.0264
89.6396
93.9127
94.9802
101.582
81.4701
81.5566
81.667
81.8286
82.0219
82.2904
82.5997
82.9816
83.4025
83.9899
84.5787
85.3956
86.0298
87.1056
87.8384
89.3902
90.0922
95.8862
95.4848
100.926
81.9265
82.0394
82.1654
82.347
82.5522
82.8562
83.1524
83.6008
84.0568
84.6729
85.253
86.0319
86.7794
87.7687
88.6677
89.8532
90.8132
92.0575
92.6252
94.6074
82.0668
82.184
82.3289
82.5385
82.8071
83.1123
83.5116
83.9568
84.4578
85.0346
85.6805
86.4365
87.1877
88.1462
88.9635
90.1668
90.9389
92.557
93.0542
101.188
200.172
199.336
197.736
195.81
192.903
189.804
185.624
181.244
176.055
170.365
163.949
157.154
149.366
140.915
132.724
123.641
114.512
104.776
95.3346
85.2989
171.267
170.778
169.987
168.936
167.566
165.999
164.024
161.991
159.396
156.866
153.963
150.846
146.13
141.795
138.003
134.377
130.201
126.001
121.398
116.603
133.888
133.593
133.193
132.682
132.051
131.314
130.473
129.514
128.449
127.322
125.99
124.661
123.093
121.598
119.649
117.923
115.762
113.828
111.427
109.523
121.626
121.425
121.151
120.826
120.411
119.965
119.378
118.808
118.053
117.319
116.42
115.541
114.481
113.493
112.298
111.218
109.87
108.713
107.213
106.094
103.326
103.171
102.991
102.764
102.52
102.22
101.91
101.549
101.159
100.752
100.274
99.8355
99.3036
98.8335
98.2121
97.7009
97.0075
96.4737
95.6853
95.1752
97.4897
97.3672
97.2213
97.0613
96.8689
96.6715
96.4321
96.196
95.9094
95.6272
95.2967
94.9534
94.5373
94.1509
93.6821
93.2733
92.7386
92.3071
91.6921
91.2897
89.046
88.9453
88.8307
88.6965
88.5498
88.3838
88.2046
88.009
87.7919
87.568
87.3125
87.058
86.7696
86.491
86.1634
85.8541
85.4767
85.1299
84.6915
84.3148
86.1724
86.0839
85.9838
85.8746
85.7493
85.6198
85.4698
85.32
85.1448
84.9756
84.7742
84.5865
84.3564
84.1507
83.8931
83.6688
83.3853
83.1394
82.8231
82.5421
82.5701
82.4959
82.4122
82.3162
82.2103
82.0935
81.9642
81.8284
81.6756
81.5228
81.3453
81.1786
80.9763
80.794
80.5487
80.3406
80.0334
79.7821
79.3129
78.8518
81.1283
81.0622
80.9891
80.9095
80.821
80.7286
80.6247
80.521
80.4003
80.2878
80.1502
80.0303
79.8775
79.7366
79.5645
79.4081
79.2354
79.0546
78.8752
78.6508
80.1553
80.0979
80.0301
79.954
79.8692
79.7753
79.6755
79.5647
79.4501
79.3294
79.2015
79.0699
78.8996
78.7092
78.4934
78.3011
78.0852
77.8857
77.6804
77.4816
79.5921
79.532
79.4681
79.3982
79.3258
79.25
79.1723
79.0955
79.0199
78.9438
78.8653
78.777
78.6845
78.5837
78.4719
78.3581
78.231
78.1116
77.9509
77.8109
79.6741
79.6178
79.5596
79.4981
79.4369
79.3747
79.3163
79.2597
79.1984
79.1211
79.0355
78.9495
78.8569
78.7569
78.6481
78.5344
78.4023
78.2718
78.1003
77.9487
80.0214
79.9827
79.9409
79.897
79.8499
79.8007
79.7484
79.694
79.6381
79.5798
79.5208
79.457
79.3907
79.3228
79.2511
79.1779
79.1002
79.0206
78.9497
78.8527
80.3366
80.3036
80.269
80.2331
80.1959
80.1571
80.1173
80.0757
80.0333
79.9888
79.9441
79.8966
79.8497
79.7986
79.7493
79.6952
79.6427
79.5875
79.5329
79.4759
80.8628
80.8341
80.8044
80.7748
80.7441
80.7136
80.6819
80.6506
80.6181
80.5861
80.5528
80.5202
80.4863
80.4523
80.418
80.3822
80.3485
80.3105
80.2769
80.2373
81.2773
81.25
81.2239
81.1981
81.1736
81.1496
81.127
81.1045
81.0837
81.0626
81.0432
81.023
81.0036
80.9848
80.9667
80.9492
80.9323
80.9157
80.9004
80.8849
81.6663
81.6433
81.6204
81.5993
81.5789
81.5602
81.5422
81.526
81.5103
81.496
81.4827
81.4709
81.4625
81.4552
81.4507
81.4478
81.4485
81.4479
81.4516
81.4534
81.9728
81.9502
81.9295
81.9098
81.8919
81.8761
81.8625
81.8511
81.8424
81.8362
81.833
81.8323
81.8341
81.8374
81.8443
81.8509
81.8606
81.8707
81.8842
81.8989
82.1172
82.095
82.0737
82.055
82.0372
82.0212
82.006
81.9928
81.9811
81.9713
81.9641
81.9605
81.9606
81.9633
81.969
81.9766
81.9874
81.9998
82.0164
82.0326
68.1567
67.1309
63.7444
60.5299
57.4302
54.0812
50.5305
46.7402
42.638
38.1883
33.3368
28.0022
22.1986
15.6875
8.65574
0.714143
-7.9936
-17.3263
-29.4598
-35.5201
79.1403
78.7508
76.5046
74.0759
71.6354
68.9205
65.9469
62.6789
59.0955
55.1445
50.7885
45.9733
40.6515
34.7361
28.2447
20.9038
12.9201
3.97128
-6.95178
-12.9007
91.3675
91.7734
90.227
88.3124
86.3568
84.1101
81.5909
78.8091
75.7122
72.2794
68.4717
64.2269
59.5558
54.2625
48.4947
41.8978
34.7941
26.6394
16.9634
10.8612
104.525
105.137
103.869
102.386
100.863
99.0843
97.0697
94.7928
92.2216
89.3279
86.0569
82.3923
78.2456
73.5817
68.4068
62.4604
56.0544
48.4616
40.1279
35.0165
117.405
118.357
117.605
116.572
115.516
114.226
112.69
110.916
108.858
106.493
103.788
100.686
97.173
93.1166
88.5672
83.2626
77.4432
70.4336
62.693
58.5282
130.798
131.934
131.431
130.749
130.049
129.136
128.018
126.692
125.107
123.262
121.081
118.576
115.627
112.23
108.345
103.748
98.6393
92.2848
85.1773
80.7796
143.373
144.717
144.558
144.292
144.026
143.58
142.95
142.135
141.096
139.808
138.238
136.341
134.07
131.38
128.207
124.408
120.103
114.688
108.55
103.878
156.064
157.563
157.71
157.776
157.852
157.774
157.529
157.135
156.532
155.732
154.658
153.334
151.647
149.625
147.162
144.181
140.725
136.245
131.396
126.315
167.248
168.928
169.484
169.947
170.434
170.795
171.027
171.128
171.066
170.822
170.36
169.664
168.669
167.39
165.682
163.594
160.99
157.701
154.201
149.054
178.344
180.262
181.166
181.996
182.844
183.591
184.209
184.718
185.058
185.25
185.232
185.026
184.541
183.802
182.702
181.291
179.399
177.104
174.273
170.316
188.222
190.272
191.504
192.666
193.857
194.954
195.951
196.851
197.629
198.292
198.794
199.133
199.224
199.101
198.637
197.913
196.733
195.226
193.085
190.207
197.413
199.711
201.287
202.801
204.33
205.777
207.138
208.422
209.599
210.67
211.568
212.3
212.784
213.066
213.04
212.772
212.064
211.051
209.392
207.079
206.143
208.528
210.227
211.936
213.685
215.388
217.036
218.626
220.132
221.527
222.776
223.878
224.784
225.542
226.007
226.26
226.058
225.607
224.469
222.742
213.239
215.732
217.801
219.853
221.935
223.971
225.945
227.858
229.665
231.372
232.939
234.377
235.648
236.749
237.568
238.166
238.326
238.247
237.481
236.195
219.66
222.394
224.681
226.939
229.213
231.424
233.581
235.674
237.694
239.641
241.484
243.234
244.824
246.252
247.423
248.369
248.904
249.245
248.879
248.08
225.334
228.137
230.478
232.861
235.274
237.658
240.01
242.331
244.605
246.815
248.943
250.965
252.826
254.527
255.971
257.21
258.111
258.801
258.893
258.745
229.575
232.439
234.932
237.482
240.065
242.623
245.151
247.646
250.082
252.445
254.711
256.854
258.85
260.68
262.305
263.742
264.882
265.792
266.188
266.237
233.032
235.99
238.524
241.138
243.794
246.43
249.039
251.628
254.166
256.654
259.059
261.379
263.583
265.645
267.559
269.235
270.689
271.743
272.391
272.346
234.938
237.92
240.521
243.22
245.949
248.673
251.367
254.057
256.691
259.297
261.808
264.263
266.563
268.766
270.717
272.479
273.842
274.865
275.425
275.573
235.95
238.971
241.592
244.315
247.08
249.832
252.563
255.286
257.959
260.6
263.151
265.641
267.981
270.225
272.217
274.1
275.583
276.968
277.72
278.38
-101.197
-102.835
-104.37
-105.915
-107.572
-109.366
-110.963
-112.5
-114.343
-116.185
-117.817
-119.495
-121.354
-123.309
-124.636
-126.064
-126.429
-126.174
-126.649
-126.605
-97.2877
-99.0466
-100.708
-102.439
-104.249
-106.181
-108.11
-110.034
-111.997
-114.154
-116.335
-118.36
-120.455
-122.742
-124.872
-126.768
-126.973
-127.873
-127.54
-127.879
-93.2948
-95.196
-97.1282
-99.1602
-101.162
-103.228
-105.36
-107.613
-109.836
-112.212
-114.617
-117.13
-119.526
-122.024
-124.485
-126.347
-128.189
-128.936
-128.601
-128.802
-89.1426
-91.2424
-93.3006
-95.5011
-97.7529
-100.105
-102.468
-105.002
-107.524
-110.178
-112.907
-115.688
-118.6
-121.298
-124.218
-126.958
-129.36
-129.222
-129.842
-129.56
-85.118
-87.3965
-89.6059
-91.9572
-94.377
-97.0036
-99.5943
-102.396
-105.219
-108.178
-111.198
-114.34
-117.527
-120.926
-123.992
-127.115
-129.766
-130.86
-131.881
-131.772
-80.4419
-82.8889
-85.2915
-87.9307
-90.5709
-93.4816
-96.3867
-99.4963
-102.683
-106.013
-109.463
-113.005
-116.704
-120.393
-124.37
-128.137
-131.371
-134.023
-134.321
-134.679
-75.7479
-78.4011
-80.9469
-83.8121
-86.6676
-89.8349
-93.0328
-96.4622
-100.024
-103.768
-107.668
-111.761
-116.046
-120.471
-125.103
-129.628
-134.165
-138.12
-138.9
-139.69
-70.2572
-73.082
-75.7869
-78.9422
-82.0308
-85.4827
-89.0269
-92.8092
-96.7923
-101.006
-105.459
-110.156
-115.163
-120.479
-125.993
-132.014
-138.255
-143.633
-146.693
-147.648
-64.5495
-67.5901
-70.4122
-73.7711
-77.0825
-80.744
-84.5711
-88.6619
-93.0073
-97.6379
-102.559
-107.821
-113.478
-119.472
-125.975
-132.997
-140.525
-147.592
-153.478
-154.41
-57.9608
-61.1222
-64.0474
-67.572
-71.0839
-74.9619
-79.0699
-83.4674
-88.1734
-93.224
-98.6332
-104.451
-110.736
-117.504
-124.941
-132.924
-141.645
-150.306
-158.906
-160.708
-50.7669
-54.2512
-57.1625
-60.7996
-64.4788
-68.4885
-72.7882
-77.4044
-82.3624
-87.702
-93.4394
-99.6347
-106.364
-113.633
-121.605
-130.293
-139.716
-149.784
-159.112
-161.541
-42.5616
-46.0563
-49.1003
-52.7446
-56.5644
-60.7076
-65.1808
-69.9997
-75.195
-80.8215
-86.8814
-93.456
-100.598
-108.31
-116.811
-126.004
-135.935
-146.743
-157.32
-159.653
-33.473
-37.0434
-40.1903
-43.8948
-47.8015
-52.0183
-56.582
-61.5108
-66.833
-72.6
-78.8346
-85.6137
-93.005
-101.049
-109.953
-119.546
-130.145
-142.327
-152.911
-155.438
-23.5023
-27.1085
-30.2347
-33.8781
-37.8045
-42.0307
-46.6337
-51.6184
-57.0141
-62.8923
-69.248
-76.1864
-83.741
-91.9616
-101.073
-110.833
-122.057
-133.919
-145.571
-149.315
-12.6063
-16.2403
-19.3528
-22.9276
-26.8395
-31.0361
-35.6045
-40.5721
-45.959
-51.8204
-58.1828
-65.1396
-72.7313
-81.0534
-90.2405
-100.161
-111.405
-123.14
-134.652
-138.867
-0.780424
-4.45238
-7.50028
-10.9235
-14.7519
-18.8548
-23.3364
-28.2196
-33.5199
-39.3161
-45.6056
-52.5096
-60.0341
-68.2863
-77.4372
-87.3147
-98.7128
-110.441
-122.428
-127.361
11.6406
8.0565
5.12478
1.89849
-1.79685
-5.76812
-10.0949
-14.8317
-19.9904
-25.6154
-31.7391
-38.4568
-45.775
-53.8526
-62.7133
-72.3485
-83.189
-94.8711
-107.247
-112.126
24.7002
21.2565
18.5223
15.5421
12.0362
8.24703
4.11269
-0.426467
-5.3705
-10.7876
-16.6849
-23.1787
-30.2548
-38.0597
-46.6662
-55.9918
-66.7752
-77.8981
-90.4355
-95.8645
39.2354
35.4505
32.8791
30.1305
26.8087
23.1612
19.2199
14.8991
10.1752
5.02509
-0.592639
-6.76397
-13.4748
-20.9437
-29.0429
-38.0114
-48.0624
-58.4951
-71.4442
-77.0268
56.4717
52.5572
49.139
46.0174
42.6724
39.0057
35.1178
30.9317
26.4179
21.5127
16.19
10.35
3.98392
-3.04741
-10.7515
-19.2695
-28.853
-38.9211
-51.4944
-57.2693
-56.7461
-57.2284
-57.8162
-58.645
-60.03
-61.3994
-62.4171
-63.7543
-64.6154
-65.7955
-66.6613
-67.579
-68.6617
-69.2499
-71.0183
-71.4596
-74.9962
-77.2753
-84.7039
-94.4216
-55.3293
-55.7507
-56.2081
-56.958
-58.1437
-59.3156
-60.1192
-61.2577
-61.903
-62.8816
-63.5209
-64.2315
-65.0532
-65.3885
-67.006
-67.389
-71.126
-73.1438
-81
-89.7741
-53.8594
-54.2859
-54.6588
-55.177
-56.1799
-57.1943
-57.7885
-58.747
-59.1805
-59.9696
-60.3935
-60.931
-61.5803
-61.8277
-63.2745
-63.4035
-67.0359
-68.8106
-77.1296
-85.2793
-52.471
-52.8479
-53.0799
-53.5422
-54.3375
-55.1585
-55.5377
-56.3056
-56.5261
-57.1237
-57.3253
-57.6651
-58.0415
-58.0435
-59.2906
-59.3356
-63.0631
-64.4661
-73.0347
-80.4031
-51.0405
-51.4269
-51.5536
-51.8106
-52.412
-53.0834
-53.2556
-53.8447
-53.8624
-54.2766
-54.2675
-54.4371
-54.6298
-54.5422
-55.5638
-55.3435
-58.8864
-59.9454
-68.8218
-75.5004
-49.6953
-50.0357
-50.0007
-50.2316
-50.6105
-51.0912
-51.0497
-51.4551
-51.2618
-51.4925
-51.2641
-51.2424
-51.1509
-50.8277
-51.5954
-51.2847
-54.7892
-55.4193
-64.3098
-70.0951
-48.3206
-48.6625
-48.4952
-48.5572
-48.7224
-49.0575
-48.8096
-49.0409
-48.6542
-48.7039
-48.2705
-48.0818
-47.7972
-47.3784
-47.8637
-47.289
-50.4897
-50.7517
-59.7293
-64.603
-47.0251
-47.3305
-46.9697
-47.0355
-46.9581
-47.1056
-46.6452
-46.698
-46.1027
-45.9735
-45.3312
-44.949
-44.3741
-43.7219
-43.9107
-43.2339
-46.2544
-46.0724
-54.7361
-58.5096
-45.7103
-46.0197
-45.4842
-45.427
-45.1074
-45.1075
-44.4417
-44.3229
-43.5445
-43.24
-42.3986
-41.8526
-41.0744
-40.3143
-40.168
-39.2318
-41.8684
-41.199
-49.7558
-52.6818
-44.4711
-44.7585
-43.9701
-43.9803
-43.3808
-43.1855
-42.3147
-42.0206
-41.0414
-40.5617
-39.519
-38.7766
-37.7053
-36.7114
-36.2163
-35.1945
-37.4834
-36.3608
-44.4065
-46.3675
-43.221
-43.4871
-42.5272
-42.4264
-41.5696
-41.2142
-40.1431
-39.6823
-38.5298
-37.8808
-36.6475
-35.7396
-34.4584
-33.3332
-32.4575
-31.1918
-32.9119
-31.3957
-38.8982
-39.8688
-42.0443
-42.3227
-41.1078
-40.985
-39.8765
-39.3147
-38.0471
-37.4156
-36.0718
-35.2519
-33.8253
-32.7178
-31.1453
-29.7699
-28.5126
-27.1505
-28.3719
-26.4014
-32.9629
-32.9261
-40.8629
-41.1055
-39.7344
-39.444
-38.1014
-37.3617
-35.9015
-35.1102
-33.6027
-32.6204
-31.0132
-29.7339
-27.9466
-26.4039
-24.7388
-23.1305
-23.6703
-21.242
-26.9472
-25.6136
-39.7545
-40.046
-38.3741
-38.0107
-36.4375
-35.4766
-33.8299
-32.8757
-31.1886
-30.042
-28.2509
-26.7688
-24.6941
-22.8722
-20.8057
-19.0746
-18.9934
-16.0655
-20.6233
-17.6026
-38.6329
-39.0009
-37.0658
-36.4885
-34.7082
-33.5441
-31.7149
-30.6111
-28.7713
-27.4715
-25.5113
-23.8503
-21.5557
-19.5196
-17.0376
-15.048
-14.1858
-10.746
-14.1656
-9.05343
-37.6315
-38.0821
-35.7554
-35.0563
-33.0597
-31.6618
-29.6532
-28.3961
-26.387
-24.9277
-22.7902
-20.9197
-18.3353
-15.9776
-13.0915
-10.9392
-9.33612
-5.32023
-7.24706
0.486616
-36.5132
-37.0292
-34.266
-33.5074
-31.2935
-29.6896
-27.514
-26.1212
-23.9688
-22.3619
-20.0618
-17.9993
-15.1801
-12.5639
-9.26882
-6.82785
-4.35498
0.187042
-0.32677
10.063
-35.4114
-36.1165
-32.9156
-32.0668
-29.7505
-27.8569
-25.5339
-24.0161
-21.7255
-19.9935
-17.5519
-15.297
-12.2094
-9.247
-5.55984
-2.88136
0.368723
5.27951
6.27499
19.8926
-34.9614
-35.6084
-31.9766
-30.774
-28.4168
-26.1436
-23.6452
-21.9977
-19.5756
-17.7185
-15.1309
-12.6765
-9.34231
-5.99943
-1.94337
1.04995
5.2195
10.852
14.4971
34.4104
-33.3711
-34.8767
-30.6045
-29.5151
-26.131
-23.8843
-21.1237
-19.3172
-16.6706
-14.5507
-11.6678
-8.8796
-5.09664
-1.26825
3.15628
6.33285
11.3851
18.3607
25.604
51.3384
-14.7368
-20.8297
-14.5566
-14.2315
-8.52809
-7.94175
-4.74941
-2.74215
0.601058
3.89928
8.40238
12.7456
17.8623
22.2123
28.7155
34.9807
45.1498
53.4348
68.2734
73.7429
-7.0182
-6.99444
-5.73342
-2.99477
-0.441648
2.8459
6.16587
9.8474
13.6604
17.7587
21.9349
26.6196
32.3605
39.2757
47.6015
56.5178
67.7353
78.3369
96.3808
108.651
12.7471
12.9674
13.9179
15.6184
17.7415
19.6871
22.2756
24.8316
28.1926
31.7175
36.0425
40.9655
46.7569
53.0466
59.9037
67.3232
75.8543
84.9915
96.0521
108.069
18.7623
19.0202
20.0924
22.2811
24.5247
27.4453
30.3823
34.006
37.648
41.8709
46.3487
51.2307
56.3101
62.0338
68.2659
75.564
82.7737
91.3495
99.0295
106.715
30.5316
30.8453
32.0317
33.8686
35.6977
37.8367
40.2693
42.8366
45.8387
48.9819
52.5543
56.3311
60.5036
65.0026
69.6572
74.7377
79.658
85.3244
90.8806
97.5475
34.6718
35.0669
36.4363
38.1515
40.367
42.7199
45.363
48.1915
51.2535
54.4821
57.938
61.547
65.3405
69.2983
73.3961
77.711
81.8817
86.4692
89.465
93.543
41.1354
41.3143
42.5736
44.6721
46.5926
48.7443
50.9548
53.1786
55.6734
58.0776
60.7951
63.409
66.2781
69.0808
72.0136
74.9087
77.7517
80.8542
83.7679
86.7423
44.2947
44.8569
46.1825
48.1814
50.2581
52.2941
54.6201
56.7951
59.2424
61.5437
64.0576
66.4678
68.995
71.4742
73.9109
76.3938
79.0037
81.3715
82.7801
84.8691
47.8113
48.4887
50.2056
52.1676
54.3669
56.221
58.3622
60.126
62.2076
63.9548
65.9823
67.734
69.6938
71.4435
73.2975
75.0192
76.3248
77.8591
79.4103
80.8964
50.497
51.1828
53.474
55.3524
57.8175
59.5436
61.6838
63.3064
65.2324
66.802
68.5644
70.0828
71.7019
73.1455
74.5884
76.1063
77.4651
78.7485
79.3992
80.5484
55.0508
55.7188
58.4409
59.9335
62.3704
63.7608
65.5897
66.8285
68.354
69.4981
70.8457
71.9245
73.1493
74.1729
75.2926
76.0911
76.8217
77.441
78.1841
78.9359
59.9645
59.9995
63.8398
64.8261
66.9858
68.064
69.5118
70.4705
71.6345
72.4983
73.4781
74.2641
75.1261
75.8315
76.6055
77.2664
78.0131
78.5603
79.0808
79.2935
72.1733
69.9064
72.3105
72.0454
73.4635
73.8368
74.5293
74.9175
75.4395
75.8141
76.3244
76.6911
77.1973
77.5603
78.0252
78.31
78.6292
78.8453
79.0917
79.2848
84.8726
82.633
80.7067
80.6048
79.8724
79.6385
79.3034
79.1558
79.0783
79.0218
79.0962
79.1051
79.2564
79.3136
79.4976
79.5788
79.7879
79.8828
80.0874
80.1043
92.4281
91.6498
88.2993
87.2025
85.4336
84.4594
83.5689
82.7986
82.3642
81.8398
81.645
81.3032
81.2267
81.0242
81.0046
80.8755
80.868
80.7663
80.7488
80.6538
98.9671
95.9217
93.9692
90.9478
89.8307
87.9271
87.0492
85.7862
85.118
84.2601
83.7782
83.2011
82.8633
82.4631
82.2289
81.9483