/*--------------------------------*- C++ -*----------------------------------*\
  =========                 |
  \\      /  F ield         | OpenFOAM: The Open Source CFD Toolbox
   \\    /   O peration     | Website:  https://openfoam.org
    \\  /    A nd           | Version:  9
     \\/     M anipulation  |
\*---------------------------------------------------------------------------*/
FoamFile
{
    format      ascii;
    class       volVectorField;
    location    "3.5";
    object      U;
}
// * * * * * * * * * * * * * * * * * * * * * * * * * * * * * * * * * * * * * //

dimensions      [0 1 -1 0 0 0 0];

internalField   nonuniform List<vector> 
46400
(
(7.65974 -7.52855 -2.61753e-19)
(16.0553 -15.2141 2.25703e-19)
(17.3942 -17.2981 -5.78499e-20)
(16.8622 -17.3727 -3.36807e-20)
(16.3217 -17.328 -4.34493e-20)
(15.7543 -17.365 -6.22249e-20)
(15.277 -17.3608 8.41038e-21)
(14.7877 -17.3832 2.24487e-20)
(14.364 -17.4271 -2.88331e-20)
(13.9496 -17.4562 3.44401e-20)
(13.5683 -17.5199 -3.9306e-20)
(13.2004 -17.5535 0)
(12.8678 -17.6343 2.7112e-19)
(12.5373 -17.6754 -3.1339e-19)
(12.2127 -17.7197 -4.2558e-19)
(11.9156 -17.7668 -8.43633e-20)
(11.6242 -17.8478 -2.76906e-20)
(11.3527 -17.8541 3.50415e-19)
(11.0624 -17.8228 4.98147e-19)
(10.6531 -18.0357 -4.57854e-19)
(7.98308 -7.17348 0)
(16.2126 -14.3365 -2.88744e-20)
(17.3332 -16.029 0)
(16.7331 -16.1275 7.73321e-21)
(16.2158 -16.1717 -2.17126e-20)
(15.694 -16.2694 6.59976e-21)
(15.2213 -16.3452 0)
(14.7096 -16.3626 -2.24473e-20)
(14.2697 -16.4409 2.88314e-20)
(13.8674 -16.5189 -3.44383e-20)
(13.4546 -16.5799 4.56866e-19)
(13.101 -16.6673 3.49374e-20)
(12.7613 -16.768 -3.91435e-19)
(12.4328 -16.8366 0)
(12.1288 -16.9363 5.33531e-20)
(11.8299 -16.987 5.58756e-20)
(11.5474 -17.0762 0)
(11.3144 -17.1293 -5.63658e-19)
(11.0805 -17.1765 -1.47645e-19)
(10.7452 -17.3786 5.72691e-19)
(8.26744 -6.7724 -2.03268e-20)
(16.2625 -13.4195 -7.35107e-20)
(17.1878 -14.8023 5.2712e-20)
(16.5494 -14.9782 1.40201e-19)
(16.0232 -15.0285 -1.37643e-19)
(15.4548 -15.1498 0)
(14.9785 -15.2487 -5.19581e-19)
(14.489 -15.3425 4.45632e-19)
(14.043 -15.4461 -6.05741e-19)
(13.6319 -15.5464 6.00403e-19)
(13.2443 -15.6717 5.85444e-19)
(12.8607 -15.7472 -5.36055e-20)
(12.5337 -15.8957 -5.10849e-19)
(12.2026 -15.9871 0)
(11.8864 -16.0996 6.49824e-19)
(11.601 -16.2104 -6.3997e-19)
(11.3122 -16.3284 0)
(11.0653 -16.4046 -1.54714e-20)
(10.7996 -16.4858 7.47228e-20)
(10.4543 -16.7365 -6.99915e-19)
(8.45884 -6.33229 -1.09322e-19)
(16.2062 -12.461 1.99019e-20)
(16.8963 -13.5584 2.21724e-19)
(16.2511 -13.7674 -2.18931e-19)
(15.7348 -13.901 -2.02967e-19)
(15.2182 -14.0653 2.79258e-19)
(14.7452 -14.2346 3.93565e-19)
(14.2409 -14.3189 -1.00905e-18)
(13.7923 -14.4686 8.49642e-19)
(13.3947 -14.603 -7.88408e-20)
(12.9894 -14.7392 0)
(12.632 -14.8705 8.40929e-20)
(12.2931 -15.0249 -8.60117e-20)
(11.9842 -15.1637 0)
(11.6743 -15.3004 7.87675e-19)
(11.3782 -15.4048 -6.69324e-19)
(11.1033 -15.5557 0)
(10.8809 -15.6879 9.06708e-20)
(10.6489 -15.81 1.04377e-19)
(10.2869 -16.0765 8.28576e-19)
(8.62993 -5.8875 0)
(16.0109 -11.3746 0)
(16.5339 -12.3589 -3.43244e-19)
(15.8725 -12.5978 2.34844e-19)
(15.3437 -12.7606 -4.77296e-19)
(14.7905 -12.951 3.88881e-19)
(14.3293 -13.1568 0)
(13.8573 -13.3263 4.40158e-19)
(13.3957 -13.4888 -5.31359e-19)
(12.9946 -13.6579 -1.23111e-19)
(12.6165 -13.8499 -1.23974e-19)
(12.2266 -13.9732 0)
(11.9037 -14.1774 9.28344e-19)
(11.5871 -14.332 -9.13836e-19)
(11.2953 -14.5204 0)
(11.0119 -14.6678 -1.0298e-18)
(10.7065 -14.796 9.09654e-19)
(10.4667 -14.9219 9.128e-19)
(10.2472 -15.0938 -9.94927e-19)
(9.92658 -15.3882 0)
(8.85485 -5.47072 0)
(15.6665 -10.2104 0)
(16.0437 -11.1128 0)
(15.4054 -11.4007 -2.96955e-20)
(14.8814 -11.6453 0)
(14.3782 -11.8822 0)
(13.9136 -12.1495 0)
(13.4397 -12.3175 -1.4384e-19)
(12.9934 -12.5412 0)
(12.5997 -12.7279 1.23109e-19)
(12.222 -12.9518 -2.06254e-20)
(11.8654 -13.1238 -1.22609e-18)
(11.5173 -13.3169 9.21556e-19)
(11.2228 -13.5138 -1.2145e-18)
(10.9215 -13.7062 9.14709e-19)
(10.6705 -13.9144 0)
(10.402 -14.1123 -1.04601e-18)
(10.14 -14.2384 8.93939e-19)
(9.91111 -14.406 0)
(9.59307 -14.7393 -1.41735e-19)
(9.10292 -5.06863 5.11812e-19)
(15.1994 -9.10972 1.51877e-19)
(15.4145 -9.91742 5.89007e-19)
(14.7719 -10.2415 -6.1042e-19)
(14.2522 -10.5413 -6.16732e-19)
(13.7313 -10.806 1.22921e-18)
(13.3062 -11.13 -1.40696e-18)
(12.878 -11.3837 1.31643e-19)
(12.4218 -11.6111 4.5119e-19)
(12.032 -11.8352 0)
(11.6858 -12.102 -2.01079e-20)
(11.3228 -12.2939 -1.91722e-20)
(10.9998 -12.528 1.43274e-19)
(10.6941 -12.7266 1.19395e-18)
(10.4053 -12.9427 -1.05176e-18)
(10.1291 -13.1244 -1.33819e-18)
(9.88366 -13.3528 1.16494e-18)
(9.65385 -13.5251 -1.47168e-20)
(9.42098 -13.6824 -1.48647e-19)
(9.12916 -14.021 -1.06252e-18)
(9.3828 -4.6692 -1.74325e-19)
(14.5979 -8.04924 3.23208e-20)
(14.6505 -8.75137 -1.89801e-19)
(14.0873 -9.12492 -7.48025e-19)
(13.5907 -9.50452 5.14667e-19)
(13.1264 -9.80961 0)
(12.6895 -10.1715 1.08041e-18)
(12.287 -10.4431 -5.20161e-19)
(11.8762 -10.7467 3.548e-19)
(11.4784 -10.9646 1.86082e-19)
(11.1349 -11.2606 -3.51572e-19)
(10.8144 -11.4976 8.52133e-19)
(10.4729 -11.7308 1.79015e-19)
(10.2041 -11.9802 -1.0119e-18)
(9.92648 -12.2284 2.82943e-18)
(9.679 -12.4605 -1.15278e-18)
(9.41691 -12.6867 1.45623e-18)
(9.20021 -12.8955 -9.52623e-19)
(8.97522 -13.0843 3.11457e-19)
(8.67862 -13.4009 1.50381e-18)
(9.57019 -4.29361 8.9473e-19)
(13.858 -7.04985 -1.86461e-19)
(13.7348 -7.69547 -2.87034e-20)
(13.2134 -8.08978 4.09946e-19)
(12.7334 -8.51635 1.91995e-19)
(12.2744 -8.84214 2.15546e-19)
(11.9053 -9.2604 -1.00439e-18)
(11.5456 -9.59658 6.09802e-19)
(11.154 -9.9106 -1.88044e-19)
(10.7882 -10.179 -1.86086e-19)
(10.462 -10.4843 -1.83914e-19)
(10.1623 -10.7573 -1.98973e-19)
(9.85101 -11.0131 -3.74671e-19)
(9.54527 -11.221 1.29775e-18)
(9.28799 -11.4803 -1.81386e-18)
(9.04446 -11.7077 -1.85323e-19)
(8.82484 -11.9709 1.3815e-20)
(8.61746 -12.1821 -1.35988e-18)
(8.43535 -12.4214 1.01523e-18)
(8.18754 -12.7448 -1.61386e-18)
(9.62206 -3.9842 8.19871e-19)
(12.9906 -6.07517 -2.09328e-18)
(12.7546 -6.73584 1.38628e-18)
(12.3466 -7.14923 -2.18375e-19)
(11.927 -7.64062 -2.40606e-19)
(11.5055 -7.99234 9.32909e-19)
(11.1039 -8.40576 -1.12927e-18)
(10.7925 -8.77633 0)
(10.4618 -9.16605 8.73051e-19)
(10.0873 -9.42051 -8.58516e-19)
(9.76008 -9.74869 -6.24986e-19)
(9.49907 -10.0582 8.14353e-19)
(9.23274 -10.3854 1.9562e-19)
(8.97641 -10.653 -7.98801e-19)
(8.69759 -10.9065 1.9184e-19)
(8.46301 -11.152 9.56898e-19)
(8.21802 -11.3945 -1.68789e-18)
(8.01996 -11.6265 1.11436e-18)
(7.8188 -11.8527 -1.18708e-20)
(7.60539 -12.203 -1.54921e-18)
(9.39647 -3.57845 1.15408e-18)
(12.0219 -5.24085 -7.78826e-19)
(11.7205 -5.87699 5.20494e-19)
(11.3106 -6.31258 7.0193e-21)
(10.9136 -6.80138 -1.02578e-18)
(10.5367 -7.18643 -9.73736e-19)
(10.2038 -7.63792 1.2111e-18)
(9.89174 -8.01433 -7.1189e-19)
(9.63124 -8.44692 9.44932e-19)
(9.33724 -8.77493 0)
(8.99125 -9.05598 1.58371e-20)
(8.70764 -9.34105 2.1526e-19)
(8.4557 -9.65299 2.25533e-19)
(8.23498 -9.95351 -2.20762e-19)
(8.01871 -10.254 0)
(7.80201 -10.5146 2.11379e-19)
(7.60023 -10.7888 0)
(7.40196 -11.013 3.932e-19)
(7.22414 -11.2545 1.91676e-18)
(7.01225 -11.5607 -1.43649e-20)
(8.96249 -3.11752 6.40666e-19)
(10.9679 -4.43223 -1.35406e-19)
(10.635 -5.07375 -1.97253e-18)
(10.3438 -5.54487 1.10367e-18)
(10.0226 -6.11444 2.62112e-19)
(9.64089 -6.4921 -2.5804e-19)
(9.28128 -6.94489 -1.05168e-18)
(8.99646 -7.34075 7.8424e-19)
(8.74058 -7.80212 0)
(8.52689 -8.20926 0)
(8.26482 -8.59416 -1.20406e-18)
(7.9883 -8.88326 9.53359e-19)
(7.72623 -9.2014 -2.25543e-19)
(7.49158 -9.48017 -6.86004e-19)
(7.27383 -9.78773 6.27846e-21)
(7.08451 -10.0732 1.52815e-18)
(6.88687 -10.3612 -8.53548e-19)
(6.72615 -10.6284 6.25624e-19)
(6.55189 -10.8869 -1.01357e-18)
(6.37636 -11.2165 0)
(8.33123 -2.62438 -5.60575e-19)
(9.88516 -3.72153 9.05947e-19)
(9.53311 -4.36731 1.5504e-19)
(9.17345 -4.81639 1.52339e-19)
(8.89392 -5.38356 0)
(8.62933 -5.83945 1.13966e-18)
(8.32274 -6.29559 -1.11972e-18)
(8.00965 -6.66755 1.40537e-19)
(7.7616 -7.09311 0)
(7.55384 -7.50391 1.04613e-18)
(7.36083 -7.9206 -8.97634e-19)
(7.16227 -8.29381 9.99472e-19)
(6.93928 -8.62358 -9.83665e-19)
(6.73976 -8.94113 9.54007e-19)
(6.52325 -9.2252 -8.19809e-19)
(6.34017 -9.50998 -9.10145e-19)
(6.15477 -9.78981 1.78562e-18)
(5.98423 -10.0391 -7.64682e-19)
(5.83532 -10.3089 1.0861e-19)
(5.65363 -10.617 9.11074e-19)
(7.53151 -2.12706 -4.50545e-19)
(8.67381 -3.05883 4.86787e-19)
(8.35536 -3.74194 -1.55034e-19)
(8.1364 -4.26852 -1.52327e-19)
(7.87023 -4.86067 0)
(7.59823 -5.32062 0)
(7.3565 -5.84261 0)
(7.11358 -6.26264 -2.87721e-19)
(6.83569 -6.68007 -1.12366e-18)
(6.63877 -7.08292 2.20238e-18)
(6.43332 -7.50071 -1.21082e-18)
(6.27582 -7.89208 -1.33841e-19)
(6.09937 -8.28825 0)
(5.93565 -8.62178 0)
(5.77802 -8.98345 -2.43853e-19)
(5.60741 -9.25814 0)
(5.46476 -9.58752 9.25425e-19)
(5.30572 -9.81947 -1.1385e-18)
(5.17367 -10.104 -9.89e-19)
(5.0215 -10.3732 9.60421e-19)
(6.63059 -1.65288 4.70032e-19)
(7.48148 -2.46794 8.51581e-19)
(7.13722 -3.12459 2.06512e-23)
(6.85522 -3.63234 -1.19767e-21)
(6.68234 -4.26793 1.61936e-19)
(6.48008 -4.75923 -4.70119e-19)
(6.25362 -5.26616 0)
(6.0632 -5.71656 -4.5183e-19)
(5.85658 -6.16058 1.53351e-19)
(5.64473 -6.53738 5.75087e-19)
(5.47836 -6.9584 5.5695e-19)
(5.3 -7.31414 -4.14075e-19)
(5.16912 -7.72701 1.0599e-18)
(5.0118 -8.0648 -9.11503e-19)
(4.89139 -8.44979 1.13236e-18)
(4.75673 -8.77224 -2.10095e-18)
(4.63518 -9.11964 9.68246e-19)
(4.52229 -9.42119 1.1543e-19)
(4.40625 -9.7236 9.10601e-19)
(4.29406 -10.057 -9.95172e-19)
(5.59961 -1.20876 1.64103e-19)
(6.14623 -1.98011 -1.73834e-19)
(5.90666 -2.70112 6.97165e-19)
(5.67153 -3.23764 -6.84304e-19)
(5.49961 -3.87285 -3.3335e-19)
(5.37281 -4.42942 -8.11384e-19)
(5.21013 -4.99722 4.16799e-21)
(5.05262 -5.46674 6.24666e-19)
(4.89538 -5.97192 -1.49272e-19)
(4.73135 -6.36714 0)
(4.5707 -6.80154 0)
(4.42329 -7.15455 0)
(4.27991 -7.54324 0)
(4.1578 -7.87721 3.65782e-21)
(4.02542 -8.22848 0)
(3.9182 -8.5445 1.25318e-19)
(3.79738 -8.87115 4.93173e-19)
(3.69694 -9.16053 -1.44766e-18)
(3.59166 -9.45699 1.06692e-18)
(3.48472 -9.77587 -1.01162e-18)
(4.64862 -0.920922 0)
(4.79242 -1.60843 -9.28044e-20)
(4.62549 -2.28379 0)
(4.41001 -2.78596 2.61768e-19)
(4.23556 -3.38003 -1.74844e-19)
(4.08859 -3.86887 -6.69126e-19)
(3.99812 -4.45532 4.37547e-21)
(3.8746 -4.92566 6.417e-19)
(3.78619 -5.46143 -6.2101e-19)
(3.67279 -5.90425 1.21602e-18)
(3.57265 -6.37494 -5.48765e-21)
(3.46474 -6.77732 -5.80444e-19)
(3.36165 -7.19301 5.60118e-19)
(3.26454 -7.55907 -6.86821e-19)
(3.17242 -7.93752 0)
(3.0818 -8.26897 -5.18086e-19)
(2.9996 -8.62111 5.10357e-19)
(2.91438 -8.91754 0)
(2.8395 -9.23019 -1.19224e-19)
(2.75146 -9.54672 0)
(3.17596 -0.593381 9.50586e-20)
(3.40757 -1.35687 9.27563e-20)
(3.40421 -2.19076 0)
(3.25322 -2.74428 3.57323e-19)
(3.13973 -3.39922 -4.41067e-19)
(3.00715 -3.87854 2.55462e-19)
(2.88529 -4.43606 -7.53434e-19)
(2.7962 -4.88321 3.27573e-19)
(2.68447 -5.38092 -8.0076e-20)
(2.6196 -5.79743 0)
(2.52683 -6.25653 -7.60204e-20)
(2.46309 -6.63696 -7.4053e-20)
(2.38316 -7.06023 -7.21387e-20)
(2.31294 -7.40278 0)
(2.24233 -7.79294 -5.4114e-19)
(2.17356 -8.10396 1.12679e-18)
(2.10917 -8.46706 -9.67995e-19)
(2.04638 -8.74888 5.06094e-19)
(1.98849 -9.07029 6.17302e-20)
(1.92429 -9.37603 5.26593e-19)
(2.20121 -0.561576 -1.45022e-19)
(1.73255 -1.01221 -1.90482e-19)
(1.87107 -1.8255 6.51726e-22)
(1.86611 -2.33945 5.01397e-19)
(1.83062 -3.02732 -1.34967e-19)
(1.79792 -3.53139 -8.69847e-20)
(1.76103 -4.13966 8.55347e-20)
(1.70677 -4.59749 1.66122e-19)
(1.67008 -5.14906 8.00671e-20)
(1.59877 -5.55769 -3.12772e-19)
(1.56201 -6.06152 3.45262e-19)
(1.49929 -6.43266 7.40478e-20)
(1.46581 -6.89296 3.61082e-19)
(1.41475 -7.23262 -3.02492e-21)
(1.38178 -7.6499 3.15624e-20)
(1.33593 -7.96049 -6.03574e-19)
(1.30246 -8.34105 1.65222e-19)
(1.25829 -8.6217 0)
(1.22581 -8.95043 -3.05742e-20)
(1.17952 -9.25125 -2.66611e-19)
(0.307401 -1.08584 0)
(0.817653 -1.008 -9.39402e-20)
(0.640479 -2.08367 1.1643e-19)
(0.72801 -2.38467 -4.62871e-20)
(0.600904 -3.14431 -4.53227e-20)
(0.592991 -3.5195 0)
(0.548638 -4.18447 -8.51345e-20)
(0.53109 -4.57032 1.66621e-19)
(0.50824 -5.16221 -8.15475e-20)
(0.500366 -5.53474 7.8713e-20)
(0.475135 -6.05978 -3.90249e-20)
(0.468268 -6.40729 -7.46546e-20)
(0.443232 -6.87682 1.46171e-19)
(0.436409 -7.19824 -1.42368e-19)
(0.415379 -7.62196 3.51539e-20)
(0.410117 -7.91867 2.40177e-34)
(0.392825 -8.3059 -3.2641e-20)
(0.38988 -8.57648 1.92027e-19)
(0.375653 -8.91132 -9.47368e-20)
(0.374856 -9.20472 -6.79604e-20)
(-0.124082 0.913129 2.55501e-20)
(-0.189313 0.923799 2.71099e-20)
(0.310536 -0.378197 0)
(1.40097 -4.27863 2.57281e-20)
(4.28112 -12.2874 2.51381e-20)
(7.09049 -20.0795 2.4639e-20)
(8.71323 -24.418 0)
(9.28472 -26.1457 2.28454e-20)
(9.48286 -26.71 0)
(9.52976 -26.8841 0)
(9.51556 -26.9178 -1.97511e-20)
(9.48622 -26.8853 4.87631e-22)
(9.40558 -26.8253 4.10305e-20)
(9.32807 -26.739 0)
(9.29638 -26.7552 1.74904e-20)
(9.25903 -26.7378 1.86744e-20)
(9.17891 -26.7338 1.816e-20)
(9.13713 -26.6707 0)
(9.05656 -26.6795 -3.44779e-20)
(9.0311 -26.6532 3.15714e-20)
(-0.127536 1.07725 0)
(0.111344 0.381421 0)
(0.699423 -2.43078 0)
(3.18379 -9.09452 -8.17044e-20)
(6.48555 -17.8737 1.25655e-19)
(8.55037 -23.2711 -2.21418e-19)
(9.42538 -25.7609 9.47855e-20)
(9.69734 -26.5529 6.62575e-20)
(9.74725 -26.7832 -3.10887e-19)
(9.74018 -26.8012 1.62598e-19)
(9.69735 -26.7785 -1.94001e-20)
(9.62551 -26.6882 1.61644e-19)
(9.53498 -26.6297 -2.25142e-21)
(9.51178 -26.6202 -1.52134e-19)
(9.43697 -26.6224 -1.86118e-20)
(9.3847 -26.5563 -1.87433e-20)
(9.29939 -26.5474 -1.82276e-20)
(9.26651 -26.5299 0)
(9.17524 -26.5392 -1.28697e-19)
(9.1446 -26.4726 1.52024e-21)
(-0.247576 0.937347 -5.57519e-20)
(0.384419 -0.599717 0)
(1.65295 -5.20315 0)
(5.33382 -14.5795 -5.16103e-20)
(7.95732 -21.6576 5.04391e-20)
(9.31778 -25.2829 0)
(9.7729 -26.4198 -4.55832e-20)
(9.87109 -26.7389 1.33837e-19)
(9.87765 -26.7635 -1.25502e-19)
(9.84183 -26.7322 1.56328e-19)
(9.76001 -26.6397 -2.07396e-19)
(9.6979 -26.5448 0)
(9.64505 -26.5429 -1.54516e-19)
(9.60434 -26.4821 -1.47159e-19)
(9.51307 -26.4421 2.61814e-19)
(9.47981 -26.4047 -2.77568e-19)
(9.40223 -26.4185 2.32812e-19)
(9.36783 -26.3506 0)
(9.24823 -26.3251 -2.86931e-19)
(9.22498 -26.2493 4.75262e-19)
(0.0670057 0.774152 1.69903e-19)
(0.691085 -2.21731 0)
(3.33053 -9.39594 1.0551e-19)
(7.17628 -18.5217 4.9487e-20)
(9.13554 -23.9997 -3.03921e-19)
(9.95985 -26.0384 9.49135e-20)
(10.1245 -26.6058 4.69523e-20)
(10.1644 -26.6786 4.66537e-19)
(10.1268 -26.6449 -6.46692e-19)
(10.0424 -26.5355 -7.65222e-20)
(9.97071 -26.4419 3.74739e-19)
(9.91957 -26.4033 7.86849e-20)
(9.84339 -26.355 -3.80365e-19)
(9.78849 -26.2887 3.72865e-19)
(9.70508 -26.2901 1.07067e-19)
(9.6679 -26.2382 -6.73554e-20)
(9.55967 -26.2192 9.88221e-20)
(9.50897 -26.1253 0)
(9.39277 -26.1265 -2.86669e-20)
(9.37605 -26.0549 0)
(0.433569 -0.115598 0)
(1.28646 -4.18778 4.31512e-19)
(5.09352 -13.5191 -5.28451e-19)
(8.2882 -21.7392 5.16331e-19)
(9.8518 -25.4321 -4.07898e-19)
(10.2191 -26.47 -9.46457e-20)
(10.3429 -26.6671 0)
(10.308 -26.6312 2.43427e-19)
(10.2384 -26.5089 -3.40896e-19)
(10.1664 -26.4017 4.17225e-19)
(10.1121 -26.3386 -3.2699e-19)
(10.039 -26.2468 -7.86846e-20)
(9.9779 -26.2061 3.72298e-19)
(9.92098 -26.1475 -6.50495e-19)
(9.83063 -26.1042 4.17441e-19)
(9.78846 -26.036 -1.3689e-19)
(9.67232 -26.0076 -3.21572e-19)
(9.6407 -25.9387 7.31196e-19)
(9.51661 -25.9272 -4.07486e-19)
(9.49114 -25.8044 -4.84378e-19)
(0.399238 -1.11531 4.52669e-19)
(2.22456 -6.35208 4.38563e-19)
(6.69582 -16.9923 -4.31451e-19)
(9.46812 -23.5732 -1.05466e-19)
(10.4359 -26.0373 1.0011e-19)
(10.6809 -26.5688 3.63458e-19)
(10.6648 -26.5661 -3.45179e-19)
(10.6135 -26.4583 0)
(10.5223 -26.3129 3.39925e-19)
(10.4583 -26.232 -3.3423e-19)
(10.374 -26.1191 -3.12259e-19)
(10.3067 -26.0647 3.07195e-19)
(10.2293 -26.0071 0)
(10.1475 -25.9215 0)
(10.0581 -25.8956 5.9883e-19)
(10.0001 -25.829 -5.88133e-19)
(9.87207 -25.797 -4.90848e-19)
(9.82767 -25.6976 4.76995e-19)
(9.6723 -25.6796 -4.42015e-19)
(9.64906 -25.5438 5.29952e-19)
(0.409602 -2.04592 -3.41991e-19)
(3.50057 -9.58063 1.17076e-19)
(7.98492 -19.7167 6.85308e-21)
(10.2113 -25.0577 5.37869e-19)
(10.8274 -26.4345 0)
(10.9198 -26.5692 0)
(10.9002 -26.503 6.9318e-19)
(10.799 -26.3103 -2.15361e-20)
(10.7345 -26.1902 -6.8969e-19)
(10.6444 -26.0592 6.3819e-19)
(10.5749 -25.9738 -6.27673e-19)
(10.4873 -25.8777 0)
(10.4057 -25.7998 5.56682e-19)
(10.3218 -25.7283 -5.47927e-19)
(10.2285 -25.6734 0)
(10.1525 -25.5856 0)
(10.0212 -25.5325 0)
(9.98021 -25.4541 0)
(9.81811 -25.4329 0)
(9.791 -25.2621 -5.16223e-20)
(0.692187 -2.84106 3.59733e-19)
(4.78047 -11.954 -5.83366e-19)
(9.1347 -21.6248 0)
(11.0085 -25.6553 0)
(11.3679 -26.4787 9.1939e-19)
(11.3956 -26.4758 6.52767e-20)
(11.3088 -26.3026 -8.18728e-19)
(11.1958 -26.0973 0)
(11.0971 -25.9466 8.23905e-20)
(11.0055 -25.8388 -7.79783e-20)
(10.8972 -25.7074 0)
(10.8013 -25.6264 7.00954e-20)
(10.7024 -25.5499 -6.01734e-19)
(10.5912 -25.4539 1.10014e-18)
(10.486 -25.4013 -1.56589e-20)
(10.3905 -25.3185 -4.7912e-19)
(10.2513 -25.2773 -5.47564e-20)
(10.193 -25.1746 5.183e-20)
(9.99343 -25.1382 0)
(9.96563 -24.9469 4.63245e-20)
(1.13642 -3.75821 2.38842e-19)
(6.13283 -14.1989 2.26827e-19)
(10.2976 -23.0966 -7.09982e-19)
(11.6887 -26.1639 2.20768e-19)
(11.8363 -26.4543 1.00529e-19)
(11.7703 -26.3252 8.35298e-19)
(11.6206 -26.0699 -1.19453e-18)
(11.5012 -25.8754 8.76727e-19)
(11.399 -25.741 -7.20854e-19)
(11.2671 -25.582 8.56567e-19)
(11.1599 -25.474 1.42162e-19)
(11.0407 -25.3674 6.0392e-19)
(10.9233 -25.2649 -3.37865e-19)
(10.8042 -25.1793 -6.68874e-19)
(10.6911 -25.1107 5.9177e-19)
(10.5727 -25.017 0)
(10.4289 -24.9478 1.5723e-19)
(10.3566 -24.8623 4.49409e-20)
(10.1549 -24.828 -9.20132e-20)
(10.1241 -24.6295 3.97585e-20)
(1.904 -4.89339 0)
(7.3633 -15.6948 4.27255e-19)
(11.3217 -23.9141 3.30278e-22)
(12.3836 -26.0686 -4.41999e-19)
(12.4076 -26.2007 -4.02645e-19)
(12.2917 -25.9967 -1.89571e-19)
(12.1309 -25.782 -4.80107e-21)
(11.9692 -25.5652 -1.70468e-19)
(11.8177 -25.3874 0)
(11.6727 -25.2562 -1.5079e-19)
(11.5224 -25.1144 -1.42142e-19)
(11.3832 -25.0153 -7.22575e-21)
(11.2452 -24.9263 4.75612e-19)
(11.0981 -24.8249 -2.43185e-19)
(10.9629 -24.7581 -5.44945e-19)
(10.8234 -24.6692 4.24704e-19)
(10.6715 -24.6185 2.84599e-19)
(10.571 -24.5187 -4.78563e-19)
(10.3453 -24.4733 9.27175e-20)
(10.2984 -24.26 5.73506e-19)
(2.40487 -5.52647 -1.1523e-19)
(8.51781 -16.8519 1.0518e-18)
(12.3592 -24.414 -1.37608e-18)
(13.064 -26.0038 1.102e-18)
(12.9568 -25.9165 9.69811e-19)
(12.7409 -25.6435 -7.68871e-19)
(12.5258 -25.3897 -1.02332e-18)
(12.3296 -25.179 3.51443e-20)
(12.1672 -25.0381 6.19253e-19)
(11.9779 -24.8716 -4.12419e-19)
(11.8188 -24.7563 1.05248e-18)
(11.6535 -24.647 -6.31615e-19)
(11.4896 -24.5376 -1.1931e-19)
(11.3287 -24.4473 3.1105e-19)
(11.1806 -24.3753 -8.15034e-19)
(11.0181 -24.2864 3.92144e-19)
(10.8555 -24.2086 0)
(10.7329 -24.1284 -6.68937e-19)
(10.5127 -24.0939 6.59141e-19)
(10.4443 -23.8897 -5.28239e-19)
(3.03367 -6.59959 2.44825e-19)
(9.65124 -17.7477 2.62312e-19)
(13.2443 -24.4888 1.17704e-18)
(13.6924 -25.5071 1.01807e-18)
(13.4957 -25.3895 -6.10513e-19)
(13.2819 -25.1456 8.72183e-19)
(13.0424 -24.9372 -5.15346e-19)
(12.8109 -24.7259 5.95215e-19)
(12.5951 -24.5471 -1.13638e-18)
(12.3862 -24.4133 4.06015e-19)
(12.1824 -24.275 0)
(11.9916 -24.1748 0)
(11.8056 -24.0871 0)
(11.6161 -23.9892 -7.69014e-19)
(11.4405 -23.9249 7.57125e-19)
(11.2578 -23.8412 0)
(11.0851 -23.788 0)
(10.9255 -23.7088 -7.04392e-20)
(10.6969 -23.6585 0)
(10.6132 -23.4481 -5.9606e-19)
(3.63503 -7.0728 -4.79177e-19)
(10.6551 -18.2871 -1.19269e-18)
(14.0918 -24.3588 -8.36529e-19)
(14.3315 -25.094 -1.46033e-19)
(14.0292 -24.8797 1.10632e-18)
(13.7443 -24.6129 -2.22509e-19)
(13.4407 -24.3684 -4.2978e-20)
(13.1658 -24.1679 -7.26367e-19)
(12.9376 -24.0367 0)
(12.6844 -23.881 -3.53312e-19)
(12.4687 -23.7762 5.64908e-19)
(12.2519 -23.6782 0)
(12.0377 -23.5788 7.37094e-19)
(11.832 -23.4967 -7.25541e-19)
(11.6412 -23.4357 6.32758e-19)
(11.4377 -23.3594 -1.14095e-18)
(11.2433 -23.2848 5.78603e-19)
(11.0681 -23.228 7.04381e-20)
(10.8442 -23.2004 -5.50045e-20)
(10.7533 -23.0072 4.44406e-19)
(4.24716 -7.60373 -6.62675e-19)
(11.7143 -18.5001 4.09113e-20)
(14.7827 -23.9391 6.04617e-20)
(14.9125 -24.3157 1.51975e-18)
(14.5196 -24.1392 1.23357e-19)
(14.2392 -23.9282 -8.01557e-19)
(13.9191 -23.7425 -5.49049e-19)
(13.6084 -23.5559 1.75454e-19)
(13.3298 -23.3988 6.02715e-19)
(13.0575 -23.2852 -6.31491e-19)
(12.7968 -23.165 3.04716e-19)
(12.5541 -23.0816 -7.79448e-19)
(12.3194 -23.0113 6.09499e-19)
(12.0848 -22.9271 -5.84015e-19)
(11.8672 -22.8788 5.12305e-19)
(11.6456 -22.8122 4.21993e-19)
(11.4421 -22.7696 -4.84197e-19)
(11.2341 -22.712 3.68314e-19)
(11.0012 -22.683 -3.51915e-19)
(10.895 -22.4917 -3.95028e-19)
(4.84787 -7.89002 -8.32737e-19)
(12.577 -18.54 -1.56319e-19)
(15.4444 -23.4086 7.69796e-19)
(15.4464 -23.6647 -6.69293e-19)
(14.992 -23.4432 6.56868e-19)
(14.6304 -23.2231 1.49075e-19)
(14.2556 -23.0082 0)
(13.904 -22.8422 -1.06258e-19)
(13.6131 -22.7364 2.86289e-19)
(13.2987 -22.607 -1.0069e-18)
(13.0276 -22.53 7.05245e-19)
(12.7617 -22.4564 1.51568e-19)
(12.4994 -22.3831 7.56633e-20)
(12.2514 -22.3225 0)
(12.0191 -22.2868 1.391e-20)
(11.779 -22.2325 3.87936e-19)
(11.5516 -22.1725 -3.23212e-20)
(11.3326 -22.1484 5.33064e-20)
(11.1127 -22.1561 -3.0923e-19)
(10.9991 -21.9774 6.56853e-20)
(5.39736 -8.05138 7.61635e-19)
(13.4209 -18.285 -1.30664e-18)
(16.0388 -22.5922 7.17884e-19)
(15.8925 -22.6735 5.94496e-19)
(15.4091 -22.5156 -5.54924e-20)
(15.0412 -22.3637 -4.06323e-19)
(14.6566 -22.2198 1.00129e-19)
(14.2672 -22.0729 1.06243e-19)
(13.9305 -21.9572 0)
(13.6014 -21.881 0)
(13.2855 -21.7925 -5.20155e-19)
(12.9966 -21.7429 8.512e-19)
(12.7178 -21.7049 -4.52687e-19)
(12.4388 -21.6441 0)
(12.1817 -21.625 1.5044e-20)
(11.9286 -21.5917 -3.02768e-19)
(11.6911 -21.5701 2.94154e-19)
(11.4347 -21.5353 -3.43332e-20)
(11.2057 -21.549 -1.92151e-19)
(11.083 -21.388 1.35646e-19)
(5.9576 -8.13699 -6.75924e-19)
(14.1441 -17.99 8.46406e-19)
(16.5272 -21.7308 0)
(16.2763 -21.8176 0)
(15.7568 -21.646 1.06503e-19)
(15.3076 -21.4967 -5.04357e-19)
(14.8766 -21.3352 2.24538e-20)
(14.4589 -21.2247 3.35336e-19)
(14.1125 -21.1602 -5.15719e-19)
(13.7465 -21.0732 9.52507e-19)
(13.4265 -21.0383 -4.3809e-19)
(13.1175 -20.9999 8.68689e-20)
(12.8152 -20.9678 3.04179e-19)
(12.5304 -20.9398 -1.81442e-20)
(12.2599 -20.937 -1.75738e-19)
(11.9899 -20.9112 2.87957e-20)
(11.7333 -20.886 -1.4599e-19)
(11.4736 -20.8988 1.19401e-19)
(11.2582 -20.9374 1.43337e-20)
(11.1324 -20.7986 6.60432e-20)
(6.41229 -8.09153 0)
(14.7703 -17.394 3.88394e-19)
(16.8747 -20.7252 -4.30776e-19)
(16.562 -20.6712 0)
(16.0202 -20.5815 -1.06498e-19)
(15.5833 -20.5096 3.03588e-19)
(15.1541 -20.4247 -3.78e-19)
(14.6997 -20.3285 0)
(14.3156 -20.2699 3.57554e-19)
(13.9436 -20.2411 -3.51589e-19)
(13.5792 -20.1941 2.2568e-20)
(13.2551 -20.1908 -3.46873e-20)
(12.9412 -20.1976 -2.83527e-20)
(12.6234 -20.1689 -2.26883e-20)
(12.3346 -20.1913 -7.53266e-20)
(12.0583 -20.1997 8.16718e-20)
(11.7854 -20.2071 -2.10839e-20)
(11.4864 -20.1977 -3.06718e-20)
(11.2551 -20.2494 2.95191e-20)
(11.1348 -20.155 -1.17247e-21)
(6.88268 -7.99378 0)
(15.3334 -16.8158 -4.31413e-19)
(17.1498 -19.6657 2.3607e-19)
(16.7708 -19.6832 2.41956e-19)
(16.2196 -19.5722 -4.98049e-20)
(15.6933 -19.5144 -4.38779e-20)
(15.2308 -19.422 -2.05834e-19)
(14.7645 -19.3767 0)
(14.3723 -19.3643 0)
(13.9709 -19.3322 0)
(13.6113 -19.3461 -2.25665e-20)
(13.2654 -19.3448 0)
(12.9362 -19.3673 2.00649e-20)
(12.6209 -19.3812 -1.11686e-20)
(12.3143 -19.4096 8.11605e-20)
(12.0218 -19.4215 -1.9027e-19)
(11.7412 -19.459 1.08687e-19)
(11.451 -19.4986 1.79374e-19)
(11.1906 -19.5492 -3.27574e-19)
(11.0754 -19.4385 1.8271e-19)
(7.27661 -7.77908 0)
(15.7364 -16.0238 0)
(17.3062 -18.477 8.61612e-20)
(16.8424 -18.4583 7.1461e-20)
(16.3062 -18.4312 0)
(15.8105 -18.4483 1.10952e-19)
(15.352 -18.4363 -1.09003e-19)
(14.8555 -18.3938 0)
(14.4351 -18.4004 1.43119e-20)
(14.0367 -18.422 -1.40731e-20)
(13.6353 -18.4233 0)
(13.2865 -18.4656 1.29199e-19)
(12.9447 -18.5143 3.09276e-20)
(12.5983 -18.5232 -1.64173e-19)
(12.2843 -18.5864 0)
(11.9788 -18.6191 0)
(11.6606 -18.6696 0)
(11.3513 -18.6819 2.75491e-19)
(11.0393 -18.7097 -2.98205e-19)
(10.8854 -18.6565 0)
(8.48191 -26.61 0)
(8.13481 -26.2369 0)
(7.35695 -26.3519 -3.06698e-21)
(6.95527 -26.4016 -3.00523e-21)
(6.26542 -26.4322 0)
(5.82303 -26.5265 -2.74139e-23)
(5.2716 -26.5611 2.92119e-21)
(4.82762 -26.6517 0)
(4.3232 -26.7028 2.73843e-21)
(3.91152 -26.751 0)
(3.46844 -26.7847 -2.66082e-21)
(3.1178 -26.7929 -1.31808e-21)
(2.7145 -26.8001 1.32495e-21)
(2.43999 -26.8127 2.53718e-21)
(2.07753 -26.8152 0)
(1.87258 -26.7706 -6.15138e-22)
(1.56519 -26.5942 2.42405e-21)
(1.38637 -25.1701 0)
(0.853005 -20.5733 0)
(0.282666 -11.1907 2.35634e-21)
(8.51551 -26.3898 1.43921e-20)
(8.1507 -26.0603 0)
(7.35103 -26.1512 1.4912e-20)
(6.94392 -26.2314 -8.91223e-21)
(6.28156 -26.3042 0)
(5.81773 -26.4225 -1.39355e-20)
(5.21871 -26.4478 5.58216e-21)
(4.74248 -26.5176 0)
(4.24609 -26.5694 2.58028e-21)
(3.84154 -26.6256 -5.34765e-21)
(3.40741 -26.6662 7.83512e-21)
(3.06358 -26.683 -1.03112e-20)
(2.6745 -26.7091 7.64594e-21)
(2.4151 -26.737 -2.58688e-21)
(2.06449 -26.7531 -2.49182e-21)
(1.87563 -26.721 2.40259e-21)
(1.57851 -26.5274 -3.86007e-21)
(1.39031 -25.0629 -5.83865e-21)
(0.840955 -20.3849 -2.88296e-21)
(0.290505 -11.0179 -2.94048e-21)
(8.56909 -26.1756 -2.49135e-21)
(8.21624 -25.8812 -1.34834e-20)
(7.36945 -25.9943 -1.11229e-20)
(6.95033 -26.0673 0)
(6.25899 -26.1037 0)
(5.80285 -26.214 1.61341e-20)
(5.26041 -26.257 -2.01662e-22)
(4.81114 -26.3662 -1.62017e-22)
(4.32169 -26.4386 -1.79241e-22)
(3.9131 -26.5052 -1.02792e-20)
(3.47732 -26.5568 0)
(3.1298 -26.5814 0)
(2.73204 -26.6097 0)
(2.46455 -26.6378 -9.55107e-21)
(2.10471 -26.6584 0)
(1.90494 -26.6313 -9.33679e-21)
(1.5901 -26.4611 7.36797e-21)
(1.3977 -24.9789 3.51439e-21)
(0.852439 -20.2836 5.79609e-21)
(0.297184 -10.8847 9.03543e-21)
(8.62101 -25.9384 2.41497e-20)
(8.25053 -25.6921 -4.80045e-20)
(7.37209 -25.7825 2.09562e-22)
(6.94851 -25.8885 2.16321e-20)
(6.28636 -25.9669 0)
(5.80516 -26.108 2.02566e-20)
(5.21661 -26.1462 -5.01903e-20)
(4.73008 -26.2343 3.0045e-20)
(4.2467 -26.3065 -1.96583e-20)
(3.84393 -26.3813 9.7407e-21)
(3.4167 -26.4399 -2.47967e-22)
(3.07491 -26.4724 -9.5486e-21)
(2.69229 -26.5199 9.59404e-21)
(2.43938 -26.5632 4.87666e-21)
(2.09129 -26.5967 4.69961e-21)
(1.90567 -26.582 9.3318e-21)
(1.59935 -26.3952 -9.17362e-21)
(1.4 -24.8778 4.51257e-21)
(0.84133 -20.109 -2.25464e-21)
(0.303835 -10.7193 -9.02136e-21)
(8.6921 -25.6917 5.13589e-20)
(8.32596 -25.4969 1.15629e-20)
(7.41183 -25.6132 -2.10195e-20)
(6.96203 -25.7235 3.04266e-20)
(6.27621 -25.7702 0)
(5.79054 -25.8973 -9.5e-21)
(5.25458 -25.9533 9.84329e-21)
(4.79667 -26.0817 0)
(4.32204 -26.1782 4.24045e-22)
(3.91477 -26.2621 0)
(3.48541 -26.3315 -1.87302e-20)
(3.13966 -26.3725 0)
(2.74879 -26.4229 0)
(2.48678 -26.4659 -1.80316e-20)
(2.12991 -26.5033 9.11125e-21)
(1.93079 -26.4923 -8.83536e-21)
(1.6067 -26.3295 0)
(1.40501 -24.7997 2.19484e-21)
(0.850653 -20.0183 -2.20185e-21)
(0.309335 -10.5876 0)
(8.77714 -25.4356 2.17119e-20)
(8.37629 -25.2946 -2.08199e-20)
(7.41353 -25.3903 4.74507e-20)
(6.96664 -25.5353 -4.87965e-20)
(6.31084 -25.6251 1.79559e-20)
(5.79549 -25.7872 9.52938e-21)
(5.21629 -25.8436 -1.78079e-20)
(4.72016 -25.9517 -1.78101e-20)
(4.24917 -26.0473 9.29859e-21)
(3.84657 -26.1394 1.80145e-20)
(3.4253 -26.2162 -8.89083e-21)
(3.08484 -26.2652 0)
(2.70928 -26.3344 0)
(2.46035 -26.3927 4.0577e-22)
(2.11427 -26.4418 -8.83677e-21)
(1.92786 -26.4426 8.82603e-21)
(1.61161 -26.2647 0)
(1.40566 -24.7062 -1.69712e-20)
(0.839695 -19.8588 -1.59157e-20)
(0.3151 -10.4301 -1.06921e-21)
(8.86979 -25.1596 -6.31867e-20)
(8.44935 -25.0742 6.25349e-20)
(7.46954 -25.2062 -1.89095e-20)
(6.98761 -25.371 0)
(6.31037 -25.4298 -1.80319e-20)
(5.78354 -25.5725 3.49263e-20)
(5.2531 -25.65 -1.7183e-20)
(4.78643 -25.7987 1.78601e-20)
(4.32464 -25.9211 0)
(3.91697 -26.0213 0)
(3.49297 -26.1088 1.72342e-20)
(3.14794 -26.1665 -1.7288e-20)
(2.76415 -26.2393 0)
(2.50432 -26.2962 2.58825e-20)
(2.14952 -26.349 -8.55149e-21)
(1.94741 -26.3524 -8.42025e-21)
(1.61463 -26.2006 6.76443e-21)
(1.40832 -24.6355 2.11213e-20)
(0.84643 -19.7777 1.06488e-20)
(0.31997 -10.3012 2.08597e-21)
(8.98475 -24.8781 0)
(8.50757 -24.8551 -3.62039e-20)
(7.47299 -24.9739 3.63082e-20)
(6.99591 -25.1731 0)
(6.34448 -25.2768 0)
(5.78722 -25.4582 -3.30444e-20)
(5.21687 -25.5401 3.31427e-20)
(4.7146 -25.67 0)
(4.25424 -25.7914 1.6571e-20)
(3.84981 -25.8996 -3.32077e-20)
(3.43335 -25.9948 1.66352e-20)
(3.09332 -26.0611 1.65613e-20)
(2.72427 -26.1522 -1.66195e-20)
(2.47543 -26.2243 0)
(2.13 -26.2875 0)
(1.93989 -26.3021 -8.19051e-21)
(1.61541 -26.1376 9.84889e-21)
(1.40732 -24.551 -8.92407e-24)
(0.834956 -19.6362 -6.11524e-21)
(0.324751 -10.1519 2.03521e-21)
(9.09413 -24.5699 3.61705e-20)
(8.57072 -24.6036 -3.63197e-20)
(7.53811 -24.7711 -4.73235e-20)
(7.02211 -25.0098 6.37257e-20)
(6.34812 -25.0799 -6.27815e-20)
(5.77955 -25.2395 -8.26557e-23)
(5.25448 -25.3471 3.13415e-20)
(4.78212 -25.5178 0)
(4.32973 -25.6663 0)
(3.92001 -25.7825 1.54685e-20)
(3.50006 -25.8884 0)
(3.15488 -25.9634 0)
(2.777 -26.0577 0)
(2.51491 -26.1278 0)
(2.16058 -26.1945 0)
(1.953 -26.2118 0)
(1.61458 -26.076 -6.36752e-21)
(1.40725 -24.4885 7.95491e-21)
(0.838526 -19.5627 -1.983e-21)
(0.330251 -10.0274 1.98264e-21)
(9.22427 -24.2503 -2.76824e-20)
(8.63192 -24.3691 -4.93289e-20)
(7.5505 -24.5295 -1.43962e-20)
(7.03146 -24.8018 -1.41535e-20)
(6.37666 -24.9219 1.43522e-20)
(5.78112 -25.1212 4.33848e-20)
(5.21977 -25.2372 1.4276e-20)
(4.71523 -25.3896 0)
(4.26165 -25.5376 -1.55181e-20)
(3.85419 -25.6617 2.9458e-20)
(3.44089 -25.7756 1.49184e-20)
(3.10032 -25.8597 1.49507e-20)
(2.73601 -25.9718 0)
(2.48322 -26.0567 1.5085e-20)
(2.13699 -26.1326 1.5236e-20)
(1.9406 -26.1611 0)
(1.61184 -26.0159 0)
(1.40415 -24.4133 0)
(0.825784 -19.441 0)
(0.335411 -9.88661 0)
(9.34172 -23.9065 1.29211e-19)
(8.68958 -24.0848 -4.49895e-20)