/*--------------------------------*- C++ -*----------------------------------*\
  =========                 |
  \\      /  F ield         | OpenFOAM: The Open Source CFD Toolbox
   \\    /   O peration     | Website:  https://openfoam.org
    \\  /    A nd           | Version:  9
     \\/     M anipulation  |
\*---------------------------------------------------------------------------*/
FoamFile
{
    format      ascii;
    class       volScalarField;
    location    "7.8";
    object      p;
}
// * * * * * * * * * * * * * * * * * * * * * * * * * * * * * * * * * * * * * //

dimensions      [0 2 -2 0 0 0 0];

internalField   nonuniform List<scalar> 
46400
(
-74.475
-64.1476
-48.2672
-34.4547
-22.0911
-10.5422
-0.152722
9.53292
18.3708
26.5975
34.1973
41.3317
47.9842
54.2919
60.2809
65.9946
71.4072
77.2923
82.8031
84.6181
-34.5951
-25.9041
-11.7
0.929316
12.1228
22.6526
32.0934
40.8279
48.8067
56.1564
62.9163
69.1273
74.9019
80.2431
85.2241
89.8571
94.1703
98.5945
102.466
103.517
4.25551
11.5245
24.2334
35.8907
45.9953
55.4575
63.8763
71.629
78.6418
85.099
91.0063
96.4605
101.461
106.085
110.364
114.275
117.824
121.47
124.159
124.011
40.7358
46.887
58.7605
69.6123
78.8156
87.3698
94.9059
101.748
107.897
113.447
118.468
122.995
127.134
130.89
134.328
137.443
140.274
143.173
145.383
144.995
75.9184
82.6032
93.3865
103.237
111.449
118.945
125.51
131.394
136.651
141.358
145.618
149.413
152.839
155.879
158.65
161.066
163.196
165.39
166.926
166.003
111.123
118.381
127.771
136.318
143.292
149.647
155.157
160.046
164.37
168.175
171.562
174.548
177.208
179.573
181.666
183.517
185.115
186.799
187.938
186.84
146.281
153.938
161.425
168.604
174.432
179.62
184.133
188.038
191.494
194.473
197.112
199.365
201.327
202.979
204.423
205.604
206.575
207.62
208.166
206.72
180.237
188.103
193.812
199.389
203.993
207.99
211.47
214.431
216.983
219.154
221.021
222.601
223.944
225.05
225.965
226.675
227.209
227.775
228.028
226.349
213.445
219.756
224.397
228.44
232.039
235.022
237.597
239.704
241.487
242.892
244.055
244.934
245.627
246.109
246.454
246.638
246.666
246.776
246.699
244.923
243.217
248.064
251.861
255.028
257.668
259.849
261.657
263.065
264.18
264.986
265.562
265.906
266.073
266.065
265.929
265.656
265.266
264.925
264.491
262.565
270.762
274.675
277.639
279.831
281.654
282.991
284.039
284.719
285.17
285.337
285.329
285.115
284.763
284.254
283.647
282.921
282.096
281.328
280.45
278.356
295.357
298.53
300.902
302.45
303.693
304.396
304.868
304.98
304.887
304.531
304.006
303.297
302.474
301.514
300.475
299.333
298.12
296.957
295.727
293.468
317.715
320.174
321.877
322.813
323.423
323.559
323.428
322.981
322.362
321.531
320.554
319.426
318.188
316.854
315.442
313.951
312.382
310.853
309.267
306.855
338.279
340.091
341.354
341.789
341.977
341.682
341.092
340.192
339.057
337.746
336.28
334.689
332.998
331.231
329.408
327.533
325.609
323.724
321.791
319.19
355.466
356.713
357.563
357.593
357.419
356.771
355.938
354.793
353.429
351.856
350.12
348.271
346.308
344.274
342.163
340.011
337.804
335.644
333.464
330.675
372.366
372.987
373.282
372.751
372.012
370.869
369.506
367.933
366.163
364.237
362.164
359.991
357.728
355.408
353.034
350.632
348.187
345.79
343.399
340.548
385.936
385.977
385.891
385.046
384.061
382.695
381.078
379.276
377.275
375.161
372.895
370.55
368.103
365.608
363.056
360.481
357.862
355.285
352.742
349.726
397.492
397.385
397.008
395.994
394.63
392.961
391.007
388.882
386.563
384.156
381.622
379.044
376.381
373.696
370.968
368.235
365.47
362.748
360.09
357.058
404.966
405.066
404.525
403.747
402.409
400.754
398.781
396.58
394.213
391.691
389.083
386.386
383.641
380.85
378.038
375.214
372.367
369.569
366.87
363.749
413.549
412.96
411.785
410.357
408.606
406.627
404.438
402.083
399.59
396.988
394.303
391.547
388.749
385.905
383.048
380.17
377.278
374.413
371.649
368.566
-579.719
-576.443
-557.065
-534.607
-511.488
-489.051
-467.898
-448.009
-429.181
-411.346
-394.372
-378.268
-362.927
-348.314
-334.443
-321.161
-308.733
-296.765
-285.654
-274.968
-576.465
-572.953
-553.992
-528.989
-505.114
-482.199
-460.565
-440.265
-421.115
-403.015
-385.915
-369.666
-354.273
-339.643
-325.769
-312.501
-300.094
-288.128
-277.105
-266.417
-570.422
-567.239
-547.905
-521.525
-496.548
-473.16
-451.319
-430.804
-411.503
-393.351
-376.16
-359.905
-344.477
-329.858
-315.989
-302.784
-290.47
-278.594
-267.772
-257.174
-562.102
-558.276
-537.685
-510.916
-485.929
-462.26
-440.285
-419.676
-400.304
-382.068
-364.891
-348.653
-333.304
-318.769
-305.014
-291.941
-279.752
-267.977
-257.32
-246.741
-551.269
-546.417
-525.029
-498.001
-472.841
-449.202
-427.191
-406.666
-387.331
-369.21
-352.131
-335.996
-320.744
-306.343
-292.69
-279.758
-267.695
-256.088
-245.651
-235.162
-537.603
-531.991
-509.673
-482.581
-457.61
-434.114
-412.261
-391.845
-372.694
-354.718
-337.804
-321.874
-306.84
-292.638
-279.205
-266.502
-254.625
-243.2
-232.936
-222.535
-521.296
-514.834
-491.88
-464.894
-440.024
-416.824
-395.123
-375.02
-356.096
-338.384
-321.768
-306.085
-291.31
-277.4
-264.252
-251.85
-240.263
-229.157
-219.312
-209.072
-501.735
-494.586
-471.245
-444.68
-420.314
-397.55
-376.288
-356.51
-337.993
-320.638
-304.339
-289.032
-274.603
-261.005
-248.151
-236.055
-224.729
-213.929
-204.335
-194.297
-480.201
-472.34
-448.703
-422.545
-398.433
-376.142
-355.257
-335.946
-317.839
-300.894
-285.05
-270.129
-256.113
-242.939
-230.516
-218.834
-207.889
-197.47
-188.262
-178.424
-455.227
-446.85
-423.305
-397.824
-374.471
-352.842
-332.612
-313.848
-296.306
-279.895
-264.525
-250.103
-236.543
-223.792
-211.76
-200.469
-189.872
-179.852
-170.984
-161.406
-428.776
-419.965
-396.48
-371.488
-348.609
-327.683
-308.016
-289.855
-272.911
-257.05
-242.258
-228.38
-215.366
-203.148
-191.651
-180.865
-170.738
-161.187
-152.74
-143.45
-399.154
-390.125
-366.71
-343.062
-320.903
-300.76
-281.914
-264.446
-248.175
-232.971
-218.785
-205.474
-193.017
-181.333
-170.348
-160.053
-150.375
-141.317
-133.279
-124.306
-368.291
-359.133
-335.617
-313.089
-291.698
-272.32
-254.22
-237.474
-221.937
-207.414
-193.898
-181.276
-169.451
-158.373
-147.979
-138.249
-129.102
-120.587
-112.995
-104.384
-335.161
-325.856
-302.575
-281.186
-260.84
-242.333
-225.139
-209.206
-194.432
-180.638
-167.82
-155.804
-144.618
-134.16
-124.38
-115.22
-106.612
-98.6557
-91.513
-83.2663
-300.833
-291.355
-268.631
-248.213
-228.869
-211.284
-194.953
-179.818
-165.85
-152.82
-140.731
-129.478
-118.959
-109.133
-99.9601
-91.3871
-83.3376
-75.9607
-69.2566
-61.3898
-265.165
-255.425
-233.34
-214.039
-195.687
-179.005
-163.631
-149.363
-136.218
-123.95
-112.593
-101.982
-92.1374
-82.9687
-74.4477
-66.4731
-59.005
-52.2083
-45.9458
-38.4644
-228.429
-218.371
-196.981
-178.843
-161.716
-146.031
-131.615
-118.216
-105.9
-94.4451
-83.8455
-73.9923
-64.8217
-56.2728
-48.3523
-40.9583
-34.0617
-27.8595
-22.0615
-15.0308
-190.668
-180.69
-160.501
-143.303
-127.229
-112.473
-99.0031
-86.4851
-75.0097
-64.3142
-54.4398
-45.2568
-36.7439
-28.8514
-21.5598
-14.753
-8.44858
-2.85857
2.40887
8.95558
-152.148
-142.114
-123.047
-107.01
-92.154
-78.4393
-65.9741
-54.3536
-43.7126
-33.8262
-24.6943
-16.1915
-8.3076
-0.953926
5.84315
12.2137
18.0411
23.1322
28.1262
34.9327
-113.765
-103.851
-86.1278
-71.0515
-57.3264
-44.5723
-33.0415
-22.3191
-12.481
-3.31506
5.18173
13.1045
20.5219
27.4661
34.0143
40.2469
45.9793
51.5041
57.5707
64.2159
-223.527
-166.637
-116.514
-83.5528
-53.1004
-31.2476
-12.5406
2.64408
14.6282
25.4485
33.292
41.0829
46.2446
51.8924
55.326
59.2827
62.1414
63.5391
65.8018
65.7365
-215.597
-161.315
-112.002
-80.2429
-50.2648
-29.0435
-10.7109
4.16453
15.8829
26.5371
34.1942
41.8776
46.8727
52.4712
55.7229
59.7082
62.3688
63.9137
66.0403
65.9875
-207.204
-155.39
-107.147
-76.6991
-47.3497
-26.7748
-8.84302
5.72217
17.1771
27.658
35.1293
42.7049
47.5548
53.0879
56.1757
60.1935
62.6027
64.3699
66.3651
66.2449
-198.053
-149.033
-102.099
-72.9113
-44.2276
-24.2903
-6.81142
7.44204
18.5925
28.895
36.1631
43.6098
48.288
53.7531
56.6448
60.6962
62.8881
64.8047
66.6095
66.4907
-188.296
-142.118
-96.689
-68.8937
-41.0042
-21.7207
-4.73294
9.20511
20.0517
30.1704
37.2384
44.5612
49.083
54.4563
57.1755
61.2552
63.2133
65.246
66.8321
66.7779
-177.77
-134.773
-91.0442
-64.6216
-37.5976
-18.9621
-2.50258
11.116
21.6269
31.5501
38.4041
45.5796
49.9244
55.2068
57.7183
61.8298
63.5696
65.7235
67.0613
67.062
-166.47
-126.95
-85.0948
-60.1475
-34.0734
-16.1024
-0.218095
13.0756
23.2492
32.9761
39.6194
46.6528
50.8311
56.0028
58.3034
62.431
63.9413
66.2339
67.2767
67.3834
-154.577
-118.566
-78.8451
-55.4053
-30.3903
-13.0785
2.20656
15.1672
24.9842
34.4897
40.9182
47.7872
51.7896
56.8552
58.9099
63.1929
64.3343
66.8211
67.4837
67.707
-142.04
-109.898
-72.3614
-50.4907
-26.5803
-9.94444
4.68992
17.3099
26.7689
36.0575
42.2705
48.9794
52.8102
57.7412
59.5694
64.0816
64.7961
67.5104
67.6641
68.0566
-128.729
-100.566
-65.5329
-45.2986
-22.6307
-6.6662
7.30333
19.5694
28.6535
37.705
43.702
50.2269
53.896
58.7077
60.2854
65.058
65.3007
68.1634
67.8437
68.4252
-114.876
-91.1337
-58.5397
-39.9633
-18.5571
-3.28048
9.97559
21.8793
30.5897
39.4088
45.1884
51.5377
55.0343
59.7504
61.1546
66.0712
65.8386
68.7491
68.0382
68.8133
-100.133
-81.0203
-51.2129
-34.3521
-14.3575
0.234117
12.7689
24.2912
32.6169
41.1804
46.7485
52.9072
56.2994
60.9226
62.1868
67.0788
66.3585
69.3839
68.242
69.225
-84.8752
-70.8583
-43.7691
-28.6069
-10.0355
3.84834
15.6217
26.752
34.6973
43.0056
48.3596
54.3359
57.6123
62.0761
63.2555
68.0434
66.8415
70.0491
68.4553
69.672
-68.737
-60.1515
-36.0811
-22.6131
-5.59953
7.5816
18.5894
29.3033
36.8608
44.8938
50.0316
55.822
58.9988
63.2826
64.4471
69.0195
67.4193
70.7336
68.6598
70.1607
-51.9072
-49.3266
-28.3889
-16.5561
-1.08553
11.3679
21.5926
31.8841
39.0635
46.8227
51.7456
57.3216
60.3852
64.5096
65.6142
69.9616
68.0862
71.4659
68.8913
70.6925
-34.011
-37.7987
-20.4003
-10.2154
3.57264
15.2793
24.7063
34.5395
41.3361
48.8035
53.5197
58.8752
61.8095
65.746
66.8195
70.9253
68.7999
72.1904
69.1391
71.2289
-16.0146
-26.1932
-12.2685
-3.59738
8.5136
19.4018
27.9958
37.3298
43.7248
50.8778
55.3695
60.4867
63.2719
67.0332
68.0196
71.953
69.6121
72.9592
69.432
71.7732
2.40893
-15.2855
-4.90651
2.53511
13.1541
23.3649
31.2051
40.0834
46.1126
52.9748
57.2683
62.1483
64.7711
68.3718
69.1848
73.0127
70.499
74.0027
69.8391
72.5179
26.3726
-2.3816
1.78362
7.7671
17.0843
26.6031
33.8115
42.3182
48.1134
54.7776
58.9627
63.6385
66.1218
69.5307
70.2318
74.0167
71.342
74.7071
70.1639
73.0511
51.8604
17.162
13.8148
17.5042
24.0385
32.0822
38.1121
45.7504
51.005
57.1609
61.045
65.4593
67.7223
71.0074
71.6289
75.194
72.3228
74.7016
70.3026
73.8815
107.063
115.079
95.6955
90.7109
81.4002
80.8625
77.499
77.9857
77.0215
78.3231
78.4628
80.6577
80.9469
83.1444
82.728
84.6404
82.7439
85.3941
81.6058
88.4758
172.127
161.917
137.024
128.738
116.53
110.781
104.674
101.519
98.5663
97.0294
95.5297
94.7701
94.1602
94.0748
93.4639
94.0417
92.9046
92.8879
91.5076
93.0545
196.779
182.833
167.933
156.613
146.431
138.97
132.443
127.855
123.656
120.968
118.228
116.546
114.582
113.729
112.504
111.873
111.384
110.762
110.97
111.184
206.468
195.393
182.464
173.55
164.118
157.02
150.244
144.821
139.93
135.834
132.328
129.347
126.767
124.346
122.537
120.781
119.532
118.591
118.046
117.834
205.873
197.588
189.41
181.79
174.924
168.388
162.836
157.839
153.438
149.614
146.086
143.168
140.376
138.079
135.697
133.74
131.611
130.107
128.944
128.87
208.367
202.123
194.814
188.735
182.72
177.544
172.399
167.856
163.532
159.711
156.141
152.91
149.933
147.172
144.684
142.253
140.27
138.124
137.088
136.481
206.192
201.083
196.961
192.384
187.922
183.693
179.56
175.728
172.108
168.856
165.579
162.851
159.913
157.576
154.813
152.546
150.021
147.785
146.068
145.377
207.994
204.627
200.376
196.122
192.141
188.653
185.149
181.968
178.682
175.805
172.848
170.232
167.522
165.094
162.638
160.365
157.829
155.701
153.468
152.77
207.226
204.298
201.458
199.067
196.297
193.442
190.583
187.947
185.232
182.84
180.306
178.186
175.717
173.875
171.283
169.7
166.809
165.475
162.741
162.189
208.821
206.688
204.211
201.877
199.27
197.016
194.641
192.567
190.365
188.414
186.335
184.555
182.544
180.916
178.87
177.354
174.867
173.651
170.192
170.024
209.931
208.304
206.386
204.663
202.812
201.052
199.191
197.522
195.833
194.348
192.795
191.517
190.06
188.995
187.52
186.693
184.774
184.641
181.189
182.866
211.277
209.88
208.258
206.846
205.32
203.988
202.606
201.387
200.19
199.127
198.149
197.264
196.565
195.872
195.529
195.033
195.048
194.939
195.838
197.309
212.738
211.693
210.447
209.416
208.255
207.31
206.259
205.471
204.589
204.019
203.401
203.075
202.849
202.744
203.123
203.152
204.553
204.427
207.665
208.067
213.998
213.133
212.128
211.295
210.41
209.681
208.952
208.397
207.866
207.562
207.275
207.322
207.336
207.865
208.275
209.457
210.432
212.46
214.877
216.16
215.46
214.761
213.973
213.348
212.671
212.182
211.66
211.365
211.041
210.995
210.937
211.2
211.499
212.157
212.937
214.118
215.5
217.46
219.59
223.538
216.386
215.777
215.138
214.617
214.099
213.695
213.306
213.071
212.871
212.877
212.893
213.214
213.453
214.128
214.67
215.821
216.65
218.322
219.034
229.869
217.405
216.903
216.388
215.977
215.577
215.286
215.053
214.983
214.903
215.031
215.121
215.475
215.699
216.446
216.979
218.023
218.633
220.158
220.847
223.494
218.055
217.59
217.144
216.786
216.46
216.242
216.039
215.911
215.837
215.892
215.983
216.249
216.507
217.023
217.372
218.086
218.458
219.519
219.748
227.576
218.556
218.125
217.723
217.392
217.098
216.888
216.705
216.633
216.598
216.72
216.792
217.109
217.34
217.789
218.143
218.748
219.029
219.832
220.036
220.916
218.777
218.357
217.98
217.663
217.397
217.198
217.065
216.994
216.975
217.022
217.121
217.329
217.54
217.884
218.153
218.612
218.983
219.591
219.849
223.993
332.516
328.892
324.594
319.633
314.007
307.631
300.696
292.788
284.487
275.1
264.71
254.192
242.844
230.581
218.052
204.225
190.588
175.494
160.904
145.472
302.322
299.908
297.168
294.153
290.798
287.147
283.232
278.869
274.671
269.441
263.767
258.978
253.451
247.869
242.011
236.039
229.474
221.537
212.594
202.785
266.569
264.871
263.038
261.132
259.018
256.937
254.467
252.214
249.38
246.751
243.648
240.48
236.65
232.609
228.877
225.512
221.861
218.373
214.254
210.535
254.163
252.856
251.48
250.036
248.514
246.911
245.228
243.437
241.592
239.601
237.64
235.428
233.399
230.992
228.115
225.966
223.209
220.85
218.008
215.505
238.292
237.285
236.241
235.172
234.047
232.922
231.712
230.541
229.188
227.953
226.447
225.083
223.516
221.768
219.915
218.047
216.211
214.592
212.967
211.408
232.543
231.722
230.871
230.008
229.112
228.218
227.257
226.32
225.244
224.257
223.042
221.922
220.789
219.559
218.491
217.221
215.94
214.857
213.509
212.372
225.757
225.079
224.392
223.678
222.954
222.197
221.455
220.656
219.83
219.016
217.895
216.932
215.715
214.789
213.769
212.787
211.866
210.968
210.002
209.073
223.04
222.484
221.91
221.335
220.742
220.141
219.528
218.906
218.272
217.617
216.958
216.247
215.553
214.823
214.092
213.388
212.616
211.879
211.096
210.375
220.323
219.841
219.362
218.85
218.28
217.622
217.01
216.395
215.801
215.216
214.658
214.09
213.523
212.935
212.321
211.7
211.057
210.423
209.759
209.118
219.367
218.951
218.525
218.094
217.655
217.216
216.761
216.299
215.831
215.353
214.873
214.381
213.895
213.403
212.916
212.416
211.919
211.403
210.891
210.362
218.539
218.208
217.871
217.524
217.172
216.81
216.444
216.07
215.692
215.303
214.913
214.511
214.105
213.679
213.26
212.829
212.407
211.973
211.547
211.111
218.827
218.522
218.212
217.898
217.578
217.256
216.929
216.598
216.264
215.925
215.583
215.236
214.889
214.532
214.177
213.809
213.446
213.068
212.698
212.311
218.881
218.623
218.363
218.099
217.834
217.565
217.294
217.019
216.744
216.463
216.184
215.897
215.613
215.321
215.033
214.736
214.445
214.142
213.849
213.541
219.473
219.234
218.994
218.752
218.507
218.261
218.013
217.765
217.516
217.265
217.011
216.756
216.5
216.241
215.985
215.722
215.465
215.2
214.944
214.677
219.864
219.675
219.483
219.293
219.102
218.911
218.719
218.516
218.304
218.086
217.873
217.655
217.445
217.23
217.022
216.808
216.604
216.393
216.193
215.984
220.526
220.318
220.11
219.902
219.694
219.486
219.279
219.079
218.891
218.708
218.526
218.343
218.16
217.977
217.794
217.609
217.427
217.239
217.056
216.865
220.947
220.769
220.592
220.416
220.24
220.066
219.894
219.723
219.553
219.385
219.217
219.051
218.887
218.724
218.564
218.404
218.248
218.091
217.939
217.786
221.305
221.135
220.966
220.799
220.635
220.472
220.311
220.152
219.995
219.84
219.687
219.536
219.386
219.239
219.093
218.949
218.808
218.668
218.531
218.395
221.611
221.448
221.286
221.127
220.969
220.814
220.66
220.508
220.359
220.211
220.066
219.923
219.783
219.644
219.508
219.375
219.244
219.116
218.989
218.866
221.74
221.58
221.422
221.266
221.112
220.96
220.81
220.663
220.517
220.374
220.233
220.094
219.957
219.823
219.692
219.563
219.436
219.312
219.191
219.072
249.546
248.137
244.645
241.482
238.45
235.205
231.783
228.115
224.158
219.825
215.096
209.871
204.158
197.791
190.842
182.998
174.352
164.962
153.05
147.085
259.09
259.003
257.052
254.853
252.516
249.9
246.99
243.794
240.278
236.41
232.15
227.428
222.23
216.43
210.092
202.887
195.032
186.173
175.383
169.439
270.885
271.077
269.284
267.445
265.503
263.311
260.907
258.259
255.335
252.08
248.479
244.444
239.983
234.943
229.384
222.999
216.074
208.024
198.731
192.352
282.724
283.174
281.906
280.605
279.197
277.553
275.666
273.544
271.124
268.401
265.309
261.823
257.892
253.451
248.523
242.87
236.725
229.494
221.506
216.134
293.916
294.553
293.605
292.655
291.651
290.43
289.026
287.415
285.564
283.429
280.995
278.189
274.998
271.302
267.113
262.2
256.764
250.257
243.061
239.018
304.93
305.899
305.438
305.012
304.532
303.879
303.026
301.984
300.682
299.12
297.225
294.98
292.319
289.198
285.599
281.337
276.542
270.719
263.812
260.063
315.403
316.586
316.528
316.456
316.341
316.064
315.615
315.004
314.177
313.123
311.802
310.19
308.23
305.871
303.055
299.627
295.675
290.695
284.692
280.562
324.738
326.289
326.759
327.198
327.626
327.918
328.056
328.043
327.824
327.394
326.687
325.707
324.385
322.704
320.59
317.934
314.779
310.672
305.878
301.219
334.401
336.196
337.01
337.795
338.532
339.141
339.588
339.904
340.039
340.03
339.804
339.388
338.671
337.678
336.265
334.448
332.119
329.074
325.575
321.07
342.256
344.227
345.418
346.594
347.758
348.828
349.798
350.683
351.438
352.073
352.516
352.748
352.703
352.394
351.699
350.662
349.1
347.065
344.387
340.824
350.564
352.801
354.271
355.758
357.224
358.618
359.913
361.137
362.209
363.164
363.924
364.537
364.891
365.03
364.815
364.335
363.404
362.121
360.219
357.591
356.904
359.228
360.979
362.766
364.561
366.311
367.989
369.609
371.121
372.545
373.817
374.953
375.855
376.569
376.988
377.155
376.889
376.288
375.044
373.05
362.972
365.535
367.584
369.667
371.76
373.789
375.746
377.639
379.421
381.114
382.644
384.068
385.268
386.354
387.1
387.685
387.788
387.68
386.851
385.435
367.682
370.351
372.583
374.873
377.155
379.404
381.607
383.77
385.864
387.891
389.809
391.621
393.272
394.769
395.996
397.018
397.6
397.968
397.587
396.72
371.399
374.24
376.695
379.2
381.717
384.203
386.653
389.061
391.404
393.661
395.812
397.844
399.711
401.412
402.851
404.114
404.977
405.672
405.661
405.569
374.081
377.02
379.555
382.196
384.847
387.491
390.085
392.677
395.177
397.657
400.011
402.302
404.403
406.39
408.089
409.632
410.738
411.639
411.97
412.005
375.616
378.658
381.267
384.01
386.781
389.536
392.276
394.99
397.663
400.283
402.81
405.236
407.507
409.604
411.472
413.085
414.345
415.327
415.746
415.563
375.76
378.809
381.525
384.361
387.231
390.095
392.939
395.779
398.566
401.308
403.954
406.518
408.93
411.217
413.29
415.148
416.766
418.001
418.901
419.603
374.769
377.856
380.606
383.479
386.378
389.27
392.143
395.019
397.829
400.63
403.315
405.964
408.449
410.849
413.016
415.025
416.709
418.037
418.788
419.339
372.188
375.305
378.124
381.045
383.989
386.918
389.837
392.725
395.582
398.372
401.097
403.72
406.23
408.584
410.788
412.759
414.553
416.002
417.139
417.738
79.4149
77.4383
75.3733
73.2693
71.2063
69.1573
67.1095
65.0124
62.9889
60.5546
58.4291
56.5605
54.0765
51.3889
49.4218
47.5567
47.4918
48.6882
48.4507
48.524
84.5579
82.4835
80.3316
78.1197
75.9232
73.6751
71.4531
69.1516
66.8862
64.5281
61.9761
59.524
57.5229
55.0547
52.7959
51.7312
52.0858
50.6527
51.2519
50.7169
89.2103
86.9453
84.7038
82.4086
80.0704
77.6631
75.3054
72.8156
70.386
67.8285
65.3018
62.5687
59.8716
57.7526
55.3597
53.616
52.2058
51.6705
52.3676
51.8839
93.8139
91.4308
89.1319
86.7258
84.2932
81.7136
79.1874
76.5355
73.8916
71.1878
68.4576
65.6778
62.7846
60.1818
57.6184
55.023
53.2114
54.5095
54.0654
54.2007
98.3614
95.83
93.3934
90.7914
88.2077
85.4381
82.7126
79.8288
76.9535
73.9943
71.015
67.9397
64.8998
61.7801
59.2852
56.9951
55.2706
55.0142
53.8464
53.9324
102.993
100.307
97.7763
95.0037
92.2623
89.2835
86.3138
83.2001
80.0143
76.7433
73.3783
70.0148
66.4377
62.9882
59.5741
56.3955
53.8886
51.8491
51.9067
51.1561
107.727
104.923
102.248
99.2503
96.3123
93.0937
89.8338
86.3776
82.8089
79.0975
75.2433
71.234
67.1376
62.872
58.5461
54.5155
50.5366
46.8952
46.4507
45.3426
113.122
110.102
107.281
104.026
100.87
97.3998
93.8165
90.0438
86.0547
81.8561
77.4145
72.7659
67.7618
62.4942
57.0728
51.1467
45.0955
39.8035
36.8394
35.8046
118.838
115.575
112.637
109.155
105.763
102.075
98.1951
94.0742
89.6982
85.0472
80.0762
74.7586
69.0275
62.9589
56.2926
49.0625
41.3462
34.0014
27.6046
26.2287
124.93
121.571
118.588
114.977
111.423
107.57
103.444
99.0595
94.3432
89.2712
83.8207
77.9502
71.5607
64.6814
57.0637
48.8531
39.946
31.1054
21.0732
19.2045
131.835
128.327
125.313
121.633
117.905
113.931
109.617
104.995
100.016
94.6373
88.8033
82.4872
75.5741
68.0878
59.8459
50.8544
41.1224
30.3048
20.4786
18.1448
139.536
135.98
132.926
129.258
125.449
121.398
116.961
112.185
107.018
101.389
95.3018
88.6668
81.391
73.5065
64.7574
55.2576
44.8685
33.3875
22.263
19.5516
148.219
144.606
141.544
137.931
134.051
129.966
125.465
120.592
115.307
109.547
103.265
96.4069
88.8759
80.6936
71.5936
61.806
50.9504
38.4682
27.1275
24.6878
157.956
154.262
151.246
147.76
143.889
139.813
135.308
130.398
125.078
119.238
112.89
105.914
98.2523
89.869
80.5177
70.5567
58.9654
46.8145
34.7488
30.7233
168.287
164.624
161.725
158.41
154.624
150.615
146.188
141.346
136.069
130.277
123.939
116.97
109.304
100.876
91.5533
81.474
69.7538
57.9521
46.0297
41.4843
179.929
176.239
173.484
170.46
166.783
162.884
158.575
153.825
148.656
142.957
136.735
129.859
122.292
113.962
104.735
94.6694
83.1999
71.0321
58.6347
53.7424
191.853
188.458
185.902
183.038
179.59
175.839
171.701
167.132
162.131
156.612
150.567
143.889
136.559
128.479
119.552
109.867
98.7909
87.0069
74.2999
69.1805
204.776
201.639
199.417
196.809
193.597
190.058
186.135
181.773
176.987
171.7
165.906
159.477
152.423
144.606
136.027
126.606
115.863
104.652
91.5712
86.2915
220.874
217.342
214.741
212.127
208.909
205.365
201.507
197.249
192.604
187.494
181.919
175.77
169.055
161.635
153.506
144.553
134.437
123.774
110.76
105.146
240.733
236.925
232.616
229.17
225.51
221.647
217.628
213.376
208.841
203.954
198.675
192.874
186.564
179.567
171.956
163.472
153.949
143.864
131.224
125.368
167.786
168.217
167.196
166.665
164.723
163.057
161.598
159.683
157.909
155.599
153.158
150.357
146.575
142.996
136.984
132.341
122.92
115.99
102.102
88.9298
168.05
168.484
167.653
167.231
165.534
163.924
162.646
160.837
159.209
156.99
154.704
152.035
148.505
145.126
139.375
135.05
125.855
119.629
105.964
93.8546
168.34
168.796
168.182
167.715
166.365
164.8
163.715
162.026
160.537
158.427
156.302
153.713
150.306
147.127
141.614
137.644
128.819
123.237
109.899
98.8646
168.571
169.012
168.691
168.131
167.178
165.633
164.756
163.179
161.829
159.806
157.837
155.384
152.227
149.211
143.978
140.358
131.783
126.904
113.755
103.902
168.841
169.33
169.283
168.547
167.996
166.491
165.812
164.365
163.145
161.226
159.415
157.021
154.028
151.174
146.192
142.89
134.658
130.527
117.5
108.796
169.066
169.567
169.84
168.958
168.793
167.333
166.839
165.527
164.433
162.599
160.937
158.671
155.891
153.21
148.515
145.586
137.654
134.514
121.424
113.971
169.318
169.823
170.412
169.394
169.596
168.199
167.888
166.715
165.743
164.005
162.497
160.281
157.685
155.133
150.705
148.074
140.456
138.272
125.284
119.474
169.546
169.996
170.971
169.831
170.388
169.06
168.913
167.891
167.03
165.372
164.004
161.893
159.486
157.1
152.983
150.699
143.378
141.964
129.364
125.618
169.791
170.151
171.533
170.276
171.186
169.952
169.96
169.089
168.337
166.768
165.546
163.478
161.26
158.979
155.161
153.102
146.262
145.6
133.175
131.556
170.025
170.336
172.11
170.72
171.978
170.85
170.991
170.281
169.628
168.13
167.035
165.044
162.994
160.868
157.373
155.636
149.245
149.267
137.46
137.456
170.274
170.612
172.712
171.155
172.781
171.783
172.048
171.493
170.935
169.516
168.555
166.596
164.727
162.703
159.519
157.99
152.166
152.931
141.874
143.463
170.51
170.917
173.352
171.587
173.613
172.728
173.095
172.702
172.231
170.872
170.021
168.111
166.39
164.505
161.648
160.426
155.19
156.682
146.618
150.019
170.742
171.143
173.998
172.023
174.498
173.703
174.169
173.93
173.543
172.25
171.516
169.621
168.065
166.293
163.752
162.749
158.152
160.496
151.517
156.925
170.975
171.347
174.642
172.46
175.322
174.699
175.242
175.161
174.848
173.603
172.96
171.083
169.655
168.007
165.791
165.08
161.215
164.374
156.704
164.448
171.204
171.525
175.342
172.91
176.105
175.721
176.333
176.396
176.155
174.955
174.404
172.509
171.218
169.696
167.788
167.307
164.208
168.324
162.074
172.723
171.399
171.607
175.96
173.372
176.88
176.767
177.435
177.635
177.461
176.294
175.807
173.887
172.711
171.309
169.722
169.541
167.372
172.429
167.987
181.821
171.694
171.575
176.564
173.865
177.975
177.896
178.619
178.965
178.847
177.723
177.32
175.399
174.385
173.136
171.925
172.088
170.666
176.688
174.109
191.33
171.997
171.543
177.543
174.403
179.234
179.037
179.731
180.218
180.13
178.994
178.606
176.574
175.628
174.486
173.524
173.86
173.405
180.354
179.521
200.574
171.436
171.094
178.033
174.843
179.707
179.984
180.568
181.239
181.066
179.834
179.367
177.325
176.446
175.474
174.737
175.257
175.701
184.027
186.93
214.62
172.568
170.082
178.422
175.374
180.949
181.304
182.237
182.698
183.013
181.984
181.783
180.212
179.921
179.445
179.679
180.611
183.397
192.329
200.633
232.083
197.687
175.013
192.005
186.547
194.511
191.961
196.646
196.405
200.07
202.172
206.237
210.363
216.196
219.741
227.578
230.609
241.855
241.4
258.248
255.162
195.815
193.214
195.746
195.305
198.038
198.538
201.481
202.915
206.3
208.939
213.192
217.147
222.919
228.119
235.527
241.791
250.989
258.356
270.949
280.834
204.836
204.239
205.413
205.725
207.908
209
211.383
213.279
216.108
218.738
221.94
225.535
229.679
233.732
238.668
243.5
249.447
255.117
262.565
270.986
207.505
207.582
208.301
209.169
210.651
212.222
214.28
216.413
219.126
221.793
225.282
228.499
232.26
236.355
240.665
245.479
250.09
255.777
259.986
264.834
210.759
211.073
211.687
213.113
214.444
215.996
217.73
219.52
221.556
223.669
225.975
228.276
230.843
233.484
236.064
239.132
241.485
244.986
247.698
251.851
211.902
212.145
212.948
214.342
215.667
217.305
219.012
220.827
222.873
224.834
227.04
229.284
231.563
234.086
236.179
239.032
240.737
243.205
243.562
244.572
211.86
212.321
213.327
214.859
216.359
217.844
219.419
220.852
222.432
223.828
225.376
226.718
228.144
229.358
230.595
231.838
233.342
234.658
235.648
236.706
212.088
212.546
213.68
215.406
216.993
218.555
220.152
221.569
223.141
224.445
225.919
227.135
228.428
229.53
230.537
231.336
232.253
232.886
232.461
232.554
210.305
211.953
213.043
215.282
217.02
218.593
220.144
221.317
222.635
223.558
224.628
225.357
226.159
226.73
227.485
227.824
228.075
228.077
228.189
228.158
211.122
211.861
214.488
216.103
218.458
219.712
221.386
222.319
223.594
224.278
225.244
225.68
226.403
226.634
227.022
227.048
227.333
227.285
226.948
226.438
213.74
214.127
217.052
218.415
220.592
221.643
222.977
223.664
224.542
224.983
225.524
225.769
226.045
226.076
226.564
226.166
226.056
225.338
225.049
224.689
219.773
218.252
222.355
222.737
224.234
224.692
225.462
225.68
226.166
226.227
226.494
226.443
226.458
226.337
226.314
225.952
225.719
225.432
225.004
224.28
231.998
230.091
229.599
229.064
229.504
229.163
229.262
228.995
228.916
228.641
228.464
228.155
227.93
227.479
227.012
226.544
226.044
225.227
224.547
223.568
239.609
238.242
235.508
235.022
233.54
232.948
231.952
231.359
230.67
230.03
229.481
228.813
228.321
227.634
227.147
226.499
225.974
225.361
224.768
224.122
246.954
245.639
241.65
240.032
238.023
236.477
235.343
233.917
233.137
232.028
231.373
230.445
229.819
228.985
228.301
227.525
226.76
225.973
225.2
224.329
251.29
247.345
244.46
241.714
240.127
238.151
237.044
235.611
234.62
233.423
232.537
231.486
230.67
229.698
228.914
227.993
227.222
226.342
225.623
224.81
255.409
244.525
243.723
241.692
240.403
238.739
237.401
235.998
234.905
233.685
232.756
231.677
230.854
229.882
229.135
228.224
227.508
226.664
225.918
225.105
247.035
244.482
243.328
241.517
240.576
239.027
238.076
236.712
235.748
234.541
233.596
232.508
231.594
230.597
229.715
228.786
227.94
227.062
226.252
225.419
248.436
242.584
242.353
241.118
240.238
238.96
237.938
236.728
235.718
234.584
233.624
232.567
231.662
230.679
229.824
228.906
228.088
227.23
226.436
225.634
245.329
243.539
242.905
241.408
240.495
239.187
238.181
236.991
235.97
234.869
233.871
232.846
231.887
230.928
230.013
229.111
228.243
227.392
226.567
225.766
274.414
282.05
291.602
299.346
306.082
311.996
317.717
321.804
327.053
330.726
333.856
336.67
338.509
340.094
340.86
341.07
340.588
339.549
337.827
335.544
290.769
292.78
295.89
298.427
302.213
305.388
306.667
307.96
309.24
309.92
310.795
310.983
311.249
311.038
310.681
309.985
309.053
307.793
306.287
304.435
276.023
276.157
276.958
277.172
277.744
277.824
278.193
278.019
277.942
277.534
277.197
276.555
276
275.152
274.349