/*--------------------------------*- C++ -*----------------------------------*\
  =========                 |
  \\      /  F ield         | OpenFOAM: The Open Source CFD Toolbox
   \\    /   O peration     | Website:  https://openfoam.org
    \\  /    A nd           | Version:  9
     \\/     M anipulation  |
\*---------------------------------------------------------------------------*/
FoamFile
{
    format      ascii;
    class       surfaceScalarField;
    location    "7.8";
    object      phi;
}
// * * * * * * * * * * * * * * * * * * * * * * * * * * * * * * * * * * * * * //

dimensions      [0 3 -1 0 0 0 0];

internalField   nonuniform List<scalar> 
92080
(
-0.0059063
-0.533622
0.539528
-0.035706
-1.04116
1.07096
-0.0836734
-1.12313
1.1711
-0.130457
-1.10518
1.15196
-0.17617
-1.08572
1.13143
-0.221698
-1.06685
1.11238
-0.266376
-1.0504
1.09508
-0.310645
-1.03392
1.07819
-0.354144
-1.01981
1.06331
-0.396196
-1.0055
1.04756
-0.43789
-0.992476
1.03417
-0.478445
-0.979977
1.02053
-0.519199
-0.967751
1.00851
-0.55959
-0.955935
0.996326
-0.599299
-0.944301
0.984011
-0.638314
-0.933744
0.972758
-0.676145
-0.922863
0.960694
-0.714369
-0.911015
0.949239
-0.752384
-0.900204
0.938219
-0.894197
0.927358
-0.785545
-0.00816339
-0.525459
-0.0400044
-1.00932
-0.0873795
-1.07575
-0.135646
-1.05691
-0.182311
-1.03905
-0.228674
-1.02049
-0.274434
-1.00464
-0.319288
-0.989068
-0.36353
-0.975571
-0.407739
-0.961296
-0.45149
-0.948725
-0.494522
-0.936946
-0.535883
-0.92639
-0.576422
-0.915396
-0.616492
-0.904231
-0.655501
-0.894735
-0.693066
-0.885298
-0.727953
-0.876128
-0.760967
-0.867189
-0.860426
-0.794738
-0.00931451
-0.516144
-0.0460647
-0.972574
-0.0964918
-1.02533
-0.145905
-1.0075
-0.193902
-0.991055
-0.241236
-0.973155
-0.288391
-0.957483
-0.335519
-0.94194
-0.38127
-0.929819
-0.425571
-0.916995
-0.469824
-0.904471
-0.513764
-0.893006
-0.557526
-0.882629
-0.599745
-0.873176
-0.641532
-0.862444
-0.683152
-0.853116
-0.724193
-0.844257
-0.764994
-0.835328
-0.804619
-0.827564
-0.822103
-0.842942
-0.00736523
-0.508779
-0.0477569
-0.932182
-0.0976924
-0.975391
-0.148464
-0.956727
-0.197974
-0.941545
-0.246812
-0.924317
-0.29458
-0.909715
-0.342332
-0.894188
-0.390418
-0.881733
-0.436984
-0.87043
-0.482817
-0.858637
-0.527833
-0.84799
-0.57246
-0.838002
-0.616079
-0.829558
-0.658135
-0.820387
-0.699802
-0.811449
-0.740231
-0.803827
-0.780009
-0.79555
-0.820103
-0.78747
-0.781141
-0.861066
-0.00258628
-0.506192
-0.0469086
-0.88786
-0.101029
-0.921271
-0.154818
-0.902938
-0.206366
-0.889997
-0.256608
-0.874074
-0.306177
-0.860147
-0.354771
-0.845594
-0.403609
-0.832895
-0.451701
-0.822338
-0.498825
-0.811514
-0.546107
-0.800708
-0.592716
-0.791394
-0.639449
-0.782824
-0.684785
-0.775052
-0.729884
-0.76635
-0.774542
-0.75917
-0.817554
-0.752538
-0.859343
-0.745682
-0.739618
-0.900865
0.000486981
-0.506679
-0.0443048
-0.843068
-0.0996457
-0.86593
-0.154895
-0.847689
-0.209049
-0.835843
-0.261124
-0.821999
-0.311587
-0.809684
-0.361185
-0.795995
-0.410898
-0.783183
-0.460464
-0.772772
-0.508397
-0.763581
-0.555323
-0.753781
-0.602244
-0.744473
-0.648461
-0.736607
-0.694281
-0.729232
-0.738804
-0.721826
-0.783752
-0.714222
-0.828612
-0.707678
-0.872747
-0.701546
-0.695741
-0.916624
0.00137265
-0.508052
-0.0464017
-0.795294
-0.103278
-0.809053
-0.16017
-0.790796
-0.216067
-0.779947
-0.270585
-0.767481
-0.323302
-0.756967
-0.373466
-0.745831
-0.423237
-0.733412
-0.473404
-0.722604
-0.523962
-0.713022
-0.573248
-0.704495
-0.622214
-0.695508
-0.670928
-0.687893
-0.71904
-0.68112
-0.766209
-0.674657
-0.812344
-0.668086
-0.858101
-0.661922
-0.903424
-0.656222
-0.650976
-0.948189
0.000955937
-0.509008
-0.0492369
-0.745101
-0.107281
-0.751009
-0.163482
-0.734596
-0.21916
-0.724268
-0.273771
-0.71287
-0.328284
-0.702454
-0.380525
-0.693589
-0.431133
-0.682805
-0.480475
-0.673262
-0.529598
-0.663899
-0.578459
-0.655634
-0.626778
-0.647189
-0.675367
-0.639303
-0.72381
-0.632678
-0.771973
-0.626494
-0.819629
-0.620431
-0.867159
-0.614391
-0.914258
-0.609123
-0.603912
-0.961323
-0.00729403
-0.501714
-0.0603656
-0.692029
-0.117023
-0.694351
-0.174042
-0.677577
-0.231165
-0.667146
-0.28613
-0.657904
-0.341517
-0.647067
-0.395485
-0.639621
-0.448173
-0.630118
-0.500137
-0.621298
-0.5509
-0.613137
-0.600831
-0.605704
-0.649768
-0.598251
-0.69822
-0.590852
-0.746988
-0.58391
-0.795452
-0.57803
-0.84335
-0.572532
-0.890722
-0.567019
-0.938312
-0.561534
-0.556751
-0.985472
-0.0155932
-0.486121
-0.0701925
-0.63743
-0.128146
-0.636397
-0.182438
-0.623284
-0.237566
-0.612018
-0.291433
-0.604037
-0.34525
-0.59325
-0.398905
-0.585966
-0.451138
-0.577885
-0.502953
-0.569483
-0.554891
-0.561199
-0.606082
-0.554512
-0.65659
-0.547744
-0.706029
-0.541412
-0.754917
-0.535022
-0.803906
-0.52904
-0.852619
-0.52382
-0.900368
-0.51927
-0.947179
-0.514724
-0.509633
-0.994297
-0.0244413
-0.46168
-0.0827481
-0.579123
-0.142164
-0.576982
-0.197594
-0.567854
-0.253262
-0.55635
-0.307325
-0.549975
-0.360589
-0.539986
-0.414425
-0.53213
-0.466784
-0.525526
-0.51763
-0.518637
-0.568072
-0.510756
-0.618775
-0.503809
-0.668923
-0.497597
-0.7185
-0.491835
-0.767432
-0.48609
-0.816101
-0.480371
-0.864988
-0.474933
-0.914553
-0.469704
-0.963217
-0.46606
-0.462066
-1.01078
-0.0310589
-0.430621
-0.0882446
-0.521937
-0.147726
-0.5175
-0.205321
-0.51026
-0.26016
-0.501511
-0.314391
-0.495743
-0.366224
-0.488154
-0.418794
-0.47956
-0.471963
-0.472357
-0.523825
-0.466775
-0.57427
-0.460311
-0.624275
-0.453804
-0.67454
-0.447331
-0.72458
-0.441795
-0.773543
-0.437126
-0.821862
-0.432052
-0.869237
-0.427558
-0.916464
-0.422477
-0.964634
-0.41789
-0.41412
-1.01258
-0.0365962
-0.394025
-0.0954566
-0.463077
-0.155876
-0.457081
-0.21305
-0.453086
-0.270493
-0.444069
-0.327219
-0.439017
-0.380297
-0.435075
-0.431468
-0.42839
-0.482508
-0.421317
-0.534029
-0.415253
-0.58455
-0.409791
-0.633783
-0.404572
-0.68211
-0.399005
-0.731011
-0.392894
-0.780313
-0.387824
-0.829155
-0.38321
-0.877743
-0.37897
-0.925108
-0.375112
-0.971792
-0.371207
-0.366984
-1.01893
-0.0417948
-0.35223
-0.100013
-0.404859
-0.159399
-0.397695
-0.217411
-0.395073
-0.274137
-0.387342
-0.332999
-0.380155
-0.391851
-0.376223
-0.447033
-0.373207
-0.500253
-0.368098
-0.552425
-0.36308
-0.604183
-0.358033
-0.655519
-0.353236
-0.705116
-0.349407
-0.753341
-0.344669
-0.801298
-0.339867
-0.849459
-0.335049
-0.897571
-0.330858
-0.945962
-0.326721
-0.993576
-0.323592
-0.320165
-1.0404
-0.0444344
-0.307795
-0.0974072
-0.351886
-0.153316
-0.341786
-0.210109
-0.338281
-0.262384
-0.335067
-0.316341
-0.326198
-0.372791
-0.319774
-0.430046
-0.315951
-0.485878
-0.312267
-0.540247
-0.308711
-0.593463
-0.304818
-0.646132
-0.300567
-0.698964
-0.296575
-0.75051
-0.293122
-0.800719
-0.289658
-0.849998
-0.285771
-0.898602
-0.282254
-0.946897
-0.278426
-0.995384
-0.275106
-0.271827
-1.04372
-0.0514089
-0.256386
-0.111234
-0.292061
-0.169354
-0.283666
-0.228945
-0.27869
-0.286623
-0.277389
-0.340308
-0.272513
-0.392984
-0.267098
-0.447209
-0.261727
-0.501439
-0.258036
-0.555814
-0.254335
-0.60905
-0.251582
-0.661006
-0.248611
-0.712326
-0.245256
-0.763502
-0.241946
-0.814286
-0.238875
-0.86413
-0.235927
-0.913515
-0.232868
-0.961736
-0.230206
-1.00958
-0.22726
-0.22477
-1.05664
-0.0517199
-0.204667
-0.115656
-0.228125
-0.171605
-0.227717
-0.227595
-0.2227
-0.285659
-0.219324
-0.341721
-0.216451
-0.395855
-0.212964
-0.448879
-0.208703
-0.501912
-0.205003
-0.554968
-0.20128
-0.608057
-0.198494
-0.660929
-0.195739
-0.71271
-0.193474
-0.763975
-0.190681
-0.814653
-0.188197
-0.864967
-0.185613
-0.914738
-0.183097
-0.964088
-0.180855
-1.01294
-0.178404
-0.176326
-1.06139
-0.0414789
-0.163188
-0.103512
-0.166091
-0.168102
-0.163128
-0.226641
-0.164161
-0.284508
-0.161457
-0.343298
-0.157661
-0.400466
-0.155796
-0.456453
-0.152716
-0.510871
-0.150585
-0.56431
-0.14784
-0.617207
-0.145597
-0.669501
-0.143444
-0.721543
-0.141432
-0.772837
-0.139387
-0.823443
-0.137591
-0.873655
-0.135402
-0.923055
-0.133696
-0.972273
-0.131637
-1.02079
-0.129884
-0.128075
-1.06904
-0.0416751
-0.121513
-0.0905987
-0.117168
-0.151597
-0.102129
-0.213718
-0.10204
-0.274689
-0.100487
-0.334053
-0.0982971
-0.391934
-0.0979145
-0.449343
-0.0953073
-0.505177
-0.0947511
-0.560229
-0.0927877
-0.613725
-0.0921019
-0.666822
-0.0903465
-0.718933
-0.0893216
-0.770464
-0.0878552
-0.821415
-0.0866403
-0.871666
-0.0851511
-0.921388
-0.0839743
-0.970634
-0.0823908
-1.01935
-0.0811695
-0.0796343
-1.06779
-0.0753276
-0.0461849
-0.141469
-0.0510259
-0.192732
-0.0508665
-0.247934
-0.0468373
-0.303959
-0.0444615
-0.358031
-0.044225
-0.412063
-0.0438831
-0.464441
-0.0429291
-0.516605
-0.0425867
-0.567918
-0.0414747
-0.618716
-0.041304
-0.669592
-0.039471
-0.719842
-0.0390714
-0.770387
-0.0373107
-0.820545
-0.036482
-0.870621
-0.0350755
-0.92037
-0.0342248
-0.96967
-0.0330907
-1.01856
-0.0322805
-1.06691
-0.0312835
0.0358201
-0.316963
0.281143
0.0972594
-0.926028
0.864589
0.143612
-1.43367
1.38731
0.156279
-1.59485
1.58218
0.158157
-1.59758
1.59571
0.155927
-1.57794
1.58017
0.153476
-1.55456
1.55701
0.151204
-1.53426
1.53653
0.148695
-1.51503
1.51754
0.145096
-1.49659
1.50019
0.141849
-1.48002
1.48326
0.138391
-1.46428
1.46774
0.134559
-1.44789
1.45172
0.131029
-1.43272
1.43625
0.127568
-1.41725
1.42072
0.123643
-1.39952
1.40345
0.118826
-1.38016
1.38498
0.113613
-1.35891
1.36413
0.108268
-1.34177
1.34712
-1.32467
0.103423
1.32951
0.0312925
-0.348256
0.0832619
-0.977998
0.120698
-1.4711
0.127149
-1.6013
0.125898
-1.59633
0.121777
-1.57382
0.11866
-1.55144
0.114896
-1.5305
0.110358
-1.51049
0.106493
-1.49272
0.101642
-1.47517
0.096375
-1.45901
0.0912525
-1.44277
0.0855294
-1.42699
0.0791374
-1.41086
0.0722282
-1.39261
0.0653567
-1.37329
0.0588101
-1.35237
0.0523937
-1.33535
-1.31846
0.0461875
0.028296
-0.376552
0.0745003
-1.0242
0.102653
-1.49925
0.105935
-1.60458
0.102284
-1.59268
0.0970171
-1.56855
0.0910001
-1.54542
0.0848605
-1.52436
0.0791603
-1.50479
0.072205
-1.48577
0.0654342
-1.46839
0.0587629
-1.45234
0.0513838
-1.43539
0.0439774
-1.41959
0.036714
-1.4036
0.0297357
-1.38563
0.0227029
-1.36626
0.0154175
-1.34508
0.00797138
-1.32791
-1.31127
0.000777817
0.0278372
-0.404389
0.0681953
-1.06456
0.0871516
-1.51821
0.083399
-1.60083
0.0750631
-1.58435
0.066567
-1.56005
0.0585231
-1.53738
0.050517
-1.51635
0.0417383
-1.49602
0.0337158
-1.47775
0.0251639
-1.45984
0.0162254
-1.4434
0.00776701
-1.42693
-0.000744272
-1.41108
-0.00947201
-1.39487
-0.0187144
-1.37639
-0.0282508
-1.35672
-0.0377482
-1.33558
-0.0472801
-1.31838
-1.3018
-0.0567483
0.0248656
-0.429255
0.0596735
-1.09937
0.0714459
-1.52998
0.0652597
-1.59464
0.0555572
-1.57464
0.0458286
-1.55033
0.0356301
-1.52718
0.0252594
-1.50598
0.0153555
-1.48611
0.00478874
-1.46718
-0.00581053
-1.44924
-0.0162537
-1.43296
-0.0271384
-1.41605
-0.0383456
-1.39987
-0.0496279
-1.38359
-0.060612
-1.36541
-0.0711555
-1.34618
-0.0815532
-1.32519
-0.0921239
-1.30781
-1.29121
-0.10271
0.0217375
-0.450992
0.0504076
-1.12804
0.0550463
-1.53462
0.0439848
-1.58358
0.030748
-1.56141
0.017833
-1.53741
0.00499378
-1.51434
-0.00754164
-1.49345
-0.0202874
-1.47337
-0.0327638
-1.4547
-0.0452946
-1.43671
-0.0579877
-1.42026
-0.0703158
-1.40372
-0.0823013
-1.38788
-0.0940087
-1.37188
-0.105856
-1.35356
-0.118013
-1.33402
-0.130441
-1.31276
-0.143182
-1.29506
-1.27875
-0.155646
0.0198592
-0.470852
0.0446782
-1.15286
0.044872
-1.53482
0.03138
-1.57009
0.0160291
-1.54606
0.000888173
-1.52227
-0.0141916
-1.49926
-0.0292528
-1.47838
-0.0441507
-1.45847
-0.0587678
-1.44009
-0.0734842
-1.422
-0.0881518
-1.4056
-0.102735
-1.38914
-0.117585
-1.37303
-0.132365
-1.3571
-0.146898
-1.33903
-0.160848
-1.32007
-0.17451
-1.2991
-0.188256
-1.28132
-1.26525
-0.201753
0.0165489
-0.4874
0.0347633
-1.17107
0.0277537
-1.52781
0.0104832
-1.55282
-0.00725995
-1.52831
-0.024725
-1.5048
-0.0422615
-1.48173
-0.0594853
-1.46116
-0.0762727
-1.44168
-0.0933359
-1.42302
-0.110028
-1.4053
-0.126479
-1.38915
-0.142727
-1.37289
-0.158616
-1.35715
-0.174172
-1.34155
-0.189461
-1.32374
-0.204618
-1.30492
-0.21983
-1.28388
-0.235481
-1.26567
-1.24964
-0.251092
0.0154348
-0.502835
0.0299106
-1.18555
0.0197813
-1.51768
-0.000160233
-1.53287
-0.0207811
-1.50769
-0.0410819
-1.4845
-0.0610475
-1.46176
-0.0808071
-1.4414
-0.100687
-1.4218
-0.119591
-1.40412
-0.138692
-1.3862
-0.157988
-1.36985
-0.176705
-1.35417
-0.195143
-1.33871
-0.213086
-1.3236
-0.230835
-1.30599
-0.248163
-1.28759
-0.265242
-1.2668
-0.282537
-1.24837
-1.23261
-0.299571
0.0121329
-0.514968
0.0209648
-1.19438
0.00515086
-1.50186
-0.0174171
-1.51031
-0.0398919
-1.48522
-0.0620887
-1.46231
-0.0844023
-1.43945
-0.106453
-1.41935
-0.127729
-1.40052
-0.149422
-1.38242
-0.170229
-1.3654
-0.190553
-1.34952
-0.211027
-1.3337
-0.231488
-1.31825
-0.251494
-1.3036
-0.270778
-1.28671
-0.289408
-1.26896
-0.307709
-1.2485
-0.326286
-1.2298
-1.21431
-0.344578
0.0112365
-0.526205
0.0161103
-1.19925
-0.00269266
-1.48306
-0.0284575
-1.48454
-0.0543278
-1.45935
-0.0796348
-1.437
-0.104381
-1.4147
-0.128875
-1.39486
-0.153438
-1.37596
-0.177059
-1.3588
-0.200911
-1.34154
-0.224709
-1.32573
-0.247466
-1.31094
-0.26954
-1.29617
-0.291006
-1.28213
-0.31208
-1.26563
-0.332598
-1.24844
-0.352631
-1.22847
-0.372947
-1.20948
-1.19421
-0.393047
0.00826755
-0.534472
0.00847223
-1.19946
-0.0150087
-1.45958
-0.0422234
-1.45733
-0.0695072
-1.43206
-0.0964337
-1.41007
-0.123439
-1.3877
-0.150205
-1.36809
-0.17633
-1.34984
-0.202407
-1.33273
-0.227526
-1.31643
-0.2524
-1.30085
-0.2775
-1.28584
-0.30262
-1.27105
-0.326986
-1.25777
-0.350489
-1.24213
-0.373015
-1.22591
-0.394707
-1.20678
-0.416548
-1.18764
-1.17263
-0.438136
0.00708399
-0.541556
0.003656
-1.19603
-0.0230883
-1.43283
-0.0541273
-1.42629
-0.084761
-1.40143
-0.114809
-1.38003
-0.144098
-1.35841
-0.17321
-1.33898
-0.202089
-1.32096
-0.230649
-1.30417
-0.259026
-1.28805
-0.286966
-1.27291
-0.313958
-1.25885
-0.340394
-1.24462
-0.366201
-1.23196
-0.391108
-1.21722
-0.415231
-1.20179
-0.438342
-1.18367
-0.461487
-1.16449
-1.14945
-0.484664
0.00485158
-0.546408
-0.00246573
-1.18871
-0.0318745
-1.40343
-0.0642009
-1.39396
-0.0963679
-1.36926
-0.12821
-1.34818
-0.159811
-1.32681
-0.19114
-1.30765
-0.222199
-1.2899
-0.252589
-1.27378
-0.282447
-1.25819
-0.312261
-1.2431
-0.341963
-1.22915
-0.3716
-1.21498
-0.40058
-1.20298
-0.428632
-1.18917
-0.455499
-1.17492
-0.481076
-1.15809
-0.506484
-1.13909
-1.12411
-0.531821
0.00312388
-0.549532
-0.0086338
-1.17695
-0.0415458
-1.37051
-0.0772413
-1.35827
-0.11223
-1.33427
-0.146674
-1.31374
-0.180392
-1.29309
-0.213849
-1.27419
-0.246794
-1.25695
-0.280102
-1.24047
-0.312573
-1.22572
-0.344432
-1.21124
-0.375844
-1.19773
-0.40703
-1.18379
-0.437801
-1.17221
-0.467528
-1.15944
-0.496238
-1.14621
-0.523264
-1.13107
-0.5497
-1.11265
-1.09749
-0.576319
0.00139253
-0.550924
-0.0134178
-1.16214
-0.0479946
-1.33594
-0.0848707
-1.32139
-0.12156
-1.29758
-0.157985
-1.27732
-0.193735
-1.25734
-0.22928
-1.23865
-0.264673
-1.22156
-0.299264
-1.20588
-0.33409
-1.19089
-0.368759
-1.17657
-0.402683
-1.16381
-0.436596
-1.14988
-0.47036
-1.13844
-0.503345
-1.12646
-0.535375
-1.11418
-0.565573
-1.10087
-0.594484
-1.08374
-1.06855
-0.623424
-0.000496343
-0.550428
-0.0193194
-1.14332
-0.0577671
-1.29749
-0.0975215
-1.28164
-0.136409
-1.2587
-0.175037
-1.23869
-0.213133
-1.21924
-0.250654
-1.20113
-0.287652
-1.18456
-0.32496
-1.16857
-0.361061
-1.15479
-0.39705
-1.14058
-0.432923
-1.12794
-0.468398
-1.11441
-0.504075
-1.10277
-0.539082
-1.09145
-0.573325
-1.07994
-0.605899
-1.0683
-0.636404
-1.05323
-1.03831
-0.666647
-0.00181446
-0.548613
-0.0234007
-1.12174
-0.0627836
-1.25811
-0.103927
-1.24049
-0.144614
-1.21801
-0.184894
-1.19841
-0.22439
-1.17975
-0.263814
-1.1617
-0.30277
-1.14561
-0.341471
-1.12987
-0.380596
-1.11567
-0.419271
-1.10191
-0.457409
-1.0898
-0.49523
-1.07659
-0.533201
-1.06479
-0.571049
-1.0536
-0.608554
-1.04243
-0.644751
-1.0321
-0.678542
-1.01944
-1.00506
-0.711795
-0.00411823
-0.544495
-0.0285714
-1.09728
-0.0719276
-1.21475
-0.11525
-1.19717
-0.157688
-1.17557
-0.200088
-1.15601
-0.241839
-1.13799
-0.282936
-1.1206
-0.323785
-1.10476
-0.364253
-1.0894
-0.404004
-1.07592
-0.443828
-1.06208
-0.483648
-1.04998
-0.523166
-1.03707
-0.563009
-1.02495
-0.602958
-1.01365
-0.643281
-1.00211
-0.68341
-0.991969
-0.721177
-0.981676
-0.969173
-0.75706
-0.00496691
-0.0312844
-0.0749378
-0.120147
-0.164289
-0.207916
-0.250835
-0.293248
-0.334694
-0.376538
-0.418286
-0.459836
-0.50131
-0.542051
-0.582992
-0.623888
-0.665304
-0.708033
-0.75149
-0.793305
0.0513833
-11.4671
11.5191
0.0180364
-10.7013
10.7346
-0.00771549
-10.3747
10.4005
-0.0103905
-10.0016
10.0043
-0.0170462
-9.81009
9.81675
-0.02017
-9.49407
9.49719
-0.0233745
-9.31095
9.31415
-0.0227152
-9.12849
9.12783
-0.0207017
-9.00353
9.00152
-0.0192339
-8.87681
8.87535
-0.0153817
-8.79946
8.79561
-0.0106684
-8.72062
8.71591
-0.00376964
-8.67241
8.66551
0.00204321
-8.61173
8.60592
0.0104539
-8.55656
8.54815
0.0168936
-8.48428
8.47784
0.021358
-8.29072
8.28626
0.015629
-7.40343
7.40916
0.00955293
-5.38776
5.39384
-2.21265
2.2222
-0.0144738
-11.4064
-0.0451445
-10.6706
-0.0671118
-10.3528
-0.069533
-9.99921
-0.0755415
-9.80408
-0.0769355
-9.49267
-0.0771058
-9.31078
-0.0736056
-9.13199
-0.0680279
-9.00911
-0.0629203
-8.88192
-0.0552703
-8.80711
-0.0471
-8.72879
-0.0365376
-8.68297
-0.0263025
-8.62197
-0.0129363
-8.56993
-0.00132351
-8.4959
0.0087467
-8.30079
0.00907435
-7.40376
0.00810852
-5.3868
-2.20454
-0.0670227
-11.3386
-0.108396
-10.6292
-0.134794
-10.3264
-0.137288
-9.99671
-0.141087
-9.80028
-0.139345
-9.49442
-0.135359
-9.31476
-0.127815
-9.13953
-0.117642
-9.01928
-0.107995
-8.89157
-0.0960576
-8.81905
-0.0830077
-8.74184
-0.0680628
-8.69791
-0.0535706
-8.63646
-0.0356745
-8.58782
-0.0196061
-8.51196
-0.00389179
-8.31651
0.00288541
-7.41054
0.00735617
-5.39127
-2.19719
-0.134551
-11.2608
-0.172798
-10.591
-0.194977
-10.3042
-0.197169
-9.99452
-0.20074
-9.79671
-0.196612
-9.49854
-0.189258
-9.32212
-0.178979
-9.14981
-0.165449
-9.03281
-0.152042
-8.90498
-0.136184
-8.83491
-0.119672
-8.75835
-0.100996
-8.71659
-0.0820939
-8.65536
-0.0592179
-8.6107
-0.0379274
-8.53325
-0.0164493
-8.33799
-0.00371737
-7.42327
0.00594282
-5.40093
-2.19124
-0.187321
-11.1762
-0.236418
-10.5419
-0.262532
-10.2781
-0.264165
-9.99289
-0.26533
-9.79555
-0.25803
-9.50584
-0.246789
-9.33336
-0.232415
-9.16418
-0.21453
-9.0507
-0.196515
-8.92299
-0.176384
-8.85504
-0.155387
-8.77935
-0.132608
-8.73937
-0.109576
-8.67839
-0.082189
-8.63809
-0.0565286
-8.55892
-0.0291891
-8.36533
-0.0101945
-7.44227
0.00466938
-5.41579
-2.18657
-0.25002
-11.0818
-0.298421
-10.4935
-0.323083
-10.2534
-0.325754
-9.99022
-0.325865
-9.79544
-0.315338
-9.51637
-0.300695
-9.348
-0.283557
-9.18132
-0.262403
-9.07185
-0.240596
-8.9448
-0.216531
-8.87911
-0.19181
-8.80407
-0.165075
-8.7661
-0.137583
-8.70588
-0.105433
-8.67024
-0.0748315
-8.58952
-0.0416366
-8.39852
-0.0166104
-7.46729
0.00317285
-5.43557
-2.1834
-0.305892
-10.9777
-0.362033
-10.4374
-0.388699
-10.2268
-0.390483
-9.98843
-0.38879
-9.79713
-0.375486
-9.52967
-0.356964
-9.36652
-0.335793
-9.20249
-0.310614
-9.09703
-0.284233
-8.97118
-0.255886
-8.90745
-0.227084
-8.83287
-0.196612
-8.79658
-0.165113
-8.73738
-0.12851
-8.70684
-0.0932787
-8.62475
-0.0542019
-8.4376
-0.0227922
-7.4987
0.00191191
-5.46028
-2.18149
-0.361773
-10.867
-0.421819
-10.3773
-0.450297
-10.1983
-0.453359
-9.98537
-0.449128
-9.80136
-0.43226
-9.54654
-0.410504
-9.38828
-0.386471
-9.22653
-0.358142
-9.12536
-0.328017
-9.0013
-0.295725
-8.93974
-0.262965
-8.86563
-0.228326
-8.83122
-0.192463
-8.77324
-0.151619
-8.74769
-0.111539
-8.66483
-0.0666674
-8.48247
-0.0287722
-7.5366
0.000543512
-5.48959
-2.18095
-0.419191
-10.7474
-0.483862
-10.3126
-0.514012
-10.1681
-0.516176
-9.98321
-0.510231
-9.80731
-0.490907
-9.56587
-0.465091
-9.4141
-0.437107
-9.25451
-0.405092
-9.15737
-0.370628
-9.03577
-0.334272
-8.9761
-0.29769
-8.90221
-0.259376
-8.86953
-0.219573
-8.81305
-0.174994
-8.79226
-0.130251
-8.70957
-0.079201
-8.53352
-0.0349179
-7.58088
-0.00116628
-5.52335
-2.18211
-0.472134
-10.6198
-0.54226
-10.2425
-0.575376
-10.135
-0.578456
-9.98013
-0.569022
-9.81674
-0.546641
-9.58825
-0.517864
-9.44287
-0.486812
-9.28556
-0.451751
-9.19244
-0.413576
-9.07394
-0.373358
-9.01632
-0.332707
-8.94287
-0.290188
-8.91205
-0.246149
-8.85709
-0.197888
-8.84053
-0.149081
-8.75838
-0.0920793
-8.59052
-0.0409891
-7.63197
-0.00272958
-5.56161
-2.18484
-0.526505
-10.4864
-0.599713
-10.1693
-0.635873
-10.0989
-0.639152
-9.97685
-0.627775
-9.82812
-0.602867
-9.61315
-0.570425
-9.47531
-0.535615
-9.32037
-0.497007
-9.23104
-0.454957
-9.11599
-0.410976
-9.0603
-0.366648
-8.98719
-0.320687
-8.95801
-0.272634
-8.90514
-0.220463
-8.8927
-0.1678
-8.81104
-0.105718
-8.6526
-0.0481578
-7.68953
-0.00463669
-5.60513
-2.18948
-0.581771
-10.3427
-0.659544
-10.0915
-0.697021
-10.0614
-0.700108
-9.97376
-0.684988
-9.84324
-0.657631
-9.64051
-0.622352
-9.51059
-0.584174
-9.35855
-0.542348
-9.27287
-0.496593
-9.16175
-0.448847
-9.10804
-0.400405
-9.03563
-0.350658
-9.00776
-0.298965
-8.95683
-0.242819
-8.94884
-0.185961
-8.8679
-0.118782
-8.71978
-0.0550185
-7.75329
-0.00668295
-5.65346
-2.19616
-0.630929
-10.1965
-0.710659
-10.0118
-0.752034
-10.02
-0.75727
-9.96853
-0.740726
-9.85978
-0.710803
-9.67043
-0.672565
-9.54883
-0.630809
-9.4003
-0.585526
-9.31815
-0.536441
-9.21083
-0.485304
-9.15918
-0.433284
-9.08765
-0.38017
-9.06087
-0.324877
-9.01213
-0.264844
-9.00887
-0.203881
-8.92886
-0.131436
-8.79223
-0.0614412
-7.82329
-0.00874155
-5.70616
-2.2049
-0.68923
-10.0391
-0.771315
-9.92972
-0.81144
-9.97988
-0.816076
-9.96389
-0.796628
-9.87923
-0.764383
-9.70268
-0.723185
-9.59003
-0.67787
-9.44562
-0.62915
-9.36687
-0.576285
-9.2637
-0.521286
-9.21418
-0.465388
-9.14355
-0.408886
-9.11737
-0.35029
-9.07072
-0.286385
-9.07278
-0.221564
-8.99368
-0.144671
-8.86912
-0.0686378
-7.89932
-0.0110841
-5.76372
-2.21599
-0.736013
-9.87936
-0.818686
-9.84705
-0.861361
-9.93721
-0.86898
-9.95627
-0.848759
-9.89945
-0.814561
-9.73688
-0.77071
-9.63388
-0.721984
-9.49434
-0.670151
-9.41871
-0.614322
-9.31953
-0.556281
-9.27222
-0.496956
-9.20288
-0.436974
-9.17736
-0.37534
-9.13236
-0.307919
-9.1402
-0.238965
-9.06264
-0.157712
-8.95037
-0.075726
-7.98131
-0.0136015
-5.82584
-2.22959
-0.792744
-9.71004
-0.876755
-9.76303
-0.917774
-9.89619
-0.925128
-9.94892
-0.902796
-9.92178
-0.866124
-9.77355
-0.819313
-9.68069
-0.767046
-9.54661
-0.711611
-9.47414
-0.652098
-9.37904
-0.590463
-9.33386
-0.527408
-9.26593
-0.463734
-9.24103
-0.399024
-9.19707
-0.328824
-9.2104
-0.256132
-9.13533
-0.170607
-9.0359
-0.0824397
-8.06947
-0.0159208
-5.89236
-2.24551
-0.840921
-9.53577
-0.923239
-9.68072
-0.963029
-9.8564
-0.973034
-9.93891
-0.950896
-9.94392
-0.91275
-9.8117
-0.863687
-9.72975
-0.808418
-9.60188
-0.750231
-9.53233
-0.688137
-9.44113
-0.623644
-9.39835
-0.557414
-9.33216
-0.49032
-9.30812
-0.422202
-9.26518
-0.349053
-9.28355
-0.273056
-9.21133
-0.184328
-9.12462
-0.090123
-8.16368
-0.0184508
-5.96403
-2.26396
-0.896083
-9.35148
-0.980053
-9.59674
-1.01743
-9.81902
-1.02666
-9.92968
-1.00259
-9.96799
-0.961751
-9.85254
-0.909762
-9.78174
-0.851024
-9.66062
-0.789181
-9.59417
-0.723532
-9.50678
-0.655666
-9.46622
-0.586033
-9.4018
-0.515421
-9.37874
-0.444194
-9.33641
-0.368752
-9.35899
-0.289518
-9.29056
-0.198337
-9.21581
-0.098313
-8.2637
-0.0213208
-6.04102
-2.28528
-0.937575
-9.17097
-1.02807
-9.50625
-1.06347
-9.78362
-1.07333
-9.91983
-1.04937
-9.99194
-1.00677
-9.89514
-0.952287
-9.83622
-0.890684
-9.72222
-0.826106
-9.65875
-0.757828
-9.57506
-0.68709
-9.53695
-0.614391
-9.47449
-0.540468
-9.45266
-0.465567
-9.41131
-0.387658
-9.4369
-0.305401
-9.37282
-0.212156
-9.30905
-0.107399
-8.36846
-0.0248423
-6.12358
-2.31012
-0.977639
-8.98663
-1.07135
-9.41254
-1.10617
-9.7488
-1.11585
-9.91015
-1.09324
-10.0146
-1.04963
-9.93875
-0.993814
-9.89204
-0.929021
-9.78702
-0.861592
-9.72618
-0.790109
-9.64654
-0.716735
-9.61033
-0.640762
-9.55047
-0.563968
-9.52945
-0.485495
-9.48979
-0.406087
-9.51631
-0.320542
-9.45836
-0.223926
-9.40567
-0.115095
-8.47729
-0.0275774
-6.2111
-2.3377
7.65675
-8.19166
-8.45172
6.67255
-8.42834
5.72185
-8.7981
4.81595
-9.00426
3.98107
-9.17967
3.27003
-9.22771
2.67664
-9.29865
2.19496
-9.30534
1.79543
-9.32664
1.47128
-9.3224
1.19306
-9.3321
0.961931
-9.31934
0.770578
-9.3381
0.60799
-9.3272
0.457831
-9.36615
0.354234
-9.35477
0.273803
-9.32523
0.208202
-8.41169
0.0668842
-6.06978
-2.27082
4.32122
-7.8676
-4.64527
3.95779
-8.06491
3.54161
-8.38192
3.1107
-8.57334
2.67397
-8.74294
2.2832
-8.83694
1.92477
-8.94021
1.62578
-9.00635
1.36479
-9.06566
1.14559
-9.1032
0.954258
-9.14077
0.800118
-9.1652
0.660215
-9.1982
0.545553
-9.21254
0.423982
-9.24458
0.333745
-9.26453
0.218629
-9.21012
0.121078
-8.31414
-0.0685309
-5.88017
-2.33935
2.96043
-7.80176
-3.02627
2.88108
-7.98557
2.69444
-8.19527
2.48696
-8.36586
2.25909
-8.51508
2.03576
-8.61361
1.80506
-8.70952
1.58822
-8.7895
1.3815
-8.85894
1.19095
-8.91265
1.01132
-8.96114
0.849385
-9.00327
0.690993
-9.0398
0.555194
-9.07674
0.422807
-9.11219
0.304073
-9.1458
0.190658
-9.0967
0.117393
-8.24088
0.0289944
-5.79177
-2.31035
1.83166
-7.85449
-1.77893
1.83465
-7.98855
1.75873
-8.11935
1.65308
-8.26022
1.52562
-8.38762
1.39167
-8.47966
1.2486
-8.56644
1.10645
-8.64736
0.963091
-8.71557
0.829946
-8.77951
0.702607
-8.8338
0.586627
-8.88729
0.478853
-8.93203
0.37961
-8.97749
0.299302
-9.03188
0.222992
-9.06948
0.130014
-9.00373
0.103934
-8.2148
0.0822826
-5.77012
-2.22807
1.09648
-7.93027
-1.0207
1.14531
-8.03737
1.17445
-8.14849
1.15335
-8.23912
1.0839
-8.31817
1.01046
-8.40622
0.925249
-8.48123
0.831325
-8.55344
0.733422
-8.61767
0.630678
-8.67676
0.533022
-8.73615
0.434648
-8.78891
0.340657
-8.83804
0.249625
-8.88646
0.151665
-8.93392
0.0633054
-8.98113
-0.0211964
-8.91922
-0.0166847
-8.21931
0.0371875
-5.82399
-2.19088
0.701447
-8.01134
-0.620377
0.74915
-8.08508
0.743347
-8.14269
0.722858
-8.21863
0.68903
-8.28434
0.639131
-8.35632
0.582342
-8.42444
0.51214
-8.48323
0.437656
-8.54318
0.35814
-8.59725
0.275492
-8.6535
0.189735
-8.70315
0.10889
-8.75719
0.0297606
-8.80733
-0.0458309
-8.85833
-0.127477
-8.89948
-0.196525
-8.85018
-0.154166
-8.26167
0.00939947
-5.98756
-2.18148
0.348614
-8.06003
-0.299923
0.373606
-8.11007
0.389185
-8.15827
0.392621
-8.22207
0.388805
-8.28053
0.366657
-8.33417
0.327515
-8.3853
0.279668
-8.43539
0.222495
-8.48601
0.158157
-8.53291
0.0898736
-8.58522
0.0194984
-8.63278
-0.0539957
-8.6837
-0.138014
-8.72331
-0.227508
-8.76884
-0.322279
-8.80471
-0.391106
-8.78135
-0.330464
-8.32231
-0.067586
-6.25044
-2.24907
0.176247
-8.10212
-0.134152
0.203644
-8.13747
0.220735
-8.17536
0.213104
-8.21444
0.189271
-8.2567
0.157125
-8.30203
0.118552
-8.34672
0.0727129
-8.38955
0.0223328
-8.43563
-0.0366408
-8.47394
-0.0996253
-8.52223
-0.173725
-8.55868
-0.254758
-8.60267
-0.339126
-8.63895
-0.430108
-8.67786
-0.525633
-8.70918
-0.591602
-8.71538
-0.534731
-8.37918
-0.191042
-6.59413
-2.44011
0.0311788
-8.11878
-0.0145159
0.0390327
-8.14532
0.0396648
-8.17599
0.037058
-8.21183
0.0270376
-8.24667
0.0056618
-8.28065
-0.0271898
-8.31387
-0.0690557
-8.34768
-0.119673
-8.38501
-0.174419
-8.41919
-0.240757
-8.45589
-0.313525
-8.48591
-0.39171
-8.52448
-0.472635
-8.55802
-0.551516
-8.59898
-0.640267
-8.62043
-0.71501
-8.64064
-0.678853
-8.41534
-0.327109
-6.94587
-2.76722
-0.024421
-8.12973
0.0353676
-0.017155
-8.15259
-0.0167961
-8.17635
-0.0279659
-8.20066
-0.0499663
-8.22467
-0.0815727
-8.24905
-0.120116
-8.27533
-0.165787
-8.30201
-0.217409
-8.33339
-0.27692
-8.35968
-0.342461
-8.39035
-0.410574
-8.4178
-0.485305
-8.44975
-0.575146
-8.46818
-0.672409
-8.50171
-0.765568
-8.52727
-0.849409
-8.5568
-0.856241
-8.40851
-0.536839
-7.26527
-3.30406
-0.0551424
-8.12846
0.0538743
-0.0633333
-8.1444
-0.0781653
-8.16152
-0.100527
-8.1783
-0.127169
-8.19803
-0.159113
-8.2171
-0.193945
-8.2405
-0.235232
-8.26073
-0.286196
-8.28243
-0.344063
-8.30181
-0.410262
-8.32415
-0.486854
-8.34121
-0.574665
-8.36194
-0.663431
-8.37941
-0.765842
-8.3993
-0.874909
-8.41821
-0.994302
-8.4374
-1.03778
-8.36503
-0.773661
-7.52939
-4.07772
-0.0506737
-8.11931
0.0415233
-0.0654472
-8.12962
-0.0830755
-8.14389
-0.104739
-8.15663
-0.130633
-8.17214
-0.161631
-8.1861
-0.200339
-8.20179
-0.245697
-8.21537
-0.297311
-8.23081
-0.355895
-8.24323
-0.421935
-8.25811
-0.494576
-8.26856
-0.576848
-8.27967
-0.665496
-8.29077
-0.768115
-8.29668
-0.885581
-8.30074
-1.02507
-8.29791
-1.13237
-8.25773
-0.937854
-7.7239
-5.01557
-0.0332986
-8.1049
0.0188888
-0.0511884
-8.11173
-0.072856
-8.12222
-0.0976149
-8.13188
-0.126175
-8.14358
-0.15924
-8.15304
-0.197666
-8.16336
-0.241586
-8.17145
-0.288631
-8.18377
-0.341743
-8.19012
-0.399939
-8.19992
-0.465846
-8.20266
-0.537246
-8.20827
-0.623827
-8.20419
-0.713618
-8.20689
-0.819831
-8.19453
-0.936723
-8.18102
-1.04745
-8.147
-0.901612
-7.86974
-5.91719
-0.00514202
-8.08841
-0.0113466
-0.0228409
-8.09403
-0.043589
-8.10147
-0.0684342
-8.10703
-0.0978318
-8.11418
-0.131501
-8.11937
-0.166739
-8.12813
-0.204982
-8.1332
-0.248746
-8.14
-0.296535
-8.14233
-0.349164
-8.14729
-0.406742
-8.14508
-0.468024
-8.14698
-0.532055
-8.14016
-0.604417
-8.13453
-0.685353
-8.11359
-0.770575
-8.0958
-0.846484
-8.0711
-0.757173
-7.95905
-6.67436
0.033973
-8.0689
-0.0534827
0.0123107
-8.07237
-0.0112227
-8.07794
-0.0356674
-8.08259
-0.0617341
-8.08811
-0.0892213
-8.09188
-0.120853
-8.09649
-0.154263
-8.0998
-0.191053
-8.10321
-0.229779
-8.1036
-0.271228
-8.10584
-0.313225
-8.10308
-0.35771
-8.1025
-0.403603
-8.09426
-0.450293
-8.08784
-0.491136
-8.07275
-0.528698
-8.05824
-0.569072
-8.03072
-0.549059
-7.97907
-7.22342
0.0662866
-8.0547
-0.0804898
0.0500764
-8.05616
0.0305153
-8.05838
0.00933017
-8.0614
-0.0141576
-8.06463
-0.0387988
-8.06724
-0.0663707
-8.06892
-0.0962946
-8.06987
-0.126578
-8.07293
-0.157766
-8.07241
-0.18945
-8.07416
-0.221079
-8.07145
-0.253584
-8.06999
-0.284725
-8.06312
-0.310733
-8.06183
-0.332525
-8.05096
-0.348111
-8.04265
-0.354457
-8.02438
-0.335697
-7.99783
-7.55912
0.0710442
-8.04186
-0.0838823
0.0573056
-8.04242
0.0424319
-8.04351
0.0250248
-8.04399
0.0059002
-8.0455
-0.0153733
-8.04597
-0.0359622
-8.04833
-0.0576649