/*--------------------------------*- C++ -*----------------------------------*\
  =========                 |
  \\      /  F ield         | OpenFOAM: The Open Source CFD Toolbox
   \\    /   O peration     | Website:  https://openfoam.org
    \\  /    A nd           | Version:  9
     \\/     M anipulation  |
\*---------------------------------------------------------------------------*/
FoamFile
{
    format      ascii;
    class       volScalarField;
    location    "6.9";
    object      p;
}
// * * * * * * * * * * * * * * * * * * * * * * * * * * * * * * * * * * * * * //

dimensions      [0 2 -2 0 0 0 0];

internalField   nonuniform List<scalar> 
46400
(
186.877
193.317
206.185
216.558
226.072
234.668
242.347
249.38
255.685
261.427
266.626
271.386
275.729
279.743
283.505
287.099
290.502
294.266
298.239
299.597
210.188
216.834
228.512
238.085
246.654
254.509
261.44
267.825
273.536
278.759
283.471
287.769
291.678
295.232
298.448
301.328
303.9
306.218
308.302
308.452
234.115
240.709
250.926
259.707
267.298
274.284
280.395
285.943
290.868
295.292
299.254
302.826
306.035
308.931
311.56
313.946
316.044
318.018
319.895
319.714
258.616
264.517
273.335
281.175
287.889
294.064
299.447
304.323
308.63
312.477
315.871
318.868
321.522
323.845
325.894
327.655
329.145
330.476
331.752
331.213
282.463
286.906
294.703
301.797
307.711
313.09
317.693
321.778
325.329
328.439
331.164
333.543
335.615
337.405
338.967
340.318
341.442
342.477
343.545
342.903
304.329
308.397
315.841
322.175
327.457
332.108
336.058
339.471
342.388
344.866
346.959
348.712
350.188
351.379
352.341
353.086
353.633
354.113
354.628
353.686
325.545
329.811
336.411
341.885
346.267
350.121
353.278
355.957
358.168
359.986
361.476
362.666
363.614
364.341
364.905
365.284
365.478
365.601
365.724
364.557
346.685
351.419
356.852
361.423
365.006
368.007
370.448
372.394
373.954
375.113
375.96
376.503
376.817
376.903
376.841
376.627
376.264
375.869
375.451
373.923
367.176
371.957
375.985
379.451
382.12
384.287
385.965
387.223
388.149
388.75
389.109
389.197
389.094
388.783
388.331
387.721
386.987
386.221
385.449
383.68
387.309
391.247
394.392
396.786
398.689
399.993
400.964
401.507
401.794
401.775
401.544
401.086
400.451
399.641
398.7
397.634
396.446
395.246
394.013
391.985
405.175
408.143
410.343
411.905
413.008
413.671
413.989
413.961
413.692
413.156
412.47
411.58
410.577
409.404
408.137
406.731
405.228
403.674
402.1
399.789
421.101
423.384
424.959
425.828
426.371
426.408
426.185
425.612
424.83
423.797
422.607
421.262
419.81
418.26
416.627
414.932
413.148
411.372
409.629
407.181
434.063
435.758
436.812
437.154
437.236
436.814
436.181
435.187
434.047
432.667
431.16
429.465
427.684
425.778
423.824
421.783
419.708
417.618
415.596
413.036
445.79
446.903
447.513
447.343
446.927
446.066
444.952
443.558
441.978
440.244
438.38
436.406
434.341
432.192
429.991
427.733
425.42
423.115
420.865
418.117
455.193
455.573
455.76
455.156
454.438
453.234
451.891
450.218
448.391
446.344
444.205
441.93
439.599
437.191
434.749
432.273
429.765
427.267
424.848
422.044
462.443
462.372
462.178
461.27
460.193
458.694
457.024
455.113
453.06
450.822
448.486
446.029
443.503
440.9
438.266
435.587
432.89
430.194
427.587
424.6
467.061
466.956
466.414
465.34
464.021
462.382
460.477
458.387
456.105
453.707
451.177
448.582
445.905
443.192
440.43
437.668
434.862
432.093
429.408
426.425
470.798
470.185
469.158
467.791
466.189
464.287
462.247
459.968
457.593
455.036
452.415
449.662
446.881
444.015
441.145
438.229
435.316
432.396
429.603
426.481
471.023
470.594
469.688
468.267
466.525
464.485
462.263
459.85
457.326
454.675
451.945
449.139
446.287
443.394
440.482
437.559
434.618
431.708
428.912
425.776
468.581
468.389
467.504
466.285
464.655
462.712
460.506
458.109
455.537
452.858
450.071
447.221
444.309
441.372
438.4
435.434
432.442
429.487
426.639
423.514
105.407
106.339
105.736
107.034
105.938
106.93
109.265
111.827
113.86
116.555
119.119
121.773
124.275
126.822
129.28
131.785
134.223
136.565
138.885
141.125
105.971
106.694
105.715
105.387
106.722
108.522
110.832
112.916
115.738
118.607
121.404
124.138
126.777
129.532
132.137
134.76
137.259
139.824
142.325
144.682
105.857
106.247
106.392
104.182
105.876
108.51
111.33
114.049
117.122
120.245
123.149
126.16
129.055
132.023
134.797
137.667
140.371
143.045
145.637
148.121
103.341
103.203
104.019
104.106
105.906
108.471
111.153
114.527
117.897
121.239
124.548
127.798
130.976
134.182
137.209
140.307
143.158
146.054
148.807
151.471
98.2296
98.8665
98.3946
100.522
103.215
106.678
110.446
114.194
118.12
121.897
125.597
129.276
132.817
136.353
139.666
143.012
146.08
149.22
152.101
154.911
90.0978
91.1822
91.1008
94.9215
99.216
103.646
108.375
113.047
117.587
122.004
126.305
130.448
134.445
138.336
141.996
145.633
148.954
152.325
155.388
158.395
78.3497
78.9763
81.4942
87.1362
93.5868
99.9698
105.886
111.681
117.168
122.347
127.282
131.996
136.463
140.765
144.773
148.688
152.242
155.841
159.024
162.187
65.487
66.4935
72.2924
80.4235
88.8384
96.6978
104.029
110.755
117.13
123.067
128.652
133.907
138.866
143.55
147.913
152.108
155.911
159.713
163.029
166.333
56.1039
56.9392
66.0525
76.0175
86.032
95.1128
103.573
111.268
118.39
124.987
131.138
136.873
142.237
147.278
151.947
156.38
160.403
164.409
167.818
171.269
49.7173
51.831
63.1371
74.5829
85.4835
95.5166
104.72
113.114
120.894
128.05
134.688
140.87
146.627
151.985
156.959
161.645
165.901
170.157
173.683
177.461
48.2047
51.5982
62.703
75.6177
87.4446
98.2519
108.099
117.029
125.257
132.796
139.767
146.207
152.177
157.735
162.893
167.698
172.119
176.49
180.125
184.203
50.0974
53.4173
67.1054
80.2899
92.2903
103.342
113.536
122.747
131.265
139.082
146.271
152.936
159.083
164.777
170.038
174.896
179.383
183.715
187.31
191.497
55.5419
58.9809
71.8409
86.259
98.9093
110.243
120.819
130.304
139.01
146.97
154.285
161.003
167.204
172.929
178.216
183.072
187.609
191.923
195.546
199.843
62.7401
67.7085
81.6109
95.1936
108.481
119.833
130.442
140.004
148.724
156.698
163.965
170.657
176.766
182.398
187.554
192.233
196.61
200.637
203.973
208.297
74.8478
79.931
93.1775
106.769
119.743
131.263
141.798
151.318
159.985
167.883
175.095
181.688
187.721
193.257
198.319
202.905
207.254
211.122
214.45
218.777
87.8807
93.3946
107.712
121.455
134.151
145.293
155.598
164.857
173.246
180.89
187.804
194.13
199.856
205.107
209.85
214.121
218.171
221.521
224.447
228.894
105.062
110.65
124.839
137.651
149.9
160.665
170.553
179.543
187.677
195.098
201.829
207.958
213.508
218.553
223.08
227.136
230.901
233.844
236.345
240.235
122.747
128.648
143.34
155.752
167.499
177.876
187.336
195.905
203.606
210.616
216.917
222.643
227.784
232.437
236.557
240.225
243.526
245.835
247.753
251.313
143.118
149.24
163.407
175.12
186.231
196.087
205.063
213.278
220.69
227.469
233.616
239.228
244.301
248.899
253.008
256.726
259.929
262.319
264.756
268.334
164.231
170.616
184.396
195.472
205.833
215.138
223.498
231.187
238.114
244.506
250.349
255.792
260.866
265.673
270.271
274.759
279.053
283.131
289.041
292.85
152.508
164.96
177.88
183.746
191.848
195.143
199.803
202.12
204.74
206.569
208.194
209.725
210.927
212.319
213.288
214.793
216.012
216.694
217.692
217.056
156.51
168.178
181.211
186.629
194.517
197.532
201.96
204.155
206.568
208.261
209.714
211.122
212.178
213.438
214.232
215.668
216.636
217.271
218.068
217.456
160.425
171.348
184.375
189.477
197.286
200.085
204.287
206.292
208.433
210.005
211.252
212.526
213.432
214.557
215.212
216.531
217.223
217.998
218.515
217.853
164.366
174.689
187.665
192.241
199.87
202.447
206.413
208.321
210.235
211.689
212.754
213.908
214.674
215.67
216.102
217.376
217.802
218.575
218.819
218.193
168.245
177.946
190.967
195.234
202.818
205.026
208.725
210.443
212.072
213.409
214.267
215.291
215.916
216.761
216.983
218.223
218.352
219.131
219.089
218.521
172.295
181.434
194.433
198.008
205.335
207.377
210.83
212.478
213.854
215.083
215.755
216.66
217.15
217.855
217.881
219.062
218.87
219.643
219.357
218.809
176.288
184.92
198.383
201.012
208.232
209.978
213.103
214.595
215.664
216.779
217.244
218.024
218.384
218.933
218.778
219.891
219.337
220.157
219.583
219.091
180.573
188.605
201.984
203.837
210.741
212.368
215.205
216.64
217.435
218.445
218.72
219.379
219.618
220.017
219.677
220.717
219.814
220.686
219.737
219.353
185.992
192.357
205.756
207.024
213.578
214.976
217.444
218.743
219.223
220.115
220.188
220.723
220.846
221.089
220.586
221.532
220.255
221.227
219.931
219.648
193.002
196.556
209.392
209.957
216.092
217.4
219.558
220.8
220.992
221.769
221.651
222.065
222.08
222.172
221.515
222.352
220.712
221.809
220.253
219.97
198.984
200.657
213.003
213.241
218.863
220.001
221.769
222.89
222.767
223.412
223.098
223.389
223.304
223.245
222.449
223.164
221.132
222.468
220.636
220.316
205.13
205.175
216.644
216.281
221.386
222.446
223.902
224.959
224.541
225.05
224.547
224.713
224.537
224.33
223.419
223.979
221.555
223.108
220.942
220.654
211.166
209.767
220.419
219.665
224.115
225.022
226.098
227.041
226.315
226.668
225.973
226.014
225.757
225.408
224.408
224.773
221.949
223.709
221.274
220.993
218.363
214.759
224.16
222.812
226.643
227.467
228.253
229.124
228.104
228.289
227.404
227.317
226.987
226.504
225.447
225.641
222.33
224.298
221.597
221.316
225.648
219.864
228.039
226.26
229.322
229.978
230.43
231.2
229.886
229.877
228.8
228.583
228.189
227.586
226.503
226.59
222.694
224.861
221.831
221.61
234.442
225.569
231.846
229.519
231.865
232.396
232.596
233.292
231.693
231.474
230.201
229.85
229.395
228.684
227.586
227.351
223.096
225.349
222.046
221.881
242.59
231.583
236.078
233.182
234.644
234.922
234.824
235.413
233.537
233.089
231.611
231.144
230.62
229.834
228.757
228.594
223.512
225.882
222.168
222.128
250.264
236.758
239.519
236.267
237.054
237.158
236.928
237.527
235.387
234.664
232.964
232.347
231.802
230.93
229.947
229.904
223.997
226.742
222.287
222.662
262.738
243.187
243.091
239.091
239.152
238.986
238.707
239.416
237.03
235.946
234.003
233.169
232.688
231.687
230.916
230.461
224.388
226.87
221.941
222.448
279.11
255.375
249.527
244.464
243.153
242.414
241.444
241.735
239.171
237.961
235.786
234.967
234.09
233.315
232.244
231.875
225.539
227.073
220.693
223.353
301.544
302.815
283.862
282.219
273.172
269.588
262.795
259.97
256.817
255.345
251.923
251.079
246.757
247.079
242.284
244.679
239.189
242.257
225.543
247.514
329.105
317.804
304.349
296.945
287.644
281.236
274.994
270.564
265.139
261.947
257.956
255.889
252.472
251.279
248.17
247.97
244.898
245.74
242.678
245.285
318.703
310.023
301.657
295.748
289.585
284.82
279.875
276.478
272.681
269.784
266.632
264.493
261.922
260.227
258.072
256.772
255.032
254.268
253.56
253.867
313.437
308.421
304.07
298.342
293.486
288.884
284.408
280.571
276.801
273.768
270.515
267.815
265.151
263.062
261.02
259.468
258.002
257.032
256.291
256.031
300.725
296.048
292.955
290.147
287.161
284.478
281.625
279.173
276.551
274.368
272.054
270.131
267.995
266.248
264.381
262.716
261.182
259.535
258.743
258.505
294.01
293.157
291.885
288.99
287.365
284.902
282.623
280.407
278.029
275.961
273.659
271.707
269.599
267.712
265.823
264.012
262.4
260.628
259.604
259.149
286.072
284.715
284.002
282.636
281.314
280.138
278.953
277.683
276.261
274.902
273.331
271.91
270.207
268.711
266.887
265.199
263.337
261.332
260.04
259.205
282.21
282.29
282.401
281.499
280.81
279.958
279.019
278.056
276.756
275.682
274.141
272.941
271.197
269.834
267.87
266.229
263.993
261.811
260.099
258.564
278.038
278.025
278.056
278.357
278.189
277.855
277.321
276.813
276.104
275.419
274.457
273.628
272.342
271.344
269.587
268.335
265.87
264.372
261.653
261.053
276.579
277.061
277.289
277.391
277.38
277.442
277.174
277.059
276.525
276.231
275.451
274.988
273.923
273.333
271.861
271.083
268.647
267.946
263.85
263.731
274.945
275.606
276.097
276.802
277.031
277.303
277.355
277.445
277.412
277.395
277.198
277.079
276.649
276.415
275.602
275.341
273.614
273.897
270.701
273.06
274.642
275.259
275.774
276.286
276.623
277.041
277.38
277.763
278.008
278.367
278.531
278.875
279.078
279.356
279.688
279.877
280.474
280.401
281.754
284.026
274.25
275.207
276.018
276.711
277.503
278.048
278.643
279.209
279.711
280.308
280.82
281.535
282.155
283.075
284.022
285.119
286.897
287.801
291.362
291.774
274.305
275.085
275.787
276.559
277.178
277.988
278.67
279.549
280.233
281.189
281.913
283.018
283.86
285.181
286.19
287.935
289.126
291.738
294.344
296.512
274.699
275.555
276.341
277.165
277.959
278.828
279.437
280.328
280.967
281.959
282.662
283.864
284.647
286.121
287.15
288.994
290.336
292.788
293.992
303.312
274.866
275.672
276.401
277.242
278.025
278.912
279.71
280.649
281.461
282.487
283.32
284.468
285.35
286.745
287.651
289.376
290.328
292.479
293.444
296.264
275.241
276.033
276.788
277.633
278.342
279.225
279.94
280.862
281.614
282.612
283.409
284.527
285.376
286.642
287.53
289.009
289.885
291.664
292.431
294.76
275.404
276.179
276.94
277.723
278.501
279.32
280.122
281.001
281.812
282.747
283.559
284.557
285.363
286.431
287.219
288.345
289.174
290.27
291.02
291.956
275.608
276.352
277.082
277.864
278.621
279.436
280.211
281.052
281.836
282.706
283.49
284.385
285.155
286.053
286.785
287.646
288.216
289.073
289.674
290.445
275.688
276.417
277.16
277.921
278.688
279.478
280.263
281.078
281.871
282.704
283.49
284.328
285.087
285.904
286.601
287.354
287.936
288.551
288.682
290.7
386.15
388.431
390.011
391.003
391.31
390.993
390.107
388.441
386.455
383.427
380.242
376.193
370.872
366.509
360.299
353.951
346.884
338.813
329.364
322.702
354.795
356.531
357.968
359.109
359.981
360.532
360.875
360.843
360.652
360.133
359.308
358.527
356.968
355.994
354.379
350.985
347.222
344.808
341.6
339.361
318.054
319.47
320.735
321.942
322.946
323.94
324.683
325.45
325.958
326.543
326.766
327.126
327.053
327.055
326.662
326.62
326.033
325.675
324.792
324.541
305.226
306.378
307.464
308.481
309.438
310.32
311.124
311.887
312.493
313.081
313.529
313.983
314.276
314.778
314.977
315.183
315.135
315.303
315.001
315.266
289.071
289.993
290.834
291.69
292.459
293.242
293.952
294.665
295.311
295.987
296.579
297.171
297.686
298.307
298.746
299.319
299.672
300.21
300.455
301.077
283.213
283.975
284.729
285.448
286.152
286.83
287.483
288.122
288.726
289.313
289.839
290.429
290.909
291.391
291.774
292.252
292.55
293.027
293.246
293.743
276.262
276.892
277.475
278.071
278.616
279.177
279.691
280.217
280.703
281.192
281.664
282.123
282.562
283.027
283.46
283.899
284.289
284.722
285.064
285.531
273.466
274.002
274.54
275.057
275.576
276.077
276.572
277.055
277.517
277.982
278.405
278.84
279.236
279.617
279.952
280.334
280.62
281
281.238
281.618
270.783
271.237
271.675
272.102
272.519
272.92
273.304
273.673
274.026
274.378
274.706
275.063
275.414
275.749
276.074
276.401
276.698
277.025
277.274
277.572
269.71
270.117
270.516
270.91
271.29
271.667
272.043
272.412
272.783
273.135
273.489
273.82
274.105
274.408
274.677
274.955
275.201
275.459
275.676
275.962
268.983
269.313
269.635
269.949
270.253
270.552
270.84
271.119
271.404
271.695
271.989
272.286
272.584
272.878
273.174
273.464
273.756
274.044
274.275
274.514
269.219
269.528
269.832
270.131
270.425
270.714
270.997
271.276
271.547
271.814
272.074
272.33
272.578
272.827
273.061
273.297
273.508
273.726
273.916
274.119
269.21
269.472
269.73
269.985
270.238
270.489
270.738
270.982
271.215
271.44
271.66
271.882
272.1
272.319
272.534
272.757
272.98
273.213
273.437
273.672
269.933
270.175
270.411
270.641
270.865
271.089
271.308
271.526
271.749
271.974
272.193
272.406
272.613
272.814
273.006
273.193
273.369
273.539
273.703
273.869
270.238
270.428
270.634
270.848
271.054
271.264
271.467
271.673
271.881
272.092
272.304
272.518
272.733
272.949
273.162
273.376
273.585
273.793
273.995
274.196
270.915
271.119
271.324
271.528
271.73
271.929
272.123
272.311
272.497
272.679
272.858
273.035
273.207
273.378
273.549
273.721
273.894
274.069
274.242
274.418
271.321
271.5
271.68
271.862
272.044
272.228
272.412
272.596
272.781
272.965
273.149
273.333
273.517
273.699
273.881
274.062
274.241
274.42
274.597
274.776
271.71
271.87
272.032
272.196
272.361
272.527
272.694
272.863
273.032
273.203
273.375
273.548
273.721
273.895
274.07
274.246
274.421
274.598
274.773
274.95
272.013
272.168
272.324
272.482
272.641
272.801
272.963
273.127
273.291
273.457
273.624
273.791
273.96
274.129
274.3
274.47
274.642
274.815
274.988
275.161
272.152
272.301
272.451
272.604
272.758
272.914
273.071
273.23
273.391
273.553
273.717
273.881
274.048
274.215
274.384
274.553
274.724
274.896
275.069
275.243
142.667
141.156
135.983
130.589
125.62
120.347
114.842
109.04
102.929
96.3671
89.3579
81.7582
73.5733
64.6007
54.9451
44.1699
32.7161
19.7315
4.99771
-4.69785
161.271
160.432
156.823
152.787
148.84
144.601
140.023
135.144
129.828
124.1
117.867
111.078
103.703
95.583
86.8012
76.9815
66.5763
54.7803
41.6037
33.5399
181.347
181.659
179.186
175.886
172.682
169.118
165.229
160.989
156.425
151.424
146.011
140.056
133.572
126.366
118.51
109.652
100.195
89.1139
77.293
70.7656
201.982
202.528
200.512
197.919
195.367
192.546
189.412
186.029
182.253
178.128
173.529
168.439
162.781
156.44
149.459
141.467
132.849
122.57
111.377
105.474
222.363
223.423
222.063
220.148
218.289
216.145
213.715
210.976
207.921
204.48
200.643
196.343
191.541
186.123
180.071
173.132
165.536
156.352
146.32
139.67
242.848
244.104
243.1
241.691
240.324
238.72
236.863
234.799
232.421
229.759
226.719
223.29
219.383
214.941
209.943
204.116
197.737
189.843
181.137
173.972
262.492
264.002
263.402
262.564
261.752
260.754
259.532
258.112
256.407
254.442
252.135
249.502
246.45
242.969
238.939
234.296
229.104
222.628
216.064
208.7
281.724
283.338
283.169
282.738
282.396
281.848
281.145
280.259
279.159
277.849
276.271
274.422
272.207
269.624
266.574
263.044
258.941
253.951
248.934
241.342
299.124
300.996
301.233
301.347
301.481
301.495
301.342
301.056
300.578
299.926
299.026
297.886
296.418
294.637
292.445
289.87
286.745
283.207
279.11
273.382
316.541
318.54
319.08
319.583
320.148
320.588
320.909
321.119
321.173
321.064
320.73
320.178
319.337
318.231
316.756
314.926
312.644
309.838
306.397
301.895
331.973
334.126
335.092
336.009
336.957
337.823
338.574
339.245
339.757
340.143
340.326
340.356
340.137
339.691
338.901
337.81
336.214
334.279
331.66
328.008
346.278
348.662
350.051
351.391
352.78
354.094
355.319
356.459
357.464
358.361
359.08
359.662
359.964
360.081
359.825
359.328
358.326
356.973
354.925
351.996
359.827
362.323
363.971
365.604
367.261
368.853
370.361
371.804
373.152
374.41
375.535
376.507
377.284
377.868
378.165
378.196
377.738
377.025
375.59
373.392
371.491
374.16
376.183
378.189
380.235
382.24
384.194
386.11
387.946
389.71
391.334
392.825
394.097
395.193
395.93
396.447
396.47
396.309
395.387
393.839
382.88
385.817
388.058
390.322
392.61
394.862
397.044
399.185
401.213
403.161
404.945
406.612
408.061
409.334
410.304
411.134
411.592
411.86
411.34
410.396
392.599
395.601
397.973
400.412
402.899
405.351
407.781
410.167
412.52
414.784
416.992
419.069
421.041
422.839
424.449
425.853
426.926
427.722
427.76
427.587
401.795
404.854
407.352
409.949
412.607
415.238
417.855
420.445
422.98
425.448
427.815
430.062
432.145
434.048
435.71
437.113
438.131
438.89
439.163
439.204
408.856
411.964
414.616
417.375
420.173
422.948
425.717
428.452
431.162
433.795
436.383
438.831
441.215
443.363
445.424
447.107
448.652
449.692
450.441
450.449
415.226
418.371
421.135
424
426.911
429.797
432.687
435.539
438.372
441.13
443.831
446.418
448.876
451.169
453.234
455.047
456.501
457.567
458.184
458.157
419.933
423.097
425.901
428.824
431.769
434.71
437.632
440.548
443.42
446.256
449.023
451.7
454.269
456.662
458.883
460.794
462.438
463.636
464.497
464.744
-207.028
-216.436
-226.23
-236.765
-247.639
-259.202
-271.169
-283.745
-296.857
-310.565
-324.962
-340.02
-355.891
-372.477
-389.966
-408.799
-428.001
-444.979
-458.894
-461.623
-198.336
-207.764
-217.472
-228.017
-238.857
-250.437
-262.445
-275.117
-288.365
-302.257
-316.879
-332.225
-348.382
-365.348
-383.408
-402.544
-421.993
-440.764
-457.409
-459.776
-188.547
-197.988
-207.621
-218.166
-229.044
-240.666
-252.772
-265.543
-278.951
-293.046
-307.906
-323.573
-340.119
-357.6
-376.24
-395.967
-416.676
-438.286
-454.044
-456.607
-178.256
-187.695
-197.188
-207.692
-218.48
-230.046
-242.138
-254.918
-268.358
-282.494
-297.474
-313.238
-329.985
-347.717
-366.632
-386.872
-408.53
-431.181
-448.202
-450.736
-166.864
-176.27
-185.58
-195.999
-206.707
-218.248
-230.285
-243.042
-256.499
-270.713
-285.744
-301.68
-318.58
-336.5
-355.601
-376.192
-397.874
-421.094
-439.026
-442.323
-154.508
-163.869
-173.03
-183.311
-193.926
-205.318
-217.294
-229.941
-243.314
-257.451
-272.472
-288.326
-305.242
-323.183
-342.479
-363.22
-385.408
-409.183
-428.416
-432.944
-141.314
-150.587
-159.501
-169.581
-180.017
-191.189
-202.964
-215.453
-228.672
-242.685
-257.55
-273.348
-290.185
-308.051
-327.252
-347.941
-369.943
-393.802
-413.841
-418.955
-126.932
-136.077
-144.749
-154.585
-164.821
-175.769
-187.355
-199.624
-212.632
-226.429
-241.107
-256.685
-273.36
-291.046
-310.19
-330.675
-352.713
-376.656
-397.446
-403.498
-111.601
-120.599
-129.011
-138.574
-148.539
-159.178
-170.448
-182.413
-195.113
-208.598
-222.957
-238.262
-254.605
-272.017
-290.838
-311.003
-332.712
-356.334
-377.518
-384.268
-95.2365
-104.035
-112.105
-121.307
-130.962
-141.256
-152.191
-163.811
-176.152
-189.305
-203.299
-218.226
-234.196
-251.215
-269.703
-289.435
-310.898
-334.219
-355.722
-363.102
-77.8579
-86.4153
-94.1741
-103.009
-112.306
-122.2
-132.73
-143.925
-155.838
-168.512
-182.058
-196.515
-211.996
-228.553
-246.515
-265.679
-286.58
-309.303
-330.763
-338.687
-59.5184
-67.8119
-75.1717
-83.5513
-92.4317
-101.873
-111.931
-122.664
-134.083
-146.314
-159.327
-173.285
-188.217
-204.222
-221.619
-240.17
-260.635
-282.72
-304.141
-312.449
-40.2392
-48.2177
-55.1956
-63.1057
-71.5392
-80.4957
-90.0718
-100.285
-111.179
-122.804
-135.268
-148.601
-162.912
-178.299
-195.018
-212.848
-232.648
-253.555
-275.001
-283.5
-19.9854
-27.6394
-34.1996
-41.5869
-49.5298
-57.9624
-66.9748
-76.6335
-86.9392
-98.0272
-109.839
-122.577
-136.215
-150.946
-166.897
-184.038
-203.101
-223.008
-244.351
-253.016
1.14726
-6.15481
-12.2928
-19.1428
-26.5662
-34.4599
-42.9279
-52.0115
-61.7226
-72.1342
-83.3239
-95.3428
-108.266
-122.236
-137.405
-153.711
-171.803
-190.626
-211.965
-220.717
23.1795
16.2199
10.486
4.18929
-2.72086
-10.068
-17.9533
-26.4376
-35.5313
-45.3432
-55.8253
-67.1766
-79.3419
-92.5834
-106.847
-122.335
-139.433
-157.218
-178.085
-187.364
45.8253
39.2989
34.0228
28.3006
21.9594
15.1706
7.87218
-0.0149657
-8.46762
-17.5808
-27.395
-37.9912
-49.4104
-61.8182
-75.2657
-89.8917
-105.947
-122.895
-143.048
-152.44
68.9875
62.9133
58.1171
52.9866
47.1551
40.895
34.1469
26.854
18.9848
10.4835
1.3656
-8.53785
-19.1618
-30.8016
-43.2925
-57.0017
-71.9779
-87.8125
-106.899
-116.332
93.9853
87.651
83.1973
78.5957
73.2604
67.4333
61.2034
54.4481
47.2035
39.3699
30.9366
21.7994
11.9406
1.17548
-10.4358
-23.2689
-37.128
-52.1547
-70.1613
-79.4527
122.136
115.982
110.537
105.537
100.296
94.592
88.5643
82.189
75.3506
68.0357
60.2029
51.7288
42.6285
32.6578
21.9484
10.0758
-2.66737
-16.652
-33.3113
-42.7398
117.186
116.758
114.975
113.083
109.957
105.874
102.151
96.3466
90.9281
83.037
74.9579
64.1608
51.9781
37.0035
18.4922
-2.70073
-31.5994
-62.9964
-109.911
-161.445
117.327
117.028
115.257
113.318
110.427
106.305
102.8
97.0516
91.8138
84.0464
76.1702
65.5747
53.6963
39.0847
21.0243
0.43578
-27.8134
-57.7324
-103.578
-153.288
117.494
117.357
115.668
113.559
110.934
106.764
103.472
97.7939
92.7147
85.0897
77.4246
67.0393
55.4764
41.2057
23.6456
3.72157
-23.8565
-52.4618
-97.527
-144.17
117.639
117.603
116.004
113.836
111.464
107.277
104.2
98.6126
93.7096
86.2318
78.781
68.609
57.3826
43.4798
26.425
7.1301
-19.5925
-46.7444
-90.4528
-134.671
117.861
117.908
116.394
114.161
112.038
107.805
104.959
99.4648
94.7249
87.4068
80.1758
70.2246
59.3497
45.7921
29.3084
10.6746
-15.2137
-41.0322
-83.3752
-124.611
118.075
118.193
116.793
114.532
112.633
108.388
105.787
100.392
95.8306
88.6774
81.6699
71.9487
61.4365
48.2518
32.3401
14.3477
-10.51
-34.86
-75.4627
-113.936
118.354
118.463
117.226
114.912
113.217
108.977
106.631
101.359
96.9611
89.9803
83.201
73.7109
63.5811
50.7503
35.4733
18.1486
-5.69833
-28.6298
-67.4142
-102.716
118.633
118.709
117.66
115.291
113.94
109.626
107.539
102.421
98.1747
91.3798
84.8282
75.5835
65.8395
53.3897
38.7524
22.0837
-0.558818
-22.0037
-58.7505
-90.8342
118.967
118.997
118.152
115.749
114.864
110.299
108.456
103.522
99.4105
92.8144
86.4909
77.4862
68.1487
56.0653
42.1187
26.134
4.65223
-15.2547
-49.8017
-78.4489
119.287
119.3
118.786
116.293
115.884
111.066
109.442
104.701
100.729
94.3449
88.2454
79.4989
70.5662
58.8788
45.6353
30.3189
10.2464
-8.17016
-40.4187
-65.3411
119.656
119.587
119.446
116.833
116.84
111.916
110.428
105.928
102.073
95.907
90.0346
81.5309
73.025
61.7252
49.22
34.6084
15.8341
-0.956173
-30.7266
-51.72
120.028
119.882
120.079
117.315
117.849
112.934
111.523
107.209
103.504
97.5476
91.9068
83.669
75.5868
64.7081
52.9471
39.024
21.8667
6.56545
-20.6804
-37.3658
120.418
120.162
120.651
117.796
118.822
114.042
112.772
108.533
104.967
99.2115
93.8043
85.8272
78.1813
67.7182
56.7171
43.5612
27.8679
14.1556
-10.3769
-22.4504
120.824
120.448
121.254
118.273
119.823
115.231
114.046
109.891
106.504
100.946
95.7703
88.1009
80.8764
70.8573
60.6334
48.2209
34.296
22.0203
0.222913
-6.86357
121.253
120.725
121.89
118.783
120.847
116.413
115.324
111.275
108.061
102.699
97.7536
90.3895
83.5779
74.003
64.5398
52.9842
40.6882
29.8082
11.005
9.47687
121.674
120.996
122.526
119.331
121.821
117.556
116.622
112.7
109.67
104.517
99.8177
92.7521
86.3632
77.253
68.6155
57.8908
47.4442
37.9055
22.3387
26.6779
122.132
121.28
123.234
119.976
122.889
118.728
117.983
114.183
111.334
106.396
101.939
95.196
89.2369
80.64
72.8115
63.0459
54.4288
46.0829
33.7606
44.1433
122.781
121.638
124.082
120.644
124.023
119.934
119.357
115.695
113.04
108.332
104.117
97.675
92.1317
84.0046
76.9823
68.0603
61.2035
53.5611
44.4423
61.6131
123.048
121.862
124.409
121.197
125.076
121.071
120.592
117.054
114.566
110.071
105.989
99.7789
94.5351
86.8427
80.4741
72.5333
67.2128
60.3588
56.8848
84.7194
123.905
121.954
124.947
121.967
126.36
122.525
122.167
118.754
116.433
112.171
108.425
102.68
97.9553
91.0754
85.7446
79.6703
76.4748
71.9895
75.4377
109.773
141.637
131.455
138.848
134.495
136.795
134.017
134.625
132.113
131.958
129.337
129.439
127.589
128.656
127.799
131.337
132.434
140.644
148.114
168.406
163.63
145.442
143.001
144.874
144.163
145.587
144.85
145.549
145.529
146.238
146.971
148.59
150.171
153.448
156.682
162.841
168.783
180.278
188.855
214.144
224.54
163.736
163.164
163.092
163.346
163.929
164.172
165.427
166.077
168.05
169.633
172.399
175.068
179.342
183.827
190.5
198.052
208.246
219.651
234.792
248.627
170.088
170.172
170.55
171.327
172.594
174.1
175.873
178.148
180.683
183.525
187.052
191.054
195.972
201.388
208.212
215.213
224.53
233.642
246.445
257.36
181.315
181.296
182.056
183.564
185.409
187.286
189.455
191.706
194.337
197.269
200.765
204.574
208.932
213.931
219.497
225.934
232.657
240.335
248.404
256.955
188.862
189.095
190.099
191.737
193.418
195.865
198.117
200.856
203.712
206.927
210.344
214.191
218.449
223.063
228.061
233.389
239.331
245.497
252.805
258.748
197.889
198.53
199.439
201.588
203.637
205.74
208.125
210.494
213.244
215.971
219.21
222.458
226.112
229.918
233.962
238.269
242.772
247.329
251.504
256.747
204.389
205.011
206.416
208.472
210.334
212.693
214.989
217.437
220.061
222.755
225.649
228.578
231.857
235.054
238.66
242.352
246.393
250.571
254.72
258.144
212.047
212.585
214.516
216.091
218.606
220.393
222.858
224.838
227.323
229.564
232.156
234.729
237.458
240.22
243.113
245.887
248.674
251.299
254.221
257.31
217.755
218.327
220.764
222.397
224.88
226.651
228.915
230.766
233.001
234.982
237.247
239.335
241.666
243.948
246.387
248.911
251.59
253.971
256.474
258.672
225.498
225.972
228.759
229.922
232.437
233.793
235.867
237.299
239.244
240.801
242.731
244.439
246.418
248.254
250.324
252.104
254.06
255.876
257.905
259.694
233.538
233.164
236.761
237.643
239.509
240.633
242.094
243.259
244.668
245.91
247.341
248.666
250.165
251.595
253.179
254.679
256.359
257.918
259.623
261.035
246.769
245.372
246.508
246.252
247.498
247.82
248.784
249.367
250.297
251.065
252.078
253.003
254.134
255.18
256.4
257.517
258.802
259.955
261.301
262.444
259.89
258.261
256.267
256.233
255.395
255.391
255.197
255.368
255.599
255.945
256.463
256.985
257.705
258.395
259.272
260.091
261.091
261.992
263.081
264.001
266.652
266.383
263.415
262.64
261.5
260.708
260.36
259.882
259.934
259.804
260.099
260.273
260.749
261.147
261.766
262.33
263.069
263.744
264.585
265.321
273.44
272.215
269.997
268.06
266.932
265.562
264.946
264.109
263.841
263.424
263.414
263.325
263.526
263.692
264.07
264.425
264.949
265.443
266.089
266.671
278.234
275.222
273.526
271.188
270.279
268.48
268.017
266.769
266.514
265.823
265.725
265.435
265.492
265.494
265.707
265.928
266.301
266.684
267.182
267.674
280.625
276.098
275.096
272.976
272.16
270.687
269.978
269.034
268.466
267.87
267.525
267.229
267.114
267.045
267.135
267.235
267.479
267.749
268.144
268.544
280.704
275.878
275.312
273.765
272.965
271.735
271.039
270.131
269.637
268.986
268.675
268.271
268.13
267.978
267.971
268.082
268.279
268.505
268.81
269.143
279.639
277.317
276.433
274.721
273.799
272.534
271.727
270.8
270.182
269.589
269.179
268.849
268.649
268.521
268.535
268.521
268.655
268.824
269.096
269.419
201.178
216.172
230.327
244.965
258.215
271.726
283.739
295.844
306.695
317.277
327.043
336.176
344.583
351.943
359.106
365.016
370.696
375.438
379.735
383.256
255.117
264.548
273.324
280.899
287.252
293.341
299.091
304.761
310.021
315.015
320.73
325.534
330.012
334.123
338.06
341.591
344.873
347.792
350.429
352.763
262.433
266.072
270.095
273.598
277.145
280.518
284.413
287.985
291.478
294.352
297.321
299.881
302.524
304.824
307.152
309.224
311.265
313.116
314.897
316.528
266.462
268.88
271.666
274.064
276.624
278.982