/*--------------------------------*- C++ -*----------------------------------*\
  =========                 |
  \\      /  F ield         | OpenFOAM: The Open Source CFD Toolbox
   \\    /   O peration     | Website:  https://openfoam.org
    \\  /    A nd           | Version:  9
     \\/     M anipulation  |
\*---------------------------------------------------------------------------*/
FoamFile
{
    format      ascii;
    class       surfaceScalarField;
    location    "6.9";
    object      phi;
}
// * * * * * * * * * * * * * * * * * * * * * * * * * * * * * * * * * * * * * //

dimensions      [0 3 -1 0 0 0 0];

internalField   nonuniform List<scalar> 
92080
(
-0.000774606
-0.442338
0.443113
-0.0226769
-0.904783
0.926685
-0.0614364
-1.0012
1.03996
-0.10197
-0.985245
1.02578
-0.141682
-0.969351
1.00906
-0.18086
-0.953866
0.993044
-0.219627
-0.940516
0.979283
-0.257998
-0.927002
0.965373
-0.296025
-0.913576
0.951603
-0.333776
-0.900785
0.938535
-0.371322
-0.88942
0.926966
-0.408404
-0.878622
0.915704
-0.445361
-0.868434
0.905391
-0.482438
-0.859815
0.896892
-0.517957
-0.852683
0.888202
-0.552126
-0.845913
0.880083
-0.583801
-0.839087
0.870762
-0.612956
-0.830886
0.860041
-0.640149
-0.822897
0.850089
-0.817331
0.847177
-0.669995
-0.00300247
-0.439336
-0.0283687
-0.879416
-0.0707689
-0.9588
-0.113373
-0.942642
-0.155101
-0.927622
-0.196711
-0.912255
-0.237378
-0.899849
-0.277057
-0.887323
-0.316035
-0.874598
-0.354948
-0.861872
-0.393726
-0.850642
-0.432518
-0.83983
-0.471202
-0.829751
-0.510738
-0.820279
-0.551255
-0.812165
-0.590479
-0.80669
-0.628713
-0.800854
-0.664968
-0.794631
-0.699107
-0.788758
-0.784062
-0.732375
-0.00522485
-0.434111
-0.0338058
-0.850835
-0.0773338
-0.915272
-0.121674
-0.898301
-0.164878
-0.884419
-0.20737
-0.869763
-0.249667
-0.857552
-0.290889
-0.846101
-0.331095
-0.834393
-0.370561
-0.822407
-0.409605
-0.811598
-0.447912
-0.801523
-0.48581
-0.791852
-0.523077
-0.783012
-0.561499
-0.773744
-0.601502
-0.766686
-0.640397
-0.761959
-0.678534
-0.756494
-0.716122
-0.75117
-0.745958
-0.754227
-0.00750913
-0.426602
-0.0399629
-0.818382
-0.0860483
-0.869187
-0.131667
-0.852682
-0.17687
-0.839217
-0.221796
-0.824837
-0.266133
-0.813215
-0.309942
-0.802292
-0.352592
-0.791743
-0.394796
-0.780202
-0.436712
-0.769682
-0.478378
-0.759857
-0.51907
-0.75116
-0.559142
-0.742941
-0.598334
-0.734551
-0.639182
-0.725839
-0.681694
-0.719447
-0.723429
-0.714759
-0.763842
-0.710757
-0.706613
-0.803186
-0.00898516
-0.417617
-0.0471598
-0.780207
-0.09383
-0.822516
-0.14083
-0.805682
-0.186676
-0.79337
-0.231878
-0.779636
-0.276933
-0.76816
-0.321193
-0.758032
-0.36419
-0.748745
-0.405943
-0.738449
-0.44712
-0.728506
-0.488397
-0.71858
-0.529865
-0.709691
-0.570037
-0.702769
-0.608601
-0.695987
-0.645732
-0.688708
-0.684676
-0.680502
-0.725931
-0.673505
-0.768668
-0.668019
-0.663276
-0.812006
-0.00795344
-0.409663
-0.0499911
-0.738169
-0.0988212
-0.773686
-0.147139
-0.757365
-0.195594
-0.744915
-0.243732
-0.731497
-0.291443
-0.720449
-0.339319
-0.710156
-0.38584
-0.702223
-0.430988
-0.693302
-0.474809
-0.684685
-0.517428
-0.675961
-0.56056
-0.66656
-0.604995
-0.658334
-0.649077
-0.651904
-0.690785
-0.647
-0.729886
-0.641401
-0.768711
-0.634679
-0.807462
-0.629268
-0.623808
-0.84693
-0.00711631
-0.402547
-0.0504425
-0.694843
-0.10237
-0.721759
-0.153486
-0.706248
-0.202597
-0.695804
-0.25118
-0.682914
-0.29919
-0.672439
-0.347027
-0.662319
-0.394963
-0.654287
-0.441019
-0.647246
-0.48587
-0.639833
-0.529041
-0.63279
-0.570218
-0.625383
-0.610837
-0.617715
-0.653668
-0.609073
-0.698022
-0.602646
-0.741234
-0.598189
-0.783367
-0.592547
-0.824693
-0.587943
-0.583029
-0.865471
-0.00614762
-0.396399
-0.0514234
-0.649567
-0.105363
-0.667819
-0.158623
-0.652989
-0.210965
-0.643462
-0.261666
-0.632213
-0.311973
-0.622133
-0.361507
-0.612784
-0.411396
-0.604399
-0.461285
-0.597356
-0.509861
-0.591258
-0.55722
-0.58543
-0.603727
-0.578876
-0.647623
-0.573819
-0.689053
-0.567643
-0.731656
-0.560043
-0.775158
-0.554687
-0.818309
-0.549396
-0.86158
-0.544672
-0.540619
-0.90399
-0.00494035
-0.391459
-0.0532175
-0.60129
-0.10963
-0.611406
-0.163027
-0.599592
-0.215885
-0.590604
-0.267106
-0.580993
-0.317128
-0.57211
-0.366524
-0.563389
-0.415448
-0.555475
-0.464514
-0.54829
-0.513994
-0.541778
-0.56248
-0.536944
-0.609992
-0.531363
-0.657649
-0.526163
-0.703279
-0.522012
-0.746461
-0.516861
-0.789441
-0.511707
-0.832192
-0.506644
-0.874646
-0.502218
-0.497615
-0.91765
-0.00800541
-0.383454
-0.0596536
-0.549642
-0.117365
-0.553695
-0.173418
-0.543539
-0.227464
-0.536558
-0.28054
-0.527917
-0.332365
-0.520285
-0.382558
-0.513195
-0.432333
-0.5057
-0.481618
-0.499005
-0.531214
-0.492182
-0.58105
-0.487108
-0.630374
-0.48204
-0.678663
-0.477874
-0.726853
-0.473822
-0.774233
-0.469481
-0.819639
-0.466301
-0.864232
-0.462051
-0.907912
-0.458537
-0.454814
-0.950714
-0.0135405
-0.369913
-0.0672601
-0.495922
-0.125321
-0.495634
-0.181057
-0.487803
-0.236015
-0.481601
-0.288745
-0.475186
-0.341153
-0.467877
-0.392512
-0.461837
-0.441922
-0.45629
-0.48981
-0.451117
-0.537583
-0.444408
-0.585405
-0.439287
-0.633465
-0.433981
-0.68241
-0.428929
-0.730364
-0.425868
-0.778684
-0.421162
-0.827418
-0.417567
-0.87498
-0.414489
-0.922384
-0.411134
-0.408379
-0.968819
-0.0225865
-0.347327
-0.0776666
-0.440842
-0.13495
-0.438351
-0.191137
-0.431615
-0.247355
-0.425383
-0.302363
-0.420179
-0.355796
-0.414444
-0.409338
-0.408294
-0.463476
-0.402153
-0.515005
-0.399588
-0.564202
-0.395212
-0.612774
-0.390715
-0.659908
-0.386846
-0.706699
-0.382138
-0.7541
-0.378467
-0.800023
-0.375238
-0.846299
-0.371291
-0.89283
-0.367957
-0.938978
-0.364987
-0.361845
-0.985511
-0.0289649
-0.318362
-0.0827769
-0.38703
-0.139826
-0.381301
-0.195927
-0.375515
-0.250655
-0.370655
-0.305626
-0.365208
-0.358715
-0.361355
-0.409219
-0.35779
-0.4608
-0.350572
-0.514118
-0.34627
-0.566246
-0.343084
-0.617269
-0.339691
-0.667956
-0.336159
-0.717305
-0.33279
-0.765866
-0.329905
-0.814345
-0.32676
-0.861191
-0.324445
-0.907891
-0.321257
-0.954114
-0.318763
-0.316169
-0.999791
-0.0365029
-0.281859
-0.0934495
-0.330084
-0.151818
-0.322933
-0.209145
-0.318188
-0.266233
-0.313567
-0.321654
-0.309787
-0.378043
-0.304965
-0.431237
-0.304596
-0.481301
-0.300508
-0.531234
-0.296337
-0.581548
-0.29277
-0.63156
-0.289679
-0.68062
-0.287099
-0.73017
-0.28324
-0.779024
-0.281052
-0.827416
-0.278367
-0.875834
-0.276028
-0.923148
-0.273944
-0.97027
-0.271641
-0.269487
-1.01695
-0.0409434
-0.240915
-0.0977145
-0.273313
-0.155404
-0.265243
-0.211396
-0.262195
-0.266691
-0.258272
-0.321553
-0.254925
-0.377142
-0.249376
-0.433971
-0.247768
-0.48819
-0.246289
-0.541453
-0.243074
-0.592886
-0.241337
-0.644131
-0.238434
-0.694283
-0.236946
-0.743093
-0.23443
-0.792377
-0.231768
-0.840728
-0.230016
-0.888777
-0.227979
-0.936426
-0.226295
-0.983221
-0.224846
-0.223142
-1.02957
-0.0503012
-0.190614
-0.107775
-0.215839
-0.164871
-0.208148
-0.221831
-0.205235
-0.27805
-0.202053
-0.331492
-0.201483
-0.38338
-0.197489
-0.437565
-0.193583
-0.490829
-0.193024
-0.544151
-0.189753
-0.597144
-0.188343
-0.64921
-0.186368
-0.70113
-0.185027
-0.751955
-0.183605
-0.80177
-0.181953
-0.85158
-0.180206
-0.900728
-0.17883
-0.949569
-0.177454
-0.998207
-0.176208
-0.175553
-1.0458
-0.0636592
-0.126955
-0.120195
-0.159303
-0.172034
-0.156308
-0.226461
-0.150809
-0.283331
-0.145183
-0.340828
-0.143987
-0.39565
-0.142666
-0.449334
-0.139898
-0.503218
-0.139141
-0.554953
-0.138017
-0.606799
-0.136497
-0.658027
-0.13514
-0.708875
-0.134179
-0.759234
-0.133246
-0.808953
-0.132234
-0.857699
-0.13146
-0.90629
-0.130239
-0.954169
-0.129575
-1.00197
-0.12841
-0.127747
-1.04977
-0.0590853
-0.0678698
-0.124059
-0.0943294
-0.185103
-0.0952646
-0.238599
-0.0973123
-0.289537
-0.0942445
-0.34289
-0.090633
-0.395953
-0.0896034
-0.448646
-0.0872053
-0.502202
-0.0855853
-0.555633
-0.0845861
-0.608339
-0.0837914
-0.66062
-0.0828595
-0.712469
-0.0823301
-0.763846
-0.0818692
-0.81469
-0.0813898
-0.865265
-0.0808851
-0.914814
-0.0806899
-0.964378
-0.0800114
-1.01291
-0.0798753
-0.0791598
-1.0615
-0.0449416
-0.0229281
-0.107404
-0.0318674
-0.171962
-0.0307061
-0.235024
-0.0342502
-0.292965
-0.0363039
-0.348406
-0.0351916
-0.403475
-0.0345343
-0.45711
-0.0335707
-0.510113
-0.0325826
-0.562589
-0.0321097
-0.614946
-0.0314347
-0.666347
-0.0314582
-0.717528
-0.0311496
-0.768001
-0.0313956
-0.818021
-0.0313699
-0.867598
-0.0313084
-0.916856
-0.0314315
-0.965508
-0.0313591
-1.01387
-0.0315114
-0.0314663
-1.06157
-0.0535341
0.030606
-0.113382
0.0279809
-0.168971
0.024882
-0.228414
0.0251928
-0.286933
0.0222158
-0.343838
0.0217128
-0.400349
0.0219771
-0.455271
0.0213509
-0.509545
0.0216916
-0.56296
0.0213052
-0.615758
0.0213633
-0.668124
0.0209077
-0.719858
0.0205841
-0.771143
0.0198899
-0.821986
0.0194726
-0.872138
0.018844
-0.921986
0.0184166
-0.971135
0.0177897
-1.01988
0.0172368
-1.06805
0.0167038
0.00277202
0.126104
-0.128876
0.055467
0.0670573
-0.119752
0.182003
-0.121356
-0.00518045
0.428696
-0.535761
0.289069
0.636228
-0.914311
0.706779
0.756517
-1.12567
1.00538
0.805231
-1.20607
1.15736
0.824877
-1.23025
1.21061
0.833137
-1.23505
1.22679
0.836506
-1.23292
1.22955
0.837887
-1.22859
1.22721
0.839679
-1.22491
1.22311
0.84135
-1.22338
1.22171
0.843459
-1.22235
1.22024
0.844826
-1.22154
1.22018
0.845378
-1.21822
1.21767
0.845625
-1.21682
1.21657
0.84643
-1.21364
1.21284
0.846804
-1.21236
1.21198
-1.20675
0.844899
1.20866
0.0174702
0.108634
0.0892065
-0.00467891
0.268458
-0.300607
0.490373
-0.757676
0.633932
-1.05787
0.698674
-1.19041
0.723243
-1.23064
0.732186
-1.2392
0.735293
-1.23816
0.735164
-1.23279
0.735105
-1.22853
0.735966
-1.22577
0.737463
-1.22488
0.738585
-1.22347
0.738758
-1.22172
0.738785
-1.21825
0.738568
-1.2166
0.737261
-1.21234
0.734833
-1.20993
-1.20297
0.731048
0.0396439
0.0689899
0.127545
-0.0925802
0.329453
-0.502514
0.501254
-0.929478
0.5932
-1.14982
0.627115
-1.22433
0.638089
-1.24162
0.64134
-1.24245
0.641295
-1.23811
0.64102
-1.23251
0.641712
-1.22922
0.642531
-1.22658
0.642689
-1.22504
0.642128
-1.22291
0.640403
-1.21999
0.638036
-1.21588
0.63495
-1.21352
0.63198
-1.20937
0.628358
-1.20631
-1.19781
0.623205
0.0533102
0.0156797
0.160573
-0.199843
0.346791
-0.688732
0.469518
-1.0522
0.522778
-1.20308
0.540241
-1.24179
0.545389
-1.24676
0.547109
-1.24417
0.546612
-1.23762
0.546744
-1.23264
0.546245
-1.22873
0.545197
-1.22554
0.543585
-1.22343
0.541172
-1.22049
0.538065
-1.21688
0.534988
-1.2128
0.53177
-1.2103
0.528046
-1.20564
0.522934
-1.20119
-1.19143
0.516552
0.0476509
-0.0319712
0.180513
-0.332705
0.334129
-0.842349
0.420184
-1.13826
0.451257
-1.23415
0.460351
-1.25088
0.463504
-1.24992
0.462701
-1.24336
0.46129
-1.23621
0.459552
-1.23091
0.457324
-1.2265
0.454911
-1.22312
0.452027
-1.22054
0.44849
-1.21696
0.444039
-1.21243
0.439301
-1.20806
0.433718
-1.20472
0.427723
-1.19965
0.420768
-1.19424
-1.18378
0.413119
0.0458758
-0.077847
0.180389
-0.467219
0.296636
-0.958596
0.353452
-1.19507
0.370677
-1.25137
0.375653
-1.25586
0.376283
-1.25055
0.374949
-1.24203
0.373804
-1.23506
0.371987
-1.22909
0.369596
-1.22411
0.366494
-1.22002
0.362316
-1.21637
0.356932
-1.21157
0.350812
-1.20631
0.344197
-1.20145
0.33735
-1.19787
0.330296
-1.19259
0.322376
-1.18632
-1.17513
0.313722
0.0460322
-0.123879
0.163992
-0.585178
0.255388
-1.04999
0.292749
-1.23244
0.302843
-1.26147
0.305767
-1.25878
0.304392
-1.24917
0.302434
-1.24007
0.299037
-1.23166
0.294782
-1.22484
0.289437
-1.21876
0.283267
-1.21385
0.276411
-1.20951
0.268951
-1.20411
0.260914
-1.19828
0.252908
-1.19344
0.24435
-1.18931
0.235453
-1.1837
0.225964
-1.17683
-1.16517
0.216008
0.0457326
-0.169612
0.147128
-0.686574
0.214412
-1.11728
0.235713
-1.25374
0.239411
-1.26517
0.237798
-1.25717
0.234389
-1.24576
0.230021
-1.2357
0.22497
-1.22661
0.218998
-1.21886
0.212462
-1.21223
0.205382
-1.20677
0.197385
-1.20151
0.188417
-1.19514
0.178739
-1.1886
0.168227
-1.18293
0.15737
-1.17846
0.146548
-1.17287
0.135162
-1.16544
-1.15357
0.123559
0.0498111
-0.219423
0.129772
-0.766534
0.176697
-1.1642
0.186384
-1.26342
0.185301
-1.26408
0.180071
-1.25194
0.174219
-1.23991
0.167362
-1.22885
0.159515
-1.21877
0.151041
-1.21039
0.141508
-1.20269
0.131026
-1.19629
0.119873
-1.19036
0.107924
-1.1832
0.0955329
-1.17621
0.0831795
-1.17058
0.0705522
-1.16583
0.0577936
-1.16011
0.0449159
-1.15257
-1.14038
0.0317255
0.0493446
-0.268768
0.111883
-0.829073
0.14142
-1.19374
0.1422
-1.26421
0.136178
-1.25806
0.128112
-1.24387
0.119494
-1.23129
0.109848
-1.2192
0.0994609
-1.20838
0.0881482
-1.19908
0.0763651
-1.19091
0.0639673
-1.18389
0.0508958
-1.17729
0.0374034
-1.1697
0.0232466
-1.16205
0.00825953
-1.15559
-0.0070944
-1.15047
-0.0223045
-1.1449
-0.0375622
-1.13731
-1.12498
-0.0529628
0.0413916
-0.310159
0.0894058
-0.877087
0.107585
-1.21192
0.102406
-1.25903
0.0920556
-1.24771
0.080722
-1.23254
0.0686065
-1.21918
0.055859
-1.20645
0.0425114
-1.19503
0.0288486
-1.18541
0.0143798
-1.17644
-0.000632882
-1.16888
-0.0160539
-1.16187
-0.0322922
-1.15346
-0.0487644
-1.14558
-0.0652518
-1.1391
-0.0819519
-1.13377
-0.0985123
-1.12834
-0.114617
-1.1212
-1.10892
-0.130681
0.0349347
-0.345094
0.0760025
-0.918155
0.0808574
-1.21677
0.0694596
-1.24763
0.055147
-1.2334
0.0408795
-1.21827
0.0259509
-1.20425
0.0104076
-1.19091
-0.00585581
-1.17877
-0.0228789
-1.16839
-0.0402009
-1.15912
-0.0583426
-1.15074
-0.0767329
-1.14348
-0.094852
-1.13535
-0.113418
-1.12701
-0.132342
-1.12018
-0.151062
-1.11505
-0.168973
-1.11043
-0.186267
-1.10391
-1.09199
-0.203191
0.0242804
-0.369374
0.0486312
-0.942506
0.0484674
-1.21661
0.0340781
-1.23324
0.017307
-1.21663
-1.80341e-05
-1.20095
-0.0179004
-1.18637
-0.0363815
-1.17243
-0.0551402
-1.16001
-0.0742204
-1.14931
-0.0937904
-1.13955
-0.113475
-1.13105
-0.133669
-1.12328
-0.154558
-1.11446
-0.175317
-1.10625
-0.196392
-1.0991
-0.217774
-1.09367
-0.238389
-1.08982
-0.257431
-1.08487
-1.07386
-0.275563
0.0238209
-0.393195
0.041966
-0.960651
0.031117
-1.20576
0.0119453
-1.21407
-0.00879346
-1.19589
-0.0295103
-1.18023
-0.0506257
-1.16525
-0.0721686
-1.15089
-0.0945031
-1.13767
-0.11726
-1.12655
-0.140235
-1.11657
-0.16394
-1.10735
-0.187202
-1.10002
-0.209958
-1.0917
-0.233159
-1.08305
-0.256129
-1.07613
-0.278984
-1.07082
-0.301296
-1.06751
-0.322115
-1.06405
-1.05457
-0.341403
0.0160292
-0.409224
0.0245801
-0.969202
0.0076422
-1.18882
-0.0154934
-1.19093
-0.0387749
-1.17261
-0.0627409
-1.15627
-0.0866854
-1.14131
-0.11094
-1.12663
-0.135254
-1.11336
-0.160197
-1.10161
-0.18532
-1.09145
-0.21055
-1.08212
-0.23654
-1.07403
-0.262301
-1.06594
-0.287686
-1.05767
-0.313779
-1.05004
-0.340022
-1.04457
-0.36556
-1.04197
-0.390018
-1.03959
-1.03182
-0.412766
0.0145496
-0.423774
0.0184139
-0.973066
-0.00305957
-1.16735
-0.0307577
-1.16323
-0.0584039
-1.14496
-0.0857421
-1.12893
-0.113284
-1.11376
-0.140861
-1.09905
-0.168904
-1.08532
-0.196894
-1.07362
-0.225225
-1.06312
-0.253836
-1.05351
-0.282012
-1.04585
-0.310174
-1.03778
-0.337903
-1.02994
-0.365078
-1.02287
-0.39289
-1.01676
-0.420181
-1.01468
-0.445866
-1.01391
-1.00844
-0.469247
0.00858524
-0.432359
0.00450693
-0.968988
-0.0219933
-1.14085
-0.0519061
-1.13332
-0.0818379
-1.11503
-0.111918
-1.09885
-0.141532
-1.08415
-0.171273
-1.06931
-0.20115
-1.05544
-0.231882
-1.04289
-0.262531
-1.03247
-0.293594
-1.02244
-0.325139
-1.01431
-0.356118
-1.0068
-0.387333
-0.998725
-0.418535
-0.991663
-0.449959
-0.985337
-0.482186
-0.982451
-0.513574
-0.982519
-0.979821
-0.542195
0.00642742
-0.438786
-0.00237659
-0.960184
-0.0332037
-1.11002
-0.0666972
-1.09983
-0.0996357
-1.08209
-0.132496
-1.06599
-0.165418
-1.05123
-0.198041
-1.03669
-0.230557
-1.02292
-0.263026
-1.01042
-0.29618
-0.999316
-0.329328
-0.989295
-0.362854
-0.980784
-0.396405
-0.973247
-0.429414
-0.965715
-0.463085
-0.957993
-0.497542
-0.95088
-0.53335
-0.946644
-0.569554
-0.946315
-0.946242
-0.603132
0.00309047
-0.441877
-0.0109769
-0.946117
-0.0440464
-1.07695
-0.0797723
-1.0641
-0.115277
-1.04658
-0.150627
-1.03064
-0.185406
-1.01645
-0.22036
-1.00174
-0.255605
-0.987679
-0.291255
-0.974769
-0.327087
-0.963484
-0.363865
-0.952517
-0.401173
-0.943475
-0.439017
-0.935403
-0.477203
-0.92753
-0.515459
-0.919737
-0.555871
-0.910468
-0.599649
-0.902866
-0.646678
-0.899286
-0.901367
-0.691554
0.0012361
-0.0181958
-0.0551863
-0.0935084
-0.131031
-0.168624
-0.20579
-0.242155
-0.278231
-0.314464
-0.350982
-0.387795
-0.425879
-0.464391
-0.503718
-0.543372
-0.583078
-0.625902
-0.675099
-0.729288
0.706257
-10.49
10.6286
0.599175
-10.057
10.1641
0.514571
-10.0872
10.1718
0.438375
-10.048
10.1242
0.373229
-10.0271
10.0922
0.315217
-9.93467
9.99269
0.267601
-9.85791
9.90552
0.22471
-9.75998
9.80287
0.187375
-9.67391
9.71125
0.154249
-9.59691
9.63004
0.126754
-9.553
9.58049
0.102085
-9.48598
9.51065
0.0823912
-9.45398
9.47367
0.0639189
-9.39191
9.41039
0.0502089
-9.36383
9.37754
0.0357285
-9.28868
9.30316
0.0273245
-9.06442
9.07282
0.0202096
-8.12495
8.13207
0.0151161
-5.80546
5.81055
-2.4969
2.51201
0.599326
-10.3582
0.502242
-9.95994
0.422095
-10.007
0.348894
-9.97483
0.289108
-9.96729
0.238481
-9.88405
0.198384
-9.81781
0.161936
-9.72353
0.130532
-9.64251
0.103114
-9.5695
0.0811116
-9.531
0.0616834
-9.46655
0.0472775
-9.43957
0.0340759
-9.37871
0.0260045
-9.35576
0.0167213
-9.2794
0.0142804
-9.06198
0.0137727
-8.12444
0.0137984
-5.80548
-2.4831
0.502841
-10.2379
0.414004
-9.8711
0.342319
-9.93534
0.275207
-9.90772
0.217458
-9.90954
0.169636
-9.83623
0.132521
-9.7807
0.100289
-9.6913
0.0740366
-9.61626
0.0516808
-9.54714
0.0349235
-9.51424
0.0208076
-9.45244
0.0116271
-9.43039
0.00385457
-9.37094
0.00158818
-9.35349
-0.00242418
-9.27538
0.00125415
-9.06565
0.00745435
-8.13064
0.0126424
-5.81067
-2.47045
0.398966
-10.1203
0.312513
-9.78465
0.245206
-9.86803
0.185068
-9.84758
0.135228
-9.8597
0.0954779
-9.79648
0.0653708
-9.75059
0.0392243
-9.66516
0.0186668
-9.5957
0.0016722
-9.53015
-0.00992798
-9.50264
-0.0190679
-9.4433
-0.0232106
-9.42625
-0.0260079
-9.36814
-0.0227647
-9.35673
-0.0213923
-9.27676
-0.0117682
-9.07528
0.000974689
-8.14339
0.011147
-5.82084
-2.45931
0.305557
-10.0127
0.228337
-9.70743
0.169021
-9.80872
0.112928
-9.79149
0.0637792
-9.81055
0.0263139
-9.75901
-0.000796155
-9.72348
-0.0224544
-9.6435
-0.03775
-9.5804
-0.0495741
-9.51832
-0.0558691
-9.49634
-0.0597874
-9.43938
-0.058725
-9.42731
-0.0559787
-9.37089
-0.0472426
-9.36547
-0.040639
-9.28336
-0.0247899
-9.09113
-0.00557369
-8.1626
0.00960824
-5.83603
-2.4497
0.210391
-9.90939
0.135239
-9.63227
0.0777853
-9.75126
0.0279169
-9.74162
-0.0134706
-9.76916
-0.0439854
-9.7285
-0.0651139
-9.70235
-0.0814147
-9.6272
-0.0914196
-9.5704
-0.0982467
-9.51149
-0.0996968
-9.49489
-0.0989065
-9.44017
-0.0930057
-9.43321
-0.0853018
-9.37859
-0.0712335
-9.37954
-0.0595919
-9.295
-0.0377394
-9.11298
-0.0121905
-8.18815
0.00781793
-5.85603
-2.44188
0.118232
-9.81161
0.0484643
-9.56251
-0.00284988
-9.69995
-0.0485729
-9.6959
-0.0868272
-9.73091
-0.114147
-9.70118
-0.131571
-9.68493
-0.142871
-9.6159
-0.147426
-9.56584
-0.148996
-9.50992
-0.145091
-9.4988
-0.139171
-9.44609
-0.128165
-9.44422
-0.115157
-9.3916
-0.0958003
-9.39889
-0.0788504
-9.31195
-0.0507503
-9.14108
-0.0191413
-8.21976
0.00576014
-5.88094
-2.43612
0.0320004
-9.72005
-0.0343163
-9.49619
-0.0842211
-9.65004
-0.125616
-9.6545
-0.157907
-9.69862
-0.180089
-9.67899
-0.192791
-9.67222
-0.199465
-9.60922
-0.199242
-9.56607
-0.196199
-9.51297
-0.187722
-9.50728
-0.177349
-9.45646
-0.161784
-9.45978
-0.144297
-9.40909
-0.119993
-9.4232
-0.0978636
-9.33408
-0.0639049
-9.17504
-0.0267955
-8.25687
0.00300879
-5.91074
-2.43311
-0.0556798
-9.63265
-0.119875
-9.43199
-0.165965
-9.60395
-0.205106
-9.61536
-0.232713
-9.67101
-0.250811
-9.6609
-0.259025
-9.66401
-0.26029
-9.60796
-0.254478
-9.57188
-0.246091
-9.52135
-0.23228
-9.52109
-0.216836
-9.4719
-0.196154
-9.48047
-0.173654
-9.43159
-0.144688
-9.45216
-0.117316
-9.36145
-0.0772197
-9.21513
-0.0348979
-8.29919
2.23269e-05
-5.94566
-2.43309
-0.138594
-9.54702
-0.198891
-9.3717
-0.242813
-9.56003
-0.27636
-9.58181
-0.298891
-9.64848
-0.312821
-9.64697
-0.317205
-9.65963
-0.314419
-9.61074
-0.304355
-9.58194
-0.291701
-9.53401
-0.273583
-9.5392
-0.253914
-9.49157
-0.22887
-9.50551
-0.202134
-9.45832
-0.168728
-9.48557
-0.136349
-9.39383
-0.0906395
-9.26084
-0.0432587
-8.34657
-0.00300322
-5.98592
-2.43609
-0.223246
-9.45445
-0.278282
-9.31666
-0.320051
-9.51826
-0.354571
-9.54729
-0.373373
-9.62968
-0.382914
-9.63743
-0.382368
-9.66017
-0.37406
-9.61905
-0.358431
-9.59757
-0.340435
-9.55201
-0.317082
-9.56256
-0.292415
-9.51624
-0.262483
-9.53544
-0.231059
-9.48975
-0.19332
-9.52331
-0.155697
-9.43146
-0.104057
-9.31248
-0.051531
-8.3991
-0.00592154
-6.03152
-2.44201
-0.298508
-9.35913
-0.358676
-9.25649
-0.396355
-9.48058
-0.422687
-9.52096
-0.436329
-9.61604
-0.44192
-9.63183
-0.437849
-9.66424
-0.42575
-9.63115
-0.406292
-9.61703
-0.38435
-9.57395
-0.356974
-9.58993
-0.3283
-9.54491
-0.294274
-9.56947
-0.258706
-9.52531
-0.216861
-9.56515
-0.174477
-9.47384
-0.117296
-9.36967
-0.0591792
-8.45721
-0.00834036
-6.08236
-2.45036
-0.375278
-9.25942
-0.43008
-9.20169
-0.468572
-9.44209
-0.496962
-9.49257
-0.508674
-9.60432
-0.510181
-9.63033
-0.501195
-9.67323
-0.483661
-9.64868
-0.45879
-9.6419
-0.431626
-9.60111
-0.399192
-9.62237
-0.365619
-9.57849
-0.326956
-9.60813
-0.28687
-9.5654
-0.240892
-9.61113
-0.19344
-9.52129
-0.130594
-9.43251
-0.0664388
-8.52137
-0.0100351
-6.13877
-2.46039
-0.445975
-9.15485
-0.509817
-9.13785
-0.544126
-9.40778
-0.563321
-9.47337
-0.568902
-9.59874
-0.566566
-9.63266
-0.554211
-9.68558
-0.532966
-9.66993
-0.504522
-9.67035
-0.473672
-9.63196
-0.43753
-9.65851
-0.40013
-9.61589
-0.357577
-9.65068
-0.31364
-9.60934
-0.263869
-9.6609
-0.211741
-9.57342
-0.143449
-9.5008
-0.0733749
-8.59144
-0.0116282
-6.20051
-2.47202
-0.518494
-9.04912
-0.575008
-9.08134
-0.610689
-9.3721
-0.633557
-9.45051
-0.638217
-9.59408
-0.631877
-9.639
-0.615049
-9.70241
-0.588634
-9.69634
-0.555002
-9.70398
-0.519092
-9.66787
-0.478154
-9.69945
-0.435999
-9.65804
-0.388972
-9.69771
-0.340822
-9.65749
-0.287173
-9.71455
-0.230088
-9.6305
-0.15653
-9.57436
-0.0809575
-8.66702
-0.0136136
-6.26786
-2.48563
-0.585939
-8.93243
-0.652951
-9.01432
-0.682651
-9.3424
-0.69623
-9.43693
-0.695324
-9.59499
-0.685335
-9.64899
-0.665403
-9.72235
-0.635489
-9.72626
-0.598466
-9.741
-0.559032
-9.7073
-0.514678
-9.7438
-0.46883
-9.70389
-0.418098
-9.74844
-0.366261
-9.70932
-0.308764
-9.77205
-0.247621
-9.69165
-0.169382
-9.6526
-0.0881728
-8.74823
-0.0153255
-6.34071
-2.50096
-0.654013
-8.82061
-0.713104
-8.95523
-0.744625
-9.31088
-0.762409
-9.41914
-0.760347
-9.59705
-0.746651
-9.66269
-0.722804
-9.74619
-0.688311
-9.76075
-0.646432
-9.78288
-0.602093
-9.75164
-0.553225
-9.79267
-0.502783
-9.75433
-0.447803
-9.80342
-0.391963
-9.76517
-0.331052
-9.83296
-0.265486
-9.75721
-0.182021
-9.73606
-0.0950323
-8.83521
-0.0166886
-6.41905
-2.51765
-0.722364
-8.70138
-0.788738
-8.88886
-0.811012
-9.2886
-0.820426
-9.40973
-0.813917
-9.60356
-0.796832
-9.67977
-0.770014
-9.77301
-0.732429
-9.79834
-0.687433
-9.82788
-0.639693
-9.79938
-0.58757
-9.84479
-0.533507
-9.8084
-0.474813
-9.86212
-0.41539
-9.82459
-0.351138
-9.89721
-0.281976
-9.82638
-0.1945
-9.82354
-0.101404
-8.92831
-0.0179301
-6.50252
-2.53558
-0.779655
-8.61328
-0.846818
-8.8217
-0.872465
-9.26296
-0.884277
-9.39792
-0.875509
-9.61233
-0.854589
-9.70069
-0.823847
-9.80375
-0.782294
-9.83989
-0.733035
-9.87713
-0.680678
-9.85174
-0.624163
-9.90131
-0.565662
-9.8669
-0.502658
-9.92512
-0.439282
-9.88796
-0.370497
-9.966
-0.29758
-9.89929
-0.206113
-9.91501
-0.108725
-9.0257
-0.0199819
-6.59127
-2.55556
-0.840862
-8.5017
-0.906938
-8.75562
-0.926908
-9.24299
-0.932465
-9.39236
-0.92203
-9.62276
-0.898601
-9.72412
-0.866483
-9.83587
-0.822681
-9.88369
-0.771096
-9.92872
-0.715097
-9.90774
-0.655493
-9.96091
-0.593236
-9.92915
-0.526999
-9.99136
-0.460285
-9.95468
-0.391031
-10.0353
-0.314578
-9.97575
-0.218176
-10.0114
-0.116263
-9.12761
-0.021535
-6.68599
-2.57709
7.63464
-7.90805
-8.22829
6.99647
-8.11745
6.27404
-8.52056
5.58756
-8.70588
4.93034
-8.96555
4.32433
-9.11811
3.7679
-9.27944
3.24376
-9.35955
2.7642
-9.44915
2.3636
-9.50714
1.98776
-9.58507
1.67743
-9.61882
1.37064
-9.68457
1.11774
-9.70178
0.846053
-9.76357
0.630379
-9.76007
0.397907
-9.77894
0.239902
-8.96961
0.135524
-6.58162
-2.44157
4.50678
-7.73161
-4.68323
4.2955
-7.90617
4.00066
-8.22572
3.71516
-8.42038
3.39602
-8.6464
3.07558
-8.79768
2.75196
-8.95582
2.44815
-9.05574
2.16776
-9.16877
1.91637
-9.25575
1.66864
-9.33734
1.44101
-9.39119
1.20724
-9.45079
0.996292
-9.49083
0.768971
-9.53625
0.573495
-9.5646
0.319251
-9.52469
0.161511
-8.81187
-0.0509183
-6.36919
-2.49249
3.26753
-7.74316
-3.25598
3.28148
-7.92011
3.18446
-8.12869
3.06539
-8.30131
2.89146
-8.47248
2.69532
-8.60153
2.47163
-8.73213
2.25439
-8.8385
2.03063
-8.94501
1.80111
-9.02623
1.56572
-9.10195
1.3361
-9.16157
1.11091
-9.2256
0.893359
-9.27328
0.680633
-9.32352
0.477455
-9.36142
0.295676
-9.34291
0.170706
-8.6869
0.0458153
-6.2443
-2.44667
2.14583
-7.84333
-2.04566
2.19391
-7.96819
2.1843
-8.11908
2.12659
-8.24361
2.02611
-8.372
1.90865
-8.48408
1.77235
-8.59583
1.62578
-8.69192
1.46594
-8.78517
1.3038
-8.8641
1.14094
-8.93909
0.987604
-9.00824
0.832904
-9.0709
0.683944
-9.12432
0.533331
-9.17291
0.388304
-9.21639
0.2389
-9.19351
0.139238
-8.58723
0.0876618
-6.19272
-2.35901
1.60736
-7.9304
-1.52028
1.67298
-8.03382
1.69951
-8.1456
1.68659
-8.23069
1.63841
-8.32381
1.56577
-8.41144
1.47261
-8.50267
1.36676
-8.58607
1.24794
-8.66635
1.11978
-8.73594
0.984641
-8.80395
0.842537
-8.86614
0.695011
-8.92337
0.550121
-8.97943
0.404043
-9.02683
0.262796
-9.07514
0.136113
-9.06683
0.068023
-8.51914
0.0603933
-6.18509
-2.29862
1.13336
-8.00985
-1.05391
1.19245
-8.09291
1.2041
-8.15725
1.1881
-8.2147
1.15644
-8.29215
1.10755
-8.36255
1.04203
-8.43715
0.960396
-8.50445
0.866769
-8.57272
0.764923
-8.63409
0.65811
-8.69714
0.545447
-8.75347
0.433491
-8.81142
0.320083
-8.86602
0.213048
-8.91979
0.109333
-8.97143
0.0013943
-8.95889
-0.0383221
-8.47943
0.0362723
-6.25968
-2.26235
0.83483
-8.05926
-0.785414
0.857896
-8.11598
0.88114
-8.1805
0.887018
-8.22057
0.869906
-8.27504
0.836814
-8.32945
0.786642
-8.38698
0.722443
-8.44025
0.644929
-8.49521
0.5595
-8.54866
0.466036
-8.60367
0.366045
-8.65348
0.260433
-8.7058
0.149659
-8.75525
0.0428134
-8.81295
-0.0667791
-8.86184
-0.160627
-8.86504
-0.174174
-8.46588
-0.0182042
-6.41565
-2.28055
0.621029
-8.09497
-0.585319
0.641623
-8.13657
0.64268
-8.18156
0.633636
-8.21153
0.607719
-8.24912
0.568512
-8.29025
0.51831
-8.33677
0.455112
-8.37705
0.384002
-8.4241
0.304028
-8.46869
0.217619
-8.51726
0.124729
-8.56059
0.0283852
-8.60946
-0.0723271
-8.65454
-0.173189
-8.71209
-0.2798
-8.75522
-0.370958
-8.77388
-0.366172
-8.47067
-0.132238
-6.64959
-2.41279
0.438836
-8.11106
-0.422744
0.440085
-8.13782
0.426742
-8.16821
0.406393
-8.19118
0.380323
-8.22305
0.34382
-8.25375
0.294947
-8.2879
0.239357
-8.32146
0.176279
-8.36102
0.104096
-8.3965
0.0217069
-8.43487
-0.0679356
-8.47095
-0.166617
-8.51078
-0.279921
-8.54123
-0.397504
-8.5945
-0.521533
-8.6312
-0.624825
-8.67059
-0.626936
-8.46856
-0.306233
-6.97029
-2.71902
0.308862
-8.11468
-0.30524
0.3013
-8.13026
0.28334
-8.15025
0.264999
-8.17284
0.234193
-8.19224
0.193219
-8.21277
0.142879
-8.23756
0.0843961
-8.26298
0.0189177
-8.29554
-0.0558841
-8.3217
-0.1397
-8.35106
-0.23175
-8.3789
-0.332035
-8.41049
-0.444238
-8.42903
-0.567474
-8.47127
-0.700119
-8.49855
-0.826333
-8.54438
-0.865304
-8.42959
-0.548783
-7.28681
-3.2678
0.185158
-8.10621
-0.193628
0.16975
-8.11485
0.14815
-8.12865
0.115207
-8.1399
0.0710544
-8.14809
0.0292861
-8.171
-0.0157367
-8.19254
-0.068396
-8.21032
-0.13186
-8.23208
-0.202418
-8.25114
-0.281526
-8.27195
-0.368975
-8.29145
-0.469266
-8.3102
-0.576304
-8.32199
-0.708531
-8.33904
-0.850776
-8.35631
-1.01668
-8.37847
-1.11775
-8.32852
-0.86714
-7.53742
-4.13494
0.0857336
-8.09562
-0.0963232
0.0724768
-8.10159
0.0540368
-8.11021
0.030078
-8.11594
0.00365623
-8.12167
-0.0324704
-8.13488
-0.0761681
-8.14884
-0.126052
-8.16043
-0.184605
-8.17352
-0.250784
-8.18497
-0.326693
-8.19604
-0.413476
-8.20467
-0.513271
-8.21041
-0.621913
-8.21335
-0.751211
-8.20974
-0.892631
-8.21489
-1.0797
-8.19141
-1.21554
-8.19267
-1.02293
-7.73003
-5.15787
0.0135769
-8.07615
-0.0330552
-0.0103107
-8.07771
-0.0371662
-8.08336
-0.0673707
-8.08573
-0.0960086
-8.09303
-0.134845
-8.09604
-0.175675
-8.10801
-0.220111
-8.116
-0.267094
-8.12654
-0.321202
-8.13086
-0.381532
-8.13571
-0.450202
-8.136
-0.525277
-8.13533
-0.608825
-8.1298
-0.701888
-8.11668
-0.809331
-8.10744
-0.926851
-8.07389
-1.04548
-8.07404
-0.917085
-7.85843
-6.07496
-0.0537886
-8.0631
0.0407433
-0.0679506
-8.06354
-0.0842232
-8.06709
-0.101892
-8.06807
-0.122238
-8.07269
-0.14612
-8.07216
-0.175749
-8.07838
-0.210391
-8.08136
-0.251615
-8.08532
-0.297753
-8.08472
-0.347838
-8.08562
-0.403345
-8.08049
-0.460404
-8.07828
-0.522591
-8.06761
-0.581189
-8.05808
-0.648894
-8.03974
-0.702683
-8.0201
-0.773582
-8.00314
-0.712344
-7.91967
-6.7873
-0.0930001
-8.04911
0.079013
-0.108056
-8.04849
-0.125701
-8.04944
-0.144139
-8.04963
-0.161022
-8.0558
-0.179671
-8.05351
-0.201367
-8.05669
-0.226304
-8.05642
-0.253428
-8.05819
-0.282574
-8.05557
-0.312443
-8.05576
-0.34315
-8.04978
-0.373447
-8.04798
-0.403657
-8.0374
-0.431646
-8.03009
-0.458708
-8.01267
-0.474057
-8.00475
-0.500373
-7.97683
-0.473765
-7.94627
-7.26107
-0.109641
-8.04034
0.100868
-0.118282
-8.03985
-0.12717
-8.04055
-0.137525
-8.03927
-0.152887
-8.04044
-0.168083
-8.03831
-0.185779
-8.03899
-0.204934
-8.03726
-0.225624
-8.0375
-0.24663
-8.03457
-0.267836
-8.03455
-0.288304
-8.02932
-0.308578
-8.0277
-0.326783
-8.0192
-0.339392
-8.01749
-0.351902
-8.00016
-0.358234
-7.99841
-0.370551
-7.96451
-0.363315
-7.95351
-7.62438
-0.121616
-8.03081
0.112083
-0.130814
-8.03065
-0.139557
-8.03181
-0.148614
-8.03021
-0.158588
-8.03047
-0.168226
-8.02868
-0.178808
-8.02841
-0.189219
-8.02685
-0.19995
-8.02677
-0.20981
-8.02471
-0.219927
-8.02443
-0.228824
-8.02042
-0.237177
-8.01935
-0.243463
-8.01291
-0.247672
-8.01328
-0.249174
-7.99866
-0.250007
-7.99758
-0.242744
-7.97177
-0.231678
-7.96458