/*--------------------------------*- C++ -*----------------------------------*\
  =========                 |
  \\      /  F ield         | OpenFOAM: The Open Source CFD Toolbox
   \\    /   O peration     | Website:  https://openfoam.org
    \\  /    A nd           | Version:  9
     \\/     M anipulation  |
\*---------------------------------------------------------------------------*/
FoamFile
{
    format      ascii;
    class       volScalarField;
    location    "2.8";
    object      nut;
}
// * * * * * * * * * * * * * * * * * * * * * * * * * * * * * * * * * * * * * //

dimensions      [0 2 -1 0 0 0 0];

internalField   nonuniform List<scalar> 
46400
(
0.0180176
0.00683506
0.00199984
0.00126004
0.00130444
0.00126712
0.00117575
0.00116692
0.00110063
0.00107478
0.00102606
0.000986468
0.00095309
0.000938353
0.000913512
0.000902201
0.000865036
0.000811631
0.00116106
0.000952665
0.0177221
0.00575573
0.0014818
0.00131195
0.00127544
0.00125264
0.00119976
0.00120095
0.00112952
0.00108961
0.00105715
0.00101542
0.000973453
0.000939716
0.000905111
0.000878889
0.000809452
0.000725413
0.00098802
0.00090543
0.0173919
0.00485936
0.00123857
0.00138486
0.00131188
0.0013082
0.0012041
0.00120278
0.00114562
0.00111158
0.00106644
0.00103041
0.000992551
0.000962234
0.000936608
0.000919028
0.000858264
0.000803347
0.00110082
0.000942478
0.016986
0.0039723
0.00118358
0.00141233
0.00128985
0.00129533
0.00122977
0.00122016
0.00116073
0.0011152
0.00108552
0.00104487
0.00100751
0.000971539
0.000938409
0.000918929
0.000871188
0.000801401
0.00111717
0.00101132
0.0164886
0.00388344
0.00125685
0.00145943
0.00134638
0.00133924
0.00124099
0.00123347
0.00118853
0.00114721
0.00110363
0.00107186
0.00103515
0.00100252
0.000977713
0.000948372
0.000895179
0.000853537
0.00114748
0.00101496
0.0158921
0.00478334
0.00132842
0.00148778
0.00135035
0.00134932
0.00127169
0.00123976
0.0011959
0.0011468
0.00111589
0.00107592
0.00104762
0.00101063
0.000990172
0.000978583
0.000915819
0.000852948
0.00117157
0.00107582
0.0153662
0.0044516
0.00141707
0.00153037
0.00140512
0.0013784
0.00129232
0.00125377
0.00121382
0.00117195
0.00112812
0.00109317
0.0010618
0.0010273
0.000993696
0.000978831
0.000939223
0.000850316
0.00112382
0.00106214
0.0143415
0.00400221
0.00141266
0.00152611
0.00139636
0.00138179
0.00131426
0.00125997
0.0012183
0.00116594
0.00113911
0.00108988
0.00106712
0.00104332
0.00102399
0.000999618
0.000963712
0.000903287
0.00111555
0.00106484
0.0130927
0.00323997
0.00145808
0.00153887
0.00143018
0.00137373
0.00132831
0.00126133
0.00121921
0.00117358
0.00113587
0.00109588
0.00104405
0.00100881
0.000992756
0.000980207
0.000943693
0.000901556
0.00109526
0.00102069
0.0105696
0.00256467
0.00146802
0.00146135
0.00142534
0.00136368
0.00132997
0.00128413
0.00122615
0.0011662
0.00114885
0.00111842
0.00109289
0.00103772
0.00100448
0.000982433
0.000947066
0.000906314
0.00108867
0.00105553
0.00860953
0.00217143
0.00151955
0.00145798
0.00140705
0.00134724
0.00131565
0.00127317
0.00124429
0.00115771
0.0010977
0.00107348
0.00105077
0.00103302
0.000997254
0.000969515
0.000925472
0.000875972
0.00100547
0.000978077
0.00686418
0.00184969
0.00149432
0.00144565
0.00140997
0.00133156
0.00131212
0.0012851
0.00127913
0.00124069
0.00116376
0.00109072
0.00105881
0.00101896
0.00101294
0.000989506
0.000964992
0.000928969
0.00103894
0.000999508
0.00580512
0.00170231
0.00150433
0.00143252
0.00142814
0.00133277
0.00126895
0.00122192
0.00122739
0.00121285
0.0012016
0.00113153
0.00107079
0.00101463
0.000959749
0.000941808
0.000892715
0.000869596
0.000966538
0.000948553
0.00489762
0.00163102
0.00152116
0.00144719
0.00143052
0.00136215
0.00131736
0.00122373
0.00120476
0.00119274
0.00119216
0.00119476
0.00115448
0.00112157
0.00106365
0.00101328
0.000959377
0.000892156
0.000947813
0.000892917
0.00440077
0.00158677
0.00148884
0.00141235
0.00146156
0.00137045
0.00132166
0.00124063
0.00114961
0.00111599
0.00108237
0.00108007
0.00108561
0.00107285
0.00108096
0.00105234
0.00103867
0.000989723
0.00105836
0.000989024
0.00433638
0.00164826
0.00152753
0.0014025
0.00141936
0.00144977
0.00140944
0.00136861
0.00129598
0.00120382
0.00114795
0.00107178
0.00104727
0.000999225
0.000987358
0.000965398
0.000943684
0.000911246
0.000973827
0.000935202
0.00368732
0.00161839
0.00149029
0.00134918
0.00125247
0.00124755
0.00128764
0.00127234
0.00129745
0.00125359
0.001237
0.00117992
0.00114264
0.00109736
0.00105676
0.00102822
0.000987529
0.000943875
0.00098333
0.000930747
0.00370552
0.0017818
0.00169587
0.00154082
0.00143993
0.0012813
0.00123872
0.00118085
0.00115895
0.00113572
0.00111922
0.00110225
0.00107706
0.00105426
0.00102741
0.00100512
0.000974956
0.000927755
0.000979208
0.000912986
0.00269935
0.00134282
0.00149114
0.00146292
0.0015072
0.00144004
0.00139068
0.00132555
0.00127509
0.00121653
0.00117416
0.00113056
0.00109919
0.00106062
0.00103361
0.00100132
0.000970793
0.000910948
0.00095329
0.000891003
0.000727723
0.00060231
0.00132039
0.00123338
0.00137639
0.00128426
0.00130806
0.00123548
0.00124162
0.00118309
0.00117146
0.00111809
0.00110124
0.00105422
0.00103601
0.000999529
0.000975786
0.000914678
0.000964352
0.000884288
0.000582737
0.000234458
0.00345522
0.00780648
0.0106793
0.00843337
0.00429704
0.0016384
0.000451415
8.29778e-05
0.000125212
0.000231739
0.000277982
0.000178887
0.000122223
0.000189708
0.000216305
0.000196284
0.000157145
0.000228657
6.72193e-05
0.00160816
0.00612293
0.0103232
0.00956452
0.0055059
0.00217752
0.000575023
0.000101011
0.000143147
0.000248039
0.000289681
0.000199723
0.000175734
0.000220185
0.000234932
0.000184357
0.000191261
0.000212267
0.00026858
0.000164694
0.00383099
0.00873731
0.0108206
0.00731845
0.00318465
0.000836071
8.39943e-05
0.000126437
0.000242476
0.000295515
0.000238979
0.000197749
0.000244582
0.000220463
0.000186756
0.000198209
0.000273617
0.000260088
0.000273278
0.000850116
0.00649592
0.0105327
0.00960119
0.00507877
0.00145779
0.000119105
9.08475e-05
0.000252084
0.000328419
0.000292635
0.000251549
0.000247701
0.000237428
0.000214595
0.000253814
0.000280121
0.00029042
0.000238098
0.000290878
0.00210021
0.00857149
0.0112922
0.00783613
0.00290076
0.000435335
0.000133194
0.000255078
0.000345817
0.000328791
0.000276534
0.000266852
0.000240346
0.000279825
0.000263403
0.00028215
0.000270327
0.000284305
0.000282915
0.000335479
0.0026042
0.00989201
0.0110074
0.0059393
0.00127679
0.00015961
0.000252882
0.0003584
0.000375702
0.000329003
0.000326141
0.000298561
0.000313848
0.000308841
0.000268059
0.000324251
0.000319469
0.000349998
0.00032458
0.000353726
0.00491203
0.0111033
0.00988872
0.00373129
0.000331145
0.000138689
0.000355739
0.000406182
0.000408489
0.000395303
0.000350994
0.000340722
0.000319254
0.00033231
0.000333012
0.000370979
0.000323855
0.00035828
0.000349002
0.000387977
0.00709887
0.0116985
0.00877125
0.00184897
0.000242888
0.000346095
0.000481562
0.000519643
0.000466006
0.00042042
0.000404654
0.000379741
0.000396938
0.000392948
0.000357828
0.000401205
0.000364118
0.000437695
0.000407225
0.00040912
0.00950004
0.0119517
0.00758782
0.000787141
0.000215886
0.000544507
0.000593523
0.000520521
0.000514779
0.000498769
0.000454424
0.000442452
0.000420825
0.000412545
0.000420576
0.000453427
0.000390867
0.000458674
0.000413531
0.000429734
0.0120356
0.0118169
0.00555898
0.00041208
0.000435897
0.000617309
0.000644301
0.000642657
0.00059697
0.000540931
0.000512741
0.000485761
0.000494934
0.000487932
0.00046056
0.000480941
0.000439303
0.000532951
0.00047264
0.000462928
0.0139521
0.0117461
0.00393055
0.000229144
0.000639082
0.000767464
0.000735042
0.000663905
0.000632058
0.00061035
0.000565054
0.000550614
0.000526785
0.00050782
0.000516652
0.000532028
0.000476961
0.000548939
0.000477833
0.000494775
0.0153843
0.0113448
0.00244772
0.000252338
0.00075342
0.000786763
0.000765672
0.000763208
0.000719179
0.000662875
0.000627576
0.00059961
0.000599697
0.000588889
0.000564078
0.000562952
0.000538948
0.000613582
0.000516055
0.000531986
0.0160728
0.0110365
0.00167543
0.000412454
0.000874311
0.000886661
0.00087393
0.000791806
0.000749752
0.000725895
0.000677109
0.00065929
0.000633015
0.000612318
0.000618088
0.000619742
0.00058193
0.000628559
0.000505322
0.00055396
0.0167925
0.0105619
0.00106264
0.000563894
0.00100048
0.000889803
0.00090132
0.000883217
0.000832635
0.000781545
0.000740908
0.000711535
0.000703545
0.000687889
0.000660564
0.000647421
0.000638815
0.000682556
0.000533423
0.000591351
0.017457
0.0102115
0.00112569
0.000757091
0.00107817
0.000992152
0.000987489
0.000910666
0.000860452
0.00083777
0.000785185
0.000762214
0.000732652
0.000714064
0.000713129
0.000699191
0.000679721
0.000692544
0.000520582
0.000618539
0.0177301
0.00975616
0.00178969
0.000892303
0.00113926
0.00100295
0.00101646
0.000996296
0.000934982
0.000891168
0.000847531
0.000816117
0.000801161
0.000781497
0.000749515
0.000729152
0.000742233
0.000744527
0.000538317
0.000657911
0.0181576
0.00942674
0.00227339
0.00104609
0.00118666
0.001101
0.00107847
0.00101785
0.000959677
0.000939201
0.00088488
0.000855556
0.000823796
0.000809378
0.000797792
0.000769554
0.0007754
0.000755281
0.000525397
0.000686876
0.0181763
0.00911643
0.0022426
0.00106944
0.00123657
0.00109091
0.00110161
0.00109057
0.00101903
0.000983412
0.00094143
0.000908067
0.000887757
0.000866315
0.000830442
0.000808276
0.000838342
0.000809833
0.00053951
0.000729359
0.0183101
0.00866214
0.00215163
0.00114389
0.00127644
0.00119564
0.00113893
0.00110903
0.00104423
0.00102444
0.00097311
0.000938511
0.000908169
0.000898646
0.000875796
0.000847233
0.000864778
0.000860301
0.000561185
0.000702616
0.018151
0.00782679
0.00195472
0.0011801
0.00127454
0.00118358
0.00116223
0.00116322
0.00108944
0.00105782
0.00102382
0.000991591
0.000969737
0.000951792
0.00092462
0.00093273
0.000936583
0.000935343
0.000728342
0.000782016
0.00213618
0.0017147
0.00177091
0.00168605
0.00172974
0.0014816
0.00147068
0.0014081
0.00136587
0.00127186
0.00118143
0.00111202
0.00101665
0.00095483
0.000870146
0.000849691
0.000966862
0.00413559
0.00997073
0.0225384
0.00222783
0.00178584
0.00179932
0.00164338
0.00175331
0.0015622
0.00158956
0.00146718
0.0013565
0.00124787
0.0011579
0.00108441
0.000974734
0.000915851
0.000827803
0.00080069
0.000957129
0.00423703
0.0100012
0.022293
0.00226598
0.00183495
0.00193285
0.00172689
0.00172969
0.00146784
0.00147074
0.00140555
0.00134509
0.00125581
0.00116572
0.00109839
0.00100115
0.000942355
0.000855801
0.000840486
0.00096609
0.00426678
0.0100409
0.0221366
0.00232966
0.00193532
0.00198293
0.00168883
0.00174041
0.00153408
0.00158609
0.00146569
0.00133696
0.00123449
0.00114353
0.00107419
0.000963697
0.000905488
0.000813768
0.00079055
0.000949576
0.0043498
0.0100695
0.0218858
0.00237747
0.00195483
0.00207732
0.00175868
0.00173681
0.00148094
0.00147809
0.00139918
0.00132301
0.00124352
0.0011523
0.00108773
0.000988752
0.000932809
0.000843707
0.000832873
0.000968646
0.00436592
0.0101069
0.0217327
0.00255587
0.00207226
0.00213887
0.00172915
0.0017235
0.00153326
0.00158917
0.00146194
0.00131887
0.00122503
0.0011313
0.0010664
0.000955254
0.000898174
0.000802513
0.000782695
0.000945906
0.00442922
0.010134
0.0214977
0.00268661
0.00209885
0.00219675
0.0017885
0.00174643
0.00151236
0.00148781
0.00139132
0.00130215
0.0012341
0.00114109
0.00107982
0.00098002
0.000926543
0.000834276
0.000826479
0.000974275
0.00442947
0.0101696
0.0213506
0.00298255
0.0022188
0.00225154
0.00176962
0.00172046
0.00156009
0.00158862
0.00145192
0.00130201
0.00121828
0.00112135
0.00106096
0.000950064
0.000894509
0.000794946
0.000776268
0.000947938
0.0044721
0.0101932
0.0211334
0.00319584
0.002265
0.0022868
0.00182517
0.00176163
0.00155457
0.00149293
0.00138278
0.00128538
0.00122668
0.00113174
0.00107451
0.000975018
0.000923965
0.000828354
0.000820764
0.00097543
0.00445386
0.0102299
0.0209947
0.00356404
0.00237927
0.00233225
0.00181332
0.00173514
0.00160418
0.00158118
0.00143719
0.00128727
0.00121238
0.00111372
0.00105744
0.000948326
0.000895128
0.000792243
0.000770751
0.000948946
0.0044805
0.0102444
0.0207981
0.00378025
0.00244419
0.00236228
0.00186779
0.0017832
0.00159835
0.00148954
0.00137246
0.00127263
0.00121961
0.00112393
0.00107095
0.000973662
0.000925468
0.00082757
0.000815221
0.000970384
0.00444401
0.0102872
0.0206682
0.00395026
0.00254036
0.0023919
0.00186674
0.00176329
0.00164811
0.00156605
0.00141933
0.00127535
0.00120613
0.00110779
0.00105565
0.000949857
0.000900069
0.00079596
0.000765217
0.000942702
0.0044442
0.0102938
0.0204941
0.00409007
0.00259653
0.00242909
0.0019284
0.00180688
0.00163099
0.00147867
0.00136203
0.00126362
0.00121159
0.00111747
0.00106875
0.000974942
0.000930866
0.000832472
0.00080931
0.000962168
0.0043957
0.0103405
0.0203742
0.00431665
0.00266453
0.00244293
0.00193533
0.00179266
0.00167758
0.00154351
0.00140066
0.00126578
0.00119861
0.00110284
0.00105499
0.000954093
0.000909379
0.000805696
0.000760159
0.000933676
0.00437656
0.0103445
0.0202209
0.00444587
0.00270698
0.00248036
0.0020021
0.00181969
0.00164484
0.00146333
0.0013533
0.0012563
0.00120194
0.0011113
0.0010673
0.000978113
0.000939871
0.000843017
0.000804118
0.000952682
0.00431393
0.0103836
0.0201273
0.00471229
0.00276953
0.00247466
0.00201544
0.00180871
0.0016841
0.0015153
0.00138113
0.00125476
0.00118857
0.00109702
0.00105401
0.000959436
0.000921895
0.00082042
0.000756071
0.000925615
0.00426175
0.0103747
0.0199897
0.00491637
0.00283049
0.00251298
0.00207579
0.00181469
0.00164538
0.00145216
0.00134972
0.00125116
0.00119338
0.00110605
0.00106713
0.000983122
0.00095282
0.000858311
0.00080108
0.000944726
0.00421525
0.0104245
0.0198711
0.00508861
0.00284909
0.00246578
0.00209334
0.00181702
0.00168874
0.00150162
0.00137607
0.00125137
0.00118503
0.00109604
0.00105824
0.000969729
0.000942144
0.000844357
0.000761433
0.000917218
0.00414374
0.0104506
0.0198649
0.00498303
0.00292847
0.00246667
0.00209319
0.00175328
0.00161195
0.00142684
0.00132733
0.00122457
0.0011691
0.00108968
0.00105774
0.000982134
0.000963965
0.00087906
0.000792749
0.000958461
0.00405951
0.0104419
0.0197262
0.00581244
0.0032498
0.00251477
0.0021016
0.00177991
0.00168037
0.00151094
0.00138912
0.00126478
0.00119628
0.00110703
0.00106805
0.000981765
0.000962272
0.000863648
0.00075939
0.00090982
0.00381945
0.0101588
0.0192076
0.0162267
0.0319036
0.0159831
0.0233971
0.0196271
0.0181428
0.0157603
0.0143348
0.0130088
0.0121525
0.0112044
0.010793
0.0102561
0.0102932
0.00992269
0.00968938
0.0108362
0.0357707
0.09709
0.169126
0.0323993
0.0229871
0.0204536
0.0184989
0.0167804
0.0148515
0.0134437
0.0122025
0.01104
0.00992783
0.00951867
0.00958154
0.0090897
0.00836275
0.00796087
0.00686119
0.0112807
0.0408561
0.0960559
0.156274
0.0158064
0.0151076
0.0155469
0.0133197
0.0122452
0.0111097
0.0106343
0.00977909
0.00906481
0.00857704
0.00824841
0.00796001
0.00757427
0.00749292
0.00725976
0.00699647
0.0110837
0.0381048
0.0952661
0.152867
0.0131787
0.0116613
0.0100954
0.00962927
0.00948665
0.0091421
0.00864673
0.0083741
0.00814128
0.00769256
0.00726671
0.00681765
0.00666113
0.00619044
0.00613895
0.00531925
0.0094903
0.039917
0.0953776
0.142067
0.00657456
0.00723168
0.00849301
0.00832704
0.00750417
0.00697973
0.00671777
0.00635842
0.00599699
0.00590332
0.00588431
0.00591982
0.00569072
0.00564246
0.0054766
0.00483098
0.00968648
0.0368354
0.0952274
0.140208
0.00581885
0.00649825
0.00585045
0.00528692
0.00532525
0.00550035
0.00546435
0.00555539
0.00559536
0.00544148
0.00515857
0.00492351
0.00485826
0.00465564
0.00450214
0.00382881
0.00719841
0.0347263
0.0959735
0.135598
0.00332211
0.0036869
0.00417277
0.00483401
0.00477242
0.00448188
0.00436381
0.00424506
0.00404747
0.00415708
0.00427728
0.0044429
0.00434343
0.00436767
0.00427419
0.00338465
0.00559507
0.0313359
0.09633
0.134453
0.00300857
0.00333329
0.00349824
0.00329252
0.00299203
0.00316483
0.00342138
0.00371066
0.00389808
0.00390761
0.00377454
0.00366732
0.0036889
0.00373756
0.00371363
0.00309838
0.00611354
0.0268075
0.0962288
0.134973
0.00166418
0.00208478
0.00226977
0.00257339
0.00283935
0.00300277
0.00299167
0.00299955
0.002952
0.00316491
0.00332265
0.00364872
0.00360663
0.00371875
0.0036512
0.00303252
0.00215349
0.0228904
0.0963797
0.138381
0.00170919
0.00177313
0.00191559
0.00200208
0.00197268
0.00207373
0.00220761
0.00249117
0.00277858
0.0029998
0.00298787
0.00302598
0.00313362
0.00342684
0.00348522
0.00333232
0.00337566
0.0166881
0.0941089
0.144652
0.000805636
0.0012034
0.00132171
0.00154967
0.00172081
0.00197171
0.00220258
0.00235949
0.00226269
0.00246399
0.00270682
0.00314091
0.00316697
0.00342347
0.00348311
0.00350841
0.00234717
0.0124956
0.0908869
0.153766
0.000868553
0.00101919
0.00112737
0.00121496
0.00127115
0.00143422
0.0015038
0.00180951
0.0021352
0.00235414
0.00239185
0.00254184
0.00280555
0.00319133
0.00339355
0.0038032
0.00264933
0.00675322
0.0733595
0.165253
0.000614003
0.000740369
0.000896542
0.00109234
0.00121304
0.00137799
0.00154924
0.00167398
0.0017233
0.0019889
0.00229792
0.00263735
0.00273728
0.00306117
0.00331905
0.00389925
0.00356187
0.00583228
0.0577342
0.179188
0.000545374
0.000685555
0.000700986
0.000835878
0.00090064
0.00107651
0.00114542
0.0013593
0.00150522
0.0017337
0.00184528
0.00207932
0.00242777
0.00270711
0.00318708
0.00352647
0.00423557
0.00733248
0.0397257
0.184899
0.000498872
0.000602903
0.000681898
0.000782874
0.000838044
0.000952685
0.00104064
0.00123915
0.00126385
0.00147029
0.0015068
0.00182451
0.00189961
0.00224135
0.00242231
0.00279024
0.00348018
0.00702007
0.0201503
0.131336
0.000365926
0.000473241
0.000510822
0.000604693
0.000652387
0.000764412
0.000812313
0.000935035
0.00102882
0.00117918
0.00131072
0.00155826
0.00167388
0.00199048
0.00210875
0.00263208
0.00264435
0.00402087
0.00666632
0.0818185
0.000371799
0.000423458
0.000446689
0.000509143
0.000550799
0.000631241
0.000666593
0.000726208
0.00080309
0.000954291
0.000985045
0.00106272
0.00114074
0.00138942
0.00149266
0.00186456
0.00199616
0.00250002
0.00248306
0.0399816
0.000259455
0.000289804
0.000316468
0.000352854
0.000397391
0.000435193
0.000517719
0.000616358
0.0006108
0.000684359
0.000760959
0.000930827
0.000928238
0.001111
0.000986928
0.00122204
0.00103313
0.00140698
0.0020994
0.0186567
0.00020453
0.000239548
0.000252923
0.000298364
0.000311145
0.000360674
0.000327605
0.000381962
0.000470223
0.000521337
0.000501116
0.000556136
0.000623228
0.000684618
0.000830719
0.000748018
0.000851449
0.000748806
0.000705094
0.00678578
0.000108341
0.000142176
0.000143535
0.000190926
0.000195044
0.00028722
0.000331404
0.000400479
0.000394411
0.000439381
0.000481774
0.000564487
0.000552165
0.000651869
0.000642996
0.000750989
0.000668641
0.000716707
0.000684871
0.00124863
0.013859
0.0138521
0.013825
0.0136982
0.0137317
0.0136203
0.0133821
0.0139761
0.0131353
0.0133489
0.0125634
0.012207
0.0124109
0.0111478
0.0112838
0.00996534
0.0096911
0.00917789
0.00913169
0.00786215
0.00700837
0.00699819
0.00694549
0.00696078
0.00684559
0.00678951
0.00687437
0.00662341
0.00667
0.00665351
0.00638466
0.00776394
0.00717006
0.00671231
0.00616327
0.00670762
0.0066659
0.00664254
0.00673842
0.00750366
0.00436216
0.00437449
0.00441461
0.00444773
0.00445179
0.00460666
0.00446938
0.00460731
0.00453832
0.00449585
0.0046663
0.00429834
0.00410048
0.0042326
0.00414178
0.00424961
0.00380932
0.00394679
0.00345327
0.00380707
0.00278895
0.00278448
0.00278204
0.0027491
0.00275877
0.00272411
0.00267616
0.00265241
0.00262851
0.0026846
0.00246307
0.00273452
0.00276855
0.00284291
0.00272252
0.00280738
0.00269705
0.00294616
0.00278148
0.00309266
0.00176098
0.00175923
0.00176633
0.00176156
0.00177471
0.00177464
0.00176807
0.00185665
0.00182677
0.00180384
0.00199304
0.00196259
0.00189229
0.0019249
0.00185159
0.00192902
0.00183744
0.00195293
0.00184885
0.00180826
0.0012687
0.00126778
0.00127373
0.00126873
0.00127917
0.00126756
0.00127196
0.00127938
0.00123541
0.00128767
0.00126522
0.00129262
0.00130098
0.00132845
0.00128356
0.00132567
0.00129604
0.00145404
0.00135573
0.00126204
0.000787103
0.000788441
0.000790356
0.000793359
0.000795948
0.000796046
0.000798685
0.000805845
0.000804365
0.000815259
0.000840431
0.000872006
0.000880794
0.000890997
0.000847562
0.00088041
0.000908951
0.000987641
0.000868217
0.000738019
0.000577176
0.000578939
0.000581645
0.000586487
0.000590159
0.0005932
0.000593655
0.000598849
0.000597419
0.000607496
0.000615228
0.00064323
0.000653498
0.000664896
0.000617104
0.000631508
0.00064809
0.000695677
0.000580845
0.000552577
0.000326722
0.000327508
0.000329871
0.000333563
0.000337247
0.000337588
0.00033778
0.000341405
0.000342238
0.000351163
0.000365083
0.000411387
0.000425107
0.000451173
0.000391592
0.000420573
0.00043593
0.000500394
0.000407276
0.000298929
0.000220422
0.000222348
0.000226414
0.000232636
0.000236318
0.000236179
0.00023499
0.00023762
0.000238454
0.000243888
0.000245044
0.000264055
0.000265986
0.000277198
0.00023808
0.000236382
0.00023041
0.000198786
0.000307037
0.000395185
8.35888e-05
8.65593e-05
9.49827e-05
0.000106176
0.000115039
0.000115033
0.000117242
0.000124281
0.00013083
0.000141919
0.0001441
0.000176965
0.000188251
0.000223598
0.000178796
0.000175063
0.000173603
0.000250618
0.000181149
0.000147034
1.34432e-05
1.89299e-05
3.63985e-05
5.50432e-05
5.6758e-05
5.29966e-05
6.03564e-05
7.15129e-05
8.25529e-05
9.19805e-05
9.16667e-05
0.0001022
0.00010007
8.5095e-05
0.000120867
0.000151199
0.000165349
0.000125705
0.000197266
0.000256387
1.23887e-05
2.76642e-05
4.86249e-05
6.00943e-05
7.0021e-05
5.13835e-05
4.61643e-05
5.55572e-05
5.67944e-05
6.78618e-05
6.4379e-05
6.72114e-05
7.61767e-05
9.59759e-05
7.64463e-05
9.52982e-05
0.000101442
0.000108197
0.000138995
0.000103526
4.9167e-05
4.88322e-05
4.85257e-05
5.02571e-05
5.12993e-05
5.60865e-05
6.60331e-05
6.29487e-05
7.46707e-05
7.80437e-05
9.54277e-05
0.000108336
9.8149e-05
9.57658e-05
0.000117627
9.67448e-05
0.000101592
0.0001012
0.000106895
0.000130243
6.13206e-05
6.51749e-05
7.09069e-05
7.76743e-05
7.5107e-05
6.72454e-05
6.70429e-05
6.94045e-05
6.72841e-05
6.81015e-05
6.61371e-05
7.06121e-05
7.67023e-05
7.74249e-05
8.14118e-05
9.03562e-05
9.77867e-05
9.87942e-05
0.000108682
0.000113912
6.68098e-05
6.86641e-05
7.29285e-05
7.38857e-05
7.17319e-05
7.24532e-05
7.50653e-05
7.45885e-05
7.94694e-05
8.26395e-05
8.7832e-05
8.59954e-05
8.73058e-05
8.57628e-05
8.48452e-05
8.17803e-05
8.61359e-05
8.6101e-05
9.15852e-05
9.78215e-05
5.98393e-05
5.91227e-05
5.88684e-05
6.71909e-05
6.1713e-05
5.82486e-05
5.86259e-05
6.01522e-05
6.12033e-05
6.4503e-05
6.54343e-05
6.64856e-05
6.94118e-05
7.09386e-05
7.60943e-05
7.60349e-05
7.96278e-05
7.96724e-05
8.3731e-05
8.76834e-05
4.10832e-05
4.05789e-05
4.23531e-05
5.00604e-05
5.11946e-05
4.96014e-05
5.14719e-05
5.02662e-05
5.28536e-05
5.21265e-05
5.51868e-05
5.06655e-05
4.99265e-05
4.9632e-05
5.23906e-05
5.21812e-05
5.50462e-05
5.52324e-05
5.75168e-05
6.06897e-05
2.91156e-05
2.96349e-05
2.90086e-05
2.7156e-05
2.28429e-05
2.44658e-05
2.37453e-05
2.56725e-05
2.56656e-05
3.01566e-05
3.39485e-05
3.52281e-05
3.97298e-05
3.91817e-05
4.25349e-05
4.16677e-05
4.46968e-05
4.49497e-05
4.50413e-05
5.01538e-05
7.24513e-06
8.1499e-06
5.1615e-06
7.48257e-06
8.67515e-06
1.086e-05
1.17491e-05
1.30293e-05
1.45741e-05
1.51222e-05
1.57712e-05
1.69839e-05
1.84921e-05
1.95812e-05
2.06027e-05
2.14443e-05
2.27679e-05
2.34602e-05
2.4419e-05
2.73879e-05
0.000947086
0.00114914
0.000802916
0.00085792
0.000896073
0.00090518
0.000928228
0.000945955
0.000977104
0.00101211
0.00105365
0.00108006
0.00115602
0.00117202
0.00125883
0.00130088
0.0012594
0.00196856
0.0067074
0.0178684
0.000905838
0.000977362
0.000722576
0.000803688
0.000870295
0.00089368
0.000930511
0.000965983
0.00100034
0.00104612
0.00108088
0.00111534
0.00118567
0.00119678
0.00124145
0.00125262
0.00130489
0.00139756
0.00557034
0.0175658
0.000933515
0.00108357
0.000791764
0.000845886
0.000908526
0.000925734
0.00095308
0.000982874
0.00101809
0.00105466
0.00109338
0.00112866
0.00119666
0.00120341
0.00129786
0.0013105
0.0013869
0.00123434
0.00474965
0.0172382
0.0010105
0.00110331
0.000795465
0.00086595
0.000911627
0.000928857
0.000964616
0.00100101
0.00103489
0.00107802
0.00110682
0.00115115
0.00121056
0.00122697
0.00128274
0.00127381
0.00140472
0.00116958
0.00382761
0.0168312
0.000999316
0.0011209
0.000838313
0.000879727
0.000933153
0.000966445
0.000993749
0.00102555
0.00105929
0.00109245
0.00113302
0.00117892
0.00123311
0.00124353
0.00133139
0.00134855
0.00145835
0.0012617
0.00397224
0.016319
0.00106586
0.0011541
0.000850149
0.00091252
0.000977735
0.000991023
0.00100999
0.00104401
0.00107022
0.00111387
0.00114359
0.00119329
0.00123594
0.00126897
0.00133701
0.00134132
0.00148339
0.00132816
0.00477004
0.0157332
0.00105268
0.00111264
0.000849959
0.000934736
0.000973197
0.000986883
0.00101561
0.00105155
0.0010854
0.00112288
0.00116476
0.00121279
0.00125453
0.00129094
0.00136605
0.0014025
0.00152409
0.00140803
0.00440049
0.0151934
0.00107557
0.00112078
0.000903727
0.000964437
0.000999928
0.00102021
0.00104415
0.00107494
0.00109425
0.00114346
0.00116896
0.0012171
0.00125059
0.00130549
0.00136737
0.00139651
0.00151882
0.00141342
0.00388817
0.014109
0.00102672
0.00108751
0.00089615
0.000941275
0.000974118
0.000990498
0.00101351
0.0010426
0.00109107
0.0011341
0.0011667
0.00121114
0.00125163
0.00132003
0.00136255
0.0014286
0.00151737
0.00145437
0.00313362
0.0128708
0.00105749
0.00107879
0.000903017
0.00094504
0.00098194
0.00101321
0.00104235
0.00109879
0.00112715
0.00115476
0.00116412
0.00121496
0.00127241
0.00132478
0.00135953
0.00142142
0.00145326
0.00148166
0.00249612
0.0102441
0.000984352
0.00100465
0.000883553
0.000934984
0.000989316
0.00101455
0.00105009
0.00106633
0.00107598
0.00109264
0.00113556
0.00122533
0.00126432
0.00131322
0.00134118
0.00139902
0.00144501
0.00151178
0.00211011
0.0083185
0.00101448
0.00105296
0.000945912
0.000989962
0.00101075
0.00102524
0.00102673
0.00104786
0.00107343
0.00113698
0.00121709
0.00127613
0.00129309
0.00132657
0.00133529
0.00141536
0.00144164
0.00149147
0.00180464
0.00667785
0.000999227
0.000993842
0.000892941
0.000910612
0.000941676
0.00095223
0.000990919
0.0010418
0.0011043
0.00118124
0.00121422
0.00124167
0.00123664
0.00127183
0.00131884
0.00141198
0.0014175
0.001509
0.00167135
0.00566122
0.000897814
0.000907673
0.000863346
0.000917089
0.000974827
0.00102177
0.0010877
0.00113383
0.00119067
0.00120577
0.00121795
0.00122742
0.00123484
0.00131343
0.00134822
0.00142555
0.00144608
0.00152881
0.00159801
0.0048185
0.000973348
0.0010149
0.000972346
0.00102475
0.00105211
0.00108351
0.00109588
0.00111101
0.00111702
0.00111185
0.00113893
0.00115155
0.00122557
0.00129339
0.0013427
0.00146196
0.00142523
0.00149118
0.00154553
0.00440416
0.000955196
0.000972206
0.000926559
0.000959133
0.000977651
0.0010005
0.00101246
0.00105009
0.00106996
0.0011273
0.00117647
0.0012513
0.00133763
0.00138002
0.0014647
0.00145442
0.00142185
0.00153471
0.00162849
0.00434353
0.000952223
0.000973939
0.000953128
0.00098937
0.00102847
0.00105481
0.001092
0.00113185
0.00116968
0.00122264
0.00125449
0.00130618
0.00130674
0.00132479
0.00130825
0.00126617
0.00132006
0.00142011
0.00159004
0.00362334
0.000932836
0.000970496
0.000941475
0.000979229
0.00101252
0.00102822
0.00106234
0.001081
0.00111763
0.00113621
0.00116741
0.00118426
0.00121048
0.00125345
0.00128866
0.00138958
0.00152577
0.00168535
0.00183661
0.00355485
0.000923613
0.00095981
0.000932709
0.000980218
0.00101088
0.00103819
0.00107121
0.00110295
0.00114298
0.00117572
0.00122368
0.001265
0.00133045
0.00137875
0.0014639
0.0015272
0.00161862
0.00158852
0.0014927
0.00200479
0.000917702
0.000956824
0.000931806
0.000979246
0.00100971
0.00103826
0.00106539
0.00110132
0.00112793
0.00116568
0.00119644
0.00123836
0.0012766
0.00132807
0.00137102
0.00142714
0.00148438
0.00147453
0.00156771
0.00202243
0.000232903
0.000161384
0.000198266
0.000208567
0.000184118
0.000112593
0.000154019
0.000253768
0.000194295
9.93175e-05
5.2176e-05
0.000455906
0.00163418
0.00429654
0.00838615
0.0105928
0.00775371
0.00342462
5.11809e-05
0.000676318
0.000272216
0.000208821
0.000197094
0.000191526
0.00023294
0.00020577
0.000157594
0.000192314
0.000267016
0.000209992
0.000123945
9.38934e-05
0.000558618
0.00213713
0.00541923
0.00947083
0.0102284
0.00616825
0.00140862
6.66535e-23
0.000283232
0.000254041
0.000262424
0.000195304
0.000190396
0.000224517
0.00023489
0.000181864
0.000228976
0.000287939
0.000237988
0.000128981
8.52588e-05
0.000825856
0.00309616
0.00722002
0.0106836
0.00869497
0.00381402
0.000140173
0.000301489
0.000252849
0.000299019
0.000277375
0.000249938
0.000213137
0.000235112
0.000240959
0.000230472
0.000252729
0.000312033
0.000254557
8.21319e-05
0.000131605
0.00142969
0.00505421
0.00952696
0.0104517
0.00643125
0.000841218
0.000339991
0.000281695
0.000279361
0.000274182
0.000287567
0.000264129
0.000272622
0.000233816
0.000272862
0.000271749
0.000289095
0.000322109
0.000263177
0.000134707
0.000440233
0.00271505
0.00776504
0.0111896
0.00856928
0.00228029
0.000367356
0.000340586
0.000351882
0.00031522
0.000323292
0.000275634
0.000316394
0.000307343
0.000284287
0.000320146
0.000329747
0.000356906
0.000337985
0.000236719
0.000156789
0.00128754
0.00586569
0.0108962
0.00980142
0.00252666
0.000391466
0.000359655
0.000362494
0.000327452
0.000372186
0.000328416
0.000328279
0.000319856
0.000341308
0.000332942
0.000360504
0.000391618
0.000411237
0.000363859
0.000195765
0.000339594
0.00355194
0.00980309
0.0110412
0.00492382
0.000416398
0.0004199
0.000439615
0.000361816
0.000404444
0.000368075
0.000401447
0.000392959
0.000374313
0.000412549
0.000419219
0.000432323
0.00050031
0.000482591
0.000348776
0.000239041
0.00189529
0.00864078
0.0115824
0.00704465
0.000428409
0.000424829
0.000465874
0.000393753
0.000451926
0.000413785
0.000412072
0.000426984
0.000441465
0.000437562
0.00047905
0.000501055
0.00050951
0.00058829
0.000536913
0.000283653
0.000716768
0.00751987
0.0118686
0.0094616
0.000457574
0.00047565
0.000532641
0.000436888
0.000485892
0.000469055
0.000491237
0.000489726
0.000481284
0.000518249
0.000533871
0.000565226
0.000623444
0.000645839
0.000610605
0.0004143
0.000401484
0.00540615
0.0116976
0.0119633
0.000491348
0.000492584
0.000557852
0.000478382
0.000529445
0.000510647
0.000509855
0.00053724
0.00055285