/*--------------------------------*- C++ -*----------------------------------*\
  =========                 |
  \\      /  F ield         | OpenFOAM: The Open Source CFD Toolbox
   \\    /   O peration     | Website:  https://openfoam.org
    \\  /    A nd           | Version:  9
     \\/     M anipulation  |
\*---------------------------------------------------------------------------*/
FoamFile
{
    format      ascii;
    class       volScalarField;
    location    "2.8";
    object      p;
}
// * * * * * * * * * * * * * * * * * * * * * * * * * * * * * * * * * * * * * //

dimensions      [0 2 -2 0 0 0 0];

internalField   nonuniform List<scalar> 
46400
(
-46.1151
-40.0504
-27.9071
-18.5359
-9.79966
-1.82687
5.23807
11.786
17.6065
22.9706
27.842
32.3122
36.4355
40.2528
43.8359
47.2168
50.3531
53.6195
57.0465
58.0497
-23.072
-17.0795
-6.12066
2.83844
10.8449
18.217
24.7362
30.6944
36.0345
40.8719
45.2449
49.2064
52.8025
56.0799
59.0647
61.7874
64.2412
66.6892
68.9506
69.3265
0.960424
7.0131
16.7046
24.9199
32.0681
38.7119
44.5254
49.8733
54.5811
58.8699
62.7154
66.1832
69.3144
72.1351
74.6938
76.9765
78.9686
80.9248
82.5002
82.0718
25.4407
30.6067
38.9826
46.6258
53.0837
59.0748
64.2885
69.0052
73.182
76.8796
80.1813
83.0988
85.6916
87.9871
90.0262
91.8252
93.3699
94.876
96.1591
95.5199
49.2444
53.4291
61.2151
68.2839
74.1622
79.5199
84.1162
88.2345
91.7947
94.9475
97.7038
100.118
102.225
104.048
105.634
106.971
108.073
109.151
109.951
108.984
71.9362
76.437
83.586
89.9807
95.1372
99.7745
103.688
107.13
110.109
112.647
114.86
116.737
118.352
119.71
120.869
121.821
122.567
123.297
123.871
122.754
95.4063
100.163
106.334
111.767
116.114
119.955
123.161
125.903
128.217
130.162
131.784
133.126
134.218
135.081
135.763
136.259
136.572
136.889
137.111
135.785
118.423
123.547
128.41
132.912
136.393
139.404
141.878
143.926
145.628
146.97
148.063
148.89
149.525
149.956
150.243
150.364
150.333
150.317
150.216
148.742
141.414
146.616
150.15
153.478
156.117
158.255
159.995
161.32
162.352
163.084
163.58
163.859
163.959
163.898
163.71
163.396
162.954
162.537
162.029
160.365
163.256
167.308
170.129
172.451
174.351
175.779
176.881
177.63
178.121
178.339
178.369
178.196
177.877
177.396
176.817
176.113
175.315
174.537
173.682
171.796
183.425
186.369
188.535
190.082
191.297
192.074
192.571
192.73
192.665
192.346
191.861
191.21
190.447
189.557
188.579
187.505
186.346
185.22
184.025
181.997
200.902
203.252
204.914
205.938
206.648
206.925
206.967
206.7
206.238
205.52
204.64
203.584
202.424
201.155
199.811
198.381
196.879
195.398
193.855
191.579
216.937
218.703
219.849
220.324
220.536
220.308
219.856
219.127
218.244
217.162
215.93
214.547
213.053
211.464
209.818
208.108
206.357
204.642
202.917
200.531
230.986
232.278
233.007
233.083
232.909
232.303
231.479
230.385
229.14
227.723
226.187
224.499
222.718
220.818
218.862
216.829
214.756
212.707
210.625
208.082
243.334
244.128
244.456
244.118
243.582
242.637
241.466
240.025
238.445
236.702
234.887
232.961
230.977
228.909
226.787
224.601
222.356
220.128
217.87
215.109
254.379
254.559
254.447
253.746
252.861
251.626
250.198
248.486
246.624
244.596
242.476
240.273
238.015
235.71
233.379
231.012
228.621
226.263
223.946
221.135
262.52
262.391
261.946
260.957
259.788
258.335
256.749
254.947
252.999
250.884
248.656
246.315
243.909
241.435
238.938
236.4
233.844
231.321
228.853
225.954
269.426
269.173
268.521
267.279
265.796
264.03
262.125
260.039
257.863
255.545
253.173
250.697
248.192
245.618
243.04
240.421
237.793
235.201
232.698
229.711
272.507
272.283
271.622
270.643
269.301
267.634
265.728
263.597
261.329
258.918
256.428
253.855
251.238
248.578
245.905
243.218
240.517
237.876
235.347
232.372
277.677
274.805
274.4
272.866
271.474
269.595
267.629
265.397
263.093
260.62
258.099
255.474
252.827
250.119
247.413
244.677
241.939
239.248
236.673
233.626
-144.08
-144.069
-143.914
-144.068
-143.655
-142.63
-141.357
-139.316
-137.293
-135.537
-133.836
-131.906
-130.031
-128.414
-126.764
-124.996
-123.354
-121.803
-120.282
-118.701
-144.99
-144.37
-144.768
-143.422
-143.329
-142.013
-139.943
-137.63
-135.561
-133.511
-131.305
-129.159
-127.175
-125.241
-123.333
-121.439
-119.659
-117.939
-116.301
-114.596
-145.075
-144.798
-144.981
-144.264
-142.669
-140.762
-138.572
-136.214
-133.898
-131.399
-129.014
-126.648
-124.44
-122.211
-120.071
-118.03
-116.047
-114.047
-112.149
-110.276
-145.593
-145.86
-145.307
-145.291
-142.993
-140.391
-137.459
-134.805
-131.973
-129.245
-126.555
-123.944
-121.452
-118.951
-116.624
-114.306
-112.088
-109.904
-107.871
-105.808
-147.707
-147.749
-146.645
-145.655
-142.996
-139.858
-136.857
-133.501
-130.359
-127.248
-124.264
-121.331
-118.53
-115.757
-113.176
-110.575
-108.168
-105.817
-103.617
-101.345
-150.127
-149.817
-149.452
-146.766
-143.562
-139.932
-135.952
-132.28
-128.628
-125.126
-121.715
-118.432
-115.285
-112.209
-109.343
-106.462
-103.844
-101.235
-98.8474
-96.4087
-154.828
-153.996
-153.226
-149.355
-144.845
-140.305
-135.746
-131.375
-127.116
-123.055
-119.191
-115.477
-111.94
-108.543
-105.362
-102.215
-99.3756
-96.5254
-93.9938
-91.3454
-162.308
-161.345
-158.315
-152.952
-146.778
-140.856
-135.352
-130.091
-125.138
-120.473
-116.066
-111.901
-107.963
-104.222
-100.722
-97.311
-94.2606
-91.1517
-88.482
-85.6908
-168.857
-167.95
-162.128
-155.131
-147.621
-140.602
-134.131
-128.153
-122.531
-117.295
-112.406
-107.805
-103.484
-99.4245
-95.6199
-91.9835
-88.701
-85.372
-82.5894
-79.5944
-174.82
-172.948
-164.441
-155.794
-147.095
-139.158
-131.741
-125.01
-118.771
-112.984
-107.62
-102.613
-97.9495
-93.5889
-89.5173
-85.6741
-82.1933
-78.6955
-75.8038
-72.661
-175.413
-172.98
-163.662
-153.673
-144.246
-135.586
-127.627
-120.368
-113.669
-107.493
-101.783
-96.4691
-91.5334
-86.9469
-82.6714
-78.6894
-75.0399
-71.4417
-68.5626
-65.1417
-172.949
-170.642
-160.165
-149.444
-139.529
-130.364
-121.884
-114.192
-107.085
-100.532
-94.507
-88.9122
-83.7463
-78.9513
-74.5003
-70.3797
-66.5833
-62.956
-59.9412
-56.4662
-168.691
-166.156
-155.592
-143.443
-132.849
-123.247
-114.347
-106.304
-98.9332
-92.1607
-85.9454
-80.1932
-74.8841
-69.9728
-65.42
-61.2167
-57.3178
-53.6233
-50.5011
-46.9158
-162.134
-158.418
-146.718
-134.828
-123.656
-113.916
-104.817
-96.6109
-89.083
-82.1551
-75.8225
-69.9621
-64.5794
-59.6005
-55.0014
-50.7789
-46.85
-43.2046
-40.0774
-36.4556
-151.504
-147.271
-135.74
-124.01
-112.752
-102.835
-93.6395
-85.3092
-77.73
-70.77
-64.4153
-58.558
-53.1748
-48.2117
-43.6411
-39.4438
-35.5205
-31.9373
-28.8265
-25.1553
-139.567
-134.624
-122.612
-110.874
-99.4785
-89.5964
-80.4413
-72.1855
-64.6729
-57.7693
-51.4905
-45.7002
-40.4001
-35.5106
-31.0223
-26.9135
-23.066
-19.63
-16.5737
-12.8752
-124.104
-119.192
-106.802
-95.1248
-84.2558
-74.612
-65.7326
-57.6372
-50.3247
-43.5957
-37.4729
-31.8464
-26.687
-21.9476
-17.6132
-13.6356
-9.91455
-6.67964
-3.74674
-0.0738414
-107.426
-101.978
-89.4053
-78.2782
-67.4795
-58.1336
-49.5122
-41.6869
-34.6109
-28.1098
-22.2143
-16.7971
-11.8489
-7.30285
-3.16377
0.629198
4.15366
7.12041
9.84418
13.3864
-88.3497
-82.7426
-69.757
-59.3141
-49.225
-40.2359
-32.1129
-24.6203
-17.9102
-11.7248
-6.10614
-0.955037
3.76794
8.08909
12.0327
15.6798
19.0125
21.7435
24.2788
28.1776
-68.1802
-62.3291
-49.6828
-39.6308
-30.0369
-21.492
-13.7688
-6.70556
-0.331275
5.5213
10.8485
15.754
20.2694
24.4531
28.3326
31.9827
35.3086
38.3847
41.7234
45.7168
-112.15
-103.746
-97.0443
-94.8932
-91.7063
-91.2617
-89.2573
-88.4149
-86.9161
-85.6367
-84.3595
-82.7999
-81.5869
-79.9173
-78.6301
-76.9788
-75.3849
-74.3588
-73.5584
-73.0777
-107.267
-99.7083
-92.4823
-90.5762
-87.2055
-86.8872
-85.0168
-84.4629
-83.276
-82.2513
-81.2279
-79.9022
-78.9316
-77.474
-76.4162
-74.9652
-73.5686
-72.6349
-71.9777
-71.5458
-102.462
-95.4933
-87.6884
-86.1684
-82.79
-82.7541
-81.0978
-80.695
-79.6947
-78.8755
-78.0978
-76.9855
-76.2465
-74.9884
-74.1528
-72.8733
-71.6822
-70.9572
-70.3894
-69.9574
-97.2949
-91.0933
-82.9381
-81.8047
-78.3496
-78.4619
-76.9757
-76.835
-76.1469
-75.5697
-75.0379
-74.1477
-73.6436
-72.5917
-71.9832
-70.9028
-69.9137
-69.2631
-68.8544
-68.4591
-91.9577
-86.5087
-78.0278
-77.3153
-73.9525
-74.3489
-73.1256
-73.1453
-72.6533
-72.2713
-71.977
-71.2922
-71.0111
-70.1526
-69.7639
-68.8474
-68.0751
-67.6091
-67.3203
-66.919
-86.3743
-81.7288
-73.1234
-72.8815
-69.572
-70.1171
-69.0975
-69.3665
-69.1904
-69.037
-68.9831
-68.5092
-68.458
-67.7988
-67.6375
-66.9162
-66.3592
-65.9423
-65.8358
-65.4652
-80.5655
-76.7483
-68.1292
-68.2774
-65.1913
-66.0128
-65.3179
-65.7494
-65.7752
-65.8089
-65.9863
-65.7102
-65.8726
-65.4022
-65.4576
-64.8989
-64.5754
-64.3108
-64.3593
-63.9837
-74.4642
-71.5153
-63.1116
-63.7378
-60.8445
-61.8271
-61.367
-62.0449
-62.3868
-62.6418
-63.0519
-62.9766
-63.3622
-63.0864
-63.3708
-63.002
-62.9141
-62.6718
-62.9332
-62.5779
-68.1365
-66.1112
-57.9039
-59.1003
-56.4784
-57.7334
-57.6475
-58.4943
-59.0442
-59.4822
-60.1129
-60.2323
-60.8209
-60.729
-61.2277
-61.0231
-61.1926
-61.0609
-61.5074
-61.1542
-61.3093
-60.5381
-52.7385
-54.4419
-52.1717
-53.5642
-53.7706
-54.8599
-55.7215
-56.3793
-57.2333
-57.5452
-58.3487
-58.4474
-59.1691
-59.1633
-59.6047
-59.4316
-60.1489
-59.7984
-54.3265
-54.6368
-47.5035
-49.605
-47.8341
-49.4828
-50.0988
-51.3712
-52.4472
-53.2868
-54.3514
-54.8504
-55.8471
-56.1248
-57.0553
-57.2249
-57.9357
-57.8618
-58.7636
-58.432
-46.9604
-48.3947
-42.2148
-44.8116
-43.5316
-45.3305
-46.2797
-47.8083
-49.1884
-50.2466
-51.5246
-52.2087
-53.4098
-53.8715
-55.0183
-55.399
-56.3561
-56.3212
-57.478
-57.1283
-39.1933
-41.9847
-36.7987
-39.8763
-39.2044
-41.2688
-42.6391
-44.3745
-45.9741
-47.2174
-48.6963
-49.5597
-50.9431
-51.577
-52.9266
-53.4967
-54.6951
-54.8125
-56.1385
-55.8189
-30.7333
-35.3045
-31.3431
-34.9818
-34.8955
-37.1406
-38.8707
-40.8861
-42.7823
-44.2421
-45.9233
-46.963
-48.5388
-49.3469
-50.9047
-51.7016
-53.1252
-53.3322
-54.9381
-54.5707
-21.6865
-28.4257
-25.758
-29.9853
-30.5944
-33.1217
-35.2673
-37.5209
-39.6405
-41.289
-43.1602
-44.369
-46.1143
-47.084
-48.838
-49.8455
-51.4786
-51.8842
-53.7627
-53.3091
-11.6732
-21.064
-20.0417
-24.9554
-26.2367
-28.9829
-31.5012
-34.0721
-36.49
-38.3566
-40.4236
-41.8033
-43.7304
-44.8624
-46.8201
-48.07
-49.9123
-50.4302
-52.6814
-52.1521
-1.57076
-13.6935
-14.2386
-19.831
-21.8754
-24.9202
-27.8385
-30.6815
-33.3469
-35.414
-37.6666
-39.209
-41.2955
-42.5751
-44.7176
-46.174
-48.2389
-48.8547
-51.4583
-50.8889
8.70651
-6.66695
-8.84839
-15.064
-17.7812
-21.0916
-24.3504
-27.5122
-30.4475
-32.7042
-35.1157
-36.7933
-39.0289
-40.4388
-42.7595
-44.506
-46.6668
-47.4325
-50.4365
-49.6342
23.6513
2.39583
-2.8874
-10.2358
-13.7622
-17.3878
-20.9911
-24.4919
-27.6443
-30.0901
-32.6656
-34.4773
-36.8585
-38.3975
-40.9283
-43.0531
-45.2487
-46.3279
-49.8662
-48.9872
41.0575
14.5647
5.07972
-3.38823
-7.93873
-11.8146
-15.9331
-19.9117
-23.5724
-26.3778
-29.2727
-31.3722
-33.9836
-35.7054
-38.4881
-40.6642
-43.8654
-44.8189
-49.0528
-47.2884
63.8622
59.4015
43.3169
35.7726
24.6388
17.9907
10.8352
5.67538
-0.176125
-4.75457
-9.44223
-12.9543
-16.3151
-18.6044
-21.6956
-22.247
-27.8356
-28.3993
-34.3055
-28.666
100.122
87.3026
68.4566
57.4208
45.2033
36.2789
27.4522
20.6237
14.7045
9.84909
5.46719
1.26604
-2.69906
-6.34945
-9.80817
-13.2944
-15.8241
-18.7331
-19.9722
-20.1118
101.594
89.135
77.5148
67.8446
58.8895
50.8148
43.6081
36.8531
30.7353
25.5091
20.9678
17.2396
13.7687
11.0404
8.414
6.41754
4.27383
2.57852
1.6341
1.37636
100.697
92.4382
84.0438
75.107
67.3482
59.8602
53.2638
47.2648
41.9417
36.807
32.1029
27.6596
23.8165
20.0883
16.9961
13.9791
11.6291
9.3873
8.28323
7.99962
92.4213
85.3927
79.3537
73.2409
67.9381
62.4239
57.4571
52.6132
48.1774
44.1363
40.3485
37.007
33.8319
31.1052
28.5427
26.293
24.3639
22.432
21.1589
20.8546
88.7077
84.2193
80.7527
75.7863
71.3477
66.6626
62.3238
58.0552
54.0409
50.1851
46.5429
43.114
39.8922
36.9138
34.1348
31.6698
29.3754
27.5522
26.145
25.7813
82.3674
79.106
75.8803
72.4825
69.2971
66.1206
62.9005
59.8515
56.7434
53.918
51.0053
48.431
45.7761
43.428
41.0817
38.7973
36.7688
34.6257
33.1977
32.9805
80.7411
78.4106
76.647
74.0011
71.1045
68.3821
65.715
62.9978
60.2893
57.6704
55.0104
52.5381
49.9772
47.6686
45.2633
43.1874
40.9962
38.9566
37.6452
37.0056
77.0441
75.308
73.494
71.7514
70.1856
68.248
66.1923
64.2642
62.1154
60.215
58.0221
56.1556
53.9345
52.0833
49.8239
47.9166
45.6461
43.6545
41.864
41.1731
76.8505
75.7742
74.6718
73.288
71.656
69.9546
68.2602
66.6707
64.8812
63.2153
61.3307
59.6411
57.6238
55.9214
53.7153
51.963
49.4433
47.6034
45.2342
44.5914
75.5933
74.5513
73.6262
72.7699
71.8545
70.9164
69.6576
68.4652
67.1043
65.8979
64.4238
63.1884
61.5601
60.2654
58.3717
56.9592
54.5168
53.0536
50.3133
49.641
76.019
75.6284
74.9899
74.2513
73.3329
72.5048
71.5817
70.7227
69.7469
68.8447
67.7698
66.8195
65.5869
64.5779
63.0977
61.9989
59.9179
58.8643
55.4049
55.2851
76.1245
75.7526
75.3623
75.0131
74.545
74.1335
73.5388
73.0661
72.4166
71.9499
71.3291
70.8531
70.2732
69.7626
69.0976
68.5775
67.3194
67.3909
64.9007
66.7891
77.0012
76.8643
76.4926
76.2924
75.9301
75.7482
75.4297
75.2864
75.0239
74.9305
74.7715
74.7458
74.7863
74.8419
75.1496
75.2734
75.9201
76.0711
77.862
79.7454
77.6627
77.6278
77.5194
77.4942
77.3898
77.4033
77.3155
77.423
77.3911
77.6537
77.7251
78.2009
78.4704
79.1609
79.8721
80.7069
82.3933
83.0371
86.6186
87.2165
78.4217
78.4707
78.4425
78.5448
78.5824
78.7637
78.8905
79.1823
79.4323
79.9017
80.3083
81.0301
81.6321
82.7666
83.6637
85.4153
86.6652
89.2925
91.4078
93.8767
79.1187
79.2366
79.3218
79.5074
79.6567
79.9464
80.1692
80.6217
80.9715
81.5991
82.0725
82.998
83.7541
85.1077
86.1184
87.9395
89.2695
92.1246
93.8996
98.2062
79.6647
79.8231
79.9926
80.228
80.4854
80.8127
81.1912
81.6415
82.1029
82.7582
83.3912
84.2701
84.9641
86.0817
86.8691
88.5359
89.3203
91.7159
92.2987
101.698
80.0845
80.2647
80.4499
80.7162
80.9798
81.3533
81.7177
82.205
82.7161
83.3761
83.9741
84.7901
85.5195
86.5436
87.3666
88.5767
89.3607
90.7483
91.2347
93.555
80.2607
80.4407
80.6683
80.9284
81.2613
81.628
82.0595
82.5576
83.0878
83.6934
84.3731
85.1414
85.9133
86.8522
87.6828
88.8252
89.6073
90.961
91.5134
101.728
198.526
197.925
196.554
194.866
192.182
189.326
185.405
181.209
176.278
170.832
164.813
158.184
151.067
142.38
134.812
125.705
115.956
106.789
97.5626
87.853
169.102
168.766
168.181
167.306
166.136
164.781
162.989
161.211
158.789
156.536
153.571
150.915
146.538
142.045
138.381
134.909
130.968
126.937
122.527
117.956
131.991
131.859
131.59
131.234
130.76
130.158
129.498
128.661
127.764
126.743
125.584
124.38
122.952
121.63
119.824
118.243
116.237
114.453
112.216
110.505
119.523
119.439
119.267
119.073
118.736
118.435
117.916
117.473
116.816
116.2
115.406
114.643
113.696
112.818
111.739
110.769
109.538
108.505
107.095
106.13
101.294
101.234
101.163
101.022
100.893
100.681
100.485
100.221
99.9482
99.6598
99.2948
98.9873
98.5754
98.2249
97.7213
97.3226
96.7343
96.2951
95.6058
95.1908
95.3993
95.37
95.3033
95.24
95.122
95.0236
94.8554
94.7175
94.5051
94.3002
94.0577
93.7888
93.4664
93.1596
92.7661
92.4334
91.9611
91.6087
91.0632
90.7405
86.9298
86.8964
86.8567
86.7865
86.7153
86.6135
86.5065
86.3812
86.2301
86.085
85.8945
85.7198
85.4978
85.293
85.0361
84.803
84.5033
84.2465
83.8976
83.6306
84.0102
83.991
83.9549
83.916
83.8546
83.7952
83.7095
83.6286
83.5182
83.4155
83.2793
83.1565
82.9931
82.8507
82.6595
82.4944
82.2785
82.0895
81.8391
81.6408
80.397
80.3748
80.3435
80.298
80.2442
80.1771
80.0988
80.013
79.9084
79.8078
79.6757
79.5632
79.4027
79.2682
79.0688
78.9027
78.6646
78.4515
78.1424
77.8058
78.954
78.9381
78.9126
78.8815
78.8404
78.794
78.7362
78.6771
78.6037
78.5357
78.4449
78.3718
78.2609
78.1748
78.04
77.9213
77.7813
77.6401
77.4763
77.3133
77.999
77.9797
77.9502
77.9111
77.864
77.8067
77.744
77.6741
77.5967
77.5161
77.4221
77.3344
77.2186
77.1111
76.9325
76.7566
76.553
76.373
76.1661
75.9927
77.4722
77.4455
77.4113
77.3727
77.3278
77.2841
77.2442
77.1978
77.1478
77.0957
77.0421
76.9897
76.9324
76.8582
76.7801
76.699
76.6038
76.5036
76.394
76.297
77.494
77.4737
77.458
77.4379
77.4206
77.397
77.3609
77.3256
77.2828
77.2386
77.1854
77.1332
77.0647
76.9923
76.9045
76.8059
76.6858
76.5753
76.4482
76.3161
77.8162
77.8081
77.7965
77.782
77.7646
77.7441
77.725
77.6993
77.6752
77.6441
77.6161
77.5802
77.5477
77.5075
77.4684
77.422
77.3733
77.3199
77.2629
77.2
78.1194
78.1132
78.1058
78.0967
78.0859
78.0737
78.0593
78.0444
78.0266
78.0087
77.9875
77.966
77.9418
77.9166
77.8903
77.8628
77.8358
77.8053
77.7769
77.7432
78.6452
78.6403
78.6353
78.6292
78.6236
78.6163
78.61
78.6015
78.5945
78.5847
78.5766
78.5656
78.5562
78.5443
78.5334
78.5198
78.5071
78.4921
78.478
78.4617
79.0525
79.0498
79.0473
79.0463
79.0457
79.046
79.0466
79.0478
79.0496
79.0517
79.0545
79.0575
79.0619
79.0655
79.0708
79.0749
79.081
79.0858
79.0928
79.098
79.4368
79.4337
79.4325
79.4318
79.433
79.4348
79.4386
79.4426
79.4492
79.4555
79.4651
79.4753
79.4884
79.5013
79.5167
79.5317
79.5494
79.5668
79.5867
79.6067
79.7312
79.7292
79.729
79.7319
79.7363
79.7442
79.7532
79.7656
79.7787
79.7951
79.8116
79.8284
79.8475
79.8659
79.888
79.9091
79.9339
79.9582
79.985
80.0138
79.8502
79.8479
79.8487
79.8531
79.8598
79.8678
79.878
79.8898
79.9034
79.9185
79.9355
79.9545
79.9751
79.9976
80.0223
80.0486
80.0775
80.1075
80.1408
80.1748
62.0134
61.0858
57.7733
54.6146
51.5798
48.3043
44.8327
41.1324
37.1254
32.7874
28.056
22.8401
17.1821
10.8211
3.93632
-3.83381
-12.3441
-21.4956
-33.3751
-39.3521
73.1833
72.8542
70.6807
68.3252
65.9673
63.3427
60.4631
57.2961
53.8158
49.9801
45.737
41.0475
35.8682
30.0836
23.7369
16.5521
8.75599
-0.0192468
-10.6947
-16.5797
85.7205
86.1929
84.7006
82.8356
80.9354
78.7506
76.2987
73.591
70.5745
67.2337
63.5237
59.3785
54.8235
49.651
44.0028
37.5542
30.6165
22.6151
13.23
7.26087
99.0674
99.7348
98.5265
97.0995
95.6401
93.9319
91.9901
89.7958
87.3093
84.5113
81.3297
77.7681
73.7392
69.1759
64.1101
58.2875
51.9935
44.5133
36.3706
31.4474
112.219
113.224
112.509
111.518
110.51
109.269
107.788
106.074
104.082
101.79
99.1633
96.15
92.7334
88.7746
84.3299
79.148
73.4489
66.5755
58.9691
54.8461
125.811
126.995
126.528
125.89
125.24
124.386
123.328
122.068
120.555
118.791
116.691
114.278
111.432
108.129
104.349
99.8777
94.8867
88.6717
81.7214
77.3005
138.598
139.992
139.878
139.648
139.421
139.013
138.424
137.657
136.671
135.439
133.93
132.11
129.922
127.319
124.252
120.583
116.405
111.161
105.232
100.478
151.518
153.06
153.23
153.326
153.437
153.398
153.2
152.856
152.311
151.576
150.576
149.334
147.74
145.808
143.454
140.602
137.262
132.967
128.333
123.19
162.969
164.671
165.237
165.718
166.226
166.61
166.867
167
166.975
166.775
166.36
165.722
164.789
163.578
161.963
159.969
157.469
154.334
150.931
145.92
174.246
176.18
177.091
177.933
178.799
179.564
180.213
180.757
181.145
181.384
181.423
181.283
180.876
180.223
179.219
177.908
176.126
173.956
171.258
167.461
184.353
186.409
187.638
188.809
190.008
191.122
192.138
193.064
193.866
194.558
195.095
195.477
195.616
195.542
195.129
194.452
193.324
191.886
189.824
187.018
193.716
196.009
197.585
199.101
200.641
202.099
203.477
204.779
205.981
207.085
208.032
208.821
209.366
209.705
209.735
209.531
208.888
207.956
206.363
204.117
202.57
204.951
206.662
208.38
210.138
211.851
213.515
215.125
216.658
218.086
219.373
220.506
221.436
222.206
222.695
222.975
222.811
222.407
221.312
219.643
209.858
212.34
214.395
216.447
218.528
220.579
222.571
224.513
226.356
228.099
229.701
231.167
232.461
233.594
234.467
235.133
235.362
235.358
234.655
233.441
216.469
219.163
221.469
223.744
226.034
228.267
230.441
232.553
234.582
236.533
238.376
240.125
241.725
243.176
244.385
245.363
245.926
246.298
245.968
245.258
222.138
224.919
227.311
229.722
232.161
234.562
236.937
239.269
241.561
243.784
245.938
247.992
249.906
251.665
253.173
254.459
255.401
256.133
256.285
256.186
226.726
229.588
232.121
234.695
237.292
239.864
242.404
244.908
247.358
249.731
252.014
254.161
256.164
257.979
259.59
260.995
262.154
263.092
263.562
263.646
230.184
233.123
235.698
238.339
241.008
243.661
246.284
248.889
251.441
253.948
256.37
258.709
260.932
263.019
264.958
266.689
268.204
269.372
270.051
270.064
232.604
235.568
238.181
240.88
243.616
246.34
249.043
251.733
254.374
256.976
259.488
261.931
264.228
266.408
268.359
270.095
271.48
272.461
273.005
273.087
233.617
236.606
239.232
241.96
244.717
247.472
250.198
252.921
255.591
258.232
260.781
263.277
265.623
267.885
269.908
271.815
273.334
274.738
275.533
276.212
-112.037
-113.52
-114.944
-116.394
-117.92
-119.607
-121.127
-122.612
-124.382
-126.112
-127.58
-129.131
-130.932
-132.668
-133.932
-135.234
-135.788
-135.888
-136.252
-136.268
-107.941
-109.559
-111.119
-112.762
-114.464
-116.285
-118.117
-119.928
-121.813
-123.885
-125.954
-127.898
-129.956
-132.29
-134.435
-136.255
-136.533
-137.419
-136.908
-137.227
-103.802
-105.599
-107.393
-109.297
-111.187
-113.129
-115.171
-117.316
-119.429
-121.689
-123.995
-126.427
-128.746
-131.167
-133.51
-135.258
-137.311
-138.347
-137.813
-137.99
-99.3414
-101.33
-103.286
-105.407
-107.537
-109.772
-112.02
-114.437
-116.843
-119.374
-121.954
-124.618
-127.377
-129.88
-132.549
-135.032
-138.008
-138.1
-138.373
-138.2
-95.045
-97.2418
-99.3607
-101.616
-103.941
-106.455
-108.941
-111.632
-114.338
-117.178
-120.087
-123.111
-126.152
-129.419
-132.394
-135.552
-137.8
-138.671
-139.98
-139.839
-90.1805
-92.5292
-94.829
-97.3533
-99.8808
-102.681
-105.462
-108.452
-111.515
-114.719
-118.036
-121.451
-125.032
-128.596
-132.365
-135.979
-139.264
-141.892
-142.065
-142.486
-85.2413
-87.8005
-90.2463
-93.0134
-95.7614
-98.8188
-101.905
-105.214
-108.656
-112.271
-116.042
-120.005
-124.142
-128.388
-132.912
-137.249
-141.514
-145.301
-146.165
-146.97
-79.6487
-82.3526
-84.9327
-87.9542
-90.9131
-94.2361
-97.6425
-101.291
-105.134
-109.204
-113.51
-118.065
-122.91
-128.056
-133.404
-139.245
-145.379
-150.655
-153.611
-154.551
-73.6924
-76.5862
-79.2786
-82.5179
-85.7003
-89.242
-92.9472
-96.9084
-101.128
-105.622
-110.403
-115.528
-121.015
-126.849
-133.182
-140.002
-147.305
-154.184
-159.908
-160.802
-66.8295
-69.8624
-72.6623
-76.0773
-79.4635
-83.2145
-87.1892
-91.4496
-96.0128
-100.914
-106.167
-111.832
-117.947
-124.534
-131.802
-139.599
-148.173
-156.679
-165.019
-166.87
-59.292
-62.703
-65.4809
-69.0101
-72.572
-76.4616
-80.6402
-85.1252
-89.954
-95.1538
-100.746
-106.801
-113.356
-120.458
-128.255
-136.744
-145.985
-155.808
-164.948
-167.394
-50.8481
-54.2623
-57.1969
-60.7223
-64.4255
-68.4463
-72.79
-77.4747
-82.5305
-88.0094
-93.9114
-100.33
-107.295
-114.818
-123.131
-132.126
-141.859
-152.366
-162.701
-164.984
-41.4919
-44.9523
-47.9882
-51.5851
-55.3753
-59.4762
-63.9215
-68.7197
-73.9125
-79.5391
-85.6244
-92.2619
-99.4767
-107.344
-116.068
-125.474
-135.86
-147.777
-158.166
-160.683
-31.1628
-34.6848
-37.7299
-41.2823
-45.1107
-49.2302
-53.7183
-58.5794
-63.8454
-69.5836
-75.7857
-82.5714
-89.9458
-97.9728
-106.892
-116.439
-127.396
-139.037
-150.525
-154.195
-20.088
-23.6282
-26.6415
-30.1236
-33.9292
-38.0159
-42.4728
-47.3155
-52.5766
-58.3006
-64.5172
-71.3321
-78.7477
-86.8916
-95.9014
-105.619
-116.659
-128.167
-139.508
-143.687
-7.90913
-11.485
-14.4615
-17.8131
-21.5572
-25.5646
-29.9434
-34.7142
-39.896
-45.5621
-51.7063
-58.4622
-65.8111
-73.8793
-82.8403
-92.5107
-103.661
-115.175
-127.003
-131.86
4.68195
1.13532
-1.71211
-4.85343
-8.46125
-12.3291
-16.5511
-21.1703
-26.2089
-31.7009
-37.684
-44.2658
-51.414
-59.3227
-68.015
-77.4537
-88.1118
-99.5376
-111.718
-116.567
18.0335
14.6492
11.9909
9.08484
5.65889
1.959
-2.07973
-6.5145
-11.3493
-16.6455
-22.4093
-28.7622
-35.6737
-43.3127
-51.7405
-60.8847
-71.4567
-82.3429
-94.7174
-100.088
32.6497
28.9042
26.412
23.7339
20.4864
16.938
13.0984
8.89109
4.28473
-0.732645
-6.21041
-12.2465
-18.7908
-26.0935
-34.0272
-42.8118
-52.6706
-62.8491
-75.6494
-81.2234
49.8226
45.9385
42.7301
39.762
36.5458
33.0047
29.2388
25.1742
20.7794
16.0009
10.8072
5.10502
-1.10524
-7.98583
-15.5236
-23.8739
-33.2348
-43.0776
-55.4832
-61.2421
-70.0904
-70.5677
-71.3246
-72.3092
-73.8144
-75.3784
-76.5737
-78.1322
-79.2169
-80.6629
-81.7435
-82.9333
-84.1517
-84.9311
-86.6027
-86.8678
-89.8745
-91.5957
-97.9831
-105.967
-68.5597
-68.9868
-69.6098
-70.5102
-71.8174
-73.1845
-74.1494
-75.498
-76.3371
-77.5589
-78.3768
-79.3247
-80.2052
-80.6994
-82.2756
-82.5466
-85.6101
-87.0567
-93.9484
-101.062
-66.9885
-67.4218
-67.9413
-68.6362
-69.7428
-70.9387
-71.6815
-72.8386
-73.4426
-74.457
-75.0246
-75.787
-76.4855
-76.8634
-78.1468
-78.0654
-81.2253
-82.3757
-89.8136
-96.3066
-65.493
-65.8887
-66.2579
-66.8893
-67.7873
-68.791
-69.3035
-70.2556
-70.6229
-71.4263
-71.7369
-72.272
-72.624
-72.7387
-73.8868
-73.7667
-76.8917
-77.6605
-85.4232
-91.1441
-63.973
-64.3787
-64.6171
-65.0619
-65.7525
-66.5917
-66.885
-67.6483
-67.791
-68.3928
-68.46
-68.8184
-68.9843
-68.9733
-69.7893
-69.3256
-72.4443
-72.837
-80.914
-85.9369
-62.5265
-62.8992
-62.9634
-63.3713
-63.8378
-64.4863
-64.5494
-65.1203
-65.0274
-65.4292
-65.2459
-65.3811
-65.2019
-64.9444
-65.5731
-65.0468
-68.0269
-67.9796
-76.1569
-80.3881
-61.0663
-61.4478
-61.3495
-61.5973
-61.8439
-62.3289
-62.1765
-62.5569
-62.2539
-62.4586
-62.0435
-62.0073
-61.6292
-61.236
-61.4957
-60.6464
-63.4767
-63.0394
-71.2286
-74.7316
-59.6723
-60.029
-59.7258
-59.9652
-59.9656
-60.2651
-59.8789
-60.0746
-59.5427
-59.5542
-58.8988
-58.6442
-57.923
-57.2911
-57.3099
-56.3764
-58.9518
-58.063
-66.0433
-68.7177
-58.272
-58.6404
-58.1368
-58.2518
-58.0118
-58.1462
-57.5485
-57.5599
-56.8258
-56.6446
-55.7681
-55.3408
-54.4087
-53.6306
-53.2454
-52.011
-54.3443
-52.9136
-60.6744
-62.5567
-56.9326
-57.2835
-56.5297
-56.6894
-56.1758
-56.1104
-55.2867
-55.1131
-54.1641
-53.7924
-52.6908
-52.0462
-50.7755
-49.7598
-49.0724
-47.7632
-49.6886
-47.795
-55.1695
-55.8809
-55.5921
-55.9502
-54.9842
-55.0287
-54.2649
-54.0214
-52.9934
-52.6396
-51.498
-50.9395
-49.6301
-48.8068
-47.3153
-46.1362
-45.0165
-43.4387
-44.8864
-42.5923
-49.3044
-49.0777
-54.3088
-54.6653
-53.4625
-53.4798
-52.4678
-52.008
-50.7619
-50.2267
-48.8844
-48.1391
-46.6191
-45.5763
-43.7529
-42.3246
-40.8573
-39.1956
-40.095
-37.3334
-43.1746
-41.8054
-53.0263
-53.3448
-51.9888
-51.8296
-50.597
-49.9407
-48.4981
-47.7884
-46.2654
-45.3391
-43.6256
-42.394
-40.3414
-38.7236
-36.8128
-34.8936
-35.1752
-31.9501
-36.8147
-34.2081
-51.8027
-52.1658
-50.5231
-50.2901
-48.8355
-47.9427
-46.2919
-45.4083
-43.6989
-42.5925
-40.6836
-39.2279
-36.8507
-34.9618
-32.6753
-30.6544
-30.2712
-26.5162
-30.2688
-25.8927
-50.5691
-51.0095
-49.0994
-48.6583
-47.0147
-45.8984
-44.0601
-43.0127
-41.1359
-39.8566
-37.7696
-36.1126
-33.4982
-31.3857
-28.6635
-26.3877
-25.2601
-20.9734
-23.4707
-17.0222
-49.4415
-49.96
-47.6697
-47.1226
-45.2825
-43.905
-41.8648
-40.653
-38.6017
-37.1474
-34.876
-32.983
-30.0448
-27.6257
-24.5238
-22.1174
-20.193
-15.2944
-16.279
-7.1974
-48.2078
-48.7629
-46.1198
-45.4692
-43.4316
-41.823
-39.6088
-38.245
-36.0416
-34.4227
-31.9819
-29.8718
-26.6822
-24.0052
-20.4961
-17.815
-15.0195
-9.57321
-9.01883
2.75197
-46.9824
-47.7604
-44.7199
-43.9266
-41.791
-39.8794
-37.4987
-36.0028
-33.6566
-31.8978
-29.3113
-26.9772
-23.4877
-20.4945
-16.6257
-13.759
-10.1673
-4.22207
-2.11857
12.8107
-46.374
-47.1883
-43.6376
-42.5358
-40.3901
-38.0585
-35.4854
-33.8531
-31.3629
-29.4567
-26.7246
-24.1417
-20.3777
-17.0501
-12.8493
-9.70087
-5.14555
1.68985
6.65281
27.5813
-44.6968
-46.3852
-42.1496
-41.1869
-38.1653
-35.6804
-32.8204
-31.0143
-28.3025
-26.1163
-23.0873
-20.1243
-15.9029
-12.0977
-7.58245
-4.23678
1.67817
9.42975
18.2107
44.9605
-26.0344
-31.701
-25.7942
-25.193
-19.5747
-19.0597
-15.9507
-13.7113
-10.3667
-6.87183
-2.18552
2.3322
7.52519
12.3028
19.4151
26.031
37.4467
45.2859
61.5272
67.2798
-17.6717
-17.5704
-16.3015
-13.4174
-10.839
-7.3635
-3.90609
-0.229925
3.77733
7.9959
12.3156
17.3235
23.4588
30.8783
39.6248
49.0558
60.3751
71.7247
90.0076
102.89
3.42423
3.67862
4.62764
6.33735
8.47601
10.4862
13.1089
15.8499
19.2949
22.9947
27.5477
32.6964
38.7619
45.2087
52.3976
60.2044
69.2275
78.7587
90.3771
102.871
9.91357
10.1953
11.2958
13.5369
15.8818
18.8955
21.9783
25.6917
29.5305
33.9819
38.6392
43.8159
49.1126
55.2988
61.8631
69.4501
76.9793
85.8894
94.0292
102.058
22.4602
22.7669
24.0234
25.966
27.8773
30.1398
32.6779
35.4017
38.5525
41.8643
45.6308
49.613
54.0152
58.755
63.6618
69.0611
74.2897
80.3105
86.2308
93.2024
27.2638
27.6191
29.0102
30.8443
33.1246
35.5868
38.3494
41.3203
44.5162
47.9386
51.5386
55.392
59.3596
63.621
67.8974
72.5363
76.8917
81.7855
85.1635
89.4854
34.2308
34.4572
35.8748
38.0093
40.0297
42.3098
44.6365
46.9721
49.5932
52.1533
55.0173
57.8234
60.8636
63.8916
67.0265
70.1722
73.269
76.6344
79.7057
82.9818
38.1566
38.7889
40.0933
42.1314
44.3054
46.3739
48.753
51.0532
53.5839
56.0387
58.6598
61.261
63.9147
66.6204
69.1967
71.9368
74.7565
77.2999
78.9718
81.249
42.1651
42.852
44.6349
46.6155
48.8792
50.7686
53.0251
54.8386
57.0464
58.8899
61.0502
62.9217
65.0365
66.9132
68.9501
70.8242
72.2989
74.0992
75.8584
77.5298
45.4975
46.1317
48.4892
50.3243
52.825
54.5687
56.7511
58.4376
60.4239
62.0998
63.9396
65.6037
67.3134
68.9264
70.5832
72.2751
73.813
75.1575
76.1145
77.2435
50.4338
51.0861
53.8329
55.2776
57.7151
59.1089
60.9957
62.2638
63.8864
65.0857
66.5597
67.7169
69.0822
70.2153
71.3952
72.2995
73.1656
74.0346
74.9074
75.93
56.0664
56.1635
59.5585
60.6329
62.6673
63.7645
65.2201
66.2142
67.4258
68.3631
69.4018
70.2984
71.2227
72.0792
72.9711
73.7839
74.6519
75.3321
75.9163
76.2862
67.3409
65.4739
68.0474
67.9072
69.2084
69.663
70.3529
70.8178
71.4029
71.8424
72.4614
72.8939
73.5312
73.9777
74.5135
74.9098
75.3225
75.671
76.027
76.3686
80.2164
78.3827
76.6099
76.403
75.8029
75.6513
75.3637
75.2871
75.2481
75.243
75.3887
75.4548
75.7003
75.8075
76.1133
76.2685
76.6034
76.7839
77.0961
77.2305
87.6117
87.0156
83.4187
82.8298
81.1138
80.3146
79.574
78.8914
78.6075
78.1387
78.0466
77.7734
77.7849
77.6597
77.724
77.6861
77.7662
77.7624
77.847
77.849
94.2249
91.8846
89.7583
87.1281
85.8797
84.124
83.2211
82.0707
81.4506
80.7067
80.2903
79.8005
79.5304