/*--------------------------------*- C++ -*----------------------------------*\
  =========                 |
  \\      /  F ield         | OpenFOAM: The Open Source CFD Toolbox
   \\    /   O peration     | Website:  https://openfoam.org
    \\  /    A nd           | Version:  9
     \\/     M anipulation  |
\*---------------------------------------------------------------------------*/
FoamFile
{
    format      ascii;
    class       surfaceScalarField;
    location    "2.8";
    object      phi;
}
// * * * * * * * * * * * * * * * * * * * * * * * * * * * * * * * * * * * * * //

dimensions      [0 3 -1 0 0 0 0];

internalField   nonuniform List<scalar> 
92080
(
0.00175519
-0.428024
0.426268
-0.0142847
-0.876837
0.892877
-0.0490359
-0.966693
1.00144
-0.084722
-0.952655
0.988341
-0.119371
-0.937686
0.972335
-0.153753
-0.922963
0.957344
-0.187521
-0.910669
0.944438
-0.221175
-0.896683
0.930337
-0.254426
-0.884655
0.917907
-0.287375
-0.873672
0.906621
-0.320214
-0.863444
0.896283
-0.353001
-0.853946
0.886733
-0.385687
-0.8463
0.878986
-0.417656
-0.838556
0.870525
-0.449603
-0.83091
0.862857
-0.481802
-0.823616
0.855815
-0.513444
-0.817539
0.84918
-0.544074
-0.810828
0.841458
-0.573772
-0.803159
0.832857
-0.797854
0.825615
-0.601532
-0.000515537
-0.427508
-0.0207593
-0.856593
-0.0568531
-0.930599
-0.0940989
-0.915409
-0.130712
-0.901072
-0.167156
-0.886519
-0.20296
-0.874865
-0.238086
-0.861557
-0.273393
-0.849349
-0.308413
-0.838653
-0.343081
-0.828775
-0.377816
-0.819211
-0.412225
-0.811891
-0.44637
-0.804411
-0.479676
-0.797604
-0.512244
-0.791048
-0.544562
-0.785221
-0.57562
-0.77977
-0.60467
-0.774109
-0.769267
-0.633257
-0.00286589
-0.424642
-0.026701
-0.832758
-0.0662976
-0.891003
-0.106001
-0.875706
-0.144792
-0.862281
-0.183189
-0.848123
-0.220969
-0.837085
-0.25831
-0.824216
-0.295141
-0.812518
-0.331757
-0.802036
-0.368001
-0.792531
-0.404228
-0.782985
-0.440421
-0.775698
-0.475866
-0.768966
-0.511514
-0.761956
-0.547058
-0.755503
-0.582044
-0.750235
-0.616348
-0.745465
-0.64985
-0.740608
-0.735901
-0.683216
-0.00528077
-0.419361
-0.0335526
-0.804486
-0.074133
-0.850423
-0.115078
-0.834761
-0.155428
-0.82193
-0.195626
-0.807925
-0.235012
-0.797699
-0.273413
-0.785815
-0.311953
-0.773978
-0.350188
-0.763802
-0.38787
-0.754849
-0.425506
-0.745348
-0.463407
-0.737797
-0.5009
-0.731473
-0.537195
-0.725661
-0.573605
-0.719093
-0.610783
-0.713058
-0.647595
-0.708653
-0.683082
-0.705121
-0.700469
-0.718513
-0.0048409
-0.41452
-0.0391612
-0.770166
-0.0819512
-0.807632
-0.124711
-0.792001
-0.166819
-0.779822
-0.208726
-0.766018
-0.250417
-0.756009
-0.29127
-0.744962
-0.331326
-0.733921
-0.37148
-0.723648
-0.411094
-0.715235
-0.450206
-0.706236
-0.489562
-0.698442
-0.529118
-0.691917
-0.568511
-0.686269
-0.606256
-0.681348
-0.643815
-0.675499
-0.682842
-0.669626
-0.721523
-0.666439
-0.662945
-0.759048
-0.000811985
-0.413708
-0.0385022
-0.732476
-0.0841227
-0.762012
-0.129626
-0.746498
-0.17424
-0.735208
-0.218377
-0.72188
-0.261558
-0.712828
-0.3036
-0.70292
-0.345383
-0.692139
-0.386713
-0.682318
-0.427705
-0.674242
-0.468205
-0.665736
-0.508641
-0.658006
-0.548956
-0.651602
-0.589598
-0.645628
-0.630594
-0.640351
-0.669782
-0.63631
-0.708832
-0.630576
-0.749271
-0.626
-0.62261
-0.789606
9.29191e-06
-0.413718
-0.0406033
-0.691863
-0.0896766
-0.712939
-0.13762
-0.698555
-0.184238
-0.68859
-0.230281
-0.675837
-0.276215
-0.666894
-0.320504
-0.658631
-0.363412
-0.649231
-0.406527
-0.639203
-0.449045
-0.631724
-0.490787
-0.623994
-0.532647
-0.616145
-0.574347
-0.609902
-0.615324
-0.60465
-0.656506
-0.59917
-0.697932
-0.594884
-0.737688
-0.59082
-0.777628
-0.586061
-0.582124
-0.818114
0.00114825
-0.414866
-0.0411592
-0.649555
-0.0922767
-0.661821
-0.142056
-0.648776
-0.190693
-0.639953
-0.238265
-0.628265
-0.285217
-0.619942
-0.331327
-0.612521
-0.376017
-0.604541
-0.419692
-0.595528
-0.463626
-0.58779
-0.506379
-0.581242
-0.548745
-0.573779
-0.591891
-0.566756
-0.635046
-0.561496
-0.677654
-0.556561
-0.720308
-0.55223
-0.762788
-0.548341
-0.803772
-0.545076
-0.540905
-0.844991
-0.000576682
-0.414289
-0.0475432
-0.602589
-0.10134
-0.608024
-0.152933
-0.597183
-0.202621
-0.590265
-0.251469
-0.579416
-0.300396
-0.571015
-0.347773
-0.565143
-0.393651
-0.558663
-0.438753
-0.550427
-0.483422
-0.54312
-0.527564
-0.537101
-0.570016
-0.531326
-0.611982
-0.52479
-0.654523
-0.518955
-0.697253
-0.513831
-0.740026
-0.509457
-0.783008
-0.50536
-0.825806
-0.502278
-0.499397
-0.867314
-0.0066877
-0.407602
-0.0547537
-0.554523
-0.107869
-0.55491
-0.15992
-0.545132
-0.211071
-0.539114
-0.26012
-0.530368
-0.309304
-0.521831
-0.3587
-0.515748
-0.405982
-0.511381
-0.451485
-0.504923
-0.497371
-0.497234
-0.543299
-0.491173
-0.588773
-0.485852
-0.632811
-0.480752
-0.676012
-0.475755
-0.719113
-0.470729
-0.762073
-0.466497
-0.805231
-0.462202
-0.848797
-0.458712
-0.455478
-0.892717
-0.0166413
-0.39096
-0.0670719
-0.504092
-0.12084
-0.501141
-0.172949
-0.493023
-0.223903
-0.48816
-0.273989
-0.480282
-0.323479
-0.472341
-0.373144
-0.466082
-0.422555
-0.46197
-0.469079
-0.458399
-0.513521
-0.452792
-0.558364
-0.44633
-0.603107
-0.44111
-0.648131
-0.435728
-0.692359
-0.431526
-0.736004
-0.427084
-0.779171
-0.423329
-0.82171
-0.419663
-0.864023
-0.416399
-0.413199
-0.906301
-0.024329
-0.366631
-0.0752582
-0.453163
-0.128631
-0.447768
-0.182082
-0.439572
-0.234066
-0.436176
-0.283682
-0.430665
-0.333222
-0.422801
-0.383557
-0.415748
-0.434516
-0.411011
-0.485331
-0.407585
-0.533396
-0.404727
-0.579354
-0.400372
-0.624754
-0.39571
-0.669468
-0.391013
-0.714708
-0.386286
-0.759614
-0.382179
-0.804689
-0.378254
-0.849678
-0.374674
-0.894278
-0.371799
-0.368706
-0.938771
-0.032172
-0.334459
-0.0846347
-0.400701
-0.13762
-0.394783
-0.190408
-0.386784
-0.243842
-0.382742
-0.295181
-0.379326
-0.343805
-0.374177
-0.392181
-0.367372
-0.441661
-0.361531
-0.49173
-0.357516
-0.542183
-0.354273
-0.590721
-0.351833
-0.63755
-0.348882
-0.682966
-0.345598
-0.726852
-0.342399
-0.770669
-0.338362
-0.813543
-0.33538
-0.856885
-0.331333
-0.899986
-0.328698
-0.325245
-0.943446
-0.037755
-0.296704
-0.0918467
-0.346609
-0.146487
-0.340143
-0.200691
-0.33258
-0.254304
-0.329129
-0.307175
-0.326455
-0.358629
-0.322723
-0.407418
-0.318582
-0.456222
-0.312727
-0.505774
-0.307964
-0.555903
-0.304143
-0.607153
-0.300584
-0.6574
-0.298635
-0.707307
-0.295691
-0.755543
-0.294163
-0.80253
-0.291375
-0.848454
-0.289456
-0.892838
-0.286949
-0.936874
-0.284662
-0.282502
-0.979618
-0.0421966
-0.254508
-0.0975016
-0.291304
-0.150318
-0.287327
-0.203376
-0.279522
-0.25867
-0.273835
-0.312271
-0.272854
-0.364467
-0.270527
-0.414932
-0.268117
-0.462363
-0.265296
-0.509655
-0.260672
-0.556279
-0.25752
-0.603711
-0.253152
-0.651908
-0.250438
-0.700347
-0.247252
-0.749654
-0.244856
-0.798351
-0.242678
-0.84743
-0.240377
-0.895715
-0.238663
-0.943846
-0.236532
-0.234887
-0.99146
-0.0439559
-0.210552
-0.102682
-0.232578
-0.158246
-0.231763
-0.210952
-0.226816
-0.264603
-0.220183
-0.321314
-0.216144
-0.376859
-0.214981
-0.432129
-0.212848
-0.48533
-0.212095
-0.536034
-0.209969
-0.585419
-0.208134
-0.632757
-0.205814
-0.679929
-0.203266
-0.726033
-0.201147
-0.772295
-0.198595
-0.818284
-0.196689
-0.864193
-0.194469
-0.910194
-0.192662
-0.955976
-0.19075
-0.188962
-1.0019
-0.0493312
-0.16122
-0.10834
-0.173569
-0.163157
-0.176946
-0.214878
-0.175096
-0.263115
-0.171946
-0.312651
-0.166609
-0.364278
-0.163354
-0.416382
-0.160744
-0.470003
-0.158473
-0.522874
-0.157098
-0.575747
-0.155261
-0.627322
-0.154239
-0.678084
-0.152504
-0.72798
-0.15125
-0.7769
-0.149675
-0.82536
-0.148229
-0.87304
-0.146788
-0.920371
-0.145331
-0.967128
-0.143993
-0.142499
-1.01359
-0.0503696
-0.110851
-0.114935
-0.109003
-0.177275
-0.114606
-0.235923
-0.116449
-0.291313
-0.116555
-0.342165
-0.115756
-0.392103
-0.113417
-0.441105
-0.111741
-0.489851
-0.109728
-0.538821
-0.108128
-0.587631
-0.106452
-0.636774
-0.105096
-0.685413
-0.103865
-0.734054
-0.102609
-0.782154
-0.101575
-0.830004
-0.10038
-0.877394
-0.0993975
-0.924496
-0.0982298
-0.971209
-0.09728
-0.0961328
-1.01757
-0.0502689
-0.060582
-0.0984273
-0.0608448
-0.154341
-0.0586913
-0.209785
-0.0610046
-0.267972
-0.0583689
-0.324606
-0.0591223
-0.380291
-0.0577314
-0.434529
-0.0575036
-0.487674
-0.0565822
-0.539501
-0.0563011
-0.590507
-0.055446
-0.64063
-0.0549732
-0.690296
-0.0541989
-0.739192
-0.0537123
-0.787754
-0.053013
-0.835541
-0.0525926
-0.882985
-0.0519541
-0.929623
-0.0515915
-0.9759
-0.0510025
-0.0506349
-1.0214
-0.0759657
0.0153837
-0.127527
-0.00928389
-0.179846
-0.00637223
-0.2304
-0.0104502
-0.282726
-0.00604281
-0.334513
-0.00733547
-0.386949
-0.00529493
-0.438338
-0.00611515
-0.490177
-0.00474291
-0.541085
-0.00539355
-0.591953
-0.0045774
-0.641855
-0.00507165
-0.691567
-0.00448656
-0.740419
-0.00486044
-0.789052
-0.00437994
-0.836936
-0.00470917
-0.884571
-0.00431916
-0.931515
-0.00464664
-0.978147
-0.00437071
-1.024
-0.0047805
-0.00978287
0.0509954
-0.0412126
0.00509203
0.0406194
-0.0554943
0.0684827
-0.0439743
-0.0194164
0.228149
-0.260683
0.101016
0.463118
-0.60187
0.366901
0.657555
-0.873109
0.678672
0.764871
-1.01682
0.909502
0.814363
-1.07158
1.02209
0.839582
-1.08881
1.06359
0.854729
-1.0926
1.07745
0.865927
-1.09214
1.08094
0.873992
-1.08875
1.08068
0.881097
-1.08559
1.07849
0.889773
-1.08363
1.07496
0.899583
-1.08386
1.07405
0.907927
-1.08193
1.07358
0.915174
-1.08126
1.07401
0.922718
-1.07984
1.0723
0.930608
-1.08018
1.07229
-1.07814
0.937531
1.07122
-0.00171356
0.052709
0.0331593
0.00574658
0.132342
-0.143157
0.343992
-0.472333
0.5442
-0.802078
0.665412
-0.994321
0.722136
-1.07354
0.748052
-1.0975
0.76193
-1.10269
0.771417
-1.10209
0.778351
-1.09907
0.783939
-1.09434
0.791125
-1.09278
0.798583
-1.09109
0.804588
-1.08986
0.810371
-1.08771
0.81675
-1.08764
0.823021
-1.08611
0.8282
-1.08535
-1.08233
0.832389
0.00818985
0.0445191
0.0619829
-0.0480464
0.206461
-0.287636
0.408503
-0.674375
0.548727
-0.942302
0.620221
-1.06581
0.650279
-1.1036
0.664968
-1.11219
0.674288
-1.11201
0.681023
-1.10882
0.685844
-1.10389
0.691883
-1.10038
0.698018
-1.09891
0.703091
-1.09616
0.708225
-1.095
0.713736
-1.09322
0.718877
-1.09278
0.722069
-1.0893
0.724876
-1.08816
-1.08518
0.727723
0.023822
0.0206971
0.0962399
-0.120464
0.272455
-0.463851
0.433344
-0.835264
0.525688
-1.03465
0.563118
-1.10324
0.579389
-1.11987
0.588457
-1.12125
0.594539
-1.11809
0.597987
-1.11227
0.602074
-1.10798
0.606529
-1.10483
0.610396
-1.10278
0.614378
-1.10015
0.618082
-1.0987
0.621097
-1.09623
0.622975
-1.09466
0.624773
-1.0911
0.626781
-1.09017
-1.08628
0.627881
0.0391421
-0.018445
0.126895
-0.208217
0.295049
-0.632005
0.413113
-0.953328
0.467493
-1.08903
0.489407
-1.12516
0.499525
-1.12999
0.505733
-1.12746
0.508712
-1.12107
0.512168
-1.11572
0.515808
-1.11162
0.519132
-1.10815
0.522145
-1.10579
0.524467
-1.10247
0.526211
-1.10045
0.527661
-1.09768
0.528526
-1.09552
0.529329
-1.0919
0.529434
-1.09027
-1.08513
0.528289
0.0388363
-0.0572813
0.15377
-0.32315
0.294753
-0.772989
0.375992
-1.03457
0.40889
-1.12192
0.421148
-1.13742
0.427247
-1.13609
0.430123
-1.13034
0.432692
-1.12364
0.435128
-1.11816
0.436875
-1.11337
0.43837
-1.10965
0.439053
-1.10648
0.439496
-1.10291
0.439614
-1.10056
0.43905
-1.09712
0.437721
-1.09419
0.436151
-1.09033
0.434033
-1.08816
-1.08223
0.431127
0.035021
-0.0923023
0.156943
-0.445073
0.264925
-0.88097
0.320589
-1.09023
0.339824
-1.14116
0.347475
-1.14507
0.351952
-1.14057
0.354005
-1.13239
0.355668
-1.1253
0.356512
-1.119
0.357072
-1.11393
0.357055
-1.10963
0.356583
-1.106
0.355558
-1.10189
0.353767
-1.09877
0.351476
-1.09483
0.34876
-1.09148
0.3459
-1.08747
0.342253
-1.08451
-1.07747
0.337491
0.0386205
-0.130923
0.147476
-0.553928
0.232571
-0.966065
0.269156
-1.12682
0.280944
-1.15295
0.286501
-1.15062
0.287619
-1.14168
0.287999
-1.13277
0.287713
-1.12501
0.286903
-1.11819
0.285327
-1.11235
0.2832
-1.10751
0.280266
-1.10307
0.276821
-1.09844
0.272917
-1.09487
0.268483
-1.09039
0.263472
-1.08647
0.258113
-1.08212
0.25202
-1.07842
-1.0709
0.245455
0.042914
-0.173837
0.134449
-0.645462
0.196479
-1.0281
0.217735
-1.14807
0.22339
-1.1586
0.224039
-1.15127
0.223415
-1.14106
0.222175
-1.13153
0.220051
-1.12289
0.217081
-1.11522
0.213588
-1.10886
0.209437
-1.10336
0.20478
-1.09841
0.199607
-1.09327
0.193772
-1.08904
0.187464
-1.08409
0.180712
-1.07971
0.173665
-1.07507
0.165982
-1.07073
-1.0626
0.157679
0.0467016
-0.220538
0.118654
-0.717414
0.163312
-1.07275
0.174695
-1.15946
0.176287
-1.16019
0.174115
-1.1491
0.171178
-1.13812
0.167008
-1.12736
0.162073
-1.11796
0.156549
-1.1097
0.150353
-1.10266
0.143599
-1.0966
0.136205
-1.09102
0.128277
-1.08534
0.119886
-1.08064
0.111057
-1.07526
0.101726
-1.07038
0.0920477
-1.06539
0.081827
-1.06051
-1.05218
0.0714074
0.0433193
-0.263858
0.101393
-0.775488
0.130774
-1.10214
0.133123
-1.1618
0.129407
-1.15648
0.123632
-1.14333
0.117494
-1.13198
0.110733
-1.1206
0.1034
-1.11062
0.0954389
-1.10174
0.0869544
-1.09418
0.077897
-1.08754
0.0683673
-1.08149
0.0583618
-1.07533
0.0478923
-1.07017
0.037068
-1.06443
0.0258316
-1.05915
0.0143151
-1.05387
0.00246762
-1.04867
-1.03994
-0.0097675
0.0370194
-0.300877
0.0853959
-0.823865
0.101798
-1.11854
0.0988131
-1.15882
0.0914108
-1.14907
0.0833172
-1.13523
0.0743859
-1.12305
0.0646616
-1.11088
0.0542983
-1.10026
0.0433519
-1.09079
0.0318486
-1.08267
0.0198529
-1.07555
0.00739501
-1.06903
-0.00552748
-1.06241
-0.0188925
-1.05681
-0.0326434
-1.05068
-0.0468207
-1.04497
-0.0611759
-1.03952
-0.0757879
-1.03405
-1.02533
-0.0904049
0.028392
-0.329269
0.0625135
-0.857986
0.0710081
-1.12703
0.0634231
-1.15123
0.0526162
-1.13827
0.041419
-1.12404
0.0295203
-1.11115
0.0169808
-1.09834
0.00400129
-1.08728
-0.0094478
-1.07734
-0.0233735
-1.06875
-0.0377487
-1.06117
-0.0525257
-1.05425
-0.0677171
-1.04722
-0.0832068
-1.04132
-0.0989578
-1.03493
-0.115121
-1.02881
-0.131628
-1.02301
-0.148171
-1.01751
-1.0089
-0.164602
0.0272537
-0.356523
0.0536326
-0.884365
0.0521119
-1.12551
0.0398805
-1.139
0.0251959
-1.12358
0.0103692
-1.10921
-0.00493394
-1.09585
-0.0206684
-1.0826
-0.0368252
-1.07112
-0.0534723
-1.06069
-0.0705305
-1.05169
-0.0879771
-1.04373
-0.105675
-1.03656
-0.123709
-1.02919
-0.142123
-1.0229
-0.160753
-1.0163
-0.179631
-1.00993
-0.19865
-1.00399
-0.217395
-0.998766
-0.99014
-0.23615
0.019185
-0.375708
0.0347671
-0.899947
0.0266735
-1.11742
0.0101597
-1.12249
-0.00710141
-1.10632
-0.0246776
-1.09163
-0.0425754
-1.07795
-0.0610379
-1.06414
-0.0797859
-1.05238
-0.0988168
-1.04166
-0.118263
-1.03224
-0.138035
-1.02395
-0.158106
-1.01648
-0.178466
-1.00883
-0.198957
-1.00241
-0.219563
-0.995696
-0.240508
-0.988985
-0.261825
-0.982676
-0.282708
-0.977882
-0.969543
-0.303306
0.0175054
-0.393213
0.0282654
-0.910707
0.0142063
-1.10336
-0.00587109
-1.10241
-0.0268698
-1.08532
-0.0481297
-1.07037
-0.0696082
-1.05647
-0.0912431
-1.0425
-0.113147
-1.03047
-0.135401
-1.01941
-0.157901
-1.00974
-0.180718
-1.00114
-0.203597
-0.993605
-0.226701
-0.985723
-0.250158
-0.978956
-0.273653
-0.972201
-0.297145
-0.965492
-0.320871
-0.95895
-0.344348
-0.954405
-0.946499
-0.367392
0.0124066
-0.40562
0.0156505
-0.913951
-0.00402117
-1.08369
-0.0286648
-1.07777
-0.0528162
-1.06117
-0.0769385
-1.04625
-0.10091
-1.0325
-0.125252
-1.01816
-0.149639
-1.00609
-0.174086
-0.994962
-0.198844
-0.984987
-0.223792
-0.97619
-0.24897
-0.968428
-0.274244
-0.960449
-0.299513
-0.953687
-0.324868
-0.946847
-0.350431
-0.939929
-0.376372
-0.933009
-0.402094
-0.928683
-0.92163
-0.426963
0.00990814
-0.415528
0.00788698
-0.91193
-0.0153178
-1.06048
-0.0418069
-1.05128
-0.0687867
-1.03419
-0.095843
-1.01919
-0.122824
-1.00552
-0.149744
-0.991243
-0.176911
-0.978918
-0.204291
-0.967582
-0.231795
-0.957483
-0.259587
-0.948397
-0.287319
-0.940696
-0.315308
-0.93246
-0.343655
-0.925339
-0.371857
-0.918645
-0.399791
-0.911995
-0.428062
-0.904738
-0.457129
-0.899616
-0.893299
-0.48546
0.00635003
-0.421878
-0.000507654
-0.905072
-0.0292629
-1.03173
-0.0598418
-1.0207
-0.0896093
-1.00442
-0.119368
-0.989436
-0.148681
-0.976209
-0.178177
-0.961747
-0.207551
-0.949544
-0.236851
-0.938282
-0.266386
-0.927949
-0.296059
-0.918724
-0.325916
-0.910838
-0.355711
-0.902665
-0.38568
-0.895371
-0.416034
-0.888291
-0.446492
-0.881537
-0.476984
-0.874246
-0.508758
-0.867842
-0.862452
-0.539605
0.00439045
-0.00780532
-0.0380879
-0.0704468
-0.102536
-0.134628
-0.166399
-0.197809
-0.229446
-0.261107
-0.292773
-0.324764
-0.356616
-0.388756
-0.42127
-0.453746
-0.486103
-0.518891
-0.553876
-0.590713
0.863889
-9.55323
9.62687
0.802918
-9.41791
9.47888
0.740511
-9.45879
9.52119
0.678215
-9.48039
9.54269
0.617921
-9.49919
9.55948
0.564086
-9.54027
9.59411
0.512738
-9.56247
9.61382
0.462822
-9.59387
9.64378
0.415146
-9.62422
9.6719
0.37077
-9.64522
9.6896
0.329619
-9.66347
9.70463
0.291504
-9.6729
9.71102
0.256492
-9.68365
9.71866
0.224388
-9.68926
9.72137
0.195204
-9.69324
9.72242
0.167672
-9.67213
9.69967
0.14352
-9.62915
9.6533
0.109814
-9.11973
9.15344
0.0561362
-7.46028
7.51396
-4.06111
4.11725
0.760044
-9.48089
0.701063
-9.35893
0.643379
-9.4011
0.587801
-9.42481
0.532376
-9.44377
0.48123
-9.48913
0.431413
-9.51265
0.385012
-9.54747
0.343305
-9.58251
0.305501
-9.60742
0.270908
-9.62888
0.23952
-9.64151
0.211712
-9.65584
0.186724
-9.66428
0.164735
-9.67125
0.144755
-9.65215
0.127389
-9.61178
0.0994771
-9.09182
0.0524732
-7.41328
-4.00864
0.658986
-9.41215
0.602967
-9.30291
0.546569
-9.34471
0.493315
-9.37156
0.444409
-9.39486
0.401936
-9.44665
0.361693
-9.47241
0.323056
-9.50883
0.287354
-9.54681
0.254962
-9.57503
0.225776
-9.5997
0.199647
-9.61539
0.176639
-9.63283
0.156506
-9.64414
0.139285
-9.65403
0.123526
-9.6364
0.111354
-9.59961
0.0905487
-9.07101
0.0500975
-7.37282
-3.95854
0.558275
-9.34254
0.503359
-9.24799
0.450928
-9.29227
0.403873
-9.3245
0.359701
-9.35069
0.320251
-9.4072
0.281652
-9.43381
0.246485
-9.47366
0.21659
-9.51692
0.190564
-9.549
0.16778
-9.57691
0.148159
-9.59576
0.132105
-9.61678
0.118931
-9.63097
0.108823
-9.64392
0.100571
-9.62814
0.095201
-9.59424
0.080422
-9.05624
0.0466591
-7.33906
-3.91188
0.459542
-9.2738
0.407957
-9.19641
0.357658
-9.24198
0.313412
-9.28026
0.275044
-9.31232
0.242743
-9.3749
0.213088
-9.40416
0.185608
-9.44618
0.161612
-9.49292
0.140828
-9.52822
0.123294
-9.55938
0.108836
-9.58131
0.0975344
-9.60548
0.089103
-9.62254
0.0836079
-9.63843
0.0794291
-9.62397
0.0791738
-9.59398
0.0714903
-9.04855
0.0442744
-7.31185
-3.86761
0.362129
-9.2048
0.310743
-9.14502
0.263881
-9.19511
0.225188
-9.24156
0.191859
-9.27899
0.162888
-9.34593
0.134945
-9.37621
0.110782
-9.42202
0.0923022
-9.47444
0.0776367
-9.51355
0.0663155
-9.54806
0.058134
-9.57313
0.0535187
-9.60086
0.051862
-9.62088
0.0533498
-9.63991
0.0565853
-9.6272
0.063077
-9.60047
0.0615673
-9.04704
0.0409918
-7.29127
-3.82662
0.26765
-9.13496
0.218993
-9.09636
0.174711
-9.15083
0.139002
-9.20585
0.110342
-9.25033
0.0873933
-9.32298
0.0679202
-9.35674
0.0513107
-9.40541
0.0386078
-9.46174
0.0290179
-9.50396
0.0227632
-9.5418
0.0196005
-9.56996
0.0196275
-9.60089
0.0225517
-9.6238
0.0284742
-9.64584
0.0356373
-9.63436
0.0471497
-9.61199
0.0526735
-9.05257
0.0385862
-7.27718
-3.78803
0.173778
-9.06328
0.12486
-9.04745
0.0837313
-9.1097
0.0530155
-9.17514
0.0292748
-9.22659
0.00961011
-9.30332
-0.00803094
-9.3391
-0.0213842
-9.39206
-0.0288868
-9.45423
-0.0326306
-9.50022
-0.0328968
-9.54153
-0.0300312
-9.57283
-0.0236004
-9.60732
-0.0141281
-9.63328
-0.00139425
-9.65857
0.0130404
-9.6488
0.0311879
-9.63013
0.0429365
-9.06431
0.035412
-7.26966
-3.75262
0.0844747
-8.99008
0.0375808
-9.00055
-0.00215139
-9.06997
-0.0291637
-9.14813
-0.049014
-9.20674
-0.0633051
-9.28903
-0.0728739
-9.32953
-0.079035
-9.3859
-0.0809964
-9.45227
-0.0798466
-9.50137
-0.0752453
-9.54614
-0.0675418
-9.58053
-0.0566455
-9.61822
-0.042777
-9.64715
-0.0258451
-9.6755
-0.00760271
-9.66704
0.0154551
-9.65319
0.0341099
-9.08297
0.0329973
-7.26855
-3.71962
-0.00678695
-8.91188
-0.0531209
-8.95422
-0.0884664
-9.03462
-0.11227
-9.12432
-0.127447
-9.19157
-0.13889
-9.27759
-0.146415
-9.322
-0.14931
-9.383
-0.146332
-9.45525
-0.139599
-9.5081
-0.129272
-9.55646
-0.115799
-9.594
-0.0987981
-9.63522
-0.0786627
-9.66728
-0.0552109
-9.69895
-0.0298257
-9.69243
-0.000225097
-9.68279
0.0245599
-9.10775
0.029906
-7.27389
-3.68972
-0.088193
-8.83346
-0.135962
-8.90645
-0.169191
-9.0014
-0.19064
-9.10287
-0.20247
-9.17973
-0.208628
-9.27143
-0.208595
-9.32204
-0.204772
-9.38683
-0.196589
-9.46343
-0.185158
-9.51953
-0.17017
-9.57145
-0.152071
-9.6121
-0.130809
-9.65648
-0.10651
-9.69158
-0.079078
-9.72639
-0.0500564
-9.72145
-0.0157179
-9.71713
0.0157965
-9.13927
0.0275173
-7.28561
-3.6622
-0.173245
-8.75062
-0.222007
-8.85769
-0.252425
-8.97098
-0.270097
-9.0852
-0.277934
-9.1719
-0.281576
-9.26779
-0.279404
-9.32421
-0.27228
-9.39395
-0.259395
-9.47632
-0.242656
-9.53627
-0.222236
-9.59187
-0.198657
-9.63568
-0.171605
-9.68353
-0.141372
-9.72181
-0.107749
-9.76001
-0.0718007
-9.7574
-0.0311411
-9.75779
0.00636325
-9.17677
0.0245298
-7.30378
-3.63767
-0.250814
-8.6644
-0.299576
-8.80893
-0.328995
-8.94156
-0.344869
-9.06933
-0.349502
-9.16726
-0.347727
-9.26956
-0.338501
-9.33343
-0.325265
-9.40719
-0.307554
-9.49403
-0.286311
-9.55751
-0.261455
-9.61673
-0.233479
-9.66366
-0.202388
-9.71462
-0.168239
-9.75596
-0.130879
-9.79737
-0.0914876
-9.79679
-0.0461885
-9.80309
-0.00238688
-9.22057
0.022238
-7.3284
-3.61543
-0.331332
-8.56922
-0.380854
-8.7594
-0.407752
-8.91466
-0.420393
-9.05669
-0.421631
-9.16603
-0.417689
-9.2735
-0.406256
-9.34487
-0.389677
-9.42377
-0.36749
-9.51622
-0.341226
-9.58377
-0.311241
-9.64671
-0.278088
-9.69681
-0.241551
-9.75116
-0.20185
-9.79566
-0.158672
-9.84055
-0.112622
-9.84284
-0.0612301
-9.85448
-0.0115464
-9.27026
0.0193946
-7.35934
-3.59604
-0.403276
-8.46925
-0.453508
-8.70917
-0.480021
-8.88815
-0.49155
-9.04516
-0.489368
-9.16821
-0.479803
-9.28307
-0.461947
-9.36272
-0.43994
-9.44577
-0.413312
-9.54285
-0.382759
-9.61433
-0.348569
-9.6809
-0.311266
-9.73412
-0.270917
-9.79151
-0.227555
-9.83902
-0.180903
-9.8872
-0.131646
-9.89209
-0.0758906
-9.91024
-0.0201619
-9.32599
0.0171412
-7.39665
-3.5789
-0.477895
-8.35875
-0.52958
-8.65749
-0.553673
-8.86405
-0.562583
-9.03625
-0.557841
-9.17295
-0.546454
-9.29445
-0.526318
-9.38286
-0.500916
-9.47117
-0.470025
-9.57374
-0.434766
-9.64959
-0.395761
-9.71991
-0.353602
-9.77628
-0.308179
-9.83693
-0.25969
-9.88751
-0.207623
-9.93926
-0.152031
-9.94769
-0.090556
-9.97171
-0.0292137
-9.38733
0.0146015
-7.44046
-3.56429
-0.544994
-8.24072
-0.597979
-8.6045
-0.62165
-8.84038
-0.62958
-9.02832
-0.620955
-9.18158
-0.60399
-9.31142
-0.578249
-9.4086
-0.548123
-9.5013
-0.513183
-9.60868
-0.473891
-9.68888
-0.430926
-9.76287
-0.38488
-9.82232
-0.335886
-9.88592
-0.284008
-9.93939
-0.228764
-9.99451
-0.170216
-10.0062
-0.104775
-10.0372
-0.0377886
-9.45432
0.0125738
-7.49083
-3.55172
-0.616597
-8.10958
-0.670835
-8.55026
-0.690905
-8.82031
-0.696367
-9.02286
-0.686087
-9.19186
-0.667605
-9.3299
-0.639444
-9.43676
-0.605789
-9.53495
-0.566696
-9.64777
-0.522959
-9.73262
-0.475439
-9.81039
-0.424814
-9.87295
-0.37109
-9.93965
-0.314502
-9.99598
-0.254239
-10.0548
-0.189742
-10.0707
-0.118831
-10.1081
-0.0464728
-9.52667
0.0102919
-7.54759
-3.54143
-0.670152
-7.97904
-0.733334
-8.48708
-0.754997
-8.79865
-0.759563
-9.01829
-0.7448
-9.20662
-0.721092
-9.35361
-0.688174
-9.46968
-0.650435
-9.57269
-0.607477
-9.69073
-0.559891
-9.7802
-0.508593
-9.86169
-0.45428
-9.92726
-0.397188
-9.99674
-0.337509
-10.0557
-0.274336
-10.1179
-0.207169
-10.1379
-0.132828
-10.1824
-0.0552064
-9.6043
0.00843274
-7.61123
-3.533
-0.723668
-7.84608
-0.79485
-8.4159
-0.813758
-8.77974
-0.816657
-9.01539
-0.801596
-9.22168
-0.776864
-9.37834
-0.742308
-9.50424
-0.701631
-9.61337
-0.655435
-9.73693
-0.604032
-9.8316
-0.549011
-9.91671
-0.490576
-9.98569
-0.429573
-10.0577
-0.365573
-10.1197
-0.298291
-10.1852
-0.225074
-10.2111
-0.146884
-10.2606
-0.0634652
-9.68771
0.00592364
-7.68062
-3.52707
8.09126
-7.4987
-8.43863
7.47779
-7.80243
6.87957
-8.18153
6.28264
-8.41846
5.73901
-8.67805
5.22348
-8.86281
4.76064
-9.04139
4.3382
-9.19094
3.93734
-9.33607
3.55893
-9.45319
3.19597
-9.55375
2.84451
-9.63424
2.49871
-9.71194
2.15881
-9.77976
1.8083
-9.83471
1.50418
-9.907
1.16675
-9.92316
0.799677
-9.32064
0.337988
-7.21893
-3.18908
4.77036
-7.42027
-4.8488
4.61984
-7.65191
4.39126
-7.95295
4.16015
-8.18735
3.90061
-8.41851
3.6415
-8.6037
3.37502
-8.77491
3.11058
-8.9265
2.83581
-9.06129
2.55628
-9.17366
2.27567
-9.27315
2.00843
-9.367
1.75146
-9.45496
1.50678
-9.53508
1.27845
-9.60639
1.06171
-9.69026
0.815177
-9.67663
0.548149
-9.05361
0.182959
-6.85374
-3.00613
3.43989
-7.50764
-3.35252
3.4853
-7.69731
3.4586
-7.92625
3.38343
-8.11218
3.25309
-8.28817
3.09842
-8.44902
2.92071
-8.59721
2.72967
-8.73546
2.52346
-8.85508
2.31285
-8.96305
2.10082
-9.06112
1.88839
-9.15457
1.66961
-9.23618
1.44746
-9.31293
1.22235
-9.38127
0.98438
-9.4523
0.745405
-9.43765
0.510913
-8.81912
0.226567
-6.56939
-2.77956
2.22597
-7.66743
-2.06618
2.32784
-7.79918
2.3402
-7.93861
2.32187
-8.09386
2.26623
-8.23253
2.18599
-8.36878
2.08011
-8.49133
1.95204
-8.60739
1.80879
-8.71182
1.65769
-8.81195
1.50029
-8.90372
1.33811
-8.99239
1.17456
-9.07262
1.01228
-9.15066
0.848882
-9.21787
0.686166
-9.28958
0.527459
-9.27895
0.373606
-8.66527
0.166505
-6.36229
-2.61305
1.59063
-7.80182
-1.45625
1.67821
-7.88676
1.74158
-8.00198
1.77274
-8.12501
1.76958
-8.22938
1.73371
-8.33291
1.67346
-8.43108
1.59209
-8.52602
1.49655
-8.61627
1.3875
-8.70291
1.2675
-8.78372
1.13716
-8.86205
0.99928
-8.93474
0.853287
-9.00467
0.703458
-9.06804
0.543831
-9.12995
0.386842
-9.12196
0.269646
-8.54807
0.143401
-6.23605
-2.46965
1.06291
-7.91179
-0.952942
1.16203
-7.98588
1.21595
-8.0559
1.22913
-8.13819
1.22084
-8.22109
1.1934
-8.30547
1.14871
-8.38639
1.08909
-8.4664
1.01786
-8.54504
0.934899
-8.61995
0.844568
-8.69339
0.746911
-8.7644
0.644577
-8.83241
0.539916
-8.90001
0.433708
-8.96183
0.329013
-9.02526
0.229186
-9.02213
0.168811
-8.4877
0.107149
-6.17438
-2.3625
0.733221
-7.99342
-0.651597
0.789834
-8.04249
0.828066
-8.09413
0.857361
-8.16749
0.873632
-8.23736
0.867479
-8.29932
0.844415
-8.36332
0.806411
-8.42839
0.755384
-8.49402
0.69191
-8.55648
0.619749
-8.62123
0.538393
-8.68304
0.450401
-8.74441
0.355559
-8.80516
0.259359
-8.86563
0.159487
-8.92539
0.0568357
-8.91948
0.0158362
-8.4467
0.0518705
-6.21042
-2.31063
0.503601
-8.04831
-0.448706
0.551353
-8.09024
0.588329
-8.13111
0.604607
-8.18377
0.597561
-8.23031
0.577148
-8.2789
0.546523
-8.3327
0.505175
-8.38704
0.455562
-8.4444
0.400363
-8.50128
0.338394
-8.55926
0.2712
-8.61585
0.20072
-8.67393
0.126555
-8.731
0.0496425
-8.78872
-0.0294521
-8.84629
-0.0986846
-8.85025
-0.104239
-8.44114
0.012526
-6.32718
-2.29811
0.312113
-8.08346
-0.276965
0.336085
-8.11421
0.352094
-8.14712
0.354698
-8.18637
0.351554
-8.22717
0.343385
-8.27073
0.325935
-8.31525
0.295853
-8.35696
0.255396
-8.40395
0.205107
-8.45099
0.147807
-8.50196
0.0834806
-8.55152
0.013784
-8.60424
-0.0600866
-8.65713
-0.134798
-8.71401
-0.20996
-8.77113
-0.274175
-8.78603
-0.261268
-8.45405
-0.069327
-6.51912
-2.36743
0.204341
-8.10251
-0.185293
0.217467
-8.12734
0.224473
-8.15412
0.222385
-8.18428
0.211159
-8.21594
0.187674
-8.24725
0.153284
-8.28086
0.115346
-8.31902
0.0710297
-8.35963
0.0190381
-8.399
-0.0400032
-8.44292
-0.103766
-8.48776
-0.171615
-8.53639
-0.243036
-8.58571
-0.317824
-8.63922
-0.394205
-8.69475
-0.459089
-8.72115
-0.442102
-8.47104
-0.184181
-6.77704
-2.55162
0.0967506
-8.10824
-0.0910234
0.0966855
-8.12727
0.0912005
-8.14864
0.0777529
-8.17083
0.0566745
-8.19486
0.0289995
-8.21957
-0.00288175
-8.24898
-0.0422744
-8.27963
-0.088604
-8.3133
-0.141327
-8.34627
-0.200106
-8.38414
-0.265592
-8.42227
-0.337493
-8.46449
-0.414816
-8.50838
-0.498965
-8.55507
-0.587385
-8.60633
-0.667414
-8.64112
-0.663754
-8.4747
-0.348711
-7.09209
-2.90033
0.0361681
-8.10674
-0.0376669
0.0284493
-8.11956
0.0165241
-8.13671
-0.000372971
-8.15394
-0.0220626
-8.17318
-0.0500232
-8.19161
-0.0853861
-8.21361
-0.130209
-8.23481
-0.182431
-8.26108
-0.239618
-8.28908
-0.303241
-8.32052
-0.373978
-8.35153
-0.454045
-8.38442
-0.541699
-8.42073
-0.638317
-8.45845
-0.741607
-8.50304
-0.842027
-8.5407
-0.87689
-8.43984
-0.574818
-7.39416
-3.47514
-0.0131507
-8.09606
0.00247453
-0.0276899
-8.10502
-0.0473366
-8.11706
-0.0729519
-8.12832
-0.103149
-8.14298
-0.137926
-8.15684
-0.176982
-8.17456
-0.219733
-8.19206
-0.269051
-8.21176
-0.327179
-8.23096
-0.395471
-8.25222
-0.472884
-8.27412
-0.555795
-8.30151
-0.650246
-8.32628
-0.755426
-8.35328
-0.876663
-8.3818
-1.01021
-8.40715
-1.08009
-8.36996
-0.853635
-7.62061
-4.32878
-0.0447081
-8.08189
0.0305345
-0.0611908
-8.08853
-0.0804717
-8.09778
-0.103294
-8.1055
-0.130339
-8.11593
-0.162174
-8.125
-0.199612
-8.13712
-0.243284
-8.14839
-0.292123
-8.16292
-0.348967
-8.17411
-0.412316
-8.18888
-0.484444
-8.20199
-0.568115
-8.21784
-0.663857
-8.23054
-0.774434
-8.2427
-0.901397
-8.25484
-1.04775
-8.2608
-1.1616
-8.25611
-0.981545
-7.80067
-5.31032
-0.0592721
-8.06559
0.0429717
-0.0785037
-8.0693
-0.101127
-8.07516
-0.126445
-8.08018
-0.154789
-8.08759
-0.186219
-8.09357
-0.221332
-8.10201
-0.261969
-8.10775
-0.307334
-8.11756
-0.357627
-8.12382
-0.411669
-8.13483
-0.474111
-8.13955
-0.542849
-8.1491
-0.621722
-8.15166
-0.70656
-8.15786
-0.806778
-8.15462
-0.916486
-8.15109
-1.03872
-8.13388
-0.908744
-7.93064
-6.21907
-0.0630481
-8.05123
0.0486911
-0.07888
-8.05347
-0.0971735
-8.05687
-0.11782
-8.05953
-0.141297
-8.06411
-0.167753
-8.06711
-0.197037
-8.07272
-0.229465
-8.07532
-0.266696
-8.08033
-0.30771
-8.08281
-0.353844
-8.0887
-0.405535
-8.08786
-0.463784
-8.09085
-0.528593
-8.08686
-0.598771
-8.08768
-0.677145
-8.07625
-0.760245
-8.06799
-0.844236
-8.04989
-0.776788
-7.99808
-6.99586
-0.0582623
-8.03775
0.0447803
-0.0729775
-8.03876
-0.089154
-8.04069
-0.10679
-8.0419
-0.126664
-8.04424
-0.148223
-8.04555
-0.172667
-8.04828
-0.197335
-8.05065
-0.224772
-8.05289
-0.254888
-8.05269
-0.289289
-8.0543
-0.321796
-8.05535
-0.355978
-8.05667
-0.390922
-8.05191
-0.429154
-8.04945
-0.464348
-8.04105
-0.499139
-8.0332
-0.52978
-8.01925
-0.519624
-8.00824
-7.51548
-0.0434905
-8.02858
0.0343197