/*--------------------------------*- C++ -*----------------------------------*\
  =========                 |
  \\      /  F ield         | OpenFOAM: The Open Source CFD Toolbox
   \\    /   O peration     | Website:  https://openfoam.org
    \\  /    A nd           | Version:  9
     \\/     M anipulation  |
\*---------------------------------------------------------------------------*/
FoamFile
{
    format      ascii;
    class       volScalarField;
    location    "5.5";
    object      nut;
}
// * * * * * * * * * * * * * * * * * * * * * * * * * * * * * * * * * * * * * //

dimensions      [0 2 -1 0 0 0 0];

internalField   nonuniform List<scalar> 
46400
(
0.0222596
0.00711826
0.00195479
0.00173004
0.00169171
0.00167859
0.00157319
0.00155106
0.00146593
0.0014253
0.00136954
0.00132319
0.00128053
0.00125597
0.00124665
0.00124433
0.00116579
0.00116145
0.0015149
0.00113676
0.0217419
0.00624195
0.00153076
0.00173912
0.0016502
0.00167524
0.00158733
0.00154661
0.00147236
0.00143258
0.00137836
0.00134406
0.00130339
0.0012437
0.00121389
0.00116899
0.0010699
0.000994498
0.00133012
0.00115026
0.0211804
0.00526357
0.00149554
0.00175699
0.00163652
0.00165353
0.00155151
0.00152755
0.0014655
0.00141833
0.00136694
0.00131954
0.00126434
0.00122529
0.00119846
0.00118598
0.0010802
0.00106083
0.00141831
0.00114095
0.0205649
0.00457701
0.00148137
0.00177841
0.00162539
0.00164538
0.00156874
0.00153284
0.00145279
0.00141365
0.00135779
0.00131561
0.00128477
0.00122793
0.00118724
0.00115557
0.00106244
0.00101881
0.00138556
0.00116132
0.0198069
0.00538808
0.00154463
0.00178716
0.00163682
0.00165516
0.00155859
0.00152167
0.0014697
0.00141635
0.00137902
0.00133452
0.00128905
0.00124552
0.00122072
0.00120011
0.0011138
0.00105985
0.00140999
0.00118803
0.0190999
0.00550899
0.00160544
0.00182918
0.00163442
0.00162974
0.00155604
0.00151878
0.00145956
0.00140137
0.00135379
0.00130433
0.00127599
0.0012337
0.00119112
0.00117526
0.00110677
0.00106792
0.0014023
0.00119641
0.0183737
0.00551828
0.00163831
0.00183685
0.00165183
0.00163594
0.00156762
0.00149666
0.00145509
0.00140199
0.00135765
0.00132311
0.0012884
0.00125097
0.00123281
0.00120144
0.00112683
0.0010784
0.00140014
0.00120503
0.0170947
0.00476198
0.0016254
0.00180254
0.00166957
0.00160289
0.00154286
0.00148628
0.00143611
0.00138372
0.00133567
0.00127661
0.00123938
0.00120727
0.00117927
0.00118042
0.00113415
0.0010791
0.00139743
0.00125544
0.015324
0.00374582
0.00166012
0.00175604
0.00164986
0.00158432
0.00155232
0.00148772
0.00143623
0.00138572
0.00134565
0.00130464
0.00127034
0.00121253
0.00117292
0.00114497
0.00109096
0.00102813
0.00129008
0.00118394
0.0125838
0.00301468
0.00169138
0.00164104
0.00162158
0.00156427
0.00149684
0.0014412
0.00139479
0.00134306
0.00131029
0.00126498
0.0012329
0.00120923
0.00117573
0.00115018
0.00110728
0.00105111
0.00126557
0.00117618
0.010239
0.00255732
0.00168699
0.00167812
0.00159215
0.00152288
0.00150105
0.00144017
0.00140568
0.00133988
0.00129731
0.00125195
0.00121786
0.00117428
0.00114636
0.00112474
0.00107806
0.00102793
0.00119664
0.00110805
0.00844791
0.00216262
0.00170903
0.00160452
0.00155402
0.00150963
0.00147328
0.00141299
0.00138175
0.00133455
0.0012967
0.00125311
0.00122212
0.00118043
0.00114592
0.00110664
0.00106579
0.00101994
0.00116437
0.00110598
0.00692513
0.00191825
0.00165386
0.00162136
0.0016067
0.00151239
0.00149552
0.00142267
0.00137973
0.00132919
0.00128471
0.00121964
0.00118374
0.00114458
0.00110848
0.00108114
0.00103489
0.000997929
0.00111027
0.00105486
0.00589691
0.00175022
0.00163638
0.00157875
0.00155485
0.00147212
0.00147674
0.00142513
0.00139765
0.00133671
0.00132024
0.00127326
0.00122704
0.00119359
0.00116055
0.00112139
0.00106805
0.00101396
0.00108857
0.00104341
0.00522707
0.00176071
0.00165675
0.00156459
0.00158666
0.00143357
0.00137857
0.00132643
0.00131519
0.0012625
0.00124778
0.00122544
0.00119146
0.00114901
0.00112196
0.00110482
0.00107065
0.00103914
0.00109037
0.00104546
0.0048394
0.00178044
0.00168607
0.001523
0.00158625
0.00151868
0.00146265
0.00138203
0.00134625
0.00128647
0.00122642
0.00118981
0.0011624
0.00112992
0.0010919
0.00107268
0.00103913
0.00101483
0.0010587
0.00101311
0.00442326
0.00178916
0.00169692
0.00143973
0.00146226
0.00144843
0.00143221
0.0013645
0.00133047
0.00130101
0.00125142
0.00121563
0.00117358
0.00115943
0.00111729
0.00108744
0.00104835
0.00100383
0.0010508
0.00100277
0.00386369
0.00158311
0.00173302
0.00169626
0.00150437
0.00141814
0.00138139
0.0013495
0.00129309
0.00127625
0.00124175
0.00120673
0.00115668
0.00112069
0.00109345
0.00106993
0.00103759
0.000999103
0.00102078
0.000976584
0.00383471
0.00153426
0.00158367
0.00161998
0.00155314
0.0014619
0.00138819
0.00137407
0.00130164
0.00126156
0.00122402
0.00118671
0.00116225
0.00112419
0.00108886
0.00106303
0.00102788
0.000986874
0.00101556
0.000963701
0.00312109
0.00172596
0.00140803
0.00148266
0.00145922
0.00147331
0.00141409
0.00137466
0.00132472
0.0012897
0.00123777
0.00118541
0.00115495
0.00111574
0.00108429
0.0010478
0.00101439
0.000958287
0.000971089
0.000934324
0.0181043
0.0159588
0.0090984
0.000550953
0.00110522
0.00150186
0.00144604
0.00133692
0.00131948
0.00128149
0.00125316
0.00125479
0.00123564
0.00123692
0.00125824
0.00136381
0.00137962
0.00135464
0.00124143
0.00110293
0.0199133
0.0159441
0.0071972
0.000785593
0.00123387
0.00149456
0.00142511
0.00139572
0.00135908
0.00130175
0.00126867
0.0012344
0.00123095
0.00124323
0.00127395
0.0013763
0.00136787
0.00131717
0.00118803
0.00109016
0.0204783
0.0159029
0.00572639
0.000512833
0.00140041
0.00156217
0.00147278
0.00139322
0.00134133
0.00130975
0.00129928
0.0012718
0.00124552
0.00125866
0.00128049
0.00137238
0.00136941
0.00135147
0.00122457
0.00111463
0.0211877
0.0157471
0.00420399
0.000397305
0.00144267
0.00154278
0.00145338
0.00139884
0.00138972
0.0013234
0.0012701
0.00125936
0.00125477
0.00124858
0.00127915
0.00139191
0.00138966
0.00135149
0.0011748
0.00108286
0.021798
0.0155007
0.00331741
0.000501646
0.00156293
0.00158551
0.00151269
0.00144365
0.00137021
0.0013272
0.0013225
0.00127638
0.00124731
0.00127317
0.00129945
0.00138822
0.00137442
0.00136283
0.00120163
0.00112212
0.0223797
0.015268
0.00227726
0.000687283
0.00154442
0.00156452
0.00148419
0.00140253
0.00140068
0.00134286
0.00128495
0.00128256
0.00126912
0.00124625
0.00126854
0.00137264
0.00138396
0.00137119
0.00114911
0.00107953
0.0229366
0.0150031
0.00176576
0.00086155
0.00163413
0.00158447
0.00152962
0.00146809
0.00140041
0.00133794
0.00131729
0.00127193
0.00124095
0.00126457
0.00128867
0.00138196
0.00138392
0.00138522
0.00116794
0.0010983
0.0233716
0.0146245
0.00123635
0.00102545
0.00160896
0.00157563
0.00151494
0.00141858
0.00139841
0.00135625
0.00130778
0.00129571
0.00127264
0.0012469
0.00125647
0.00133709
0.00136097
0.00137722
0.00113517
0.00107677
0.0238257
0.0143499
0.00102428
0.00115575
0.00166937
0.00158568
0.00153625
0.00147118
0.00142804
0.00135199
0.001306
0.00127775
0.00124079
0.00124376
0.0012578
0.00135096
0.00138758
0.00141372
0.00116946
0.001105
0.0240532
0.0138767
0.00158009
0.00126882
0.00165287
0.00158013
0.00153982
0.00144133
0.00139137
0.00136037
0.00131823
0.00128752
0.00126101
0.00124259
0.00123517
0.00129283
0.00133609
0.00137929
0.00109782
0.00106497
0.0243366
0.013558
0.00134376
0.00136214
0.00170343
0.00158368
0.00154225
0.00147046
0.00144454
0.00137439
0.00131177
0.0013001
0.0012551
0.00123144
0.00122356
0.00129146
0.00136428
0.00143121
0.0011634
0.00109954
0.0244263
0.0130361
0.0022165
0.00142471
0.00171946
0.00158966
0.0015519
0.00146654
0.00139416
0.00135982
0.00131377
0.00126915
0.00124313
0.00123402
0.00120752
0.00123817
0.0012959
0.00136529
0.00106758
0.00106576
0.0245176
0.0127339
0.00209688
0.0014573
0.00173091
0.00160283
0.0015487
0.00147587
0.00144643
0.00140106
0.00133434
0.00132442
0.00127402
0.00123778
0.00120733
0.00122796
0.00131425
0.00141551
0.00112427
0.0010839
0.0244941
0.0124257
0.00279917
0.00150743
0.00173905
0.00161868
0.00156439
0.0014923
0.0014135
0.00136535
0.00131605
0.00127232
0.00123939
0.00122815
0.0011877
0.00118506
0.00124375
0.00133502
0.00104199
0.00107148
0.0243767
0.0120942
0.00255062
0.00154303
0.0017294
0.00162327
0.00156334
0.00149211
0.00144436
0.0014216
0.00135301
0.0013356
0.00129285
0.00126245
0.00121422
0.001186
0.0012499
0.00135342
0.00106208
0.00107341
0.0241991
0.011766
0.00234945
0.00159231
0.00173944
0.00164714
0.00157846
0.00152172
0.0014432
0.00139226
0.00134262
0.00130523
0.00125931
0.00124249
0.00120107
0.00116156
0.00119833
0.00127445
0.000998347
0.00108783
0.0239021
0.0110501
0.00212953
0.0016141
0.00174094
0.0016518
0.00158231
0.00152246
0.00145483
0.0014337
0.00136907
0.00134288
0.00131167
0.0012935
0.0012464
0.0011957
0.00121483
0.00126939
0.000976568
0.00108108
0.0235986
0.0103566
0.00236302
0.00163707
0.00173085
0.00167409
0.00159199
0.00154483
0.00147014
0.00143155
0.00137702
0.00135012
0.00129814
0.00127759
0.0012466
0.00119364
0.00120303
0.00121356
0.00089854
0.00109284
0.0231814
0.00910372
0.00197746
0.00167473
0.0017271
0.00167957
0.00159394
0.00155642
0.0014736
0.00144479
0.00138954
0.00135141
0.00132726
0.00131433
0.00128793
0.00125756
0.00125999
0.00125687
0.000893572
0.00104452
0.0227345
0.00835673
0.00237624
0.00169009
0.00169752
0.00168253
0.0015985
0.00155704
0.00148889
0.00145906
0.00141053
0.00139383
0.00135418
0.00133373
0.00132597
0.00132019
0.00131701
0.00127796
0.00105938
0.00122782
0.00783336
0.00523434
0.0037434
0.00302269
0.00266737
0.00213321
0.00168962
0.00136679
0.00109805
0.000888334
0.000695361
0.000592738
0.000484448
0.000433501
0.000381966
0.000698049
0.00185825
0.00579339
0.0100856
0.0146022
0.00773644
0.00516682
0.00378388
0.00303403
0.00270499
0.00213416
0.00172286
0.001388
0.00111539
0.000907808
0.000708538
0.000603774
0.000481393
0.000435093
0.000383652
0.000692144
0.00185659
0.00582855
0.0101205
0.0146244
0.00787844
0.00508184
0.0037296
0.00294419
0.00265118
0.00206729
0.00169174
0.0013495
0.00108232
0.000876129
0.000674513
0.000576156
0.000463977
0.000427986
0.000378479
0.000692737
0.001842
0.00585907
0.0100797
0.0145216
0.00775293
0.00503511
0.00375233
0.00296558
0.0026863
0.00207864
0.00171657
0.00137528
0.00110336
0.000892163
0.000693091
0.000585106
0.000464454
0.000424401
0.000364189
0.000686349
0.00182745
0.00588349
0.0100733
0.0145438
0.0068835
0.00493371
0.00372782
0.00288393
0.00264314
0.00203161
0.00168524
0.0013388
0.0010694
0.000862629
0.000665149
0.000562516
0.000445536
0.000408838
0.000351638
0.000690593
0.00180041
0.00590523
0.0100888
0.0144898
0.00749928
0.00486486
0.00374115
0.00292323
0.0026581
0.00204858
0.0017082
0.0013698
0.00109194
0.000883007
0.000684914
0.000574747
0.000436196
0.000397328
0.000337651
0.000656565
0.00176884
0.0058454
0.0100979
0.0144725
0.00791443
0.00476841
0.00372545
0.00285764
0.00262257
0.00200881
0.0016683
0.00133793
0.00106235
0.000858228
0.000666756
0.00055833
0.000421148
0.000380333
0.000320185
0.000642606
0.00169165
0.00583423
0.0101303
0.0144524
0.00785798
0.0047401
0.00371459
0.00289774
0.00263925
0.00203428
0.00169186
0.00136778
0.00108825
0.000885654
0.000686193
0.000572758
0.000418736
0.000364648
0.000295735
0.000613108
0.00163045
0.00577939
0.0101394
0.0144321
0.00779838
0.00468255
0.00370253
0.00282874
0.00259021
0.00198969
0.00164884
0.00133823
0.00105801
0.000862863
0.000668405
0.000558595
0.000406258
0.000347159
0.000270252
0.000608112
0.00155648
0.00576409
0.0101727
0.0144303
0.00782418
0.00469319
0.00367049
0.00287947
0.00260619
0.0020231
0.00166562
0.00137138
0.00108356
0.000893758
0.000688663
0.000573631
0.000407285
0.000338389
0.000248743
0.000587784
0.0015015
0.00576712
0.0101866
0.0144268
0.00767063
0.00464758
0.00366098
0.00280686
0.00254897
0.00198852
0.00162448
0.00134708
0.00105536
0.000877639
0.000678263
0.000567359
0.000405397
0.000328792
0.000222956
0.000519987
0.00142167
0.00573494
0.0102102
0.0144238
0.00771042
0.00453933
0.00364152
0.00286077
0.00254886
0.00202408
0.00164022
0.00137995
0.00108141
0.000906758
0.000699183
0.000583607
0.00041007
0.000270059
0.000204827
0.000482483
0.00134186
0.00573758
0.0102513
0.0144124
0.00755266
0.00447486
0.00359996
0.00280001
0.00248708
0.00198804
0.00160533
0.00135856
0.00105673
0.000891725
0.000692929
0.00058048
0.000391573
0.000252436
0.000189796
0.000439967
0.00124561
0.0057034
0.0102715
0.0144002
0.00760417
0.0043563
0.00358841
0.0028504
0.0024798
0.00202277
0.00162536
0.00139209
0.00108476
0.000918294
0.000706954
0.000596198
0.000355878
0.000282944
0.000170763
0.000410729
0.00114638
0.00565891
0.0102933
0.0143848
0.00743117
0.0042314
0.00350866
0.00280066
0.00241438
0.00199248
0.00158921
0.00137466
0.00106473
0.000910372
0.000706821
0.000596854
0.000391348
0.000349876
0.000160822
0.000345765
0.0010346
0.00563013
0.010325
0.0143706
0.00753819
0.00412547
0.00346961
0.00282778
0.0023886
0.00201864
0.00160842
0.00140107
0.00108964
0.000929996
0.000719499
0.000602046
0.000453168
0.000369515
0.000156591
0.000293218
0.00092038
0.00558859
0.010332
0.014373
0.00744963
0.00398126
0.00336815
0.00279242
0.00232672
0.00199068
0.00157584
0.00138411
0.00107482
0.000923027
0.000723118
0.000604669
0.000454742
0.000378758
0.000134258
0.000250908
0.000803475
0.00552048
0.010354
0.0143725
0.00754499
0.00390327
0.00330453
0.00280622
0.00231806
0.00203595
0.00161973
0.00142512
0.00111449
0.000951564
0.000742397
0.000623689
0.000474982
0.000418536
0.000139934
0.000217251
0.000696605
0.00556721
0.0104098
0.0144676
0.00743398
0.00386527
0.00314036
0.00274831
0.00224153
0.00198798
0.00158543
0.00140417
0.00110191
0.0009469
0.000748193
0.00062765
0.000478802
0.000416168
0.000144266
0.000172269
0.000597304
0.00557161
0.0104524
0.0145763
0.00790918
0.00388936
0.00304027
0.00270061
0.00218214
0.00193892
0.00154942
0.00135249
0.00107212
0.000911857
0.000724145
0.000608546
0.00046999
0.000408483
0.000162469
0.000171411
0.00046807
0.0052751
0.0102833
0.0144321
0.0148243
0.0400078
0.0310209
0.0290311
0.0235747
0.0210711
0.0170054
0.0146266
0.0114514
0.00976542
0.00786554
0.00670466
0.00506146
0.00477721
0.00352675
0.00178897
2.48431e-05
0.0508298
0.0972612
0.132945
0.0353523
0.0250844
0.0211477
0.0191302
0.0154581
0.0137469
0.0114968
0.00958583
0.0079177
0.00658001
0.00543924
0.0044567
0.00406584
0.00357293
0.00323067
0.00316575
0.0102135
0.0540995
0.0961233
0.130409
0.0175292
0.0158478
0.0155213
0.0122916
0.0109305
0.00939959
0.00842468
0.00752994
0.00670916
0.00614937
0.00544803
0.0050337
0.00465901
0.00427078
0.00400303
0.00353624
0.00939783
0.0547418
0.0934223
0.129791
0.0122551
0.010071
0.00906716
0.0098432
0.0087503
0.00799871
0.0073521
0.00661657
0.00599266
0.00541168
0.00498517
0.00454323
0.00413495
0.00377231
0.00318162
0.00202616
0.00774631
0.0541721
0.0928694
0.12503
0.00700864
0.00850098
0.00824477
0.00648595
0.00626257
0.00567593
0.00539775
0.00521379
0.00477248
0.00462029
0.0043035
0.00412366
0.00382062
0.00378567
0.00364705
0.00234489
0.00647213
0.053141
0.0935789
0.12334
0.00620001
0.00489468
0.00412862
0.00475419
0.00484146
0.00509217
0.00461815
0.00464163
0.00441242
0.00424799
0.00412853
0.00397735
0.00393764
0.00373608
0.00365365
0.00223749
0.00469273
0.0511479
0.0945801
0.122109
0.00133244
0.00384592
0.00450728
0.00450133
0.00397309
0.00351948
0.00362559
0.00353623
0.00361353
0.00365494
0.00356645
0.00358692
0.00354363
0.00364385
0.00364201
0.0025822
0.00384874
0.042097
0.0961158
0.124087
0.00275282
0.00277536
0.00243574
0.00243834
0.00268316
0.00308965
0.00306859
0.0032513
0.00312075
0.0032929
0.00337946
0.00344824
0.00347746
0.00342923
0.00349114
0.00245678
0.00425277
0.0347552
0.0965465
0.129
0.00148056
0.00193292
0.00223306
0.00251675
0.00257283
0.00251021
0.00236611
0.00257979
0.00279109
0.00294434
0.00284767
0.00305987
0.00300247
0.00339315
0.00316121
0.0029052
0.00187033
0.0271816
0.0962912
0.136924
0.00131082
0.00143702
0.00146782
0.00153072
0.00155138
0.00197284
0.00213563
0.0022397
0.00235119
0.00255603
0.00269906
0.00289738
0.00290377
0.00313665
0.00303471
0.0029242
0.00380754
0.0176188
0.0933037
0.145027
0.000761277
0.000941449
0.00115604
0.0014556
0.00152152
0.00158563
0.00177162
0.00210308
0.00211319
0.00237733
0.00243958
0.00276637
0.00292561
0.00334794
0.00355332
0.00367453
0.00238571
0.0124749
0.0870187
0.158738
0.000595617
0.000770903
0.00083816
0.00101817
0.0011362
0.00136285
0.00137802
0.00162118
0.00183807
0.0021765
0.00232615
0.00268688
0.00286798
0.00349218
0.00379687
0.00476351
0.00361474
0.00719035
0.0659101
0.172906
0.000584678
0.000707419
0.000766245
0.000939487
0.00103311
0.00124181
0.00138551
0.00159799
0.00165592
0.00196504
0.00208876
0.00246362
0.00270392
0.00313504
0.00361412
0.00433173
0.00530533
0.00656863
0.0481346
0.188792
0.000569799
0.000709
0.000773166
0.000907766
0.00097682
0.00120242
0.00127122
0.00156699
0.00163739
0.00183279
0.00197883
0.00227172
0.00242891
0.00273214
0.0032017
0.00358033
0.00468979
0.00796165
0.0200448
0.127733
0.000610063
0.000714397
0.00077669
0.000917488
0.000936106
0.00105248
0.00112706
0.00122727
0.00131328
0.00149339
0.00161301
0.00182918
0.00203708
0.00235195
0.00252515
0.00309763
0.00336357
0.00472747
0.00581698
0.0753463
0.000498312
0.00056117
0.000586733
0.000678812
0.000770678
0.000842438
0.000890085
0.00101481
0.0011093
0.0011931
0.00129468
0.00139035
0.00149556
0.0015453
0.00183904
0.00218212
0.00254268
0.00269284
0.00353233
0.0327859
0.000380928
0.000449069
0.000475606
0.000533995
0.000575801
0.000692204
0.000726574
0.000749308
0.000733097
0.000814466
0.000815154
0.000935573
0.000917402
0.00114548
0.00105712
0.00144006
0.00143996
0.00174275
0.00217743
0.0171
0.000387788
0.000384155
0.000372917
0.000369363
0.000367848
0.000429983
0.000464268
0.000529715
0.000597728
0.000622974
0.00066635
0.000675537
0.000724756
0.000759568
0.000848773
0.000771848
0.000728034
0.00068431
0.000763317
0.00819469
0.000270275
0.000276702
0.000291193
0.000274536
0.000270404
0.00023553
0.00023015
0.000247189
0.000267555
0.00029817
0.00034628
0.000370831
0.000407599
0.00046197
0.000424834
0.000606468
0.000664621
0.000414053
0.000518665
0.00100674
0.000238562
0.000205042
0.000178226
0.000156479
0.000124927
0.000116004
0.000103309
0.00016869
0.000165735
0.00021624
0.000234002
0.000272627
0.000303751
0.000323541
0.000241479
0.00027495
0.000315419
0.000241189
0.000246222
0.0014995
0.0140597
0.0142189
0.0141817
0.01429
0.0142989
0.0143736
0.0141877
0.0144944
0.0141409
0.0136248
0.0139047
0.0133893
0.0125279
0.0116528
0.0119848
0.011318
0.0118526
0.0105548
0.0108664
0.0116148
0.00694422
0.00697625
0.00692243
0.00698007
0.00686375
0.00692649
0.00689581
0.00671511
0.0065607
0.00726113
0.00709987
0.00685848
0.00678612
0.00738673
0.00746933
0.00737202
0.00732973
0.00634586
0.00640866
0.00780735
0.0041448
0.00418007
0.00420322
0.00427107
0.00431704
0.00441092
0.00441833
0.00458933
0.00461805
0.0045737
0.0041323
0.00431161
0.00442627
0.00431558
0.00381151
0.00367281
0.00333206
0.00394896
0.00432801
0.00453407
0.00263517
0.00264292
0.0026376
0.00263926
0.00261573
0.00260231
0.00258025
0.00255075
0.00236104
0.00242247
0.00261065
0.00266357
0.00248297
0.00295616
0.00287066
0.00289344
0.00290051
0.00305449
0.002281
0.00266548
0.00156811
0.00157177
0.00157072
0.00157403
0.00156708
0.001585
0.00158904
0.00165029
0.00176265
0.00181934
0.00175065
0.00179315
0.00182277
0.00197764
0.00171312
0.00170493
0.00137246
0.00116679
0.00121808
0.00146397
0.0011108
0.00111991
0.0011239
0.00113003
0.0011337
0.00116596
0.00117591
0.00118903
0.00112879
0.00114476
0.00106985
0.00111006
0.00104127
0.00110871
0.00115918
0.00133566
0.00121633
0.0011824
0.00105603
0.00123599
0.000646678
0.000652628
0.000652991
0.000664013
0.000673474
0.000702247
0.000698657
0.00067722
0.000642788
0.00069048
0.000737176
0.000897452
0.00092277
0.000888858
0.000694903
0.000709953
0.000732546
0.000846442
0.000725356
0.000634475
0.000457475
0.000459689
0.000464627
0.000471952
0.000497766
0.000503595
0.000463518
0.000448196
0.000452316
0.000470686
0.000476918
0.000492382
0.000397075
0.000440593
0.000519352
0.00060225
0.000514658
0.000570848
0.000618743
0.000690213
0.000241898
0.000243793
0.000247146
0.000253678
0.000270095
0.000250246
0.000232958
0.00025068
0.000272859
0.000276814
0.000282113
0.000276857
0.00034781
0.000403126
0.000346065
0.000339533
0.000361521
0.000340057
0.000252804
0.000282017
0.000140326
0.000142294
0.000142506
0.000148806
0.000140813
0.000129237
0.000130612
0.000136443
0.000141384
0.000146625
0.000143122
0.000139339
0.000146314
0.000168592
0.000197413
0.000222966
0.000218829
0.000248927
0.000271626
0.000301147
4.29227e-05
3.30784e-05
2.5225e-05
2.31337e-05
2.58329e-05
2.09598e-05
4.22646e-05
7.06219e-05
9.2759e-05
9.60116e-05
9.95012e-05
0.000107769
9.06959e-05
0.000105509
0.000118676
0.000122846
0.000128696
0.000132859
0.000143305
0.000167731
9.22997e-05
8.06778e-05
6.46827e-05
5.4453e-05
4.45789e-05
3.88564e-05
4.0096e-05
4.10449e-05
4.8352e-05
5.0754e-05
6.45535e-05
6.63619e-05
6.77641e-05
5.42049e-05
5.42469e-05
5.41268e-05
6.56952e-05
6.02711e-05
8.18678e-05
0.000123447
8.84762e-05
8.71369e-05
8.48439e-05
8.68142e-05
8.53256e-05
8.62782e-05
9.35021e-05
8.92496e-05
9.00447e-05
8.40958e-05
9.11697e-05
9.06205e-05
0.00010177
0.000103134
0.000111423
0.000103774
0.000117358
0.000111065
0.000125249
0.000134364
7.3005e-05
7.30682e-05
7.66031e-05
7.6651e-05
8.19336e-05
8.69876e-05
9.1588e-05
9.41869e-05
9.72758e-05
9.78168e-05
0.000101116
9.99355e-05
0.000104084
0.000102865
0.000109759
0.000107641
0.000116628
0.000113281
0.000124963
0.000131313
4.74059e-05
4.75593e-05
5.52585e-05
5.99405e-05
6.9675e-05
7.56948e-05
8.17995e-05
8.7128e-05
9.22895e-05
9.81028e-05
0.000104175
0.000102034
0.000107556
0.000104532
9.77092e-05
0.000104748
0.000107859
0.000122947
0.000134513
0.000141046
7.35464e-05
7.2071e-05
7.58614e-05
8.61707e-05
8.60023e-05
8.41777e-05
8.26459e-05
8.07177e-05
8.07244e-05
7.87144e-05
7.13639e-05
7.98295e-05
8.28057e-05
8.68276e-05
9.22307e-05
9.37018e-05
9.87304e-05
9.83077e-05
0.000105211
0.000112483
8.06921e-05
7.96746e-05
7.91134e-05
7.92666e-05
7.98812e-05
8.28767e-05
8.9002e-05
9.01587e-05
8.77917e-05
8.77013e-05
8.94014e-05
8.97721e-05
8.91308e-05
8.87757e-05
9.04933e-05
9.02801e-05
9.08321e-05
8.93458e-05
9.33891e-05
9.53798e-05
7.77311e-05
7.74702e-05
7.73814e-05
7.7439e-05
7.75739e-05
7.61314e-05
7.38263e-05
7.55875e-05
7.8051e-05
7.93402e-05
7.98553e-05
8.05543e-05
8.13764e-05
8.23204e-05
8.40379e-05
8.61714e-05
8.79127e-05
8.76051e-05
8.80874e-05
9.34534e-05
9.28457e-05
9.1702e-05
9.03491e-05
8.86601e-05
8.70184e-05
8.59653e-05
8.49142e-05
8.25556e-05
8.02755e-05
7.84695e-05
7.73298e-05
7.75812e-05
7.89225e-05
7.49353e-05
6.75039e-05
6.45454e-05
6.48686e-05
6.69647e-05
6.66989e-05
6.49639e-05
7.56093e-05
7.44672e-05
7.3547e-05
7.26461e-05
7.21062e-05
7.11764e-05
7.03509e-05
7.05141e-05
7.10644e-05
7.15219e-05
7.13404e-05
6.98306e-05
6.79007e-05
6.99544e-05
6.92132e-05
6.75685e-05
6.60526e-05
6.51899e-05
6.39366e-05
6.31653e-05
0.000964372
0.00111481
0.000850605
0.000877725
0.00094916
0.000959451
0.000985961
0.00103771
0.00109257
0.00111738
0.00115378
0.00117562
0.00123786
0.00131742
0.00137778
0.0013856
0.00143215
0.00180946
0.0062824
0.0182596
0.000882405
0.00102428
0.000827031
0.000924547
0.000985876
0.0010279
0.00108105
0.00110756
0.00113404
0.00115699
0.00122087
0.00124601
0.00129568
0.00132546
0.00138334
0.00137
0.00148057
0.00131596
0.00505489
0.017838
0.00100337
0.00113727
0.000848646
0.000908323
0.000954892
0.000977155
0.000996875
0.00104384
0.00109522
0.00113116
0.00117113
0.00119435
0.00125966
0.0013325
0.00138483
0.00138146
0.00150238
0.0012762
0.00447849
0.017388
0.001015
0.00113954
0.000890901
0.00096265
0.00100673
0.00103856
0.00108922
0.00113216
0.00115125
0.00117951
0.00123603
0.00126716
0.00132554
0.00135167
0.00139466
0.00140065
0.00153482
0.00133846
0.00390073
0.0168668
0.00103634
0.00115608
0.000880738
0.000932001
0.000972691
0.00101071
0.00104876
0.00107536
0.00111199
0.00115769
0.00119135
0.00121749
0.00128146
0.00134198
0.00139358
0.00140459
0.00151248
0.00137133
0.00483651
0.0161749
0.00102307
0.00111291
0.000884115
0.000963663
0.00102973
0.00108263
0.00109536
0.00112744
0.00116185
0.00120154
0.0012442
0.00128981
0.00134789
0.00137547
0.00142375
0.00145869
0.00161051
0.00150805
0.00455649
0.0154868
0.00104405
0.00111497
0.000905749
0.000982785
0.00102247
0.00102587
0.00104487
0.00109892
0.00114916
0.0011847
0.00121198
0.00124727
0.00129864
0.00136149
0.00142589
0.0014648
0.00158014
0.00146605
0.00444383
0.0146708
0.0010012
0.00108068
0.000918687
0.00098561
0.00101925
0.00105773
0.00112322
0.00117921
0.00118271
0.00119544
0.00123879
0.00130301
0.00135555
0.00140646
0.00145641
0.00151189
0.00164103
0.00154442
0.00364292
0.0135133
0.00108877
0.00112985
0.000969523
0.00102123
0.00104773
0.00108405
0.00108931
0.00109308
0.00109489
0.00115189
0.00121005
0.00124689
0.00127531
0.00134886
0.00138579
0.0014496
0.00150726
0.0015239
0.0027782
0.0114256
0.000962964
0.000988725
0.00087904
0.000930913
0.000971814
0.000992543
0.00100597
0.0010508
0.00110208
0.00119118
0.00122403
0.00126008
0.00132207
0.0014009
0.00143558
0.00150975
0.00156381
0.0016376
0.00236572
0.00922443
0.00102255
0.00105133
0.000956961
0.00100637
0.0010301
0.00104876
0.00107664
0.0011192
0.00114609
0.00118144
0.00117823
0.00125117
0.00131607
0.00138718
0.00138919
0.0014468
0.00147866
0.00154189
0.00192082
0.00704094
0.000946988
0.000951912
0.000888375
0.000912145
0.00094315
0.00097197
0.00101303
0.00106332
0.00111616
0.00117755
0.00124146
0.0013389
0.00135063
0.00137516
0.00136324
0.00147584
0.00152225
0.00162125
0.00178259
0.00581032
0.000941947
0.000985396
0.000937159
0.000990512
0.00104338
0.00108477
0.00113367
0.00117776
0.00121842
0.00124612
0.00126951
0.00128058
0.00126803
0.00130597
0.00136601
0.00147382
0.00143459
0.0015639
0.00161718
0.00456146
0.000972898
0.00101476
0.000962879
0.00101345
0.00103725
0.00106208
0.00108339
0.00111372
0.00112495
0.0011546
0.00117976
0.00124167
0.00129038
0.00140908
0.0014681
0.00149088
0.00151206
0.00159655
0.0015514
0.00408751
0.000964976
0.00100101
0.000964023
0.00100928
0.00103487
0.00106805
0.00110402
0.00113532
0.00117749
0.00123341
0.00128627
0.00133888
0.0013567
0.00140265
0.00132552
0.00132369
0.0013613
0.00147669
0.00153104
0.00398482
0.00094799
0.000975208
0.000947982
0.000994824
0.00102759
0.00105771
0.00108628
0.00111478
0.00115441
0.00116384
0.00119342
0.00120048
0.00121855
0.00124474
0.00124854
0.00145152
0.00160325
0.00165877
0.00178953
0.00447672
0.000927442
0.000983462
0.000955674
0.00100588
0.00103867
0.00106432
0.00109202
0.00112187
0.00115034
0.00117648
0.00122697
0.00125364
0.00132047
0.00141028
0.00150314
0.00165451
0.00163149
0.0015378
0.00161167
0.00343336
0.000922651
0.000968377
0.000950535
0.00100167
0.00103694
0.00106684
0.00110654
0.00115257
0.00119942
0.00126685
0.00131672
0.00138862
0.00146378
0.00148415
0.00158406
0.00156186
0.00149221
0.00144424
0.00158969
0.00222365
0.000944223
0.000990237
0.000965623
0.00101571
0.00104394
0.00107901
0.00111153
0.00115563
0.00118662
0.00122412
0.00123508
0.00128628
0.00130035
0.00133909
0.00137863
0.00142766
0.00147611
0.00182123
0.00181379
0.00153195
0.000922932
0.000984872
0.000959526
0.00102313
0.00104824
0.00109512
0.00111879
0.00116952
0.00119107
0.00122896
0.0012702
0.00131657
0.00135408
0.00141833
0.00144389
0.00141817
0.00152895
0.00161709
0.00171556
0.00183608
0.000398872
0.000223166
0.000273276
0.000374284
0.000389514
0.000328489
0.000343441
0.000420037
0.000399833
0.000388606
0.000381394
0.000229308
4.70852e-05
0.00140353
0.00454951
0.00913094
0.0117502
0.00835685
0.00311966
9.67204e-05
0.000438804
0.000299523
0.000262669
0.000298372
0.000401966
0.000383709
0.000346241
0.000334688
0.000396028
0.000439144
0.000414676
0.000315451
9.82763e-05
0.000249797
0.00227486
0.00659124
0.0113309
0.0105599
0.00539177
0.000630332
0.000467734
0.000310573
0.000296623
0.000313388
0.000371165
0.000368819
0.000380613
0.000394927
0.000367634
0.000352939
0.000457132
0.000419638
0.0002696
7.15001e-05
0.000853385
0.0043497
0.00946269
0.0119446
0.00850604
0.00183964
0.000528808
0.000389208
0.00028518
0.000276136
0.000402212
0.000408236
0.000360256
0.000379991
0.0004431
0.000417396
0.000393061
0.000431389
0.000364781
0.00021192
0.000111022
0.0021443
0.00737303
0.0120878
0.00991359
0.00218372
0.000558377
0.000451477
0.000367768
0.000305284
0.00036794
0.000416595
0.000431351
0.000402058
0.000410556
0.000429283
0.000487201
0.000469813
0.000417595
0.000342671
1.67999e-05
0.000692241
0.00550802
0.0112845
0.0112498
0.00379263
0.000613685
0.000503245
0.000365922
0.000299614
0.000417167
0.000436007
0.000407794
0.000447008
0.000497038
0.000459048
0.000466503
0.000497437
0.000522947
0.00048701
0.000307008
0.000186201
0.00282676
0.00998817
0.0122096
0.00645533
0.000608983
0.00056686
0.000481077
0.000338947
0.000402816
0.000472648
0.000492335
0.000451165
0.000501173
0.000544586
0.000573971
0.000563626
0.000521997
0.00056628
0.000502957
0.000165421
0.0012648
0.00875809
0.0125917
0.00855561
0.000639696
0.000575882
0.00048669
0.000362314
0.000468012
0.000495268
0.000484205
0.000531046
0.000571876
0.000545312
0.000586272
0.000643378
0.00063606
0.000686258
0.000653535
0.00034508
0.000483256
0.00747271
0.01273
0.0109856
0.000642014
0.000628656
0.000589826
0.00041455
0.000464367
0.000539865
0.000564196
0.000531959
0.000604403
0.000659817
0.000671474
0.000672838
0.000656615
0.000717514
0.000755722
0.000589272
0.000291294
0.00507602
0.0124895
0.0137295
0.000680308
0.000615684
0.00058817
0.000448073
0.000539752
0.000582886
0.000574656
0.000620877
0.000662851
0.000650865
0.000708764
0.000776419
0.000769722
0.000800652
0.000864128
0.00077819
0.000217962
0.00346373
0.0123738
0.0155561
0.000700316
0.000647134
0.000671681
0.000513483
0.000539516
0.000616072
0.000648837
0.000636972
0.000711756
0.000766221
0.000773628
0.00078425
0.000783875
0.00085044
0.000913382
0.000895649
0.000313527
0.00210784
0.0119056
0.0165554
0.00070268
0.000598321
0.000642008
0.000530362
0.000607644
0.000677149
0.000664718
0.000706113
0.000760099
0.00076025
0.000822217
0.000892627
0.000882687
0.000936366
0.000982439
0.00100237
0.000529908
0.00153398
0.0114966