/*--------------------------------*- C++ -*----------------------------------*\
  =========                 |
  \\      /  F ield         | OpenFOAM: The Open Source CFD Toolbox
   \\    /   O peration     | Website:  https://openfoam.org
    \\  /    A nd           | Version:  9
     \\/     M anipulation  |
\*---------------------------------------------------------------------------*/
FoamFile
{
    format      ascii;
    class       surfaceScalarField;
    location    "5.5";
    object      phi;
}
// * * * * * * * * * * * * * * * * * * * * * * * * * * * * * * * * * * * * * //

dimensions      [0 3 -1 0 0 0 0];

internalField   nonuniform List<scalar> 
92080
(
-0.00623502
-0.541726
0.547961
-0.0355128
-1.06701
1.09629
-0.0831271
-1.16104
1.20866
-0.131534
-1.14146
1.18987
-0.178503
-1.12298
1.16995
-0.224086
-1.10374
1.14933
-0.26859
-1.08525
1.12976
-0.312918
-1.06721
1.11154
-0.356848
-1.0515
1.09543
-0.400229
-1.03704
1.08043
-0.44312
-1.02355
1.06644
-0.485274
-1.01114
1.05329
-0.526871
-0.99899
1.04059
-0.567631
-0.9879
1.02866
-0.607128
-0.976118
1.01562
-0.645821
-0.963648
1.00234
-0.683502
-0.952888
0.990569
-0.720744
-0.940523
0.977764
-0.757994
-0.928402
0.965652
-0.921424
0.954017
-0.790587
-0.00772774
-0.533999
-0.0393424
-1.0354
-0.0876812
-1.1127
-0.136418
-1.09272
-0.184362
-1.07504
-0.231645
-1.05646
-0.277923
-1.03898
-0.323265
-1.02187
-0.3685
-1.00626
-0.413341
-0.992203
-0.457728
-0.97916
-0.501659
-0.967206
-0.545066
-0.955583
-0.587439
-0.945527
-0.628346
-0.935211
-0.668399
-0.923595
-0.707445
-0.913841
-0.743429
-0.904539
-0.776464
-0.895367
-0.887482
-0.810407
-0.009599
-0.5244
-0.0440127
-1.00098
-0.0941544
-1.06256
-0.144183
-1.04269
-0.192979
-1.02624
-0.240843
-1.0086
-0.288064
-0.991755
-0.334414
-0.975516
-0.380596
-0.960082
-0.426447
-0.946352
-0.471824
-0.933783
-0.516732
-0.922297
-0.560856
-0.911459
-0.604737
-0.901646
-0.646778
-0.89317
-0.687798
-0.882575
-0.728981
-0.872658
-0.770664
-0.862856
-0.811353
-0.854678
-0.848383
-0.850452
-0.0103962
-0.514004
-0.0500802
-0.9613
-0.100162
-1.01248
-0.151258
-0.991597
-0.201687
-0.975813
-0.250842
-0.959442
-0.299284
-0.943313
-0.347066
-0.927734
-0.393649
-0.913499
-0.440425
-0.899576
-0.486634
-0.887574
-0.532493
-0.876437
-0.578098
-0.865855
-0.623721
-0.856022
-0.668501
-0.84839
-0.711346
-0.839731
-0.752303
-0.831701
-0.792188
-0.822971
-0.832604
-0.814262
-0.807245
-0.873741
-0.0075431
-0.50646
-0.0501155
-0.918728
-0.101993
-0.960604
-0.153576
-0.940014
-0.205199
-0.924189
-0.256227
-0.908414
-0.306049
-0.893491
-0.355254
-0.878529
-0.403727
-0.865026
-0.451414
-0.851889
-0.499333
-0.839655
-0.54687
-0.8289
-0.593584
-0.819141
-0.640313
-0.809293
-0.68716
-0.801543
-0.733752
-0.79314
-0.780058
-0.785394
-0.824484
-0.778544
-0.867182
-0.771564
-0.764478
-0.909949
-0.00425359
-0.502207
-0.0499406
-0.873041
-0.104337
-0.906208
-0.158922
-0.885428
-0.212062
-0.871049
-0.263985
-0.856492
-0.314935
-0.84254
-0.365311
-0.828153
-0.415072
-0.815265
-0.463681
-0.80328
-0.511658
-0.791678
-0.559644
-0.780913
-0.6072
-0.771585
-0.654449
-0.762045
-0.700992
-0.755
-0.746548
-0.747584
-0.792239
-0.739703
-0.838433
-0.732351
-0.883633
-0.726364
-0.719929
-0.928183
-0.00104689
-0.50116
-0.0489842
-0.825103
-0.106365
-0.848826
-0.162225
-0.829568
-0.217503
-0.815772
-0.271538
-0.802456
-0.32418
-0.789899
-0.375224
-0.777109
-0.425829
-0.76466
-0.475893
-0.753216
-0.524848
-0.742724
-0.573728
-0.732033
-0.622367
-0.722946
-0.671252
-0.71316
-0.720982
-0.70527
-0.769666
-0.6989
-0.816927
-0.692441
-0.863889
-0.68539
-0.910665
-0.679587
-0.673828
-0.956767
-0.000326217
-0.500834
-0.0510072
-0.774422
-0.110098
-0.789735
-0.167029
-0.772637
-0.223588
-0.759213
-0.2783
-0.747744
-0.331925
-0.736274
-0.384148
-0.724886
-0.435291
-0.713517
-0.485922
-0.702586
-0.535638
-0.693007
-0.584296
-0.683376
-0.632
-0.675242
-0.678837
-0.666323
-0.726301
-0.657806
-0.77485
-0.650351
-0.823325
-0.643967
-0.871374
-0.63734
-0.919647
-0.631314
-0.625572
-0.967903
-0.00207172
-0.498762
-0.0557423
-0.720752
-0.116873
-0.728604
-0.174343
-0.715167
-0.231029
-0.702528
-0.286918
-0.691854
-0.341585
-0.681607
-0.395402
-0.671069
-0.447569
-0.66135
-0.499312
-0.650842
-0.550348
-0.641971
-0.601114
-0.63261
-0.65159
-0.624766
-0.700622
-0.61729
-0.748498
-0.609931
-0.795981
-0.602868
-0.843124
-0.596824
-0.889828
-0.590636
-0.93619
-0.584952
-0.57927
-0.982492
-0.00990594
-0.488856
-0.0649774
-0.66568
-0.125345
-0.668237
-0.182181
-0.658332
-0.238438
-0.646271
-0.294547
-0.635746
-0.34888
-0.627274
-0.402162
-0.617786
-0.454244
-0.609268
-0.505263
-0.599824
-0.555762
-0.591472
-0.605403
-0.58297
-0.654892
-0.575276
-0.704404
-0.567778
-0.753611
-0.560724
-0.802522
-0.553956
-0.851355
-0.547991
-0.899594
-0.542397
-0.947365
-0.53718
-0.531834
-0.994802
-0.0182659
-0.47059
-0.0741423
-0.609804
-0.13418
-0.608199
-0.19321
-0.599302
-0.249129
-0.590352
-0.304896
-0.579979
-0.360245
-0.571925
-0.414717
-0.563314
-0.468303
-0.555682
-0.520595
-0.547531
-0.57211
-0.539956
-0.622928
-0.532153
-0.673094
-0.52511
-0.722357
-0.518515
-0.771096
-0.511985
-0.819535
-0.505517
-0.867882
-0.499644
-0.915895
-0.494384
-0.963405
-0.489669
-0.485238
-1.01
-0.0253753
-0.445215
-0.0818292
-0.55335
-0.142291
-0.547737
-0.200509
-0.541084
-0.256506
-0.534355
-0.312106
-0.524378
-0.367146
-0.516886
-0.421392
-0.509068
-0.475094
-0.501979
-0.527989
-0.494637
-0.579902
-0.488043
-0.631073
-0.480982
-0.682111
-0.474072
-0.732506
-0.468121
-0.782185
-0.462305
-0.830919
-0.456784
-0.879345
-0.451217
-0.927517
-0.446213
-0.975446
-0.44174
-0.437498
-1.02319
-0.0325565
-0.412658
-0.0893558
-0.496551
-0.147902
-0.489191
-0.207361
-0.481624
-0.265501
-0.476215
-0.322098
-0.467781
-0.378646
-0.460338
-0.433915
-0.4538
-0.48814
-0.447755
-0.541735
-0.441042
-0.594549
-0.435229
-0.645554
-0.429976
-0.695912
-0.423715
-0.745678
-0.418355
-0.794926
-0.413057
-0.843486
-0.408223
-0.891567
-0.403136
-0.939379
-0.398402
-0.98726
-0.393859
-0.390184
-1.03457
-0.0379874
-0.374671
-0.093929
-0.440609
-0.151493
-0.431627
-0.209938
-0.423179
-0.26747
-0.418683
-0.323229
-0.412022
-0.379503
-0.404063
-0.435555
-0.397748
-0.490931
-0.392378
-0.544928
-0.387045
-0.599123
-0.381034
-0.652493
-0.376605
-0.704732
-0.371476
-0.756632
-0.366455
-0.807984
-0.361704
-0.85851
-0.357697
-0.908047
-0.3536
-0.956561
-0.349888
-1.00463
-0.345788
-0.342197
-1.05262
-0.0430802
-0.331591
-0.102764
-0.380926
-0.16181
-0.372581
-0.22047
-0.364519
-0.279729
-0.359424
-0.335168
-0.356583
-0.388706
-0.350526
-0.441938
-0.344516
-0.495509
-0.338807
-0.548061
-0.334493
-0.60063
-0.328465
-0.653282
-0.323953
-0.705144
-0.319614
-0.756075
-0.315524
-0.806835
-0.310944
-0.857507
-0.307025
-0.907936
-0.303171
-0.958068
-0.299755
-1.0073
-0.296553
-0.293052
-1.05645
-0.0467225
-0.284868
-0.109468
-0.31818
-0.169573
-0.312475
-0.226868
-0.307225
-0.286647
-0.299645
-0.345955
-0.297275
-0.40308
-0.293401
-0.458441
-0.289155
-0.51311
-0.284138
-0.566641
-0.280961
-0.61853
-0.276576
-0.670111
-0.272372
-0.721578
-0.268147
-0.772444
-0.264658
-0.822408
-0.260981
-0.872216
-0.257218
-0.921662
-0.253725
-0.971225
-0.250193
-1.02057
-0.247206
-0.244304
-1.06932
-0.047089
-0.237779
-0.11231
-0.252959
-0.173567
-0.251218
-0.228341
-0.252451
-0.283438
-0.244548
-0.340116
-0.240597
-0.396849
-0.236668
-0.452115
-0.233889
-0.506978
-0.229275
-0.561708
-0.226232
-0.615211
-0.223073
-0.668037
-0.219546
-0.719883
-0.216301
-0.772129
-0.212412
-0.823493
-0.209617
-0.874286
-0.206424
-0.924432
-0.203578
-0.973915
-0.20071
-1.0233
-0.19782
-0.195027
-1.07258
-0.0546506
-0.183129
-0.112248
-0.195362
-0.176279
-0.187187
-0.240196
-0.188534
-0.298
-0.186744
-0.35367
-0.184926
-0.409102
-0.181236
-0.463982
-0.179009
-0.517691
-0.175567
-0.571488
-0.172435
-0.624975
-0.169586
-0.677882
-0.16664
-0.729771
-0.164412
-0.780785
-0.161398
-0.831627
-0.158775
-0.882006
-0.156045
-0.932043
-0.153541
-0.981715
-0.151038
-1.03072
-0.148811
-0.14632
-1.07943
-0.0565843
-0.126544
-0.112675
-0.139271
-0.170455
-0.129408
-0.231816
-0.127173
-0.291879
-0.126681
-0.349338
-0.127467
-0.405086
-0.125488
-0.461151
-0.122945
-0.515565
-0.121152
-0.569243
-0.118757
-0.622333
-0.116495
-0.674804
-0.114169
-0.727013
-0.112203
-0.778591
-0.10982
-0.829415
-0.107951
-0.8799
-0.10556
-0.929683
-0.103758
-0.979296
-0.101425
-1.02836
-0.0997494
-0.0974737
-1.0772
-0.0653294
-0.0612151
-0.127935
-0.0766658
-0.180984
-0.0763586
-0.23742
-0.0707371
-0.294094
-0.0700066
-0.352299
-0.0692616
-0.409113
-0.0686742
-0.465459
-0.0665985
-0.520761
-0.0658505
-0.575652
-0.0638665
-0.629366
-0.0627807
-0.682034
-0.0615008
-0.734172
-0.0600657
-0.785654
-0.0583379
-0.836581
-0.057024
-0.886744
-0.0553965
-0.936308
-0.0541942
-0.985006
-0.0527272
-1.03328
-0.0514738
-1.0807
-0.0500549
0.0361032
-0.348557
0.312453
0.0884179
-0.992084
0.939769
0.124509
-1.51332
1.47723
0.131249
-1.66496
1.65823
0.129877
-1.66043
1.6618
0.125518
-1.63631
1.64067
0.121601
-1.61222
1.61613
0.11785
-1.591
1.59475
0.113978
-1.5707
1.57457
0.109503
-1.55097
1.55544
0.105635
-1.53293
1.5368
0.101832
-1.51486
1.51866
0.09772
-1.49732
1.50143
0.0933413
-1.47936
1.48374
0.0888337
-1.46153
1.46603
0.0837946
-1.441
1.44604
0.0782021
-1.4185
1.42409
0.0723291
-1.39578
1.40165
0.0664536
-1.37724
1.38311
-1.35883
0.0611686
1.36411
0.0283366
-0.376893
0.0738786
-1.03763
0.103248
-1.54269
0.105808
-1.66752
0.102472
-1.65709
0.0976877
-1.63153
0.093428
-1.60796
0.0885833
-1.58615
0.0832742
-1.56539
0.0783787
-1.54607
0.0726613
-1.52721
0.0666416
-1.50884
0.060802
-1.49148
0.0548744
-1.47344
0.0486659
-1.45532
0.042389
-1.43472
0.0360834
-1.41219
0.0301239
-1.38982
0.024342
-1.37145
-1.35296
0.01847
0.0257559
-0.402649
0.0667816
-1.07865
0.0888563
-1.56477
0.0876126
-1.66628
0.0804986
-1.64998
0.0730769
-1.6241
0.0651557
-1.60003
0.0574599
-1.57846
0.050134
-1.55806
0.0422374
-1.53817
0.0349984
-1.51997
0.0278196
-1.50166
0.0202924
-1.48395
0.0128286
-1.46597
0.00542063
-1.44791
-0.00196177
-1.42734
-0.00970986
-1.40444
-0.0178298
-1.3817
-0.026239
-1.36305
-1.34462
-0.0345784
0.0227452
-0.425394
0.057325
-1.11323
0.0728497
-1.58029
0.0682757
-1.66171
0.0599268
-1.64163
0.0514357
-1.61561
0.0430459
-1.59164
0.0341889
-1.5696
0.0246651
-1.54854
0.0154131
-1.52892
0.00566893
-1.51023
-0.00405824
-1.49194
-0.0134239
-1.47458
-0.0228475
-1.45655
-0.0323261
-1.43843
-0.0419008
-1.41777
-0.0515175
-1.39483
-0.061003
-1.37221
-0.0703304
-1.35372
-1.33552
-0.0794254
0.0229089
-0.448303
0.0529532
-1.14328
0.0603657
-1.58771
0.0509033
-1.65224
0.0385696
-1.6293
0.0265741
-1.60362
0.0143789
-1.57945
0.00246373
-1.55769
-0.00890156
-1.53718
-0.0203285
-1.5175
-0.0313719
-1.49918
-0.0425511
-1.48076
-0.053918
-1.46322
-0.0651061
-1.44536
-0.0761739
-1.42736
-0.0868819
-1.40706
-0.0975584
-1.38415
-0.108248
-1.36152
-0.119247
-1.34272
-1.32473
-0.130042
0.0197991
-0.468102
0.0464351
-1.16991
0.0496432
-1.59091
0.0376848
-1.64029
0.0238697
-1.61548
0.01025
-1.59
-0.00320615
-1.56599
-0.0168039
-1.54409
-0.0307521
-1.52323
-0.0448294
-1.50342
-0.0587919
-1.48522
-0.0722895
-1.46726
-0.0854878
-1.45002
-0.0984534
-1.4324
-0.111058
-1.41476
-0.123391
-1.39473
-0.135739
-1.3718
-0.148308
-1.34895
-0.160977
-1.33005
-1.31233
-0.173373
0.0176213
-0.485723
0.0381597
-1.19045
0.0343444
-1.5871
0.0183909
-1.62433
0.00139182
-1.59848
-0.0151636
-1.57344
-0.0315238
-1.54963
-0.0476559
-1.52796
-0.0634489
-1.50743
-0.0787189
-1.48815
-0.0940258
-1.46991
-0.109565
-1.45172
-0.124873
-1.43471
-0.140063
-1.41721
-0.155095
-1.39973
-0.169656
-1.38016
-0.183757
-1.3577
-0.197604
-1.3351
-0.211682
-1.31597
-1.29813
-0.225889
0.0162261
-0.50195
0.0340751
-1.2083
0.0269956
-1.58002
0.00875618
-1.60609
-0.0102827
-1.57944
-0.0291364
-1.55459
-0.0479323
-1.53084
-0.0664756
-1.50941
-0.084815
-1.4891
-0.103583
-1.46938
-0.12165
-1.45185
-0.139161
-1.43421
-0.156651
-1.41722
-0.173593
-1.40027
-0.189931
-1.38339
-0.205529
-1.36457
-0.220855
-1.34238
-0.236309
-1.31965
-0.252076
-1.30021
-1.28204
-0.268163
0.0132622
-0.515212
0.0252784
-1.22032
0.0120612
-1.5668
-0.00946431
-1.58457
-0.0310695
-1.55784
-0.0523258
-1.53333
-0.073053
-1.51011
-0.0936753
-1.48879
-0.114183
-1.46859
-0.133938
-1.44963
-0.154005
-1.43178
-0.173929
-1.41428
-0.193276
-1.39787
-0.212519
-1.38102
-0.231414
-1.36449
-0.249763
-1.34622
-0.267555
-1.32458
-0.285271
-1.30193
-0.303241
-1.28224
-1.26431
-0.32097
0.0125362
-0.527748
0.0212275
-1.22901
0.0051412
-1.55072
-0.0191263
-1.5603
-0.0435167
-1.53345
-0.0675503
-1.5093
-0.0915253
-1.48614
-0.114875
-1.46544
-0.137576
-1.44589
-0.160489
-1.42671
-0.182522
-1.40975
-0.204303
-1.3925
-0.226133
-1.37604
-0.247407
-1.35975
-0.268034
-1.34387
-0.287473
-1.32678
-0.306025
-1.30603
-0.324376
-1.28358
-0.343359
-1.26325
-1.24532
-0.362344
0.00958042
-0.537328
0.013217
-1.23264
-0.00776019
-1.52974
-0.0340691
-1.53399
-0.0604083
-1.50711
-0.0864601
-1.48325
-0.111933
-1.46066
-0.13743
-1.43994
-0.162778
-1.42054
-0.187678
-1.40181
-0.212697
-1.38473
-0.237027
-1.36817
-0.260764
-1.35231
-0.284247
-1.33626
-0.307334
-1.32078
-0.329588
-1.30452
-0.350891
-1.28473
-0.371741
-1.26273
-0.39276
-1.24223
-1.22417
-0.413913
0.0086952
-0.546024
0.00864409
-1.23259
-0.0160262
-1.50507
-0.0456973
-1.50432
-0.0750513
-1.47776
-0.104079
-1.45422
-0.132773
-1.43197
-0.160719
-1.412
-0.187874
-1.39338
-0.2145
-1.37519
-0.240753
-1.35847
-0.266951
-1.34198
-0.292801
-1.32646
-0.318273
-1.31079
-0.343268
-1.29579
-0.36729
-1.2805
-0.389993
-1.26203
-0.412022
-1.2407
-0.434373
-1.21988
-1.20233
-0.456213
0.00627345
-0.552297
0.00204167
-1.22836
-0.0256945
-1.47733
-0.0569901
-1.47302
-0.0879849
-1.44676
-0.118779
-1.42343
-0.149336
-1.40141
-0.179856
-1.38148
-0.210117
-1.36312
-0.240318
-1.34499
-0.26987
-1.32892
-0.298907
-1.31294
-0.327633
-1.29773
-0.355705
-1.28272
-0.383263
-1.26823
-0.409614
-1.25415
-0.434728
-1.23691
-0.458725
-1.21671
-0.483038
-1.19557
-1.17796
-0.507414
0.00477966
-0.557077
-0.0033601
-1.22022
-0.0349401
-1.44575
-0.0697919
-1.43817
-0.1038
-1.41275
-0.137473
-1.38975
-0.170423
-1.36846
-0.202885
-1.34902
-0.234619
-1.33139
-0.26541
-1.3142
-0.296371
-1.29796
-0.326766
-1.28254
-0.356696
-1.2678
-0.386527
-1.25289
-0.416103
-1.23865
-0.444905
-1.22535
-0.471991
-1.20983
-0.497783
-1.19092
-0.523049
-1.1703
-1.15284
-0.54816
0.00248728
-0.559564
-0.0100196
-1.20771
-0.0428391
-1.41293
-0.0789245
-1.40209
-0.114459
-1.37722
-0.149787
-1.35443
-0.185231
-1.33302
-0.220366
-1.31388
-0.255234
-1.29652
-0.289933
-1.2795
-0.323596
-1.2643
-0.357296
-1.24884
-0.390617
-1.23448
-0.423281
-1.22022
-0.455716
-1.20622
-0.487295
-1.19377
-0.517319
-1.1798
-0.545484
-1.16275
-0.573115
-1.14267
-1.12535
-0.600608
0.000580601
-0.560145
-0.0162092
-1.19092
-0.0528171
-1.37632
-0.0914923
-1.36341
-0.129385
-1.33932
-0.166956
-1.31685
-0.203754
-1.29622
-0.240548
-1.27709
-0.27692
-1.26015
-0.312791
-1.24362
-0.348602
-1.22849
-0.38338
-1.21407
-0.417826
-1.20003
-0.451854
-1.1862
-0.485745
-1.17233
-0.519401
-1.16011
-0.551677
-1.14753
-0.581917
-1.13251
-0.610617
-1.11397
-1.09668
-0.639284
-0.000650299
-0.559494
-0.020512
-1.17106
-0.0586444
-1.33819
-0.0991595
-1.3229
-0.138873
-1.29961
-0.178463
-1.27726
-0.218074
-1.25661
-0.257128
-1.23804
-0.295732
-1.22154
-0.333864
-1.20549
-0.371753
-1.1906
-0.409624
-1.1762
-0.44705
-1.16261
-0.484181
-1.14906
-0.52107
-1.13544
-0.55781
-1.12337
-0.593584
-1.11175
-0.627255
-1.09884
-0.65858
-1.08265
-1.06593
-0.689338
-0.00211878
-0.557375
-0.0247008
-1.14848
-0.0661858
-1.29671
-0.108772
-1.28031
-0.150282
-1.2581
-0.191216
-1.23633
-0.231835
-1.21599
-0.272635
-1.19723
-0.313391
-1.18079
-0.35377
-1.16511
-0.393426
-1.15094
-0.43281
-1.13681
-0.471751
-1.12367
-0.509986
-1.11083
-0.548335
-1.09709
-0.586666
-1.08504
-0.624811
-1.07361
-0.661783
-1.06187
-0.69606
-1.04837
-1.0326
-0.729385
-0.00430446
-0.553071
-0.0294285
-1.12336
-0.0724802
-1.25365
-0.117169
-1.23562
-0.160757
-1.21451
-0.203832
-1.19325
-0.246319
-1.1735
-0.288547
-1.15501
-0.330325
-1.13901
-0.371881
-1.12356
-0.413431
-1.10939
-0.454146
-1.0961
-0.495128
-1.08269
-0.535649
-1.07031
-0.576115
-1.05662
-0.61728
-1.04388
-0.6583
-1.03259
-0.699362
-1.02081
-0.738182
-1.00955
-0.996003
-0.774778
-0.00510952
-0.0321752
-0.0771726
-0.122929
-0.167492
-0.211419
-0.255163
-0.298633
-0.342215
-0.385347
-0.428301
-0.471107
-0.513205
-0.554854
-0.595862
-0.637398
-0.679416
-0.722457
-0.766357
-0.808343
0.00760871
-11.701
11.7545
-0.0186249
-10.8733
10.8996
-0.0351876
-10.5859
10.6024
-0.0407754
-10.2149
10.2205
-0.046076
-9.93845
9.94375
-0.0449939
-9.61495
9.61387
-0.0438457
-9.41429
9.41314
-0.0407782
-9.20932
9.20625
-0.0371233
-9.08154
9.07788
-0.0318708
-8.94944
8.94419
-0.0263626
-8.87746
8.87195
-0.0210518
-8.7924
8.78709
-0.0142065
-8.74028
8.73344
-0.00792673
-8.66752
8.66125
0.000557299
-8.62678
8.61829
0.0085209
-8.56025
8.55229
0.0163073
-8.33261
8.32482
0.0189504
-7.41106
7.40841
0.0113206
-5.42722
5.43485
-2.17158
2.1829
-0.037005
-11.6455
-0.0706676
-10.8397
-0.0911049
-10.5654
-0.0987024
-10.2073
-0.102689
-9.93446
-0.0997687
-9.61787
-0.0960686
-9.41799
-0.0899328
-9.21546
-0.0831749
-9.08829
-0.0744484
-8.95817
-0.0657219
-8.88619
-0.0570114
-8.80112
-0.0463157
-8.75098
-0.0356089
-8.67823
-0.0223346
-8.64005
-0.00939057
-8.57319
0.00412494
-8.34612
0.0126654
-7.4196
0.0082322
-5.42279
-2.16335
-0.105064
-11.575
-0.141858
-10.8029
-0.161998
-10.5453
-0.168768
-10.2005
-0.170083
-9.93315
-0.164181
-9.62377
-0.156324
-9.42585
-0.145611
-9.22617
-0.134005
-9.0999
-0.120697
-8.97148
-0.107266
-8.89962
-0.0939196
-8.81446
-0.0787217
-8.76618
-0.0631035
-8.69385
-0.0450581
-8.6581
-0.0273126
-8.59094
-0.00827767
-8.36516
0.00550596
-7.43338
0.00617472
-5.42346
-2.15717
-0.152571
-11.5019
-0.19542
-10.76
-0.21924
-10.5215
-0.227264
-10.1925
-0.227576
-9.93283
-0.219504
-9.63185
-0.208589
-9.43676
-0.19492
-9.23984
-0.18022
-9.1146
-0.16358
-8.98812
-0.146919
-8.91628
-0.129972
-8.83141
-0.110604
-8.78554
-0.0905455
-8.71391
-0.067794
-8.68085
-0.0451989
-8.61354
-0.0203449
-8.39001
-0.00109865
-7.45263
0.00362237
-5.42818
-2.15355
-0.218549
-11.4134
-0.264653
-10.7139
-0.288932
-10.4972
-0.296172
-10.1853
-0.293823
-9.93518
-0.282887
-9.64278
-0.267919
-9.45173
-0.249723
-9.25803
-0.230416
-9.13391
-0.209308
-9.00923
-0.188048
-8.93754
-0.16647
-8.85299
-0.142624
-8.80939
-0.117955
-8.73858
-0.0905351
-8.70827
-0.0630789
-8.64099
-0.0326032
-8.42049
-0.007789
-7.47744
0.00209717
-5.43807
-2.15146
-0.267042
-11.3197
-0.318888
-10.6621
-0.346165
-10.4699
-0.354473
-10.177
-0.351122
-9.93853
-0.337956
-9.65595
-0.319883
-9.4698
-0.298927
-9.27899
-0.27654
-9.15629
-0.252161
-9.03361
-0.227608
-8.96209
-0.202364
-8.87823
-0.174324
-8.83743
-0.145175
-8.76773
-0.11314
-8.7403
-0.0809229
-8.67321
-0.0447156
-8.45669
-0.0143133
-7.50784
0.000326066
-5.4527
-2.15113
-0.33102
-11.2146
-0.386003
-10.6071
-0.414017
-10.4419
-0.421694
-10.1693
-0.416003
-9.94422
-0.399799
-9.67215
-0.377793
-9.49181
-0.352487
-9.3043
-0.325778
-9.183
-0.297049
-9.06234
-0.267998
-8.99114
-0.238349
-8.90788
-0.206107
-8.86967
-0.172414
-8.80142
-0.135863
-8.77685
-0.0988457
-8.71023
-0.0572288
-8.49831
-0.0211614
-7.54391
-0.00123133
-5.47263
-2.15236
-0.379644
-11.1031
-0.440689
-10.5461
-0.470259
-10.4123
-0.478889
-10.1607
-0.472282
-9.95083
-0.454197
-9.69024
-0.429283
-9.51672
-0.401193
-9.33239
-0.371415
-9.21278
-0.339431
-9.09432
-0.307001
-9.02357
-0.273719
-8.94116
-0.237382
-8.90601
-0.199293
-8.83951
-0.158991
-8.81715
-0.117185
-8.75203
-0.0697181
-8.54578
-0.0278914
-7.58574
-0.00294948
-5.49758
-2.15531
-0.441231
-10.9828
-0.504911
-10.4824
-0.536042
-10.3812
-0.54383
-10.1529
-0.535121
-9.95954
-0.513993
-9.71137
-0.485411
-9.54531
-0.453229
-9.36457
-0.41923
-9.24678
-0.383079
-9.13047
-0.346378
-9.06027
-0.308794
-8.97875
-0.268631
-8.94617
-0.226248
-8.88189
-0.181746
-8.86166
-0.13552
-8.79826
-0.0827732
-8.59852
-0.0351185
-7.63339
-0.00469279
-5.528
-2.16
-0.490744
-10.8544
-0.559311
-10.4138
-0.591101
-10.3494
-0.599936
-10.144
-0.590264
-9.96921
-0.56746
-9.73417
-0.536193
-9.57657
-0.501208
-9.39955
-0.464158
-9.28383
-0.424843
-9.16979
-0.384672
-9.10044
-0.343419
-9.02
-0.299373
-8.99022
-0.252934
-8.92833
-0.204452
-8.91014
-0.153852
-8.84886
-0.095768
-8.65661
-0.0426214
-7.68654
-0.00649685
-5.56413
-2.1665
-0.549353
-10.719
-0.619811
-10.3433
-0.654087
-10.3151
-0.661918
-10.1362
-0.650462
-9.98067
-0.624913
-9.75972
-0.590255
-9.61123
-0.551377
-9.43843
-0.510231
-9.32498
-0.466873
-9.21314
-0.422725
-9.14459
-0.37737
-9.06535
-0.329695
-9.03789
-0.279293
-8.97873
-0.226505
-8.96293
-0.171929
-8.90344
-0.108445
-8.72009
-0.0495337
-7.74545
-0.00795015
-5.60571
-2.17445
-0.599093
-10.5761
-0.672919
-10.2695
-0.707969
-10.2801
-0.716866
-10.1273
-0.70396
-9.99357
-0.676828
-9.78685
-0.639913
-9.64815
-0.598279
-9.48006
-0.554074
-9.36918
-0.507622
-9.2596
-0.459918
-9.1923
-0.410803
-9.11447
-0.359394
-9.0893
-0.305325
-9.0328
-0.248512
-9.01974
-0.189789
-8.96216
-0.121205
-8.78867
-0.0566923
-7.80996
-0.00924867
-5.65315
-2.1837
-0.65563
-10.4279
-0.730448
-10.1947
-0.767251
-10.2433
-0.775593
-10.119
-0.761285
-10.0079
-0.731647
-9.81649
-0.691599
-9.6882
-0.646246
-9.52542
-0.598148
-9.41728
-0.547734
-9.31001
-0.496254
-9.24378
-0.443368
-9.16736
-0.388562
-9.14411
-0.330796
-9.09057
-0.269932
-9.0806
-0.207428
-9.02466
-0.133591
-8.86251
-0.063817
-7.87974
-0.0109205
-5.70605
-2.19462
-0.704772
-10.2713
-0.782593
-10.1169
-0.82005
-10.2058
-0.828883
-10.1101
-0.812887
-10.0239
-0.781649
-9.84773
-0.739604
-9.73024
-0.691689
-9.57333
-0.640611
-9.46836
-0.587191
-9.36343
-0.532026
-9.29894
-0.475303
-9.22408
-0.417017
-9.20239
-0.355756
-9.15183
-0.29106
-9.1453
-0.224679
-9.09104
-0.145907
-8.94128
-0.070782
-7.95486
-0.0125157
-5.76432
-2.20713
-0.75945
-10.1124
-0.836866
-10.0395
-0.875126
-10.1675
-0.883936
-10.1013
-0.867007
-10.0408
-0.83347
-9.88126
-0.788495
-9.77522
-0.737108
-9.62472
-0.682431
-9.52303
-0.625275
-9.42059
-0.566516
-9.3577
-0.506301
-9.28429
-0.444908
-9.26379
-0.380231
-9.21651
-0.311654
-9.21388
-0.241592
-9.16111
-0.158268
-9.02461
-0.0777152
-8.03541
-0.0141923
-5.82784
-2.22133
-0.808456
-9.94326
-0.888993
-9.95893
-0.927022
-10.1295
-0.935305
-10.093
-0.916484
-10.0596
-0.881363
-9.91639
-0.834608
-9.82197
-0.780751
-9.67858
-0.723152
-9.58063
-0.662973
-9.48077
-0.600633
-9.42004
-0.536628
-9.3483
-0.471828
-9.32859
-0.403985
-9.28435
-0.331838
-9.28602
-0.258291
-9.23465
-0.17056
-9.11234
-0.0848154
-8.12116
-0.016282
-5.89637
-2.23761
-0.860712
-9.77189
-0.939285
-9.88036
-0.977187
-10.0916
-0.985865
-10.0844
-0.966547
-10.0789
-0.929398
-9.95353
-0.880092
-9.87128
-0.823194
-9.73547
-0.762375
-9.64145
-0.698728
-9.54441
-0.633174
-9.48559
-0.565876
-9.4156
-0.4977
-9.39676
-0.426943
-9.35511
-0.351726
-9.36124
-0.274709
-9.31167
-0.183213
-9.20383
-0.0918586
-8.21251
-0.0181999
-5.97003
-2.25581
-0.913518
-9.58776
-0.994946
-9.79893
-1.02944
-10.0571
-1.03554
-10.0783
-1.01402
-10.1005
-0.975012
-9.99254
-0.923996
-9.92229
-0.864609
-9.79486
-0.800958
-9.7051
-0.734311
-9.61106
-0.665333
-9.55457
-0.594474
-9.48646
-0.522955
-9.46828
-0.449038
-9.42903
-0.371056
-9.43922
-0.290656
-9.39207
-0.196437
-9.29805
-0.0992274
-8.30972
-0.0204612
-6.0488
-2.27627
-0.955474
-9.40706
-1.04452
-9.70989
-1.07952
-10.0221
-1.08547
-10.0723
-1.06276
-10.1232
-1.02117
-10.0341
-0.96741
-9.97605
-0.905035
-9.85723
-0.838158
-9.77198
-0.768165
-9.68105
-0.696108
-9.62663
-0.62209
-9.56047
-0.547331
-9.54304
-0.470387
-9.50597
-0.389795
-9.51981
-0.306154
-9.47571
-0.209668
-9.39454
-0.107594
-8.4118
-0.0236006
-6.13279
-2.29987
-0.995904
-9.2195
-1.08806
-9.61773
-1.12148
-9.98869
-1.12521
-10.0686
-1.1036
-10.1448
-1.06132
-10.0764
-1.00725
-10.0301
-0.942639
-9.92185
-0.873746
-9.84088
-0.800794
-9.754
-0.72593
-9.70149
-0.648417
-9.63799
-0.570562
-9.62089
-0.490197
-9.58633
-0.40821
-9.6018
-0.321339
-9.56258
-0.221277
-9.4946
-0.115081
-8.51799
-0.026751
-6.22112
-2.32662
7.92704
-8.35049
-8.79605
6.90007
-8.59077
5.872
-8.96062
4.9306
-9.12718
4.08366
-9.29785
3.35672
-9.34948
2.73956
-9.41295
2.23297
-9.41526
1.8212
-9.42911
1.48671
-9.41951
1.20499
-9.41977
0.979228
-9.41222
0.791939
-9.4336
0.635259
-9.42965
0.496514
-9.46305
0.389234
-9.4553
0.313095
-9.41846
0.225429
-8.43033
0.0694948
-6.06519
-2.25713
4.58288
-7.98706
-4.94631
4.16971
-8.1776
3.71157
-8.50247
3.25563
-8.67125
2.80511
-8.84733
2.39997
-8.94434
2.02953
-9.04251
1.71687
-9.1026
1.44508
-9.15732
1.2195
-9.19394
1.0288
-9.22907
0.875817
-9.25924
0.732585
-9.29037
0.611908
-9.30898
0.494246
-9.34539
0.395138
-9.3562
0.26831
-9.29163
0.144404
-8.30642
-0.0785634
-5.84222
-2.33569
3.26029
-7.89289
-3.35446
3.15095
-8.06826
2.92557
-8.27709
2.69194
-8.43761
2.43754
-8.59292
2.1924
-8.6992
1.94829
-8.79841
1.72096
-8.87526
1.50592
-8.94229
1.3087
-8.99671
1.12749
-9.04786
0.961362
-9.09311
0.799472
-9.12848
0.658627
-9.16813
0.519815
-9.20658
0.396062
-9.23244
0.26878
-9.16435
0.163551
-8.20119
0.0294808
-5.70815
-2.30621
2.0325
-7.92074
-2.00465
2.01883
-8.05459
1.94364
-8.2019
1.83457
-8.32854
1.69214
-8.45049
1.54436
-8.55142
1.38403
-8.63808
1.23286
-8.72408
1.08255
-8.79198
0.943729
-8.85789
0.810031
-8.91416
0.68772
-8.9708
0.577669
-9.01843
0.479583
-9.07005
0.396114
-9.12311
0.324128
-9.16046
0.228206
-9.06843
0.164925
-8.13791
0.0934086
-5.63663
-2.2128
1.30511
-7.99104
-1.23481
1.34367
-8.09315
1.35285
-8.21108
1.32071
-8.29641
1.24797
-8.37775
1.1679
-8.47135
1.07389
-8.54407
0.971399
-8.62159
0.868431
-8.68902
0.762481
-8.75194
0.660197
-8.81188
0.557754
-8.86835
0.461278
-8.92195
0.368991
-8.97776
0.276736
-9.03086
0.194581
-9.0783
0.112352
-8.9862
0.097816
-8.12337
0.0719758
-5.61079
-2.14082
0.878405
-8.05793
-0.811522
0.921298
-8.13605
0.898464
-8.18824
0.869998
-8.26794
0.836477
-8.34423
0.779607
-8.41448
0.718373
-8.48284
0.641322
-8.54454
0.560062
-8.60776
0.475547
-8.66743
0.389538
-8.72587
0.304314
-8.78313
0.22335
-8.84099
0.143986
-8.8984
0.0642705
-8.95114
-0.0118908
-9.00214
-0.0687196
-8.92937
-0.0183835
-8.17371
0.0467869
-5.67596
-2.09404
0.491944
-8.09883
-0.451045
0.509288
-8.15339
0.529663
-8.20862
0.53531
-8.27359
0.523652
-8.33257
0.492977
-8.38381
0.450643
-8.4405
0.400283
-8.49418
0.340832
-8.5483
0.274786
-8.60138
0.206075
-8.65716
0.13711
-8.71417
0.0619181
-8.7658
-0.0187467
-8.81773
-0.103003
-8.86688
-0.189004
-8.91614
-0.252377
-8.866
-0.185994
-8.24009
-0.00179799
-5.86016
-2.09584
0.308174
-8.13579
-0.271212
0.32923
-8.17445
0.338106
-8.21749
0.323513
-8.259
0.292731
-8.30179
0.262341
-8.35342
0.223536
-8.4017
0.174902
-8.44554
0.12315
-8.49655
0.0647653
-8.543
0.00415576
-8.59655
-0.0679918
-8.64202
-0.14488
-8.68891
-0.223558
-8.73905
-0.302811
-8.78763
-0.380475
-8.83848
-0.430216
-8.81626
-0.360828
-8.30948
-0.0757843
-6.1452
-2.17162
0.131371
-8.14744
-0.119718
0.133536
-8.17661
0.129911
-8.21387
0.122543
-8.25163
0.112477
-8.29172
0.0891317
-8.33007
0.0558711
-8.36844
0.0131223
-8.4028
-0.039074
-8.44436
-0.0940188
-8.48805
-0.159426
-8.53114
-0.229597
-8.57185
-0.299702
-8.6188
-0.376277
-8.66248
-0.450159
-8.71375
-0.53192
-8.75672
-0.58714
-8.76104
-0.509003
-8.38762
-0.174695
-6.47951
-2.34632
0.0560372
-8.15727
-0.0462144
0.0592024
-8.17978
0.0540453
-8.20871
0.0376843
-8.23527
0.0109727
-8.26501
-0.0297428
-8.28936
-0.0772948
-8.32088
-0.123431
-8.35666
-0.17442
-8.39337
-0.231889
-8.43058
-0.295568
-8.46746
-0.360039
-8.50738
-0.430977
-8.54787
-0.505917
-8.58754
-0.583299
-8.63637
-0.660459
-8.67956
-0.718689
-8.70281
-0.664
-8.44231
-0.312091
-6.83142
-2.65841
0.00390155
-8.15075
-0.0104173
-0.0090715
-8.1668
-0.029619
-8.18816
-0.0569178
-8.20797
-0.088693
-8.23324
-0.12191
-8.25614
-0.159829
-8.28297
-0.207847
-8.30864
-0.261885
-8.33933
-0.324461
-8.368
-0.39324
-8.39869
-0.47179
-8.42883
-0.558203
-8.46145
-0.648952
-8.49679
-0.746377
-8.53894
-0.843646
-8.58229
-0.928787
-8.61767
-0.921647
-8.44945
-0.551891
-7.20118
-3.2103
-0.0115681
-8.13744
-0.00174022
-0.0289409
-8.14943
-0.0509979
-8.16611
-0.0782366
-8.18073
-0.112104
-8.19937
-0.150429
-8.21781
-0.194261
-8.23913
-0.244909
-8.25799
-0.303644
-8.28059
-0.372651
-8.299
-0.449163
-8.32217
-0.534769
-8.34322
-0.629392
-8.36683
-0.742195
-8.38399
-0.870751
-8.41038
-1.02296
-8.43008
-1.17792
-8.46271
-1.22889
-8.39847
-0.910005
-7.52006
-4.1203
0.00400851
-8.11678
-0.0246654
-0.0191117
-8.12631
-0.0454804
-8.13974
-0.0753717
-8.15084
-0.10964
-8.1651
-0.149941
-8.17751
-0.195637
-8.19344
-0.246618
-8.20701
-0.304302
-8.22291
-0.37096
-8.23234
-0.444479
-8.24866
-0.530036
-8.25766
-0.626642
-8.27022
-0.7376
-8.27303
-0.865657
-8.28233
-1.02022
-8.27551
-1.20619
-8.27674
-1.34654
-8.25812
-1.11932
-7.74729
-5.23962
0.042985
-8.09651
-0.0632586
0.0195979
-8.10292
-0.00787711
-8.11226
-0.0387678
-8.11995
-0.0740234
-8.12985
-0.115347
-8.13619
-0.161293
-8.14749
-0.216138
-8.15217
-0.27506
-8.16399
-0.339478
-8.16792
-0.41024
-8.17789
-0.490442
-8.17746
-0.575892
-8.18477
-0.672385
-8.17654
-0.7782
-8.17651
-0.897575
-8.15614
-1.04032
-8.134
-1.2
-8.09843
-1.03464
-7.91265
-6.27426
0.0597234
-8.07429
-0.0819402
0.0351039
-8.0783
0.00699105
-8.08415
-0.0247339
-8.08822
-0.0587911
-8.09579
-0.095184
-8.0998
-0.136257
-8.10642
-0.178633
-8.10979
-0.22628
-8.11634
-0.277364
-8.11684
-0.333528
-8.12173
-0.393787
-8.1172
-0.45842
-8.12014
-0.528658
-8.1063
-0.602258
-8.10291
-0.682428
-8.07597
-0.760403
-8.05602
-0.853141
-8.0057
-0.798157
-7.96763
-7.07242
0.0735661
-8.05667
-0.0911947
0.0545917
-8.05933
0.0334253
-8.06298
0.00963778
-8.06444
-0.018037
-8.06811
-0.0474774
-8.07036
-0.0788025
-8.07509
-0.112833
-8.07576
-0.150554
-8.07862
-0.189577
-8.07781
-0.231696
-8.07961
-0.274006
-8.07489
-0.318986
-8.07516
-0.357374
-8.06791
-0.396402
-8.06388
-0.428439
-8.04393
-0.457882
-8.02658
-0.478878
-7.9847
-0.47053
-7.97598
-7.54295
0.072154
-8.04318
-0.085644
0.0567302
-8.0439
0.0395538
-8.04581
0.0210076
-8.04589
0.000223994
-8.04733
-0.0239712
-8.04616
-0.0503743
-8.04869
-0.0760028
-8.05013
-0.102444
-8.05218
-0.128285
-8.05197
-0.154976
-8.05292
-0.180477