/*--------------------------------*- C++ -*----------------------------------*\
  =========                 |
  \\      /  F ield         | OpenFOAM: The Open Source CFD Toolbox
   \\    /   O peration     | Website:  https://openfoam.org
    \\  /    A nd           | Version:  9
     \\/     M anipulation  |
\*---------------------------------------------------------------------------*/
FoamFile
{
    format      ascii;
    class       volScalarField;
    location    "8";
    object      nut;
}
// * * * * * * * * * * * * * * * * * * * * * * * * * * * * * * * * * * * * * //

dimensions      [0 2 -1 0 0 0 0];

internalField   nonuniform List<scalar> 
46400
(
0.0207092
0.00770645
0.00226466
0.00153091
0.00157433
0.00153923
0.0014644
0.00142432
0.00136201
0.00132071
0.00127208
0.00123578
0.00119029
0.00115361
0.0011175
0.00111253
0.00108867
0.000981459
0.00125498
0.0010782
0.0202821
0.00700824
0.00202714
0.00162879
0.0015733
0.00153282
0.00144991
0.00141739
0.0013523
0.00132003
0.00127199
0.00124747
0.00121153
0.00116837
0.00112236
0.00109516
0.00104651
0.000936531
0.00113451
0.00103125
0.0198085
0.00579446
0.00145479
0.00161219
0.00154819
0.00155072
0.00146669
0.00142953
0.00136938
0.00132949
0.00127576
0.00123334
0.00119356
0.00115644
0.00111642
0.00109509
0.00105749
0.000962435
0.00122364
0.00108437
0.0192627
0.00523261
0.00142234
0.0016639
0.00155946
0.00153782
0.00145956
0.00142032
0.00135597
0.00132805
0.00128411
0.00125246
0.00121584
0.00117335
0.00113079
0.00110374
0.001071
0.000962029
0.00122324
0.00113001
0.0186678
0.00445653
0.00145122
0.00166544
0.00153958
0.00154593
0.00146745
0.00143499
0.00136889
0.00132831
0.00128846
0.00124623
0.00121471
0.00117886
0.00113827
0.00111245
0.00107946
0.000986224
0.00123745
0.00111858
0.0179302
0.00501228
0.00146859
0.00165847
0.00156826
0.00154937
0.00148281
0.00143689
0.00138493
0.00133184
0.00129357
0.00126129
0.00122685
0.00119713
0.00115962
0.00113692
0.00110815
0.00101088
0.00126138
0.00117615
0.0171869
0.00512278
0.00159905
0.00172088
0.00157281
0.00155082
0.00148383
0.00144484
0.00138784
0.00134157
0.00128505
0.00124683
0.00120726
0.00117362
0.00114218
0.00111062
0.00109
0.000996755
0.00121824
0.00115671
0.0163816
0.00497476
0.00158042
0.00170071
0.00159672
0.00156906
0.00149833
0.00145309
0.00140855
0.00136348
0.00131326
0.00126352
0.0012335
0.00118318
0.00116212
0.0011272
0.00109299
0.00100882
0.00117324
0.00112487
0.0151904
0.00419403
0.00163344
0.00174834
0.00160419
0.00154926
0.00149223
0.00143194
0.00138823
0.00134643
0.00131087
0.00124479
0.00121619
0.00116784
0.00113397
0.00112455
0.00109368
0.00102931
0.00118013
0.00111628
0.0136118
0.00333603
0.00166017
0.00166524
0.00160349
0.00154532
0.00148795
0.00143554
0.00138454
0.00133645
0.00132261
0.00126339
0.0012194
0.00117091
0.00111081
0.00107717
0.00104959
0.000985376
0.00111655
0.00107693
0.0113706
0.00280491
0.0016799
0.00166402
0.00159322
0.00152919
0.00146118
0.00139587
0.00135516
0.00128428
0.00128011
0.00125921
0.00123321
0.00121606
0.00116677
0.00111026
0.00106105
0.000987637
0.00107951
0.00101911
0.00911725
0.00236045
0.00166256
0.0016022
0.00156564
0.00152865
0.00149623
0.00141524
0.00137734
0.00128
0.00122112
0.00118888
0.00115908
0.00115054
0.00115505
0.00113714
0.00111413
0.00104597
0.001143
0.00107561
0.00741099
0.00204765
0.00169595
0.00158064
0.00152909
0.00146612
0.00144938
0.00139189
0.00138473
0.00134361
0.00127475
0.00122189
0.00116015
0.00109934
0.00107414
0.00105485
0.00105474
0.000993798
0.00109261
0.00106319
0.00584541
0.00180018
0.00165816
0.00160045
0.00155282
0.00147112
0.00147287
0.00138911
0.00134773
0.00131886
0.00127634
0.00123457
0.00120987
0.0011387
0.00109309
0.00103623
0.00100791
0.000957777
0.000991704
0.000984734
0.00489281
0.0016751
0.00168493
0.0015813
0.00152238
0.00138938
0.00140823
0.00138531
0.00133876
0.0013191
0.0012894
0.00123762
0.00123043
0.00120125
0.00116429
0.00112543
0.00106668
0.00101556
0.00104688
0.000985626
0.00429262
0.00166777
0.00171406
0.00163825
0.00165806
0.00143865
0.00135277
0.00131953
0.00125793
0.00122749
0.00121483
0.0011766
0.00113314
0.00112252
0.00109997
0.0010869
0.00105912
0.000993197
0.00105045
0.00100556
0.00413739
0.00152821
0.00150729
0.00143382
0.00161671
0.00161939
0.00151793
0.00143262
0.001358
0.00128023
0.00122774
0.00121402
0.00116666
0.00112361
0.00108902
0.00106554
0.00104009
0.000974863
0.000993031
0.000953958
0.00418979
0.00180714
0.00161583
0.00136527
0.00129111
0.00139492
0.00135539
0.00133816
0.00134267
0.00129408
0.00124392
0.00119662
0.00116399
0.00112716
0.00108235
0.00105397
0.00103851
0.00099022
0.00102471
0.000977121
0.00356717
0.00163538
0.00165173
0.00168395
0.00147847
0.00139739
0.00138112
0.00132299
0.00130389
0.00125596
0.00123579
0.00118238
0.00115618
0.0011178
0.00109158
0.00104822
0.00102048
0.000962783
0.000990918
0.000962019
0.00232903
0.00170141
0.00159235
0.00162029
0.00158279
0.00147637
0.00141653
0.00135788
0.00129595
0.00124343
0.00121866
0.00116765
0.00115626
0.00110469
0.0010926
0.00105375
0.00102822
0.000967166
0.000990398
0.000959493
0.00189462
0.0103815
0.0140852
0.0105574
0.00437521
0.000523391
0.000185528
0.000450904
0.000568861
0.000553907
0.000549042
0.00054986
0.000542735
0.00058643
0.000552074
0.000583269
0.000588384
0.000647671
0.000751639
0.000705035
0.0032842
0.0118426
0.0139657
0.00831281
0.00212898
0.000157017
0.00036352
0.000562411
0.000630123
0.000582935
0.000575811
0.000579549
0.000559027
0.000563127
0.000582317
0.000620434
0.000600629
0.000693271
0.000781673
0.00071232
0.00280056
0.0131306
0.0129509
0.00651711
0.000653643
0.00022692
0.000544159
0.000654478
0.000622598
0.000595813
0.000599831
0.000581758
0.000587576
0.000636537
0.000608186
0.000647862
0.000654018
0.000744389
0.000780609
0.000708133
0.00620451
0.014013
0.0118653
0.00345798
0.000199829
0.000422005
0.000663591
0.000706782
0.000657715
0.000660052
0.000649507
0.00065337
0.000638753
0.000644364
0.0006489
0.00067535
0.000651678
0.000770495
0.00080064
0.00071378
0.00898563
0.0144836
0.0104947
0.00177663
0.00037464
0.000646436
0.000783209
0.00077163
0.00074119
0.000708994
0.000697403
0.000662752
0.000672601
0.000699578
0.000669233
0.000715245
0.000721338
0.000824647
0.000802172
0.000729301
0.0116107
0.0146909
0.0093626
0.000608246
0.000418356
0.000839477
0.000881272
0.000809927
0.000783515
0.000760639
0.000742225
0.000739097
0.00072452
0.000735987
0.000728758
0.000739535
0.00071406
0.000847082
0.000819246
0.000735285
0.0140903
0.0146222
0.00732963
0.0003842
0.000638969
0.000944318
0.000942931
0.000893587
0.000866196
0.000833899
0.000804311
0.000765737
0.000774722
0.000771663
0.000739033
0.000781599
0.000772612
0.000883635
0.000822568
0.000759585
0.0166355
0.0144306
0.00516509
0.000391391
0.000907222
0.00107341
0.00100388
0.000955494
0.000911035
0.00086578
0.000840299
0.000820173
0.000803999
0.000816946
0.000795538
0.000792124
0.000768447
0.000912141
0.000846071
0.000776635
0.0178138
0.0142904
0.00366338
0.000462987
0.00103838
0.00111108
0.00106079
0.00101196
0.000977601
0.00094101
0.000900604
0.000866459
0.000864289
0.000839357
0.000811868
0.000834179
0.000802646
0.000920504
0.00083122
0.000790891
0.0192088
0.0137131
0.002493
0.000376532
0.0011775
0.00119071
0.00110728
0.00106182
0.00101822
0.000961535
0.000927767
0.000892432
0.000878615
0.000884028
0.000845597
0.000835548
0.000811087
0.000945045
0.00084356
0.000801944
0.0197085
0.0133946
0.00184333
0.00059896
0.00122404
0.00120562
0.00116935
0.00110464
0.00107183
0.0010277
0.00098417
0.00095207
0.000936871
0.000910819
0.000888759
0.000883499
0.000835328
0.00095912
0.0008359
0.000807092
0.0205394
0.0129468
0.00129591
0.000861123
0.00132999
0.00126793
0.00120898
0.00114756
0.00111026
0.00105627
0.0010113
0.000969671
0.000953584
0.000947302
0.000906291
0.000887167
0.000852193
0.000980515
0.000850481
0.000814842
0.0209883
0.0124754
0.00161763
0.000987606
0.00137476
0.00127713
0.00126874
0.00118871
0.00114985
0.00110632
0.00106324
0.0010291
0.00100593
0.000990905
0.000975051
0.000951175
0.000902541
0.00102086
0.000889098
0.000897591
0.0213959
0.0120686
0.00152861
0.00114276
0.00144284
0.00133427
0.00128417
0.00122575
0.00118482
0.0011358
0.00108441
0.00103925
0.00100975
0.000991455
0.000954354
0.000919128
0.000864252
0.000963643
0.000794798
0.000841358
0.0215795
0.0115252
0.00252054
0.00124354
0.00148346
0.00136693
0.00135026
0.00126654
0.00122127
0.0011787
0.00113411
0.0010994
0.00106494
0.00105163
0.00103972
0.00100285
0.000947764
0.00102004
0.000850744
0.000900322
0.0217521
0.0112666
0.00244697
0.00132218
0.00151645
0.0013929
0.00134882
0.00129736
0.00124722
0.00120579
0.00115378
0.0011102
0.00107281
0.00104652
0.0010216
0.000984472
0.00093015
0.000984048
0.000762722
0.000881943
0.0216944
0.0108659
0.00246735
0.00135073
0.00155519
0.00144392
0.00141052
0.00133584
0.00128579
0.00124434
0.00119966
0.00116493
0.00112005
0.00110208
0.0010878
0.00105135
0.00101429
0.00103322
0.000784656
0.000902476
0.0216478
0.0105292
0.0025201
0.00144758
0.001549
0.00145052
0.00140084
0.00135913
0.00129943
0.00126775
0.0012194
0.00118744
0.00114736
0.00111904
0.00109708
0.00106477
0.00104759
0.00104772
0.00075894
0.000936481
0.0213549
0.00971213
0.0022946
0.00144781
0.00159118
0.00150396
0.00145482
0.00139746
0.00134113
0.00130173
0.00125582
0.00122484
0.00118165
0.0011604
0.00114377
0.00112503
0.00112747
0.00111841
0.000812125
0.000944691
0.0211202
0.00890223
0.00254927
0.00153593
0.0015754
0.00150108
0.00143612
0.00140591
0.00134167
0.00131715
0.00127373
0.00125235
0.00122287
0.00119712
0.00117856
0.00118804
0.00121063
0.00118572
0.00102077
0.00113633
0.0050585
0.00400671
0.00311125
0.00249171
0.00233875
0.00184812
0.00168008
0.00138995
0.00121969
0.0010062
0.000832475
0.000715833
0.000588078
0.000510633
0.000464817
0.000766044
0.00228454
0.00658489
0.0107722
0.0152615
0.0052084
0.00384396
0.00302338
0.00250347
0.00234924
0.00186321
0.00170445
0.0014026
0.00122017
0.00100798
0.000831874
0.000718863
0.000586806
0.000514327
0.000467208
0.000778216
0.00218608
0.00657831
0.0107429
0.0152717
0.00519475
0.00404745
0.00318246
0.00249967
0.00235179
0.0018315
0.00167449
0.00137917
0.00120815
0.00100056
0.000823428
0.000713848
0.00057939
0.000508506
0.000454449
0.00074224
0.0021633
0.00659494
0.0107464
0.0152821
0.00535022
0.00383006
0.00309294
0.00250347
0.00235961
0.00184804
0.00170327
0.00139902
0.00121235
0.00100749
0.000827195
0.000721457
0.000584055
0.00051769
0.000460524
0.000749182
0.00215971
0.00658953
0.0107271
0.0153515
0.00547202
0.00402275
0.00321718
0.00250631
0.00236252
0.00181605
0.00166974
0.00137556
0.00119713
0.000999788
0.00081823
0.000717031
0.000578198
0.000513994
0.000447526
0.000710626
0.00209721
0.0065837
0.0107326
0.0154449
0.00557692
0.00387108
0.00316916
0.00251497
0.00237341
0.00184257
0.00169853
0.00140256
0.00120555
0.00101119
0.000826168
0.000727707
0.000585743
0.000523851
0.000453414
0.000716681
0.00199302
0.00656757
0.0106166
0.0154632
0.00575729
0.00404179
0.00325743
0.00252137
0.00236525
0.00181342
0.00166126
0.00137888
0.0011894
0.00100277
0.000816825
0.000722037
0.000579709
0.00051911
0.000438554
0.000674215
0.00196328
0.00653225
0.0106016
0.0153276
0.00582904
0.00393997
0.00322096
0.00252397
0.00237826
0.00185145
0.00168964
0.00140899
0.00120138
0.00101742
0.000827514
0.00073459
0.000589349
0.000531833
0.00044788
0.000674474
0.00187928
0.00648493
0.0105867
0.0152553
0.00601841
0.00405906
0.00329779
0.00254039
0.0023579
0.00182504
0.00164981
0.00138543
0.00118518
0.00100898
0.000818909
0.000728871
0.000584464
0.000527811
0.00043315
0.000629799
0.00180274
0.0064287
0.0106029
0.0152295
0.00601416
0.00398751
0.00326359
0.00253101
0.00237125
0.00187247
0.00167699
0.00141596
0.00119956
0.00102595
0.000832446
0.000743844
0.000597185
0.000542808
0.00044757
0.00062478
0.00170235
0.00637434
0.0106059
0.0152054
0.00610095
0.00406022
0.00332757
0.00255885
0.00233886
0.00184951
0.00163692
0.00139367
0.00118397
0.00101776
0.000825485
0.000739534
0.00059485
0.000539963
0.000434347
0.00058428
0.00160753
0.00632883
0.010631
0.0151974
0.0060248
0.00398158
0.00328015
0.00254885
0.00235392
0.00189836
0.00166157
0.00142241
0.00119974
0.001036
0.000840848
0.000756552
0.000611369
0.00055844
0.000453052
0.000580214
0.00150082
0.00626829
0.0106295
0.0151961
0.00620759
0.00393768
0.00328047
0.00254464
0.00231122
0.00187603
0.00162296
0.00140166
0.00118458
0.00102799
0.000834997
0.000752131
0.000609323
0.000557259
0.000442596
0.000545502
0.00139168
0.00621552
0.010652
0.0152068
0.00631482
0.00399021
0.00326572
0.00252164
0.00231909
0.00192048
0.00164373
0.00142767
0.00120039
0.00104634
0.000851433
0.000769856
0.000626138
0.000575653
0.00046784
0.000549837
0.00127935
0.0061435
0.0106677
0.0152223
0.00622808
0.00392383
0.00327327
0.00251244
0.00225667
0.00190022
0.00160881
0.00140947
0.0011863
0.00103912
0.000847375
0.000767159
0.000626426
0.000573833
0.000457617
0.000527491
0.00116238
0.0060819
0.0106881
0.0152463
0.00640332
0.00389619
0.00321538
0.00253533
0.00226328
0.00193667
0.00162749
0.00143257
0.00120206
0.00105667
0.000864808
0.000785955
0.000645304
0.000594285
0.0004858
0.000542117
0.00103894
0.006016
0.010718
0.0152806
0.00637559
0.0038417
0.00318712
0.00250441
0.00219346
0.00191395
0.00159763
0.00141551
0.00118862
0.00104894
0.00086127
0.000783434
0.000647604
0.000593603
0.000477362
0.000538767
0.000918749
0.00591343
0.0107259
0.015314
0.00638851
0.00376091
0.00313039
0.00254941
0.00220388
0.00194456
0.00161869
0.00144038
0.00120592
0.0010674
0.000879515
0.000802566
0.000666851
0.000616498
0.000507208
0.000573504
0.000802387
0.00589694
0.010777
0.0153621
0.00637504
0.00375707
0.00303621
0.00248935
0.00211759
0.0019092
0.00159197
0.00142608
0.00119548
0.0010613
0.00087794
0.000801787
0.000671538
0.000618516
0.000497799
0.000573342
0.000689613
0.00584989
0.0109005
0.0154653
0.00662681
0.00369659
0.00294388
0.00251885
0.00211376
0.00191918
0.00160238
0.00143831
0.0012047
0.00106853
0.000890251
0.000813367
0.000687296
0.000642828
0.000530175
0.000564656
0.000573294
0.00554508
0.010662
0.0152627
0.0169091
0.0365538
0.028283
0.0280402
0.0231236
0.0207635
0.0172856
0.0156141
0.0130185
0.0115398
0.0096251
0.00860164
0.00734096
0.00683015
0.00578779
0.00598854
0.00051948
0.0532888
0.101657
0.140614
0.0322283
0.0239051
0.0218829
0.0194753
0.0161794
0.013389
0.0123443
0.0107648
0.00919576
0.0080643
0.00728634
0.00673447
0.00620609
0.00576804
0.0052912
0.00523212
0.0156267
0.052329
0.0996671
0.1392
0.0126516
0.0157645
0.014961
0.0124003
0.0116774
0.0104608
0.00956566
0.00884176
0.00819794
0.00765877
0.00724922
0.00700924
0.00663398
0.00614204
0.00587163
0.00550647
0.00929134
0.0495501
0.0975651
0.139379
0.011153
0.0100559
0.00952643
0.0098107
0.00890215
0.00828966
0.0077148
0.00734143
0.00691073
0.0065852
0.00605713
0.00558331
0.00516444
0.00494742
0.00450122
0.00395675
0.0118428
0.041363
0.0980488
0.136886
0.00590095
0.00736133
0.00776879
0.00673646
0.00672809
0.00628046
0.00600404
0.00577581
0.00552844
0.00531324
0.00508832
0.00495123
0.00471915
0.0047206
0.00454151
0.00396163
0.00634982
0.0384522
0.0976096
0.136863
0.00528444
0.00533616
0.00495007
0.00479997
0.00471384
0.00506826
0.0049813
0.00499291
0.00480381
0.00479835
0.00455402
0.00447761
0.00426041
0.0040541
0.00383304
0.00305639
0.00843676
0.0323345
0.0975492
0.136154
0.00244709
0.0037151
0.00426467
0.00423969
0.00403618
0.00388179
0.00392315
0.00395514
0.00397156
0.0039955
0.00400073
0.00403775
0.00396716
0.00397119
0.00383648
0.00337877
0.00389865
0.0288653
0.0973373
0.138612
0.00278404
0.00275063
0.00253378
0.00263691
0.0029951
0.00330598
0.00332548
0.00348318
0.00349417
0.00372139
0.00363836
0.00384847
0.00375705
0.0039407
0.00395789
0.00367053
0.00509824
0.021978
0.0959757
0.142675
0.00162954
0.00210064
0.00239113
0.00264855
0.00264794
0.0027024
0.00284657
0.00308138
0.00311247
0.00332619
0.003407
0.00359773
0.00366719
0.00381233
0.0037061
0.00388534
0.00378591
0.0155657
0.093614
0.150706
0.00153733
0.00154506
0.00152675
0.00170143
0.0019354
0.00227237
0.00237853
0.00260252
0.00281582
0.00298146
0.00315488
0.00335405
0.00347514
0.00399987
0.00391349
0.00427419
0.00343758
0.0105671
0.0860835
0.160624
0.00118226
0.00140302
0.0016173
0.00190275
0.00202144
0.00202673
0.00216805
0.00236581
0.00249189
0.00275696
0.00287314
0.00315085
0.00327773
0.00363591
0.00396015
0.00427884
0.00401322
0.0069718
0.0634775
0.172456
0.00103134
0.00112394
0.00117501
0.00127199
0.00142991
0.00175239
0.00184454
0.00205231
0.00215876
0.00236687
0.00262511
0.00290388
0.00326293
0.00334482
0.00375951
0.00422194
0.00477396
0.00652402
0.0505661
0.191216
0.000968403
0.00111875
0.00123198
0.00146851
0.00148487
0.00148757
0.00160993
0.00172367
0.00184973
0.00196058
0.00209767
0.00231225
0.00250271
0.0028838
0.00325596
0.00367495
0.00457653
0.00849301
0.0253608
0.153638
0.000845223
0.000882553
0.000902654
0.000966966
0.00114473
0.00135043
0.00129183
0.00145568
0.00145783
0.00168019
0.00169601
0.00195758
0.00199617
0.00247438
0.00253061
0.00297927
0.00294787
0.00523744
0.0138672
0.107413
0.000854207
0.000894814
0.000916037
0.000940326
0.000896735
0.000941269
0.000967983
0.00102433
0.00106477
0.00119578
0.00121938
0.00140144
0.00147925
0.00153235
0.00173123
0.00225937
0.00253604
0.00313478
0.00364524
0.0621008
0.000531466
0.000525046
0.000534012
0.000577825
0.000596196
0.000676275
0.00074215
0.000810484
0.000823489
0.000933658
0.000914029
0.00105063
0.000945056
0.00126269
0.00114945
0.0013177
0.00102152
0.00164448
0.00196747
0.0362203
0.000276261
0.000377333
0.000399408
0.000420863
0.000404075
0.000457163
0.000490429
0.000540687
0.000551418
0.000605064
0.00060828
0.000664524
0.000769239
0.000839949
0.000704157
0.00101581
0.0010443
0.000999524
0.00080085
0.0177826
0.000196326
0.000213177
0.000216028
0.000244483
0.00027419
0.000300584
0.000329744
0.000381382
0.000395851
0.000438816
0.000460132
0.000504721
0.000496557
0.000514431
0.000687787
0.000445473
0.000790866
0.000592101
0.00132526
0.00593987
0.000160281
0.000178941
0.00017289
0.000164957
0.000179054
0.000213446
0.000236828
0.00024828
0.000283905
0.000300173
0.000330602
0.000330542
0.000400529
0.000398572
0.000360586
0.000400159
0.000305187
0.000559779
0.000272665
0.00388287
0.000142663
0.000189419
0.000217113
0.000239666
0.000259798
0.000273213
0.000297091
0.000311126
0.000333097
0.000352802
0.000365198
0.000398856
0.000393973
0.000402655
0.000401122
0.000367295
0.000373725
0.000311449
0.000232041
2.19378e-05
0.0140387
0.0140471
0.014043
0.0139648
0.0141311
0.0138688
0.0141066
0.0143469
0.0137444
0.0130501
0.0143798
0.0144403
0.0138262
0.00943582
0.0115518
0.0113882
0.0117483
0.0111176
0.0107832
0.0102165
0.00689685
0.0068804
0.00688308
0.00681315
0.00681404
0.00681458
0.00672313
0.00678849
0.00653394
0.00698428
0.00864525
0.00821229
0.00602944
0.00567511
0.00694644
0.00821389
0.00805086
0.00774478
0.00659358
0.00711792
0.00403451
0.00407662
0.00413754
0.00421408
0.00432977
0.00440404
0.00439102
0.00462664
0.00472873
0.00439866
0.00382147
0.0038192
0.00406628
0.0049596
0.00495219
0.00538612
0.0032894
0.00398656
0.00312005
0.00269578
0.00256145
0.00259706
0.00261916
0.00265942
0.00262235
0.0026021
0.00253167
0.00238318
0.002286
0.00252385
0.00280781
0.00274918
0.00228457
0.00226479
0.00251756
0.00304046
0.00308284
0.0039906
0.00319104
0.00244571
0.00159965
0.00162775
0.00165587
0.00166984
0.00164732
0.00163763
0.00161917
0.00171179
0.00181925
0.0017595
0.00160223
0.00183462
0.00208804
0.00203094
0.00179147
0.00188008
0.00167683
0.0014276
0.00118898
0.00125049
0.00111859
0.00112913
0.0011264
0.0011254
0.00110734
0.00110477
0.0011011
0.00113148
0.0010995
0.00114966
0.00107704
0.000976284
0.000936801
0.00109267
0.00112002
0.00141061
0.00151707
0.0016286
0.00147752
0.00128516
0.000668347
0.000668106
0.000665748
0.000668323
0.000669889
0.000672385
0.000674576
0.00069903
0.00068533
0.000753119
0.000872452
0.00104015
0.000980712
0.000850451
0.000779401
0.000670149
0.000622961
0.000778181
0.000638596
0.000545549
0.000493986
0.00049287
0.000491013
0.000497727
0.000511731
0.000518762
0.000517702
0.000528583
0.000529021
0.00053227
0.000530467
0.000511166
0.000427233
0.00044419
0.000477754
0.000594424
0.000687195
0.000636849
0.000450101
0.000611467
0.000284762
0.0002862
0.000287938
0.00029873
0.000315454
0.000324376
0.000321657
0.000342959
0.000350934
0.000350213
0.000342291
0.000356953
0.000426295
0.000471905
0.000340282
0.000260447
0.000276308
0.000317009
0.000286084
0.000137684
0.000185696
0.000188682
0.000195757
0.000200724
0.000200608
0.000194015
0.000183728
0.000175973
0.000177041
0.000213612
0.000219879
0.000188744
0.000112551
0.000177362
0.00022121
0.000310786
0.000378355
0.000384391
0.00035003
0.000366033
9.06285e-05
0.000114696
0.000140016
0.000144945
0.000148136
0.000146663
0.000145948
0.000133729
0.000113662
0.000118107
0.000142349
0.000163617
0.000186267
0.000205457
0.000193545
0.000190388
0.000176279
0.000195058
0.000231308
0.000212701
8.65551e-05
9.65059e-05
0.000104253
0.000108491
0.000113523
0.000120697
0.00013897
0.000172777
0.000177292
0.000175806
0.000177297
0.000176187
0.000177357
0.000177083
0.000180358
0.000186321
0.000182593
0.00018564
0.000175064
0.000220987
0.000125123
0.000127139
0.000131837
0.000135772
0.000140954
0.000148503
0.000152878
0.000147159
0.0001436
0.000145165
0.000154757
0.000171199
0.000181398
0.000184771
0.000185721
0.000191819
0.000194186
0.00020025
0.000201875
0.000214008
0.000143158
0.000146027
0.000147999
0.000154839
0.00016269
0.000172009
0.000177671
0.000184956
0.000190354
0.000193843
0.000190895
0.000186606
0.000182643
0.000182092
0.000180839
0.000183019
0.000182492
0.000187988
0.000187193
0.000201342
0.000127149
0.000128683
0.000126966
0.00012703
0.000128814
0.000127785
0.000129804
0.00013503
0.000145869
0.000152782
0.00015546
0.000160873
0.000169809
0.000175631
0.000179057
0.000181299
0.000184717
0.000187457
0.000184544
0.000198063
0.000123733
0.000125394
0.000125655
0.000126863
0.000128521
0.000125853
0.000123108
0.00012079
0.000113455
0.000112632
0.000113416
0.000117165
0.000115825
0.00011717
0.000116697
0.000120224
0.000114617
0.000119365
0.000119377
0.000124125
8.6124e-05
8.49854e-05
8.5073e-05
8.22408e-05
8.30427e-05
8.68795e-05
9.00696e-05
9.26595e-05
9.09528e-05
8.75636e-05
8.3474e-05
7.81467e-05
7.13471e-05
6.73667e-05
6.36959e-05
6.501e-05
6.30925e-05
6.67835e-05
6.99806e-05
7.52021e-05
5.05526e-05
5.08926e-05
5.07419e-05
5.00447e-05
4.73631e-05
4.58613e-05
4.36569e-05
4.4114e-05
4.55011e-05
4.52863e-05
4.48234e-05
4.27922e-05
4.13046e-05
3.68286e-05
3.08977e-05
2.99826e-05
2.57123e-05
2.74603e-05
2.67784e-05
5.22741e-05
1.84877e-05
1.67253e-05
1.55424e-05
1.3371e-05
1.23359e-05
1.21906e-05
1.39775e-05
1.4006e-05
1.753e-05
1.95805e-05
2.58488e-05
2.62293e-05
2.82966e-05
2.33328e-05
3.53742e-05
1.5091e-05
3.98439e-05
9.58488e-06
4.04138e-05
5.9711e-05
6.00186e-06
4.80926e-06
5.14532e-06
4.41941e-06
4.67366e-06
4.07407e-06
4.28657e-06
3.76949e-06
3.9294e-06
4.58148e-06
5.62158e-06
6.85781e-06
8.31697e-06
1.06734e-05
1.09809e-05
1.7462e-05
1.61174e-05
2.53917e-05
2.20133e-05
3.20941e-05
0.00105508
0.00132135
0.00100229
0.00106023
0.00108484
0.0010976
0.00114769
0.00116179
0.00118185
0.00123393
0.00127836
0.00131092
0.00136128
0.0013892
0.00148524
0.00146409
0.00154426
0.00133971
0.00506998
0.0197639
0.00100283
0.00112197
0.000869727
0.000979246
0.0010443
0.00107321
0.00109396
0.00113395
0.00119625
0.00122561
0.00128598
0.00131401
0.00136446
0.00140562
0.00147118
0.00149135
0.00158659
0.00131135
0.00462458
0.019268
0.0010147
0.00119723
0.000930768
0.00100322
0.00105556
0.00107953
0.00112305
0.00115812
0.0011875
0.00123943
0.00128616
0.00130946
0.00137202
0.00140411
0.00149083
0.00147607
0.00161524
0.00136216
0.00407857
0.0187082
0.00107618
0.00119997
0.00091946
0.00100808
0.00105233
0.00106987
0.001095
0.00114732
0.00119765
0.00123732
0.00127427
0.00131665
0.00137473
0.00142051
0.00149191
0.00150966
0.0016055
0.00138095
0.00517878
0.0180241
0.00103853
0.00117788
0.000918497
0.00100329
0.00103946
0.00107211
0.00112988
0.00116099
0.00118725
0.00122276
0.00127691
0.00131612
0.00138054
0.00142401
0.0014964
0.00151873
0.00168673
0.00154027
0.00519867
0.0174694
0.00108483
0.00119678
0.000951691
0.00102696
0.00105679
0.00109731
0.00111337
0.00114577
0.00117086
0.00122929
0.00127167
0.00132749
0.00138788
0.00142513
0.00150319
0.00153998
0.00164876
0.00152698
0.00495764
0.0165647
0.00107735
0.00116521
0.000923014
0.00100759
0.00105268
0.00108077
0.00110646
0.00113946
0.00119023
0.00125913
0.00128575
0.00134323
0.00136392
0.00142325
0.00149781
0.00153641
0.00169648
0.00154521
0.0041142
0.0155271
0.001093
0.00114909
0.000942712
0.00104692
0.00108328
0.00109677
0.00111277
0.00115383
0.00119932
0.00121713
0.00125148
0.00130695
0.00134575
0.00142044
0.00146225
0.00151816
0.00158446
0.0015508
0.00292605
0.0125478
0.00104475
0.00108579
0.000948449
0.0010272
0.00103369
0.00104284
0.00107018
0.00112424
0.00116204
0.00121303
0.0012709
0.00131979
0.00134379
0.00142096
0.0014508
0.00152613
0.00155761
0.00155962
0.00245916
0.0101229
0.00102773
0.00109525
0.000957388
0.00100171
0.00103046
0.00106457
0.00112025
0.00118582
0.00122172
0.00126463
0.00128858
0.00129001
0.0013086
0.00138412
0.00141057
0.00146631
0.00149903
0.00160288
0.00207537
0.00812799
0.00104594
0.00107994
0.000945115
0.00101865
0.00105923
0.00109547
0.00114243
0.00116144
0.00115738
0.0011741
0.00116629
0.00121087
0.00132223
0.00143605
0.00142979
0.0015046
0.00153443
0.0015406
0.00183374
0.00685605
0.00100901
0.0010203
0.000943287
0.0010133
0.00103129
0.00106856
0.0010789
0.00109832
0.0011219
0.00118037
0.00124152
0.00137408
0.00144615
0.00140362
0.00135734
0.00142927
0.00146659
0.00156641
0.00176038
0.0059321
0.000992238
0.00102396
0.000967641
0.00100814
0.00104277
0.00106789
0.00109628
0.00113923
0.00118658
0.00123353
0.00128829
0.00132404
0.00126122
0.00123892
0.00129577
0.0014716
0.00145303
0.00156171
0.00175904
0.00539866
0.000993062
0.00103254
0.000967264
0.00101626
0.00104819
0.00106673
0.00109691
0.00112022
0.00113559
0.00116819
0.00120275
0.00120304
0.00122687
0.00136758
0.0015386
0.0016137
0.00155218
0.00161083
0.00170285
0.00487029
0.000974177
0.00101575
0.000953553
0.00101294
0.0010346
0.00105524
0.00108786
0.00111444
0.00117154
0.00123115
0.00128439
0.00133984
0.001445
0.00150224
0.00152778
0.00143042
0.00145087
0.00160818
0.00155849
0.00421488
0.000945385
0.000994647
0.000940356
0.000993285
0.00102438
0.00105247
0.00110241
0.00114893
0.0012099
0.00124817
0.00128695
0.00131685
0.00134638
0.00135557
0.0013747
0.00143373
0.0016262
0.0016648
0.00157545
0.00406908
0.000948672
0.00100337
0.000956327
0.00102265
0.00106137
0.00109539
0.00114012
0.00117474
0.00120918
0.00121456
0.00123813
0.0012412
0.00126574
0.0013116
0.00137771
0.00147532
0.00148752
0.00150102
0.0017272
0.00401165
0.000918764
0.000965391
0.000922676
0.000981778
0.00100951
0.00102995
0.00106884
0.00109371
0.00113494
0.00117449
0.00123248
0.0012903
0.00137409
0.00143787
0.00148466
0.00153798
0.00161182
0.00168473
0.00180117
0.00301397
0.00091902
0.000993949
0.000956866
0.00102831
0.00106508
0.00109643
0.00113365
0.00116452
0.00120912
0.00124201
0.00129177
0.00135241
0.00138866
0.00143893
0.00143546
0.00146412
0.00157366
0.00154762
0.00149345
0.00199195
0.00094877
0.000981401
0.000954513
0.00101527
0.00103129
0.00105991
0.00109255
0.00113602
0.00116809
0.00123209
0.00125831
0.00130415
0.00131679
0.00137466
0.00141122
0.00151578
0.00142082
0.00167295
0.00173757
0.00178527
0.000854775
0.00095843
0.000907319
0.000767199
0.000747147
0.000747584
0.00077139
0.000766617
0.000751628
0.000799587
0.000813988
0.000847471
0.000923845
0.000828693
0.000561702
0.000149961
0.00356101
0.0108289
0.0127019
0.00823182
0.000868075
0.000968914
0.000953246
0.000844563
0.000785737
0.000756342
0.000764795
0.000787557
0.000835583
0.000806867
0.000834237
0.000856978
0.000912867
0.00098826
0.00080327
0.000472131
0.00164667
0.00999185
0.0133885
0.0103743
0.000879108
0.00100878
0.00100932
0.000870622
0.000825174
0.000796255
0.000806446
0.000770609
0.000804404
0.000880977
0.000859026
0.000900866
0.000941594
0.000985239
0.000926343
0.000339911
0.000721808
0.00910631
0.0136431
0.0126903
0.00086166
0.00101127
0.00106814
0.000919187
0.000842456
0.000806955
0.000836524
0.000868701
0.000856081
0.000834627
0.000896428
0.000917259
0.000944154
0.00107099
0.00104047
0.000672247
0.000286044
0.00789038
0.0138224
0.0151902
0.000877735
0.00101208
0.00109149
0.000980483
0.000905595
0.000845725
0.000841884
0.000817468
0.000891275
0.000944737
0.000910665
0.000962817
0.00101306
0.00106235
0.00109221
0.00084093
0.000261045
0.00557175
0.0137657
0.0162905
0.000868904
0.00103693
0.00115171
0.000989914
0.000919607
0.000887717
0.000918925
0.000924955
0.000883377
0.000903766
0.000966098
0.000992819
0.00103045
0.00111943
0.00117744
0.00104874
0.000178604
0.00426631
0.0135959
0.0176624
0.000843715
0.000974309
0.00115305
0.00104239
0.000965461
0.000898018
0.000892662
0.000897997
0.000966474
0.000981907
0.000965235
0.00101789
0.00106822
0.0011351
0.00119034
0.00110591
0.000360862
0.002565
0.0133795
0.0184529
0.000858504
0.00100736
0.00116619
0.00102363
0.000977425
0.000950392
0.000972811
0.000956128
0.000932057
0.000984469
0.0010227
0.00106696
0.0011029
0.00117882
0.0012316
0.00119913
0.00040319
0.00201645
0.0130014
0.0190337
0.000819606
0.00094772
0.00117296
0.00104712
0.000985211
0.000937449
0.000947809
0.000975415
0.00101135
0.00100756
0.001027
0.00107246
0.00112395
0.00122162
0.00124894
0.00127394
0.000775149
0.00117976
0.0127941
0.0199308
0.000849243
0.00095572
0.00114253
0.00101808
0.000993424
0.000981013
0.0009998
0.00097758
0.000989497
0.00105099
0.00106772
0.00113093
0.00116696
0.00123913
0.00126907
0.00128977
0.0008246
0.00130154
0.0122766
0.0203247
0.000814696
0.000921934
0.00116479
0.0010211
0.000982
0.000965758
0.000990071
0.00102513
0.00103492
0.00103995
0.00108932
0.00112451
0.00117637
0.00128338
0.00128623
0.00137782
0.00108259
0.000872913
0.0120387
0.0208769
0.000834121
0.000897252
0.00111478
0.00099533
0.000996365
0.000997025
0.00101247
0.000997256
0.00104128
0.00109406
0.00110238
0.00117478