/*--------------------------------*- C++ -*----------------------------------*\
  =========                 |
  \\      /  F ield         | OpenFOAM: The Open Source CFD Toolbox
   \\    /   O peration     | Website:  https://openfoam.org
    \\  /    A nd           | Version:  9
     \\/     M anipulation  |
\*---------------------------------------------------------------------------*/
FoamFile
{
    format      ascii;
    class       volScalarField;
    location    "8";
    object      p;
}
// * * * * * * * * * * * * * * * * * * * * * * * * * * * * * * * * * * * * * //

dimensions      [0 2 -2 0 0 0 0];

internalField   nonuniform List<scalar> 
46400
(
36.4348
44.3771
60.2885
73.4108
85.464
96.4973
106.396
115.522
123.777
131.394
138.354
144.805
150.755
156.298
161.499
166.459
171.089
175.677
180.817
183.114
66.4776
74.8649
89.4271
101.448
112.444
122.456
131.416
139.675
147.118
153.977
160.211
165.951
171.206
176.037
180.476
184.583
188.299
191.864
195.382
196.487
97.6234
105.845
118.712
129.782
139.496
148.57
156.538
163.884
170.456
176.472
181.909
186.876
191.394
195.512
199.264
202.701
205.758
208.619
211.346
211.529
128.725
135.978
147.293
157.196
165.9
173.921
181.023
187.49
193.268
198.505
203.208
207.447
211.267
214.699
217.784
220.569
223.018
225.273
227.572
227.469
159.583
165.412
175.351
184.433
192.086
199.213
205.372
210.964
215.895
220.323
224.264
227.781
230.909
233.679
236.129
238.294
240.141
241.809
243.526
242.987
187.695
192.704
202.088
210.19
217.095
223.336
228.738
233.536
237.722
241.418
244.658
247.495
249.992
252.157
254.047
255.682
257.055
258.271
259.609
258.88
215.144
220.208
228.749
236.005
241.894
247.221
251.708
255.632
259.014
261.909
264.43
266.559
268.4
269.939
271.245
272.326
273.173
273.899
274.771
273.84
241.609
247.289
254.569
260.753
265.675
270.045
273.688
276.793
279.403
281.576
283.382
284.853
286.045
286.984
287.711
288.245
288.58
288.817
289.169
287.967
268.142
274.187
279.68
284.681
288.562
291.879
294.635
296.852
298.703
300.13
301.277
302.106
302.707
303.077
303.277
303.302
303.159
302.937
302.803
301.324
293.503
298.968
303.29
306.991
309.957
312.332
314.246
315.693
316.791
317.538
318.021
318.228
318.242
318.031
317.7
317.202
316.592
315.907
315.316
313.588
317.79
321.901
325.154
327.693
329.737
331.215
332.341
333.03
333.462
333.574
333.494
333.179
332.698
332.023
331.21
330.259
329.175
328.047
326.976
324.939
338.672
341.975
344.397
346.143
347.456
348.255
348.717
348.784
348.588
348.104
347.453
346.597
345.633
344.509
343.298
341.962
340.517
339.009
337.562
335.262
357.43
359.961
361.678
362.663
363.322
363.49
363.406
362.961
362.296
361.363
360.254
358.961
357.551
356.027
354.428
352.763
351.018
349.248
347.609
345.126
373.529
375.452
376.684
377.109
377.255
376.864
376.263
375.307
374.18
372.809
371.308
369.631
367.859
365.973
364.026
362.024
359.972
357.916
355.994
353.443
387.255
388.604
389.355
389.297
389.017
388.195
387.206
385.912
384.43
382.741
380.908
378.933
376.859
374.685
372.447
370.14
367.787
365.41
363.151
360.321
399.571
400.194
400.48
399.978
399.188
397.909
396.445
394.71
392.85
390.82
388.698
386.458
384.153
381.769
379.349
376.886
374.38
371.864
369.507
366.547
408.803
408.797
408.711
407.836
406.904
405.513
403.853
401.875
399.736
397.414
395.007
392.493
389.927
387.3
384.649
381.977
379.284
376.592
374.077
371.046
416.294
416.107
415.301
414.105
412.693
411.005
409.123
406.982
404.714
402.252
399.705
397.041
394.332
391.554
388.758
385.937
383.098
380.255
377.585
374.417
420.146
420.137
419.459
418.167
416.606
414.654
412.534
410.187
407.718
405.096
402.399
399.605
396.78
393.901
391.014
388.117
385.209
382.314
379.611
376.438
423.329
422.613
421.763
420.359
418.672
416.656
414.428
411.981
409.426
406.699
403.93
401.037
398.139
395.167
392.21
389.22
386.242
383.253
380.48
377.21
-137.046
-136.928
-136.237
-135.341
-130.805
-125.063
-119.211
-112.702
-106.272
-99.8574
-93.5883
-87.4107
-81.3905
-75.3655
-69.6179
-63.7987
-58.3155
-52.8018
-47.4982
-42.4311
-141.565
-141.056
-141.064
-137.669
-132.199
-125.586
-118.429
-111.474
-104.488
-97.6826
-90.9883
-84.3774
-77.9913
-71.6311
-65.5978
-59.514
-53.8186
-48.0887
-42.6583
-37.439
-148.523
-147.462
-147.373
-141.687
-134.431
-126.879
-118.873
-111.176
-103.463
-96.0074
-88.7281
-81.6432
-74.797
-68.0594
-61.673
-55.2759
-49.349
-43.3429
-37.7688
-32.3493
-158.642
-157.82
-155.564
-148.08
-138.748
-129.378
-120.361
-111.429
-102.934
-94.6924
-86.75
-79.0863
-71.7231
-64.5556
-57.7855
-51.069
-44.865
-38.6065
-32.8827
-27.2595
-171.903
-170.894
-165.068
-155.153
-143.427
-132.255
-121.837
-111.793
-102.191
-93.1201
-84.4308
-76.1394
-68.2367
-60.6209
-53.4483
-46.4024
-39.9317
-33.3975
-27.5186
-21.6804
-183.564
-183.005
-172.922
-160.575
-146.935
-134.114
-122.236
-111.158
-100.691
-90.8272
-81.504
-72.671
-64.2806
-56.2701
-48.7451
-41.4012
-34.6789
-27.9121
-21.9083
-15.8565
-191.313
-191.26
-177.813
-163.022
-148.209
-134.271
-121.256
-109.262
-97.9868
-87.4405
-77.4936
-68.1306
-59.2904
-50.9049
-43.037
-35.4458
-28.4975
-21.5172
-15.3971
-9.17176
-198.147
-194.718
-180.65
-163.252
-147.284
-132.325
-118.455
-105.634
-93.706
-82.6019
-72.208
-62.467
-53.304
-44.67
-36.5793
-28.8145
-21.735
-14.5962
-8.52702
-1.94162
-198.06
-193.272
-178.659
-160.314
-143.136
-127.47
-113.074
-99.7773
-87.4033
-75.9385
-65.2137
-55.1937
-45.8016
-36.9772
-28.7277
-20.8971
-13.7085
-6.55623
-0.467556
6.04166
-191.933
-188.656
-171.987
-153.562
-136.378
-120.319
-105.562
-91.9727
-79.3101
-67.6011
-56.6943
-46.5194
-37.0118
-28.1204
-19.8172
-11.9675
-4.78459
2.32512
8.33922
14.8202
-186.055
-181.587
-164.379
-144.765
-126.948
-110.62
-95.5108
-81.7379
-68.9251
-57.1103
-46.1333
-35.9202
-26.4027
-17.5201
-9.24783
-1.49094
5.64338
12.6342
18.4668
24.88
-175.203
-169.907
-151.591
-132.125
-114.429
-98.2401
-83.1969
-69.4903
-56.7245
-44.9343
-34.0017
-23.8297
-14.3724
-5.55898
2.64407
10.3069
17.3652
24.2367
29.9476
36.4448
-161.193
-155.091
-136.646
-117.358
-99.47
-83.4831
-68.4926
-54.8528
-42.2273
-30.5725
-19.7929
-9.77724
-0.467194
8.21102
16.2967
23.8466
30.8708
37.6779
43.4608
50.1105
-143.805
-137.01
-118.569
-99.8431
-82.2645
-66.5151
-51.8951
-38.5548
-26.2239
-14.8487
-4.35065
5.3883
14.3932
22.7653
30.5279
37.7214
44.3833
50.7777
56.0893
62.4798
-123.824
-116.753
-98.041
-79.6112
-62.4607
-47.2042
-32.9421
-19.9761
-8.01031
3.02868
13.1971
22.6248
31.3424
39.4335
46.935
53.8615
60.3133
66.3998
71.5273
77.7412
-100.957
-93.6844
-74.928
-57.5734
-40.9829
-26.2707
-12.6341
-0.15751
11.293
21.8658
31.5787
40.5731
48.858
56.5469
63.6426
70.1715
76.2453
81.9133
86.6303
92.702
-76.4502
-69.0213
-50.0643
-33.4606
-17.635
-3.5469
9.51529
21.4404
32.3943
42.5005
51.7678
60.3379
68.2171
75.5089
82.2223
88.3752
94.122
99.3056
103.703
109.501
-49.8941
-42.2235
-23.9209
-8.15771
6.84487
20.2342
32.5454
43.8453
54.1531
63.6926
72.4322
80.515
87.9429
94.8165
101.125
106.917
112.324
117.033
121.09
126.7
-22.3797
-14.551
3.24064
18.2355
32.4383
45.1204
56.7564
67.4306
77.1588
86.1424
94.3605
101.966
108.95
115.416
121.349
126.85
131.962
136.288
140.198
146.081
6.69146
14.7792
31.8602
45.6671
58.8331
70.6584
81.3924
91.3245
100.351
108.739
116.441
123.614
130.269
136.503
142.351
147.936
153.172
157.968
163.275
169.39
-17.1174
13.7561
42.8573
60.266
79.4907
90.2515
102.258
109.845
117.146
122.851
127.347
131.734
134.653
137.983
140.101
142.516
144.458
145.46
146.335
146.21
-11.7366
17.6127
46.6189
63.1249
82.1225
92.3764
104.138
111.469
118.557
124.114
128.444
132.728
135.516
138.761
140.751
143.098
144.869
145.901
146.796
146.609
-6.12926
21.7887
50.5958
66.0648
84.7663
94.5072
106.031
113.101
119.981
125.395
129.556
133.731
136.377
139.527
141.389
143.64
145.305
146.386
147.35
147.033
-0.602766
25.885
54.5215
69.0736
87.5248
96.7507
107.991
114.825
121.454
126.726
130.707
134.772
137.281
140.341
142.071
144.238
145.787
146.831
147.812
147.425
5.36989
30.3628
58.6777
72.173
90.2845
99.0294
109.939
116.553
122.931
128.069
131.867
135.821
138.184
141.144
142.735
144.821
146.28
147.245
148.279
147.842
11.3791
34.8045
62.8624
75.4213
93.11
101.424
111.966
118.372
124.465
129.466
133.069
136.912
139.131
141.997
143.447
145.467
146.765
147.665
148.679
148.194
17.9896
39.6241
67.1249
78.7501
95.9547
103.843
113.979
120.189
125.997
130.868
134.279
138.008
140.078
142.838
144.14
146.074
147.189
148.095
149.039
148.543
24.7519
44.6232
71.5256
82.2365
98.8706
106.377
116.071
122.095
127.59
132.326
135.534
139.146
141.07
143.729
144.886
146.744
147.664
148.529
149.347
148.834
32.2651
50.0085
75.9678
85.7903
101.802
108.93
118.149
123.995
129.18
133.784
136.795
140.288
142.063
144.611
145.611
147.38
148.092
148.92
149.627
149.132
39.5611
55.5708
80.6055
89.4987
104.808
111.593
120.306
125.979
130.83
135.296
138.102
141.473
143.102
145.542
146.398
148.066
148.567
149.296
149.881
149.393
47.6767
61.3788
85.259
93.297
107.826
114.272
122.451
127.955
132.48
136.806
139.414
142.66
144.144
146.467
147.162
148.729
149.016
149.662
150.108
149.648
58.8096
67.7587
90.299
97.2099
110.914
117.049
124.671
130.005
134.188
138.366
140.773
143.888
145.231
147.44
147.993
149.437
149.498
150.024
150.308
149.877
68.5992
74.3862
95.9731
101.242
114.018
119.841
126.884
132.047
135.896
139.921
142.134
145.117
146.322
148.409
148.8
150.152
149.968
150.377
150.495
150.097
78.3346
81.3331
102.062
105.448
117.176
122.724
129.172
134.156
137.661
141.523
143.54
146.386
147.456
149.43
149.686
150.936
150.479
150.727
150.648
150.301
89.4596
88.3274
107.28
109.677
120.281
125.592
131.451
136.252
139.428
143.117
144.948
147.655
148.595
150.445
150.55
151.702
151.021
151.093
150.787
150.49
101.069
95.8922
112.448
114.051
123.422
128.499
133.777
138.385
141.23
144.74
146.386
148.951
149.766
151.506
151.492
152.586
151.581
151.428
150.895
150.674
113.564
103.741
117.901
118.67
126.697
131.512
136.184
140.565
143.075
146.385
147.848
150.265
150.956
152.569
152.427
153.527
152.142
151.707
150.988
150.832
125.323
111.017
123.02
123.137
129.876
134.475
138.638
142.806
144.992
148.093
149.368
151.633
152.202
153.695
153.466
154.43
152.665
152.326
151.257
151.056
142.751
119.483
127.731
126.711
132.206
136.697
140.589
144.652
146.615
149.545
150.682
152.828
153.314
154.682
154.379
154.963
153.147
152.32
151.046
151.069
163.278
132.723
135.026
133.755
136.924
140.593
143.453
147.049
148.591
151.252
152.218
154.192
154.552
155.836
155.418
155.863
154.075
151.763
149.584
151.726
195.294
201.984
187.44
185.144
176.712
175.114
169.927
169.746
167.377
167.536
166.251
166.374
165.351
165.805
164.485
165.504
162.967
165.441
157.618
169.63
243.656
234.808
216.627
209.711
198.566
194.334
187.838
184.139
180.028
177.47
175.059
173.742
172.176
171.497
170.056
170.081
167.956
169.214
166.507
169.112
245.018
236.154
225.127
219.008
211.312
206.563
201.554
198.275
194.77
192.346
189.624
187.91
186.065
184.839
183.442
182.59
181.556
180.921
180.271
180.746
246.616
242.179
233.454
227.828
220.964
216.172
210.869
206.994
202.992
199.962
196.914
194.34
191.877
189.968
188.25
186.842
185.861
184.865
184.476
184.24
239.22
233.407
229.086
224.861
220.868
217.142
213.693
210.591
207.695
205.193
202.805
200.844
198.836
197.129
195.486
193.972
192.614
191.283
190.533
190.26
236.845
234.209
231.005
227.669
224.332
221.333
218.037
215.373
212.352
210.01
207.339
205.263
202.936
201.113
199.093
197.501
195.853
194.441
193.55
193.103
230.919
228.624
226.993
224.761
222.685
220.486
218.4
216.339
214.307
212.423
210.459
208.737
206.821
205.192
203.31
201.644
199.803
197.997
196.678
196.092
229.805
228.605
227.332
225.531
224.04
222.396
220.541
218.984
217.002
215.49
213.471
211.988
209.927
208.448
206.293
204.743
202.406
200.714
198.655
198.092
226.936
226.316
225.574
224.754
223.49
222.474
221.175
220.063
218.704
217.563
216.1
214.939
213.299
212.082
210.15
208.774
206.326
204.736
202.135
201.529
226.666
226.388
225.697
225.142
224.363
223.69
222.718
221.973
220.865
220.06
218.827
217.965
216.551
215.612
213.887
212.807
210.429
209.256
206.043
205.726
226.249
226.182
225.949
225.682
225.163
224.812
224.225
223.818
223.17
222.741
222.016
221.567
220.706
220.255
219.097
218.671
216.773
216.73
212.37
213.827
226.451
226.469
226.241
226.25
225.961
225.889
225.555
225.435
225.109
224.972
224.686
224.559
224.329
224.185
223.994
224.018
223.673
224.068
224.498
226.246
227.072
227.323
227.314
227.443
227.418
227.577
227.569
227.751
227.755
228.018
228.116
228.436
228.755
229.155
229.936
230.171
231.743
231.66
234.683
235.406
227.523
227.792
227.856
228.085
228.041
228.332
228.372
228.842
229.014
229.589
229.883
230.613
231.116
232.201
232.888
234.353
235.665
237.723
240.666
241.629
228.223
228.599
228.867
229.257
229.617
230.067
230.442
230.915
231.31
231.977
232.433
233.384
234.146
235.271
236.28
238.165
239.616
242.001
244.112
248.179
228.833
229.07
229.324
229.692
230.027
230.509
230.939
231.513
231.957
232.692
233.164
234.145
234.654
235.963
236.639
238.21
238.981
241.165
241.928
254.233
229.687
230.159
230.45
230.878
231.237
231.692
232.076
232.633
233.118
233.829
234.393
235.335
235.948
237.182
237.589
239.476
239.943
242.36
242.9
245.53
229.763
230.159
230.496
230.961
231.353
231.884
232.336
232.935
233.424
234.113
234.634
235.435
235.955
236.957
237.547
238.72
239.209
241.531
240.809
248.986
230.289
230.666
230.986
231.382
231.781
232.24
232.708
233.231
233.767
234.381
234.961
235.683
236.27
237.115
237.622
238.579
238.95
239.911
240.066
241.34
230.334
230.678
231.041
231.454
231.869
232.348
232.818
233.361
233.882
234.489
235.051
235.725
236.304
237.049
237.603
238.423
238.849
239.778
240.042
245.984
338.165
338.186
337.659
336.4
334.477
332.004
328.627
324.863
320.242
314.936
308.96
302.305
293.904
285.935
276.539
266.294
256.598
246.027
235.302
224.398
311.573
311.82
311.644
311.275
310.507
309.498
308.187
306.525
304.732
302.365
300.079
296.371
291.683
287.708
283.988
281.123
277.036
273.272
268.608
263.248
271.935
272.205
272.31
272.339
272.165
271.966
271.499
271.088
270.317
269.665
268.588
267.634
266.265
265.186
263.725
262.45
260.556
259.001
256.444
254.411
260.323
260.592
260.793
260.935
260.983
260.99
260.851
260.715
260.363
260.108
259.553
259.174
258.555
257.967
257.136
256.466
255.4
254.732
253.486
252.074
243.495
243.732
243.879
244.054
244.112
244.216
244.197
244.225
244.132
244.106
243.928
243.833
243.618
243.449
243.163
242.921
242.56
242.287
241.749
241.553
238.273
238.485
238.671
238.847
238.989
239.133
239.225
239.336
239.375
239.433
239.406
239.426
239.283
239.213
238.985
238.852
238.584
238.479
238.138
238.022
231.709
231.861
232.007
232.126
232.231
232.32
232.379
232.438
232.45
232.479
232.441
232.437
232.37
232.369
232.309
232.301
232.209
232.127
231.93
231.84
229.439
229.606
229.755
229.896
230.02
230.134
230.235
230.323
230.399
230.459
230.513
230.543
230.549
230.565
230.523
230.464
230.375
230.367
230.255
230.243
226.821
226.935
227.041
227.133
227.217
227.292
227.353
227.412
227.451
227.495
227.515
227.545
227.532
227.538
227.515
227.595
227.564
227.534
227.492
227.385
225.864
225.978
226.09
226.193
226.291
226.383
226.475
226.557
226.645
226.711
226.772
226.815
226.861
226.885
226.897
226.903
226.893
226.896
226.856
226.853
225.557
225.671
225.771
225.861
225.946
226.021
226.093
226.158
226.217
226.275
226.324
226.369
226.392
226.407
226.399
226.395
226.367
226.351
226.31
226.285
225.627
225.721
225.811
225.896
225.977
226.053
226.128
226.2
226.268
226.33
226.39
226.435
226.471
226.498
226.519
226.533
226.537
226.539
226.526
226.521
225.98
226.06
226.137
226.211
226.281
226.349
226.413
226.474
226.531
226.585
226.635
226.684
226.735
226.785
226.83
226.876
226.917
226.958
226.991
227.024
226.451
226.527
226.6
226.671
226.74
226.806
226.87
226.931
226.989
227.045
227.097
227.147
227.194
227.239
227.28
227.32
227.356
227.394
227.423
227.46
227.028
227.091
227.154
227.215
227.275
227.335
227.394
227.452
227.509
227.566
227.623
227.679
227.734
227.789
227.843
227.896
227.948
228
228.05
228.102
227.728
227.798
227.867
227.937
228.004
228.073
228.142
228.214
228.288
228.361
228.429
228.489
228.537
228.579
228.615
228.65
228.679
228.71
228.736
228.763
228.031
228.079
228.13
228.181
228.237
228.294
228.356
228.418
228.482
228.55
228.625
228.703
228.785
228.87
228.959
229.051
229.144
229.24
229.336
229.436
228.523
228.566
228.611
228.657
228.704
228.751
228.8
228.852
228.906
228.961
229.019
229.079
229.141
229.203
229.268
229.332
229.399
229.466
229.531
229.602
228.878
228.924
228.972
229.022
229.072
229.124
229.177
229.232
229.288
229.346
229.406
229.469
229.535
229.606
229.695
229.779
229.876
229.965
230.063
230.156
229.017
229.058
229.1
229.145
229.193
229.242
229.295
229.349
229.405
229.462
229.522
229.583
229.646
229.711
229.777
229.846
229.916
229.988
230.062
230.136
153.282
152.062
147.727
143.649
139.705
135.474
131.064
126.385
121.421
116.044
110.287
103.979
97.1687
89.6431
81.5827
72.4538
62.8511
51.8099
39.3798
31.2572
169.478
168.995
165.985
162.928
159.842
156.488
152.873
148.966
144.711
140.101
135.047
129.504
123.443
116.745
109.461
101.256
92.5019
82.5293
71.5047
64.6903
186.923
187.38
185.292
182.915
180.496
177.762
174.75
171.464
167.876
163.905
159.559
154.721
149.418
143.47
136.979
129.521
121.611
112.12
102.096
96.887
204.812
205.472
203.769
201.983
200.126
198.022
195.684
193.099
190.204
186.991
183.387
179.348
174.835
169.739
164.057
157.482
150.293
141.678
132.03
126.763
222.108
223.163
222.052
220.852
219.603
218.112
216.374
214.429
212.178
209.637
206.734
203.456
199.732
195.492
190.687
185.098
178.979
171.434
163.017
157.095
239.326
240.639
239.955
239.248
238.493
237.51
236.36
234.999
233.403
231.558
229.411
226.921
224.036
220.686
216.842
212.303
207.262
200.942
193.911
187.443
255.891
257.411
257.082
256.864
256.581
256.14
255.523
254.766
253.776
252.592
251.109
249.353
247.219
244.744
241.78
238.315
234.406
229.36
224.413
217.804
271.922
273.596
273.602
273.821
273.987
274.004
273.893
273.655
273.222
272.622
271.772
270.696
269.319
267.639
265.544
263.087
260.101
256.44
252.725
246.65
286.615
288.431
288.898
289.506
290.093
290.562
290.933
291.201
291.31
291.286
291.033
290.604
289.861
288.886
287.499
285.835
283.604
281.082
277.93
273.624
300.378
302.44
303.328
304.358
305.368
306.298
307.134
307.89
308.49
308.968
309.215
309.31
309.129
308.76
308.014
307.003
305.516
303.637
301.161
297.734
312.97
315.23
316.531
317.934
319.331
320.641
321.862
322.987
323.981
324.863
325.587
326.194
326.566
326.754
326.564
326.169
325.206
324.065
322.096
319.437
324.584
327.04
328.692
330.44
332.181
333.851
335.451
336.995
338.432
339.808
341.025
342.139
342.975
343.631
343.895
343.999
343.588
342.973
341.614
339.552
335.069
337.728
339.716
341.783
343.841
345.832
347.773
349.64
351.427
353.099
354.639
355.991
357.145
358.127
358.892
359.451
359.554
359.462
358.569
357.132
344.455
347.319
349.544
351.87
354.184
356.447
358.665
360.834
362.934
364.962
366.88
368.691
370.346
371.869
373.139
374.17
374.681
374.979
374.467
373.551
353.301
356.283
358.626
361.121
363.627
366.098
368.549
370.97
373.334
375.633
377.821
379.894
381.781
383.486
384.875
386.024
386.798
387.343
387.117
386.791
360.307
363.42
365.893
368.556
371.24
373.894
376.551
379.168
381.758
384.256
386.691
388.978
391.169
393.152
394.98
396.539
397.838
398.758
399.159
399.133
366.707
369.919
372.477
375.255
378.07
380.852
383.643
386.391
389.104
391.73
394.285
396.709
399.029
401.155
403.115
404.796
406.215
407.27
407.856
407.868
371.196
374.404
377.009
379.853
382.727
385.588
388.456
391.316
394.143
396.942
399.667
402.346
404.877
407.321
409.515
411.541
413.239
414.598
415.488
415.721
374.717
378.043
380.743
383.688
386.658
389.621
392.589
395.542
398.467
401.335
404.142
406.817
409.38
411.723
413.883
415.751
417.351
418.476
419.367
419.393
376.449
379.657
382.423
385.381
388.354
391.321
394.282
397.248
400.167
403.071
405.879
408.643
411.242
413.771
416.031
418.199
419.935
421.583
422.418
423.596
-139.387
-147.287
-155.537
-164.317
-173.247
-182.749
-192.446
-202.67
-213.211
-224.227
-235.735
-247.683
-260.154
-273.359
-286.876
-301.355
-316.348
-327.692
-334.744
-336.314
-132.57
-140.44
-148.609
-157.404
-166.349
-175.892
-185.676
-196.01
-206.71
-217.926
-229.652
-241.892
-254.779
-268.3
-282.345
-297.488
-312.738
-325.524
-336.017
-338.28
-125.123
-132.979
-141.047
-149.841
-158.774
-168.347
-178.18
-188.578
-199.398
-210.782
-222.696
-235.212
-248.408
-262.247
-276.894
-292.555
-308.729
-323.497
-335.723
-337.661
-116.958
-124.764
-132.719
-141.473
-150.392
-159.967
-169.845
-180.301
-191.215
-202.674
-214.784
-227.459
-240.911
-254.995
-270.114
-286.13
-302.624
-319.363
-332.262
-332.282
-108.053
-115.781
-123.578
-132.256
-141.12
-150.656
-160.534
-171.012
-182.011
-193.632
-205.856
-218.803
-232.495
-247.016
-262.558
-279.027
-296.49
-314.832
-328.863
-331.701
-98.152
-105.865
-113.484
-122.098
-130.853
-140.336
-150.168
-160.593
-171.549
-183.107
-195.398
-208.312
-222.12
-236.717
-252.373
-269.116
-287.117
-305.808
-320.768
-323.154
-87.4646
-95.0817
-102.488
-110.977
-119.619
-128.941
-138.711
-149.082
-160.03
-171.632
-183.904
-196.937
-210.817
-225.555
-241.328
-258.371
-276.282
-295.67
-311.454
-314.703
-75.9111
-83.4378
-90.6329
-98.8993
-107.363
-116.496
-126.072
-136.247
-147.006
-158.425
-170.587
-183.464
-197.296
-211.944
-227.862
-244.868
-263.285
-282.973
-299.983
-304.436
-63.4267
-70.8215
-77.7301
-85.7678
-94.0201
-102.915
-112.309
-122.312
-132.924
-144.193
-156.188
-168.947
-182.615
-197.153
-212.877
-229.765
-247.805
-267.417
-284.962
-289.876
-50.0229
-57.2358
-63.8885
-71.6327
-79.6198
-88.2144
-97.3046
-106.989
-117.275
-128.258
-139.95
-152.44
-165.86
-180.133
-195.781
-212.382
-230.534
-250.163
-268.299
-274.116
-35.7222
-42.7766
-49.0853
-56.4981
-64.1614
-72.411
-81.1803
-90.5505
-100.528
-111.166
-122.556
-134.706
-147.777
-161.747
-176.94
-193.148
-210.835
-229.859
-248.117
-254.465
-20.4196
-27.2293
-33.2186
-40.2664
-47.6006
-55.4734
-63.8624
-72.8315
-82.3926
-92.6508
-103.573
-115.329
-127.954
-141.468
-156.3
-172.025
-189.411
-208.246
-226.626
-233.493
-4.38591
-10.9526
-16.5646
-23.1771
-30.0881
-37.5121
-45.4532
-53.97
-63.0681
-72.8219
-83.3087
-94.5512
-106.678
-119.718
-133.989
-149.084
-165.991
-183.884
-202.215
-209.34
12.6276
6.35896
1.12332
-5.04741
-11.5522
-18.5312
-26.0193
-34.0696
-42.6882
-51.9792
-61.9005
-72.6516
-84.1825
-96.6712
-110.28
-124.777
-141.119
-158.152
-176.443
-183.795
30.4598
24.5179
19.6806
14.0124
7.97142
1.48869
-5.49466
-13.0162
-21.0802
-29.7805
-39.1586
-49.2694
-60.2014
-72.0448
-84.9952
-98.8044
-114.456
-130.428
-149.009
-156.4
49.2084
43.5777
39.138
33.9425
28.3508
22.3448
15.8651
8.85013
1.30229
-6.87179
-15.6413
-25.1975
-35.4458
-46.6839
-58.7844
-71.8977
-86.5569
-101.539
-119.845
-127.902
68.715
63.4397
59.4041
54.7412
49.6072
44.0883
38.1071
31.618
24.6359
17.0521
8.86537
-0.0157248
-9.64405
-20.1378
-31.5587
-43.9652
-57.7552
-72.1704
-89.7351
-97.7651
88.8818
84.038
80.4242
76.2516
71.5498
66.4866
60.9997
55.0117
48.5356
41.5064
33.9239
25.6315
16.7164
6.86117
-3.6988
-15.32
-28.1812
-41.5829
-58.2726
-66.4333
110.603
105.51
102.174
98.4448
94.0947
89.3904
84.3253
78.7971
72.8463
66.361
59.3681
51.7379
43.4699
34.3928
24.6192
13.728
1.93935
-10.8397
-26.4422
-34.4036
135.574
130.313
126.006
122.062
117.755
113.131
108.282
103.08
97.5013
91.5116
85.0544
78.0261
70.4426
62.0865
53.1084
43.0871
32.2641
20.4442
6.17128
-2.13968
121.256
120.631
120.027
119.152
116.777
114.762
111.918
108.477
104.259
98.9799
92.631
84.8332
75.0372
63.7004
48.3027
31.6478
6.97503
-18.4494
-58.3399
-100.986
121.235
120.59
120.09
119.037
116.95
114.906
112.198
108.82
104.71
99.477
93.3185
85.6035
76.0544
64.8831
49.7824
33.5684
9.45981
-14.9859
-54.0824
-94.8164
121.343
120.602
120.216
118.98
117.186
115.057
112.489
109.213
105.214
100.006
94.0704
86.3913
77.1234
66.1733
51.4203
35.7611
12.1457
-11.358
-49.4021
-88.1225
121.423
120.663
120.474
118.836
117.431
115.257
112.855
109.658
105.783
100.621
94.9037
87.3248
78.3348
67.5948
53.2128
37.9872
15.0424
-7.37427
-44.4519
-80.8836
121.538
120.785
120.795
118.796
117.684
115.446
113.226
110.15
106.378
101.286
95.785
88.2758
79.611
69.088
55.1237
40.4594
18.1037
-3.11782
-39.0251
-73.059
121.656
120.912
121.085
118.746
118.01
115.819
113.68
110.7
107.041
102.045
96.7678
89.366
81.0114
70.7151
57.2086
42.9866
21.3367
1.4673
-33.342
-64.69
121.798
121.041
121.457
118.768
118.422
116.086
114.162
111.292
107.727
102.832
97.7809
90.475
82.4809
72.403
59.3687
45.7216
24.7513
6.31226
-27.3416
-55.4377
121.928
121.149
121.782
118.852
118.826
116.439
114.695
111.943
108.474
103.733
98.9039
91.7176
84.0617
74.2257
61.7229
48.5032
28.5038
11.324
-20.8156
-45.8949
122.071
121.236
122.102
119.046
119.285
116.832
115.263
112.631
109.252
104.661
100.04
92.9877
85.7144
76.1001
64.1203
51.4867
32.4504
16.5087
-13.6989
-35.7407
122.225
121.34
122.345
119.246
119.726
117.306
115.891
113.373
110.129
105.689
101.284
94.3915
87.4577
78.1084
66.7086
54.546
36.6462
22.0142
-6.17019
-25.2286
122.388
121.434
122.616
119.516
120.184
117.822
116.55
114.144
110.987
106.793
102.551
95.8149
89.2747
80.1597
69.3179
57.7841
41.0455
27.6585
1.65728
-13.9402
122.564
121.508
122.881
119.746
120.66
118.331
117.269
114.99
111.848
107.962
103.916
97.3465
91.1788
82.3198
72.1196
61.1153
45.6439
33.5836
9.8434
-2.15276
122.763
121.571
123.136
120.025
121.221
118.927
118
115.897
112.825
109.183
105.325
98.8865
93.1506
84.5214
74.9565
64.5657
50.4411
39.6405
18.2966
10.3777
122.99
121.574
123.385
120.232
121.785
119.531
118.797
116.843
113.876
110.468
106.793
100.531
95.2007
86.8391
77.951
68.1349
55.4415
45.8795
27.0456
23.4097
123.221
121.487
123.599
120.486
122.393
120.21
119.591
117.766
114.967
111.787
108.303
102.205
97.3095
89.1923
80.9779
71.7912
60.5879
52.1482
35.987
37.1976
123.486
121.436
123.763
120.677
122.87
120.885
120.473
118.786
116.1
113.136
109.838
103.942
99.4637
91.6256
84.0682
75.5474
65.853
58.5153
45.3471
51.7511
123.727
121.198
123.937
120.916
123.809
121.692
121.463
119.942
117.291
114.567
111.467
105.776
101.74
94.1818
87.2978
79.5604
71.4623
65.151
55.195
66.8945
124.271
121.153
124.092
121.143
124.743
122.481
122.304
121.242
118.551
116.064
113.146
107.694
104.096
96.8215
90.5738
83.6545
76.9815
71.2448
64.221
81.3921
124.125
120.862
123.5
121.353
124.942
122.97
122.841
122.381
119.456
117.313
114.516
109.241
106.003
98.8143
93.0564
87.0585
81.3623
76.4877
74.1672
100.976
125.065
119.147
123.765
123.129
126.404
124.392
124.46
123.645
121.159
118.811
116.442
111.528
108.771
102.179
97.3032
92.5079
88.997
86.3804
90.6156
124.572
151.837
123.793
146.04
141.101
142.611
139.339
140.771
136.585
138.672
134.849
136.176
133.796
135.261
133.928
138.566
137.503
146.515
151.849
171.696
168.619
146.112
143.091
146.518
143.379
145.963
144.225
145.883
144.745
146.229
146.138
148.158
148.784
152.253
154.118
160.545
164.646
176.766
183.377
206.805
216.935
160.147
159.583
159.879
161.021
162.038
161.397
162.434
162.324
163.731
164.746
166.766
168.703
172.151
175.594
181.389
187.179
195.739
204.654
217.025
227.423
163.579
163.32
163.846
164.62
165.239
166.321
167.5
169.051
171.037
173.129
175.846
179
182.865
187.185
192.601
198.055
206.008
212.503
223.797
230.094
171.353
171.545
172.229
173.445
174.567
175.871
177.34
178.936
180.802
182.911
185.393
188.213
191.424
195.145
199.197
203.975
208.856
214.599
220.024
227.239
174.1
174.073
174.938
176.363
177.742
179.759
181.508
183.711
185.883
188.414
191.046
194.055
197.193
200.771
204.416
208.599
212.615
217.455
221.854
225.76
178.969
179.32
180.475
182.28
184.143
185.973
187.934
189.829
191.941
194.029
196.348
198.711
201.278
203.955
206.774
209.726
212.751
215.877
218.85
222.69
181.757
182.281
183.659
185.843
187.809
189.868
191.901
193.918
196.037
198.133
200.365
202.654
205.015
207.471
209.927
212.489
215.234
217.876
220.018
221.981
185.858
186.529
188.433
190.423
192.777
194.59
196.689
198.385
200.346
202.035
204.043
205.749
207.666
209.384
211.316
213.157
214.81
216.834
218.554
220.837
190.645
191.152
193.637
195.331
197.751
199.279
201.323
202.77
204.608
206.092
207.711
209.23
210.83
212.471
214.226
215.877
217.472
218.8
220.109
221.144
196.768
197.032
200.002
200.805
203.303
204.331
206.121
207.155
208.672
209.732
211.139
212.221
213.548
214.624
215.674
216.667
217.783
218.918
220.193
221.314
205.074
203.817
207.621
207.724
209.616
210.243
211.488
212.189
213.249
213.949
214.924
215.627
216.645
217.399
218.473
219.319
220.278
220.9
221.635
222.182
218.182
216.403
216.129
215.93
216.316
216.387
216.696
216.962
217.319
217.719
218.183
218.698
219.259
219.814
220.396
220.901
221.528
222.027
222.695
223.193
228.161
227.059
224.445
224.255
222.861
222.636
222.04
221.84
221.72
221.614
221.744
221.755
222.022
222.141
222.491
222.735
223.157
223.47
223.933
224.238
234.694
233.842
230.863
229.388
228.063
226.834
226.218
225.366
225.042
224.568
224.454
224.238
224.282
224.237
224.387
224.457
224.687
224.836
225.129
225.32
240.322
237.532
235.936
233.492
232.331
230.761
229.855
228.834
228.241
227.504
227.153
226.672
226.491
226.228
226.179
226.084
226.137
226.158
226.292
226.384
249.012
237.964
237.008
234.898
233.938
232.277
231.609
230.352
229.878
229.022
228.665
228.099
227.856
227.505
227.356
227.173
227.128
227.052
227.1
227.123
243.184
239.862
238.883
236.613
235.913
234.299
233.537
232.382
231.663
230.815
230.245
229.645
229.229
228.827
228.569
228.323
228.206
228.089
228.017
227.96
246.505
238.515
238.177
236.737
235.954
234.688
233.897
232.854
232.191
231.366
230.838
230.213
229.831
229.375
229.061
228.742
228.56
228.417
228.403
228.382
243.018
240.498
239.718
237.862
236.966
235.562
234.69
233.612
232.838
232.012
231.367
230.75
230.233
229.797
229.469
229.186
228.941
228.741
228.593
228.515
200.536
212.96
224.553
236.256
246.927
257.499
267.459
276.422
285.343
293.585
301.157
307.826
313.952
319.324
324.004
327.947
331.317
333.906
336.029
337.344
241.42
248.167
253.993
259.025
264.317
268.878
273.696
277.634
282.246
287.83
292.576
295.84
298.9
301.495
303.92
305.96