/*--------------------------------*- C++ -*----------------------------------*\
  =========                 |
  \\      /  F ield         | OpenFOAM: The Open Source CFD Toolbox
   \\    /   O peration     | Website:  https://openfoam.org
    \\  /    A nd           | Version:  9
     \\/     M anipulation  |
\*---------------------------------------------------------------------------*/
FoamFile
{
    format      ascii;
    class       surfaceScalarField;
    location    "8";
    object      phi;
}
// * * * * * * * * * * * * * * * * * * * * * * * * * * * * * * * * * * * * * //

dimensions      [0 3 -1 0 0 0 0];

internalField   nonuniform List<scalar> 
92080
(
-0.0031706
-0.494299
0.49747
-0.0286101
-1.00243
1.02787
-0.0704138
-1.10992
1.15172
-0.113763
-1.09242
1.13577
-0.156011
-1.07475
1.117
-0.197838
-1.05647
1.09829
-0.2398
-1.03951
1.08147
-0.281232
-1.0239
1.06533
-0.321857
-1.00986
1.05048
-0.362165
-0.996023
1.03633
-0.402404
-0.983772
1.02401
-0.442013
-0.972133
1.01174
-0.481016
-0.960951
0.999954
-0.519685
-0.950333
0.989001
-0.557519
-0.941294
0.979129
-0.594046
-0.931642
0.968169
-0.629638
-0.92156
0.957153
-0.664722
-0.911153
0.946237
-0.699077
-0.901111
0.935465
-0.894395
0.925903
-0.730585
-0.00400099
-0.490298
-0.0313453
-0.975082
-0.0763692
-1.0649
-0.12255
-1.04624
-0.167623
-1.02968
-0.211524
-1.01257
-0.254151
-0.996881
-0.296881
-0.98117
-0.339192
-0.967548
-0.380894
-0.954321
-0.422482
-0.942183
-0.463917
-0.930698
-0.50491
-0.919958
-0.545852
-0.909391
-0.586521
-0.900626
-0.625947
-0.892216
-0.6638
-0.883708
-0.700007
-0.874945
-0.735123
-0.865995
-0.860294
-0.769223
-0.00637777
-0.48392
-0.0375774
-0.943883
-0.0847352
-1.01774
-0.131595
-0.999384
-0.177551
-0.983721
-0.223239
-0.966878
-0.268294
-0.951826
-0.311984
-0.93748
-0.355614
-0.923919
-0.39874
-0.911195
-0.441156
-0.899768
-0.483112
-0.888742
-0.524544
-0.878526
-0.565542
-0.868393
-0.60659
-0.859579
-0.647379
-0.851426
-0.687754
-0.843333
-0.726745
-0.835954
-0.765477
-0.827263
-0.821025
-0.804746
-0.00805146
-0.475869
-0.0416775
-0.910256
-0.0897548
-0.969661
-0.13882
-0.950318
-0.186754
-0.935787
-0.233445
-0.920187
-0.27984
-0.905431
-0.325782
-0.891538
-0.370444
-0.879257
-0.415332
-0.866307
-0.460064
-0.855036
-0.50442
-0.844386
-0.548286
-0.834659
-0.591719
-0.82496
-0.634862
-0.816435
-0.67738
-0.808909
-0.719713
-0.800999
-0.76107
-0.794597
-0.800994
-0.78734
-0.780526
-0.841493
-0.0102045
-0.465664
-0.0497232
-0.870738
-0.100189
-0.919195
-0.149763
-0.900744
-0.19895
-0.886601
-0.247271
-0.871866
-0.294587
-0.858115
-0.341637
-0.844488
-0.387775
-0.833119
-0.43267
-0.821412
-0.477679
-0.810027
-0.522555
-0.79951
-0.567214
-0.79
-0.611391
-0.780784
-0.65565
-0.772176
-0.699547
-0.765012
-0.743256
-0.75729
-0.787174
-0.750679
-0.829911
-0.744603
-0.738483
-0.871954
-0.00877257
-0.456892
-0.0517028
-0.827808
-0.101763
-0.869135
-0.152529
-0.849978
-0.202893
-0.836237
-0.252773
-0.821985
-0.302224
-0.808664
-0.351088
-0.795625
-0.399744
-0.784463
-0.447141
-0.774016
-0.493732
-0.763436
-0.540216
-0.753025
-0.586434
-0.743783
-0.632486
-0.734732
-0.678191
-0.726471
-0.723706
-0.719497
-0.768569
-0.712426
-0.813552
-0.705697
-0.858544
-0.699611
-0.694067
-0.90296
-0.00816623
-0.448726
-0.0541433
-0.781831
-0.108814
-0.814464
-0.162263
-0.796529
-0.214658
-0.783843
-0.265617
-0.771027
-0.315743
-0.758538
-0.365511
-0.745856
-0.414785
-0.735189
-0.463395
-0.725406
-0.510466
-0.716365
-0.557303
-0.706187
-0.603535
-0.697551
-0.649452
-0.688815
-0.695605
-0.680318
-0.741433
-0.673669
-0.787117
-0.666742
-0.832269
-0.660545
-0.877524
-0.654356
-0.648623
-0.922968
-0.00585368
-0.442872
-0.0520675
-0.735617
-0.107411
-0.75912
-0.162091
-0.741849
-0.216461
-0.729473
-0.269745
-0.717742
-0.321761
-0.706522
-0.373104
-0.694513
-0.424487
-0.683807
-0.47561
-0.674283
-0.525316
-0.666658
-0.573714
-0.65779
-0.622053
-0.649212
-0.668955
-0.641913
-0.716027
-0.633246
-0.762748
-0.626948
-0.808797
-0.620693
-0.854649
-0.614693
-0.899437
-0.609567
-0.603934
-0.944126
-0.00494711
-0.437925
-0.0550288
-0.685535
-0.113706
-0.700442
-0.17027
-0.685285
-0.225846
-0.673897
-0.280089
-0.663499
-0.332877
-0.653734
-0.384301
-0.643089
-0.434983
-0.633125
-0.486078
-0.623187
-0.53685
-0.615886
-0.585688
-0.608952
-0.634303
-0.600597
-0.681979
-0.594238
-0.728987
-0.586237
-0.776935
-0.579
-0.824302
-0.573325
-0.871735
-0.56726
-0.918845
-0.562457
-0.557673
-0.965106
-0.0054232
-0.432502
-0.0579258
-0.633032
-0.118018
-0.64035
-0.17506
-0.628243
-0.231535
-0.617422
-0.287161
-0.607873
-0.341399
-0.599495
-0.394647
-0.589842
-0.446566
-0.581206
-0.497892
-0.571861
-0.55012
-0.563658
-0.600857
-0.558216
-0.650361
-0.551093
-0.699005
-0.545593
-0.745197
-0.540046
-0.79115
-0.533047
-0.83708
-0.527395
-0.882814
-0.521527
-0.928703
-0.516568
-0.511777
-0.974599
-0.0114454
-0.421056
-0.0662151
-0.578263
-0.125912
-0.580653
-0.183847
-0.570308
-0.24038
-0.56089
-0.296454
-0.551799
-0.350504
-0.545445
-0.403164
-0.537181
-0.454969
-0.529402
-0.504964
-0.521865
-0.556063
-0.512559
-0.60777
-0.506508
-0.659022
-0.499841
-0.710958
-0.493657
-0.761584
-0.489421
-0.810342
-0.484288
-0.858043
-0.479694
-0.904973
-0.474597
-0.951251
-0.47029
-0.466158
-0.99687
-0.0187188
-0.402337
-0.074892
-0.522089
-0.134828
-0.520717
-0.192565
-0.512571
-0.24938
-0.504075
-0.306576
-0.494603
-0.363443
-0.488577
-0.418177
-0.482448
-0.47217
-0.47541
-0.52328
-0.470755
-0.572493
-0.463346
-0.621902
-0.457099
-0.670449
-0.451294
-0.719798
-0.444308
-0.770225
-0.438994
-0.820728
-0.433785
-0.870841
-0.429582
-0.920177
-0.42526
-0.969714
-0.420753
-0.417485
-1.01839
-0.0266714
-0.375666
-0.0847988
-0.463962
-0.145384
-0.460132
-0.202752
-0.455204
-0.258157
-0.44867
-0.313005
-0.439756
-0.368374
-0.433208
-0.422875
-0.427946
-0.477967
-0.420318
-0.532801
-0.415921
-0.585455
-0.410692
-0.637195
-0.405359
-0.687136
-0.401352
-0.735412
-0.396033
-0.783422
-0.390983
-0.831394
-0.385813
-0.880097
-0.380879
-0.9282
-0.377157
-0.976487
-0.372466
-0.368652
-1.02532
-0.0331399
-0.342526
-0.0903257
-0.406776
-0.150262
-0.400196
-0.210203
-0.395262
-0.267804
-0.391068
-0.323934
-0.383626
-0.380651
-0.376491
-0.435386
-0.373211
-0.488875
-0.366829
-0.542869
-0.361927
-0.595864
-0.357697
-0.648522
-0.352702
-0.700966
-0.348907
-0.751524
-0.345475
-0.800963
-0.341544
-0.848775
-0.338001
-0.896245
-0.333409
-0.943647
-0.329755
-0.989822
-0.326292
-0.322214
-1.03626
-0.0385523
-0.303974
-0.0957839
-0.349545
-0.155742
-0.340238
-0.21489
-0.336114
-0.27184
-0.334117
-0.325473
-0.329994
-0.380563
-0.3214
-0.436391
-0.317383
-0.49083
-0.31239
-0.545537
-0.307221
-0.599697
-0.303536
-0.652664
-0.299735
-0.706198
-0.295374
-0.759498
-0.292174
-0.812083
-0.28896
-0.86386
-0.286225
-0.913853
-0.283416
-0.963688
-0.279921
-1.01266
-0.27732
-0.274412
-1.06046
-0.0438291
-0.260145
-0.103495
-0.289879
-0.165425
-0.278308
-0.227494
-0.274046
-0.290327
-0.271284
-0.346477
-0.273845
-0.399341
-0.268536
-0.452708
-0.264016
-0.504405
-0.260693
-0.556138
-0.255488
-0.608268
-0.251406
-0.659763
-0.248239
-0.710117
-0.24502
-0.760919
-0.241373
-0.811521
-0.238358
-0.862272
-0.235474
-0.91246
-0.233227
-0.961758
-0.230622
-1.01119
-0.227892
-0.225458
-1.06014
-0.0500617
-0.210083
-0.106343
-0.233598
-0.159758
-0.224893
-0.214404
-0.219399
-0.27587
-0.209818
-0.339226
-0.210489
-0.399138
-0.208624
-0.457219
-0.205935
-0.513142
-0.20477
-0.567022
-0.201608
-0.619698
-0.19873
-0.672947
-0.19499
-0.725091
-0.192876
-0.776319
-0.190145
-0.826976
-0.187701
-0.877369
-0.185081
-0.927346
-0.18325
-0.97655
-0.181418
-1.02471
-0.179733
-0.177819
-1.07235
-0.0657091
-0.144374
-0.130728
-0.168579
-0.19085
-0.164771
-0.242643
-0.167606
-0.292281
-0.160181
-0.347439
-0.155331
-0.40191
-0.154153
-0.456867
-0.150978
-0.512544
-0.149093
-0.567459
-0.146693
-0.620997
-0.145192
-0.673599
-0.142389
-0.725737
-0.140737
-0.777336
-0.138546
-0.827819
-0.137218
-0.87794
-0.13496
-0.927966
-0.133224
-0.977879
-0.131505
-1.02755
-0.130062
-0.128832
-1.07654
-0.0561914
-0.0881826
-0.115324
-0.109446
-0.176532
-0.103564
-0.240641
-0.103496
-0.297418
-0.103403
-0.352811
-0.0999383
-0.408342
-0.0986218
-0.462713
-0.0966069
-0.51714
-0.0946666
-0.570777
-0.0930556
-0.624388
-0.0915807
-0.676923
-0.0898541
-0.729043
-0.0886178
-0.780526
-0.0870626
-0.831681
-0.0860622
-0.881742
-0.0848992
-0.931246
-0.0837205
-0.980244
-0.0825063
-1.02895
-0.0813519
-0.0803647
-1.07742
-0.0479929
-0.0401897
-0.110993
-0.0464463
-0.169542
-0.0450144
-0.231011
-0.042027
-0.292084
-0.0423303
-0.350391
-0.0416316
-0.407385
-0.0416279
-0.46333
-0.040661
-0.517628
-0.0403689
-0.571113
-0.0395709
-0.624083
-0.0386109
-0.676245
-0.0376914
-0.728413
-0.0364496
-0.779636
-0.0358396
-0.830847
-0.0348511
-0.881425
-0.0343221
-0.931339
-0.033806
-0.980818
-0.0330272
-1.02959
-0.0325771
-1.07837
-0.0315886
0.0514663
0.0254315
-0.0768978
0.154546
-0.192908
0.0898284
0.346883
-0.702254
0.509917
0.490797
-1.13462
0.990703
0.560356
-1.33469
1.26513
0.585325
-1.3915
1.36653
0.59407
-1.39889
1.39015
0.598238
-1.39543
1.39127
0.59846
-1.3857
1.38548
0.599215
-1.37753
1.37677
0.59965
-1.37021
1.36977
0.5993
-1.36284
1.36319
0.598376
-1.35635
1.35727
0.596979
-1.34951
1.35091
0.59501
-1.3433
1.34527
0.592807
-1.33573
1.33793
0.590079
-1.32975
1.33248
0.586723
-1.32114
1.32449
0.581801
-1.31254
1.31746
-1.29862
0.576948
1.30347
0.0497338
-0.0243022
0.177676
-0.320851
0.346902
-0.87148
0.451902
-1.23962
0.494547
-1.37734
0.508179
-1.40514
0.513773
-1.40449
0.514361
-1.39602
0.514204
-1.38554
0.514101
-1.37743
0.513265
-1.36937
0.512343
-1.36192
0.511072
-1.35508
0.509355
-1.3478
0.507032
-1.34098
0.504138
-1.33283
0.500466
-1.32608
0.495844
-1.31652
0.490079
-1.30678
-1.29307
0.484525
0.0490442
-0.0733465
0.185424
-0.457231
0.321138
-1.00719
0.396665
-1.31514
0.422492
-1.40316
0.430592
-1.41324
0.43373
-1.40762
0.433521
-1.39581
0.433939
-1.38596
0.433616
-1.3771
0.432783
-1.36854
0.431184
-1.36032
0.428887
-1.35278
0.425838
-1.34475
0.421784
-1.33693
0.417385
-1.32843
0.412346
-1.32104
0.406688
-1.31086
0.400068
-1.30016
-1.28667
0.393674
0.0469886
-0.120335
0.17477
-0.585012
0.284223
-1.11665
0.336082
-1.367
0.351813
-1.4189
0.357906
-1.41933
0.358719
-1.40844
0.358912
-1.396
0.358243
-1.38529
0.356666
-1.37553
0.354102
-1.36597
0.351105
-1.35732
0.34739
-1.34907
0.343082
-1.34044
0.338472
-1.33232
0.333396
-1.32336
0.327625
-1.31527
0.321205
-1.30444
0.314106
-1.29306
-1.27983
0.307263
0.0450204
-0.165355
0.158724
-0.698715
0.244729
-1.20265
0.279521
-1.40179
0.289249
-1.42862
0.292152
-1.42223
0.291394
-1.40768
0.290338
-1.39495
0.288225
-1.38318
0.28531
-1.37261
0.281872
-1.36253
0.277651
-1.3531
0.272944
-1.34436
0.267516
-1.33501
0.26111
-1.32591
0.254346
-1.31659
0.247045
-1.30797
0.239067
-1.29646
0.230431
-1.28442
-1.27134
0.221946
0.047268
-0.212623
0.14016
-0.791607
0.205659
-1.26815
0.227158
-1.42329
0.232072
-1.43354
0.231301
-1.42146
0.229327
-1.40571
0.226517
-1.39214
0.222966
-1.37963
0.218473
-1.36812
0.213084
-1.35715
0.207266
-1.34728
0.200454
-1.33755
0.193131
-1.32769
0.185529
-1.31831
0.177483
-1.30855
0.168941
-1.29943
0.160274
-1.28779
0.151169
-1.27532
-1.26227
0.142096
0.0506211
-0.263245
0.123754
-0.86474
0.171768
-1.31617
0.182537
-1.43406
0.183037
-1.43404
0.179135
-1.41756
0.175004
-1.40158
0.169949
-1.38708
0.163749
-1.37343
0.156855
-1.36122
0.14939
-1.34968
0.141204
-1.3391
0.132874
-1.32922
0.123837
-1.31865
0.114181
-1.30865
0.104406
-1.29877
0.0942865
-1.28931
0.0836705
-1.27718
0.0727677
-1.26441
-1.25143
0.061928
0.0447393
-0.307984
0.103682
-0.923682
0.137118
-1.3496
0.140568
-1.43751
0.136394
-1.42986
0.13013
-1.41129
0.123297
-1.39474
0.115644
-1.37943
0.107584
-1.36537
0.0987665
-1.35241
0.0894567
-1.34037
0.079759
-1.3294
0.0691708
-1.31863
0.058461
-1.30794
0.0474206
-1.29761
0.0359194
-1.28727
0.0242388
-1.27763
0.0127005
-1.26564
0.00079991
-1.25251
-1.23921
-0.0114179
0.0407907
-0.348774
0.0919608
-0.974853
0.113027
-1.37067
0.109876
-1.43436
0.100891
-1.42088
0.0911235
-1.40153
0.0808737
-1.38449
0.0701316
-1.36869
0.0585874
-1.35382
0.0466424
-1.34046
0.0340933
-1.32782
0.02119
-1.31649
0.00823031
-1.30567
-0.00542981
-1.29428
-0.0191138
-1.28393
-0.0326066
-1.27378
-0.0462783
-1.26396
-0.05979
-1.25213
-0.0731926
-1.23911
-1.22573
-0.0866736
0.0338531
-0.382628
0.0747533
-1.01575
0.0837235
-1.37964
0.0745417
-1.42518
0.0620989
-1.40843
0.0494806
-1.38891
0.0364086
-1.37142
0.0229856
-1.35526
0.00933751
-1.34018
-0.00481206
-1.32631
-0.0190162
-1.31362
-0.0336671
-1.30184
-0.0486541
-1.29068
-0.0636567
-1.27928
-0.0793059
-1.26828
-0.095302
-1.25778
-0.111244
-1.24802
-0.127002
-1.23637
-0.142836
-1.22328
-1.21004
-0.15853
0.0268672
-0.409495
0.0586929
-1.04758
0.0616727
-1.38262
0.0487496
-1.41226
0.0331611
-1.39285
0.0173669
-1.37311
0.00108773
-1.35514
-0.0155024
-1.33867
-0.0325112
-1.32317
-0.0498465
-1.30898
-0.0677853
-1.29568
-0.0857386
-1.28389
-0.103888
-1.27253
-0.122273
-1.26089
-0.140375
-1.25018
-0.15848
-1.23968
-0.176655
-1.22984
-0.194471
-1.21855
-0.21228
-1.20547
-1.19217
-0.230144
0.0243036
-0.433798
0.0466392
-1.06991
0.0400821
-1.37606
0.0221933
-1.39437
0.00292716
-1.37358
-0.0162587
-1.35393
-0.0356336
-1.33577
-0.0550917
-1.31922
-0.0746738
-1.30359
-0.0944242
-1.28923
-0.11416
-1.27594
-0.134452
-1.2636
-0.154664
-1.25232
-0.175137
-1.24042
-0.196152
-1.22916
-0.217077
-1.21875
-0.237778
-1.20914
-0.258041
-1.19829
-0.278086
-1.18542
-1.17159
-0.298672
0.0189774
-0.452776
0.0338585
-1.0848
0.0217961
-1.364
0.000415456
-1.37299
-0.0218193
-1.35135
-0.0441209
-1.33163
-0.0665448
-1.31334
-0.0891615
-1.2966
-0.111789
-1.28096
-0.134636
-1.26638
-0.157626
-1.25295
-0.180519
-1.2407
-0.203614
-1.22923
-0.226516
-1.21752
-0.249663
-1.20602
-0.273306
-1.19511
-0.296809
-1.18564
-0.319788
-1.17531
-0.342132
-1.16308
-1.14917
-0.364549
0.0151866
-0.467962
0.0225731
-1.09218
0.00406072
-1.34549
-0.0204956
-1.34843
-0.0454088
-1.32643
-0.0705636
-1.30647
-0.0958629
-1.28804
-0.121109
-1.27135
-0.146443
-1.25562
-0.171778
-1.24104
-0.197248
-1.22748
-0.222884
-1.21507
-0.248137
-1.20397
-0.273061
-1.19259
-0.29763
-1.18145
-0.322295
-1.17044
-0.34682
-1.16111
-0.370599
-1.15153
-0.393357
-1.14032
-1.12657
-0.415959
0.0120812
-0.480044
0.014332
-1.09443
-0.00865937
-1.32249
-0.037721
-1.31937
-0.0666076
-1.29755
-0.0952204
-1.27786
-0.12368
-1.25958
-0.152119
-1.24291
-0.180239
-1.2275
-0.208328
-1.21296
-0.23633
-1.19948
-0.264681
-1.18672
-0.293369
-1.17529
-0.321982
-1.16398
-0.350376
-1.15305
-0.378826
-1.14199
-0.407403
-1.13253
-0.435227
-1.12371
-0.461773
-1.11377
-1.10018
-0.488166
0.00837074
-0.488414
0.00428621
-1.09035
-0.0232999
-1.29491
-0.0541223
-1.28855
-0.0848594
-1.26681
-0.115764
-1.24695
-0.146716
-1.22863
-0.177626
-1.212
-0.208531
-1.1966
-0.239226
-1.18226
-0.26966
-1.16905
-0.299737
-1.15664
-0.329663
-1.14536
-0.359549
-1.13409
-0.389344
-1.12326
-0.419063
-1.11227
-0.448894
-1.1027
-0.478381
-1.09422
-0.506161
-1.08599
-1.0733
-0.53304
0.00586443
-0.494279
-0.00222245
-1.08226
-0.0337563
-1.26337
-0.0687682
-1.25354
-0.103124
-1.23245
-0.137072
-1.21301
-0.170746
-1.19496
-0.204362
-1.17839
-0.237764
-1.1632
-0.27126
-1.14876
-0.304863
-1.13544
-0.338554
-1.12295
-0.371907
-1.11201
-0.404922
-1.10108
-0.437756
-1.09042
-0.47076
-1.07927
-0.504084
-1.06938
-0.537438
-1.06087
-0.569563
-1.05387
-1.04247
-0.600388
0.00268026
-0.496959
-0.0117075
-1.06787
-0.0459422
-1.22914
-0.0824542
-1.21702
-0.118366
-1.19654
-0.154379
-1.17699
-0.190229
-1.15911
-0.225901
-1.14272
-0.26126
-1.12784
-0.296212
-1.11381
-0.331082
-1.10057
-0.366437
-1.08759
-0.401973
-1.07647
-0.43718
-1.06587
-0.471963
-1.05564
-0.506701
-1.04453
-0.541948
-1.03413
-0.577917
-1.0249
-0.613557
-1.01823
-1.00888
-0.647151
0.00120044
-0.49816
-0.0170496
-1.04962
-0.0540091
-1.19218
-0.0934651
-1.17757
-0.132222
-1.15778
-0.170432
-1.13878
-0.208553
-1.12099
-0.246878
-1.10439
-0.285215
-1.0895
-0.323318
-1.07571
-0.360632
-1.06326
-0.397826
-1.0504
-0.435562
-1.03874
-0.473353
-1.02808
-0.510916
-1.01808
-0.548344
-1.0071
-0.586113
-0.996364
-0.624853
-0.986156
-0.665388
-0.977694
-0.969807
-0.704461
-0.000689838
-0.022447
-0.0629033
-0.104698
-0.145482
-0.185972
-0.225488
-0.264547
-0.303564
-0.342942
-0.382191
-0.420849
-0.45963
-0.49871
-0.53766
-0.576596
-0.615806
-0.655726
-0.697954
-0.741858
0.467591
-11.3542
11.4636
0.375127
-10.8611
10.9536
0.298248
-10.67
10.7468
0.240396
-10.4741
10.5319
0.19069
-10.2742
10.3239
0.152479
-10.0867
10.1249
0.119546
-9.92751
9.96044
0.0930816
-9.78279
9.80925
0.0712727
-9.65397
9.67578
0.0535339
-9.54533
9.56306
0.0397873
-9.46251
9.47625
0.0287778
-9.38883
9.39984
0.0203312
-9.32769
9.33614
0.0137611
-9.27567
9.28224
0.00898833
-9.23266
9.23744
0.00660127
-9.16079
9.16318
0.00609305
-8.88739
8.88789
0.00336337
-7.8403
7.84303
-0.0026241
-5.52331
5.5293
-2.34876
2.34613
0.374348
-11.244
0.290313
-10.7771
0.224371
-10.604
0.171073
-10.4208
0.12502
-10.2282
0.0903578
-10.052
0.0612065
-9.89836
0.0386587
-9.76024
0.0212654
-9.63658
0.00790994
-9.53197
-0.00134422
-9.45325
-0.00787276
-9.3823
-0.011792
-9.32377
-0.0139033
-9.27356
-0.0139173
-9.23265
-0.0119812
-9.16273
-0.00740732
-8.89196
-0.00388594
-7.84382
-0.00514673
-5.52205
-2.3539
0.290909
-11.1413
0.203759
-10.6899
0.134019
-10.5343
0.0841843
-10.3709
0.0436234
-10.1876
0.0152045
-10.0236
-0.00776207
-9.87539
-0.0243395
-9.74367
-0.0360404
-9.62488
-0.0439125
-9.5241
-0.0477865
-9.44938
-0.0489868
-9.3811
-0.0475114
-9.32525
-0.0442761
-9.27679
-0.0389595
-9.23797
-0.0315293
-9.17016
-0.0207827
-8.90271
-0.0102958
-7.8543
-0.00658181
-5.52577
-2.36048
0.20177
-11.0358
0.123886
-10.6121
0.062953
-10.4733
0.0165317
-10.3245
-0.0208591
-10.1502
-0.0459502
-9.9985
-0.0651563
-9.85618
-0.0780485
-9.73077
-0.085493
-9.61743
-0.0891065
-9.52049
-0.08865
-9.44984
-0.0854577
-9.3843
-0.0795472
-9.33116
-0.07186
-9.28448
-0.0618335
-9.24799
-0.0497224
-9.18227
-0.0336262
-8.9188
-0.017221
-7.87071
-0.00803583
-5.53495
-2.36852
0.119453
-10.9333
0.0366083
-10.5292
-0.0266968
-10.41
-0.0692361
-10.282
-0.10081
-10.1187
-0.120197
-9.97912
-0.133364
-9.84302
-0.140485
-9.72365
-0.142331
-9.61559
-0.140527
-9.52229
-0.134735
-9.45563
-0.126277
-9.39275
-0.114993
-9.34244
-0.102009
-9.29746
-0.0867455
-9.26326
-0.0688826
-9.20013
-0.0463954
-8.94129
-0.0234108
-7.89369
-0.00813394
-5.55023
-2.37665
0.0362869
-10.8275
-0.0374649
-10.4555
-0.0941024
-10.3534
-0.134956
-10.2411
-0.163655
-10.09
-0.180111
-9.96266
-0.189677
-9.83345
-0.193209
-9.72012
-0.190981
-9.61781
-0.185039
-9.52823
-0.175026
-9.46564
-0.16225
-9.40553
-0.146598
-9.35809
-0.12925
-9.31481
-0.109445
-9.28306
-0.0873141
-9.22226
-0.0593083
-8.96929
-0.0298714
-7.92313
-0.00778827
-5.57231
-2.38444
-0.0441432
-10.7214
-0.124239
-10.3754
-0.181666
-10.296
-0.218509
-10.2043
-0.241742
-10.0667
-0.252799
-9.9516
-0.256616
-9.82963
-0.254563
-9.72217
-0.246906
-9.62547
-0.235635
-9.5395
-0.220389
-9.48089
-0.20243
-9.42349
-0.181571
-9.37895
-0.159085
-9.3373
-0.134113
-9.30803
-0.106318
-9.25006
-0.0719583
-9.00365
-0.0360242
-7.95907
-0.0076044
-5.60073
-2.39205
-0.120911
-10.6119
-0.193869
-10.3024
-0.246448
-10.2434
-0.281834
-10.1689
-0.302739
-10.0458
-0.311284
-9.94306
-0.311595
-9.82932
-0.30604
-9.72773
-0.294487
-9.63702
-0.279216
-9.55477
-0.259882
-9.50022
-0.237737
-9.44563
-0.212639
-9.40405
-0.185918
-9.36402
-0.156633
-9.33732
-0.124434
-9.28226
-0.0845597
-9.04353
-0.0424217
-8.0012
-0.00837185
-5.63478
-2.40042
-0.198424
-10.5002
-0.277961
-10.2229
-0.331034
-10.1903
-0.36256
-10.1374
-0.378213
-10.0302
-0.381859
-9.93941
-0.376761
-9.83442
-0.365833
-9.73866
-0.349062
-9.65379
-0.328615
-9.57522
-0.304218
-9.52462
-0.277039
-9.47281
-0.246931
-9.43416
-0.215251
-9.3957
-0.180887
-9.37168
-0.143145
-9.32
-0.0972106
-9.08946
-0.0488365
-8.04958
-0.0091828
-5.67443
-2.4096
-0.270205
-10.3885
-0.343091
-10.15
-0.393146
-10.1403
-0.423509
-10.107
-0.437234
-10.0164
-0.438677
-9.93797
-0.430178
-9.84292
-0.415808
-9.75303
-0.395308
-9.67429
-0.371014
-9.59951
-0.342681
-9.55295
-0.311481
-9.50401
-0.2773
-9.46834
-0.241504
-9.4315
-0.203069
-9.41012
-0.161135
-9.36193
-0.109894
-9.1407
-0.0554465
-8.10403
-0.0102186
-5.71966
-2.41982
-0.346353
-10.2723
-0.424426
-10.0719
-0.473936
-10.0908
-0.500698
-10.0802
-0.509467
-10.0077
-0.506542
-9.9409
-0.493077
-9.85638
-0.473599
-9.7725
-0.448116
-9.69978
-0.41884
-9.62879
-0.38566
-9.58613
-0.349635
-9.54004
-0.310665
-9.50731
-0.270078
-9.47208
-0.226723
-9.45347
-0.179561
-9.40909
-0.122637
-9.19763
-0.0620031
-8.16466
-0.0112349
-5.77043
-2.43106
-0.410049
-10.1609
-0.485003
-9.99695
-0.532919
-10.0428
-0.559219
-10.0539
-0.566463
-10.0004
-0.561393
-9.94597
-0.544665
-9.87311
-0.521809
-9.79536
-0.492759
-9.72883
-0.459797
-9.66175
-0.422828
-9.6231
-0.382948
-9.57992
-0.340086
-9.55017
-0.295544
-9.51662
-0.248388
-9.50063
-0.197346
-9.46014
-0.135279
-9.25969
-0.0686954
-8.23124
-0.0125422
-5.82658
-2.4436
-0.492932
-10.0325
-0.566073
-9.92381
-0.610215
-9.99871
-0.632471
-10.0317
-0.635019
-9.99788
-0.626059
-9.95493
-0.604856
-9.89432
-0.5772
-9.82302
-0.543411
-9.76262
-0.505701
-9.69946
-0.464112
-9.66469
-0.419613
-9.62442
-0.372164
-9.59762
-0.323068
-9.56572
-0.271238
-9.55246
-0.215364
-9.51601
-0.14798
-9.32708
-0.075455
-8.30377
-0.0138762
-5.88816
-2.45747
-0.546268
-9.90222
-0.623721
-9.84636
-0.66708
-9.95535
-0.689017
-10.0098
-0.689883
-9.99702
-0.678631
-9.96618
-0.654335
-9.91861
-0.62341
-9.85394
-0.586211
-9.79982
-0.544979
-9.74069
-0.499777
-9.70989
-0.451616
-9.67258
-0.400445
-9.64879
-0.347572
-9.61859
-0.292293
-9.60774
-0.232883
-9.57542
-0.160558
-9.3994
-0.0821365
-8.38219
-0.0152589
-5.95504
-2.47273
-0.62381
-9.76657
-0.699997
-9.77017
-0.741176
-9.91417
-0.758324
-9.99261
-0.754465
-10.0009
-0.739717
-9.98093
-0.711434
-9.94689
-0.676039
-9.88934
-0.634372
-9.84148
-0.588655
-9.78641
-0.539099
-9.75945
-0.486596
-9.72508
-0.431128
-9.70426
-0.373879
-9.67584
-0.314066
-9.66755
-0.250336
-9.63915
-0.173214
-9.47652
-0.0890887
-8.46631
-0.0167748
-6.02735
-2.48951
-0.675365
-9.62425
-0.752162
-9.69338
-0.793457
-9.87287
-0.812182
-9.97388
-0.806893
-10.0062
-0.789627
-9.99819
-0.758506
-9.97801
-0.720015
-9.92783
-0.675109
-9.88639
-0.626026
-9.83549
-0.573045
-9.81243
-0.51708
-9.78105
-0.458083
-9.76326
-0.397271
-9.73665
-0.334261
-9.73056
-0.267385
-9.70603
-0.185793
-9.55812
-0.0960571
-8.55605
-0.018345
-6.10507
-2.50785
-0.747496
-9.47714
-0.82462
-9.61625
-0.862533
-9.83496
-0.876056
-9.96036
-0.866829
-10.0154
-0.846525
-10.0185
-0.812
-10.0125
-0.769463
-9.97036
-0.720413
-9.93544
-0.667136
-9.88877
-0.610064
-9.8695
-0.550017
-9.84109
-0.487027
-9.82625
-0.422112
-9.80157
-0.354816
-9.79786
-0.284245
-9.7766
-0.198485
-9.64388
-0.103228
-8.65131
-0.019928
-6.18837
-2.52778
-0.800567
-9.32372
-0.874811
-9.54201
-0.912361
-9.79741
-0.927585
-9.94513
-0.916486
-10.0265
-0.893338
-10.0416
-0.856201
-10.0497
-0.810835
-10.0157
-0.758746
-9.98753
-0.702282
-9.94523
-0.641981
-9.9298
-0.578659
-9.90442
-0.51235
-9.89255
-0.444171
-9.86975
-0.373941
-9.86809
-0.300707
-9.84983
-0.210923
-9.73366
-0.11007
-8.75216
-0.0213435
-6.27709
-2.54912
-0.863572
-9.16461
-0.944851
-9.46073
-0.978339
-9.76392
-0.988577
-9.9349
-0.973718
-10.0414
-0.947239
-10.0681
-0.90662
-10.0903
-0.857396
-10.065
-0.801351
-10.0436
-0.740908
-10.0057
-0.676732
-9.99398
-0.609563
-9.97159
-0.539544
-9.96257
-0.467624
-9.94167
-0.3932
-9.94251
-0.316706
-9.92632
-0.223194
-9.82717
-0.117717
-8.85764
-0.0233897
-6.37142
-2.57251
-0.904747
-9.00172
-0.988053
-9.37742
-1.0215
-9.73047
-1.03284
-9.92356
-1.01751
-10.0567
-0.989024
-10.0966
-0.947188
-10.1321
-0.895617
-10.1165
-0.837144
-10.102
-0.773568
-10.0693
-0.706527
-10.061
-0.636162
-10.042
-0.563188
-10.0355
-0.488291
-10.0166
-0.41133
-10.0195
-0.332341
-10.0053
-0.235483
-9.92403
-0.125107
-8.96801
-0.0250426
-6.47148
-2.59756
8.14835
-8.2428
-8.90727
7.22795
-8.45703
6.34403
-8.84655
5.48237
-9.0619
4.70875
-9.28306
4.02003
-9.40789
3.40929
-9.52139
2.87128
-9.57851
2.40417
-9.63494
2.00197
-9.66705
1.65654
-9.71559
1.35635
-9.74175
1.09069
-9.76989
0.855178
-9.78106
0.641218
-9.80551
0.4434
-9.8075
0.290665
-9.7713
0.198133
-8.87548
0.118511
-6.39186
-2.47904
4.77672
-7.93051
-5.08901
4.44476
-8.12507
4.06844
-8.47024
3.66704
-8.6605
3.26488
-8.8809
2.88073
-9.02373
2.51703
-9.1577
2.18946
-9.25094
1.89667
-9.34215
1.63937
-9.40974
1.39813
-9.47436
1.17229
-9.5159
0.956309
-9.55391
0.760435
-9.58518
0.570612
-9.61569
0.39736
-9.63424
0.203501
-9.57744
0.0888194
-8.7608
-0.0340741
-6.26897
-2.51312
3.43595
-7.9065
-3.45995
3.39599
-8.08511
3.24234
-8.31659
3.06102
-8.47918
2.83788
-8.65776
2.60166
-8.78752
2.35411
-8.91014
2.10954
-9.00637
1.86586
-9.09847
1.62842
-9.1723
1.38944
-9.23538
1.15548
-9.28195
0.93042
-9.32885
0.722791
-9.37755
0.520073
-9.41297
0.328269
-9.44244
0.156073
-9.40524
0.0788834
-8.68361
0.0253797
-6.21547
-2.48774
2.26021
-7.98279
-2.18392
2.27626
-8.10117
2.21536
-8.25568
2.12803
-8.39185
2.0028
-8.53253
1.86039
-8.64511
1.69957
-8.74931
1.53262
-8.83942
1.35823
-8.92409
1.18326
-8.99733
1.01257
-9.06469
0.852131
-9.12151
0.702725
-9.17944
0.552179
-9.22701
0.407936
-9.26873
0.266864
-9.30137
0.119514
-9.25789
0.0604096
-8.62451
0.0621721
-6.21723
-2.42557
1.6842
-8.04032
-1.62667
1.71676
-8.13373
1.72585
-8.26476
1.69608
-8.36209
1.62119
-8.45763
1.5246
-8.54852
1.41212
-8.63683
1.28928
-8.71658
1.15849
-8.7933
1.02198
-8.86082
0.881829
-8.92454
0.740786
-8.98046
0.597534
-9.03619
0.448115
-9.07759
0.302571
-9.12318
0.166307
-9.1651
0.051096
-9.14268
0.00425621
-8.57767
0.0437848
-6.25676
-2.38178
1.2389
-8.10019
-1.17904
1.27949
-8.17431
1.26979
-8.25506
1.24563
-8.33793
1.19712
-8.40912
1.1277
-8.4791
1.04463
-8.55376
0.948856
-8.62081
0.845381
-8.68983
0.733998
-8.74944
0.620634
-8.81118
0.505814
-8.86564
0.390808
-8.92118
0.281831
-8.96861
0.177677
-9.01903
0.0767845
-9.06421
-0.021583
-9.04431
-0.0500984
-8.54915
0.0330353
-6.33989
-2.34875
0.941664
-8.13588
-0.905972
0.954264
-8.18691
0.95087
-8.25167
0.924357
-8.31142
0.889979
-8.37474
0.845261
-8.43439
0.787109
-8.49561
0.717512
-8.55121
0.63506
-8.60738
0.545527
-8.65991
0.448882
-8.71453
0.347622
-8.76438
0.242178
-8.81574
0.134966
-8.8614
0.0289523
-8.91302
-0.0776007
-8.95766
-0.163748
-8.95816
-0.173072
-8.53983
-0.0233799
-6.48958
-2.37213
0.749256
-8.15987
-0.725257
0.763834
-8.20149
0.757914
-8.24575
0.733688
-8.28719
0.694765
-8.33582
0.643594
-8.38322
0.580646
-8.43266
0.508344
-8.47891
0.429812
-8.52884
0.343769
-8.57386
0.254459
-8.62522
0.157363
-8.66729
0.0586609
-8.71704
-0.0419604
-8.76078
-0.145907
-8.80907
-0.251933
-8.85163
-0.344295
-8.8658
-0.333645
-8.55048
-0.114172
-6.70905
-2.4863
0.579245
-8.16398
-0.575136
0.572473
-8.19472
0.555001
-8.22828
0.529745
-8.26194
0.493591
-8.29967
0.446723
-8.33635
0.390256
-8.37619
0.324322
-8.41297
0.25179
-8.45631
0.170707
-8.49278
0.0805058
-8.53502
-0.0147137
-8.57207
-0.116223
-8.61553
-0.220847
-8.65616
-0.328649
-8.70127
-0.444511
-8.73577
-0.540164
-8.77015
-0.54212
-8.54852
-0.256104
-6.99507
-2.7424
0.483498
-8.1603
-0.487186
0.471787
-8.18301
0.450851
-8.20734
0.419388
-8.23047
0.381516
-8.2618
0.33486
-8.28969
0.278037
-8.31937
0.213074
-8.34801
0.136066
-8.3793
0.0533449
-8.41006
-0.0388509
-8.44282
-0.1351
-8.47582
-0.239309
-8.51132
-0.35654
-8.53892
-0.476593
-8.58122
-0.601581
-8.61078
-0.722962
-8.64877
-0.766869
-8.50461
-0.46363
-7.29831
-3.20603
0.377544
-8.14445
-0.393394
0.353642
-8.15911
0.324274
-8.17797
0.290486
-8.19669
0.247442
-8.21875
0.196423
-8.23867
0.139223
-8.26217
0.0747604
-8.28355
0.00351791
-8.30806
-0.0764862
-8.33006
-0.163292
-8.35602
-0.258916
-8.3802
-0.366124
-8.40411
-0.481962
-8.42309
-0.61467
-8.44851
-0.751491
-8.47396
-0.900188
-8.50007
-0.965059
-8.43974
-0.720433
-7.54294
-3.92647
0.305102
-8.12747
-0.322079
0.28326
-8.13726
0.255698
-8.15041
0.221366
-8.16236
0.179512
-8.1769
0.132007
-8.19117
0.0775293
-8.20769
0.0154514
-8.22147
-0.0532945
-8.23931
-0.130017
-8.25333
-0.217857
-8.26818
-0.316511
-8.28154
-0.429378
-8.29124
-0.544808
-8.30766
-0.676471
-8.31684
-0.821504
-8.32893
-0.992391
-8.32919
-1.12637
-8.30576
-0.945229
-7.72408
-4.87169
0.217937
-8.10448
-0.240922
0.190275
-8.1096
0.158591
-8.11873
0.122069
-8.12583
0.0835967
-8.13842
0.0397598
-8.14733
-0.010669
-8.15726
-0.0647317
-8.16741
-0.125531
-8.17852
-0.190961
-8.1879
-0.263842
-8.1953
-0.345035
-8.20035
-0.433088
-8.20319
-0.536551
-8.20419
-0.649638
-8.20376
-0.780527
-8.19804
-0.92787
-8.18184
-1.06444
-8.16919
-0.921859
-7.86666
-5.79355
0.153513
-8.08441
-0.173585
0.131336
-8.08743
0.105945
-8.09334
0.0773169
-8.09721
0.0395401
-8.10065
-0.00258607
-8.1052
-0.0448697
-8.11498
-0.0919777
-8.1203
-0.14297
-8.12752
-0.200641
-8.13023
-0.261904
-8.13403
-0.330171
-8.13208
-0.401725
-8.13164
-0.485613
-8.12031
-0.573187
-8.11618
-0.671128
-8.1001
-0.771309
-8.08166
-0.869941
-8.07056
-0.788258
-7.94834
-6.58181
0.0697812
-8.05994
-0.0942522
0.0441279
-8.06177
0.0170899
-8.0663
-0.0112908
-8.06882
-0.0395613
-8.07238
-0.0690399
-8.07573
-0.100935
-8.08309
-0.135582
-8.08565
-0.173818
-8.08929
-0.215103
-8.08895
-0.259286
-8.08985
-0.306743
-8.08462
-0.355939
-8.08244
-0.402517
-8.07373
-0.453379
-8.06532
-0.504749
-8.04873
-0.557829
-8.02858
-0.620314
-8.00807
-0.590926
-7.97773
-7.17274
0.0319588
-8.04553
-0.0463738
0.0171863
-8.047
0.000380357
-8.04949
-0.0187874
-8.04966
-0.0392426
-8.05192
-0.0619403
-8.05303
-0.0883213
-8.0567
-0.116491
-8.05748
-0.146522
-8.05926
-0.178057
-8.05741
-0.210342
-8.05757
-0.242776
-8.05219
-0.273666
-8.05155
-0.306746
-8.04065
-0.334729
-8.03734
-0.359
-8.02446
-0.368802
-8.01878
-0.376819
-8.00006
-0.356925
-7.99762
-7.52966
-0.0178512
-8.03546
0.00778424
-0.0292664
-8.03558
-0.0422729
-8.03649
-0.0555984
-8.03633
-0.0695676
-8.03795
-0.0851413
-8.03745
-0.102884
-8.03896
-0.121595
-8.03877
-0.141334
-8.03952
-0.161067
-8.03768
-0.180937
-8.0377
-0.199393
-8.03373
-0.218194
-8.03275
-0.235468
-8.02337
-0.248498
-8.02431
-0.2607
-8.01226
-0.26732
-8.01216
-0.27744
-7.98994
-0.270157