/*--------------------------------*- C++ -*----------------------------------*\
  =========                 |
  \\      /  F ield         | OpenFOAM: The Open Source CFD Toolbox
   \\    /   O peration     | Website:  https://openfoam.org
    \\  /    A nd           | Version:  9
     \\/     M anipulation  |
\*---------------------------------------------------------------------------*/
FoamFile
{
    format      ascii;
    class       volVectorField;
    location    "8";
    object      U;
}
// * * * * * * * * * * * * * * * * * * * * * * * * * * * * * * * * * * * * * //

dimensions      [0 1 -1 0 0 0 0];

internalField   nonuniform List<vector> 
46400
(
(8.86424 -8.68077 1.33741e-19)
(18.3207 -17.5673 -2.40492e-19)
(19.9351 -20.0107 -5.35261e-20)
(19.3415 -20.146 -1.25329e-19)
(18.6865 -20.1439 -4.12467e-20)
(18.0136 -20.1543 5.79015e-19)
(17.4076 -20.156 -3.4964e-19)
(16.8335 -20.1985 1.08061e-19)
(16.2898 -20.2233 -1.12762e-19)
(15.7763 -20.2464 1.16806e-19)
(15.2952 -20.2973 -1.202e-19)
(14.8444 -20.337 0)
(14.406 -20.385 8.31936e-19)
(14.0025 -20.4203 -9.42441e-19)
(13.6114 -20.4785 -1.12027e-18)
(13.2361 -20.4858 -1.59136e-19)
(12.8414 -20.4964 -2.70235e-20)
(12.4868 -20.4748 8.68808e-19)
(12.1687 -20.4161 1.15218e-18)
(11.7197 -20.5917 -1.05626e-18)
(9.16648 -8.23424 0)
(18.4913 -16.4439 -2.67888e-20)
(19.9446 -18.5968 0)
(19.1722 -18.6581 4.68564e-19)
(18.5515 -18.7348 -3.82008e-19)
(17.8816 -18.8344 9.60289e-20)
(17.2968 -18.8724 0)
(16.7067 -18.9398 -1.08063e-19)
(16.1932 -19.0241 1.12765e-19)
(15.6785 -19.093 -1.16807e-19)
(15.2053 -19.171 1.17063e-18)
(14.7523 -19.2508 3.48426e-20)
(14.3134 -19.3277 -9.25793e-19)
(13.8977 -19.3966 0)
(13.5234 -19.5027 1.29186e-19)
(13.1639 -19.5835 1.30598e-19)
(12.8023 -19.6542 0)
(12.4594 -19.6752 -1.13046e-18)
(12.1613 -19.682 -2.89582e-19)
(11.7794 -19.8916 1.14962e-18)
(9.42018 -7.73907 2.44683e-19)
(18.4834 -15.3212 -4.07603e-19)
(19.6291 -17.0423 4.14092e-19)
(18.9361 -17.2558 4.89925e-19)
(18.3219 -17.3565 -4.80964e-19)
(17.6665 -17.4889 0)
(17.0843 -17.6121 -1.24988e-18)
(16.5043 -17.7064 1.08537e-18)
(15.9642 -17.8088 -1.30665e-18)
(15.4626 -17.9133 1.28945e-18)
(14.9795 -18.0223 1.18772e-18)
(14.5323 -18.1135 -1.26128e-19)
(14.1035 -18.2266 -1.02258e-18)
(13.6971 -18.3071 0)
(13.3103 -18.4167 1.21478e-18)
(12.961 -18.5164 -1.19632e-18)
(12.6047 -18.629 0)
(12.2834 -18.7087 -1.20624e-20)
(11.9595 -18.7362 1.43163e-19)
(11.5641 -19.0002 -1.2512e-18)
(9.58145 -7.23942 -3.43176e-19)
(18.3858 -14.143 1.01452e-19)
(19.3976 -15.6517 5.61476e-19)
(18.6144 -15.8366 -5.53972e-19)
(18.0117 -16.0099 -4.47109e-19)
(17.3561 -16.1839 5.9612e-19)
(16.7738 -16.3192 7.80572e-19)
(16.2225 -16.5009 -1.91397e-18)
(15.7043 -16.6438 1.58966e-18)
(15.2029 -16.7826 -1.53484e-19)
(14.7434 -16.9453 0)
(14.3022 -17.0899 1.56184e-19)
(13.8757 -17.2363 -1.5695e-19)
(13.4708 -17.3664 0)
(13.0952 -17.5122 1.32474e-18)
(12.7419 -17.6454 -1.1339e-18)
(12.391 -17.7758 0)
(12.0752 -17.9075 1.56659e-19)
(11.7742 -17.9652 1.6658e-19)
(11.3521 -18.2228 1.35275e-18)
(9.67933 -6.70371 0)
(18.1509 -12.9841 0)
(18.8351 -14.1991 -6.63123e-19)
(18.0912 -14.4629 4.75078e-19)
(17.5147 -14.6818 -8.58817e-19)
(16.9073 -14.9172 6.86439e-19)
(16.3362 -15.1181 0)
(15.7761 -15.2855 7.22986e-19)
(15.2741 -15.5043 -8.81044e-19)
(14.7748 -15.6428 -1.88999e-19)
(14.2956 -15.8148 -1.88785e-19)
(13.8627 -15.9679 0)
(13.4487 -16.1518 1.44869e-18)
(13.0544 -16.297 -1.426e-18)
(12.6752 -16.4655 0)
(12.347 -16.6309 -1.59462e-18)
(11.9979 -16.7926 1.40263e-18)
(11.7064 -16.9535 1.40182e-18)
(11.4248 -17.0846 -1.5424e-18)
(11.0368 -17.3687 0)
(9.73952 -6.16918 0)
(17.7494 -11.6837 0)
(18.379 -12.853 0)
(17.6587 -13.1244 -2.34588e-20)
(17.0582 -13.3848 0)
(16.4498 -13.6417 0)
(15.8888 -13.8922 0)
(15.3576 -14.129 -2.07134e-19)
(14.864 -14.3745 0)
(14.4076 -14.6105 1.88998e-19)
(13.9507 -14.8137 -1.61707e-20)
(13.5167 -15.0104 -1.77995e-18)
(13.1042 -15.2066 1.3492e-18)
(12.7174 -15.3998 -1.75403e-18)
(12.3416 -15.5854 1.33132e-18)
(12.0014 -15.7741 0)
(11.6569 -15.9532 -1.51074e-18)
(11.3336 -16.1153 1.29626e-18)
(11.0619 -16.2623 0)
(10.676 -16.5786 -1.98418e-19)
(9.81036 -5.64747 7.56704e-19)
(17.2409 -10.4255 2.13946e-19)
(17.6647 -11.488 8.55871e-19)
(16.8989 -11.8025 -8.68484e-19)
(16.3352 -12.1325 -8.73642e-19)
(15.7628 -12.4386 1.73329e-18)
(15.2144 -12.7276 -1.96066e-18)
(14.685 -12.9761 1.94755e-19)
(14.2009 -13.2595 6.32764e-19)
(13.7511 -13.5049 0)
(13.3091 -13.7566 -1.559e-20)
(12.891 -13.9552 -1.47973e-20)
(12.4958 -14.1932 2.02066e-19)
(12.1207 -14.3778 1.64779e-18)
(11.7625 -14.6001 -1.43709e-18)
(11.4535 -14.8037 -1.83207e-18)
(11.1396 -15.0233 1.59926e-18)
(10.8526 -15.2137 -1.10286e-20)
(10.5806 -15.3721 -2.00608e-19)
(10.2456 -15.7013 -1.44226e-18)
(9.89393 -5.10382 -2.28258e-19)
(16.5905 -9.1745 2.51222e-20)
(16.9059 -10.1283 -2.46444e-19)
(16.2496 -10.5203 -9.7985e-19)
(15.6863 -10.9022 6.92779e-19)
(15.1505 -11.2625 0)
(14.6233 -11.614 1.41998e-18)
(14.1226 -11.9052 -6.89453e-19)
(13.6528 -12.2331 4.64749e-19)
(13.2364 -12.5315 2.38093e-19)
(12.8391 -12.8545 -4.59128e-19)
(12.4305 -13.0898 1.11867e-18)
(12.0481 -13.3576 2.29486e-19)
(11.6894 -13.5894 -1.32392e-18)
(11.3175 -13.802 3.70063e-18)
(11.0015 -14.0344 -1.5056e-18)
(10.6784 -14.2438 1.90962e-18)
(10.3874 -14.4518 -1.25095e-18)
(10.121 -14.6227 4.11212e-19)
(9.77984 -14.9155 1.94751e-18)
(10.0159 -4.57879 1.18518e-18)
(15.888 -8.06394 -2.43787e-19)
(15.9896 -8.90093 -2.25213e-20)
(15.2778 -9.29234 5.17159e-19)
(14.7268 -9.73876 2.47489e-19)
(14.2283 -10.1204 2.64993e-19)
(13.7402 -10.5276 -1.26431e-18)
(13.2611 -10.8404 7.58937e-19)
(12.7924 -11.1752 -2.40644e-19)
(12.3727 -11.4701 -2.38099e-19)
(11.9997 -11.8182 -2.35378e-19)
(11.6428 -12.1085 -2.4571e-19)
(11.2706 -12.3763 -4.71537e-19)
(10.958 -12.6575 1.63484e-18)
(10.6166 -12.8892 -2.29038e-18)
(10.3301 -13.1447 -2.30847e-19)
(10.0607 -13.4089 1.02655e-20)
(9.79243 -13.6374 -1.73984e-18)
(9.56714 -13.8669 1.29344e-18)
(9.27853 -14.1891 -2.02938e-18)
(10.0802 -4.13422 1.03512e-18)
(14.9577 -6.90686 -2.53233e-18)
(14.9104 -7.72052 1.6768e-18)
(14.3919 -8.19307 -2.69113e-19)
(13.8815 -8.68649 -2.8566e-19)
(13.4321 -9.1177 1.11647e-18)
(12.9872 -9.56853 -1.35853e-18)
(12.5648 -9.9379 0)
(12.1496 -10.3321 1.0562e-18)
(11.7429 -10.6426 -1.03857e-18)
(11.3853 -11.0092 -7.62293e-19)
(11.0698 -11.3508 9.95733e-19)
(10.7208 -11.6511 2.42043e-19)
(10.4184 -11.9469 -9.75719e-19)
(10.0936 -12.2056 2.35852e-19)
(9.76658 -12.4179 1.17575e-18)
(9.48703 -12.6663 -2.0816e-18)
(9.21594 -12.8837 1.3711e-18)
(8.97434 -13.0925 -8.60041e-21)
(8.70679 -13.4045 -1.88196e-18)
(10.0539 -3.72718 1.3919e-18)
(13.9758 -5.92909 -9.09744e-19)
(13.7724 -6.67997 6.08411e-19)
(13.2467 -7.15195 8.34155e-21)
(12.7501 -7.6808 -1.19108e-18)
(12.3249 -8.11724 -1.14838e-18)
(11.9245 -8.6142 1.42234e-18)
(11.5221 -8.9774 -8.40247e-19)
(11.1328 -9.39611 1.10983e-18)
(10.7687 -9.72539 0)
(10.3889 -10.0652 1.18496e-20)
(10.1166 -10.429 2.58019e-19)
(9.81119 -10.7764 2.64404e-19)
(9.55443 -11.1101 -2.59569e-19)
(9.32292 -11.4702 0)
(9.06714 -11.7506 2.50093e-19)
(8.81825 -12.0418 0)
(8.58176 -12.2838 4.73388e-19)
(8.36804 -12.5288 2.32063e-18)
(8.12479 -12.8255 -8.97446e-21)
(9.80898 -3.28532 7.49022e-19)
(12.8174 -5.00296 -1.54132e-19)
(12.5917 -5.75744 -2.24171e-18)
(12.1974 -6.27564 1.25645e-18)
(11.7845 -6.84872 3.02432e-19)
(11.3936 -7.30629 -2.98017e-19)
(11.0667 -7.86262 -1.2022e-18)
(10.7345 -8.29613 8.9275e-19)
(10.389 -8.74815 0)
(10.0854 -9.14219 0)
(9.71988 -9.48113 -1.39204e-18)
(9.41618 -9.80713 1.09978e-18)
(9.11591 -10.1387 -2.64438e-19)
(8.81471 -10.4247 -7.96096e-19)
(8.56326 -10.76 3.84925e-21)
(8.32784 -11.0692 1.78527e-18)
(8.10528 -11.391 -1.00041e-18)
(7.87733 -11.6723 7.36275e-19)
(7.67285 -11.9404 -1.19925e-18)
(7.45965 -12.288 0)
(9.35541 -2.82299 -6.3778e-19)
(11.6384 -4.19662 1.01203e-18)
(11.3064 -4.93922 1.71079e-19)
(10.9337 -5.46855 1.6826e-19)
(10.5291 -6.03834 0)
(10.1294 -6.48167 1.2754e-18)
(9.78986 -6.99902 -1.25296e-18)
(9.50821 -7.45997 1.56322e-19)
(9.18779 -7.91465 0)
(8.96735 -8.37664 1.18153e-18)
(8.69548 -8.79963 -1.01489e-18)
(8.4429 -9.17372 1.13533e-18)
(8.20692 -9.55451 -1.11731e-18)
(7.94811 -9.86192 1.09055e-18)
(7.70834 -10.1795 -9.37998e-19)
(7.47605 -10.4657 -1.04745e-18)
(7.27284 -10.773 2.05836e-18)
(7.08589 -11.0663 -8.83759e-19)
(6.8831 -11.3167 1.2517e-19)
(6.6957 -11.667 1.03647e-18)
(8.70449 -2.35113 -5.01768e-19)
(10.316 -3.43117 5.3152e-19)
(10.0303 -4.1657 -1.71101e-19)
(9.82869 -4.76074 -1.68259e-19)
(9.54763 -5.41661 0)
(9.22368 -5.89856 0)
(8.92276 -6.44911 0)
(8.66552 -6.93481 -3.17509e-19)
(8.33631 -7.38121 -1.2439e-18)
(8.07781 -7.81053 2.44153e-18)
(7.83475 -8.24966 -1.34567e-18)
(7.59622 -8.63521 -1.48259e-19)
(7.40078 -9.04478 0)
(7.19416 -9.40854 0)
(6.98678 -9.74654 -2.74851e-19)
(6.78058 -10.0636 0)
(6.56174 -10.344 1.05252e-18)
(6.38814 -10.6428 -1.29528e-18)
(6.20656 -10.8922 -1.13501e-18)
(6.00971 -11.1946 1.06913e-18)
(7.89638 -1.89716 5.16327e-19)
(9.11446 -2.79321 9.17132e-19)
(8.71131 -3.51883 6.45149e-22)
(8.38208 -4.07639 -3.07075e-22)
(8.13107 -4.73152 1.75041e-19)
(7.83669 -5.22492 -5.09488e-19)
(7.51758 -5.72061 0)
(7.35959 -6.25212 -4.91303e-19)
(7.13551 -6.73875 1.64435e-19)
(6.92806 -7.19543 6.28086e-19)
(6.737 -7.65789 6.11859e-19)
(6.52652 -8.07105 -4.53711e-19)
(6.33163 -8.47499 1.17182e-18)
(6.17608 -8.88465 -1.00833e-18)
(6.01024 -9.26091 1.26124e-18)
(5.86933 -9.63438 -2.34225e-18)
(5.70525 -9.96971 1.08178e-18)
(5.54536 -10.2834 1.30593e-19)
(5.41867 -10.5846 1.02974e-18)
(5.25955 -10.9094 -1.09222e-18)
(6.91858 -1.46675 1.77592e-19)
(7.69114 -2.24201 -1.85734e-19)
(7.32379 -3.00981 7.41967e-19)
(7.20793 -3.6355 -7.27735e-19)
(7.08562 -4.36598 -3.55986e-19)
(6.95334 -4.97767 -8.69322e-19)
(6.64408 -5.45425 2.75681e-21)
(6.39706 -5.94186 6.70204e-19)
(6.17936 -6.40135 -1.61818e-19)
(5.94851 -6.82613 0)
(5.77351 -7.25782 0)
(5.62398 -7.67839 0)
(5.43885 -8.06294 0)
(5.27543 -8.43251 2.42037e-21)
(5.12719 -8.80517 0)
(4.9841 -9.1509 1.38972e-19)
(4.86572 -9.50905 5.47003e-19)
(4.72101 -9.82301 -1.60977e-18)
(4.5938 -10.1214 1.1875e-18)
(4.4682 -10.468 -1.1017e-18)
(5.85225 -1.12355 0)
(6.35542 -1.82838 -9.71702e-20)
(5.90705 -2.48678 0)
(5.62637 -2.99957 2.77035e-19)
(5.38814 -3.62307 -1.83863e-19)
(5.43667 -4.32833 -7.09922e-19)
(5.30128 -4.94547 3.13465e-21)
(5.15225 -5.50712 6.82411e-19)
(5.04516 -6.03849 -6.63724e-19)
(4.87035 -6.51685 1.30148e-18)
(4.70177 -6.95652 -3.96344e-21)
(4.55744 -7.38588 -6.23935e-19)
(4.45198 -7.814 6.06001e-19)
(4.31278 -8.19524 -7.44079e-19)
(4.19022 -8.57481 0)
(4.07793 -8.92447 -5.66508e-19)
(3.97026 -9.27843 5.58033e-19)
(3.88216 -9.60402 0)
(3.77684 -9.90359 -1.32305e-19)
(3.67358 -10.2271 0)
(4.47685 -0.846303 9.86939e-20)
(4.96775 -1.72833 9.73242e-20)
(4.8242 -2.46049 0)
(4.69459 -3.09074 3.75075e-19)
(4.32841 -3.54855 -4.62044e-19)
(4.16783 -4.09194 2.69264e-19)
(4.06924 -4.65903 -7.93754e-19)
(3.95627 -5.15796 3.45654e-19)
(3.8766 -5.69319 -8.45589e-20)
(3.77657 -6.17996 0)
(3.69044 -6.65789 -8.07424e-20)
(3.54448 -7.08349 -7.88977e-20)
(3.442 -7.50696 -7.71032e-20)
(3.3513 -7.904 0)
(3.2601 -8.28906 -5.8541e-19)
(3.15778 -8.63975 1.22082e-18)
(3.08938 -8.99702 -1.0529e-18)
(3.00792 -9.32931 5.51312e-19)
(2.95635 -9.64639 6.73608e-20)
(2.88506 -9.99202 5.63054e-19)
(2.68675 -0.489767 -1.50338e-19)
(3.26972 -1.25755 -1.98085e-19)
(3.09916 -1.95068 4.56061e-22)
(3.26139 -2.68228 5.22704e-19)
(3.16124 -3.38113 -1.40465e-19)
(2.99742 -3.88609 -9.08931e-20)
(2.94505 -4.50179 8.94954e-20)
(2.82303 -4.98006 1.74233e-19)
(2.72467 -5.52463 8.45642e-20)
(2.63107 -5.97459 -3.30587e-19)
(2.56612 -6.46742 3.65313e-19)
(2.50464 -6.89059 7.88996e-20)
(2.4564 -7.32956 3.85358e-19)
(2.37491 -7.71824 -2.21259e-21)
(2.33747 -8.11702 3.48051e-20)
(2.26993 -8.47655 -6.49667e-19)
(2.19471 -8.82912 1.77702e-19)
(2.13673 -9.15978 0)
(2.06587 -9.46398 -3.35532e-20)
(2.0204 -9.80394 -2.82989e-19)
(1.65561 -0.267293 1.56724e-20)
(2.10791 -1.02725 -9.97037e-20)
(1.93238 -1.76583 1.9543e-19)
(1.71285 -2.3878 -4.80321e-20)
(1.75219 -3.13109 -4.705e-20)
(1.69784 -3.70507 0)
(1.63515 -4.33188 -8.90387e-20)
(1.61702 -4.83879 1.74477e-19)
(1.57442 -5.3991 -8.54992e-20)
(1.55259 -5.84026 8.29696e-20)
(1.50441 -6.34293 -4.10199e-20)
(1.44751 -6.74883 -7.91527e-20)
(1.39912 -7.19865 1.55213e-19)
(1.37314 -7.58424 -1.5165e-19)
(1.32961 -7.98398 3.73838e-20)
(1.31151 -8.34926 2.56974e-34)
(1.30032 -8.71147 -3.51659e-20)
(1.27255 -9.04797 2.07374e-19)
(1.26231 -9.35944 -1.02295e-19)
(1.23297 -9.70028 -7.15219e-20)
(0.469516 1.30787 3.29242e-20)
(0.850123 -3.38276 1.60197e-20)
(3.31323 -15.1131 0)
(5.78834 -26.7196 1.52659e-20)
(6.99346 -32.5933 1.45823e-20)
(7.31697 -34.4286 1.35095e-20)
(7.34243 -34.7435 0)
(7.30542 -34.7109 1.09531e-20)
(7.18768 -34.5002 0)
(7.08271 -34.3012 0)
(6.97753 -34.1377 -8.93839e-21)
(6.87848 -33.9445 1.20892e-21)
(6.75776 -33.812 1.64628e-20)
(6.66649 -33.6232 0)
(6.52227 -33.4673 6.38856e-21)
(6.45335 -33.3045 5.73717e-21)
(6.28233 -33.1589 5.13849e-21)
(6.23556 -32.9493 0)
(6.04244 -32.7593 -8.00082e-21)
(5.97065 -32.4143 7.62946e-21)
(0.318546 -0.000450606 5.04727e-20)
(1.30809 -6.17857 -8.11698e-20)
(4.51881 -19.7349 0)
(6.76062 -29.565 -7.58922e-20)
(7.65483 -33.6234 7.31454e-20)
(7.8475 -34.6105 -1.18805e-19)
(7.82147 -34.6522 4.83538e-20)
(7.74922 -34.5198 3.2424e-20)
(7.61976 -34.2546 -1.50915e-19)
(7.5215 -34.0551 8.28392e-20)
(7.41014 -33.8618 -9.29697e-21)
(7.30689 -33.6934 6.43714e-20)
(7.19101 -33.5111 -4.9722e-21)
(7.10411 -33.3647 -5.7452e-20)
(6.96523 -33.2213 -6.38857e-21)
(6.89707 -33.0104 -5.73708e-21)
(6.72155 -32.8706 -5.13843e-21)
(6.67534 -32.6529 0)
(6.46049 -32.4287 -2.85045e-20)
(6.39991 -32.0824 3.53715e-21)
(0.209546 -1.16518 -3.63877e-20)
(2.11972 -9.6243 0)
(5.56895 -23.173 0)
(7.63378 -31.4653 -3.26241e-20)
(8.24857 -34.191 2.97447e-20)
(8.34567 -34.584 0)
(8.30696 -34.5197 -2.43897e-20)
(8.19271 -34.2442 6.61613e-20)
(8.09408 -34.0015 -6.77855e-20)
(7.9905 -33.809 7.56972e-20)
(7.89429 -33.6141 -9.21257e-20)
(7.78446 -33.4259 0)
(7.6792 -33.2825 -5.57308e-20)
(7.56965 -33.0793 -4.47739e-20)
(7.43341 -32.9023 8.67934e-20)
(7.33935 -32.717 -7.78911e-20)
(7.16775 -32.5457 6.80823e-20)
(7.10085 -32.2918 0)
(6.88278 -32.0616 -5.61933e-20)
(6.81756 -31.73 8.88692e-20)
(0.281334 -2.4651 1.85698e-19)
(3.0058 -12.7969 0)
(6.63004 -26.0979 7.29924e-20)
(8.47365 -32.8575 9.38994e-20)
(8.86303 -34.4458 -1.91293e-19)
(8.90216 -34.5353 5.5643e-20)
(8.82996 -34.332 2.49946e-20)
(8.71854 -34.0353 2.52661e-19)
(8.61267 -33.8086 -3.43371e-19)
(8.51086 -33.5787 -2.5211e-20)
(8.38704 -33.3684 1.6391e-19)
(8.27589 -33.1683 3.07645e-20)
(8.14587 -32.9599 -1.33622e-19)
(8.03749 -32.7841 1.2868e-19)
(7.88863 -32.6009 3.23083e-20)
(7.79994 -32.3801 -1.81386e-20)
(7.6163 -32.2209 2.41764e-20)
(7.55887 -31.977 0)
(7.31403 -31.7231 -4.46123e-21)
(7.26885 -31.3887 0)
(0.438371 -3.55098 0)
(4.08912 -15.7257 3.09569e-19)
(7.71231 -28.1867 -3.79717e-19)
(9.32122 -33.5482 3.39435e-19)
(9.55844 -34.4794 -2.61814e-19)
(9.54286 -34.4057 -5.51673e-20)
(9.42497 -34.0858 0)
(9.30568 -33.7903 1.34112e-19)
(9.18463 -33.5057 -1.7833e-19)
(9.05382 -33.2773 1.8396e-19)
(8.93693 -33.0404 -1.43093e-19)
(8.80182 -32.8403 -3.07639e-20)
(8.68475 -32.6694 1.27829e-19)
(8.54804 -32.4467 -2.10573e-19)
(8.40629 -32.2642 1.21396e-19)
(8.28393 -32.0644 -3.98589e-20)
(8.10432 -31.8719 -6.93107e-20)
(8.0102 -31.5909 1.40973e-19)
(7.76309 -31.3463 -7.59757e-20)
(7.70022 -31.0282 -5.90194e-20)
(0.795596 -4.65111 3.42638e-19)
(5.26818 -18.0609 3.28281e-19)
(8.87146 -29.8444 -3.25399e-19)
(10.219 -34.0449 -7.347e-20)
(10.3192 -34.4094 6.35643e-20)
(10.2273 -34.1747 2.2046e-19)
(10.0661 -33.8048 -2.21152e-19)
(9.9387 -33.4993 0)
(9.79207 -33.2383 1.59601e-19)
(9.65913 -32.9797 -1.56927e-19)
(9.5071 -32.7569 -1.24248e-19)
(9.36799 -32.5309 1.22232e-19)
(9.21321 -32.3103 0)
(9.06946 -32.1124 0)
(8.89986 -31.893 1.55614e-19)
(8.77327 -31.667 -1.50562e-19)
(8.57604 -31.4948 -9.17964e-20)
(8.48642 -31.2256 9.04271e-20)
(8.2131 -30.96 -5.3771e-20)
(8.16647 -30.6328 6.34719e-20)
(1.34968 -5.74105 -2.65092e-19)
(6.44623 -19.8475 1.01564e-19)
(10.0877 -30.8117 2.58742e-20)
(11.1148 -34.0186 3.83457e-19)
(11.1412 -34.1548 0)
(10.9792 -33.8324 0)
(10.7941 -33.4752 3.97691e-19)
(10.6247 -33.1542 -3.94475e-20)
(10.452 -32.8475 -3.45382e-19)
(10.2709 -32.5893 2.70268e-19)
(10.1052 -32.3225 -2.6582e-19)
(9.92904 -32.1157 0)
(9.77186 -31.9099 1.71936e-19)
(9.59556 -31.6769 -1.69232e-19)
(9.42836 -31.4939 0)
(9.27077 -31.2859 0)
(9.07161 -31.0839 0)
(8.94603 -30.8062 0)
(8.66698 -30.5617 0)
(8.60195 -30.2464 -4.37518e-21)
(2.24498 -7.03288 0)
(7.48329 -21.1597 -3.52783e-19)
(11.3374 -31.5458 0)
(12.0542 -33.9574 0)
(11.9641 -33.8379 5.55086e-19)
(11.7357 -33.4129 6.36272e-21)
(11.5153 -33.0534 -4.82518e-19)
(11.3108 -32.7245 0)
(11.1022 -32.4288 3.77192e-20)
(10.9113 -32.1571 -3.24669e-20)
(10.7151 -31.9265 0)
(10.5292 -31.6859 2.33146e-20)
(10.3396 -31.4765 -1.72189e-19)
(10.1517 -31.2637 2.90909e-19)
(9.95443 -31.0305 -2.39689e-20)
(9.78305 -30.8175 -9.73726e-20)
(9.57004 -30.6446 -6.49567e-21)
(9.43726 -30.3641 3.81875e-21)
(9.13055 -30.1125 0)
(9.06393 -29.7857 -7.19806e-22)
(2.71282 -7.54626 9.91016e-21)
(8.65835 -22.1487 1.38188e-19)
(12.4914 -31.6626 -5.23374e-19)
(13.0515 -33.4662 1.4138e-19)
(12.836 -33.2725 5.94298e-20)
(12.5686 -32.8822 4.74103e-19)
(12.3015 -32.5312 -6.37891e-19)
(12.0527 -32.2039 4.42049e-19)
(11.8063 -31.9086 -3.09893e-19)
(11.5631 -31.6405 3.58875e-19)
(11.3339 -31.3762 4.91041e-20)
(11.1062 -31.1741 1.7712e-19)
(10.8933 -30.948 -1.05956e-19)
(10.6697 -30.732 -1.41566e-19)
(10.4631 -30.5531 1.17695e-19)
(10.2605 -30.3444 0)
(10.0382 -30.1512 1.32737e-20)
(9.87243 -29.899 -2.29104e-21)
(9.56584 -29.6585 2.80096e-21)
(9.4899 -29.3361 -6.63335e-21)
(3.22931 -8.74625 -3.46673e-19)
(9.95539 -22.9249 3.27471e-19)
(13.6023 -31.7264 -6.58249e-21)
(13.9429 -33.0029 -2.76815e-19)
(13.6473 -32.6835 -2.4097e-19)
(13.317 -32.2648 -1.08737e-19)
(13.0074 -31.9221 -7.57169e-21)
(12.7223 -31.6044 -8.12387e-20)
(12.439 -31.3031 0)
(12.1749 -31.0458 -5.87819e-20)
(11.9232 -30.8141 -4.91028e-20)
(11.6788 -30.5866 -7.63739e-21)
(11.4455 -30.4004 9.40629e-20)
(11.2068 -30.1803 -5.75275e-20)
(10.9712 -29.9706 -6.64182e-20)
(10.754 -29.7926 4.73421e-20)
(10.5167 -29.6324 -3.14645e-21)
(10.3305 -29.3837 -5.10546e-21)
(9.99937 -29.1655 -2.80096e-21)
(9.90626 -28.8368 -9.11672e-20)
(3.8162 -9.09052 -8.48514e-19)
(11.0048 -23.3807 8.5146e-19)
(14.6356 -31.2865 -8.71567e-19)
(14.8361 -32.2262 6.95849e-19)
(14.4598 -31.904 5.40029e-19)
(14.1206 -31.5404 -4.17072e-19)
(13.7581 -31.2111 -4.69422e-19)
(13.4333 -30.9056 4.50567e-20)
(13.1139 -30.6394 2.51029e-19)
(12.8062 -30.3832 -1.2737e-19)
(12.5143 -30.1531 2.98608e-19)
(12.2323 -29.9617 -1.62758e-19)
(11.962 -29.7528 -2.47262e-20)
(11.6907 -29.5671 2.361e-20)
(11.4363 -29.3848 -5.67522e-20)
(11.1838 -29.1901 1.60137e-20)
(10.9311 -29.0248 0)
(10.7202 -28.8082 8.97965e-20)
(10.3785 -28.5978 -8.84944e-20)
(10.2743 -28.2933 1.33326e-19)
(4.47802 -9.61761 1.63824e-19)
(12.1955 -23.5896 1.94011e-19)
(15.6533 -30.8463 7.36075e-19)
(15.6808 -31.4458 5.61577e-19)
(15.2254 -31.0929 -3.44485e-19)
(14.8206 -30.7162 3.98241e-19)
(14.4186 -30.4124 -2.35881e-19)
(14.0521 -30.1323 2.13927e-19)
(13.6981 -29.8559 -3.79678e-19)
(13.3581 -29.6293 1.24773e-19)
(13.0447 -29.4063 0)
(12.739 -29.2191 0)
(12.455 -29.058 0)
(12.1618 -28.8629 -9.0151e-21)
(11.8827 -28.701 8.87591e-21)
(11.6178 -28.5557 0)
(11.352 -28.419 0)
(11.1165 -28.2202 2.23554e-20)
(10.7573 -28.0342 0)
(10.6307 -27.7131 2.43636e-19)
(5.06225 -9.86851 -3.04792e-19)
(13.223 -23.5024 -7.36009e-19)
(16.4826 -30.0105 -4.63718e-19)
(16.4567 -30.4347 -4.58632e-20)
(15.9223 -30.117 5.37881e-19)
(15.5133 -29.8053 -1.341e-19)
(15.0639 -29.5206 -4.93696e-20)
(14.6607 -29.2621 -2.48621e-19)
(14.2774 -29.0365 0)
(13.9067 -28.819 -6.39375e-20)
(13.5578 -28.634 9.09011e-20)
(13.2224 -28.4551 0)
(12.9014 -28.2911 -2.40815e-20)
(12.5857 -28.1278 2.37034e-20)
(12.2782 -27.9558 -1.21278e-19)
(11.9777 -27.8031 2.59347e-19)
(11.6909 -27.6793 -1.60376e-19)
(11.4321 -27.5182 -2.23543e-20)
(11.0628 -27.3478 3.53674e-20)
(10.9155 -27.027 -2.96831e-19)
(5.68534 -10.0549 -3.74386e-19)
(14.2235 -23.285 4.66699e-20)
(17.336 -29.2121 6.81699e-20)
(17.1616 -29.4213 7.29368e-19)
(16.599 -29.1167 2.16201e-20)
(16.1097 -28.799 -3.11055e-19)
(15.6442 -28.5513 -1.56004e-19)
(15.2011 -28.3257 8.30635e-20)
(14.7864 -28.1025 1.22201e-19)
(14.3812 -27.9196 -5.49256e-20)
(14.0104 -27.7388 2.12505e-20)
(13.6519 -27.605 7.37194e-20)
(13.3221 -27.4769 -4.37923e-20)
(12.9878 -27.3347 1.63553e-19)
(12.6742 -27.1976 -1.31761e-19)
(12.3697 -27.0665 -2.21452e-19)
(12.0869 -26.9702 2.40698e-19)
(11.8249 -26.8346 -2.66363e-19)
(11.47 -26.7158 2.68377e-19)
(11.3365 -26.4024 4.17641e-19)
(6.24595 -10.0803 -4.40189e-19)
(15.0956 -22.8044 -4.9758e-20)
(18.006 -28.0353 3.96427e-19)
(17.7817 -28.2315 -2.58608e-19)
(17.1526 -27.9761 2.53942e-19)
(16.6541 -27.7307 4.98857e-20)
(16.1336 -27.4993 0)
(15.6603 -27.3074 -8.52725e-21)
(15.2189 -27.1322 -5.90504e-21)
(14.7913 -26.9699 4.96793e-20)
(14.3913 -26.8272 -5.21776e-20)
(14.0056 -26.6884 -3.61338e-20)
(13.6414 -26.5898 -1.78299e-20)
(13.2898 -26.4839 0)
(12.9378 -26.3737 1.25106e-20)
(12.5969 -26.2532 -3.3979e-19)
(12.278 -26.1685 -3.6764e-20)
(11.9866 -26.0799 -1.28259e-19)
(11.6168 -25.9817 3.91386e-19)
(11.4388 -25.6774 -1.11095e-19)
(6.80564 -10.0561 3.56051e-19)
(15.9216 -22.2732 -5.75739e-19)
(18.6439 -26.9964 3.11233e-19)
(18.2949 -27.0067 1.79413e-19)
(17.6649 -26.7904 -5.59382e-20)
(17.1024 -26.5604 -1.05004e-19)
(16.5897 -26.3864 1.3441e-21)
(16.082 -26.2317 8.52697e-21)
(15.621 -26.0846 0)
(15.1655 -25.9632 0)
(14.7475 -25.8433 2.3234e-19)
(14.3427 -25.7437 -4.46929e-19)
(13.9682 -25.6499 2.78845e-19)
(13.5984 -25.5589 0)
(13.2517 -25.4802 1.33319e-20)
(12.9055 -25.3957 4.94767e-19)
(12.5938 -25.3345 -4.91689e-19)
(12.2981 -25.2847 5.35553e-20)
(11.9585 -25.2619 5.76338e-19)
(11.7968 -24.9752 -3.80521e-19)
(7.27954 -9.90198 -2.66189e-19)
(16.6095 -21.4868 3.21195e-19)
(19.0774 -25.6239 0)
(18.7336 -25.7187 0)
(18.0554 -25.5437 4.81916e-21)
(17.4759 -25.3765 -2.6754e-21)
(16.903 -25.2045 2.36084e-20)
(16.3739 -25.0849 -5.23786e-20)
(15.8833 -24.9696 2.49338e-19)
(15.4112 -24.8779 -5.53803e-19)
(14.9708 -24.8041 3.03559e-19)
(14.5474 -24.7381 -9.57678e-20)
(14.148 -24.6964 -5.09029e-19)
(13.7663 -24.6371 -1.08351e-19)
(13.3813 -24.5775 3.52274e-19)
(13.011 -24.5038 -5.89849e-20)
(12.66 -24.4545 6.29468e-19)
(12.3343 -24.4323 -5.58695e-19)
(11.9889 -24.4439 1.22634e-20)
(11.8016 -24.2003 -6.22052e-19)
(7.74692 -9.71305 0)
(17.2651 -20.7028 7.11189e-20)
(19.5193 -24.3846 -1.12512e-19)
(19.0006 -24.345 0)
(18.3572 -24.2205 -4.81899e-21)
(17.735 -24.0977 -9.25373e-20)
(17.1932 -24.0018 1.09038e-19)
(16.6366 -23.9231 0)
(16.1441 -23.8481 -3.92378e-19)
(15.65 -23.7837 3.85825e-19)
(15.1943 -23.7167 -6.71535e-20)
(14.752 -23.6701 5.57928e-20)
(14.3439 -23.6521 6.08718e-20)
(13.9469 -23.6295 6.53527e-20)
(13.5685 -23.6129 6.97951e-19)
(13.1872 -23.5693 -1.2716e-18)
(12.8361 -23.5426 1.31503e-18)
(12.4882 -23.5541 -1.34443e-18)
(12.1729 -23.6198 5.9537e-19)
(11.9845 -23.4384 -8.51426e-20)
(8.13546 -9.40759 0)
(17.7078 -19.6557 -2.10701e-20)
(19.7372 -22.9151 2.76014e-20)
(19.2714 -22.993 -6.30457e-20)
(18.5812 -22.9065 -4.80356e-20)
(17.9416 -22.8202 -4.26689e-20)
(17.3345 -22.718 1.75531e-19)
(16.7679 -22.677 0)
(16.2431 -22.6405 0)
(15.7465 -22.6284 0)
(15.2743 -22.6177 6.71499e-20)
(14.8163 -22.5802 0)
(14.3839 -22.586 7.9282e-19)
(13.9845 -22.5935 -6.88607e-19)
(13.5797 -22.6089 7.49998e-19)
(13.1882 -22.5851 -1.50874e-18)
(12.7926 -22.5692 7.58603e-19)
(12.4138 -22.5778 8.99012e-19)
(12.066 -22.6524 -1.592e-18)
(11.8827 -22.534 8.29763e-19)
(8.52685 -9.1022 0)
(18.1359 -18.6652 0)
(19.9553 -21.5505 -1.61698e-20)
(19.2987 -21.526 -2.90589e-20)
(18.6574 -21.4983 0)
(17.997 -21.4952 -2.66698e-19)
(17.4353 -21.4694 2.62018e-19)
(16.8436 -21.4517 0)
(16.3266 -21.4379 -6.9622e-19)
(15.8125 -21.4438 6.84588e-19)
(15.3463 -21.4718 0)
(14.8825 -21.4824 8.04388e-19)
(14.4373 -21.4886 -5.30465e-20)
(14.0137 -21.5102 -8.18725e-19)
(13.6151 -21.5482 0)
(13.2108 -21.5501 0)
(12.808 -21.5623 0)
(12.4012 -21.5721 8.21426e-19)
(12.0255 -21.5617 -9.14224e-19)
(11.7484 -21.5151 0)
(5.13372 -31.7177 0)
(4.55154 -30.2618 0)
(3.43425 -29.7263 8.76886e-22)
(3.0449 -29.1864 1.21552e-21)
(2.36591 -28.6116 0)
(2.02835 -28.0721 9.84417e-23)
(1.63246 -27.626 -1.92595e-21)
(1.33796 -27.2173 0)
(1.09214 -26.8517 -2.38256e-21)
(0.868446 -26.5426 0)
(0.700435 -26.3057 2.61322e-21)
(0.558157 -26.0962 1.36805e-21)
(0.429436 -25.9215 -1.37526e-21)
(0.349301 -25.772 -2.87292e-21)
(0.242448 -25.6494 0)
(0.206997 -25.4491 7.5271e-22)
(0.138393 -24.6874 -3.65725e-21)
(0.130744 -21.7813 0)
(0.0183379 -15.353 0)
(-0.0493803 -6.52064 -3.07029e-21)
(5.47209 -31.3612 2.69921e-21)
(4.80778 -30.0765 0)
(3.75635 -29.5463 -5.1833e-21)
(3.34092 -28.9951 3.11146e-21)
(2.62722 -28.4576 0)
(2.24526 -27.9543 9.45468e-21)
(1.82302 -27.5155 -3.9339e-21)
(1.49233 -27.1193 0)
(1.22841 -26.769 -2.52437e-21)
(0.983228 -26.4739 4.93376e-21)
(0.800951 -26.2504 -7.95113e-21)
(0.643007 -26.0501 1.08766e-20)
(0.502521 -25.8847 -8.37159e-21)
(0.409759 -25.7449 2.81844e-21)
(0.290944 -25.6284 2.91687e-21)
(0.249833 -25.429 -3.02078e-21)
(0.154854 -24.6734 5.8439e-21)
(0.144976 -21.7642 7.22838e-21)
(0.0191399 -15.324 3.91243e-21)
(-0.0539471 -6.52444 3.9079e-21)
(5.87006 -31.0635 -5.83007e-21)
(5.14889 -29.7523 -6.38009e-22)
(3.92773 -29.3161 4.13071e-21)
(3.4641 -28.8496 0)
(2.72146 -28.3149 0)
(2.32364 -27.8383 -1.1725e-20)
(1.89661 -27.4214 -7.45099e-22)
(1.55635 -27.0494 -5.61883e-22)
(1.28686 -26.7115 -4.97614e-22)
(1.03197 -26.4246 9.98356e-21)
(0.844447 -26.2101 0)
(0.679844 -26.0157 0)
(0.533836 -25.8556 0)
(0.439358 -25.7163 1.162e-20)
(0.314919 -25.605 0)
(0.273183 -25.4165 1.20563e-20)
(0.170992 -24.6687 -1.19527e-20)
(0.161263 -21.7608 -4.19921e-21)
(0.034534 -15.3163 -7.72104e-21)
(-0.0515423 -6.53654 -1.25564e-20)
(6.19825 -30.7244 -1.97032e-21)
(5.42887 -29.5275 6.0589e-21)
(4.26479 -29.0895 1.13758e-21)
(3.75392 -28.6447 -9.78467e-21)
(2.98095 -28.1561 0)
(2.53777 -27.7201 -1.63617e-20)
(2.0861 -27.3119 4.30775e-20)
(1.70875 -26.9508 -2.7506e-20)
(1.42107 -26.6283 1.94804e-20)
(1.1448 -26.3544 -1.04834e-20)
(0.94269 -26.1533 -2.10272e-22)
(0.76231 -25.9678 1.11857e-20)
(0.604092 -25.8169 -1.124e-20)
(0.497446 -25.6868 -5.75666e-21)
(0.361771 -25.5817 -5.89086e-21)
(0.313667 -25.3941 -1.20491e-20)
(0.194785 -24.6592 1.41307e-20)
(0.179051 -21.7585 -5.58989e-21)
(0.0372237 -15.3011 3.07413e-21)
(-0.0367657 -6.5422 1.25355e-20)
(6.5985 -30.3664 5.93055e-21)
(5.71441 -29.2103 -2.21379e-21)
(4.41776 -28.8685 1.00149e-20)
(3.86598 -28.4857 -1.62513e-20)
(3.07131 -28.0018 0)
(2.61029 -27.5934 8.02933e-21)
(2.15478 -27.2095 -8.76771e-21)
(1.76773 -26.8726 0)
(1.47499 -26.5648 1.22217e-22)
(1.18998 -26.2993 0)
(0.982547 -26.1073 2.16042e-20)
(0.796524 -25.9283 0)
(0.632946 -25.7835 0)
(0.525403 -25.6544 2.35378e-20)
(0.383997 -25.5561 -1.18377e-20)
(0.335421 -25.3799 1.21433e-20)
(0.216261 -24.6559 0)
(0.199131 -21.7619 -2.84852e-21)
(0.0521251 -15.3024 3.11201e-21)
(-0.00705141 -6.55278 0)
(6.94024 -30.0252 -2.31227e-21)
(6.02223 -28.9384 5.8864e-21)
(4.76569 -28.6027 -2.74543e-20)
(4.15176 -28.2698 2.79314e-20)
(3.33119 -27.8418 -1.51323e-20)
(2.8202 -27.4732 -8.05452e-21)
(2.3417 -27.1 1.82303e-20)
(1.91802 -26.7728 1.93262e-20)
(1.6064 -26.4806 -1.00615e-20)
(1.30057 -26.2275 -2.14411e-20)
(1.07821 -26.0489 1.06659e-20)
(0.877202 -25.8785 0)
(0.701354 -25.7433 0)
(0.582483 -25.6226 4.50448e-23)
(0.42906 -25.5301 1.18964e-20)
(0.373658 -25.3573 -1.21316e-20)
(0.232144 -24.6526 0)
(0.220497 -21.7699 2.33239e-20)
(0.0591939 -15.3048 2.35499e-20)
(0.0393562 -6.55378 1.54321e-21)
(7.32416 -29.6047 1.14531e-20)
(6.2682 -28.6308 -1.50841e-20)
(4.90984 -28.3859 1.03748e-20)
(4.25276 -28.0908 0)
(3.41886 -27.6743 1.51969e-20)
(2.88801 -27.3346 -3.51425e-20)
(2.40597 -26.9897 1.69757e-20)
(1.97356 -26.6868 -1.93811e-20)
(1.65638 -26.4112 0)
(1.34294 -26.1667 0)
(1.11519 -25.9975 -2.23588e-20)
(0.909463 -25.8342 2.24387e-20)
(0.728278 -25.7057 0)
(0.607538 -25.5866 -3.55515e-20)
(0.448501 -25.5021 1.19527e-20)
(0.393793 -25.3401 1.2242e-20)
(0.251374 -24.6517 -1.06119e-20)
(0.242143 -21.7835 -2.99721e-20)
(0.0712435 -15.3246 -1.56682e-20)
(0.0776669 -6.55307 -3.02082e-21)
(7.67605 -29.2466 0)
(6.57931 -28.3019 1.85967e-20)
(5.24967 -28.0855 -1.86541e-20)
(4.5321 -27.8649 0)
(3.67892 -27.513 0)
(3.09308 -27.2113 3.60491e-20)
(2.58885 -26.8793 -3.61562e-20)
(2.12109 -26.5854 0)
(1.78467 -26.3257 -2.12497e-20)
(1.45092 -26.0935 4.32781e-20)
(1.20795 -25.9375 -2.20308e-20)
(0.987815 -25.7826 -2.31159e-20)
(0.793893 -25.6636 2.31855e-20)
(0.66222 -25.5523 0)
(0.490639 -25.4733 0)
(0.427664 -25.3166 1.22735e-20)
(0.270172 -24.6532 -1.5977e-20)
(0.262958 -21.8016 -3.48846e-23)
(0.0780379 -15.3446 9.38697e-21)
(0.101678 -6.54707 -3.00798e-21)
(8.03167 -28.7613 -1.32454e-20)
(6.80041 -27.9986 1.32741e-20)
(5.39468 -27.8688 3.88236e-20)
(4.62366 -27.6669 -5.66383e-20)
(3.76496 -27.3308 6.47274e-20)
(3.15711 -27.06 2.66284e-21)
(2.64939 -26.7618 -3.70747e-20)
(2.17411 -26.4922 0)
(1.83152 -26.2503 0)
(1.49109 -26.0273 -2.21209e-20)
(1.24225 -25.8808 0)
(1.01793 -25.7336 0)
(0.818476 -25.6219 0)
(0.684185 -25.5125 0)
(0.507144 -25.4425 0)
(0.446332 -25.2979 0)
(0.287931 -24.6564 1.06969e-20)
(0.281308 -21.825 -1.24168e-20)
(0.0861239 -15.3769 3.126e-21)
(0.123406 -6.54161 -3.00107e-21)
(8.37997 -28.3891 -1.12476e-20)
(7.10646 -27.6125 2.50022e-20)
(5.71628 -27.5348 1.49667e-20)
(4.89325 -27.4317 1.88803e-20)
(4.02198 -27.1679 -1.37776e-20)
(3.35621 -26.932 -5.39589e-20)
(2.827 -26.6496 -1.9919e-20)
(2.31821 -26.3891 0)
(1.95633 -26.1632 2.21371e-20)
(1.59617 -25.9525 -4.41303e-20)
(1.33185 -25.819 -2.29163e-20)
(1.09359 -25.6802 -2.34994e-20)
(0.880781 -25.5777 0)
(0.735774 -25.4755 -2.42267e-20)
(0.546601 -25.411 -2.43937e-20)