/*--------------------------------*- C++ -*----------------------------------*\
  =========                 |
  \\      /  F ield         | OpenFOAM: The Open Source CFD Toolbox
   \\    /   O peration     | Website:  https://openfoam.org
    \\  /    A nd           | Version:  9
     \\/     M anipulation  |
\*---------------------------------------------------------------------------*/
FoamFile
{
    format      ascii;
    class       volScalarField;
    location    "2.3";
    object      p;
}
// * * * * * * * * * * * * * * * * * * * * * * * * * * * * * * * * * * * * * //

dimensions      [0 2 -2 0 0 0 0];

internalField   nonuniform List<scalar> 
46400
(
-40.7963
-34.763
-22.7141
-13.4354
-4.78963
3.10152
10.0897
16.5675
22.3254
27.6239
32.4298
36.8441
40.9244
44.6908
48.223
51.5592
54.6529
57.8696
61.2432
62.2039
-17.8821
-11.9353
-1.09966
7.79604
15.7173
23.0156
29.4644
35.3619
40.6445
45.4257
49.7434
53.6592
57.2109
60.4458
63.3878
66.0729
68.4897
70.9004
73.1323
73.4853
6.10926
12.1536
21.7224
29.8388
36.8984
43.4608
49.2
54.4785
59.1293
63.3597
67.1418
70.554
73.6421
76.4147
78.9264
81.1678
83.1211
85.0368
86.5787
86.1307
30.4526
35.4891
43.77
51.3624
57.7589
63.6899
68.8447
73.5061
77.6301
81.2799
84.5334
87.4021
89.9539
92.2116
94.2094
95.9707
97.4798
98.9521
100.203
99.5438
54.0983
58.2607
65.9834
72.9697
78.7744
84.0638
88.5955
92.6498
96.1584
99.26
101.962
104.325
106.386
108.166
109.71
111.009
112.075
113.118
113.893
112.909
76.6584
81.1326
88.2024
94.5412
99.6376
104.213
108.074
111.46
114.386
116.88
119.052
120.885
122.462
123.785
124.905
125.819
126.529
127.223
127.763
126.62
100.055
104.816
110.882
116.231
120.506
124.282
127.433
130.119
132.384
134.279
135.855
137.15
138.201
139.03
139.679
140.143
140.427
140.715
140.913
139.57
122.911
128.045
132.819
137.243
140.67
143.615
146.042
148.042
149.701
151.004
152.062
152.85
153.45
153.847
154.098
154.185
154.121
154.072
153.941
152.446
145.869
150.997
154.46
157.71
160.281
162.361
164.043
165.319
166.307
166.996
167.454
167.697
167.764
167.676
167.464
167.124
166.657
166.216
165.686
164.006
167.529
171.477
174.244
176.503
178.358
179.737
180.802
181.513
181.972
182.159
182.159
181.95
181.597
181.087
180.478
179.75
178.924
178.122
177.243
175.341
187.536
190.421
192.533
194.036
195.204
195.935
196.386
196.508
196.409
196.066
195.558
194.885
194.095
193.181
192.179
191.082
189.903
188.755
187.539
185.49
204.796
207.104
208.726
209.715
210.397
210.653
210.663
210.37
209.875
209.135
208.236
207.162
205.984
204.693
203.328
201.877
200.353
198.851
197.285
194.989
220.715
222.433
223.54
223.977
224.151
223.888
223.413
222.654
221.745
220.634
219.384
217.984
216.481
214.882
213.228
211.508
209.746
208.018
206.285
203.877
234.634
235.899
236.617
236.668
236.469
235.842
234.999
233.89
232.621
231.179
229.616
227.906
226.106
224.194
222.23
220.193
218.119
216.075
214.014
211.465
246.705
247.483
247.809
247.465
246.922
245.958
244.771
243.327
241.743
240.001
238.177
236.245
234.248
232.171
230.037
227.844
225.59
223.355
221.092
218.344
257.805
257.948
257.819
257.104
256.199
254.939
253.479
251.739
249.859
247.816
245.687
243.474
241.208
238.892
236.552
234.176
231.775
229.405
227.073
224.249
265.577
265.467
265.041
264.071
262.921
261.483
259.904
258.098
256.142
254.018
251.782
249.434
247.024
244.545
242.043
239.503
236.946
234.424
231.966
229.065
272.45
272.221
271.565
270.318
268.83
267.064
265.166
263.076
260.899
258.576
256.198
253.718
251.207
248.633
246.05
243.431
240.8
238.209
235.706
232.727
275.553
275.307
274.656
273.642
272.294
270.607
268.689
266.548
264.274
261.858
259.365
256.786
254.168
251.503
248.828
246.133
243.428
240.773
238.229
235.238
280.327
277.492
277.125
275.702
274.278
272.413
270.46
268.238
265.939
263.471
260.951
258.329
255.681
252.979
250.275
247.549
244.818
242.139
239.582
236.542
-138.595
-138.711
-138.254
-138.408
-137.842
-136.552
-135.16
-133.194
-131.354
-129.723
-128.213
-126.575
-124.828
-123.38
-121.895
-120.203
-118.677
-117.23
-115.786
-114.268
-139.504
-139.31
-139.856
-139.092
-138.804
-136.838
-134.609
-132.175
-130.049
-128.089
-126.033
-123.918
-122.032
-120.226
-118.387
-116.562
-114.861
-113.21
-111.638
-110.006
-139.903
-139.687
-140.194
-139.063
-137.155
-135.468
-133.101
-130.694
-128.405
-125.974
-123.661
-121.413
-119.298
-117.156
-115.102
-113.149
-111.249
-109.326
-107.503
-105.691
-139.997
-140.051
-139.718
-139.663
-136.809
-134.43
-131.796
-129.286
-126.532
-123.893
-121.301
-118.754
-116.33
-113.903
-111.632
-109.375
-107.218
-105.066
-103.082
-101.07
-142.122
-142.174
-140.78
-139.836
-137.58
-134.401
-131.374
-128.088
-125.015
-121.957
-119.028
-116.165
-113.433
-110.722
-108.208
-105.674
-103.322
-101.031
-98.8831
-96.6539
-144.679
-144.283
-143.989
-141.342
-137.928
-134.327
-130.518
-126.906
-123.313
-119.863
-116.52
-113.289
-110.194
-107.176
-104.354
-101.519
-98.9458
-96.3725
-94.0245
-91.6199
-149.131
-148.399
-147.499
-143.637
-139.328
-134.878
-130.308
-126.016
-121.826
-117.827
-114.015
-110.361
-106.884
-103.541
-100.415
-97.3256
-94.529
-91.7289
-89.2318
-86.6156
-156.587
-155.6
-152.696
-147.42
-141.198
-135.328
-129.935
-124.74
-119.854
-115.256
-110.911
-106.798
-102.912
-99.2264
-95.7722
-92.4055
-89.3932
-86.3319
-83.6932
-80.9263
-162.835
-161.98
-156.218
-149.321
-142.01
-135.09
-128.697
-122.808
-117.266
-112.099
-107.269
-102.728
-98.4684
-94.465
-90.7125
-87.1288
-83.8916
-80.6132
-77.8633
-74.9044
-168.999
-167.121
-158.803
-150.218
-141.536
-133.69
-126.354
-119.691
-113.527
-107.814
-102.514
-97.5657
-92.9579
-88.6574
-84.6343
-80.838
-77.3975
-73.9449
-71.0808
-67.9585
-169.521
-167.071
-157.81
-147.943
-138.665
-130.09
-122.233
-115.062
-108.448
-102.343
-96.6958
-91.4437
-86.5723
-82.0448
-77.8232
-73.8973
-70.3006
-66.7592
-63.9086
-60.5661
-167.161
-164.877
-154.461
-143.822
-133.989
-124.917
-116.523
-108.917
-101.893
-95.421
-89.4655
-83.9328
-78.8277
-74.097
-69.6974
-65.6278
-61.8778
-58.2919
-55.3216
-51.8905
-162.757
-160.236
-149.786
-137.777
-127.307
-117.813
-109.006
-101.049
-93.7641
-87.0648
-80.911
-75.2207
-69.9752
-65.1221
-60.6213
-56.4736
-52.6224
-48.9797
-45.8971
-42.3448
-156.341
-152.647
-141.062
-129.304
-118.211
-108.56
-99.5477
-91.4263
-83.9789
-77.1315
-70.8661
-65.0646
-59.7417
-54.8267
-50.2794
-46.1066
-42.2231
-38.6254
-35.5406
-31.9564
-145.698
-141.497
-130.07
-118.444
-107.303
-97.4786
-88.3674
-80.118
-72.6217
-65.7358
-59.443
-53.6469
-48.3247
-43.4191
-38.9006
-34.7574
-30.883
-27.3595
-24.2921
-20.6603
-133.861
-128.962
-117.038
-105.415
-94.1259
-84.3467
-75.2799
-67.1044
-59.6679
-52.8392
-46.6219
-40.8815
-35.6349
-30.8043
-26.3626
-22.2941
-18.4892
-15.1014
-12.0725
-8.40715
-118.449
-113.568
-101.275
-89.699
-78.924
-69.3658
-60.5662
-52.5459
-45.3094
-38.6534
-32.5922
-27.0234
-21.9173
-17.232
-12.9465
-9.01614
-5.34579
-2.16022
0.741848
4.35316
-101.868
-96.4575
-83.981
-72.9651
-62.2683
-53.0152
-44.476
-36.7213
-29.7132
-23.2791
-17.4395
-12.0632
-7.16062
-2.66448
1.43712
5.19971
8.68557
11.6307
14.3472
17.799
-82.8761
-77.2805
-64.3761
-54.0386
-44.0424
-35.1367
-27.092
-19.6714
-13.0295
-6.91353
-1.35657
3.74123
8.42101
12.6952
16.5969
20.2084
23.5091
26.2233
28.7623
32.5771
-62.794
-56.9896
-44.4474
-34.4843
-24.9891
-16.5276
-8.88083
-1.882
4.42978
10.22
15.4905
20.3544
24.8239
28.9593
32.7966
36.4111
39.6987
42.7431
46.0541
49.9828
-108.015
-99.6209
-93.0284
-90.7779
-87.5368
-87.0241
-85.115
-84.2523
-82.8422
-81.5446
-80.3351
-78.8029
-77.6284
-75.9952
-74.746
-73.1164
-71.5824
-70.5379
-69.8571
-69.3605
-102.997
-95.4521
-88.3563
-86.4531
-83.1074
-82.6894
-80.8886
-80.3064
-79.2095
-78.165
-77.2107
-75.9047
-74.9659
-73.5452
-72.5183
-71.0908
-69.7625
-68.7762
-68.2629
-67.8129
-98.116
-91.2546
-83.5986
-81.9913
-78.5886
-78.5104
-76.969
-76.5451
-75.6399
-74.7944
-74.0845
-72.9922
-72.2839
-71.0561
-70.2522
-68.9802
-67.8612
-67.078
-66.6557
-66.2038
-92.8379
-86.724
-78.7687
-77.6002
-74.1786
-74.2338
-72.8493
-72.6859
-72.0987
-71.4956
-71.0317
-70.1551
-69.6757
-68.6559
-68.0686
-66.9941
-66.0856
-65.3461
-65.1003
-64.6854
-87.5454
-82.1618
-73.8564
-73.0924
-69.7161
-70.1074
-69.0105
-69.0096
-68.6164
-68.2041
-67.9752
-67.305
-67.0458
-66.2128
-65.8468
-64.9246
-64.2299
-63.6728
-63.5333
-63.1171
-81.862
-77.2722
-68.8983
-68.6075
-65.3273
-65.8674
-64.9705
-65.2258
-65.1587
-64.9777
-64.9881
-64.5248
-64.4867
-63.8583
-63.7042
-62.9769
-62.5055
-61.9702
-62.0325
-61.6375
-76.0879
-72.3042
-63.8785
-64.0088
-60.9214
-61.7784
-61.2117
-61.627
-61.7565
-61.7594
-61.9973
-61.7326
-61.906
-61.4583
-61.5234
-60.948
-60.7017
-60.321
-60.4837
-60.1151
-69.9239
-66.9879
-58.8282
-59.3938
-56.5402
-57.5681
-57.2437
-57.9141
-58.3752
-58.6022
-59.0692
-59.005
-59.3906
-59.1437
-59.4186
-59.0372
-59.0353
-58.6501
-59.0583
-58.6854
-63.6449
-61.5602
-53.56
-54.7966
-52.1832
-53.5056
-53.55
-54.3831
-55.0461
-55.453
-56.1368
-56.2669
-56.8548
-56.7853
-57.2738
-57.0488
-57.2922
-57.0248
-57.5665
-57.2192
-56.7456
-55.9962
-48.3761
-50.0427
-47.8325
-49.3057
-49.6532
-50.7403
-51.7321
-52.3624
-53.2656
-53.5883
-54.3791
-54.5073
-55.1989
-55.1758
-55.6916
-55.3821
-56.2009
-55.845
-49.7659
-50.0824
-43.1215
-45.2161
-43.5205
-45.2579
-46.0072
-47.2693
-48.472
-49.2822
-50.3909
-50.9015
-51.8846
-52.1862
-53.0831
-53.2284
-53.9935
-53.8068
-54.7685
-54.4439
-42.4494
-43.827
-37.8294
-40.3205
-39.1724
-41.0746
-42.1696
-43.6993
-45.2246
-46.2562
-47.5728
-48.2701
-49.4455
-49.9396
-51.0313
-51.391
-52.4094
-52.2626
-53.4681
-53.1306
-34.7239
-37.3864
-32.4106
-35.3835
-34.8687
-37.0381
-38.551
-40.2798
-42.0253
-43.2423
-44.7534
-45.6307
-46.9879
-47.6496
-48.9366
-49.4799
-50.723
-50.7337
-52.1049
-51.7996
-26.3515
-30.7087
-26.9537
-30.3962
-30.5197
-32.8798
-34.7675
-36.7873
-38.8476
-40.2851
-41.9905
-43.0461
-44.5838
-45.4299
-46.9016
-47.6742
-49.1557
-49.2619
-50.9136
-50.5536
-17.3804
-23.8084
-21.3797
-25.3754
-26.2295
-28.8723
-31.1776
-33.4303
-35.721
-37.3506
-39.2376
-40.4634
-42.1706
-43.1755
-44.8305
-45.8076
-47.4862
-47.8057
-49.7124
-49.287
-7.48803
-16.4805
-15.673
-20.2665
-21.8389
-24.7065
-27.3983
-29.9794
-32.5855
-34.4364
-36.5124
-37.9104
-39.7896
-40.9689
-42.8014
-44.0232
-45.9273
-46.3258
-48.6214
-48.149
2.53057
-9.11028
-9.90527
-15.0934
-17.4716
-20.6511
-23.7483
-26.6063
-29.4609
-31.5207
-33.7695
-35.3269
-37.3681
-38.6927
-40.6952
-42.1208
-44.2368
-44.7557
-47.4156
-46.8925
12.6858
-2.08575
-4.54773
-10.2203
-13.3215
-16.7866
-20.2467
-23.4402
-26.5801
-28.8383
-31.2328
-32.9264
-35.1062
-36.5797
-38.7213
-40.4289
-42.675
-43.3469
-46.416
-45.6677
27.5946
6.87429
1.40375
-5.27383
-9.2431
-13.0426
-16.8569
-20.3862
-23.786
-26.2461
-28.7912
-30.6235
-32.9491
-34.5659
-36.8699
-38.9446
-41.2379
-42.2442
-45.8587
-45.0671
44.9108
18.6182
9.36174
1.35593
-3.45402
-7.48855
-11.7855
-15.8267
-19.721
-22.5586
-25.4122
-27.5203
-30.0833
-31.876
-34.4617
-36.6232
-39.8544
-40.711
-45.0504
-43.3821
67.7976
62.4569
46.6678
38.5332
28.0585
21.2849
14.4352
9.23199
3.6853
-0.998057
-5.68094
-9.18838
-12.5808
-14.6994
-18.0562
-18.4369
-23.745
-24.3414
-30.1666
-24.4311
103.809
91.0189
72.168
61.0422
48.9488
39.7279
30.9957
24.0395
18.257
13.3308
9.07884
4.88573
0.95553
-2.67437
-5.92849
-9.44514
-11.9111
-14.6684
-15.9561
-16.0287
104.805
92.2396
80.5959
70.965
62.0524
54.0719
46.9431
40.2996
34.2058
29.0169
24.4501
20.7835
17.2901
14.6136
12.0317
10.1323
8.08848
6.52343
5.71761
5.44272
103.895
95.815
87.5297
78.5663
70.8623
63.2719
56.6301
50.5321
45.2516
40.1151
35.481
31.0291
27.2946
23.5632
20.5676
17.5921
15.3591
13.2338
12.2621
11.9761
95.4388
88.4486
82.3436
76.2403
70.9897
65.5018
60.5811
55.755
51.3504
47.3049
43.5425
40.1939
37.0535
34.3318
31.8507
29.6113
27.8085
25.9381
24.949
24.6158
91.7763
87.3521
83.9199
79.0262
74.5544
69.8903
65.5217
61.2401
57.2026
53.3366
49.6865
46.2325
43.017
40.001
37.2503
34.7264
32.4845
30.6092
29.3461
28.9403
85.3343
82.0605
78.8672
75.4622
72.2996
69.0994
65.9041
62.8184
59.7195
56.8382
53.9164
51.258
48.5712
46.0954
43.6898
41.3103
39.1987
36.9474
35.4553
35.3132
83.7341
81.4542
79.6908
77.0934
74.2008
71.5106
68.8036
66.0955
63.3398
60.7025
57.9802
55.4511
52.802
50.379
47.8482
45.4854
43.1586
40.8399
39.3861
38.789
80.0241
78.2925
76.4961
74.7224
73.1522
71.1963
69.1661
67.2002
65.0532
63.0892
60.8622
58.8879
56.5815
54.5478
52.1216
49.9103
47.3166
44.8138
42.7937
42.0088
79.855
78.8075
77.7291
76.3788
74.7674
73.0714
71.3776
69.7953
67.9869
66.311
64.3822
62.6419
60.5369
58.7061
56.3137
54.2906
51.3837
49.0619
46.3218
45.5932
78.5928
77.5608
76.6588
75.796
74.9159
73.9762
72.7627
71.568
70.2493
69.0306
67.5893
66.3174
64.697
63.3111
61.3592
59.7124
56.9627
55.1621
51.1562
50.9453
79.0769
78.6895
78.1015
77.3862
76.5049
75.708
74.819
74.0093
73.0875
72.2521
71.2541
70.3955
69.2671
68.4066
67.0563
66.2407
64.0463
63.8738
59.7567
61.5627
79.1536
78.8117
78.4531
78.1293
77.7195
77.3381
76.8259
76.3856
75.8525
75.4568
75.0094
74.6533
74.3693
74.0473
73.918
73.6384
73.5864
73.6663
74.3424
76.3683
79.997
79.8506
79.5344
79.3321
79.0346
78.8711
78.631
78.5263
78.358
78.3441
78.297
78.3975
78.5882
78.8336
79.4553
79.8398
81.2798
81.6957
84.5044
85.5295
80.6238
80.6094
80.513
80.5194
80.4289
80.4862
80.4287
80.602
80.6405
80.9817
81.1268
81.7758
82.1646
83.2766
84.0127
85.7099
87.0733
89.2357
92.4731
93.9257
81.3331
81.3786
81.3932
81.4842
81.5826
81.753
81.9551
82.2455
82.5629
83.0321
83.5681
84.2983
85.0169
86.0384
87.0071
88.5377
89.8928
92.4121
94.659
98.7547
81.943
82.0606
82.1454
82.3275
82.4725
82.7441
82.9611
83.3603
83.7048
84.2781
84.7213
85.5092
86.1285
87.2346
88.1109
89.5872
90.7464
92.623
93.4433
102.009
82.4842
82.6383
82.8083
83.0208
83.2729
83.5706
83.9302
84.3441
84.7896
85.3405
85.9322
86.6699
87.361
88.3161
89.0793
90.292
91.0766
92.8013
93.5694
95.8457
82.8241
82.9928
83.1586
83.4048
83.6566
83.9976
84.3407
84.7872
85.2354
85.8204
86.3707
87.1041
87.7472
88.658
89.3501
90.4599
91.0786
92.1654
92.4774
96.7618
83.0042
83.1729
83.3891
83.6371
83.9374
84.2735
84.6677
85.1058
85.6022
86.1547
86.76
87.4378
88.1432
88.9538
89.7302
90.6891
91.465
92.6201
93.2038
94.674
201.343
200.792
199.45
197.794
195.173
192.341
188.457
184.338
179.442
174.045
168.026
161.488
154.384
145.806
138.226
129.196
119.573
110.417
101.279
91.5894
172.014
171.703
171.135
170.287
169.135
167.8
166.034
164.266
161.868
159.639
156.721
154.093
149.796
145.304
141.58
138.164
134.243
130.268
125.87
121.356
134.84
134.72
134.472
134.128
133.673
133.086
132.438
131.625
130.738
129.741
128.591
127.409
125.989
124.689
122.905
121.341
119.352
117.586
115.363
113.665
122.44
122.37
122.214
122.033
121.713
121.421
120.923
120.486
119.846
119.24
118.456
117.707
116.77
115.909
114.841
113.891
112.671
111.653
110.258
109.315
104.156
104.106
104.042
103.91
103.789
103.584
103.396
103.137
102.874
102.586
102.232
101.921
101.515
101.177
100.687
100.297
99.7172
99.2856
98.6066
98.2066
98.2762
98.2547
98.1966
98.1421
98.0321
97.9438
97.7831
97.6569
97.4505
97.2576
97.0201
96.7619
96.4497
96.1513
95.7691
95.443
94.9858
94.642
94.1049
93.7944
89.8134
89.7857
89.7505
89.6851
89.6194
89.5216
89.4203
89.2985
89.1516
89.0106
88.8226
88.6538
88.4338
88.2366
87.982
87.7566
87.4574
87.2053
86.8609
86.5968
86.9113
86.8969
86.8643
86.8304
86.7721
86.7173
86.6349
86.558
86.4519
86.352
86.2221
86.1005
85.9441
85.802
85.6172
85.4531
85.2419
85.0561
84.8053
84.61
83.3072
83.2892
83.2616
83.2206
83.1693
83.1072
83.0317
82.9507
82.849
82.7523
82.6242
82.5138
82.3579
82.2263
82.0334
81.8679
81.6365
81.4244
81.1121
80.7762
81.8684
81.8563
81.8343
81.8073
81.7686
81.7269
81.6723
81.6184
81.5475
81.4854
81.3956
81.33
81.2185
81.1429
81.008
80.8932
80.76
80.6183
80.4681
80.3118
80.9408
80.9259
80.9006
80.8653
80.8227
80.768
80.7087
80.6411
80.5676
80.4888
80.3979
80.3132
80.1977
80.0997
79.9177
79.7504
79.5477
79.374
79.1714
78.9938
80.417
80.3953
80.365
80.33
80.289
80.244
80.2014
80.1575
80.1094
80.0574
80.0057
79.9528
79.9012
79.8389
79.7694
79.6914
79.6017
79.5161
79.4037
79.3118
80.4344
80.4146
80.3953
80.3716
80.3503
80.3327
80.302
80.269
80.2295
80.1899
80.1412
80.094
80.0332
79.9699
79.8904
79.7984
79.6866
79.5767
79.4556
79.3366
80.7187
80.7134
80.7047
80.6929
80.6791
80.6602
80.6424
80.6186
80.5969
80.5686
80.543
80.5105
80.4801
80.4441
80.4068
80.3675
80.3209
80.276
80.2293
80.166
81.0061
81.0025
80.9968
80.9906
80.9818
80.9732
80.9612
80.9498
80.9348
80.9205
80.9028
80.885
80.8653
80.8435
80.8222
80.7976
80.7749
80.7482
80.7239
80.695
81.4899
81.4871
81.4843
81.4805
81.4771
81.4722
81.4681
81.4621
81.4572
81.4503
81.4442
81.4366
81.429
81.4207
81.4121
81.4023
81.3928
81.3811
81.3714
81.3581
81.8525
81.8513
81.8505
81.8511
81.8516
81.8533
81.8546
81.8574
81.8598
81.8635
81.8672
81.8714
81.8764
81.8814
81.8875
81.8927
81.8998
81.9057
81.9136
81.9201
82.2288
82.2277
82.2286
82.2295
82.2327
82.2361
82.2419
82.2481
82.2566
82.2652
82.276
82.2869
82.3009
82.3153
82.3315
82.3477
82.366
82.3845
82.4047
82.4254
82.4765
82.4767
82.4784
82.4832
82.4892
82.4986
82.5078
82.5205
82.5326
82.548
82.5637
82.5805
82.5991
82.6167
82.638
82.6576
82.6814
82.704
82.7294
82.757
82.5892
82.5894
82.5933
82.5986
82.6061
82.6146
82.6256
82.6379
82.652
82.6681
82.6853
82.7051
82.7258
82.7482
82.7729
82.7989
82.8281
82.8575
82.8915
82.9246
63.8544
62.9033
59.5618
56.3719
53.304
49.9946
46.4886
42.7556
38.7083
34.3265
29.5624
24.3062
18.587
12.1596
5.22421
-2.60769
-11.194
-20.409
-32.3897
-38.3945
75.0458
74.6914
72.4931
70.1081
67.7189
65.0635
62.1508
58.9473
55.4263
51.5442
47.2661
42.5234
37.274
31.4169
25.0186
17.7801
9.91291
1.08377
-9.68693
-15.5935
87.5888
88.0437
86.5372
84.6462
82.7181
80.5039
78.0201
75.2796
72.2239
68.845
65.1041
60.9131
56.3016
51.0767
45.3913
38.8874
31.8807
23.8254
14.3299
8.3199
100.974
101.629
100.397
98.9458
97.4569
95.72
93.7469
91.517
88.9908
86.1536
82.9357
79.3188
75.2287
70.6107
65.5045
59.6306
53.2922
45.7732
37.5555
32.5735
114.176
115.158
114.42
113.4
112.361
111.09
109.576
107.828
105.799
103.473
100.812
97.7526
94.2888
90.2931
85.8166
80.5899
74.8418
67.9267
60.2704
56.1308
127.786
128.947
128.462
127.799
127.119
126.238
125.147
123.857
122.309
120.512
118.377
115.914
113.024
109.679
105.86
101.336
96.2965
90.0258
83.0229
78.6028
140.615
141.986
141.845
141.587
141.333
140.898
140.28
139.482
138.465
137.205
135.664
133.806
131.581
128.942
125.837
122.117
117.885
112.595
106.584
101.865
153.581
155.098
155.24
155.311
155.395
155.332
155.106
154.737
154.164
153.407
152.38
151.103
149.477
147.508
145.11
142.197
138.797
134.409
129.667
124.542
165.046
166.724
167.27
167.729
168.217
168.58
168.818
168.93
168.888
168.67
168.235
167.569
166.605
165.351
163.689
161.638
159.083
155.891
152.429
147.373
176.375
178.293
179.189
180.013
180.861
181.609
182.239
182.768
183.14
183.366
183.385
183.212
182.771
182.072
181.023
179.657
177.812
175.566
172.778
168.921
186.483
188.517
189.734
190.891
192.079
193.184
194.195
195.116
195.919
196.601
197.12
197.469
197.577
197.457
197.013
196.282
195.122
193.643
191.535
188.695
195.926
198.2
199.773
201.28
202.811
204.267
205.641
206.941
208.132
209.217
210.127
210.873
211.376
211.678
211.671
211.436
210.77
209.809
208.19
205.914
204.609
206.978
208.746
210.493
212.274
214.005
215.683
217.294
218.819
220.222
221.481
222.59
223.505
224.26
224.741
225.01
224.846
224.428
223.308
221.616
212.002
214.546
216.658
218.74
220.848
222.913
224.909
226.84
228.663
230.374
231.951
233.389
234.67
235.782
236.638
237.281
237.483
237.436
236.698
235.432
218.991
221.724
223.995
226.235
228.496
230.687
232.821
234.888
236.88
238.802
240.629
242.371
243.965
245.408
246.607
247.569
248.11
248.441
248.086
247.308
224.69
227.456
229.803
232.182
234.596
236.976
239.335
241.657
243.948
246.177
248.343
250.408
252.327
254.084
255.577
256.836
257.74
258.43
258.545
258.365
229.401
232.262
234.763
237.314
239.895
242.451
244.978
247.471
249.911
252.268
254.531
256.653
258.626
260.412
261.987
263.37
264.485
265.409
265.793
265.855
232.899
235.82
238.36
240.972
243.622
246.254
248.861
251.451
253.989
256.485
258.895
261.23
263.449
265.539
267.484
269.219
270.755
271.923
272.629
272.635
235.307
238.285
240.897
243.597
246.329
249.05
251.743
254.423
257.047
259.633
262.124
264.547
266.821
268.98
270.912
272.647
274.025
275.032
275.617
275.722
236.463
239.443
242.048
244.758
247.502
250.241
252.956
255.667
258.328
260.958
263.502
265.987
268.332
270.592
272.627
274.55
276.11
277.558
278.444
279.213
-110.625
-112.141
-113.632
-115.135
-116.689
-118.441
-119.97
-121.481
-123.304
-125.014
-126.628
-128.394
-130.336
-132.36
-133.735
-135.048
-135.534
-135.093
-135.433
-135.372
-106.548
-108.172
-109.76
-111.448
-113.167
-115.004
-116.878
-118.707
-120.606
-122.762
-124.84
-126.76
-128.817
-131.062
-133.125
-135.149
-135.267
-135.92
-135.662
-136.099
-102.346
-104.166
-105.981
-107.905
-109.819
-111.776
-113.842
-115.996
-118.124
-120.387
-122.693
-125.121
-127.348
-129.668
-131.927
-133.497
-134.926
-135.902
-135.817
-136.073
-97.8274
-99.8361
-101.818
-103.972
-106.121
-108.376
-110.646
-113.076
-115.502
-118.053
-120.657
-123.29
-126.049
-128.648
-131.482
-133.987
-136.054
-135.933
-136.663
-136.403
-93.4821
-95.7015
-97.8405
-100.115
-102.459
-104.984
-107.487
-110.186
-112.905
-115.757
-118.654
-121.688
-124.774
-128.045
-130.956
-133.953
-136.609
-137.687
-138.737
-138.71
-88.6002
-90.9686
-93.2902
-95.8344
-98.3811
-101.199
-103.997
-106.996
-110.071
-113.279
-116.598
-120.04
-123.59
-127.166
-130.941
-134.585
-137.724
-140.221
-140.649
-140.95
-83.6014
-86.1873
-88.6549
-91.4397
-94.2099
-97.2784
-100.383
-103.702
-107.151
-110.78
-114.559
-118.513
-122.657
-126.909
-131.417
-135.754
-140.086
-143.891
-144.633
-145.426
-78.0186
-80.7475
-83.3482
-86.3856
-89.3647
-92.703
-96.127
-99.7839
-103.637
-107.72
-112.027
-116.585
-121.425
-126.562
-131.902
-137.705
-143.778
-148.942
-151.828
-152.801
-72.006
-74.9371
-77.6547
-80.9137
-84.1234
-87.6799
-91.4047
-95.3794
-99.6047
-104.113
-108.903
-114.018
-119.512
-125.356
-131.689
-138.511
-145.817
-152.625
-158.317
-159.239
-65.1589
-68.2511
-71.0843
-74.5053
-77.9148
-81.6805
-85.6715
-89.9418
-94.5129
-99.4294
-104.687
-110.351
-116.462
-123.068
-130.326
-138.098
-146.644
-155.065
-163.461
-165.288
-57.8521
-61.1455
-63.9721
-67.4824
-71.0462
-74.9428
-79.1314
-83.6269
-88.4605
-93.6771
-99.2835
-105.335
-111.903
-119.025
-126.824
-135.316
-144.518
-154.319
-163.503
-165.88
-49.2479
-52.6344
-55.5814
-59.1405
-62.8574
-66.8997
-71.2691
-75.9721
-81.0431
-86.5471
-92.4651
-98.8912
-105.868
-113.428
-121.76
-130.753
-140.509
-151.067
-161.407
-163.677
-39.8187
-43.3255
-46.3869
-50.0065
-53.8226
-57.9421
-62.4108
-67.2309
-72.439
-78.0943
-84.2074
-90.8549
-98.0929
-106.003
-114.753
-124.176
-134.583
-146.509
-156.904
-159.389
-29.5248
-33.0593
-36.1196
-39.6961
-43.5424
-47.6875
-52.2047
-57.0912
-62.3797
-68.1532
-74.3817
-81.1848
-88.5906
-96.6741
-105.632
-115.216
-126.238
-137.92
-149.412
-153.076
-18.4009
-21.972
-25.0111
-28.5194
-32.3536
-36.4653
-40.9524
-45.8234
-51.1091
-56.8717
-63.1236
-69.9597
-77.4099
-85.6104
-94.6648
-104.417
-115.482
-127.026
-138.394
-142.553
-6.2435
-9.84369
-12.838
-16.2108
-19.9766
-24.0126
-28.4229
-33.2231
-38.4328
-44.142
-50.3181
-57.0996
-64.495
-72.6326
-81.6467
-91.359
-102.591
-114.151
-126.008
-130.872
6.37778
2.81018
-0.0591857
-3.22602
-6.86089
-10.7567
-15.0103
-19.6603
-24.7301
-30.2659
-36.2861
-42.8959
-50.089
-58.0613
-66.8037
-76.2885
-86.9875
-98.4822
-110.705
-115.552
19.7636
16.3536
13.6664
10.7362
7.28353
3.55132
-0.521646
-4.9896
-9.85759
-15.2022
-20.9997
-27.3862
-34.3546
-42.0694
-50.5549
-59.7457
-70.3932
-81.3543
-93.76
-99.1389
34.3948
30.6245
28.1131
25.4095
22.1361
18.5573
14.6859
10.4473
5.80432
0.741258
-4.77202
-10.8431
-17.4434
-24.816
-32.806
-41.6449
-51.571
-61.8308
-74.6603
-80.2316
51.6465
47.744
44.4935
41.4908
38.2403
34.6639
30.8611
26.7591
22.3254
17.4959
12.2671
6.52108
0.245061
-6.71392
-14.3075
-22.7083
-32.1546
-42.0578
-54.5369
-60.2941
-68.2534
-68.7777
-69.4107
-70.4688
-71.9703
-73.5719
-74.8046
-76.3793
-77.5339
-78.9698
-80.1457
-81.2902
-82.6131
-83.3101
-84.9957
-85.2507
-87.9528
-89.8274
-96.0147
-104.341
-66.6954
-67.1713
-67.6393
-68.6426
-69.9373
-71.3334
-72.3475
-73.7054
-74.6251
-75.833
-76.7532
-77.6446
-78.6385
-79.0386
-80.6174
-80.8021
-83.6546
-85.2478
-92.0807
-99.4779
-65.0659
-65.5351
-65.9352
-66.7247
-67.82
-69.0624
-69.8503
-71.018
-71.7039
-72.6986
-73.3733
-74.0669
-74.8814
-75.1539
-76.4653
-76.3506
-79.2734
-80.5609
-87.9762
-94.6808
-63.5391
-63.9718
-64.197
-64.9452
-65.8282
-66.8699
-67.4445
-68.401
-68.8577
-69.6367
-70.0629
-70.5168
-70.9973
-71.0022
-72.1728
-71.9684
-74.9301
-75.8048
-83.6201
-89.5656
-61.954
-62.3525
-62.5175
-63.0751
-63.7534
-64.6444
-64.9941
-65.7672
-66.0003
-66.5747
-66.7645
-67.0313
-67.3263
-67.1957
-68.0467
-67.5472
-70.4697
-70.9858
-79.113
-84.316
-60.4705
-60.8615
-60.8133
-61.3499
-61.8015
-62.4951
-62.6359
-63.202
-63.2126
-63.5819
-63.5285
-63.5677
-63.5256
-63.151
-63.8171
-63.2254
-66.0547
-66.0827
-74.3632
-78.7741
-58.94
-59.3006
-59.1608
-59.5355
-59.7691
-60.3118
-60.2297
-60.6188
-60.414
-60.5877
-60.3043
-60.1646
-59.9294
-59.41
-59.7065
-58.8331
-61.4784
-61.1594
-69.4272
-73.0708
-57.5116
-57.8719
-57.4926
-57.8701
-57.8556
-58.2023
-57.9133
-58.0999
-57.68
-57.6579
-57.1409
-56.7781
-56.2097
-55.4589
-55.5233
-54.5427
-56.9492
-56.1477
-64.2284
-67.0359
-56.0479
-56.3776
-55.8679
-56.1212
-55.865
-56.0565
-55.5499
-55.5635
-54.9378
-54.7253
-53.9884
-53.4499
-52.6794
-51.7706
-51.4295
-50.1785
-52.344
-50.9849
-58.846
-60.8344
-54.6813
-55.0176
-54.2308
-54.5238
-53.9904
-53.9786
-53.2717
-53.0866
-52.2547
-51.854
-50.8932
-50.1352
-49.0394
-47.9037
-47.2689
-45.9237
-47.6933
-45.8139
-53.353
-54.057
-53.2927
-53.5939
-52.6557
-52.8252
-52.0417
-51.8631
-50.9472
-50.5931
-49.565
-48.9818
-47.8117
-46.8749
-45.57
-44.2572
-43.1951
-41.6001
-42.8719
-40.6208
-47.4805
-47.1968
-51.9939
-52.3085
-51.1203
-51.2463
-50.203
-49.8099
-48.7019
-48.1547
-46.9311
-46.167
-44.7834
-43.6286
-42.0094
-40.4496
-39.0565
-37.3428
-38.0668
-35.3211
-41.296
-39.9775
-50.6829
-50.9634
-49.5973
-49.563
-48.2911
-47.7165
-46.4103
-45.6995
-44.29
-43.3521
-41.769
-40.4289
-38.5947
-36.8312
-35.0103
-33.0395
-33.1293
-29.9369
-34.9445
-32.3657
-49.4578
-49.7909
-48.135
-48.0015
-46.4836
-45.6809
-44.1936
-43.2978
-41.7046
-40.595
-38.8099
-37.2523
-35.1148
-33.0749
-30.9018
-28.7668
-28.1949
-24.4672
-28.3517
-24.0607
-48.2155
-48.6102
-46.6862
-46.3376
-44.6157
-43.6116
-41.9395
-40.8882
-39.1218
-37.8492
-35.8752
-34.1254
-31.7673
-29.4901
-26.9068
-24.4898
-23.1654
-18.9104
-21.5826
-15.1994
-47.1043
-47.5434
-45.2134
-44.7846
-42.8286
-41.5828
-39.7376
-38.5107
-36.5701
-35.1325
-32.9629
-30.9914
-28.3309
-25.7322
-22.7959
-20.1537
-18.0602
-13.1957
-14.3669
-5.3723
-45.8683
-46.3686
-43.649
-43.1006
-40.9239
-39.4798
-37.4635
-36.0938
-33.9889
-32.3974
-30.0433
-27.8681
-24.9651
-22.0955
-18.7732
-15.8226
-12.8906
-7.45162
-7.1548
4.55108
-44.6654
-45.385
-42.2495
-41.5447
-39.224
-37.504
-35.3576
-33.8366
-31.5909
-29.871
-27.3583
-24.9839
-21.8062
-18.6135
-14.9778
-11.7148
-7.96923
-2.07923
-0.259456
14.6339
-44.1009
-44.812
-41.1532
-40.1136
-37.7288
-35.6513
-33.3523
-31.6848
-29.2934
-27.4403
-24.7636
-22.1754
-18.7649
-15.2457
-11.2831
-7.60311
-2.90464
3.876
8.43357
29.4062
-42.4183
-44.0058
-39.6201
-38.7391
-35.4239
-33.2536
-30.6668
-28.8232
-26.1952
-24.0708
-21.0691
-18.1302
-14.2382
-10.2472
-5.77853
-1.8085
3.81347
11.6676
19.9956
46.7351
-23.3012
-29.1212
-23.2454
-22.6324
-17.3413
-16.9767
-13.4667
-11.3733
-7.8802
-4.42191
0.438378
4.92176
10.6276
15.6003
22.7725
29.3919
39.7696
47.9799
63.7066
69.491
-14.9856
-14.9348
-13.621
-10.8525
-8.37436
-4.79781
-1.58141
2.05864
6.02738
10.2261
14.5233
19.4191
25.4508
32.4571
41.2053
50.4221
62.359
73.6284
92.1875
104.984
6.43454
6.69392
7.5236
9.07528
11.1394
13.0305
15.63
18.3184
21.8385
25.5117
30.0935
35.2829
41.3769
47.98
55.1724
63.0187
71.9006
81.5312
93.0079
105.486
12.8996
13.1817
14.1527
16.2699
18.5047
21.482
24.4756
28.2107
31.933
36.3703
41.0085
46.1042
51.4142
57.4281
64.0195
71.5658
79.3071
88.125
96.493
104.553
25.4402
25.7773
26.7607
28.6482
30.4414
32.6886
35.1616
37.885
41.0213
44.3694
48.1271
52.1629
56.5655
61.3955
66.2829
71.7535
76.9492
83.023
88.8849
95.8839
29.7004
30.0977
31.3712
33.2228
35.46
37.976
40.7159
43.7234
46.9185
50.3638
53.9818
57.8416
61.8322
66.0653
70.4002
75.0354
79.4506
84.3418
87.8209
92.1567
35.9745
36.1185
37.6035
39.8544
41.9706
44.3427
46.7456
49.2128
51.893
54.5402
57.4514
60.3176
63.3972
66.4674
69.6369
72.8038
75.9312
79.304
82.4145
85.7008
39.4124
40.0044
41.4544
43.7666
46.0751
48.4307
50.9464
53.3569
55.9872
58.5035
61.1955
63.8271
66.5324
69.2508
71.8741
74.6117
77.4749
80.0373
81.7613
84.0203
42.5353
43.3185
45.335
47.8275
50.4218
52.6218
55.0465
57.0688
59.3718
61.33
63.5565
65.4916
67.6481
69.5643
71.619
73.5166
75.022
76.8152
78.6012
80.2948
46.098
46.8258
49.5578
51.8718
54.7653
56.7785
59.1575
60.9761
63.0637
64.7916
66.6949
68.3623
70.134
71.7122
73.4024
75.089
76.6734
77.9992
79.0191
80.0724
51.3467
51.5623
55.549
57.3445
60.0955
61.7362
63.6881
65.0657
66.6842
67.9451
69.3851
70.5875
71.9067
73.0811
74.2556
75.1566
76.0134
76.8679
77.7497
78.7776
61.9163
60.1328
64.2464
64.4314
66.6109
67.4257
68.7655
69.615
70.73
71.5763
72.5567
73.3791
74.2784
75.076
75.9477
76.7371
77.5987
78.2902
78.8574
79.2186
76.6288
74.6034
73.939
73.8609
73.9205
74.1952
74.3243
74.6477
74.927
75.2794
75.7218
76.1084
76.636
77.0624
77.5556
77.9201
78.3086
78.621
78.9636
79.2827
85.8422
84.797
81.9891
81.5702
80.1313
79.7452
79.1145
78.8668
78.667
78.5601
78.5882
78.5939
78.741
78.8353
79.0558
79.2093
79.4881
79.6789
79.9747
80.1053
94.0675
92.6742
89.5071
87.2992
85.9595
84.2431
83.5149
82.3861
81.9971
81.3403
81.2021
80.8402
80.8047
80.6091
80.6602
80.5862
80.6652
80.6427
80.7252
80.7231
99.0406
94.9142
92.6697
90.1436
88.7865
87.2518
86.2757
85.2462
84.519
83.7704
83.2251
82.7478
82.4189
82.1192
81.9075
81.7255