/*--------------------------------*- C++ -*----------------------------------*\
  =========                 |
  \\      /  F ield         | OpenFOAM: The Open Source CFD Toolbox
   \\    /   O peration     | Website:  https://openfoam.org
    \\  /    A nd           | Version:  9
     \\/     M anipulation  |
\*---------------------------------------------------------------------------*/
FoamFile
{
    format      ascii;
    class       surfaceScalarField;
    location    "2.3";
    object      phi;
}
// * * * * * * * * * * * * * * * * * * * * * * * * * * * * * * * * * * * * * //

dimensions      [0 3 -1 0 0 0 0];

internalField   nonuniform List<scalar> 
92080
(
0.00165449
-0.426668
0.425014
-0.0144158
-0.873554
0.889625
-0.0492715
-0.962395
0.99725
-0.0852307
-0.948217
0.984177
-0.120032
-0.933347
0.968148
-0.154475
-0.918824
0.953268
-0.188271
-0.906839
0.940635
-0.221771
-0.893175
0.926676
-0.254752
-0.880925
0.913905
-0.28767
-0.86944
0.902358
-0.320605
-0.859527
0.892462
-0.353254
-0.850814
0.883462
-0.385781
-0.842893
0.875421
-0.417752
-0.834572
0.866543
-0.449659
-0.827219
0.859126
-0.481715
-0.820184
0.85224
-0.513274
-0.813868
0.845427
-0.543935
-0.807056
0.837716
-0.573615
-0.799493
0.829173
-0.794277
0.821968
-0.601306
-0.000428467
-0.42624
-0.020608
-0.853375
-0.056455
-0.926548
-0.0933221
-0.91135
-0.129791
-0.896878
-0.166249
-0.882366
-0.202136
-0.870952
-0.237275
-0.858036
-0.272482
-0.845718
-0.307391
-0.834531
-0.342285
-0.824633
-0.377191
-0.815907
-0.411281
-0.808803
-0.445138
-0.800716
-0.478589
-0.793768
-0.51118
-0.787594
-0.543216
-0.781832
-0.574114
-0.776157
-0.603183
-0.770424
-0.765633
-0.631828
-0.00288274
-0.423357
-0.026882
-0.829375
-0.0667135
-0.886716
-0.106718
-0.871346
-0.145598
-0.857998
-0.18403
-0.843934
-0.221948
-0.833035
-0.259252
-0.820732
-0.29579
-0.809179
-0.332242
-0.798079
-0.368537
-0.788338
-0.404866
-0.779578
-0.441105
-0.772565
-0.476354
-0.765467
-0.511766
-0.758356
-0.547405
-0.751954
-0.582379
-0.746859
-0.616399
-0.742137
-0.64966
-0.737163
-0.732504
-0.68279
-0.0053199
-0.418037
-0.033618
-0.801077
-0.0737965
-0.846538
-0.114318
-0.830824
-0.154587
-0.817729
-0.19475
-0.803771
-0.234269
-0.793516
-0.272944
-0.782057
-0.311496
-0.770627
-0.34948
-0.760096
-0.387392
-0.750426
-0.425355
-0.741614
-0.463057
-0.734862
-0.500477
-0.728047
-0.536827
-0.722006
-0.573119
-0.715662
-0.610363
-0.709615
-0.647223
-0.705277
-0.682696
-0.70169
-0.697049
-0.71815
-0.00467267
-0.413365
-0.0392674
-0.766483
-0.0823675
-0.803438
-0.125265
-0.787927
-0.167314
-0.77568
-0.209246
-0.761838
-0.251042
-0.751721
-0.292006
-0.741093
-0.332028
-0.730605
-0.371916
-0.720208
-0.411311
-0.711031
-0.450879
-0.702046
-0.490542
-0.695199
-0.529676
-0.688913
-0.568894
-0.682788
-0.606685
-0.67787
-0.64403
-0.67227
-0.682845
-0.666462
-0.721274
-0.663261
-0.659731
-0.758592
-0.00067947
-0.412685
-0.0382787
-0.728883
-0.08366
-0.758056
-0.129065
-0.742522
-0.1737
-0.731045
-0.217683
-0.717855
-0.260942
-0.708461
-0.303368
-0.698668
-0.345287
-0.688686
-0.386326
-0.679169
-0.427105
-0.670252
-0.467685
-0.661466
-0.5086
-0.654284
-0.549294
-0.648219
-0.589775
-0.642307
-0.630854
-0.636791
-0.670345
-0.63278
-0.709507
-0.6273
-0.749954
-0.622814
-0.619471
-0.790215
3.8573e-05
-0.412724
-0.0408138
-0.688031
-0.090042
-0.708828
-0.137683
-0.694881
-0.184091
-0.684637
-0.23007
-0.671877
-0.275837
-0.662694
-0.320371
-0.654133
-0.3638
-0.645257
-0.406827
-0.636142
-0.448768
-0.62831
-0.490411
-0.619823
-0.532187
-0.612508
-0.573829
-0.606578
-0.614823
-0.601313
-0.655694
-0.59592
-0.696985
-0.591489
-0.736857
-0.587427
-0.776833
-0.582838
-0.578921
-0.817383
0.00129159
-0.414015
-0.0410769
-0.645663
-0.0923609
-0.657544
-0.142529
-0.644713
-0.191074
-0.636092
-0.238247
-0.624704
-0.284823
-0.616119
-0.330728
-0.608228
-0.375684
-0.600301
-0.419773
-0.592053
-0.463453
-0.584631
-0.505984
-0.577292
-0.548784
-0.569707
-0.592091
-0.563271
-0.63525
-0.558154
-0.67799
-0.55318
-0.720437
-0.549043
-0.762801
-0.545063
-0.803772
-0.541868
-0.537855
-0.844838
-0.000879228
-0.413136
-0.0479495
-0.598592
-0.101444
-0.604049
-0.152564
-0.593593
-0.202552
-0.586104
-0.251549
-0.575707
-0.300115
-0.567552
-0.347282
-0.561061
-0.393252
-0.554331
-0.438576
-0.546729
-0.483088
-0.540119
-0.52656
-0.53382
-0.568639
-0.527629
-0.610883
-0.521027
-0.653426
-0.515611
-0.696168
-0.510438
-0.7391
-0.50611
-0.781979
-0.502184
-0.824859
-0.498987
-0.496211
-0.866503
-0.00706099
-0.406075
-0.0552403
-0.550413
-0.108723
-0.550567
-0.160977
-0.541339
-0.211713
-0.535368
-0.260876
-0.526544
-0.309856
-0.518572
-0.358706
-0.51221
-0.405958
-0.50708
-0.452018
-0.500669
-0.498326
-0.493811
-0.544217
-0.48793
-0.589244
-0.482602
-0.632963
-0.477308
-0.676275
-0.472299
-0.71919
-0.467522
-0.762143
-0.463158
-0.805266
-0.459061
-0.848621
-0.455632
-0.452406
-0.892426
-0.0173394
-0.388736
-0.0677959
-0.499957
-0.121123
-0.49724
-0.173157
-0.489305
-0.224203
-0.484322
-0.274343
-0.476404
-0.323987
-0.468927
-0.373249
-0.462948
-0.422174
-0.458156
-0.468753
-0.454089
-0.513826
-0.448737
-0.559111
-0.442645
-0.604155
-0.437557
-0.649096
-0.432367
-0.693327
-0.428068
-0.73712
-0.423729
-0.780258
-0.42002
-0.822981
-0.416338
-0.865386
-0.413228
-0.410167
-0.907625
-0.0247635
-0.363972
-0.075638
-0.449082
-0.128749
-0.444129
-0.181826
-0.436228
-0.233785
-0.432363
-0.283436
-0.426753
-0.333259
-0.419104
-0.38333
-0.412877
-0.433603
-0.407883
-0.483808
-0.403884
-0.531666
-0.400879
-0.577835
-0.396476
-0.623449
-0.391943
-0.668443
-0.387373
-0.71368
-0.382831
-0.758662
-0.378747
-0.80383
-0.374852
-0.848827
-0.371342
-0.893695
-0.36836
-0.365462
-0.9384
-0.0324672
-0.331505
-0.0854503
-0.396099
-0.139157
-0.390422
-0.191876
-0.383509
-0.244802
-0.379437
-0.296112
-0.375442
-0.345118
-0.370099
-0.394096
-0.363899
-0.443269
-0.35871
-0.492838
-0.354316
-0.542678
-0.351038
-0.590755
-0.3484
-0.637394
-0.345303
-0.68277
-0.341997
-0.726817
-0.338784
-0.770616
-0.334948
-0.813629
-0.331839
-0.857075
-0.327896
-0.900281
-0.325153
-0.32159
-0.944153
-0.0378229
-0.293682
-0.0915154
-0.342406
-0.146078
-0.335859
-0.200711
-0.328877
-0.254122
-0.326026
-0.30652
-0.323043
-0.357711
-0.318908
-0.407177
-0.314433
-0.456588
-0.309299
-0.506219
-0.304685
-0.556305
-0.300953
-0.607192
-0.297513
-0.657068
-0.295427
-0.706546
-0.292519
-0.754524
-0.290805
-0.801327
-0.288146
-0.846867
-0.286298
-0.891049
-0.283715
-0.934611
-0.281591
-0.279184
-0.977017
-0.0417428
-0.251939
-0.0965749
-0.287574
-0.149612
-0.282823
-0.203304
-0.275185
-0.258742
-0.270588
-0.311996
-0.269789
-0.363452
-0.267453
-0.413485
-0.264399
-0.461262
-0.261523
-0.508964
-0.256983
-0.556052
-0.253864
-0.603782
-0.249782
-0.652182
-0.247028
-0.700694
-0.244006
-0.749923
-0.241577
-0.798721
-0.239347
-0.847771
-0.237248
-0.895957
-0.235529
-0.943946
-0.233601
-0.232052
-0.991078
-0.043877
-0.208062
-0.103006
-0.228446
-0.158373
-0.227456
-0.211117
-0.22244
-0.265811
-0.215894
-0.323101
-0.2125
-0.378402
-0.212151
-0.433062
-0.209739
-0.485526
-0.209059
-0.535784
-0.206725
-0.584887
-0.204761
-0.632198
-0.202471
-0.679176
-0.20005
-0.7253
-0.197882
-0.771409
-0.195468
-0.8173
-0.193456
-0.863332
-0.191217
-0.909406
-0.189455
-0.955498
-0.18751
-0.185889
-1.00166
-0.049015
-0.159047
-0.107124
-0.170337
-0.161219
-0.173361
-0.212648
-0.171011
-0.260875
-0.167667
-0.311173
-0.162201
-0.363561
-0.159763
-0.416021
-0.157279
-0.469775
-0.155305
-0.522568
-0.153933
-0.575202
-0.152127
-0.626821
-0.150852
-0.677605
-0.149267
-0.727494
-0.147993
-0.776451
-0.146511
-0.824709
-0.145198
-0.872176
-0.143749
-0.919268
-0.142363
-0.965764
-0.141014
-0.139526
-1.01213
-0.0505749
-0.108472
-0.115271
-0.10564
-0.17796
-0.110672
-0.236699
-0.112272
-0.290964
-0.113402
-0.341397
-0.111767
-0.391426
-0.109735
-0.440675
-0.108029
-0.489866
-0.106114
-0.539157
-0.104641
-0.588219
-0.103065
-0.637283
-0.101788
-0.686041
-0.100509
-0.734633
-0.0994008
-0.782755
-0.0983897
-0.830628
-0.097324
-0.877917
-0.0964607
-0.924916
-0.095364
-0.97142
-0.0945095
-0.0933837
-1.01756
-0.0500631
-0.0584093
-0.0980418
-0.0576617
-0.153549
-0.0551653
-0.209903
-0.0559181
-0.2686
-0.0547045
-0.324922
-0.055446
-0.380353
-0.0543037
-0.43426
-0.0541228
-0.487054
-0.0533195
-0.538599
-0.0530965
-0.589406
-0.0522585
-0.639369
-0.0518255
-0.688814
-0.0510634
-0.737717
-0.0504981
-0.786223
-0.0498836
-0.834202
-0.0493452
-0.881837
-0.0488256
-0.928823
-0.0483777
-0.975428
-0.0479049
-0.0474896
-1.02132
-0.0742359
0.0158266
-0.124327
-0.00757065
-0.17669
-0.00280252
-0.226456
-0.00615153
-0.279407
-0.00175368
-0.33183
-0.00302335
-0.385065
-0.00106831
-0.437044
-0.00214404
-0.489307
-0.00105585
-0.5406
-0.00180355
-0.591639
-0.00122002
-0.641718
-0.00174667
-0.691452
-0.00132926
-0.740215
-0.00173461
-0.788736
-0.00136332
-0.836379
-0.00170157
-0.883813
-0.00139148
-0.930511
-0.00167996
-0.976945
-0.00147126
-1.02263
-0.00180401
-0.0132139
0.0502741
-0.0370601
0.000360996
0.0401131
-0.053688
0.0630453
-0.0428785
-0.0198058
0.219474
-0.255287
0.0988583
0.454391
-0.593933
0.359016
0.650494
-0.865071
0.668968
0.759999
-1.00982
0.90032
0.811073
-1.06459
1.01351
0.837274
-1.08187
1.05566
0.853687
-1.08593
1.06952
0.865951
-1.08608
1.07382
0.87461
-1.08325
1.07459
0.881954
-1.08025
1.07291
0.890475
-1.07843
1.06991
0.900227
-1.0788
1.06905
0.908511
-1.07707
1.06878
0.915675
-1.07665
1.06948
0.922977
-1.07527
1.06797
0.930588
-1.07571
1.0681
-1.07376
0.93719
1.06716
-0.00323326
0.0535073
0.0294475
0.00743225
0.125728
-0.139159
0.336063
-0.465622
0.538031
-0.795901
0.661694
-0.988735
0.719432
-1.06756
0.746354
-1.09151
0.761353
-1.09686
0.771924
-1.0965
0.779367
-1.09352
0.785128
-1.08901
0.792328
-1.08745
0.799973
-1.08607
0.806114
-1.08494
0.811909
-1.08286
0.818173
-1.08291
0.824272
-1.08137
0.829357
-1.0808
-1.07783
0.833425
0.0103658
0.0431416
0.0646943
-0.0468963
0.208558
-0.283023
0.410497
-0.667561
0.549738
-0.935141
0.620743
-1.05974
0.650514
-1.09733
0.665173
-1.10617
0.674529
-1.10622
0.680879
-1.10285
0.685509
-1.09815
0.691679
-1.09518
0.698159
-1.09393
0.703249
-1.09116
0.708284
-1.08998
0.713816
-1.08839
0.718986
-1.08808
0.722307
-1.08469
0.725168
-1.08366
-1.08067
0.728013
0.0234719
0.0196696
0.0961251
-0.119549
0.272163
-0.459061
0.433726
-0.829123
0.526361
-1.02778
0.563185
-1.09656
0.579473
-1.11362
0.588567
-1.11526
0.594613
-1.11227
0.598388
-1.10663
0.603173
-1.10294
0.608026
-1.10004
0.611833
-1.09774
0.615705
-1.09504
0.619483
-1.09375
0.622584
-1.0915
0.624384
-1.08988
0.626029
-1.08633
0.627782
-1.08541
-1.08181
0.628919
0.0381859
-0.0185163
0.125182
-0.206545
0.292045
-0.625924
0.409297
-0.946375
0.464865
-1.08335
0.487545
-1.11924
0.498034
-1.12411
0.50455
-1.12178
0.507972
-1.11569
0.511808
-1.11047
0.515437
-1.10657
0.518583
-1.10318
0.52164
-1.10079
0.524166
-1.09756
0.526084
-1.09567
0.527658
-1.09307
0.528648
-1.09087
0.529692
-1.08738
0.530146
-1.08587
-1.08116
0.529497
0.0385266
-0.0570429
0.152169
-0.320187
0.294214
-0.767969
0.377343
-1.0295
0.409747
-1.11575
0.422196
-1.13169
0.428703
-1.13062
0.431919
-1.125
0.434297
-1.11807
0.436571
-1.11274
0.438491
-1.10849
0.440305
-1.105
0.441111
-1.1016
0.441536
-1.09799
0.441708
-1.09585
0.44122
-1.09258
0.439886
-1.08954
0.4383
-1.08579
0.43624
-1.08381
-1.07842
0.433496
0.03453
-0.0915729
0.155972
-0.44163
0.263751
-0.875748
0.318099
-1.08385
0.33785
-1.1355
0.345932
-1.13978
0.350548
-1.13523
0.352449
-1.1269
0.35422
-1.11984
0.355585
-1.11411
0.356487
-1.10939
0.356492
-1.105
0.356061
-1.10117
0.355281
-1.09721
0.353789
-1.09435
0.351702
-1.09049
0.349201
-1.08703
0.346707
-1.0833
0.343621
-1.08072
-1.07422
0.339429
0.038801
-0.130374
0.147822
-0.550651
0.233201
-0.961127
0.270793
-1.12144
0.282941
-1.14765
0.288404
-1.14524
0.289611
-1.13644
0.290163
-1.12745
0.290091
-1.11976
0.289247
-1.11326
0.28762
-1.10776
0.285575
-1.10296
0.282742
-1.09834
0.279362
-1.09383
0.275549
-1.09054
0.271204
-1.08615
0.266329
-1.08216
0.261169
-1.07814
0.255402
-1.07495
-1.06776
0.248939
0.042432
-0.172806
0.133568
-0.641788
0.195345
-1.0229
0.216311
-1.14241
0.221943
-1.15328
0.222761
-1.14606
0.222256
-1.13593
0.221102
-1.1263
0.218977
-1.11764
0.21625
-1.11054
0.213073
-1.10459
0.2091
-1.09898
0.204582
-1.09382
0.199676
-1.08892
0.194132
-1.085
0.18805
-1.08007
0.181552
-1.07566
0.174875
-1.07146
0.167674
-1.06775
-1.05981
0.15972
0.0467241
-0.21953
0.118892
-0.713955
0.163948
-1.06796
0.175836
-1.1543
0.177753
-1.1552
0.175715
-1.14402
0.172908
-1.13313
0.168833
-1.12222
0.164146
-1.11295
0.158793
-1.10518
0.152658
-1.09845
0.145971
-1.0923
0.138679
-1.08653
0.13086
-1.0811
0.122594
-1.07673
0.113891
-1.07136
0.10477
-1.06654
0.095348
-1.06204
0.0854131
-1.05782
-1.04945
0.0750547
0.0429302
-0.26246
0.100883
-0.771908
0.130173
-1.09725
0.132607
-1.15673
0.128754
-1.15134
0.123113
-1.13838
0.117092
-1.12711
0.110479
-1.11561
0.103129
-1.1056
0.0951982
-1.09725
0.0868496
-1.0901
0.0779199
-1.08337
0.0685062
-1.07711
0.0586981
-1.07129
0.0484197
-1.06645
0.0377443
-1.06069
0.0266806
-1.05548
0.0153849
-1.05074
0.00375805
-1.04619
-1.03749
-0.0082056
0.0373324
-0.299793
0.0860086
-0.820584
0.102497
-1.11374
0.0994965
-1.15373
0.0922229
-1.14407
0.0843092
-1.13046
0.0755048
-1.1183
0.065875
-1.10598
0.0557134
-1.09544
0.0449968
-1.08653
0.033698
-1.0788
0.0218627
-1.07153
0.00952053
-1.06477
-0.00328346
-1.05849
-0.0164868
-1.05325
-0.0301055
-1.04707
-0.0441192
-1.04147
-0.058357
-1.03651
-0.0728654
-1.03168
-1.02285
-0.0875016
0.0281223
-0.327915
0.0620815
-0.854544
0.0706602
-1.12232
0.0633969
-1.14647
0.0527705
-1.13344
0.0416521
-1.11934
0.0298451
-1.10649
0.017402
-1.09354
0.00438124
-1.08242
-0.00918368
-1.07297
-0.0231678
-1.06482
-0.0375436
-1.05716
-0.0523084
-1.05001
-0.0674827
-1.04332
-0.0829741
-1.03776
-0.0987345
-1.03131
-0.114899
-1.0253
-0.13143
-1.01998
-0.148015
-1.0151
-1.00637
-0.164494
0.02736
-0.355275
0.0537772
-0.880961
0.05234
-1.12088
0.0400265
-1.13415
0.0253509
-1.11877
0.0106874
-1.10468
-0.00437852
-1.09143
-0.0198927
-1.07802
-0.0358427
-1.06647
-0.0522421
-1.05657
-0.0689951
-1.04807
-0.0862101
-1.03994
-0.103806
-1.03241
-0.12174
-1.02538
-0.139992
-1.01951
-0.158547
-1.01275
-0.17738
-1.00647
-0.196419
-1.00094
-0.215202
-0.996313
-0.987649
-0.233924
0.019133
-0.374408
0.0347236
-0.896551
0.0266683
-1.11282
0.0104572
-1.11794
-0.00657422
-1.10174
-0.0241008
-1.08715
-0.042009
-1.07352
-0.0604719
-1.05956
-0.0792977
-1.04764
-0.0985559
-1.03731
-0.11818
-1.02844
-0.13797
-1.02015
-0.158063
-1.01232
-0.178559
-1.00489
-0.199181
-0.998883
-0.219894
-0.992039
-0.240984
-0.985377
-0.262527
-0.979394
-0.283735
-0.975105
-0.966879
-0.304505
0.0175562
-0.391964
0.028364
-0.907359
0.0144151
-1.09888
-0.00574867
-1.09778
-0.0267222
-1.08076
-0.0477943
-1.06608
-0.0689589
-1.05236
-0.0902949
-1.03822
-0.11201
-1.02593
-0.134085
-1.01524
-0.156347
-1.00618
-0.178988
-0.997509
-0.201812
-0.989492
-0.224877
-0.981822
-0.248224
-0.975535
-0.271692
-0.968572
-0.295258
-0.961811
-0.319132
-0.95552
-0.342982
-0.951255
-0.943828
-0.366033
0.0123751
-0.404339
0.0155672
-0.910551
-0.00406973
-1.07924
-0.0285615
-1.07329
-0.0526432
-1.05668
-0.0767838
-1.04194
-0.10078
-1.02836
-0.125056
-1.01395
-0.149415
-1.00157
-0.174068
-0.990584
-0.198998
-0.98125
-0.223864
-0.972644
-0.248992
-0.964364
-0.274493
-0.956322
-0.299984
-0.950045
-0.325416
-0.94314
-0.351085
-0.936141
-0.377215
-0.92939
-0.403349
-0.92512
-0.918588
-0.428589
0.00993905
-0.414278
0.00800388
-0.908616
-0.0150949
-1.05614
-0.0414339
-1.04695
-0.06822
-1.0299
-0.0951052
-1.01506
-0.12185
-1.00162
-0.148519
-0.987276
-0.175514
-0.974576
-0.202788
-0.96331
-0.230208
-0.95383
-0.25792
-0.944932
-0.285537
-0.936746
-0.313412
-0.928447
-0.341711
-0.921746
-0.369976
-0.914875
-0.398064
-0.908053
-0.426493
-0.900961
-0.455757
-0.895856
-0.889934
-0.484411
0.00631595
-0.420594
-0.000579485
-0.901721
-0.0293575
-1.02736
-0.0600795
-1.01623
-0.0899425
-1.00003
-0.119732
-0.985267
-0.14904
-0.972307
-0.178383
-0.957933
-0.207578
-0.945381
-0.236966
-0.933922
-0.266617
-0.924179
-0.296122
-0.915427
-0.325863
-0.907004
-0.355843
-0.898467
-0.385889
-0.8917
-0.416074
-0.88469
-0.446506
-0.877621
-0.477128
-0.870339
-0.509083
-0.863901
-0.858694
-0.540323
0.00441974
-0.00767628
-0.0377873
-0.0698379
-0.101723
-0.133722
-0.165395
-0.196652
-0.228128
-0.259692
-0.291409
-0.323374
-0.354958
-0.386881
-0.419455
-0.451905
-0.484099
-0.516722
-0.551449
-0.588175
0.862661
-9.51619
9.59072
0.80132
-9.39703
9.45837
0.738653
-9.43259
9.49526
0.681581
-9.46033
9.51741
0.621902
-9.49693
9.55661
0.563652
-9.53132
9.58957
0.51054
-9.54084
9.59395
0.461096
-9.57682
9.62627
0.413112
-9.60393
9.65192
0.367952
-9.62452
9.66968
0.326517
-9.6426
9.68403
0.288186
-9.65318
9.69151
0.253179
-9.66419
9.6992
0.220759
-9.66793
9.70035
0.191542
-9.67121
9.70042
0.163533
-9.64895
9.67696
0.139666
-9.61258
9.63645
0.107148
-9.11954
9.15206
0.0549645
-7.48269
7.53487
-4.06206
4.11703
0.760131
-9.4429
0.698749
-9.33565
0.638825
-9.37267
0.587754
-9.40926
0.534309
-9.44349
0.480133
-9.47715
0.429276
-9.48998
0.383249
-9.5308
0.341235
-9.56192
0.302712
-9.58599
0.267889
-9.60777
0.236206
-9.6215
0.208047
-9.63603
0.182765
-9.64265
0.160499
-9.64894
0.140141
-9.6286
0.123146
-9.59559
0.0961961
-9.09259
0.0510238
-7.43751
-4.01104
0.661366
-9.37625
0.603595
-9.27788
0.54702
-9.31609
0.49884
-9.36108
0.447662
-9.39231
0.400449
-9.42993
0.359399
-9.44893
0.321404
-9.4928
0.285483
-9.526
0.252378
-9.55289
0.222934
-9.57833
0.196569
-9.59513
0.17348
-9.61294
0.152935
-9.62211
0.135626
-9.63163
0.119577
-9.61255
0.107678
-9.58369
0.0879091
-9.07282
0.0487448
-7.39835
-3.96229
0.559234
-9.30657
0.502071
-9.22071
0.449236
-9.26326
0.407016
-9.31886
0.362028
-9.34732
0.318847
-9.38675
0.279731
-9.40981
0.244869
-9.45794
0.214701
-9.49583
0.188052
-9.52624
0.165046
-9.55532
0.14514
-9.57523
0.128676
-9.59648
0.115148
-9.60858
0.104674
-9.62116
0.0961917
-9.60407
0.0911442
-9.57864
0.0771237
-9.0588
0.044989
-7.36622
-3.91731
0.464283
-9.24135
0.410021
-9.16645
0.359657
-9.21289
0.319448
-9.27865
0.27698
-9.30485
0.240598
-9.35037
0.210939
-9.38015
0.184079
-9.43108
0.159939
-9.47169
0.138542
-9.50484
0.120755
-9.53753
0.106048
-9.56052
0.0945801
-9.58501
0.0856603
-9.59966
0.0800338
-9.61553
0.0757757
-9.59981
0.0757324
-9.5786
0.0688713
-9.05194
0.0427395
-7.34008
-3.87457
0.364388
-9.17224
0.311327
-9.11339
0.265119
-9.16669
0.230265
-9.2438
0.194093
-9.26868
0.161407
-9.31768
0.133314
-9.35206
0.109377
-9.40714
0.0906679
-9.45298
0.0754761
-9.48965
0.0639201
-9.52598
0.0554594
-9.55206
0.0503723
-9.57992
0.0483017
-9.59759
0.0493503
-9.61658
0.0525382
-9.603
0.0592887
-9.58535
0.0583009
-9.05095
0.0391608
-7.32094
-3.83541
0.272789
-9.1056
0.221578
-9.06218
0.177328
-9.12244
0.144128
-9.2106
0.110877
-9.23543
0.0849491
-9.29176
0.0660164
-9.33313
0.0500332
-9.39116
0.0372168
-9.44016
0.0271092
-9.47954
0.020592
-9.51946
0.0171667
-9.54863
0.0169563
-9.57971
0.0193381
-9.59997
0.025095
-9.62234
0.0323912
-9.61029
0.0440175
-9.59697
0.050107
-9.05704
0.0370109
-7.30785
-3.79839
0.177237
-9.0339
0.127652
-9.01259
0.0871138
-9.0819
0.0582636
-9.18175
0.0310832
-9.20825
0.00844359
-9.26912
-0.00922328
-9.31546
-0.0224145
-9.37797
-0.0301692
-9.43241
-0.0343602
-9.47535
-0.0348845
-9.51894
-0.0322923
-9.55123
-0.0263867
-9.58562
-0.0173702
-9.60899
-0.00514704
-9.63456
0.00943439
-9.62487
0.0277786
-9.61532
0.0398089
-9.06907
0.0335861
-7.30162
-3.76481
0.0885721
-8.96275
0.0399016
-8.96392
-0.000302241
-9.04169
-0.0262392
-9.15581
-0.0497287
-9.18476
-0.0654826
-9.25336
-0.0743186
-9.30662
-0.0799033
-9.37238
-0.0820187
-9.43029
-0.081293
-9.47608
-0.0769742
-9.52326
-0.0695425
-9.55866
-0.058938
-9.59622
-0.0456342
-9.62229
-0.0288909
-9.6513
-0.0103356
-9.64343
0.012723
-9.63838
0.0316954
-9.08804
0.0315267
-7.30146
-3.73328
-0.00291914
-8.88478
-0.0482273
-8.91862
-0.0838224
-9.0061
-0.108161
-9.13147
-0.126246
-9.16667
-0.139455
-9.24015
-0.147073
-9.29901
-0.149868
-9.36959
-0.147208
-9.43295
-0.140843
-9.48244
-0.13079
-9.53331
-0.117588
-9.57186
-0.101137
-9.61267
-0.0814723
-9.64196
-0.0585507
-9.67422
-0.0328884
-9.66909
-0.00320867
-9.66806
0.0216776
-9.11293
0.0283181
-7.3081
-3.70496
-0.0859481
-8.80704
-0.13431
-8.87025
-0.167751
-8.97266
-0.190102
-9.10912
-0.203904
-9.15287
-0.209938
-9.23412
-0.209312
-9.29963
-0.205169
-9.37373
-0.197226
-9.4409
-0.186107
-9.49356
-0.171414
-9.548
-0.153593
-9.58968
-0.132641
-9.63363
-0.108886
-9.66571
-0.0816471
-9.70146
-0.0521973
-9.69854
-0.0179668
-9.70229
0.0136322
-9.14453
0.026348
-7.32081
-3.67862
-0.168332
-8.72621
-0.215798
-8.82279
-0.24724
-8.94121
-0.267203
-9.08916
-0.27716
-9.14291
-0.281418
-9.22986
-0.279525
-9.30153
-0.272468
-9.38079
-0.259912
-9.45345
-0.243423
-9.51005
-0.223266
-9.56816
-0.199943
-9.613
-0.17343
-9.66014
-0.143642
-9.6955
-0.110548
-9.73456
-0.0742438
-9.73485
-0.0335276
-9.743
0.00381044
-9.18187
0.0233962
-7.3404
-3.65522
-0.250454
-8.64025
-0.29841
-8.77483
-0.327945
-8.91168
-0.345545
-9.07156
-0.350812
-9.13765
-0.34798
-9.23269
-0.338555
-9.31095
-0.325329
-9.39401
-0.307858
-9.47092
-0.286804
-9.5311
-0.26222
-9.59274
-0.234504
-9.64072
-0.203709
-9.69093
-0.170046
-9.72916
-0.132873
-9.77173
-0.0930109
-9.77471
-0.0479236
-9.78809
-0.00416564
-9.22563
0.021526
-7.36609
-3.63369
-0.32678
-8.54739
-0.374442
-8.72717
-0.402643
-8.88348
-0.417943
-9.05626
-0.420716
-9.13487
-0.416846
-9.23657
-0.406014
-9.32178
-0.389694
-9.41033
-0.367719
-9.4929
-0.341574
-9.55725
-0.311813
-9.6225
-0.278885
-9.67365
-0.242835
-9.72698
-0.203509
-9.76849
-0.160838
-9.8144
-0.114427
-9.82112
-0.0630484
-9.83947
-0.0136188
-9.27506
0.0187927
-7.3985
-3.6149
-0.404175
-8.44772
-0.452572
-8.67877
-0.478943
-8.85711
-0.491902
-9.0433
-0.48969
-9.13709
-0.479124
-9.24713
-0.461644
-9.33926
-0.439891
-9.43209
-0.413359
-9.51943
-0.382866
-9.58774
-0.348898
-9.65647
-0.311812
-9.71073
-0.271715
-9.76708
-0.228753
-9.81145
-0.18228
-9.86087
-0.132586
-9.87081
-0.0771398
-9.89492
-0.0216108
-9.33058
0.0169578
-7.43707
-3.59794
-0.474122
-8.33963
-0.524141
-8.62876
-0.549599
-8.83165
-0.559976
-9.03292
-0.556256
-9.14081
-0.545064
-9.25832
-0.525926
-9.3584
-0.500919
-9.45709
-0.470041
-9.55031
-0.434754
-9.62303
-0.395923
-9.6953
-0.353944
-9.75271
-0.308924
-9.8121
-0.260705
-9.85967
-0.209123
-9.91246
-0.153243
-9.92669
-0.0918456
-9.95631
-0.0308335
-9.3916
0.0145537
-7.48246
-3.58339
-0.546253
-8.22197
-0.596925
-8.57808
-0.620618
-8.80796
-0.62891
-9.02463
-0.619902
-9.14981
-0.602506
-9.27572
-0.577758
-9.38315
-0.548091
-9.48676
-0.513064
-9.58534
-0.47368
-9.66241
-0.430872
-9.73811
-0.384986
-9.7986
-0.336182
-9.8609
-0.284589
-9.91126
-0.22954
-9.9675
-0.170661
-9.98557
-0.105569
-10.0214
-0.0389454
-9.45822
0.0127316
-7.53413
-3.57066
-0.613679
-8.0927
-0.666726
-8.52504
-0.688527
-8.78616
-0.693624
-9.01953
-0.683825
-9.15961
-0.665759
-9.29379
-0.638901
-9.41001
-0.605815
-9.51985
-0.566564
-9.62459
-0.522629
-9.70635
-0.475227
-9.78551
-0.424742
-9.84908
-0.37132
-9.91433
-0.314878
-9.96771
-0.255082
-10.0273
-0.190438
-10.0502
-0.119644
-10.0922
-0.0477086
-9.53016
0.010532
-7.59237
-3.56013
-0.670823
-7.9622
-0.731608
-8.46425
-0.753983
-8.76378
-0.757943
-9.01557
-0.742684
-9.17487
-0.71895
-9.31752
-0.687395
-9.44156
-0.65033
-9.55691
-0.607243
-9.66767
-0.559387
-9.75421
-0.508181
-9.83672
-0.454005
-9.90326
-0.397027
-9.9713
-0.3375
-10.0272
-0.27455
-10.0903
-0.207239
-10.1175
-0.133308
-10.1661
-0.0560944
-9.60737
0.00877427
-7.65724
-3.55135
-0.721748
-7.82863
-0.792076
-8.39392
-0.812484
-8.74337
-0.814453
-9.0136
-0.799168
-9.19016
-0.774664
-9.34202
-0.741509
-9.47472
-0.70159
-9.59683
-0.655205
-9.71406
-0.603429
-9.80598
-0.548438
-9.89171
-0.490144
-9.96155
-0.429313
-10.0321
-0.365342
-10.0912
-0.298547
-10.157
-0.225432
-10.1906
-0.147392
-10.2442
-0.0644126
-9.69035
0.00609557
-7.72775
-3.54526
8.0296
-7.47191
-8.38631
7.416
-7.78033
6.83764
-8.16501
6.22444
-8.4004
5.6875
-8.65322
5.18853
-8.84305
4.73644
-9.02263
4.3135
-9.17388
3.91287
-9.31343
3.53889
-9.43201
3.18043
-9.53324
2.83203
-9.61315
2.48919
-9.68929
2.15613
-9.75815
1.8147
-9.81561
1.51493
-9.89087
1.17648
-9.90572
0.808636
-9.3225
0.342095
-7.26121
-3.20316
4.72808
-7.39689
-4.8031
4.58351
-7.63575
4.35681
-7.93832
4.12816
-8.17175
3.87559
-8.40064
3.61816
-8.58562
3.35413
-8.75861
3.0913
-8.91106
2.8223
-9.04443
2.54905
-9.15875
2.27293
-9.25712
2.00875
-9.34897
1.7562
-9.43675
1.51476
-9.51671
1.28886
-9.58971
1.07366
-9.67567
0.82952
-9.66158
0.5572
-9.05018
0.183368
-6.88738
-3.01979
3.41011
-7.49142
-3.31559
3.45798
-7.68362
3.43235
-7.91269
3.36069
-8.10009
3.23136
-8.27131
3.07825
-8.43251
2.90022
-8.58058
2.71038
-8.72121
2.5079
-8.84195
2.30004
-8.9509
2.0911
-9.04818
1.88455
-9.14242
1.67253
-9.22473
1.45955
-9.30373
1.24214
-9.3723
1.01252
-9.44605
0.777427
-9.42649
0.532293
-8.80505
0.229889
-6.58497
-2.7899
2.19316
-7.65216
-2.03241
2.29867
-7.78913
2.31198
-7.926
2.29361
-8.08172
2.24309
-8.2208
2.16879
-8.35821
2.06826
-8.48005
1.9425
-8.59545
1.80044
-8.69989
1.65089
-8.80135
1.49816
-8.89545
1.34152
-8.98577
1.18362
-9.06684
1.02877
-9.14889
0.874146
-9.21768
0.722766
-9.29467
0.571348
-9.27507
0.403874
-8.63757
0.173318
-6.35442
-2.61659
1.56572
-7.79011
-1.42778
1.65504
-7.87845
1.71898
-7.98994
1.75091
-8.11365
1.74719
-8.21707
1.71191
-8.32293
1.65334
-8.42148
1.57763
-8.51975
1.48719
-8.60944
1.38333
-8.69749
1.26929
-8.78142
1.14622
-8.8627
1.01704
-8.93765
0.880871
-9.01272
0.741957
-9.07876
0.5962
-9.14891
0.450946
-9.12982
0.320295
-8.50692
0.16066
-6.19478
-2.45593
1.03936
-7.90264
-0.926823
1.13929
-7.97838
1.19641
-8.04706
1.21534
-8.13258
1.21116
-8.21289
1.18545
-8.29722
1.14318
-8.37921
1.08492
-8.46149
1.01725
-8.54177
0.939845
-8.62008
0.855148
-8.69672
0.765523
-8.77307
0.672344
-8.84447
0.577089
-8.91746
0.48356
-8.98523
0.389993
-9.05534
0.30051
-9.04033
0.22902
-8.43543
0.128958
-6.09472
-2.32697
0.711456
-7.98565
-0.628444
0.769072
-8.036
0.808606
-8.08659
0.837816
-8.16179
0.85667
-8.23175
0.855417
-8.29597
0.839499
-8.36329
0.80565
-8.42764
0.759178
-8.4953
0.701081
-8.56199
0.633721
-8.62936
0.556754
-8.69611
0.474042
-8.76176
0.384982
-8.8284
0.295837
-8.89609
0.205125
-8.96463
0.116443
-8.95165
0.0773267
-8.39631
0.0676687
-6.08506
-2.2593
0.484115
-8.04195
-0.427819
0.532291
-8.08417
0.570177
-8.12448
0.586471
-8.17809
0.580121
-8.2254
0.560674
-8.27652
0.530126
-8.33275
0.492673
-8.39019
0.447881
-8.45051
0.393945
-8.50805
0.333999
-8.56941
0.266208
-8.62832
0.197402
-8.69296
0.126363
-8.75736
0.0553211
-8.82505
-0.0164625
-8.89285
-0.0776972
-8.89042
-0.0742617
-8.39975
0.027152
-6.18648
-2.23215
0.294271
-8.07695
-0.259272
0.318651
-8.10855
0.33489
-8.14072
0.338072
-8.18127
0.335418
-8.22274
0.325049
-8.26615
0.303247
-8.31094
0.269612
-8.35655
0.226613
-8.40751
0.174882
-8.45632
0.117115
-8.51165
0.0519844
-8.56319
-0.016698
-8.62427
-0.0916034
-8.68246
-0.1673
-8.74935
-0.243128
-8.81702
-0.302099
-8.83145
-0.272684
-8.42916
-0.0595209
-6.39964
-2.29167
0.187346
-8.09622
-0.168077
0.20024
-8.12145
0.206922
-8.1474
0.204121
-8.17847
0.192042
-8.21066
0.167497
-8.2416
0.131502
-8.27495
0.0873899
-8.31244
0.0344781
-8.3546
-0.0235944
-8.39825
-0.0878986
-8.44734
-0.1585
-8.49258
-0.236598
-8.54618
-0.32299
-8.59607
-0.41352
-8.65882
-0.509496
-8.72104
-0.586135
-8.75481
-0.555029
-8.46027
-0.2274
-6.72727
-2.51907
0.081995
-8.10156
-0.076657
0.0811767
-8.12063
0.0747742
-8.141
0.0598308
-8.16352
0.0366055
-8.18744
0.00708564
-8.21208
-0.0261673
-8.2417
-0.0677123
-8.2709
-0.11786
-8.30445
-0.177962
-8.33814
-0.249339
-8.37597
-0.330686
-8.41124
-0.422946
-8.45392
-0.526281
-8.49273
-0.640885
-8.54422
-0.770339
-8.59159
-0.889281
-8.63586
-0.890361
-8.45919
-0.490007
-7.12762
-3.00908
0.0233705
-8.09946
-0.0254708
0.0149552
-8.11221
0.0022028
-8.12824
-0.0160123
-8.14531
-0.0397853
-8.16366
-0.0708154
-8.18105
-0.109521
-8.20299
-0.157297
-8.22312
-0.213226
-8.24852
-0.280349
-8.27102
-0.358991
-8.29732
-0.446063
-8.32417
-0.544964
-8.35501
-0.656362
-8.38133
-0.788575
-8.412
-0.94487
-8.4353
-1.10686
-8.47388
-1.16113
-8.40492
-0.82685
-7.4619
-3.83592
-0.0208393
-8.08912
0.0104987
-0.0353856
-8.09767
-0.0549401
-8.10869
-0.0814091
-8.11884
-0.112829
-8.13224
-0.149484
-8.1444
-0.192093
-8.16038
-0.240322
-8.17489
-0.296551
-8.19229
-0.361384
-8.20619
-0.433362
-8.22535
-0.515983
-8.24154
-0.609663
-8.26133
-0.715923
-8.27507
-0.83863
-8.2893
-0.979792
-8.29413
-1.15652
-8.29715
-1.29326
-8.26818
-1.06292
-7.69224
-4.89884
-0.0491575
-8.07583
0.0358694
-0.0648939
-8.08193
-0.0832239
-8.09036
-0.105522
-8.09654
-0.131815
-8.10595
-0.163113
-8.1131
-0.199834
-8.12366
-0.242606
-8.13212
-0.291844
-8.14305
-0.347434
-8.1506
-0.409268
-8.16351
-0.481508
-8.1693
-0.566691
-8.17615
-0.663555
-8.17821
-0.774392
-8.17846
-0.894453
-8.17407
-1.03528
-8.15633
-1.17213
-8.13132
-1.00515
-7.85923
-5.90399
-0.0606203
-8.06051
0.0453064
-0.0788312
-8.06372
-0.100216
-8.06898
-0.123665
-8.07309
-0.150631
-8.07898
-0.180302
-8.08343
-0.214331
-8.08963
-0.25105
-8.0954
-0.292815
-8.10129
-0.340254
-8.10316
-0.394872
-8.10889
-0.453107
-8.11107
-0.514223
-8.11504
-0.582095
-8.11034
-0.653602
-8.10695
-0.736677
-8.091
-0.81997
-8.07303
-0.906069
-8.04522
-0.822878
-7.94242
-6.72687
-0.0610555
-8.04753
0.0480757
-0.0753944
-8.04938
-0.0919722
-8.0524
-0.110085
-8.05498
-0.130993
-8.05808
-0.154023
-8.0604
-0.17893
-8.06472
-0.208496
-8.06583
-0.241014
-8.06877
-0.274558
-8.06962
-0.312348
-8.0711
-0.353759
-8.06966
-0.399765
-8.06903
-0.446794
-8.06331
-0.494772
-8.05897
-0.538759
-8.04701
-0.574678
-8.03711
-0.613262
-8.00664
-0.582184
-7.9735
-7.30906
-0.0557166
-8.03571
0.0438927
-0.0687626
-8.03634
-0.0830392
-8.03812
-0.0989684
-8.03905
-0.116121
-8.04092
-0.134798
-8.04172
-0.155423
-8.0441
-0.175494
-8.04576
-0.19702
-8.04725
-0.220364
-8.04627
-0.243139
-8.04833
-0.265732
-8.04707
-0.28776
-8.047
-0.308946
-8.04212
-0.327593
-8.04033
-0.342162
-8.03244
-0.351878
-8.0274
-0.345957
-8.01256
-0.314887
-8.00457
-7.62394
-0.0415926
-8.02747
0.0333577
-0.0502377