/*--------------------------------*- C++ -*----------------------------------*\
  =========                 |
  \\      /  F ield         | OpenFOAM: The Open Source CFD Toolbox
   \\    /   O peration     | Website:  https://openfoam.org
    \\  /    A nd           | Version:  9
     \\/     M anipulation  |
\*---------------------------------------------------------------------------*/
FoamFile
{
    format      ascii;
    class       surfaceScalarField;
    location    "6.4";
    object      phi;
}
// * * * * * * * * * * * * * * * * * * * * * * * * * * * * * * * * * * * * * //

dimensions      [0 3 -1 0 0 0 0];

internalField   nonuniform List<scalar> 
92080
(
-0.00332568
-0.435956
0.439282
-0.0285215
-0.848109
0.873305
-0.0703162
-0.908709
0.950504
-0.111996
-0.89353
0.93521
-0.152456
-0.881046
0.921505
-0.192108
-0.867265
0.906917
-0.231184
-0.854654
0.89373
-0.26975
-0.841625
0.880192
-0.307914
-0.829944
0.868107
-0.345896
-0.82032
0.858302
-0.383642
-0.811429
0.849175
-0.420807
-0.802337
0.839503
-0.458128
-0.794623
0.831944
-0.494581
-0.787729
0.824181
-0.53032
-0.780306
0.816046
-0.56617
-0.773667
0.809516
-0.600158
-0.767434
0.801422
-0.633342
-0.75936
0.792544
-0.664652
-0.752577
0.783888
-0.746218
0.774874
-0.693309
-0.00614797
-0.429808
-0.0352028
-0.819054
-0.0776116
-0.8663
-0.120826
-0.850316
-0.163507
-0.838365
-0.205379
-0.825392
-0.246288
-0.813745
-0.286679
-0.801235
-0.327177
-0.789446
-0.367774
-0.779723
-0.407845
-0.771358
-0.447744
-0.762438
-0.487517
-0.754851
-0.52749
-0.747755
-0.566706
-0.74109
-0.604973
-0.7354
-0.642731
-0.729677
-0.67914
-0.722951
-0.713607
-0.71811
-0.71456
-0.745265
-0.00767958
-0.422129
-0.0426475
-0.784086
-0.0868594
-0.822088
-0.131435
-0.80574
-0.175466
-0.794334
-0.21878
-0.782079
-0.261182
-0.771342
-0.302542
-0.759875
-0.343296
-0.748692
-0.383938
-0.739081
-0.424323
-0.730973
-0.463995
-0.722766
-0.503586
-0.715259
-0.542533
-0.708809
-0.582023
-0.7016
-0.62106
-0.696363
-0.658155
-0.692581
-0.694675
-0.686431
-0.732338
-0.680448
-0.67592
-0.770978
-0.00562524
-0.416503
-0.0441953
-0.745516
-0.0899658
-0.776318
-0.136189
-0.759517
-0.182677
-0.747846
-0.228789
-0.735966
-0.273847
-0.726285
-0.317744
-0.715979
-0.361109
-0.705326
-0.404318
-0.695872
-0.447195
-0.688096
-0.489466
-0.680496
-0.531493
-0.673232
-0.573126
-0.667176
-0.614233
-0.660492
-0.657444
-0.653153
-0.700591
-0.649435
-0.741156
-0.645865
-0.780052
-0.641552
-0.637269
-0.818702
-0.00230395
-0.414199
-0.0437173
-0.704103
-0.0933339
-0.726701
-0.142236
-0.710615
-0.190162
-0.69992
-0.237814
-0.688314
-0.284993
-0.679106
-0.330852
-0.67012
-0.375308
-0.66087
-0.419221
-0.651958
-0.463008
-0.644309
-0.506178
-0.637326
-0.548947
-0.630463
-0.590951
-0.625173
-0.630855
-0.620588
-0.670039
-0.613968
-0.711793
-0.607681
-0.754206
-0.603452
-0.795661
-0.600098
-0.596158
-0.836771
0.000337575
-0.414537
-0.0431668
-0.660598
-0.0958535
-0.674014
-0.147211
-0.659258
-0.197701
-0.64943
-0.246917
-0.639098
-0.295567
-0.630455
-0.343336
-0.622351
-0.390271
-0.613936
-0.436085
-0.606144
-0.48138
-0.599015
-0.525881
-0.592825
-0.570741
-0.585603
-0.61684
-0.579073
-0.662572
-0.574857
-0.705442
-0.571098
-0.746806
-0.566317
-0.789195
-0.561063
-0.831689
-0.557603
-0.554453
-0.873395
0.00107796
-0.415615
-0.0465907
-0.612929
-0.101433
-0.619172
-0.153625
-0.607066
-0.205159
-0.597896
-0.255413
-0.588844
-0.304893
-0.580975
-0.353477
-0.573767
-0.401038
-0.566375
-0.447871
-0.559311
-0.494579
-0.552307
-0.539696
-0.547708
-0.582195
-0.543104
-0.62448
-0.536789
-0.668397
-0.530941
-0.713211
-0.526284
-0.756638
-0.52289
-0.79932
-0.518381
-0.842528
-0.514395
-0.511232
-0.885749
-0.00559988
-0.410015
-0.0569143
-0.561615
-0.11365
-0.562436
-0.167511
-0.553205
-0.220035
-0.545371
-0.2715
-0.53738
-0.321984
-0.53049
-0.371496
-0.524255
-0.420441
-0.517429
-0.467749
-0.512003
-0.515469
-0.504587
-0.56472
-0.498456
-0.613052
-0.494773
-0.658509
-0.491331
-0.702155
-0.487295
-0.745738
-0.482701
-0.789368
-0.47926
-0.831949
-0.4758
-0.874127
-0.472217
-0.469109
-0.916249
-0.0141896
-0.395825
-0.0653144
-0.51049
-0.119479
-0.508272
-0.172733
-0.49995
-0.225319
-0.492786
-0.276329
-0.486369
-0.326954
-0.479865
-0.376555
-0.474655
-0.425944
-0.46804
-0.473871
-0.464075
-0.519248
-0.459211
-0.564734
-0.45297
-0.611693
-0.447814
-0.659398
-0.443625
-0.706004
-0.440689
-0.751643
-0.437061
-0.796891
-0.434012
-0.841675
-0.431017
-0.885793
-0.428099
-0.425173
-0.929729
-0.0258008
-0.370025
-0.0801461
-0.456145
-0.136664
-0.451755
-0.190958
-0.445657
-0.245307
-0.438437
-0.298935
-0.432741
-0.350787
-0.428014
-0.401529
-0.423913
-0.452177
-0.417391
-0.503528
-0.412724
-0.553611
-0.409128
-0.601569
-0.405012
-0.648252
-0.40113
-0.694749
-0.397128
-0.741262
-0.394176
-0.786965
-0.391358
-0.83215
-0.388827
-0.876731
-0.386436
-0.920705
-0.384125
-0.381599
-0.964279
-0.0324536
-0.337571
-0.0839058
-0.404693
-0.137273
-0.398387
-0.19098
-0.39195
-0.243369
-0.386049
-0.296966
-0.379144
-0.35019
-0.374789
-0.400475
-0.373628
-0.448829
-0.369037
-0.496701
-0.364853
-0.545189
-0.36064
-0.593737
-0.356464
-0.642105
-0.352762
-0.689956
-0.349277
-0.738047
-0.346086
-0.785937
-0.343468
-0.833661
-0.341103
-0.881072
-0.339025
-0.927875
-0.337323
-0.335194
-0.974279
-0.0431487
-0.294422
-0.10124
-0.346602
-0.158082
-0.341545
-0.21222
-0.337812
-0.265145
-0.333124
-0.317151
-0.327138
-0.372508
-0.319432
-0.428025
-0.318111
-0.481691
-0.315371
-0.533247
-0.313297
-0.582368
-0.311518
-0.630174
-0.308659
-0.677047
-0.30589
-0.723102
-0.303222
-0.768552
-0.300635
-0.813989
-0.298031
-0.859058
-0.296034
-0.904466
-0.293618
-0.949623
-0.292166
-0.290238
-0.994579
-0.0458124
-0.24861
-0.101991
-0.290423
-0.157096
-0.28644
-0.210392
-0.284515
-0.262577
-0.280939
-0.31091
-0.278804
-0.359469
-0.270873
-0.410832
-0.266748
-0.463292
-0.262911
-0.517549
-0.259041
-0.571301
-0.257766
-0.624227
-0.255733
-0.676126
-0.253991
-0.727023
-0.252324
-0.776558
-0.251101
-0.825234
-0.249355
-0.872934
-0.248334
-0.919885
-0.246667
-0.966563
-0.245488
-0.244055
-1.01275
-0.0511519
-0.197458
-0.112856
-0.22872
-0.173115
-0.226181
-0.234378
-0.223251
-0.294331
-0.220987
-0.350617
-0.222518
-0.401923
-0.219567
-0.452308
-0.216363
-0.500852
-0.214367
-0.549462
-0.210431
-0.598694
-0.208534
-0.647854
-0.206573
-0.696936
-0.204909
-0.746171
-0.203089
-0.795047
-0.202224
-0.843618
-0.200784
-0.891815
-0.200137
-0.939389
-0.199093
-0.986565
-0.198312
-0.197332
-1.03329
-0.0467599
-0.150698
-0.102984
-0.172495
-0.155372
-0.173794
-0.207204
-0.17142
-0.264624
-0.163567
-0.323829
-0.163313
-0.380978
-0.162418
-0.436375
-0.160966
-0.49062
-0.160122
-0.542846
-0.158204
-0.594578
-0.156802
-0.645423
-0.155728
-0.695688
-0.154645
-0.745528
-0.153248
-0.795238
-0.152515
-0.844465
-0.151557
-0.893445
-0.151157
-0.941959
-0.150579
-0.989886
-0.150385
-0.149746
-1.03747
-0.0494664
-0.101232
-0.111671
-0.110291
-0.173592
-0.111872
-0.229987
-0.115025
-0.283719
-0.109835
-0.33998
-0.107052
-0.395493
-0.106905
-0.45131
-0.105149
-0.50575
-0.105682
-0.559789
-0.104165
-0.612606
-0.103985
-0.664773
-0.103561
-0.71579
-0.103627
-0.765853
-0.103186
-0.815299
-0.103068
-0.864105
-0.102751
-0.91252
-0.102743
-0.960349
-0.10275
-1.00784
-0.102891
-0.103226
-1.05436
-0.0512604
-0.0499713
-0.103278
-0.0582731
-0.167922
-0.0472285
-0.232463
-0.0504836
-0.288633
-0.0536647
-0.344182
-0.0515036
-0.398933
-0.0521539
-0.453339
-0.0507425
-0.507151
-0.0518709
-0.560339
-0.0509763
-0.613348
-0.0509766
-0.665544
-0.0513647
-0.717267
-0.0519041
-0.767983
-0.0524705
-0.818252
-0.0527989
-0.867701
-0.0533016
-0.916979
-0.0534647
-0.965552
-0.0541765
-1.01401
-0.0544368
-0.0553183
-1.06191
-0.0507571
0.000785849
-0.112644
0.00361405
-0.170416
0.0105434
-0.231396
0.0104966
-0.291451
0.00638996
-0.347923
0.00496783
-0.403886
0.0038093
-0.458256
0.00362772
-0.513501
0.0033744
-0.566365
0.00188748
-0.619347
0.0020055
-0.671645
0.000933732
-0.724021
0.000471687
-0.775429
-0.00106263
-0.826671
-0.00155677
-0.876841
-0.00313176
-0.926819
-0.003487
-0.975847
-0.00514788
-1.02461
-0.00567433
-0.00737617
-1.07255
-0.057268
0.0580538
-0.125593
0.0719386
-0.180866
0.0658171
-0.235929
0.0655597
-0.292948
0.0634089
-0.348845
0.0608645
-0.405012
0.0599761
-0.460178
0.0587943
-0.515082
0.0582785
-0.569176
0.0559812
-0.62222
0.0550495
-0.674898
0.0536113
-0.726807
0.0523816
-0.778589
0.0507191
-0.829298
0.0491517
-0.879716
0.0472869
-0.929162
0.0459583
-0.978427
0.0441173
-1.02699
0.0428859
0.0411536
-1.07552
-0.0547833
0.112837
-0.10927
0.126426
-0.167192
0.123739
-0.225242
0.12361
-0.283524
0.121691
-0.34294
0.12028
-0.402372
0.119408
-0.460307
0.116729
-0.516858
0.114829
-0.572497
0.111621
-0.626897
0.10945
-0.679987
0.106701
-0.731837
0.104232
-0.782848
0.10173
-0.833155
0.0994589
-0.883264
0.0973954
-0.932706
0.0954005
-0.981914
0.0933254
-1.0305
0.0914722
-1.07862
0.0892736
0.00108468
0.00217937
-0.00326405
0.0562596
-0.10577
0.0505947
0.205949
-0.367905
0.218215
0.403008
-0.763983
0.566924
0.530154
-1.02242
0.895279
0.590568
-1.13343
1.07302
0.614961
-1.16559
1.1412
0.625003
-1.17071
1.16067
0.629796
-1.16852
1.16373
0.632296
-1.1634
1.1609
0.634815
-1.15909
1.15657
0.636683
-1.15458
1.15271
0.638062
-1.15069
1.14931
0.64041
-1.14734
1.14499
0.642717
-1.14526
1.14295
0.643609
-1.14114
1.14025
0.643407
-1.13849
1.13869
0.643901
-1.13624
1.13575
0.644443
-1.13623
1.13568
-1.13131
0.642782
1.13297
0.0206581
-0.0184788
0.0919533
-0.177065
0.268096
-0.544048
0.418787
-0.914674
0.499923
-1.10356
0.530792
-1.1643
0.541692
-1.17649
0.546293
-1.17531
0.548224
-1.17045
0.549666
-1.16484
0.550753
-1.16018
0.551715
-1.15554
0.55295
-1.15193
0.553478
-1.14786
0.552819
-1.1446
0.552318
-1.14064
0.552798
-1.13897
0.553119
-1.13656
0.551944
-1.13505
-1.12679
0.547425
0.0363644
-0.0548432
0.124522
-0.265222
0.286697
-0.706223
0.394616
-1.02259
0.441373
-1.15032
0.457791
-1.18072
0.464171
-1.18287
0.467052
-1.17819
0.467772
-1.17117
0.46882
-1.16589
0.46946
-1.16082
0.469677
-1.15576
0.468893
-1.15114
0.46791
-1.14688
0.467033
-1.14372
0.465848
-1.13945
0.463395
-1.13651
0.460119
-1.13328
0.45563
-1.13056
-1.1205
0.449339
0.031735
-0.0865782
0.147601
-0.381088
0.280932
-0.839555
0.355103
-1.09676
0.382316
-1.17753
0.390621
-1.18902
0.393944
-1.1862
0.393544
-1.17779
0.393775
-1.1714
0.393651
-1.16576
0.3925
-1.15967
0.390777
-1.15403
0.389187
-1.14955
0.387278
-1.14497
0.384225
-1.14067
0.380523
-1.13575
0.377076
-1.13307
0.373689
-1.1299
0.368525
-1.1254
-1.11352
0.361546
0.030395
-0.116973
0.148448
-0.499142
0.248953
-0.940059
0.299134
-1.14694
0.314482
-1.19288
0.31995
-1.19449
0.321208
-1.18746
0.321372
-1.17795
0.321029
-1.17106
0.319549
-1.16428
0.317417
-1.15754
0.315035
-1.15165
0.311743
-1.14626
0.307612
-1.14084
0.303231
-1.13629
0.298867
-1.13139
0.293836
-1.12804
0.2877
-1.12376
0.279745
-1.11744
-1.10608
0.272311
0.0385981
-0.155571
0.14179
-0.602334
0.220959
-1.01923
0.252403
-1.17839
0.260494
-1.20097
0.262994
-1.19699
0.261177
-1.18564
0.259306
-1.17608
0.256658
-1.16841
0.25351
-1.16114
0.249539
-1.15356
0.244864
-1.14698
0.239898
-1.1413
0.234596
-1.13554
0.228565
-1.13026
0.221964
-1.12479
0.21512
-1.12119
0.208134
-1.11678
0.200149
-1.10946
-1.09852
0.192588
0.0450134
-0.200585
0.130454
-0.687774
0.188173
-1.07695
0.205073
-1.19529
0.20738
-1.20328
0.204931
-1.19454
0.201658
-1.18236
0.198026
-1.17245
0.193771
-1.16416
0.188528
-1.15589
0.18271
-1.14775
0.176597
-1.14086
0.169834
-1.13453
0.162348
-1.12805
0.154574
-1.12248
0.146739
-1.11695
0.138561
-1.11301
0.129857
-1.10807
0.120613
-1.10021
-1.08971
0.111797
0.0449731
-0.245558
0.113333
-0.756134
0.154517
-1.11813
0.161544
-1.20231
0.160079
-1.20181
0.155217
-1.18968
0.150094
-1.17724
0.144137
-1.16649
0.137445
-1.15747
0.13028
-1.14873
0.122482
-1.13995
0.114122
-1.1325
0.105346
-1.12576
0.0961551
-1.11886
0.0865244
-1.11285
0.0765956
-1.10702
0.0664156
-1.10283
0.0561244
-1.09778
0.0457271
-1.08982
-1.0797
0.0357183
0.0367609
-0.282319
0.0917461
-0.811119
0.119109
-1.14549
0.1206
-1.2038
0.115564
-1.19678
0.108574
-1.18269
0.100988
-1.16965
0.09262
-1.15813
0.0837481
-1.14859
0.0741761
-1.13916
0.0641932
-1.12997
0.0537731
-1.12208
0.0428359
-1.11482
0.0313934
-1.10742
0.019727
-1.10118
0.00770771
-1.095
-0.00445032
-1.09068
-0.0165614
-1.08567
-0.0284212
-1.07796
-1.06758
-0.0405351
0.0361516
-0.31847
0.0796529
-0.85462
0.0936998
-1.15954
0.0886974
-1.1988
0.0791473
-1.18723
0.0689681
-1.17251
0.0581688
-1.15886
0.046957
-1.14692
0.035224
-1.13686
0.0231209
-1.12705
0.0106028
-1.11745
-0.00218493
-1.1093
-0.0152993
-1.10171
-0.0288584
-1.09386
-0.0427095
-1.08733
-0.0565505
-1.08116
-0.0708565
-1.07637
-0.0850973
-1.07143
-0.0990873
-1.06397
-1.05337
-0.113297
0.0298283
-0.348299
0.0644825
-0.889274
0.0692106
-1.16427
0.0588232
-1.18841
0.0457465
-1.17415
0.0324133
-1.15918
0.0186585
-1.1451
0.0043513
-1.13261
-0.0101596
-1.12235
-0.0249282
-1.11228
-0.03983
-1.10255
-0.0551112
-1.09401
-0.0706527
-1.08616
-0.0864143
-1.0781
-0.102243
-1.0715
-0.118554
-1.06485
-0.13491
-1.06001
-0.150725
-1.05561
-0.166082
-1.04861
-1.03756
-0.1819
0.0246748
-0.372973
0.0479823
-0.912582
0.0443123
-1.1606
0.0298447
-1.17395
0.0136941
-1.158
-0.00259765
-1.14288
-0.0192445
-1.12845
-0.0361231
-1.11573
-0.0532909
-1.10518
-0.0707812
-1.09479
-0.0885653
-1.08476
-0.106302
-1.07628
-0.124254
-1.06821
-0.142697
-1.05966
-0.161285
-1.05292
-0.179406
-1.04673
-0.198104
-1.04132
-0.216985
-1.03673
-0.234995
-1.0306
-1.0195
-0.253053
0.0205877
-0.393561
0.0369084
-0.928903
0.0270911
-1.15078
0.00887619
-1.15573
-0.010512
-1.13861
-0.0302169
-1.12318
-0.0501956
-1.10847
-0.0706542
-1.09527
-0.0911324
-1.0847
-0.111506
-1.07442
-0.131864
-1.0644
-0.152548
-1.05559
-0.173124
-1.04764
-0.193606
-1.03917
-0.214482
-1.03204
-0.235888
-1.02533
-0.256682
-1.02052
-0.276978
-1.01644
-0.296831
-1.01074
-0.999523
-0.316808
0.0157976
-0.409359
0.023712
-0.936817
0.00714281
-1.13421
-0.0154881
-1.1331
-0.0382164
-1.11588
-0.0610643
-1.10033
-0.0838307
-1.08571
-0.106711
-1.07239
-0.129766
-1.06165
-0.153025
-1.05116
-0.176518
-1.04091
-0.199723
-1.03239
-0.223212
-1.02415
-0.247144
-1.01524
-0.27084
-1.00834
-0.294477
-1.00169
-0.319272
-0.995727
-0.343963
-0.991746
-0.367538
-0.98717
-0.976991
-0.39007
0.01269
-0.422049
0.0146896
-0.938817
-0.00592133
-1.1136
-0.0310916
-1.10793
-0.0565898
-1.09039
-0.0822651
-1.07466
-0.108166
-1.05981
-0.134445
-1.04611
-0.160751
-1.03534
-0.18668
-1.02523
-0.212685
-1.01491
-0.239017
-1.00606
-0.264716
-0.998448
-0.290359
-0.989599
-0.316765
-0.981938
-0.343196
-0.975257
-0.368849
-0.970075
-0.394436
-0.966159
-0.419781
-0.961825
-0.953172
-0.4436
0.00867391
-0.430723
0.00489891
-0.935042
-0.0216703
-1.08703
-0.0510212
-1.07858
-0.0798755
-1.06153
-0.108768
-1.04576
-0.137324
-1.03125
-0.165922
-1.01751
-0.194732
-1.00653
-0.223551
-0.996414
-0.252396
-0.986063
-0.281231
-0.977221
-0.31033
-0.969349
-0.339301
-0.960628
-0.367839
-0.953399
-0.397064
-0.946032
-0.427693
-0.939445
-0.457256
-0.936597
-0.485301
-0.93378
-0.926454
-0.512019
0.00631011
-0.437033
-0.001978
-0.926754
-0.0314396
-1.05757
-0.0630816
-1.04694
-0.0941815
-1.03043
-0.125289
-1.01466
-0.156487
-1.00005
-0.187986
-0.986015
-0.219608
-0.97491
-0.250717
-0.965305
-0.281751
-0.955028
-0.31316
-0.945812
-0.344017
-0.938492
-0.375043
-0.929602
-0.406742
-0.921701
-0.437212
-0.915561
-0.468038
-0.90862
-0.500537
-0.904098
-0.531354
-0.902963
-0.897439
-0.560369
0.0028893
-0.439922
-0.0104115
-0.913453
-0.0436595
-1.02432
-0.0788914
-1.01171
-0.113158
-0.996165
-0.14712
-0.980695
-0.180551
-0.966623
-0.213919
-0.952647
-0.247767
-0.941062
-0.281678
-0.931394
-0.315168
-0.921539
-0.348762
-0.912218
-0.382573
-0.90468
-0.41552
-0.896655
-0.448773
-0.888448
-0.483417
-0.880917
-0.517121
-0.874917
-0.551549
-0.869669
-0.587644
-0.866868
-0.86335
-0.621733
0.000625861
-0.440548
-0.0180476
-0.894779
-0.0537082
-0.988663
-0.0904218
-0.974993
-0.126221
-0.960366
-0.161788
-0.945128
-0.197202
-0.931209
-0.232613
-0.917235
-0.268232
-0.905444
-0.303702
-0.895923
-0.339089
-0.886152
-0.374659
-0.876647
-0.410169
-0.86917
-0.44582
-0.861004
-0.480718
-0.85355
-0.515673
-0.845962
-0.55291
-0.837681
-0.590911
-0.831667
-0.631513
-0.826266
-0.822476
-0.672387
-0.00126612
-0.0227409
-0.0608997
-0.100682
-0.139543
-0.177753
-0.215233
-0.252276
-0.289612
-0.327233
-0.36421
-0.401355
-0.438581
-0.475404
-0.512908
-0.549353
-0.585611
-0.624735
-0.667113
-0.714715
0.533311
-9.85844
9.96791
0.462016
-9.50517
9.57646
0.404896
-9.55934
9.61646
0.347649
-9.32912
9.38637
0.299452
-9.33404
9.38224
0.257294
-9.21792
9.26008
0.222299
-9.21473
9.24972
0.188035
-9.13699
9.17126
0.162035
-9.09242
9.11842
0.13923
-9.04368
9.06648
0.118691
-9.04402
9.06456
0.0994882
-8.99722
9.01642
0.0831423
-9.00393
9.02027
0.067607
-8.95432
8.96985
0.0548508
-8.96178
8.97453
0.0403312
-8.87068
8.88519
0.0341506
-8.65694
8.66312
0.0248576
-7.74653
7.75582
0.0157329
-5.45948
5.46861
-2.31067
2.3264
0.447016
-9.75803
0.379999
-9.43815
0.320122
-9.49947
0.265451
-9.27445
0.223882
-9.29248
0.186113
-9.18015
0.154533
-9.18315
0.124824
-9.10728
0.104261
-9.07185
0.0868507
-9.02627
0.0717204
-9.02889
0.0580414
-8.98354
0.0471088
-8.993
0.0370481
-8.94426
0.0295854
-8.95431
0.0204839
-8.86157
0.0203244
-8.65678
0.0166613
-7.74287
0.0127995
-5.45562
-2.29787
0.356642
-9.66533
0.291959
-9.37347
0.239502
-9.44701
0.190164
-9.22511
0.150569
-9.25288
0.116906
-9.14649
0.0905485
-9.15679
0.0665007
-9.08324
0.051248
-9.0566
0.0386614
-9.01368
0.0279355
-9.01817
0.0188925
-8.9745
0.0126627
-8.98677
0.00697177
-8.93857
0.00431875
-8.95166
0.000855397
-8.85811
0.0070799
-8.663
0.0103259
-7.74611
0.0114465
-5.45674
-2.28642
0.273676
-9.57746
0.212459
-9.31225
0.157908
-9.39246
0.109146
-9.17635
0.0738453
-9.21758
0.0453676
-9.11801
0.0234724
-9.1349
0.00445717
-9.06422
-0.00553246
-9.04661
-0.0128757
-9.00634
-0.0183735
-9.01267
-0.022093
-8.97078
-0.0231818
-8.98568
-0.0234181
-8.93833
-0.0210244
-8.95405
-0.0188058
-8.86033
-0.00658561
-8.67522
0.00250233
-7.7552
0.00885514
-5.46309
-2.27756
0.189224
-9.49437
0.128069
-9.2511
0.0770117
-9.3414
0.0332692
-9.13261
0.00154893
-9.18586
-0.0222431
-9.09422
-0.039473
-9.11767
-0.0531958
-9.0505
-0.0582411
-9.04157
-0.0608743
-9.0037
-0.0619307
-9.01161
-0.0610911
-8.97162
-0.0575864
-8.98918
-0.0532458
-8.94267
-0.0464455
-8.96085
-0.0385402
-8.86823
-0.0202555
-8.69351
-0.00453246
-7.77092
0.00702584
-5.47465
-2.27054
0.10924
-9.41102
0.0476699
-9.18953
-0.0036787
-9.29005
-0.0440093
-9.09228
-0.0723996
-9.15747
-0.0919936
-9.07463
-0.104786
-9.10487
-0.113581
-9.0417
-0.113722
-9.04143
-0.111394
-9.00603
-0.107371
-9.01564
-0.101367
-8.97762
-0.0928789
-8.99767
-0.0833555
-8.9522
-0.0716374
-8.97257
-0.0583187
-8.88155
-0.0340718
-8.71775
-0.0121508
-7.79284
0.00481275
-5.49161
-2.26573
0.0298262
-9.32905
-0.0311953
-9.1285
-0.0814548
-9.23979
-0.119913
-9.05382
-0.144108
-9.13327
-0.159362
-9.05937
-0.167178
-9.09706
-0.170514
-9.03837
-0.165737
-9.0462
-0.158769
-9.013
-0.150343
-9.02406
-0.139903
-8.98806
-0.127021
-9.01055
-0.112886
-8.96633
-0.0966457
-8.98881
-0.0780863
-8.90011
-0.047892
-8.74795
-0.0197215
-7.82101
0.00277326
-5.51411
-2.26295
-0.047352
-9.24598
-0.114
-9.06186
-0.162406
-9.19139
-0.194921
-9.02131
-0.214637
-9.11356
-0.22537
-9.04864
-0.229523
-9.0929
-0.228652
-9.03924
-0.219558
-9.0553
-0.207904
-9.02465
-0.194521
-9.03745
-0.179171
-9.00341
-0.161675
-9.02805
-0.142665
-8.98534
-0.121323
-9.01015
-0.0975073
-8.92393
-0.0615726
-8.78388
-0.0273742
-7.85521
0.00075617
-5.54224
-2.2622
-0.120921
-9.1656
-0.187528
-8.99525
-0.236195
-9.14272
-0.267372
-8.99013
-0.284891
-9.09604
-0.292072
-9.04146
-0.290977
-9.094
-0.284558
-9.04566
-0.270592
-9.06926
-0.254485
-9.04076
-0.236738
-9.05519
-0.216977
-9.02317
-0.195035
-9.04999
-0.171515
-9.00886
-0.145761
-9.03591
-0.116857
-8.95283
-0.0751524
-8.82559
-0.0346768
-7.89569
-0.00109799
-5.57582
-2.26329
-0.201863
-9.07703
-0.27169
-8.92542
-0.31676
-9.09765
-0.339713
-8.96718
-0.351191
-9.08456
-0.35436
-9.03829
-0.350039
-9.09832
-0.340052
-9.05564
-0.322184
-9.08713
-0.301679
-9.06127
-0.279289
-9.07758
-0.25497
-9.04749
-0.228691
-9.07627
-0.20042
-9.03713
-0.169617
-9.06671
-0.135711
-8.98674
-0.0884885
-8.87281
-0.0417404
-7.94244
-0.00289091
-5.61467
-2.26619
-0.272324
-8.98661
-0.342587
-8.85516
-0.387989
-9.05225
-0.409481
-8.94568
-0.41893
-9.07511
-0.418843
-9.03838
-0.409272
-9.10789
-0.394166
-9.07075
-0.371772
-9.10953
-0.347049
-9.08599
-0.320398
-9.10423
-0.291745
-9.07615
-0.261103
-9.10691
-0.228503
-9.06973
-0.193361
-9.10185
-0.154412
-9.02569
-0.101969
-8.92525
-0.0495067
-7.9949
-0.00497679
-5.6592
-2.27116
-0.352921
-8.88674
-0.420827
-8.78725
-0.460588
-9.01249
-0.476449
-8.92982
-0.480999
-9.07056
-0.477887
-9.04149
-0.465495
-9.12028
-0.447018
-9.08923
-0.42093
-9.13561
-0.392062
-9.11486
-0.361068
-9.13523
-0.328118
-9.1091
-0.293262
-9.14177
-0.255864
-9.10713
-0.216165
-9.14155
-0.172658
-9.0692
-0.114922
-8.98299
-0.0565552
-8.05327
-0.00677097
-5.70898
-2.27793
-0.421463
-8.78208
-0.491257
-8.71746
-0.529313
-8.97443
-0.543242
-8.91589
-0.545306
-9.0685
-0.538517
-9.04828
-0.521455
-9.13735
-0.498599
-9.11208
-0.468499
-9.16571
-0.435689
-9.14767
-0.400686
-9.17023
-0.363546
-9.14624
-0.324609
-9.18071
-0.283032
-9.14871
-0.238918
-9.18567
-0.190567
-9.11755
-0.127951
-9.0456
-0.0638694
-8.11735
-0.00861169
-5.76424
-2.28655
-0.498668
-8.67348
-0.56121
-8.65492
-0.593913
-8.94173
-0.605908
-8.9039
-0.60421
-9.0702
-0.594813
-9.05767
-0.575104
-9.15705
-0.548803
-9.13838
-0.515112
-9.1994
-0.478273
-9.18451
-0.43915
-9.20935
-0.397939
-9.18745
-0.354921
-9.22372
-0.308872
-9.19476
-0.260641
-9.2339
-0.208079
-9.17011
-0.140646
-9.11304
-0.0709069
-8.18709
-0.0103191
-5.82483
-2.29686
-0.564691
-8.55239
-0.629946
-8.58966
-0.657497
-8.91418
-0.667842
-8.89355
-0.664418
-9.07362
-0.651242
-9.07085
-0.627619
-9.18068
-0.59765
-9.16835
-0.560449
-9.23661
-0.519926
-9.22503
-0.476979
-9.2523
-0.431713
-9.23271
-0.384693
-9.27074
-0.334571
-9.24488
-0.282192
-9.28627
-0.225236
-9.22706
-0.153061
-9.18521
-0.0776901
-8.26246
-0.0118274
-5.89069
-2.30869
-0.631919
-8.43249
-0.694355
-8.52723
-0.720106
-8.88842
-0.728498
-8.88516
-0.721274
-9.08085
-0.705117
-9.08701
-0.678624
-9.20717
-0.645033
-9.20194
-0.60431
-9.27733
-0.55986
-9.26948
-0.512965
-9.2992
-0.463833
-9.28184
-0.413041
-9.32154
-0.35901
-9.29891
-0.302762
-9.34252
-0.241974
-9.28785
-0.165434
-9.26175
-0.0845663
-8.34332
-0.0132522
-5.962
-2.32194
-0.693753
-8.29911
-0.758653
-8.46233
-0.779114
-8.86796
-0.786104
-8.87817
-0.777338
-9.08961
-0.757183
-9.10716
-0.727648
-9.23671
-0.690932
-9.23866
-0.647186
-9.32108
-0.59924
-9.31742
-0.548605
-9.34983
-0.49555
-9.3349
-0.440911
-9.37617
-0.383046
-9.35677
-0.322943
-9.40263
-0.258242
-9.35255
-0.177439
-9.34255
-0.0909247
-8.42984
-0.0142029
-6.03873
-2.33615
-0.757084
-8.16376
-0.823275
-8.39614
-0.841744
-8.84949
-0.845171
-8.87474
-0.833036
-9.10175
-0.809352
-9.13084
-0.77611
-9.26995
-0.735615
-9.27915
-0.688414
-9.36828
-0.636777
-9.36906
-0.582398
-9.40421
-0.525491
-9.39181
-0.467117
-9.43455
-0.405702
-9.41819
-0.342296
-9.46603
-0.274178
-9.42067
-0.189441
-9.42729
-0.097593
-8.52169
-0.0153901
-6.12093
-2.35154
-0.810267
-8.02588
-0.88171
-8.32469
-0.897035
-8.83417
-0.902359
-8.86942
-0.887548
-9.11656
-0.860005
-9.15839
-0.823604
-9.30635
-0.77995
-9.32281
-0.729668
-9.41856
-0.674572
-9.42416
-0.616499
-9.46228
-0.555869
-9.45244
-0.493584
-9.49683
-0.428477
-9.4833
-0.360718
-9.53379
-0.289146
-9.49224
-0.200957
-9.51548
-0.105516
-8.61713
-0.0179782
-6.20847
-2.36952
-0.855054
-7.88554
-0.933815
-8.24593
-0.951261
-8.81672
-0.951896
-8.86879
-0.935682
-9.13277
-0.904868
-9.1892
-0.865813
-9.3454
-0.819019
-9.3696
-0.7666
-9.47098
-0.708129
-9.48263
-0.646661
-9.52375
-0.582183
-9.51692
-0.516659
-9.56236
-0.448504
-9.55145
-0.380017
-9.60228
-0.305396
-9.56686
-0.211988
-9.60889
-0.111645
-8.71747
-0.0185215
-6.30159
-2.38804
6.43682
-7.45721
-6.86515
5.89129
-7.7004
5.22739
-8.15283
4.6716
-8.313
4.13045
-8.59162
3.65265
-8.71141
3.1932
-8.88595
2.79257
-8.96896
2.40454
-9.08295
2.0543
-9.13239
1.73657
-9.20602
1.46549
-9.24584
1.20611
-9.30298
0.990184
-9.33553
0.767809
-9.3799
0.58533
-9.38438
0.390415
-9.41397
0.243669
-8.57072
0.144376
-6.2023
-2.24366
3.55294
-7.37774
-3.63241
3.47072
-7.61818
3.24494
-7.92705
3.03523
-8.10329
2.76492
-8.32131
2.51951
-8.466
2.25133
-8.61777
2.01049
-8.72812
1.77098
-8.84344
1.56089
-8.9223
1.35836
-9.00348
1.17323
-9.06071
0.991894
-9.12164
0.826157
-9.16979
0.661292
-9.21504
0.517515
-9.24061
0.305847
-9.20231
0.166308
-8.43119
-0.0387821
-5.99721
-2.28244
2.36443
-7.48095
-2.26122
2.43615
-7.6899
2.42512
-7.91601
2.3792
-8.05737
2.26138
-8.20349
2.12578
-8.33039
1.96499
-8.45699
1.79621
-8.55934
1.61326
-8.66049
1.4337
-8.74275
1.24675
-8.81653
1.06851
-8.88246
0.894174
-8.94731
0.724008
-8.99962
0.561723
-9.05275
0.41169
-9.09057
0.273685
-9.0643
0.164727
-8.32223
0.0427895
-5.87527
-2.23965
1.39817
-7.66362
-1.2155
1.49557
-7.7873
1.5313
-7.95175
1.52983
-8.0559
1.48153
-8.15519
1.41237
-8.26124
1.32151
-8.36612
1.22353
-8.46136
1.11167
-8.54863
0.995348
-8.62642
0.879053
-8.70023
0.766906
-8.77031
0.650894
-8.8313
0.536713
-8.88544
0.423785
-8.93982
0.321282
-8.98807
0.207186
-8.9502
0.127023
-8.24207
0.0846193
-5.83287
-2.15503
0.922435
-7.79024
-0.795809
1.01565
-7.88052
1.06096
-7.99705
1.09231
-8.08725
1.09647
-8.15935
1.08003
-8.24479
1.03325
-8.31934
0.968298
-8.39641
0.888319
-8.46865
0.799328
-8.53743
0.703921
-8.60483
0.598785
-8.66518
0.489938
-8.72245
0.38472
-8.78022
0.283495
-8.8386
0.184548
-8.88912
0.0914132
-8.85707
0.0537219
-8.20437
0.0585399
-5.83768
-2.09649
0.555024
-7.90857
-0.436698
0.648771
-7.97426
0.684797
-8.03308
0.698282
-8.10074
0.696812
-8.15788
0.676623
-8.2246
0.647436
-8.29016
0.601602
-8.35058
0.545862
-8.41291
0.480427
-8.472
0.409585
-8.53399
0.334648
-8.59024
0.261085
-8.64889
0.179941
-8.69908
0.100504
-8.75916
0.0194604
-8.80808
-0.0591578
-8.77845
-0.055171
-8.20836
0.0348267
-5.92768
-2.06167
0.357391
-7.98322
-0.282743
0.409405
-8.02628
0.439013
-8.06269
0.45524
-8.11696
0.463877
-8.16652
0.453289
-8.21402
0.426057
-8.26292
0.38811
-8.31263
0.342533
-8.36733
0.286149
-8.41561
0.222597
-8.47043
0.151962
-8.51961
0.0759543
-8.57288
-0.00712
-8.61601
-0.0935808
-8.6727
-0.179098
-8.72256
-0.238135
-8.71941
-0.197906
-8.24859
-0.0197969
-6.10579
-2.08146
0.186779
-8.03463
-0.135366
0.22602
-8.06552
0.25468
-8.09135
0.263289
-8.12557
0.258861
-8.16209
0.242439
-8.19759
0.214874
-8.23536
0.175616
-8.27338
0.125333
-8.31705
0.0677408
-8.35802
0.00144456
-8.40414
-0.0716295
-8.44653
-0.148373
-8.49614
-0.227044
-8.53733
-0.309918
-8.58983
-0.395568
-8.63691
-0.460038
-8.65494
-0.413192
-8.29544
-0.145254
-6.37373
-2.22672
0.0682022
-8.06474
-0.0380989
0.0844131
-8.08173
0.0930156
-8.09995
0.0892513
-8.12181
0.0696208
-8.14246
0.046993
-8.17497
0.0210427
-8.20941
-0.0130187
-8.23931
-0.0567975
-8.27327
-0.108755
-8.30606
-0.169904
-8.34299
-0.242669
-8.37377
-0.325243
-8.41356
-0.419811
-8.44277
-0.515652
-8.49399
-0.618439
-8.53412
-0.705477
-8.56791
-0.678208
-8.3227
-0.312517
-6.73942
-2.53924
-0.0306638
-8.07535
0.0412739
-0.0251847
-8.08721
-0.0256538
-8.09948
-0.0319448
-8.11552
-0.0462789
-8.12813
-0.0714943
-8.14975
-0.103265
-8.17764
-0.146085
-8.19649
-0.193435
-8.22592
-0.251798
-8.2477
-0.317412
-8.27737
-0.392935
-8.29824
-0.477138
-8.32936
-0.565696
-8.35421
-0.664546
-8.39514
-0.773757
-8.42491
-0.887363
-8.4543
-0.897926
-8.31214
-0.525566
-7.11178
-3.0648
-0.136327
-8.074
0.134985
-0.141595
-8.08194
-0.150691
-8.09039
-0.167721
-8.09849
-0.18913
-8.10672
-0.216891
-8.12199
-0.249486
-8.14504
-0.286988
-8.15899
-0.333626
-8.17928
-0.388079
-8.19325
-0.453615
-8.21184
-0.524216
-8.22764
-0.605697
-8.24788
-0.695698
-8.26421
-0.809352
-8.28148
-0.937663
-8.2966
-1.07623
-8.31573
-1.11651
-8.27186
-0.81825
-7.41004
-3.88305
-0.219194
-8.07132
0.216506
-0.224316
-8.07682
-0.231893
-8.08281
-0.241411
-8.08897
-0.251383
-8.09675
-0.273433
-8.09994
-0.304766
-8.11371
-0.339519
-8.12424
-0.385587
-8.13322
-0.436638
-8.1422
-0.497127
-8.15135
-0.565414
-8.15936
-0.646634
-8.16666
-0.738655
-8.17219
-0.850101
-8.17004
-0.973009
-8.17369
-1.12299
-8.16575
-1.23478
-8.16007
-1.01715
-7.62767
-4.9002
-0.255625
-8.0646
0.248908
-0.266957
-8.06549
-0.282272
-8.06749
-0.300539
-8.0707
-0.319325
-8.07796
-0.343745
-8.07552
-0.375308
-8.08215
-0.411192
-8.08835
-0.449779
-8.09463
-0.493532
-8.09844
-0.541454
-8.10343
-0.597162
-8.10365
-0.660182
-8.10364
-0.733529
-8.09884
-0.814699
-8.08887
-0.908197
-8.0802
-1.01385
-8.0601
-1.12497
-8.04895
-0.964258
-7.78839
-5.86446
-0.279555
-8.05551
0.270468
-0.290085
-8.05496
-0.29994
-8.05764
-0.312329
-8.05831
-0.329846
-8.06044
-0.346059
-8.05931
-0.366071
-8.06214
-0.392674
-8.06175
-0.423079
-8.06422
-0.459181
-8.06234
-0.498729
-8.06388
-0.543751
-8.05863
-0.591709
-8.05568
-0.647353
-8.04319
-0.700291
-8.03593
-0.762579
-8.01791
-0.822625
-8.00005
-0.896404
-7.97517
-0.801076
-7.88371
-6.66554
-0.284741
-8.04518
0.274412
-0.296693
-8.043
-0.309381
-8.04495
-0.323004
-8.04469
-0.336861
-8.04659
-0.351157
-8.04501
-0.367376
-8.04592
-0.384805
-8.04432
-0.403861
-8.04517
-0.423724
-8.04248
-0.445868
-8.04174
-0.469034
-8.03546
-0.492946
-8.03177
-0.515763
-8.02038
-0.537561
-8.01413
-0.560236
-7.99523
-0.580443
-7.97985
-0.614597
-7.94101
-0.574831
-7.92348
-7.24037
-0.262479
-8.03731
0.254603
-0.269262
-8.03622
-0.277624
-8.03659
-0.287456
-8.03486
-0.298831
-8.03521
-0.309696
-8.03414
-0.321053
-8.03456
-0.332551
-8.03282
-0.344299
-8.03342
-0.356159
-8.03062
-0.367848
-8.03005
-0.37881
-8.0245
-0.386134
-8.02445
-0.390529
-8.01598
-0.390541
-8.01412
-0.389914
-7.99586
-0.375671
-7.99409
-0.358231
-7.95845
-0.333256
-7.94846
-7.57362
-0.224696
-8.02893
0.216316
-0.23223
-8.02869
-0.240212
-8.02861
-0.246897
-8.02817
-0.253595
-8.02851
-0.259715
-8.02802
-0.266083
-8.02819
-0.271549
-8.02736
-0.27759
-8.02738
-0.282626
-8.02558
-0.287384
-8.02529
-0.290139
-8.02174