/*--------------------------------*- C++ -*----------------------------------*\
  =========                 |
  \\      /  F ield         | OpenFOAM: The Open Source CFD Toolbox
   \\    /   O peration     | Website:  https://openfoam.org
    \\  /    A nd           | Version:  9
     \\/     M anipulation  |
\*---------------------------------------------------------------------------*/
FoamFile
{
    format      ascii;
    class       volScalarField;
    location    "14";
    object      nut;
}
// * * * * * * * * * * * * * * * * * * * * * * * * * * * * * * * * * * * * * //

dimensions      [0 2 -1 0 0 0 0];

internalField   nonuniform List<scalar> 
46400
(
0.0171877
0.00548382
0.00153067
0.0013693
0.00131744
0.00131368
0.00124739
0.00121456
0.00114465
0.00110463
0.00104997
0.00102996
0.00100371
0.000975271
0.000945311
0.000932745
0.000906408
0.000830793
0.00109566
0.00096155
0.0167828
0.00463201
0.00124586
0.00144644
0.00131762
0.00131026
0.00124895
0.00122405
0.00117545
0.00115555
0.00112216
0.00108645
0.00104757
0.00100115
0.000977152
0.000948443
0.000900397
0.000836041
0.00106216
0.000950355
0.0163541
0.00390109
0.00123671
0.0014149
0.00132115
0.00131448
0.00125869
0.00123511
0.00117364
0.00112498
0.00107792
0.00105572
0.00104151
0.0010074
0.000967756
0.000952429
0.000896109
0.000822447
0.00110357
0.00101948
0.0157753
0.00409869
0.00132808
0.00149482
0.0013604
0.00134129
0.00127409
0.00124606
0.00120427
0.00117672
0.00113294
0.0010896
0.00105381
0.00102157
0.000989457
0.000977313
0.00096212
0.000842701
0.00107877
0.00100933
0.0150846
0.00465548
0.00137969
0.00145728
0.00136734
0.00134304
0.00127791
0.00124825
0.00119692
0.00115243
0.00111035
0.00106779
0.00104707
0.00100954
0.000969424
0.000932033
0.000908636
0.000863328
0.00108348
0.00101895
0.0144171
0.0042997
0.00147058
0.00157881
0.00144142
0.00141065
0.00132711
0.00127027
0.00123017
0.00120166
0.00117717
0.00112638
0.00108529
0.00106147
0.00104093
0.000991022
0.000909063
0.000832808
0.00103828
0.000978192
0.0134228
0.00381797
0.00146734
0.00153132
0.00141903
0.00138947
0.00133588
0.0012717
0.00120835
0.00114809
0.0011282
0.00110663
0.00106706
0.0010201
0.00100886
0.00101032
0.000981226
0.000894753
0.00106171
0.00102242
0.0122901
0.0030529
0.0015173
0.00157877
0.00150399
0.00143566
0.00140167
0.00132918
0.00127387
0.00119627
0.00115327
0.00113505
0.00113393
0.0010755
0.00102901
0.000999468
0.000977967
0.000925667
0.00105961
0.00101361
0.00964442
0.00241129
0.00153219
0.00145512
0.00140931
0.00136027
0.0013369
0.00130634
0.00127434
0.00119319
0.00110979
0.00104562
0.0010384
0.00103239
0.00101315
0.000982299
0.000954541
0.000915589
0.00103957
0.00100611
0.00771516
0.00203585
0.00155895
0.00151788
0.00146329
0.00137756
0.00135831
0.00128934
0.00130505
0.0012796
0.00124417
0.00115493
0.00107232
0.00102006
0.00099722
0.000965266
0.00092261
0.000872844
0.000967185
0.000946793
0.00602216
0.00179876
0.00154629
0.00141663
0.00140992
0.00130816
0.00129467
0.00122972
0.00118341
0.00116828
0.00115406
0.00114938
0.00113718
0.00108884
0.00105834
0.00103627
0.00100503
0.00094842
0.00102915
0.00098781
0.00485106
0.00167258
0.00165507
0.0015471
0.00152262
0.00143003
0.00139286
0.00133556
0.00126024
0.00119944
0.00115363
0.00107736
0.00104947
0.0010087
0.000980579
0.00094853
0.00092942
0.000888802
0.000944339
0.000941981
0.00388628
0.00146122
0.00149078
0.00141902
0.00138837
0.00128697
0.00127298
0.00128301
0.00129347
0.0012482
0.00126203
0.00121539
0.00118531
0.00113153
0.00109833
0.00105156
0.00100881
0.000957958
0.0009951
0.000960939
0.00400087
0.00161494
0.00157617
0.00145815
0.00154046
0.00144578
0.0013196
0.00122922
0.00119843
0.00113814
0.00111537
0.00109881
0.00108701
0.00106597
0.00104064
0.00102442
0.000991734
0.000949188
0.000978387
0.000958259
0.00443199
0.00157674
0.00143296
0.00135811
0.00139483
0.00145595
0.0014238
0.00134201
0.00129525
0.00123033
0.00117206
0.00112271
0.0010854
0.00105861
0.00102882
0.00100826
0.000981303
0.000937758
0.00096447
0.000942242
0.00368558
0.00168353
0.00161567
0.00147401
0.0013169
0.0013155
0.00135469
0.00131047
0.0013059
0.00127004
0.0012383
0.00119541
0.0011545
0.00111526
0.00107474
0.00104428
0.00101011
0.000960879
0.00098156
0.000940962
0.002367
0.00159764
0.00164662
0.0017388
0.00158548
0.0014115
0.00135405
0.00128715
0.00125447
0.00122343
0.00119387
0.00115926
0.00113292
0.00109851
0.00107139
0.00103891
0.00100905
0.000958123
0.000970649
0.000944116
0.00190856
0.00173156
0.00154625
0.00147056
0.00153973
0.00141826
0.00138643
0.00132901
0.00125448
0.00122302
0.00117849
0.00114015
0.00110448
0.00107475
0.00104821
0.0010238
0.000996348
0.000948161
0.0009612
0.000930708
0.00158351
0.00180029
0.00148526
0.00137375
0.00142071
0.00145104
0.00140812
0.00135957
0.00132366
0.00125863
0.0012221
0.00117722
0.00114075
0.00111159
0.00107407
0.00105516
0.00101737
0.000980404
0.000985958
0.000958185
0.00277152
0.00153536
0.00164468
0.00159573
0.00154338
0.0014529
0.00141312
0.00138805
0.00135066
0.00129691
0.00125664
0.00122121
0.00117734
0.00113358
0.00108996
0.00105588
0.0010166
0.000966668
0.000979023
0.000941829
2.78945e-23
0.00186422
0.00679756
0.0111279
0.010361
0.00597081
0.00234294
0.000730762
0.000135165
0.000299141
0.000352341
0.000308152
0.000346674
0.000323631
0.000274902
0.0003078
0.000325562
0.000277241
0.000253538
0.000355267
0.000409529
0.00395487
0.00920862
0.0116514
0.00784296
0.00340608
0.00100313
9.4995e-05
0.000264287
0.000328017
0.00030641
0.000342379
0.000288287
0.000286192
0.000312833
0.000362775
0.000284511
0.000248266
0.000264721
0.000388617
0.00121588
0.00672962
0.0112441
0.0102082
0.00532844
0.0016176
7.68132e-05
0.000178191
0.000287404
0.000330848
0.000322011
0.000303045
0.00031974
0.000334018
0.000315588
0.000310116
0.000263067
0.000272878
0.000302305
0.000433847
0.00191552
0.00890425
0.0118744
0.00830495
0.00312694
0.000510801
8.91952e-05
0.000263761
0.000353272
0.000334514
0.000322018
0.000358144
0.000309133
0.000293921
0.000304552
0.000336662
0.000266165
0.000289866
0.00036041
0.000472625
0.00328916
0.0102364
0.0115155
0.00618574
0.00145831
6.34201e-05
0.000215147
0.000332022
0.00034975
0.000332273
0.000347018
0.00031347
0.000306199
0.000346317
0.000353236
0.00033941
0.000302178
0.000354632
0.000457997
0.000531757
0.0032993
0.0113974
0.0101904
0.0039361
0.000389989
5.71653e-05
0.000336035
0.00037107
0.000363641
0.000373554
0.000359411
0.000385294
0.000365051
0.000356504
0.000361066
0.000378896
0.000309003
0.00038006
0.000507909
0.000575226
0.00609035
0.0119731
0.00903548
0.00186062
0.000179483
0.000313331
0.000436349
0.000459557
0.000436275
0.00043762
0.000436026
0.000393875
0.0003655
0.00039491
0.000399702
0.000399139
0.000362156
0.000489145
0.000576756
0.000580096
0.00860057
0.012154
0.00767828
0.000768608
0.00011598
0.000506252
0.000578897
0.000496353
0.000498512
0.000481163
0.000447532
0.000449619
0.000435984
0.000439161
0.000461848
0.000464549
0.00038136
0.000503031
0.000569606
0.000586764
0.0109094
0.0121322
0.00561022
0.000343753
0.000416163
0.000611522
0.000620289
0.000581503
0.00057316
0.000566931
0.000548739
0.000510905
0.000477488
0.000486292
0.000479091
0.000480116
0.000445115
0.000585576
0.000606681
0.000592974
0.0137182
0.0117672
0.00377664
0.000187953
0.000615621
0.000745968
0.000723811
0.000655842
0.000643075
0.000606707
0.000563718
0.000540496
0.000513231
0.000524138
0.00056419
0.000548029
0.000469453
0.000583097
0.000590326
0.000598374
0.0149016
0.0116107
0.00230373
0.000283758
0.000780031
0.000798787
0.000757486
0.000714567
0.000701794
0.000687825
0.000656858
0.000629361
0.00060139
0.000589518
0.000580641
0.000573837
0.000534026
0.000650252
0.000616095
0.000627163
0.0161278
0.0109235
0.00154178
0.000409045
0.00086317
0.000876847
0.000858867
0.000787334
0.000770611
0.000731874
0.000689051
0.00064818
0.000602893
0.000615484
0.000653935
0.000625974
0.000564257
0.000662999
0.000597437
0.000625811
0.0166218
0.0106056
0.000943334
0.000668819
0.000982421
0.000910335
0.000903358
0.000835651
0.000817175
0.000796219
0.00075725
0.000741017
0.000707216
0.00067909
0.000678193
0.000658801
0.000611743
0.000685846
0.000581017
0.000635402
0.0171986
0.0100839
0.00126547
0.000758557
0.00107488
0.000976933
0.000981957
0.000914408
0.000884314
0.000855287
0.000814084
0.000767136
0.000715264
0.000712274
0.000733835
0.000708807
0.000675187
0.00072992
0.000587266
0.000658647
0.0176277
0.00969467
0.00154215
0.00098262
0.00114491
0.0010435
0.00102223
0.000956081
0.00092232
0.000892641
0.000850694
0.000840549
0.000799898
0.000769192
0.000767346
0.000737969
0.0007133
0.000734894
0.00054578
0.000659798
0.0177903
0.00934324
0.0023825
0.00102939
0.00119168
0.00108782
0.00108724
0.00102596
0.000986349
0.000966954
0.000922477
0.000882361
0.000825946
0.000801722
0.000803319
0.00077013
0.000775122
0.000776126
0.00054523
0.000686041
0.017988
0.00913007
0.00219945
0.00113835
0.00126545
0.001154
0.00112137
0.00106615
0.00101198
0.000981306
0.000940193
0.000931374
0.000902842
0.000873232
0.000859089
0.000828185
0.000826631
0.0008118
0.000551983
0.000691808
0.0178832
0.00848065
0.00188666
0.00115148
0.00126984
0.0011893
0.00116012
0.00111846
0.0010703
0.0010533
0.00101084
0.000979922
0.000927035
0.000903628
0.000882354
0.000851982
0.000878192
0.000860834
0.000574179
0.000724617
0.0177947
0.00750658
0.00207951
0.00125278
0.00131299
0.00125901
0.0012048
0.00116575
0.00109838
0.00106749
0.00102252
0.00101561
0.00100168
0.000977527
0.000968659
0.000941238
0.000962659
0.000962383
0.000665517
0.000716237
0.0175166
0.0064828
0.00183963
0.00130636
0.00129634
0.00126611
0.00121256
0.00118818
0.00114178
0.00112569
0.00109386
0.00106751
0.00103825
0.00102107
0.00101121
0.0010416
0.00106555
0.00103532
0.000956654
0.000979945
0.00408109
0.00291017
0.00223662
0.00213759
0.00195459
0.00168074
0.00143926
0.00129133
0.00116392
0.00103516
0.000885905
0.000807639
0.000671003
0.000615285
0.000485685
0.000803578
0.00179022
0.00611546
0.0105596
0.0149119
0.00425119
0.00279511
0.0023375
0.0020914
0.00183796
0.00166556
0.00145699
0.00131098
0.00116891
0.00103247
0.00087536
0.000803646
0.000669713
0.000626701
0.000440552
0.000761501
0.001705
0.0061403
0.0104833
0.0148552
0.00429204
0.00278311
0.00233329
0.00209105
0.00189602
0.00166464
0.00141082
0.0012907
0.00115565
0.00103666
0.000882066
0.000812585
0.000677355
0.000645144
0.000426966
0.000725494
0.00166159
0.00613749
0.010544
0.0148104
0.00434725
0.00261045
0.00239405
0.00210939
0.00185625
0.00167114
0.00141709
0.0013067
0.00115998
0.00104079
0.000878027
0.000814453
0.000678163
0.000639787
0.000477456
0.000742746
0.00158546
0.00614588
0.0104798
0.0147663
0.00416322
0.00270956
0.00249904
0.00207278
0.00184368
0.00164351
0.00137581
0.00129351
0.00114894
0.00104471
0.000884425
0.000821138
0.000686185
0.000636979
0.00049832
0.000752283
0.00152311
0.0061283
0.0105269
0.0147151
0.00422246
0.00259673
0.00247762
0.00206034
0.00183306
0.00166079
0.00138571
0.00130813
0.00115217
0.0010553
0.000888081
0.000827532
0.000693528
0.000642636
0.000481757
0.000724716
0.00144503
0.00611444
0.0104902
0.0146837
0.00424858
0.00259422
0.00254617
0.00211137
0.00186423
0.00162995
0.00135236
0.00129476
0.00113914
0.00105836
0.000894916
0.000830751
0.000697152
0.000647051
0.000473389
0.000694225
0.00137274
0.00610276
0.0105155
0.014651
0.00436914
0.00265596
0.00252317
0.00203925
0.00180042
0.001626
0.00136325
0.00131177
0.00114283
0.00107409
0.000905928
0.000837777
0.000702459
0.000646263
0.000505085
0.000700812
0.00129368
0.00606941
0.0105275
0.0146242
0.00450463
0.00254926
0.0025393
0.00218107
0.00186238
0.00161396
0.00134555
0.00129575
0.00112576
0.0010749
0.000912927
0.00083654
0.00070133
0.000639368
0.000503511
0.000699816
0.00121065
0.00604814
0.0105374
0.0146158
0.00457485
0.00270276
0.00251449
0.00213423
0.00181758
0.00159217
0.00135954
0.00131658
0.00113094
0.00109311
0.000928913
0.000842785
0.000709615
0.000646964
0.00050014
0.000687162
0.00112101
0.0059971
0.0105431
0.0146061
0.00467772
0.00260983
0.00253005
0.00222149
0.00183614
0.00157445
0.00134632
0.0012996
0.00111068
0.00109041
0.000933489
0.000838477
0.000706205
0.000641646
0.000497262
0.000682514
0.0010319
0.00597473
0.0105555
0.0146076
0.00480015
0.00266642
0.00246823
0.00226159
0.00186758
0.0015668
0.0013647
0.00132494
0.00111948
0.00110756
0.000948648
0.000843287
0.000712766
0.000650047
0.000503954
0.000676537
0.000937798
0.00591926
0.0105695
0.0146113
0.0049117
0.00271717
0.00250254
0.00229094
0.00184784
0.00153347
0.00135445
0.00130837
0.00109892
0.00110022
0.000945729
0.00083463
0.000708971
0.000647566
0.000504484
0.000652141
0.000848164
0.00588041
0.0105936
0.0146156
0.0049944
0.0026882
0.00240406
0.00233765
0.00188317
0.00153722
0.00137721
0.00133604
0.00111155
0.0011131
0.000954598
0.000836727
0.000719303
0.000662018
0.00051828
0.000629458
0.000750904
0.00582688
0.0106068
0.0146187
0.00515619
0.00285492
0.00246849
0.00234538
0.00184968
0.00152367
0.00136722
0.00132176
0.00109302
0.00110003
0.000942238
0.000822564
0.000710803
0.000658634
0.000529319
0.000627534
0.000634928
0.00576763
0.0106297
0.0146226
0.00533954
0.00280668
0.00233181
0.00230722
0.00183721
0.00153722
0.00138817
0.00134749
0.00110766
0.00110556
0.000942977
0.000822556
0.000716628
0.000674719
0.000544254
0.000609377
0.00056471
0.00571742
0.0106478
0.0146411
0.00535583
0.00298437
0.00247095
0.00228579
0.00181666
0.00154837
0.00138063
0.00133461
0.00109332
0.00108629
0.000922809
0.000809472
0.00070912
0.00067507
0.000563065
0.000586478
0.000431287
0.00558574
0.010658
0.0145863
0.00557225
0.0026554
0.00216309
0.00219158
0.00177723
0.00157377
0.0014099
0.00136098
0.00111371
0.00109058
0.000921707
0.00081657
0.000717353
0.000693721
0.000587751
0.000617136
0.000303802
0.00566454
0.0106882
0.0146776
0.00506307
0.00293317
0.00239745
0.00211922
0.0017332
0.00156856
0.00138704
0.0013346
0.00110214
0.00106081
0.00088847
0.000800488
0.000709146
0.000686987
0.00057148
0.000602048
0.000240988
0.00555885
0.0108067
0.0148417
0.00560854
0.00281528
0.0021726
0.00198317
0.00174514
0.0015732
0.00140701
0.00135531
0.00112568
0.00105939
0.000882312
0.000810012
0.000725793
0.000707398
0.000614844
0.000593651
0.00017
0.00522011
0.0105954
0.0143868
0.0186224
0.0286958
0.0140996
0.0214967
0.014623
0.0182848
0.0154943
0.0144352
0.012268
0.0107675
0.00873841
0.00827861
0.00730596
0.00699029
0.00632183
0.00657506
0.00586136
0.0522531
0.100784
0.1333
0.0265397
0.0212279
0.0197597
0.0163764
0.0150665
0.0128981
0.0116385
0.00971385
0.00859888
0.0076661
0.00699251
0.00660665
0.00606485
0.00586663
0.00538558
0.00507914
0.0150306
0.0505911
0.0986076
0.13224
0.013476
0.0143785
0.0129469
0.0113651
0.0106928
0.00923828
0.00871161
0.00833
0.00768408
0.00718109
0.00680894
0.00653671
0.00607834
0.00572115
0.00532859
0.00484009
0.00853152
0.0487836
0.0965209
0.130308
0.0122761
0.0102628
0.00907727
0.00813972
0.00797119
0.00761081
0.007076
0.00638751
0.00623273
0.00590628
0.00557729
0.00523065
0.00497277
0.00452376
0.00421238
0.00331736
0.00925887
0.0456004
0.0961236
0.127471
0.00523602
0.00675449
0.00687805
0.00599373
0.00563105
0.00538471
0.00541888
0.00530403
0.0050195
0.00481544
0.00466849
0.00451801
0.00441138
0.00429072
0.0040937
0.0034281
0.00645528
0.0412958
0.0963435
0.126326
0.0052009
0.00541663
0.00464783
0.00408312
0.00404563
0.0042527
0.00417902
0.00418445
0.00415725
0.00416203
0.0041139
0.0041681
0.00405452
0.00392997
0.00379541
0.00269576
0.0062202
0.0358462
0.0965465
0.12647
0.00287592
0.00300179
0.00313766
0.00350089
0.00338085
0.00322034
0.00342706
0.00353384
0.00345357
0.00352193
0.00351788
0.00358441
0.00360112
0.00374132
0.00353217
0.00289481
0.00387105
0.0297112
0.0968495
0.129679
0.00237705
0.00257269
0.00249534
0.00234484
0.00238621
0.00248342
0.00254756
0.00283085
0.00300472
0.00320919
0.00320697
0.00338141
0.00330703
0.00365849
0.00384921
0.00325191
0.00394245
0.0236856
0.0955587
0.13603
0.00130012
0.00143686
0.00153808
0.00197881
0.00227104
0.00239395
0.00232895
0.00241914
0.00254491
0.00275104
0.00288346
0.00309574
0.00321614
0.00333382
0.00340881
0.00373235
0.00367464
0.0162965
0.0929708
0.144397
0.00100272
0.00125603
0.00139291
0.00132377
0.00130245
0.00163598
0.00187557
0.00207803
0.00214082
0.00235342
0.00252051
0.00281697
0.00295935
0.00350949
0.00352729
0.00392009
0.00294698
0.010084
0.0840527
0.156114
0.000513947
0.000810912
0.000989314
0.00127806
0.0013915
0.00143114
0.00152408
0.00180521
0.00172413
0.00206011
0.00217154
0.00247983
0.00258753
0.0029423
0.00327929
0.0036862
0.00337662
0.00527136
0.0624551
0.169621
0.000617505
0.000647437
0.000589441
0.000592027
0.00076894
0.00100942
0.00106161
0.00119378
0.00148948
0.0016525
0.00187202
0.00209125
0.00239852
0.00262369
0.00304217
0.00341272
0.00409131
0.00496567
0.0476813
0.190471
0.000354613
0.000478019
0.00060949
0.000748593
0.00074183
0.000876148
0.000961721
0.0010584
0.00106687
0.00131483
0.00134763
0.00163169
0.00178916
0.00211884
0.00246253
0.00285223
0.00354992
0.00762971
0.0234327
0.146212
0.000269237
0.000307198
0.000299585
0.000411341
0.000474542
0.000589709
0.000655096
0.000858848
0.000864755
0.00111762
0.00107323
0.00143486
0.00138871
0.00191159
0.00170312
0.00240592
0.00203792
0.00504779
0.0131076
0.0963709
0.000297475
0.000354797
0.000354256
0.000401168
0.000358486
0.000481742
0.00024819
0.000595939
0.000329353
0.000722694
0.000733481
0.000932802
0.000987411
0.00130181
0.00149407
0.00206114
0.00235235
0.00309953
0.00370971
0.0510738
0.000264805
0.000300827
0.000290391
0.000314919
0.00037742
0.000399105
0.000429025
0.000465016
0.000518195
0.000572153
0.000643536
0.000700175
0.000866435
0.000890801
0.00107965
0.000809945
0.00148056
0.00184911
0.00196513
0.0268205
0.000282087
0.000264675
0.000274131
0.000316187
0.000333145
0.000357214
0.000377605
0.000400392
0.000451744
0.00047299
0.00054968
0.000553914
0.000597929
0.000622146
0.000573753
0.000971453
0.000604866
0.000389945
0.0032118
0.011578
0.000343048
0.000371395
0.000389797
0.000413467
0.000415816
0.000442244
0.000442155
0.000463454
0.000480113
0.00052673
0.000540773
0.000607238
0.000616993
0.000739116
0.000725014
0.000605491
0.000915081
0.00119194
0.00162106
0.00324842
0.000415727
0.000415498
0.000452017
0.000457801
0.000463157
0.000471611
0.00047597
0.000493732
0.000483255
0.000510633
0.000484935
0.000525254
0.000475972
0.000570152
0.000439761
0.00060116
0.000447625
0.000856835
0.000792897
0.00179048
0.000500483
0.000501456
0.000510941
0.000511394
0.000506696
0.000520242
0.000516569
0.000523994
0.000521857
0.000515815
0.000520944
0.00055
0.000460105
0.000491538
0.000388922
0.000373988
0.000294087
0.000243287
0.000177189
0.00012132
0.0141243
0.0140355
0.0139558
0.0138892
0.0136787
0.0135968
0.0134409
0.013332
0.0132627
0.0126239
0.0123839
0.0132211
0.0122857
0.00994912
0.00972866
0.0103863
0.0109313
0.0114906
0.00901192
0.00835511
0.00699252
0.00695488
0.00690629
0.00687361
0.00676642
0.00679449
0.00661196
0.0066447
0.00635414
0.00630062
0.00629745
0.00636233
0.00596264
0.00583487
0.00636077
0.00768749
0.00873481
0.00656304
0.00421871
0.00700386
0.00419187
0.00418028
0.00415533
0.00418389
0.00420855
0.00426672
0.00429189
0.004359
0.00436218
0.00444477
0.00424514
0.00451333
0.00435777
0.00417037
0.00371277
0.00370151
0.00339701
0.00400129
0.00393382
0.00350275
0.00269224
0.002681
0.00264778
0.0026187
0.00257128
0.00251444
0.00244664
0.00239174
0.00234721
0.00223217
0.00222078
0.00227111
0.0023112
0.00237628
0.00238597
0.00259923
0.0024733
0.00251336
0.00203426
0.00252067
0.00160176
0.00159953
0.00159265
0.00158942
0.00158303
0.00157897
0.00158009
0.00160112
0.00160414
0.00179902
0.00175419
0.00165737
0.0015886
0.00157574
0.00150017
0.00155791
0.00163813
0.00180222
0.00160909
0.0014854
0.00114286
0.0011316
0.00112536
0.00111723
0.00111431
0.00110598
0.00110219
0.00108058
0.00108612
0.00103474
0.000962434
0.00101133
0.00101855
0.00103945
0.00105687
0.00108651
0.000975229
0.00101128
0.000970545
0.000991697
0.000678842
0.000668562
0.000658744
0.000653842
0.000652588
0.000650556
0.000651287
0.00065175
0.000654868
0.00066667
0.000685251
0.000680514
0.000658316
0.00067702
0.0006707
0.000730549
0.00072813
0.000630217
0.000559239
0.000640769
0.000490167
0.000475627
0.000469093
0.000460795
0.000456113
0.000453172
0.000452713
0.000452938
0.000454485
0.000455685
0.000451411
0.000456014
0.000474264
0.000490225
0.000439805
0.000408244
0.000421041
0.000572852
0.000526529
0.000491787
0.000243766
0.000254333
0.000246256
0.000245573
0.00023979
0.000238915
0.000236607
0.00023819
0.000237908
0.000244382
0.000244828
0.000251218
0.000264777
0.000281654
0.000293012
0.000329436
0.000277846
0.000243687
0.000247824
0.00028537
0.000120857
0.000123405
0.000133426
0.000131685
0.000134396
0.000131991
0.000132887
0.000133934
0.000138454
0.000143162
0.000142705
0.000142874
0.000136112
0.000132211
0.000129571
0.000128746
0.000106483
0.000132159
0.00014839
0.000193622
1.82069e-05
2.02228e-05
2.39731e-05
2.35534e-05
2.08062e-05
2.76897e-05
3.85119e-05
4.87748e-05
5.76025e-05
6.32432e-05
7.22408e-05
7.10077e-05
7.68006e-05
7.31517e-05
9.8296e-05
0.000108799
9.43977e-05
0.00011291
5.16503e-05
0.000110639
4.63142e-05
4.09019e-05
3.23373e-05
2.55167e-05
3.2517e-05
3.38159e-05
3.60525e-05
3.61582e-05
3.75834e-05
3.90534e-05
5.23503e-05
6.59278e-05
6.65232e-05
6.50743e-05
5.3945e-05
7.53686e-05
9.05425e-05
0.000110791
0.000134254
0.000173114
4.56216e-05
4.6242e-05
4.025e-05
3.60119e-05
3.55217e-05
3.64171e-05
3.63327e-05
3.81437e-05
3.65064e-05
3.4839e-05
2.95316e-05
3.41631e-05
2.56601e-05
4.29882e-05
4.60872e-05
4.35392e-05
4.26593e-05
5.54508e-05
6.18521e-05
7.46677e-05
5.72634e-05
5.67091e-05
5.29752e-05
4.18377e-05
3.71199e-05
3.14905e-05
2.94866e-05
2.65635e-05
2.49062e-05
2.41549e-05
2.89706e-05
2.9678e-05
2.08545e-05
2.70952e-05
3.32702e-05
4.12974e-05
4.91598e-05
5.34466e-05
6.46495e-05
6.86437e-05
3.57138e-05
3.26639e-05
3.30069e-05
3.21399e-05
3.28538e-05
3.30266e-05
3.60403e-05
3.46329e-05
3.93354e-05
3.87072e-05
4.76283e-05
4.60732e-05
4.73055e-05
5.47381e-05
5.78838e-05
6.3645e-05
6.41053e-05
6.72005e-05
6.6054e-05
7.28289e-05
7.69613e-05
7.76829e-05
7.76826e-05
7.56999e-05
7.50464e-05
7.26606e-05
7.07484e-05
6.7649e-05
6.63893e-05
6.18954e-05
5.88417e-05
5.57823e-05
5.78636e-05
6.05086e-05
6.49211e-05
7.17447e-05
7.21103e-05
7.27994e-05
5.11888e-05
5.4752e-05
7.85132e-05
7.58654e-05
7.49013e-05
7.42806e-05
7.57431e-05
7.48989e-05
7.34665e-05
7.20454e-05
7.2372e-05
7.47531e-05
7.72897e-05
7.61897e-05
7.606e-05
7.5489e-05
7.37575e-05
7.28211e-05
7.19264e-05
6.73191e-05
7.56005e-05
7.61035e-05
7.49292e-05
7.4496e-05
7.45614e-05
7.36244e-05
7.25611e-05
7.33477e-05
7.62773e-05
7.84407e-05
7.84616e-05
7.72856e-05
7.66699e-05
8.02603e-05
8.06458e-05
7.95376e-05
7.68043e-05
7.19855e-05
7.59819e-05
7.4347e-05
7.01568e-05
7.62584e-05
8.86041e-05
9.10842e-05
9.28435e-05
9.47702e-05
9.44465e-05
9.33893e-05
9.11772e-05
9.03905e-05
8.97198e-05
9.05829e-05
9.0904e-05
9.18673e-05
9.3705e-05
9.62674e-05
9.89723e-05
0.000100425
9.3905e-05
9.90164e-05
0.000107125
0.000101099
0.00010503
0.000106102
0.00010567
0.000106622
0.000106893
0.000109092
0.000109667
0.000110766
0.000111791
0.000112597
0.000113758
0.000114219
0.000115171
0.000115997
0.000116596
0.000117367
0.0001214
0.000118915
0.000120206
0.000122922
0.00117798
0.00156999
0.00117518
0.00119698
0.00129309
0.00124671
0.00125439
0.00130639
0.00136014
0.00139301
0.00144432
0.0014981
0.0015546
0.00157487
0.00166261
0.00168257
0.00172815
0.00195817
0.00775147
0.0228654
0.00119229
0.00135525
0.000985121
0.00106278
0.00115212
0.00120801
0.00127205
0.00130611
0.00133678
0.00138504
0.00143818
0.00149164
0.0015718
0.00161931
0.00170915
0.00169692
0.00171972
0.00210774
0.00716416
0.0223709
0.00116683
0.00144634
0.00107571
0.00109751
0.00121897
0.0012098
0.00123081
0.00128566
0.00133256
0.00136787
0.00141169
0.00145819
0.00151467
0.00154321
0.00164577
0.00165348
0.00180055
0.00154745
0.00587578
0.0218605
0.00120411
0.00142271
0.00103429
0.00107271
0.00114384
0.001184
0.00124254
0.00127282
0.00130847
0.00136418
0.00142418
0.00148926
0.0015616
0.00160123
0.00168109
0.00162956
0.00174027
0.00145514
0.00504855
0.0212948
0.00122038
0.00143949
0.00107402
0.0011095
0.0011966
0.00121184
0.00123005
0.00128142
0.00132728
0.00136383
0.00140745
0.00145667
0.00150448
0.00154187
0.00163756
0.00165778
0.00184531
0.00154186
0.00477934
0.0206305
0.00120729
0.0014127
0.00106076
0.0010809
0.00114415
0.00118517
0.00123576
0.00127661
0.00131299
0.00137204
0.00143243
0.00149065
0.00154741
0.00159886
0.00167532
0.00163162
0.00178687
0.00156548
0.00571899
0.0198561
0.00120963
0.00141687
0.0010721
0.00111801
0.00121776
0.00124491
0.00126407
0.00130334
0.00134234
0.00138194
0.00142274
0.00147717
0.00153049
0.00158708
0.00165897
0.0017054
0.00189383
0.00161404
0.00550461
0.0191643
0.0012293
0.00138976
0.00108751
0.00114029
0.00118595
0.00120556
0.00123398
0.00127687
0.00131348
0.00137443
0.0014251
0.00147296
0.00152006
0.0015676
0.00163042
0.00163355
0.00180803
0.00167241
0.00523501
0.0182547
0.00121734
0.00136981
0.00107632
0.00112311
0.00118326
0.00121427
0.00125459
0.0013063
0.00134199
0.00138612
0.00141076
0.00147551
0.00152008
0.00158391
0.00164183
0.00169732
0.00182358
0.00160229
0.00450485
0.0168197
0.00122991
0.00134303
0.00108094
0.00113915
0.00118524
0.00121377
0.00124145
0.00126079
0.00128449
0.00132651
0.00136814
0.00141797
0.00144675
0.00150336
0.0015303
0.00159763
0.00174621
0.00173651
0.00344345
0.0146165
0.00115478
0.00124363
0.00104264
0.0010928
0.00114197
0.00117224
0.00119763
0.00124287
0.00129369
0.00133896
0.00137569
0.001436
0.00146563
0.00152093
0.00157366
0.0016807
0.00169254
0.00168627
0.00285858
0.0117858
0.00114824
0.00123094
0.00106019
0.00109696
0.00114
0.0011785
0.00120507
0.00124229
0.00126956
0.00129989
0.00134131
0.00137097
0.00139743
0.00147617
0.00153889
0.00159981
0.00167145
0.00175649
0.00238143
0.0094963
0.00109045
0.00115678
0.00102452
0.00107084
0.001136
0.0011625
0.00117811
0.0012163
0.00124615
0.0012854
0.00132964
0.00138746
0.00145368
0.0015381
0.00156791
0.00161816
0.00162876
0.00166289
0.00194533
0.00755922
0.00106887
0.00112395
0.00103314
0.00107698
0.00111144
0.00111861
0.0011543
0.00120088
0.00124009
0.00130036
0.00134319
0.0013914
0.00143737
0.00150047
0.0014801
0.00158672
0.0016054
0.00160412
0.00177061
0.00643182
0.00103974
0.00111709
0.00103373
0.00105561
0.00108732
0.00111075
0.00115792
0.00118871
0.00122594
0.00125111
0.00129573
0.00135789
0.00139472
0.00141847
0.00145331
0.00157203
0.00153134
0.00169702
0.00179133
0.00556459
0.00102678
0.00108376
0.00100471
0.00104232
0.00109274
0.00112831
0.00117493
0.00119876
0.00124117
0.00129345
0.00133477
0.00135265
0.00136023
0.00141937
0.00144534
0.00152081
0.00147817
0.00158653
0.00173578
0.0051397
0.000996866
0.00106648
0.00101361
0.00105144
0.0010882
0.00110506
0.00112875
0.00115872
0.00121064
0.00124326
0.00126625
0.00130878
0.0013557
0.00141521
0.0014403
0.00147535
0.0014935
0.0016587
0.00182099
0.00497134
0.000970052
0.0010389
0.000990104
0.00102965
0.00106819
0.00109469
0.00113211
0.0011708
0.00119833
0.00121299
0.00124706
0.00129534
0.00136329
0.00138061
0.00147499
0.00157141
0.00163012
0.0016579
0.00174944
0.0041661
0.000943556
0.00102273
0.000976784
0.001032
0.00106769
0.00109431
0.00112795
0.00115787
0.00119116
0.00124509
0.00131351
0.00136276
0.00138531
0.00144734
0.00151227
0.00148617
0.00158634
0.0016026
0.00157563
0.00336289
0.000926801
0.000977255
0.000944231
0.00100023
0.00102956
0.00105983
0.00109432
0.00112815
0.00117937
0.00121225
0.00126041
0.00126508
0.00134412
0.00137555
0.0014318
0.00145603
0.00164817
0.00172241
0.00170793
0.00347121
0.00107862
0.0012394
0.00135889
0.00134769
0.00129212
0.00119689
0.00116979
0.00114806
0.00116041
0.0012214
0.00122114
0.00121796
0.00131357
0.00140642
0.00136017
0.000748459
0.000146067
0.0104265
0.0161914
0.0159201
0.00108983
0.00123092
0.00134848
0.00136658
0.00134521
0.00123404
0.00117412
0.00118858
0.00119421
0.00116253
0.00122909
0.00128376
0.00128149
0.00137348
0.00139332
0.00101428
0.000172987
0.00943968
0.0162782
0.0177732
0.00107371
0.00123371
0.00139069
0.00137102
0.00132987
0.00124263
0.00121144
0.00116885
0.00118114
0.00125074
0.00125901
0.00128326
0.00138715
0.00142623
0.00149189
0.00122907
0.000729726
0.0072706
0.0161818
0.0201597
0.00108065
0.00118469
0.00135372
0.00138065
0.00137007
0.00126824
0.00120807
0.00123873
0.00124854
0.00121707
0.00126631
0.00131186
0.00132607
0.00141565
0.00149634
0.00129435
0.000432327
0.00572918
0.0160252
0.0205157
0.00109642
0.00125027
0.00143019
0.00139147
0.00134496
0.00125691
0.001222
0.00118125
0.00119465
0.00126394
0.00129892
0.00134567
0.00143089
0.00145962
0.00155005
0.00148654
0.000879132
0.00407598
0.0159816
0.021565
0.00105693
0.00114435
0.00137834
0.00138495
0.0013697
0.0012834
0.00123243
0.00126328
0.0012809
0.00126576
0.00129296
0.00133224
0.00137165
0.00147361
0.00154308
0.00147554
0.000487026
0.00320671
0.0155406
0.0220274
0.00110449
0.00123474
0.00144555
0.00139867
0.00134483
0.00125983
0.00122062
0.00119966
0.00121565
0.00126854
0.00133102
0.00139554
0.0014603
0.00149839
0.00157396
0.00160505
0.000774584
0.00216962
0.0154768
0.0229164
0.001038
0.00113305
0.00141981
0.00139105
0.00134199
0.00126993
0.00123993
0.00126404
0.00129145
0.00130733
0.00132187
0.00135254
0.00141107
0.00151314
0.00156924
0.00158488
0.000868416
0.00171071
0.0149493
0.0232697
0.00110727
0.00120226
0.00144633
0.00138916
0.0013366
0.00126845
0.00122668
0.00123028
0.00125074
0.00127854
0.00135247
0.00143017
0.00148236
0.00152843
0.00158439
0.00165846
0.00112283
0.00122626
0.0147878
0.0239574
0.00103092
0.00111695
0.00144826
0.00138168
0.00129288
0.00123619
0.00123286
0.00125442
0.00128843
0.00133629
0.00135555
0.00137788
0.00144562
0.00154535
0.00159585
0.00165911
0.00116505
0.00168647
0.0142444
0.0241795
0.00109033
0.00115213
0.00142931
0.00135475
0.00130738
0.0012693
0.00123611
0.00126287
0.00129329
0.00130242
0.00136841
0.00145079
0.00149917
0.00154697
0.00158658
0.0016765
0.00134437
0.00118648
0.0139982
0.0245786
0.0010433
0.00109265
0.00143914
0.0013397
0.00123639
0.00120425
0.00123023
0.00125702
0.00128557
0.00134743