/*--------------------------------*- C++ -*----------------------------------*\
  =========                 |
  \\      /  F ield         | OpenFOAM: The Open Source CFD Toolbox
   \\    /   O peration     | Website:  https://openfoam.org
    \\  /    A nd           | Version:  9
     \\/     M anipulation  |
\*---------------------------------------------------------------------------*/
FoamFile
{
    format      ascii;
    class       volScalarField;
    location    "14";
    object      p;
}
// * * * * * * * * * * * * * * * * * * * * * * * * * * * * * * * * * * * * * //

dimensions      [0 2 -2 0 0 0 0];

internalField   nonuniform List<scalar> 
46400
(
187.314
192.959
203.089
211.371
218.622
225.288
231.113
236.413
241.111
245.363
249.172
252.613
255.735
258.58
261.223
263.702
265.974
268.375
271.048
271.757
209.284
215.395
223.891
231.494
237.947
243.915
249.125
253.825
257.971
261.7
265.017
268.003
270.671
273.052
275.182
277.075
278.744
280.364
281.791
281.503
232.122
236.8
244.252
250.99
256.68
261.903
266.423
270.485
274.028
277.176
279.945
282.385
284.545
286.442
288.135
289.625
290.897
292.109
293.252
292.568
253.666
257.315
264.21
270.392
275.514
280.13
284.069
287.529
290.5
293.068
295.284
297.191
298.832
300.204
301.374
302.339
303.089
303.788
304.494
303.575
273.594
277.165
283.691
289.152
293.552
297.455
300.682
303.472
305.813
307.788
309.438
310.788
311.904
312.795
313.507
314.05
314.408
314.744
315.077
313.937
293.653
297.781
303.37
308.157
311.839
315.022
317.615
319.734
321.471
322.831
323.92
324.72
325.313
325.667
325.855
325.864
325.721
325.558
325.389
323.914
313.281
318.154
322.347
326.109
328.923
331.258
333.083
334.488
335.556
336.319
336.839
337.126
337.227
337.154
336.942
336.601
336.105
335.595
335.048
333.359
333.532
337.978
341.051
343.749
345.814
347.347
348.525
349.258
349.716
349.858
349.822
349.561
349.15
348.56
347.862
347.041
346.119
345.195
344.241
342.31
351.858
355.07
357.325
359.037
360.322
361.162
361.689
361.87
361.806
361.468
360.937
360.226
359.404
358.465
357.432
356.288
355.047
353.798
352.523
350.432
368.798
371.206
372.829
373.785
374.447
374.614
374.576
374.178
373.59
372.731
371.71
370.492
369.172
367.739
366.243
364.667
363.027
361.397
359.762
357.445
382.201
383.983
385.06
385.525
385.678
385.42
384.928
384.151
383.203
382.046
380.764
379.306
377.762
376.083
374.344
372.513
370.628
368.742
366.883
364.35
395.436
396.608
397.25
397.087
396.729
395.867
394.866
393.524
392.065
390.391
388.629
386.739
384.783
382.749
380.672
378.555
376.392
374.259
372.149
369.574
404.798
405.335
405.662
405.255
404.719
403.689
402.492
401.02
399.416
397.593
395.658
393.565
391.386
389.096
386.76
384.355
381.915
379.475
377.072
374.222
414.208
414.149
413.925
413.015
411.92
410.426
408.712
406.797
404.744
402.572
400.309
397.973
395.568
393.118
390.618
388.096
385.527
382.988
380.502
377.62
419.529
419.455
418.995
418.006
416.844
415.336
413.61
411.577
409.414
407.041
404.602
402.031
399.431
396.749
394.061
391.329
388.586
385.859
383.224
380.221
423.604
423.604
422.981
421.73
420.206
418.354
416.353
414.119
411.756
409.245
406.638
403.942
401.192
398.393
395.572
392.73
389.871
387.036
384.3
381.198
425.977
425.494
424.658
423.476
421.809
419.872
417.693
415.339
412.837
410.224
407.508
404.72
401.871
398.988
396.076
393.161
390.221
387.326
384.538
381.426
426.252
425.463
424.491
423.03
421.331
419.281
417.054
414.589
412.028
409.307
406.539
403.671
400.784
397.846
394.906
391.952
388.989
386.064
383.256
380.136
422.763
422.536
421.531
420.243
418.601
416.68
414.509
412.131
409.564
406.885
404.084
401.231
398.306
395.36
392.385
389.408
386.411
383.447
380.582
377.418
417.972
417.807
417.03
415.848
414.267
412.404
410.256
407.926
405.41
402.769
400.014
397.187
394.296
391.374
388.428
385.481
382.519
379.605
376.797
373.663
88.9343
89.3196
89.0432
90.049
89.6082
90.5645
91.8446
93.5274
94.7514
96.3907
98.2526
99.9556
101.706
103.43
105.131
106.886
108.609
110.298
112.033
113.683
89.7143
90.2517
89.3557
89.6524
90.5785
91.7633
93.6656
95.23
97.1083
99.1405
101.028
102.99
104.824
106.741
108.562
110.437
112.209
113.99
115.779
117.448
91.9865
92.2467
92.1823
90.2926
91.5688
93.4103
95.3379
97.1591
99.3223
101.514
103.634
105.704
107.79
109.834
111.833
113.836
115.737
117.678
119.508
121.339
91.6096
91.6267
92.3864
91.9656
93.0371
94.7818
96.4887
98.8196
101.239
103.589
105.896
108.252
110.485
112.774
114.923
117.089
119.129
121.126
123.008
124.822
88.6878
89.3366
89.1562
90.3651
91.909
94.2555
96.913
99.5762
102.41
105.137
107.856
110.51
113.113
115.663
118.087
120.515
122.76
125.011
127.107
129.101
82.5651
83.4605
83.4433
86.3316
89.4416
92.6625
96.1996
99.6624
103.059
106.374
109.571
112.675
115.637
118.536
121.263
123.967
126.448
128.92
131.164
133.458
73.6622
74.3238
76.2509
80.6715
85.5556
90.4717
95.0136
99.4478
103.658
107.632
111.409
115.01
118.415
121.68
124.742
127.737
130.443
133.204
135.634
138.111
63.7235
64.6183
69.3515
75.9627
82.5593
88.7292
94.4746
99.7536
104.734
109.361
113.696
117.754
121.573
125.176
128.554
131.799
134.729
137.717
140.238
142.943
56.9739
57.4991
64.7558
72.9566
80.9597
88.2228
94.9782
101.079
106.74
111.973
116.799
121.317
125.497
129.427
133.079
136.532
139.646
142.782
145.403
148.186
51.9982
54.1376
62.8592
72.4967
81.4441
89.5866
97.0316
103.775
110
115.686
120.936
125.772
130.259
134.414
138.278
141.887
145.139
148.428
151.044
153.988
51.7289
54.7317
63.8874
74.4901
84.2417
93.0421
101.047
108.257
114.883
120.939
126.463
131.585
136.242
140.6
144.625
148.329
151.705
155.017
157.698
160.737
55.5195
57.8563
68.7035
79.6227
89.5649
98.6091
106.91
114.36
121.233
127.49
133.217
138.469
143.287
147.719
151.819
155.571
159.005
162.303
164.955
168.11
60.4066
63.7234
74.7031
86.3205
96.7844
106.048
114.662
122.338
129.356
135.75
141.546
146.867
151.703
156.163
160.257
163.967
167.382
170.595
173.168
176.36
68.7083
72.9229
84.4762
95.6231
106.418
115.675
124.271
131.977
138.997
145.388
151.184
156.484
161.298
165.699
169.733
173.368
176.73
179.801
182.289
185.505
80.0789
84.5446
96.0289
107.288
117.892
127.211
135.743
143.396
150.326
156.624
162.304
167.48
172.159
176.44
180.337
183.833
187.096
189.962
192.311
195.58
93.2222
98.1193
110.163
121.237
131.66
140.652
148.937
156.363
163.069
169.172
174.661
179.664
184.16
188.246
191.936
195.237
198.315
200.863
202.998
206.309
109.274
114.341
126.641
136.928
146.913
155.618
163.521
170.681
177.102
182.946
188.193
192.949
197.225
201.091
204.562
207.658
210.513
212.76
214.64
217.754
126.305
131.617
144.183
154.096
163.576
171.907
179.402
186.173
192.23
197.732
202.656
207.126
211.121
214.712
217.901
220.741
223.31
225.221
226.759
229.697
145.618
151.331
163.366
172.616
181.354
189.183
196.158
202.52
208.196
213.366
217.999
222.191
225.957
229.335
232.344
235.048
237.427
239.124
240.664
243.781
166.044
171.66
182.807
191.705
199.771
207.107
213.583
219.475
224.726
229.517
233.838
237.809
241.436
244.775
247.878
250.809
253.497
255.966
258.991
262.098
119.874
128.747
139.071
143.572
150.83
153.669
158.174
160.578
163.14
165.152
166.51
168.249
168.854
170.439
170.518
171.939
172.083
172.65
172.603
172.581
124.569
132.346
142.766
146.55
153.676
156.169
160.409
162.55
164.877
166.701
167.884
169.493
169.947
171.425
171.323
172.718
172.679
173.21
173.08
173.038
129.376
136.012
146.601
149.749
156.531
158.583
162.554
164.467
166.588
168.247
169.27
170.746
171.05
172.416
172.121
173.509
173.227
173.835
173.607
173.528
133.942
139.463
150.3
152.745
159.36
161.055
164.752
166.426
168.316
169.795
170.645
171.995
172.151
173.406
172.936
174.297
173.739
174.416
174.052
173.959
138.756
143.164
154.118
155.833
162.16
163.456
166.895
168.338
170.024
171.333
172.029
173.243
173.263
174.394
173.733
175.085
174.247
175.066
174.56
174.415
143.939
146.79
157.772
158.854
164.978
165.892
169.069
170.277
171.742
172.872
173.414
174.489
174.379
175.384
174.547
175.87
174.76
175.659
174.959
174.813
148.889
150.469
161.561
161.871
167.752
168.306
171.196
172.188
173.443
174.399
174.797
175.733
175.5
176.372
175.36
176.656
175.241
176.222
175.385
175.239
153.919
154.232
165.154
164.942
170.491
170.737
173.344
174.115
175.157
175.926
176.184
176.982
176.628
177.37
176.189
177.438
175.693
176.711
175.738
175.621
159.139
158.016
168.792
168.083
173.252
173.165
175.47
176.02
176.854
177.436
177.565
178.225
177.756
178.367
177.019
178.215
176.136
177.254
176.088
176.025
164.669
162.098
172.292
171.185
175.955
175.576
177.6
177.933
178.567
178.947
178.952
179.477
178.899
179.379
177.874
178.994
176.565
177.803
176.443
176.4
170.577
166.173
175.896
174.387
178.725
178.015
179.721
179.826
180.264
180.436
180.328
180.72
180.038
180.387
178.735
179.773
176.986
178.337
176.79
176.774
176.903
170.572
179.337
177.491
181.408
180.42
181.839
181.725
181.978
181.924
181.708
181.972
181.191
181.417
179.631
180.556
177.393
178.853
177.148
177.12
183.782
175.06
182.882
180.705
184.205
182.874
183.955
183.603
183.678
183.389
183.074
183.216
182.34
182.444
180.539
181.307
177.812
179.353
177.488
177.453
191.224
179.65
186.377
183.777
186.889
185.29
186.07
185.486
185.396
184.851
184.441
184.471
183.506
183.501
181.496
182.112
178.239
179.863
177.825
177.77
199.233
184.56
189.958
186.884
189.678
187.733
188.171
187.334
187.094
186.28
185.777
185.706
184.655
184.549
182.462
183.081
178.687
180.349
178.125
178.089
208.316
189.302
193.732
189.92
192.389
190.167
190.285
189.202
188.814
187.711
187.111
186.951
185.82
185.623
183.457
183.86
179.153
180.768
178.382
178.39
217.361
194.771
197.462
192.975
195.345
192.738
192.453
191.103
190.568
189.179
188.477
188.231
187.012
186.738
184.531
184.804
179.544
181.274
178.596
178.635
226.428
199.598
201.012
195.312
197.95
195.042
194.501
192.856
192.282
190.536
189.751
189.455
188.171
187.83
185.589
186.111
179.932
182.091
178.807
179.264
239.314
206.213
207.277
197.299
200.405
196.975
196.252
194.24
193.731
191.552
190.69
190.409
189.111
188.718
186.443
186.874
180.291
182.136
178.55
179.215
254.888
220.055
215.339
203.671
204.566
200.833
199.075
196.977
195.732
193.622
192.392
192.02
190.576
190.137
187.828
188.022
181.522
182.34
177.335
180.055
267.911
272.2
247.07
247.907
232.819
230.419
221.105
219.637
213.152
212.166
207.329
205.459
202.319
201.31
198.418
198.972
195.053
196.855
181.805
201.885
285.713
278.643
262.766
256.448
245.072
239.808
231.887
226.998
221.143
217.515
213.357
210.673
207.484
205.796
203.114
202.454
199.633
199.903
197.299
199.446
276.467
267.192
259.092
252.804
246.402
241.309
236.169
232.21
228.142
224.786
221.446
218.887
216.228
214.082
212.034
210.44
208.968
207.666
207.176
207.307
266.725
261.952
258.309
252.672
248.018
243.074
238.831
234.597
230.817
227.517
224.344
221.466
218.842
216.579
214.528
212.767
211.307
210.112
209.258
209.065
253.722
249.553
247.135
243.53
240.931
237.974
235.3
232.605
230.027
227.61
225.256
223.14
220.989
219.052
217.151
215.347
213.758
212.015
211.304
211.131
245.239
243.662
243.561
241.445
239.758
237.268
235.225
232.858
230.659
228.447
226.269
224.207
222.136
220.205
218.329
216.431
214.868
213.146
212.115
211.696
237.589
236.485
236.007
234.735
233.733
232.354
231.075
229.818
228.333
226.985
225.356
223.954
222.206
220.725
218.882
217.221
215.385
213.352
212.465
211.072
232.761
232.547
233.217
232.725
232.193
231.508
230.61
229.626
228.433
227.304
225.892
224.646
223.028
221.657
219.807
218.241
216.053
214.302
212.25
211.614
228.828
229.085
229.286
229.228
229.172
228.882
228.338
227.858
227.182
226.585
225.608
224.861
223.561
222.639
220.931
219.757
217.388
215.984
213.388
212.841
226.891
227.422
227.971
228.181
228.26
228.222
228.007
227.891
227.466
227.135
226.481
226.001
225.069
224.418
223.081
222.22
220.046
219.165
215.96
215.832
225.096
225.603
226.291
226.965
227.38
227.752
227.893
228.069
227.995
228.062
227.791
227.75
227.245
227.123
226.28
226.078
224.524
224.654
220.909
222.741
224.5
225.36
226.032
226.584
227.013
227.504
227.848
228.245
228.539
228.908
229.108
229.449
229.591
229.915
230.062
230.444
230.499
230.942
231.975
233.994
224.15
225.092
225.909
226.71
227.399
228.098
228.631
229.335
229.754
230.45
230.938
231.636
232.334
233.066
234.116
234.789
236.506
237.006
240.205
241.219
224.186
225.02
225.769
226.612
227.327
228.161
228.857
229.728
230.415
231.355
232.062
233.158
233.942
235.287
236.214
238.066
239.398
242.014
244.824
246.231
224.377
225.266
226.075
226.938
227.689
228.642
229.315
230.325
230.996
232.122
232.86
234.187
235.071
236.705
237.855
239.962
241.492
244.382
246.773
250.635
224.504
225.384
226.194
227.105
227.921
228.81
229.634
230.574
231.416
232.457
233.33
234.514
235.436
236.84
237.835
239.586
240.58
242.944
242.816
252.195
224.792
225.635
226.437
227.309
228.093
229.009
229.812
230.779
231.603
232.644
233.489
234.634
235.492
236.784
237.614
239.092
239.792
241.479
241.774
243.761
224.94
225.76
226.577
227.423
228.255
229.125
229.967
230.872
231.722
232.673
233.524
234.532
235.372
236.452
237.244
238.422
239.214
240.551
241.113
242.59
225.104
225.907
226.702
227.539
228.341
229.21
230.02
230.917
231.734
232.652
233.472
234.398
235.211
236.117
236.912
237.744
238.37
239.081
239.623
240.333
225.16
225.948
226.754
227.567
228.392
229.224
230.062
230.91
231.751
232.611
233.439
234.301
235.091
235.941
236.643
237.466
237.996
238.758
238.938
240.779
336.624
339.842
342.378
344.371
345.634
346.425
346.328
346.08
344.522
343.246
340.455
338.116
334.367
329.086
324.124
319.364
313.924
308.001
300.673
293.008
304.875
307.079
308.914
310.538
311.773
312.841
313.513
314.036
314.186
314.196
313.805
313.411
312.408
311.52
310.217
309.087
307.838
304.654
300.774
298.886
268.224
269.956
271.556
273.072
274.412
275.709
276.782
277.868
278.679
279.55
280.077
280.744
281.045
281.546
281.59
281.727
281.307
281.314
280.692
280.8
254.734
256.008
257.256
258.406
259.523
260.549
261.517
262.411
263.198
263.963
264.579
265.228
265.689
266.206
266.489
267.021
267.313
267.808
267.77
268.253
239.037
240.096
241.092
242.082
243.001
243.924
244.774
245.64
246.433
247.246
247.985
248.761
249.425
250.148
250.714
251.374
251.823
252.504
252.826
253.572
232.732
233.557
234.373
235.153
235.924
236.661
237.386
238.085
238.754
239.42
240.023
240.632
241.166
241.749
242.229
242.813
243.249
243.792
244.121
244.701
226.019
226.721
227.409
228.079
228.728
229.364
229.978
230.577
231.16
231.726
232.276
232.821
233.341
233.867
234.338
234.865
235.303
235.831
236.209
236.75
223.13
223.697
224.263
224.81
225.35
225.877
226.391
226.898
227.387
227.877
228.338
228.807
229.238
229.691
230.1
230.531
230.878
231.299
231.608
232.036
220.363
220.89
221.382
221.876
222.35
222.817
223.27
223.711
224.141
224.557
224.961
225.354
225.731
226.106
226.458
226.815
227.154
227.51
227.791
228.135
219.263
219.681
220.1
220.506
220.918
221.317
221.714
222.099
222.479
222.851
223.216
223.577
223.927
224.277
224.604
224.945
225.236
225.558
225.852
226.183
218.75
219.133
219.503
219.869
220.217
220.559
220.892
221.22
221.538
221.85
222.153
222.449
222.738
223.02
223.293
223.563
223.82
224.081
224.321
224.573
218.731
219.049
219.365
219.674
219.98
220.28
220.577
220.869
221.157
221.439
221.719
221.991
222.258
222.513
222.753
223.002
223.236
223.477
223.689
223.925
218.939
219.221
219.5
219.776
220.047
220.314
220.575
220.833
221.085
221.334
221.578
221.817
222.043
222.273
222.501
222.716
222.929
223.148
223.36
223.579
219.24
219.494
219.744
219.993
220.24
220.488
220.733
220.976
221.216
221.455
221.687
221.921
222.158
222.395
222.627
222.856
223.075
223.284
223.486
223.681
219.715
219.942
220.167
220.392
220.615
220.838
221.06
221.281
221.502
221.721
221.94
222.157
222.374
222.59
222.803
223.016
223.225
223.435
223.64
223.845
220.135
220.344
220.553
220.761
220.969
221.176
221.384
221.59
221.796
222.001
222.205
222.408
222.61
222.811
223.012
223.211
223.409
223.607
223.802
223.999
220.582
220.774
220.969
221.163
221.358
221.553
221.749
221.945
222.142
222.338
222.534
222.73
222.927
223.123
223.319
223.513
223.709
223.902
224.097
224.288
220.864
221.046
221.23
221.414
221.6
221.785
221.973
222.16
222.348
222.537
222.726
222.916
223.106
223.297
223.488
223.679
223.87
224.061
224.253
224.443
221.126
221.301
221.477
221.655
221.833
222.013
222.194
222.376
222.559
222.743
222.927
223.113
223.299
223.485
223.673
223.86
224.049
224.237
224.427
224.616
221.219
221.39
221.563
221.737
221.912
222.088
222.266
222.445
222.625
222.806
222.988
223.172
223.356
223.542
223.728
223.915
224.103
224.292
224.482
224.672
59.5522
56.9429
50.356
43.3849
36.9296
30.1145
22.9624
15.4326
7.45124
-1.0478
-10.1553
-19.9401
-30.4685
-41.9363
-54.2979
-67.9867
-82.7601
-98.9287
-117.74
-128.411
78.7019
77.0218
72.275
66.9484
61.6714
55.9911
49.882
43.3778
36.3728
28.8268
20.6838
11.8664
2.32471
-8.13301
-19.3773
-31.8635
-45.2446
-59.9762
-77.3146
-88.0846
99.6537
99.194
95.722
91.1696
86.7053
81.8151
76.5212
70.7934
64.6093
57.9315
50.7064
42.8697
34.3646
25.055
14.9872
3.75049
-8.19723
-21.6787
-36.9955
-46.9218
121.514
121.396
118.475
114.782
111.106
107.079
102.641
97.8465
92.5924
86.8791
80.6116
73.7623
66.2508
57.9475
48.9303
38.7912
28.0301
15.7116
2.04969
-5.97947
143.561
143.933
141.712
138.68
135.699
132.36
128.663
124.58
120.099
115.161
109.724
103.727
97.0902
89.7311
81.6263
72.4752
62.6621
51.2092
38.7177
32.3847
165.339
165.999
164.232
161.823
159.456
156.822
153.844
150.572
146.908
142.859
138.323
133.295
127.661
121.341
114.325
106.247
97.4862
86.9094
75.0577
68.5022
186.848
187.868
186.655
184.889
183.167
181.185
178.893
176.29
173.354
170.038
166.292
162.072
157.274
151.883
145.76
138.761
131.125
121.831
111.639
104.282
207.747
208.946
208.152
206.881
205.666
204.217
202.52
200.6
198.385
195.862
192.959
189.668
185.876
181.563
176.627
170.929
164.569
156.642
148.097
140.368
227.735
229.199
228.798
228.117
227.47
226.653
225.61
224.36
222.841
221.034
218.897
216.384
213.429
210.04
206.05
201.478
196.307
189.937
183.453
175.574
246.921
248.505
248.447
248.2
248.019
247.662
247.116
246.412
245.482
244.34
242.909
241.212
239.138
236.706
233.785
230.448
226.451
221.715
216.654
209.216
264.423
266.188
266.612
266.882
267.201
267.402
267.456
267.375
267.108
266.649
265.949
264.973
263.679
262.066
260.04
257.617
254.637
251.179
246.986
241.494
280.871
282.89
283.764
284.491
285.267
285.926
286.451
286.853
287.084
287.155
286.994
286.645
286
285.098
283.792
282.143
279.933
277.259
273.927
269.544
295.949
298.134
299.406
300.566
301.767
302.887
303.902
304.818
305.606
306.257
306.731
307.014
307.032
306.806
306.17
305.232
303.716
301.813
299.123
295.509
310.041
312.437
314.082
315.618
317.193
318.682
320.094
321.409
322.624
323.697
324.609
325.342
325.823
326.05
325.907
325.489
324.483
323.216
321.164
318.336
322.54
325.127
327.115
329.015
330.943
332.81
334.61
336.331
337.952
339.453
340.809
341.993
342.954
343.716
344.148
344.347
344.059
343.491
342.13
340.065
334.366
337.142
339.35
341.511
343.716
345.863
347.957
349.984
351.929
353.777
355.482
357.054
358.406
359.588
360.445
361.106
361.245
361.276
360.45
359.076
344.733
347.666
350.052
352.448
354.879
357.266
359.608
361.896
364.112
366.23
368.235
370.101
371.81
373.333
374.607
375.669
376.325
376.802
376.494
375.834
354.038
357.047
359.557
362.112
364.723
367.297
369.851
372.365
374.83
377.227
379.54
381.751
383.822
385.722
387.426
388.854
389.988
390.763
390.919
390.862
361.97
365.057
367.668
370.374
373.132
375.872
378.592
381.287
383.935
386.519
389.016
391.385
393.613
395.657
397.454
399.007
400.196
401.036
401.289
401.258
368.641
371.721
374.393
377.177
380.035
382.863
385.706
388.514
391.307
394.025
396.692
399.228
401.669
403.902
406.01
407.779
409.395
410.45
411.137
410.998
-300.247
-311.638
-323.549
-336.394
-349.78
-364.109
-379.078
-394.863
-411.414
-428.861
-447.168
-466.489
-486.903
-508.483
-531.505
-556.005
-581.461
-606.378
-625.205
-628.304
-292.723
-304.152
-315.991
-328.859
-342.264
-356.613
-371.653
-387.517
-404.211
-421.764
-440.312
-459.888
-480.564
-502.512
-525.904
-550.828
-577.27
-603.661
-623.846
-628.709
-284.073
-295.511
-307.247
-320.078
-333.446
-347.801
-362.879
-378.804
-395.579
-413.332
-432.016
-451.799
-472.765
-494.994
-518.631
-543.887
-570.315
-597.705
-619.024
-622.094
-274.417
-285.793
-297.332
-310.121
-323.414
-337.694
-352.745
-368.646
-385.443
-403.147
-421.919
-441.79
-462.889
-485.357
-509.298
-534.987
-562.271
-591.206
-613.084
-617.414
-263.415
-274.797
-286.248
-298.925
-312.134
-326.299
-341.263
-357.084
-373.794
-391.548
-410.272
-430.162
-451.295
-473.741
-497.724
-523.531
-550.827
-580.26
-603.007
-607.54
-251.599
-262.83
-273.986
-286.426
-299.464
-313.414
-328.198
-343.831
-360.394
-377.898
-396.493
-416.239
-437.285
-459.75
-483.81
-509.678
-537.361
-567.177
-591.246
-596.999
-238.355
-249.479
-260.394
-272.591
-285.41
-299.126
-313.672
-329.09
-345.408
-362.775
-381.158
-400.724
-421.54
-443.692
-467.458
-492.995
-520.15
-549.711
-574.333
-580.725
-224.082
-235.028
-245.585
-257.448
-269.971
-283.34
-297.567
-312.627
-328.62
-345.571
-363.591
-382.785
-403.295
-425.225
-448.814
-474.09
-501.294
-530.883
-556.251
-563.656
-208.102
-218.835
-229.134
-240.672
-252.911
-265.96
-279.83
-294.56
-310.174
-326.811
-344.478
-363.327
-383.392
-404.807
-427.818
-452.497
-478.89
-507.739
-533.353
-541.402
-191.435
-201.971
-211.863
-222.975
-234.787
-247.361
-260.774
-274.996
-290.12
-306.214
-323.328
-341.598
-361.161
-382.116
-404.748
-428.941
-455.119
-483.505
-509.234
-518.064
-173.042
-183.24
-192.782
-203.449
-214.883
-227.029
-239.968
-253.732
-268.363
-283.958
-300.572
-318.35
-337.288
-357.584
-379.408
-402.75
-427.972
-455.808
-481.283
-490.564
-153.922
-163.88
-173.011
-183.196
-194.119
-205.724
-218.109
-231.28
-245.3
-260.277
-276.22
-293.268
-311.541
-331.153
-352.329
-374.903
-399.721
-426.565
-452.146
-461.771
-133.444
-143.007
-151.714
-161.349
-171.779
-182.828
-194.62
-207.194
-220.616
-234.933
-250.225
-266.647
-284.174
-303.038
-323.308
-345.093
-368.974
-394.305
-419.995
-429.779
-111.945
-121.214
-129.498
-138.61
-148.483
-158.978
-170.178
-182.143
-194.892
-208.548
-223.121
-238.737
-255.485
-273.501
-292.928
-313.797
-336.664
-360.898
-386.243
-396.209
-89.4602
-98.3387
-106.206
-114.725
-124.038
-133.899
-144.441
-155.709
-167.781
-180.679
-194.489
-209.353
-225.257
-242.425
-260.922
-280.856
-302.705
-325.833
-350.956
-361.023
-65.951
-74.5036
-81.9466
-89.926
-98.6559
-107.964
-117.899
-128.558
-139.938
-152.15
-165.223
-179.281
-194.347
-210.626
-228.13
-247.038
-267.652
-289.666
-313.817
-324.021
-41.9006
-50.0003
-56.9753
-64.3331
-72.461
-81.1148
-90.3848
-100.327
-111.002
-122.436
-134.71
-147.924
-162.105
-177.457
-194.048
-212.009
-231.744
-252.843
-276.156
-286.4
-17.4308
-25.1102
-31.5236
-38.2601
-45.7731
-53.8744
-62.5268
-71.8259
-81.7985
-92.5189
-104.021
-116.436
-129.75
-144.213
-159.713
-176.571
-194.942
-214.474
-236.806
-247.429
9.33123
1.44342
-4.769
-10.9928
-17.9732
-25.5623
-33.6597
-42.3464
-51.6779
-61.6801
-72.4341
-83.9963
-96.4251
-109.917
-124.499
-140.45
-157.891
-176.665
-197.912
-208.27
39.2691
31.5884
24.25
17.5939
10.7121
3.23998
-4.62013
-12.8854
-21.6785
-31.0664
-41.0877
-51.8745
-63.4393
-76.0355
-89.5165
-104.289
-120.317
-137.448
-157.79
-168.537
57.4591
56.9835
55.7435
53.6552
51.0466
46.8037
43.3854
37.4876
32.1399
24.1896
15.9289
5.08139
-7.65375
-22.7821
-42.7508
-64.8775
-97.1411
-132.267
-185.575
-245.347
57.7058
57.2193
56.1366
53.903
51.5375
47.3008
44.0579
38.2355
33.0265
25.1891
17.1032
6.41466
-6.06119
-20.9101
-40.4955
-62.0693
-93.7865
-127.752
-180.496
-238.386
57.9983
57.5327
56.5476
54.1882
52.0686
47.8284
44.7448
39.0063
33.9328
26.2131
18.3056
7.7788
-4.42409
-19.0199
-38.195
-59.266
-90.3531
-123.151
-174.979
-230.349
58.3103
57.8379
56.9531
54.5387
52.6346
48.4081
45.5035
39.8675
34.9343
27.3453
19.6292
9.26965
-2.62625
-16.9476
-35.6347
-56.1628
-86.4857
-118.125
-168.85
-222.004
58.6529
58.1691
57.5467
54.9605
53.2321
49.0297
46.2796
40.7548
35.9575
28.5013
20.9803
10.7914
-0.787842
-14.8567
-33.0398
-53.0567
-82.554
-112.929
-162.182
-212.594
59.0323
58.4787
58.1538
55.3957
53.8203
49.683
47.1289
41.7311
37.0745
29.7625
22.4479
12.4388
1.20583
-12.5853
-30.1902
-49.6499
-78.1999
-107.333
-155.006
-202.653
59.4564
58.8491
58.7729
55.826
54.506
50.3622
48.0167
42.7384
38.2148
31.0487
23.9418
14.117
3.23498
-10.2951
-27.3119
-46.2424
-73.7843
-101.536
-147.236
-191.696
59.8706
59.1964
59.3773
56.3591
55.4352
51.116
48.9816
43.8282
39.4446
32.4355
25.5463
15.9189
5.41169
-7.82835
-24.1902
-42.542
-68.9595
-95.3609
-139.013
-180.289
60.3428
59.579
60.0104
57.0054
56.4017
51.9448
49.974
44.9462
40.6972
33.8485
27.1753
17.7515
7.61809
-5.34188
-21.0437
-38.8379
-64.0754
-88.9727
-130.204
-167.892
60.8284
59.9811
60.5961
57.6857
57.3721
52.8182
51.021
46.1503
42.031
35.3567
28.9083
19.704
9.96215
-2.68571
-17.6715
-34.8582
-58.8061
-82.2272
-120.993
-154.931
61.3492
60.3948
61.2208
58.3633
58.3783
53.7373
52.083
47.3881
43.4
36.8928
30.6643
21.6871
12.3301
-0.00824983
-14.2769
-30.868
-53.4754
-75.2774
-111.257
-140.993
61.9109
60.8402
61.8989
59.0574
59.3914
54.8551
53.2061
48.6936
44.8436
38.51
32.5156
23.783
14.8228
2.82792
-10.6816
-26.6274
-47.7926
-68.008
-101.133
-126.387
62.4991
61.3007
62.6019
59.7682
60.3543
55.9387
54.3874
50.0499
46.3069
40.1589
34.3907
25.9116
17.3378
5.69161
-7.05859
-22.3569
-42.0311
-60.5477
-90.5525
-110.836
63.1195
61.7625
63.3419
60.5536
61.3717
57.088
55.6293
51.4579
47.8403
41.8822
36.3541
28.146
19.9646
8.70158
-3.26553
-17.8718
-35.9797
-52.8698
-79.6458
-94.5828
63.7635
62.227
64.1
61.3633
62.4109
58.3089
56.9233
52.8696
49.3906
43.6286
38.3319
30.3987
22.5914
11.7152
0.52238
-13.3808
-29.8902
-45.0511
-68.2563
-77.2026
64.4431
62.6792
64.851
62.2064
63.4888
59.5335
58.2522
54.3448
51.0022
45.4387
40.3866
32.7464
25.3185
14.8726
4.47983
-8.6484
-23.4673
-36.9408
-56.3106
-58.9999
65.1629
63.1128
65.6331
63.1266
64.5943
60.8061
59.643
55.8619
52.6726
47.322
42.5231
35.1998
28.1632
18.1839
8.61734
-3.68317
-16.8087
-28.6201
-44.0913
-40.3638
66.0317
63.6622
66.6072
64.0921
65.6748
62.0268
61.0411
57.4092
54.3753
49.2269
44.686
37.6605
30.9702
21.4293
12.5962
1.03042
-10.6231
-21.0436
-32.415
-21.3567
66.724
64.0885
67.2104
65.0055
66.7282
63.1571
62.2795
58.7863
55.8588
50.8884
46.5407
39.7287
33.2329
24.0336
15.8189
4.98633
-5.25823
-13.6776
-18.6347
3.3097
67.6609
64.1089
67.3518
66.2516
68.044
64.633
63.8857
60.5184
57.7479
53.0524
48.9798
42.6122
36.6194
28.1803
21.1304
11.6844
3.9937
-1.75648
0.422819
28.8849
81.7208
75.717
78.9242
76.729
78.4213
76.1701
76.6153
74.2528
73.8388
71.533
70.6744
68.6699
68.9162
67.6686
70.2193
69.5708
77.1018
80.1014
93.7259
84.1538
87.0174
85.5714
87.0788
86.4747
87.5617
87.1775
87.5178
87.5222
87.8141
88.2688
89.5446
90.9422
93.7297
96.4633
101.978
107.17
118.474
126.829
150.819
161.352
106.782
106.843
106.329
107.136
107.288
107.952
108.975
109.802
111.636
113.234
115.781
118.311
122.1
126.346
132.589
139.589
149.623
160.31
175.001
188.996
114.122
114.396
114.857
115.686
116.858
118.311
120.101
122.33
124.823
127.622
131.132
134.992
139.967
145.25
152.09
159.025
168.444
177.307
190.892
201.909
126.533
126.736
127.621
129.219
130.883
132.64
134.745
136.85
139.495
142.334
145.743
149.454
153.814
158.698
164.239
170.537
177.482
185.206
193.502
202.034
134.155
134.591
135.713
137.49
139.303
141.629
143.991
146.699
149.657
152.777
156.391
160.157
164.585
169.061
174.392
179.65
185.86
191.872
199.253
205.953
143.039
143.813
145.298
147.435
149.857
152.016
154.65
157.024
159.892
162.668
165.892
169.172
172.83
176.667
180.821
185.193
189.824
194.652
199.176
203.893
149.372
150.119
152.343
154.585
157.278
159.591
162.263
164.695
167.512
170.171
173.242
176.197
179.595
182.845
186.588
190.07
194.173
198.172
202.679
206.384
158.342
159.052
161.884
163.759
166.67
168.599
171.184
173.176
175.711
177.919
180.519
182.976
185.712
188.429
191.357
194.32
197.392
200.085
202.985
205.848
166.349
166.577
170.276
171.697
174.497
176.134
178.375
180.117
182.238
184.103
186.281
188.322
190.637
192.857
195.307
197.654
200.271
202.832
205.615
207.738
179.759
177.914
181.991
182.101
184.285
185.193
186.799
187.932
189.495
190.835
192.491
194.018
195.816
197.517
199.479
201.331
203.36
205.094
207.091
208.789
195.159
193.512
192.629
192.719
193.029
193.415
193.951
194.626
195.45
196.355
197.427
198.534
199.841
201.111
202.613
204.007
205.633
207.133
208.877
210.433
206.396
205.978
202.792
202.766
201.461
201.379
201.063
201.187
201.44
201.822
202.474
203.109
204.03
204.902
206.005
207.046
208.278
209.407
210.741
211.872
215.335
213.873
211.2
208.964
207.997
206.73
206.358
205.776
205.85
205.778
206.171
206.471
207.094
207.661
208.483
209.247
210.222
211.101
212.192
213.14
221.41
217.575
216.184
213.968
212.74
211.389
210.738
210.021
209.759
209.492
209.594
209.682
210.053
210.409
210.974
211.529
212.25
212.938
213.788
214.545
226.745
217.786
216.877
215.09
214.399
213.233
212.761
212.072
211.923
211.583
211.64
211.625
211.893
212.134
212.582
213.012
213.614
214.178
214.893
215.55
222.239
219.55
218.399
217.004
216.313
215.392
214.838
214.238
213.957
213.7
213.612
213.572
213.687
213.841
214.144
214.48
214.94
215.404
215.981
216.546
225.097
217.882
217.728
216.873
216.421
215.746
215.479
214.974
214.844
214.551
214.571
214.528
214.681
214.811
215.068
215.345
215.724
216.143
216.644
217.163
218.829
217.936
217.765
217.147
216.914
216.373
216.108
215.753
215.551
215.376
215.276
215.26
215.349
215.492
215.722
215.991
216.336
216.721
217.176
217.66
223.184
217.807
217.611
217.104
216.832
216.466
216.243
215.965
215.837
215.683
215.68
215.611
215.714
215.811
216.017
216.266
216.591
216.961
217.392
217.862
125.022
141.565
157.542
173.927
189.002
204.132
217.858
231.425
243.756
255.645
266.467
277.032
286.598
295.358
303.395
310.726
317.228
323.069
328.256
332.677
192.653
203.685
213.517
222.442
230.246
236.75
242.818
248.708
254.542
260.111
265.161
271.245
277.004
281.071
285.577
289.477
293.199
296.58
299.645
302.44
203.451
207.577
211.898
215.669
219.616
223.193
226.805
230.65
234.924