/*--------------------------------*- C++ -*----------------------------------*\
  =========                 |
  \\      /  F ield         | OpenFOAM: The Open Source CFD Toolbox
   \\    /   O peration     | Website:  https://openfoam.org
    \\  /    A nd           | Version:  9
     \\/     M anipulation  |
\*---------------------------------------------------------------------------*/
FoamFile
{
    format      ascii;
    class       surfaceScalarField;
    location    "14";
    object      phi;
}
// * * * * * * * * * * * * * * * * * * * * * * * * * * * * * * * * * * * * * //

dimensions      [0 3 -1 0 0 0 0];

internalField   nonuniform List<scalar> 
92080
(
-0.00211867
-0.414845
0.416963
-0.0250736
-0.827827
0.850781
-0.0639132
-0.896994
0.935834
-0.10417
-0.881496
0.921753
-0.143681
-0.867607
0.907118
-0.182596
-0.854365
0.89328
-0.220712
-0.841845
0.879961
-0.258662
-0.82877
0.866719
-0.296531
-0.818375
0.856244
-0.334266
-0.808515
0.84625
-0.371474
-0.800145
0.837353
-0.408305
-0.791953
0.828784
-0.444103
-0.784127
0.819925
-0.479516
-0.776004
0.811417
-0.514559
-0.768912
0.803956
-0.549643
-0.761699
0.796783
-0.585003
-0.755346
0.790707
-0.618982
-0.748935
0.782914
-0.651056
-0.743063
0.775138
-0.737615
0.767068
-0.680509
-0.0038936
-0.410951
-0.0313808
-0.800339
-0.073922
-0.854453
-0.115809
-0.839609
-0.156833
-0.826583
-0.197448
-0.813749
-0.237414
-0.801879
-0.276965
-0.789219
-0.316594
-0.778745
-0.356159
-0.76895
-0.395608
-0.760696
-0.434619
-0.752942
-0.473297
-0.745448
-0.511187
-0.738114
-0.549022
-0.731077
-0.585899
-0.724822
-0.622368
-0.718877
-0.659639
-0.711664
-0.696122
-0.706581
-0.702878
-0.730859
-0.00669939
-0.404252
-0.0384636
-0.768575
-0.0812479
-0.811669
-0.124571
-0.796286
-0.166948
-0.784205
-0.208417
-0.77228
-0.24938
-0.760916
-0.290035
-0.748564
-0.330509
-0.738271
-0.370698
-0.728762
-0.410753
-0.72064
-0.450595
-0.713101
-0.4901
-0.705943
-0.528851
-0.699363
-0.56692
-0.693009
-0.605429
-0.686313
-0.641783
-0.682523
-0.676635
-0.676812
-0.712963
-0.670252
-0.665078
-0.750763
-0.00745122
-0.396801
-0.0451021
-0.730924
-0.090702
-0.766069
-0.135762
-0.751226
-0.18062
-0.739347
-0.224766
-0.728135
-0.267557
-0.718125
-0.309806
-0.706315
-0.352151
-0.695926
-0.39434
-0.686573
-0.435821
-0.67916
-0.476848
-0.672074
-0.517836
-0.664955
-0.558872
-0.658327
-0.598815
-0.653066
-0.63934
-0.645789
-0.681399
-0.640464
-0.720982
-0.637229
-0.758214
-0.633021
-0.628074
-0.795218
-0.00583812
-0.390962
-0.0455933
-0.691169
-0.0924289
-0.719234
-0.139301
-0.704354
-0.185237
-0.693412
-0.230509
-0.682863
-0.274907
-0.673727
-0.318009
-0.663213
-0.360856
-0.65308
-0.404057
-0.643371
-0.447324
-0.635893
-0.489467
-0.62993
-0.530796
-0.623625
-0.571913
-0.61721
-0.612017
-0.612962
-0.650051
-0.607755
-0.689094
-0.601422
-0.730121
-0.596202
-0.770492
-0.59265
-0.588687
-0.809879
-0.00422948
-0.386733
-0.0471424
-0.648256
-0.0980672
-0.668309
-0.14812
-0.654301
-0.198162
-0.64337
-0.247189
-0.633836
-0.294456
-0.626459
-0.340294
-0.617375
-0.384968
-0.608405
-0.429529
-0.59881
-0.474633
-0.59079
-0.51964
-0.584922
-0.563793
-0.579472
-0.608406
-0.572597
-0.65326
-0.568108
-0.696507
-0.564509
-0.736889
-0.561039
-0.776607
-0.556484
-0.816679
-0.552578
-0.549456
-0.85591
-0.00101634
-0.385717
-0.0456854
-0.603587
-0.0993671
-0.614627
-0.150429
-0.603238
-0.200091
-0.593709
-0.250044
-0.583883
-0.29924
-0.577263
-0.346273
-0.570342
-0.391627
-0.563051
-0.435878
-0.55456
-0.480772
-0.545896
-0.525893
-0.539801
-0.569327
-0.536039
-0.611527
-0.530397
-0.654809
-0.524825
-0.69916
-0.520158
-0.743684
-0.516515
-0.786676
-0.513492
-0.829388
-0.509866
-0.50711
-0.871734
-0.00277481
-0.382942
-0.0514092
-0.554953
-0.10654
-0.559496
-0.160606
-0.549172
-0.213893
-0.540422
-0.26578
-0.531995
-0.31777
-0.525274
-0.368719
-0.519393
-0.417494
-0.514276
-0.463579
-0.508475
-0.508653
-0.500822
-0.555723
-0.492731
-0.60378
-0.487982
-0.650033
-0.484144
-0.694611
-0.480247
-0.738635
-0.476134
-0.783025
-0.472124
-0.827303
-0.469215
-0.870796
-0.466373
-0.464012
-0.913894
-0.00798151
-0.37496
-0.058016
-0.504918
-0.11356
-0.503953
-0.165445
-0.497287
-0.216453
-0.489414
-0.267399
-0.48105
-0.31797
-0.474702
-0.36865
-0.468712
-0.419165
-0.463761
-0.46759
-0.46005
-0.512533
-0.455879
-0.555306
-0.449958
-0.59923
-0.444059
-0.644459
-0.438915
-0.689668
-0.435038
-0.734094
-0.431708
-0.778339
-0.42788
-0.822738
-0.424816
-0.86725
-0.421861
-0.419723
-0.911538
-0.0190529
-0.355907
-0.0722298
-0.451741
-0.127943
-0.448239
-0.183625
-0.441605
-0.236659
-0.436381
-0.288194
-0.429514
-0.339809
-0.423088
-0.390542
-0.417979
-0.442229
-0.412074
-0.494419
-0.407859
-0.545923
-0.404376
-0.595141
-0.400739
-0.641489
-0.397711
-0.686625
-0.393779
-0.731775
-0.389887
-0.77641
-0.387074
-0.820251
-0.384038
-0.863668
-0.381399
-0.906943
-0.378586
-0.376528
-0.950138
-0.0254572
-0.33045
-0.0790728
-0.398126
-0.134988
-0.392324
-0.18763
-0.388962
-0.240711
-0.3833
-0.291439
-0.378786
-0.341927
-0.3726
-0.391202
-0.368704
-0.439276
-0.364
-0.488001
-0.359134
-0.536516
-0.355861
-0.585955
-0.3513
-0.63552
-0.348146
-0.684098
-0.345201
-0.731931
-0.342054
-0.779699
-0.339306
-0.826981
-0.336756
-0.873702
-0.334678
-0.919811
-0.332477
-0.330726
-0.965614
-0.0358842
-0.294566
-0.0927525
-0.341257
-0.151982
-0.333095
-0.210375
-0.330569
-0.266603
-0.327072
-0.321699
-0.323689
-0.375581
-0.318719
-0.42937
-0.314915
-0.480518
-0.312852
-0.530738
-0.308913
-0.579877
-0.306723
-0.627004
-0.304173
-0.673757
-0.301393
-0.719869
-0.299089
-0.76556
-0.296364
-0.810554
-0.294311
-0.85568
-0.29163
-0.900489
-0.28987
-0.945289
-0.287676
-0.286288
-0.989727
-0.0392157
-0.25535
-0.0908764
-0.289597
-0.14406
-0.279911
-0.198295
-0.276334
-0.250944
-0.274423
-0.301865
-0.272769
-0.351972
-0.268611
-0.403967
-0.262921
-0.456742
-0.260077
-0.508969
-0.256686
-0.562216
-0.253476
-0.614829
-0.25156
-0.666742
-0.249479
-0.717581
-0.248251
-0.767665
-0.246279
-0.816794
-0.245183
-0.864926
-0.243499
-0.912541
-0.242255
-0.959446
-0.240771
-0.239542
-1.00619
-0.0521773
-0.203173
-0.11102
-0.230754
-0.167959
-0.222972
-0.223949
-0.220345
-0.282612
-0.21576
-0.339458
-0.215923
-0.39225
-0.215819
-0.442793
-0.212377
-0.493075
-0.209795
-0.541966
-0.207795
-0.590729
-0.204713
-0.639591
-0.202698
-0.68877
-0.2003
-0.737765
-0.199256
-0.78652
-0.197524
-0.835077
-0.196626
-0.883197
-0.195379
-0.930895
-0.194557
-0.97815
-0.193516
-0.192773
-1.02492
-0.0611312
-0.142042
-0.118143
-0.173742
-0.170651
-0.170463
-0.222368
-0.168629
-0.275796
-0.162332
-0.333244
-0.158475
-0.389852
-0.15921
-0.444708
-0.157521
-0.49822
-0.156283
-0.550675
-0.155341
-0.601316
-0.154072
-0.651301
-0.152712
-0.700288
-0.151313
-0.749289
-0.150255
-0.797621
-0.149192
-0.845909
-0.148338
-0.893727
-0.147561
-0.941325
-0.146959
-0.988512
-0.146329
-0.145835
-1.03545
-0.0539108
-0.0881311
-0.113549
-0.114104
-0.173014
-0.110998
-0.229279
-0.112364
-0.279691
-0.11192
-0.331779
-0.106387
-0.386044
-0.104945
-0.439912
-0.103653
-0.494234
-0.101961
-0.548179
-0.101396
-0.601648
-0.100603
-0.654339
-0.100021
-0.706204
-0.0994487
-0.757364
-0.0990942
-0.807657
-0.0988997
-0.857395
-0.0985999
-0.90649
-0.0984649
-0.95513
-0.098319
-1.00322
-0.0982353
-0.0981741
-1.05089
-0.0406797
-0.0474514
-0.0990838
-0.0557
-0.160414
-0.0496684
-0.225505
-0.0472725
-0.286871
-0.0505538
-0.342674
-0.0505844
-0.397435
-0.0501839
-0.450566
-0.050522
-0.503376
-0.0491509
-0.555767
-0.0490057
-0.607888
-0.0484815
-0.659415
-0.0484938
-0.710721
-0.0481424
-0.761367
-0.0484485
-0.811748
-0.0485189
-0.86136
-0.0489871
-0.910595
-0.0492307
-0.959214
-0.0496999
-1.00733
-0.0501144
-0.0504916
-1.05502
-0.060516
0.0130646
-0.12536
0.00914357
-0.182368
0.00733962
-0.238807
0.0091671
-0.298041
0.00867974
-0.354486
0.00586081
-0.410221
0.00555158
-0.465222
0.00447875
-0.517931
0.00355802
-0.570673
0.00373593
-0.622189
0.00303437
-0.673325
0.00264257
-0.7236
0.00213291
-0.773612
0.00156338
-0.823179
0.00104748
-0.872397
0.000231698
-0.921213
-0.000414871
-0.969555
-0.00135824
-1.01751
-0.00216172
-0.00315692
-1.06484
-0.056826
0.0698906
-0.12099
0.073308
-0.176999
0.063348
-0.22947
0.0616387
-0.284803
0.0640128
-0.342078
0.0631351
-0.398779
0.0622528
-0.454516
0.0602154
-0.509971
0.0590134
-0.563693
0.0574579
-0.61703
0.0563716
-0.669275
0.0548872
-0.721026
0.0538845
-0.772254
0.0527908
-0.822832
0.0516258
-0.873158
0.0505579
-0.922751
0.0491782
-0.972196
0.0480862
-1.02099
0.0466289
0.0455224
-1.06967
-0.047719
0.11761
-0.103233
0.128822
-0.164279
0.124394
-0.224632
0.121991
-0.284387
0.123768
-0.341478
0.120226
-0.398061
0.118836
-0.454494
0.116648
-0.510582
0.115102
-0.56542
0.112296
-0.619695
0.110647
-0.673381
0.108573
-0.726254
0.106758
-0.778166
0.104703
-0.829194
0.102654
-0.879442
0.100805
-0.92895
0.0986866
-0.977903
0.0970388
-1.02628
0.0950087
-1.07428
0.0935176
-0.00482918
0.106825
-0.101996
0.0348604
0.0620401
-0.10173
0.143333
-0.0921457
-0.0163268
0.37222
-0.445079
0.216191
0.583371
-0.801611
0.59046
0.710193
-1.01014
0.883315
0.765148
-1.09356
1.03861
0.788224
-1.12014
1.09707
0.797982
-1.12648
1.11672
0.801127
-1.12513
1.12199
0.803215
-1.12269
1.1206
0.805701
-1.12069
1.1182
0.807297
-1.11873
1.11714
0.809259
-1.11725
1.11529
0.811976
-1.11777
1.11505
0.81392
-1.11613
1.11419
0.815272
-1.11505
1.1137
0.81731
-1.11575
1.11371
0.820172
-1.11956
1.1167
-1.1205
0.821073
1.1196
0.0132219
0.0936034
0.0745069
0.000755096
0.231334
-0.248973
0.447804
-0.661548
0.594468
-0.948275
0.663897
-1.07957
0.690656
-1.12032
0.700717
-1.1302
0.704028
-1.12979
0.705889
-1.12699
0.707567
-1.12437
0.708827
-1.12195
0.710333
-1.12024
0.712091
-1.11901
0.712678
-1.11835
0.712397
-1.11585
0.713024
-1.11568
0.714735
-1.11746
0.715771
-1.1206
-1.11914
0.714418
0.033258
0.0603455
0.113081
-0.0790684
0.300094
-0.435985
0.469907
-0.831361
0.563069
-1.04144
0.597498
-1.114
0.609591
-1.13241
0.613433
-1.13404
0.615348
-1.1317
0.616163
-1.12781
0.616791
-1.12499
0.617101
-1.12226
0.616878
-1.12001
0.616247
-1.11838
0.615514
-1.11762
0.614809
-1.11515
0.614501
-1.11537
0.614369
-1.11733
0.61262
-1.11885
-1.11501
0.608488
0.049872
0.0104734
0.148055
-0.177251
0.327691
-0.615621
0.44844
-0.95211
0.500564
-1.09356
0.518672
-1.1321
0.524236
-1.13798
0.526242
-1.13605
0.525866
-1.13133
0.52558
-1.12752
0.524769
-1.12418
0.523536
-1.12103
0.522337
-1.11882
0.521406
-1.11744
0.519883
-1.1161
0.517879
-1.11314
0.516154
-1.11364
0.513691
-1.11486
0.509855
-1.11501
-1.10815
0.502991
0.0431773
-0.0327039
0.166131
-0.300205
0.315224
-0.764714
0.398324
-1.03521
0.429083
-1.12432
0.438671
-1.14169
0.441898
-1.14121
0.441709
-1.13586
0.44153
-1.13115
0.440722
-1.12671
0.439416
-1.12288
0.437776
-1.11939
0.435739
-1.11678
0.432995
-1.1147
0.429229
-1.11233
0.425192
-1.10911
0.420919
-1.10937
0.41583
-1.10978
0.40898
-1.10816
-1.0987
0.399529
0.0412575
-0.0739614
0.168568
-0.427516
0.280827
-0.876973
0.335491
-1.08987
0.353248
-1.14208
0.358793
-1.14724
0.360491
-1.1429
0.360362
-1.13573
0.35976
-1.13054
0.358078
-1.12503
0.355465
-1.12027
0.352057
-1.11598
0.347982
-1.1127
0.34355
-1.11027
0.338781
-1.10756
0.333682
-1.10401
0.327925
-1.10361
0.321037
-1.10289
0.312152
-1.09928
-1.08824
0.301696
0.0426874
-0.116649
0.155595
-0.540423
0.241766
-0.963144
0.27766
-1.12577
0.288041
-1.15246
0.291571
-1.15077
0.290891
-1.14222
0.289394
-1.13423
0.286773
-1.12792
0.283156
-1.12142
0.278849
-1.11596
0.274077
-1.11121
0.268989
-1.10761
0.263382
-1.10466
0.256678
-1.10086
0.2492
-1.09653
0.241091
-1.09551
0.231788
-1.09359
0.220798
-1.08829
-1.07698
0.209534
0.0427299
-0.159379
0.139069
-0.636763
0.202327
-1.0264
0.222247
-1.14569
0.225991
-1.1562
0.22507
-1.14985
0.222252
-1.13941
0.219087
-1.13107
0.215008
-1.12384
0.21001
-1.11642
0.204212
-1.11016
0.197738
-1.10473
0.190436
-1.10031
0.182293
-1.09652
0.173678
-1.09224
0.164705
-1.08756
0.154713
-1.08551
0.143957
-1.08283
0.13221
-1.07654
-1.06531
0.120542
0.0473664
-0.206745
0.1227
-0.712096
0.166418
-1.07012
0.175957
-1.15523
0.175751
-1.156
0.171787
-1.14588
0.167127
-1.13475
0.161406
-1.12535
0.154556
-1.11699
0.146796
-1.10866
0.138304
-1.10167
0.129055
-1.09548
0.119586
-1.09084
0.109991
-1.08692
0.0994362
-1.08169
0.0880469
-1.07617
0.0761594
-1.07363
0.0634493
-1.07012
0.050117
-1.06321
-1.05197
0.0367731
0.0448084
-0.251554
0.103791
-0.771079
0.131479
-1.09781
0.132201
-1.15595
0.126622
-1.15042
0.118958
-1.13822
0.110879
-1.12667
0.102084
-1.11655
0.0928261
-1.10774
0.0829366
-1.09877
0.0725038
-1.09124
0.0617433
-1.08472
0.050117
-1.07922
0.0377034
-1.07451
0.0252014
-1.06919
0.0120377
-1.063
-0.00221985
-1.05937
-0.0166718
-1.05567
-0.0309824
-1.0489
-1.03756
-0.0453881
0.0395109
-0.291064
0.0853807
-0.816948
0.100996
-1.11342
0.0960096
-1.15096
0.0865423
-1.14095
0.0763881
-1.12806
0.0654291
-1.11571
0.0539119
-1.10504
0.0415191
-1.09534
0.0286341
-1.08588
0.0150366
-1.07764
0.000565678
-1.07025
-0.0138977
-1.06475
-0.0286078
-1.0598
-0.0440965
-1.0537
-0.0596687
-1.04743
-0.0756739
-1.04336
-0.0923552
-1.03899
-0.109256
-1.032
-1.02084
-0.125981
0.0331253
-0.32419
0.0695468
-0.85337
0.0732545
-1.11713
0.062234
-1.13994
0.0485011
-1.12722
0.0346387
-1.1142
0.0202931
-1.10136
0.00540697
-1.09015
-0.00966523
-1.08027
-0.025286
-1.07026
-0.0410607
-1.06186
-0.0570625
-1.05425
-0.0738312
-1.04799
-0.0907754
-1.04286
-0.107641
-1.03683
-0.125653
-1.02942
-0.144273
-1.02474
-0.162554
-1.0207
-0.180252
-1.0143
-1.00335
-0.197733
0.0247358
-0.348926
0.0476947
-0.876329
0.0453073
-1.11474
0.0310696
-1.12571
0.0147331
-1.11088
-0.00200078
-1.09747
-0.0192823
-1.08408
-0.0369267
-1.0725
-0.0550909
-1.06211
-0.0734571
-1.0519
-0.0925075
-1.04281
-0.112235
-1.03452
-0.131971
-1.02825
-0.152198
-1.02263
-0.17234
-1.01669
-0.191897
-1.00986
-0.212379
-1.00426
-0.233211
-0.999872
-0.253274
-0.994235
-0.983887
-0.272742
0.0222235
-0.371149
0.0379546
-0.89206
0.0265287
-1.10332
0.00775142
-1.10693
-0.0123648
-1.09076
-0.0326569
-1.07717
-0.0533188
-1.06342
-0.0744293
-1.05139
-0.0956063
-1.04093
-0.117153
-1.03035
-0.138539
-1.02143
-0.160352
-1.01271
-0.182822
-1.00578
-0.204981
-1.00047
-0.22747
-0.994203
-0.250575
-0.986756
-0.273668
-0.981169
-0.296934
-0.976605
-0.319446
-0.971723
-0.96206
-0.341273
0.0156223
-0.386771
0.0224318
-0.898869
0.00518171
-1.08607
-0.0177908
-1.08396
-0.040968
-1.06759
-0.0645543
-1.05359
-0.0882009
-1.03977
-0.112057
-1.02754
-0.136054
-1.01693
-0.160045
-1.00636
-0.184429
-0.997043
-0.20894
-0.988198
-0.233866
-0.980854
-0.259399
-0.974936
-0.283934
-0.969668
-0.30833
-0.962359
-0.333632
-0.955867
-0.358844
-0.951394
-0.382699
-0.947867
-0.939121
-0.405638
0.0132168
-0.399988
0.0149839
-0.900636
-0.00672261
-1.06436
-0.0330569
-1.05762
-0.0597012
-1.04094
-0.0863509
-1.02694
-0.113256
-1.01287
-0.140388
-1.00041
-0.167584
-0.989737
-0.194975
-0.978968
-0.222097
-0.969921
-0.249617
-0.960678
-0.277286
-0.953186
-0.304986
-0.947236
-0.333079
-0.941575
-0.360246
-0.935192
-0.387615
-0.928498
-0.416
-0.923009
-0.443661
-0.920207
-0.913149
-0.469632
0.00829144
-0.40828
0.00309874
-0.895444
-0.0242048
-1.03706
-0.0541681
-1.02766
-0.0839711
-1.01114
-0.11393
-0.99698
-0.143613
-0.983184
-0.173336
-0.970685
-0.202715
-0.960358
-0.232102
-0.94958
-0.261652
-0.940371
-0.291047
-0.931282
-0.32147
-0.922763
-0.352278
-0.916428
-0.382699
-0.911155
-0.413329
-0.904562
-0.44311
-0.898718
-0.473136
-0.892982
-0.503633
-0.88971
-0.884032
-0.532751
0.00594305
-0.414223
-0.00384076
-0.88566
-0.034424
-1.00647
-0.0669274
-0.995155
-0.0989582
-0.979108
-0.130934
-0.965004
-0.163162
-0.950956
-0.195757
-0.938089
-0.228345
-0.92777
-0.260667
-0.917259
-0.292969
-0.908069
-0.325196
-0.899056
-0.357241
-0.890718
-0.390355
-0.883314
-0.423454
-0.878056
-0.456106
-0.871909
-0.489402
-0.865422
-0.522378
-0.860006
-0.556069
-0.856019
-0.851037
-0.589064
0.00275341
-0.416976
-0.0121184
-0.870788
-0.0459518
-0.972641
-0.0818386
-0.959268
-0.117228
-0.943719
-0.152516
-0.929716
-0.187171
-0.9163
-0.222047
-0.903214
-0.256703
-0.893114
-0.291194
-0.882768
-0.325494
-0.873768
-0.359936
-0.864614
-0.394865
-0.855788
-0.430294
-0.847885
-0.466992
-0.841359
-0.503295
-0.835606
-0.539674
-0.829043
-0.577327
-0.822353
-0.61599
-0.817356
-0.812739
-0.654288
-1.26807e-05
-0.0200192
-0.0568261
-0.0943412
-0.130943
-0.167379
-0.203718
-0.240213
-0.277082
-0.313601
-0.350016
-0.385846
-0.421709
-0.458177
-0.49558
-0.534403
-0.57274
-0.612178
-0.654397
-0.700068
0.689293
-9.76982
9.9016
0.589553
-9.4185
9.51824
0.51502
-9.59431
9.66885
0.439424
-9.45521
9.53081
0.374457
-9.5006
9.56557
0.316943
-9.39325
9.45076
0.270826
-9.37711
9.42323
0.229953
-9.31447
9.35534
0.194395
-9.25303
9.28859
0.162547
-9.20046
9.2323
0.135676
-9.16395
9.19082
0.111644
-9.11722
9.14126
0.091765
-9.10173
9.12161
0.0743342
-9.04702
9.06445
0.0593106
-9.04431
9.05933
0.0444255
-8.95893
8.97381
0.0366538
-8.7277
8.73547
0.0249411
-7.76366
7.77538
0.0100214
-5.50081
5.51573
-2.25007
2.26009
0.58931
-9.64471
0.496889
-9.32608
0.421943
-9.51937
0.352359
-9.38563
0.297861
-9.4461
0.247011
-9.3424
0.20562
-9.33572
0.169193
-9.27804
0.138405
-9.22224
0.111626
-9.17368
0.0899695
-9.14229
0.071041
-9.09829
0.0560713
-9.08677
0.043419
-9.03436
0.0337308
-9.03462
0.0244607
-8.94965
0.0223698
-8.72561
0.0171775
-7.75847
0.00786579
-5.4915
-2.2422
0.490622
-9.52684
0.40252
-9.23798
0.333853
-9.4507
0.270067
-9.32184
0.218099
-9.39414
0.171919
-9.29622
0.137255
-9.30106
0.106958
-9.24774
0.0821095
-9.1974
0.060644
-9.15221
0.044162
-9.12581
0.0303348
-9.08447
0.0203543
-9.07678
0.0124535
-9.02646
0.00807858
-9.03025
0.00459641
-8.94617
0.00854374
-8.72956
0.0104614
-7.76039
0.00673617
-5.48777
-2.23546
0.393785
-9.41764
0.315026
-9.15922
0.24857
-9.38425
0.188721
-9.26199
0.143919
-9.34933
0.103071
-9.25537
0.0731265
-9.27111
0.047363
-9.22198
0.0272735
-9.17731
0.0105871
-9.13553
-0.000901748
-9.11432
-0.00993099
-9.07544
-0.0150092
-9.07171
-0.0176556
-9.02382
-0.017061
-9.03084
-0.0152818
-8.94795
-0.00549634
-8.73935
0.0029098
-7.7688
0.00482304
-5.48969
-2.23064
0.302115
-9.32022
0.223251
-9.08035
0.158816
-9.31981
0.104582
-9.20776
0.0640342
-9.30879
0.0289473
-9.22028
0.00545804
-9.24762
-0.0144712
-9.20205
-0.0288224
-9.16295
-0.0402998
-9.12405
-0.0467562
-9.10787
-0.0506259
-9.07157
-0.0508201
-9.07151
-0.0480598
-9.02658
-0.0420932
-9.03681
-0.0349649
-8.95508
-0.0192055
-8.7551
-0.00389891
-7.7841
0.00367727
-5.49726
-2.22696
0.207612
-9.22614
0.135475
-9.00822
0.0753311
-9.25967
0.026908
-9.15933
-0.00753983
-9.27434
-0.0378486
-9.18998
-0.0569914
-9.22848
-0.0725698
-9.18647
-0.0822279
-9.1533
-0.0892334
-9.11704
-0.0910811
-9.10602
-0.090298
-9.07235
-0.0858544
-9.07596
-0.0782217
-9.03421
-0.0670856
-9.04794
-0.0544678
-8.9677
-0.0330429
-8.77653
-0.0115473
-7.8056
0.00168856
-5.5105
-2.22527
0.118138
-9.13474
0.0499788
-8.94006
-0.00758398
-9.2021
-0.0540035
-9.11292
-0.085885
-9.24246
-0.110762
-9.1651
-0.123843
-9.2154
-0.13375
-9.17657
-0.137752
-9.14929
-0.139658
-9.11514
-0.13654
-9.10914
-0.130661
-9.07823
-0.121204
-9.08541
-0.108529
-9.04688
-0.0921116
-9.06436
-0.0739112
-8.9859
-0.0467196
-8.80372
-0.0188132
-7.8335
0.000273827
-5.52959
-2.225
0.0291757
-9.04338
-0.0381253
-8.87276
-0.0917251
-9.1485
-0.131356
-9.07328
-0.155352
-9.21846
-0.175262
-9.14519
-0.184308
-9.20635
-0.190061
-9.17081
-0.189488
-9.14987
-0.18722
-9.1174
-0.179822
-9.11653
-0.169415
-9.08864
-0.155302
-9.09953
-0.137676
-9.06451
-0.116461
-9.08558
-0.0931504
-9.00921
-0.0602341
-8.83664
-0.0262199
-7.86752
-0.00154104
-5.55426
-2.22654
-0.0561834
-8.95042
-0.116953
-8.81199
-0.166152
-9.0993
-0.208322
-9.03111
-0.23134
-9.19544
-0.246323
-9.13021
-0.250072
-9.2026
-0.250277
-9.17061
-0.24408
-9.15606
-0.236793
-9.12469
-0.224582
-9.12875
-0.209083
-9.10414
-0.189944
-9.11866
-0.167072
-9.08738
-0.140738
-9.11191
-0.112267
-9.03768
-0.0737443
-8.87516
-0.0337183
-7.90755
-0.00342661
-5.58456
-2.22997
-0.136942
-8.85887
-0.201994
-8.74694
-0.24671
-9.05459
-0.281752
-8.99607
-0.298295
-9.1789
-0.308232
-9.12027
-0.308258
-9.20258
-0.304632
-9.17423
-0.29401
-9.16669
-0.282767
-9.13593
-0.266562
-9.14495
-0.246653
-9.12405
-0.223102
-9.14222
-0.195728
-9.11476
-0.164679
-9.14296
-0.131154
-9.0712
-0.0870968
-8.91922
-0.0410902
-7.95355
-0.00528893
-5.62036
-2.23526
-0.218797
-8.76605
-0.278265
-8.68747
-0.32111
-9.01174
-0.357907
-8.95927
-0.372415
-9.16439
-0.377362
-9.11532
-0.372441
-9.2075
-0.363518
-9.18316
-0.347348
-9.18286
-0.331128
-9.15215
-0.310211
-9.16587
-0.285305
-9.14895
-0.256828
-9.17069
-0.224461
-9.14712
-0.188545
-9.17888
-0.150002
-9.10975
-0.100563
-8.96866
-0.0486177
-8.0055
-0.00696544
-5.66201
-2.24222
-0.294656
-8.66913
-0.354845
-8.62728
-0.391659
-8.97493
-0.424305
-8.92663
-0.435603
-9.15309
-0.436415
-9.11451
-0.428107
-9.21581
-0.415724
-9.19554
-0.395374
-9.20321
-0.375295
-9.17223
-0.35052
-9.19064
-0.321361
-9.17811
-0.288581
-9.20347
-0.251936
-9.18377
-0.211779
-9.21903
-0.168578
-9.15295
-0.113632
-9.0236
-0.0558975
-8.06323
-0.00854571
-5.70936
-2.25077
-0.370575
-8.5713
-0.430896
-8.56696
-0.466535
-8.93929
-0.498825
-8.89434
-0.507235
-9.14468
-0.503019
-9.11872
-0.490123
-9.2287
-0.472804
-9.21286
-0.447114
-9.2289
-0.422076
-9.19727
-0.392563
-9.22016
-0.358519
-9.21216
-0.321023
-9.24097
-0.279713
-9.22508
-0.235019
-9.26373
-0.187057
-9.20091
-0.126738
-9.08392
-0.0632496
-8.12672
-0.00992534
-5.76269
-2.26069
-0.442722
-8.46985
-0.501745
-8.50793
-0.530914
-8.91012
-0.560045
-8.86521
-0.566637
-9.13809
-0.558993
-9.12637
-0.543042
-9.24465
-0.522617
-9.23328
-0.493049
-9.25847
-0.464171
-9.22615
-0.430806
-9.25352
-0.392665
-9.2503
-0.35123
-9.2824
-0.306119
-9.27019
-0.257557
-9.31229
-0.205141
-9.25333
-0.139471
-9.14959
-0.0705447
-8.19565
-0.0114078
-5.82182
-2.2721
-0.513145
-8.36234
-0.57495
-8.44613
-0.602841
-8.88223
-0.629807
-8.83824
-0.633804
-9.1341
-0.622448
-9.13772
-0.602224
-9.26488
-0.577345
-9.25816
-0.54277
-9.29304
-0.508962
-9.25995
-0.47082
-9.29166
-0.427862
-9.29325
-0.381797
-9.32847
-0.332277
-9.31971
-0.279677
-9.36489
-0.222799
-9.31021
-0.152003
-9.22039
-0.0775715
-8.27008
-0.0126512
-5.88674
-2.28475
-0.581438
-8.25053
-0.645033
-8.38253
-0.665366
-8.8619
-0.687735
-8.81587
-0.689147
-9.13268
-0.675142
-9.15173
-0.652108
-9.28791
-0.624435
-9.28584
-0.586339
-9.33114
-0.548683
-9.29761
-0.506725
-9.33362
-0.459871
-9.34011
-0.409951
-9.37839
-0.356938
-9.37272
-0.300843
-9.42098
-0.239967
-9.37108
-0.164428
-9.29593
-0.0847129
-8.34979
-0.0139388
-5.95752
-2.29869
-0.645168
-8.13812
-0.712249
-8.31545
-0.73284
-8.84131
-0.751047
-8.79766
-0.750634
-9.1331
-0.734511
-9.16785
-0.707716
-9.31471
-0.676064
-9.31749
-0.633487
-9.37371
-0.590944
-9.34015
-0.54428
-9.38029
-0.492929
-9.39146
-0.438672
-9.43265
-0.38162
-9.42977
-0.32211
-9.48049
-0.257126
-9.43607
-0.176395
-9.37666
-0.0912664
-8.43492
-0.0150328
-6.03375
-2.31372
-0.712735
-8.01445
-0.782452
-8.24574
-0.795578
-8.82818
-0.807154
-8.78609
-0.801881
-9.13837
-0.78362
-9.18611
-0.754319
-9.34401
-0.720124
-9.35168
-0.674373
-9.41946
-0.628077
-9.38645
-0.577649
-9.43071
-0.522737
-9.44637
-0.464872
-9.49051
-0.404456
-9.49019
-0.341764
-9.54318
-0.273038
-9.50479
-0.188333
-9.46136
-0.0977233
-8.52553
-0.0163777
-6.1151
-2.3301
-0.761867
-7.90687
-0.838832
-8.16877
-0.856284
-8.81073
-0.867894
-8.77448
-0.859669
-9.14659
-0.839757
-9.20603
-0.806721
-9.37705
-0.768947
-9.38946
-0.719122
-9.46929
-0.6682
-9.43737
-0.612995
-9.48592
-0.553853
-9.50551
-0.491918
-9.55245
-0.427541
-9.55457
-0.360716
-9.61001
-0.288348
-9.57716
-0.199519
-9.55019
-0.104283
-8.62077
-0.017968
-6.20141
-2.34807
-0.817368
-7.78957
-0.898788
-8.08735
-0.910578
-8.79894
-0.914537
-8.77052
-0.904316
-9.15681
-0.882202
-9.22814
-0.84802
-9.41123
-0.808062
-9.42942
-0.756347
-9.52101
-0.701471
-9.49225
-0.643089
-9.5443
-0.580671
-9.56793
-0.516032
-9.61709
-0.44852
-9.62208
-0.380261
-9.67827
-0.304654
-9.65277
-0.211088
-9.64376
-0.111095
-8.72076
-0.0190398
-6.29347
-2.36711
6.52654
-7.43149
-6.88461
6.06709
-7.62791
5.40374
-8.13559
4.90829
-8.27507
4.33651
-8.58503
3.81665
-8.70828
3.30708
-8.90166
2.86031
-8.98265
2.42775
-9.08844
2.08493
-9.14943
1.77991
-9.23928
1.50709
-9.29512
1.24672
-9.35671
1.01606
-9.39142
0.778951
-9.44116
0.576411
-9.45023
0.379204
-9.44655
0.23413
-8.57569
0.135427
-6.19476
-2.23168
3.56725
-7.37036
-3.62838
3.52209
-7.58275
3.29101
-7.90451
3.10298
-8.08704
2.84108
-8.32314
2.60174
-8.46894
2.33009
-8.63001
2.08817
-8.74073
1.85538
-8.85565
1.6554
-8.94945
1.45408
-9.03796
1.25871
-9.09974
1.06421
-9.16222
0.88106
-9.20826
0.693776
-9.25387
0.525566
-9.28202
0.303793
-9.22478
0.162738
-8.43463
-0.0437731
-5.98825
-2.27546
2.40928
-7.47507
-2.30458
2.50256
-7.67603
2.48224
-7.88419
2.42987
-8.03467
2.30735
-8.20061
2.17342
-8.33501
2.0066
-8.46319
1.83402
-8.56815
1.65495
-8.67658
1.4692
-8.76369
1.27436
-8.84312
1.0816
-8.90698
0.895585
-8.97621
0.717812
-9.03049
0.544936
-9.081
0.380282
-9.11736
0.245375
-9.08987
0.149319
-8.33858
0.0377361
-5.87667
-2.23772
1.39633
-7.65273
-1.21867
1.49859
-7.77829
1.54384
-7.92944
1.55104
-8.04187
1.50777
-8.15734
1.43741
-8.26465
1.34843
-8.37421
1.2485
-8.46822
1.13223
-8.56031
1.00959
-8.64105
0.88274
-8.71627
0.762857
-8.7871
0.639637
-8.85299
0.521197
-8.91205
0.400989
-8.96079
0.28549
-9.00186
0.167146
-8.97153
0.103246
-8.27468
0.0748029
-5.84823
-2.16292
0.926381
-7.78168
-0.797437
1.02086
-7.87277
1.08191
-7.99049
1.12162
-8.08157
1.12188
-8.15761
1.09812
-8.24089
1.04523
-8.32131
0.979593
-8.40259
0.900006
-8.48072
0.80793
-8.54897
0.708745
-8.61708
0.601038
-8.67939
0.487525
-8.73948
0.369175
-8.7937
0.252713
-8.84433
0.141742
-8.89089
0.0413797
-8.87116
0.0157495
-8.24904
0.0480226
-5.8805
-2.11489
0.564172
-7.90067
-0.445174
0.657756
-7.96635
0.699493
-8.03222
0.716069
-8.09815
0.720538
-8.16207
0.70306
-8.22341
0.671685
-8.28994
0.624022
-8.35493
0.563182
-8.41988
0.491788
-8.47758
0.413759
-8.53906
0.328953
-8.59459
0.24226
-8.65278
0.154476
-8.70592
0.0698743
-8.75973
-0.0127461
-8.80827
-0.0960774
-8.78783
-0.0919681
-8.25315
0.021908
-5.99438
-2.09299
0.364929
-7.97806
-0.287546
0.418183
-8.01961
0.449657
-8.0637
0.465868
-8.11436
0.473875
-8.17008
0.466734
-8.21627
0.442482
-8.26569
0.404336
-8.31678
0.353415
-8.36896
0.295176
-8.41934
0.228262
-8.47214
0.153637
-8.51996
0.0709207
-8.57007
-0.0187102
-8.61629
-0.105052
-8.67339
-0.188894
-8.72443
-0.257346
-8.71938
-0.233077
-8.27742
-0.0411616
-6.18629
-2.13415
0.202701
-8.0319
-0.148854
0.24632
-8.06323
0.273159
-8.09054
0.282013
-8.12321
0.273404
-8.16147
0.258914
-8.20178
0.233242
-8.24001
0.192375
-8.27591
0.142055
-8.31864
0.0826979
-8.35998
0.0172681
-8.40671
-0.0548974
-8.44779
-0.128516
-8.49645
-0.207147
-8.53766
-0.290491
-8.59004
-0.375731
-8.63919
-0.447789
-8.64732
-0.415842
-8.30937
-0.143793
-6.45834
-2.27794
0.0759632
-8.06159
-0.0462797
0.0918428
-8.07911
0.100114
-8.09881
0.099671
-8.12277
0.087298
-8.1491
0.0634215
-8.17791
0.0341022
-8.2107
7.34465e-05
-8.24188
-0.0429015
-8.27567
-0.0945231
-8.30836
-0.157569
-8.34367
-0.225681
-8.37968
-0.30508
-8.41705
-0.387667
-8.45507
-0.47972
-8.49799
-0.585321
-8.53359
-0.670239
-8.56241
-0.645355
-8.33425
-0.30279
-6.80091
-2.58073
-0.0211454
-8.071
0.0305576
-0.0171089
-8.08314
-0.0165914
-8.09933
-0.0207513
-8.11861
-0.0343947
-8.13546
-0.0591351
-8.15317
-0.093362
-8.17647
-0.134016
-8.20123
-0.180919
-8.22877
-0.23578
-8.2535
-0.299958
-8.27949
-0.373741
-8.3059
-0.456709
-8.33408
-0.550793
-8.36098
-0.652566
-8.39621
-0.76263
-8.42353
-0.867603
-8.45743
-0.87519
-8.32667
-0.52539
-7.15071
-3.10612
-0.118097
-8.07084
0.117938
-0.12186
-8.07938
-0.130559
-8.09063
-0.149921
-8.09925
-0.173114
-8.11226
-0.198342
-8.12794
-0.229832
-8.14498
-0.271646
-8.15941
-0.321319
-8.17909
-0.376684
-8.19814
-0.440702
-8.21547
-0.513173
-8.23343
-0.59565
-8.2516
-0.687476
-8.26916
-0.799445
-8.28425
-0.914394
-8.30858
-1.0429
-8.32893
-1.07919
-8.29037
-0.796688
-7.43321
-3.90281
-0.181211
-8.06943
0.179801
-0.18537
-8.07522
-0.193061
-8.08294
-0.204697
-8.08761
-0.221333
-8.09563
-0.244959
-8.10431
-0.275004
-8.11493
-0.310518
-8.1239
-0.357136
-8.13247
-0.410179
-8.14509
-0.47375
-8.1519
-0.544715
-8.16246
-0.628827
-8.16749
-0.719918
-8.17807
-0.827617
-8.17655
-0.945819
-8.19037
-1.09152
-8.18324
-1.20012
-8.18176
-0.994081
-7.63925
-4.89689
-0.217311
-8.06111
0.208993
-0.229793
-8.06274
-0.247757
-8.06497
-0.267133
-8.06824
-0.287816
-8.07494
-0.314052
-8.07808
-0.343903
-8.08508
-0.376746
-8.09106
-0.413008
-8.09621
-0.457497
-8.1006
-0.505298
-8.1041
-0.562956
-8.10481
-0.626185
-8.10426
-0.701204
-8.10305
-0.785086
-8.09266
-0.883211
-8.09225
-0.993953
-8.07249
-1.10339
-8.07233
-0.953108
-7.78953
-5.85
-0.239588
-8.05308
0.231557
-0.249237
-8.05309
-0.259685
-8.05452
-0.273212
-8.05471
-0.290093
-8.05806
-0.309879
-8.05829
-0.333698
-8.06126
-0.363274
-8.06148
-0.395032
-8.06445
-0.433219
-8.06242
-0.471761
-8.06556
-0.518423
-8.05814
-0.565366
-8.05732
-0.622946
-8.04547
-0.677332
-8.03828
-0.747211
-8.02237
-0.813523
-8.00618
-0.893985
-7.99187
-0.807948
-7.87557
-6.65795
-0.251299
-8.04236
0.240583
-0.263603
-8.04078
-0.276474
-8.04165
-0.290014
-8.04117
-0.30364
-8.04444
-0.31936
-8.04257
-0.336323
-8.0443
-0.355411
-8.04239
-0.375131
-8.04473
-0.397066
-8.04048
-0.420189
-8.04243
-0.444195
-8.03414
-0.468303
-8.03321
-0.496003
-8.01777
-0.521909
-8.01237
-0.554354
-7.98992
-0.582434
-7.9781
-0.632906
-7.94139
-0.595462
-7.91301
-7.25341
-0.236502
-8.03375
0.227888
-0.245036
-8.03225
-0.25382
-8.03287
-0.263229
-8.03176
-0.274945
-8.03272
-0.286512
-8.031
-0.298685
-8.03213
-0.311225
-8.02985
-0.324291
-8.03167
-0.337392
-8.02738
-0.351214
-8.02861
-0.364117
-8.02124
-0.374845
-8.02249
-0.383369
-8.00924
-0.38591
-8.00983
-0.389095
-7.98674
-0.377938
-7.98926
-0.374515
-7.94482
-0.346748
-7.94078
-7.60016
-0.216988
-8.0268
0.210036
-0.223506
-8.02573
-0.230062
-8.02631
-0.236586
-8.02524
-0.243657
-8.02565
-0.250145
-8.02452
-0.257174
-8.0251
-0.263454
-8.02357
-0.271043
-8.02408
-0.277066
-8.02136
-0.284055
-8.02162
-0.288724
-8.01657
-0.293898
-8.01731
-0.292894