/*--------------------------------*- C++ -*----------------------------------*\
  =========                 |
  \\      /  F ield         | OpenFOAM: The Open Source CFD Toolbox
   \\    /   O peration     | Website:  https://openfoam.org
    \\  /    A nd           | Version:  9
     \\/     M anipulation  |
\*---------------------------------------------------------------------------*/
FoamFile
{
    format      ascii;
    class       volVectorField;
    location    "14";
    object      U;
}
// * * * * * * * * * * * * * * * * * * * * * * * * * * * * * * * * * * * * * //

dimensions      [0 1 -1 0 0 0 0];

internalField   nonuniform List<vector> 
46400
(
(7.48311 -7.24408 9.1124e-19)
(15.1451 -14.5612 -1.09846e-18)
(16.1716 -16.2724 -4.5196e-20)
(15.5591 -16.3996 -3.05759e-19)
(15.0263 -16.4362 -3.3099e-20)
(14.4635 -16.5292 1.8285e-18)
(13.9474 -16.5628 -1.04711e-18)
(13.4344 -16.6061 2.76349e-19)
(12.9839 -16.6818 -2.76573e-19)
(12.5686 -16.7684 2.76317e-19)
(12.1873 -16.8811 -2.75607e-19)
(11.8371 -16.9799 0)
(11.4691 -17.0659 1.86203e-18)
(11.1207 -17.111 -2.10179e-18)
(10.7827 -17.1875 -2.38185e-18)
(10.4681 -17.2293 -2.86679e-19)
(10.17 -17.3388 -1.82398e-20)
(9.88972 -17.3795 1.79099e-18)
(9.61076 -17.3772 2.2918e-18)
(9.20103 -17.5155 -2.13042e-18)
(7.76032 -6.82712 0)
(15.1551 -13.6128 -2.3534e-20)
(15.9734 -15.0094 0)
(15.2873 -15.1437 1.40505e-18)
(14.7567 -15.2348 -1.11619e-18)
(14.2136 -15.3628 2.73937e-19)
(13.7295 -15.4874 0)
(13.2342 -15.5716 -2.76344e-19)
(12.7899 -15.6975 2.76558e-19)
(12.361 -15.797 -2.7629e-19)
(11.9498 -15.9244 2.56086e-18)
(11.5611 -16.0193 2.38577e-20)
(11.1959 -16.1487 -1.96301e-18)
(10.8562 -16.2492 0)
(10.5333 -16.3673 2.69776e-19)
(10.2264 -16.4715 2.67849e-19)
(9.91614 -16.5578 0)
(9.65061 -16.6502 -2.1732e-18)
(9.43158 -16.7826 -5.33541e-19)
(9.10925 -17.029 2.22693e-18)
(7.91579 -6.42873 7.68323e-19)
(15.0683 -12.6196 -1.06348e-18)
(15.6559 -13.7423 1.17985e-18)
(15.0545 -13.9816 1.22953e-18)
(14.5322 -14.1229 -1.20712e-18)
(13.9893 -14.2813 0)
(13.482 -14.4065 -2.77939e-18)
(12.9786 -14.5179 2.42113e-18)
(12.5154 -14.6492 -2.75635e-18)
(12.1006 -14.784 2.71357e-18)
(11.7209 -14.9476 2.41116e-18)
(11.382 -15.1089 -2.86212e-19)
(11.0219 -15.2522 -2.0508e-18)
(10.6837 -15.38 0)
(10.345 -15.492 2.3246e-18)
(10.0459 -15.6112 -2.28933e-18)
(9.75947 -15.7607 0)
(9.44724 -15.7824 -1.12601e-20)
(9.16524 -15.8298 2.70103e-19)
(8.80452 -16.0868 -2.32721e-18)
(8.0167 -6.00705 -8.70023e-19)
(14.8369 -11.5224 2.7977e-19)
(15.2764 -12.5731 1.30973e-18)
(14.5668 -12.7453 -1.29455e-18)
(14.0428 -12.9489 -9.82812e-19)
(13.5274 -13.1656 1.29751e-18)
(13.0469 -13.3715 1.62712e-18)
(12.5619 -13.5146 -3.89526e-18)
(12.1162 -13.704 3.20553e-18)
(11.6966 -13.8597 -3.10707e-19)
(11.2879 -14.0407 0)
(10.9109 -14.1785 3.05603e-19)
(10.5593 -14.3603 -3.02721e-19)
(10.25 -14.5243 0)
(9.94819 -14.7143 2.42896e-18)
(9.64 -14.8288 -2.08675e-18)
(9.39143 -15.0559 0)
(9.17637 -15.246 2.8644e-19)
(8.92912 -15.344 2.92866e-19)
(8.56805 -15.5804 2.43905e-18)
(8.12272 -5.56167 0)
(14.4643 -10.3497 0)
(14.7494 -11.2805 -1.40512e-18)
(14.1879 -11.5991 1.02555e-18)
(13.6604 -11.835 -1.74341e-18)
(13.1504 -12.0772 1.38007e-18)
(12.6832 -12.3276 0)
(12.2046 -12.507 1.37373e-18)
(11.7355 -12.6941 -1.68089e-18)
(11.3295 -12.8784 -3.43618e-19)
(10.9722 -13.1211 -3.39454e-19)
(10.6538 -13.3379 0)
(10.2994 -13.5218 2.59338e-18)
(9.96286 -13.681 -2.55282e-18)
(9.66255 -13.8696 0)
(9.34495 -13.9936 -2.79563e-18)
(9.01937 -14.0997 2.45312e-18)
(8.77194 -14.2661 2.42198e-18)
(8.56144 -14.437 -2.67949e-18)
(8.24131 -14.7168 0)
(8.26028 -5.09719 0)
(13.9986 -9.23769 0)
(14.1875 -10.1232 0)
(13.4679 -10.3744 -2.23686e-20)
(12.9541 -10.7094 0)
(12.4645 -11.0118 0)
(11.9995 -11.3306 0)
(11.5649 -11.5715 -3.68745e-19)
(11.1265 -11.8293 0)
(10.7018 -12.0159 3.43586e-19)
(10.2914 -12.2495 -1.46843e-20)
(9.95326 -12.4797 -3.09081e-18)
(9.63612 -12.7344 2.35454e-18)
(9.33981 -12.9484 -3.00072e-18)
(9.08065 -13.2185 2.28784e-18)
(8.84711 -13.4562 0)
(8.58494 -13.6645 -2.54223e-18)
(8.32562 -13.7917 2.18687e-18)
(8.1022 -13.955 0)
(7.81706 -14.2274 -3.32167e-19)
(8.45759 -4.65327 1.5162e-18)
(13.3721 -8.12708 4.08373e-19)
(13.3769 -8.85935 1.59786e-18)
(12.8676 -9.2806 -1.59154e-18)
(12.3316 -9.61822 -1.56941e-18)
(11.8789 -9.94446 3.09259e-18)
(11.4761 -10.3408 -3.44628e-18)
(11.0591 -10.6215 3.63168e-19)
(10.6373 -10.911 1.1054e-18)
(10.2487 -11.1322 0)
(9.88512 -11.3939 -1.38821e-20)
(9.57927 -11.6512 -1.30982e-20)
(9.25971 -11.9125 3.43798e-19)
(8.91551 -12.0814 2.74292e-18)
(8.61141 -12.2965 -2.37877e-18)
(8.35056 -12.515 -3.0039e-18)
(8.11754 -12.7783 2.62554e-18)
(7.89803 -12.9925 -9.43896e-21)
(7.67564 -13.1801 -3.217e-19)
(7.41939 -13.4899 -2.36553e-18)
(8.61138 -4.28867 -3.97897e-19)
(12.6585 -7.10567 2.30108e-20)
(12.4893 -7.79604 -4.30364e-19)
(11.9144 -8.1491 -1.68929e-18)
(11.4405 -8.63723 1.21942e-18)
(10.9657 -8.96398 0)
(10.5321 -9.38166 2.39861e-18)
(10.1891 -9.75229 -1.17222e-18)
(9.82239 -10.1258 7.73891e-19)
(9.44962 -10.3996 3.87564e-19)
(9.03679 -10.6392 -7.50352e-19)
(8.70989 -10.8914 1.83707e-18)
(8.47511 -11.238 3.67638e-19)
(8.23708 -11.5372 -2.13425e-18)
(7.96333 -11.7889 5.95228e-18)
(7.70833 -12.0199 -2.41474e-18)
(7.45814 -12.2503 3.04026e-18)
(7.25305 -12.4881 -1.99509e-18)
(7.04721 -12.6965 6.51682e-19)
(6.80237 -12.9993 3.13335e-18)
(8.67153 -3.97996 1.98798e-18)
(11.7778 -6.10355 -4.32772e-19)
(11.5023 -6.78355 -1.95901e-20)
(11.0978 -7.21867 8.69043e-19)
(10.6132 -7.65195 4.19701e-19)
(10.2476 -8.04352 4.29514e-19)
(9.87182 -8.47554 -2.06715e-18)
(9.51418 -8.82788 1.2304e-18)
(9.1908 -9.24216 -3.94218e-19)
(8.91421 -9.59877 -3.8757e-19)
(8.60522 -9.93082 -3.80946e-19)
(8.24282 -10.1362 -3.8534e-19)
(7.90986 -10.376 -7.458e-19)
(7.6455 -10.6328 2.56434e-18)
(7.41927 -10.9268 -3.59901e-18)
(7.19398 -11.1795 -3.57083e-19)
(6.96919 -11.4355 8.24957e-21)
(6.76885 -11.6698 -2.70831e-18)
(6.58539 -11.91 2.00881e-18)
(6.38094 -12.2238 -3.19761e-18)
(8.45863 -3.60123 1.68953e-18)
(10.7498 -5.26692 -4.1791e-18)
(10.3619 -5.90733 2.75243e-18)
(9.98872 -6.36479 -4.43576e-19)
(9.58304 -6.92221 -4.51754e-19)
(9.15266 -7.26558 1.76348e-18)
(8.76829 -7.72601 -2.15422e-18)
(8.46224 -8.10485 0)
(8.13536 -8.51489 1.65391e-18)
(7.86556 -8.90745 -1.62627e-18)
(7.60675 -9.31501 -1.18761e-18)
(7.38182 -9.68468 1.55522e-18)
(7.13452 -10.0079 3.7807e-19)
(6.87791 -10.2764 -1.49974e-18)
(6.6345 -10.5462 3.70154e-19)
(6.43667 -10.8201 1.80527e-18)
(6.22015 -11.0693 -3.17817e-18)
(6.03569 -11.3075 2.09124e-18)
(5.84715 -11.5251 -6.80173e-21)
(5.65777 -11.8204 -2.91225e-18)
(8.03651 -3.15984 2.21481e-18)
(9.72502 -4.42971 -1.44353e-18)
(9.36845 -5.12928 9.50998e-19)
(9.0096 -5.55786 1.49858e-21)
(8.66906 -6.11379 -1.84687e-18)
(8.39573 -6.5578 -1.78658e-18)
(8.05605 -6.99957 2.20307e-18)
(7.75827 -7.39879 -1.29187e-18)
(7.43663 -7.77315 1.70092e-18)
(7.16382 -8.12707 0)
(6.90467 -8.5021 9.06763e-21)
(6.63852 -8.83006 3.95328e-19)
(6.42647 -9.20773 3.9565e-19)
(6.2179 -9.53914 -3.8757e-19)
(6.00222 -9.86121 0)
(5.80777 -10.1617 3.71965e-19)
(5.62687 -10.471 0)
(5.45469 -10.7467 7.08077e-19)
(5.28999 -11.0108 3.46483e-18)
(5.10997 -11.3278 -1.84833e-20)
(7.38 -2.6945 1.15892e-18)
(8.44381 -3.71061 -2.46034e-19)
(7.98313 -4.38801 -3.43477e-18)
(7.79729 -4.96933 1.92306e-18)
(7.41971 -5.55431 4.64952e-19)
(7.11966 -6.03363 -4.56028e-19)
(6.78828 -6.52972 -1.80846e-18)
(6.5683 -6.99138 1.33905e-18)
(6.33418 -7.46046 0)
(6.08773 -7.82941 0)
(5.88634 -8.24573 -2.0746e-18)
(5.6707 -8.57726 1.6355e-18)
(5.45571 -8.91208 -3.95728e-19)
(5.27209 -9.22381 -1.17232e-18)
(5.08985 -9.5301 8.43957e-21)
(4.92151 -9.81601 2.62813e-18)
(4.75042 -10.0927 -1.47348e-18)
(4.60844 -10.3659 1.07813e-18)
(4.46571 -10.6162 -1.76439e-18)
(4.32429 -10.9186 0)
(6.55022 -2.2184 -9.60577e-19)
(7.36429 -3.01274 1.52075e-18)
(6.96455 -3.64984 2.52774e-19)
(6.66697 -4.12045 2.47698e-19)
(6.45956 -4.74155 0)
(6.26726 -5.20143 1.88276e-18)
(6.00795 -5.69487 -1.84969e-18)
(5.74008 -6.09173 2.27662e-19)
(5.5408 -6.59858 0)
(5.32245 -7.00311 1.72863e-18)
(5.12182 -7.4542 -1.48694e-18)
(4.95728 -7.8718 1.65523e-18)
(4.7828 -8.28008 -1.62895e-18)
(4.62111 -8.65907 1.58494e-18)
(4.44614 -9.01241 -1.36511e-18)
(4.30285 -9.35968 -1.51794e-18)
(4.14307 -9.67263 2.9811e-18)
(4.00677 -9.97984 -1.28067e-18)
(3.86638 -10.2541 1.79415e-19)
(3.73355 -10.5767 1.53023e-18)
(5.54236 -1.79211 -7.53457e-19)
(6.05843 -2.58349 7.80891e-19)
(5.59193 -3.25838 -2.52735e-19)
(5.42592 -3.80402 -2.47667e-19)
(5.19499 -4.42367 0)
(5.01517 -5.01087 0)
(4.78354 -5.52668 0)
(4.52799 -5.96325 -4.58352e-19)
(4.32178 -6.39538 -1.78957e-18)
(4.13593 -6.81213 3.50986e-18)
(3.94055 -7.18441 -1.93467e-18)
(3.77769 -7.57528 -2.10928e-19)
(3.6275 -7.93472 0)
(3.50886 -8.31616 0)
(3.38471 -8.65468 -3.92786e-19)
(3.27094 -9.00645 0)
(3.16265 -9.32613 1.49976e-18)
(3.0546 -9.64521 -1.8457e-18)
(2.95789 -9.92833 -1.61584e-18)
(2.84277 -10.2542 1.55753e-18)
(4.18883 -1.3296 7.84401e-19)
(4.6953 -2.17697 1.31514e-18)
(4.44896 -2.78982 -1.78608e-21)
(4.21376 -3.31965 -2.60447e-21)
(3.92714 -3.83293 2.45602e-19)
(3.82616 -4.41136 -7.2817e-19)
(3.77476 -5.01479 0)
(3.62002 -5.53121 -6.9478e-19)
(3.46775 -6.02006 2.32508e-19)
(3.33773 -6.4877 8.89676e-19)
(3.18297 -6.90822 8.64599e-19)
(3.05198 -7.31536 -6.39752e-19)
(2.90387 -7.68646 1.65263e-18)
(2.79028 -8.05746 -1.42369e-18)
(2.6624 -8.40215 1.77731e-18)
(2.56549 -8.74433 -3.29532e-18)
(2.45638 -9.06809 1.52206e-18)
(2.37148 -9.38393 1.84792e-19)
(2.27878 -9.67212 1.44656e-18)
(2.19755 -9.99633 -1.56985e-18)
(2.62852 -0.782895 2.67353e-19)
(3.38977 -1.64678 -2.64074e-19)
(3.2036 -2.3583 1.04182e-18)
(3.11754 -3.00511 -1.02273e-18)
(2.87706 -3.55887 -4.99079e-19)
(2.58516 -4.0012 -1.21805e-18)
(2.44662 -4.56119 4.85738e-21)
(2.31604 -5.05455 9.36133e-19)
(2.20772 -5.5657 -2.27477e-19)
(2.1013 -6.04245 0)
(2.01458 -6.51238 0)
(1.90748 -6.94837 0)
(1.8262 -7.37144 0)
(1.73256 -7.76566 5.71759e-22)
(1.66121 -8.14863 0)
(1.57523 -8.50286 1.94153e-19)
(1.51017 -8.85379 7.58048e-19)
(1.43701 -9.17585 -2.22995e-18)
(1.37879 -9.48448 1.64356e-18)
(1.30966 -9.81042 -1.56277e-18)
(1.62506 -0.387925 0)
(1.9495 -1.14469 -1.33661e-19)
(1.7605 -1.82088 0)
(1.69026 -2.5471 3.8341e-19)
(1.70015 -3.29927 -2.52091e-19)
(1.55003 -3.85884 -9.77769e-19)
(1.43764 -4.42491 5.19848e-21)
(1.34455 -4.92591 9.39076e-19)
(1.2088 -5.41635 -9.1211e-19)
(1.13765 -5.87772 1.78797e-18)
(1.0377 -6.33281 -5.89881e-21)
(0.978723 -6.75827 -8.56499e-19)
(0.898068 -7.17553 8.3109e-19)
(0.848924 -7.56946 -1.02172e-18)
(0.789507 -7.95165 0)
(0.746664 -8.31509 -7.75957e-19)
(0.694339 -8.66374 7.64372e-19)
(0.656315 -8.99657 0)
(0.612934 -9.30202 -1.82093e-19)
(0.571492 -9.6322 0)
(0.664235 -0.46449 0)
(0.565399 -1.21161 1.33679e-19)
(0.284112 -1.95324 0)
(0.0930115 -2.49559 5.11605e-19)
(0.0779504 -3.18006 -6.26571e-19)
(0.0956787 -3.7778 3.66178e-19)
(0.054243 -4.33744 -1.07577e-18)
(0.0421197 -4.88624 4.68725e-19)
(-0.00811329 -5.38048 -1.13807e-19)
(-0.0529387 -5.85013 0)
(-0.0877382 -6.30587 -1.08608e-19)
(-0.127628 -6.72702 -1.06102e-19)
(-0.163721 -7.14029 -1.03662e-19)
(-0.191027 -7.52319 0)
(-0.219132 -7.9035 -7.91449e-19)
(-0.237814 -8.25663 1.64975e-18)
(-0.256986 -8.60953 -1.42371e-18)
(-0.273554 -8.93355 7.45135e-19)
(-0.283015 -9.24515 9.04571e-20)
(-0.299711 -9.56755 7.80103e-19)
(-1.31161 -0.186647 -2.03025e-19)
(-1.19 -1.07724 -2.65231e-19)
(-0.930921 -1.78071 7.06815e-22)
(-0.925723 -2.37025 6.99693e-19)
(-0.98625 -2.94142 -1.86366e-19)
(-0.961465 -3.55167 -1.20595e-19)
(-0.995528 -4.12792 1.20515e-19)
(-1.01883 -4.67975 2.32929e-19)
(-1.00235 -5.20083 1.13792e-19)
(-1.0447 -5.70534 -4.41813e-19)
(-1.04563 -6.15838 4.89312e-19)
(-1.05651 -6.6212 1.06092e-19)
(-1.05855 -7.02588 5.15456e-19)
(-1.06626 -7.44839 -3.02405e-21)
(-1.07073 -7.81879 4.60882e-20)
(-1.06882 -8.20285 -8.6815e-19)
(-1.0715 -8.54837 2.37027e-19)
(-1.05964 -8.89594 0)
(-1.05755 -9.20666 -4.56082e-20)
(-1.04052 -9.54735 -3.87549e-19)
(-2.21112 -0.240169 6.69772e-20)
(-2.55374 -0.850081 -1.31112e-19)
(-2.37585 -1.58988 2.57094e-19)
(-2.3442 -2.26808 -6.36669e-20)
(-2.45258 -2.94109 -6.14552e-20)
(-2.48015 -3.54945 0)
(-2.4467 -4.12447 -1.17292e-19)
(-2.36393 -4.67703 2.29852e-19)
(-2.36218 -5.21359 -1.12642e-19)
(-2.28094 -5.71879 1.0933e-19)
(-2.26262 -6.19656 -5.36817e-20)
(-2.21297 -6.65558 -1.04315e-19)
(-2.1939 -7.09254 2.04565e-19)
(-2.16369 -7.50504 -1.9988e-19)
(-2.1308 -7.89772 4.89541e-20)
(-2.10856 -8.26658 3.36723e-34)
(-2.06446 -8.6244 -4.60616e-20)
(-2.04842 -8.95533 2.73379e-19)
(-2.00255 -9.27045 -1.35123e-19)
(-1.99163 -9.59899 -9.67827e-20)
(-0.325952 2.73067 -2.78873e-20)
(0.126769 2.16547 -1.37991e-20)
(0.659965 -0.808591 0)
(3.03733 -8.13234 0)
(6.20968 -17.7149 -1.31018e-20)
(8.15099 -23.9356 -1.31338e-20)
(8.99629 -26.72 0)
(9.18648 -27.6298 -1.30382e-20)
(9.19425 -27.9339 0)
(9.13136 -27.9193 0)
(8.97659 -27.8654 1.29658e-20)
(8.88117 -27.8182 4.55773e-22)
(8.7621 -27.7914 -2.61881e-20)
(8.64683 -27.7146 0)
(8.54322 -27.7306 -1.34469e-20)
(8.45725 -27.7462 -1.34664e-20)
(8.33749 -27.7191 -1.34774e-20)
(8.24572 -27.7012 0)
(8.15399 -27.7844 2.65265e-20)
(8.08341 -27.8554 -2.44664e-20)
(-0.217117 2.57173 -4.21701e-20)
(0.37898 0.939444 6.96786e-20)
(1.55255 -3.7202 0)
(5.07356 -13.8368 6.45432e-20)
(7.63032 -21.8506 -6.61747e-20)
(8.96716 -25.945 1.19019e-19)
(9.32046 -27.2821 -5.05538e-20)
(9.36613 -27.7009 -3.78294e-20)
(9.31428 -27.7049 1.70958e-19)
(9.17681 -27.6591 -1.04298e-19)
(9.08302 -27.6057 1.33681e-20)
(8.96985 -27.5557 -1.09711e-19)
(8.85352 -27.4973 -1.94874e-21)
(8.77576 -27.5055 1.08183e-19)
(8.65707 -27.5246 1.3447e-20)
(8.57264 -27.4345 1.34663e-20)
(8.42678 -27.4192 1.34787e-20)
(8.38455 -27.4786 0)
(8.27277 -27.5945 1.09827e-19)
(8.21526 -27.5776 1.36146e-21)
(0.0730418 2.17351 1.58008e-20)
(0.646162 -0.798568 0)
(3.03686 -8.2979 0)
(6.69824 -18.4059 2.70085e-20)
(8.71632 -24.4219 -2.67615e-20)
(9.43111 -26.7395 0)
(9.55493 -27.414 2.67044e-20)
(9.52349 -27.4901 -8.03065e-20)
(9.42813 -27.4803 7.89043e-20)
(9.32312 -27.4071 -1.11946e-19)
(9.20676 -27.343 1.38211e-19)
(9.10868 -27.292 0)
(9.00131 -27.2796 1.13059e-19)
(8.89434 -27.2261 1.15414e-19)
(8.78293 -27.1916 -1.94646e-19)
(8.68913 -27.1706 2.27629e-19)
(8.57978 -27.1968 -1.95549e-19)
(8.519 -27.2334 0)
(8.40752 -27.2928 2.57088e-19)
(8.3282 -27.2459 -4.31617e-19)
(0.377754 0.911857 -6.60784e-20)
(1.14978 -2.96429 0)
(4.73812 -12.7253 0)
(7.91552 -21.6677 -8.29369e-20)
(9.34734 -25.837 1.63679e-19)
(9.68342 -27.0666 -5.34016e-20)
(9.7275 -27.3148 -2.62758e-20)
(9.66147 -27.3292 -2.89336e-19)
(9.55108 -27.2466 4.39921e-19)
(9.42764 -27.1529 6.20353e-20)
(9.33275 -27.1035 -2.52967e-19)
(9.2172 -27.0405 -5.77507e-20)
(9.10167 -26.9698 2.90074e-19)
(9.0194 -26.9622 -2.86757e-19)
(8.90975 -26.9864 -8.71981e-20)
(8.82825 -26.9043 5.89009e-20)
(8.69946 -26.9181 -8.77415e-20)
(8.66098 -26.9945 0)
(8.52169 -27.0424 2.95569e-20)
(8.43786 -26.9179 0)
(0.289815 -0.285178 0)
(1.87388 -5.50807 -2.18302e-19)
(6.1921 -16.7504 2.69422e-19)
(8.78667 -23.8951 -2.72307e-19)
(9.7436 -26.5126 2.12484e-19)
(9.93884 -27.1443 5.24602e-20)
(9.89875 -27.1807 0)
(9.81654 -27.097 -1.63929e-19)
(9.69475 -26.9771 2.24215e-19)
(9.60367 -26.9124 -2.89419e-19)
(9.49287 -26.8237 2.28629e-19)
(9.39198 -26.7627 5.77556e-20)
(9.29615 -26.7527 -2.9582e-19)
(9.19958 -26.7199 5.31455e-19)
(9.07986 -26.6629 -3.56696e-19)
(8.98088 -26.6233 1.17079e-19)
(8.86376 -26.6736 3.01059e-19)
(8.79234 -26.6743 -7.22342e-19)
(8.6426 -26.6779 4.13137e-19)
(8.51613 -26.4884 5.25004e-19)
(0.270006 -1.27153 -2.07388e-19)
(3.03871 -8.81988 -2.04357e-19)
(7.33182 -19.5549 2.0174e-19)
(9.473 -25.2562 4.99773e-20)
(10.064 -26.8627 -5.33307e-20)
(10.1358 -27.0691 -2.11729e-19)
(10.0922 -27.0257 2.05204e-19)
(9.97602 -26.8742 0)
(9.89724 -26.7949 -2.32478e-19)
(9.78182 -26.6733 2.28574e-19)
(9.68555 -26.608 2.38552e-19)
(9.56973 -26.5329 -2.34674e-19)
(9.45429 -26.4531 0)
(9.34802 -26.4196 0)
(9.23384 -26.4024 -5.54084e-19)
(9.13155 -26.3176 5.46914e-19)
(9.00347 -26.3293 4.98828e-19)
(8.94497 -26.3759 -4.85194e-19)
(8.7712 -26.3553 4.91185e-19)
(8.64213 -26.1111 -6.00023e-19)
(0.520273 -2.35409 1.41781e-19)
(4.17362 -11.4548 -3.929e-20)
(8.40739 -21.777 7.68362e-21)
(10.1364 -26.1052 -2.38722e-19)
(10.4835 -26.9557 0)
(10.4893 -26.9803 0)
(10.3964 -26.8342 -4.31754e-19)
(10.2816 -26.6703 -1.95246e-20)
(10.1636 -26.527 4.5084e-19)
(10.0455 -26.4203 -4.78057e-19)
(9.91743 -26.293 4.70175e-19)
(9.7954 -26.2039 0)
(9.68485 -26.1684 -4.98952e-19)
(9.57991 -26.1271 4.91091e-19)
(9.44939 -26.0634 0)
(9.34111 -26.0154 0)
(9.20268 -26.0478 0)
(9.1218 -25.9962 0)
(8.90109 -25.9247 0)
(8.77829 -25.6636 6.24228e-20)
(0.85763 -3.35947 -1.16586e-19)
(5.44688 -13.9379 1.9951e-19)
(9.43595 -23.2464 0)
(10.7722 -26.4884 0)
(10.9004 -26.8872 -4.44354e-19)
(10.8458 -26.7921 -7.705e-20)
(10.6843 -26.5628 4.72634e-19)
(10.5565 -26.3811 0)
(10.4374 -26.2631 -5.86751e-20)
(10.2928 -26.1053 6.03819e-20)
(10.173 -26.0186 0)
(10.0377 -25.9339 -6.31069e-20)
(9.91145 -25.8493 5.76905e-19)
(9.77794 -25.8046 -1.08868e-18)
(9.64512 -25.7448 -1.33364e-20)
(9.50033 -25.6392 5.16234e-19)
(9.36159 -25.6314 6.69878e-20)
(9.273 -25.6309 -6.71839e-20)
(9.05192 -25.5527 0)
(8.93572 -25.292 -6.73835e-20)
(1.34659 -4.28379 -7.46993e-20)
(6.68503 -15.6091 -8.74903e-20)
(10.4484 -24.2578 2.20269e-19)
(11.4222 -26.5421 -8.80366e-20)
(11.4229 -26.6517 -4.70085e-20)
(11.2947 -26.4714 -4.70576e-19)
(11.1243 -26.2585 7.06579e-19)
(10.9709 -26.0914 -5.58242e-19)
(10.8116 -25.9197 5.44022e-19)
(10.6453 -25.7869 -6.61785e-19)
(10.4791 -25.6376 -1.27555e-19)
(10.3186 -25.5314 -5.88449e-19)
(10.1688 -25.4733 3.15791e-19)
(10.0312 -25.4058 7.36839e-19)
(9.8759 -25.3342 -6.65129e-19)
(9.74049 -25.2843 0)
(9.58061 -25.2817 -2.06027e-19)
(9.47113 -25.2063 -7.25735e-20)
(9.21456 -25.108 1.40423e-19)
(9.10512 -24.8539 -7.29705e-20)
(2.15816 -5.52209 2.66235e-20)
(7.84665 -16.9904 -9.83118e-20)
(11.3841 -24.7226 5.31086e-22)
(12.0396 -26.3677 1.74273e-19)
(11.9353 -26.3412 1.90927e-19)
(11.7326 -26.1049 1.03249e-19)
(11.5108 -25.8708 -3.48502e-21)
(11.3118 -25.667 1.1561e-19)
(11.1261 -25.5201 0)
(10.9271 -25.3441 1.24184e-19)
(10.7589 -25.2433 1.27551e-19)
(10.5834 -25.1449 -5.41977e-21)
(10.428 -25.0673 -5.55481e-19)
(10.2667 -25.037 2.65745e-19)
(10.0997 -24.9486 7.00597e-19)
(9.91144 -24.8234 -5.5544e-19)
(9.75223 -24.8085 -4.34257e-19)
(9.62401 -24.7831 7.04796e-19)
(9.38264 -24.6985 -1.40484e-19)
(9.25974 -24.4377 -1.02202e-18)
(2.7261 -6.06819 0)
(8.80431 -17.8346 -3.22932e-19)
(12.2807 -24.9009 4.98168e-19)
(12.6712 -25.9661 -4.19515e-19)
(12.4501 -25.8218 -5.14614e-19)
(12.211 -25.5781 4.14427e-19)
(11.9688 -25.3773 7.13837e-19)
(11.7437 -25.2086 3.12349e-20)
(11.5259 -25.0456 -4.95046e-19)
(11.2996 -24.9114 4.04204e-19)
(11.0858 -24.7636 -1.08449e-18)
(10.8773 -24.6671 6.80535e-19)
(10.6797 -24.5945 1.38407e-19)
(10.4924 -24.5133 -4.42616e-19)
(10.3053 -24.46 1.16392e-18)
(10.1236 -24.4038 -5.80766e-19)
(9.9419 -24.3627 0)
(9.78965 -24.3049 1.20305e-18)
(9.52506 -24.2311 -1.18548e-18)
(9.39765 -23.9828 1.06424e-18)
(3.2443 -7.13055 -6.48788e-20)
(9.98824 -18.4768 -3.99576e-20)
(13.0365 -24.6985 -3.87623e-19)
(13.2566 -25.4315 -5.06934e-19)
(12.9617 -25.2739 2.89585e-19)
(12.6867 -25.0495 -5.99961e-19)
(12.3793 -24.8269 3.5251e-19)
(12.1068 -24.6398 -5.31641e-19)
(11.8514 -24.4879 1.07435e-18)
(11.5887 -24.3278 -4.07043e-19)
(11.3601 -24.2248 0)
(11.1308 -24.1173 0)
(10.9339 -24.0675 0)
(10.7428 -24.0512 1.22488e-18)
(10.5315 -23.9524 -1.20586e-18)
(10.3077 -23.8498 0)
(10.1206 -23.8368 0)
(9.95048 -23.8017 1.6009e-19)
(9.6895 -23.7336 0)
(9.56381 -23.483 1.43665e-18)
(3.861 -7.47036 1.40872e-19)
(10.8043 -18.8189 3.80091e-19)
(13.7514 -24.3736 3.82689e-19)
(13.7913 -24.7714 1.53584e-19)
(13.4021 -24.5561 -6.84035e-19)
(13.1025 -24.3398 7.77958e-20)
(12.7739 -24.1615 -3.74122e-20)
(12.474 -24.0086 6.78228e-19)
(12.1975 -23.8767 0)
(11.9098 -23.7545 4.51485e-19)
(11.6475 -23.6372 -7.51845e-19)
(11.3904 -23.5648 0)
(11.1421 -23.491 -1.27884e-18)
(10.9124 -23.4334 1.25878e-18)
(10.6929 -23.4142 -1.30517e-18)
(10.4614 -23.3332 2.43175e-18)
(10.2541 -23.2853 -1.2939e-18)
(10.067 -23.2757 -1.60089e-19)
(9.81177 -23.248 1.68457e-19)
(9.67964 -23.0164 -1.34878e-18)
(4.40879 -7.89099 2.65391e-19)
(11.7778 -18.744 3.87423e-20)
(14.3546 -23.7452 5.38249e-20)
(14.3488 -23.9775 -9.25435e-19)
(13.895 -23.8113 -1.68462e-19)
(13.5497 -23.6236 6.60846e-19)
(13.1726 -23.4337 5.88245e-19)
(12.8218 -23.289 -1.10216e-19)
(12.5027 -23.1592 -7.61373e-19)
(12.1787 -23.0392 9.64684e-19)
(11.8861 -22.9462 -4.7915e-19)
(11.5991 -22.8478 1.51222e-18)
(11.3551 -22.8369 -1.14684e-18)
(11.1243 -22.8305 1.37143e-18)
(10.8752 -22.7716 -1.17403e-18)
(10.6238 -22.7312 -1.22063e-18)
(10.3991 -22.7 1.36697e-18)
(10.1799 -22.6853 -1.2151e-18)
(9.92307 -22.6764 1.20431e-18)
(9.78257 -22.4678 1.60525e-18)
(5.01348 -8.08561 3.99109e-19)
(12.5223 -18.6719 1.51601e-19)
(14.9471 -23.0113 -4.37026e-19)
(14.7337 -23.1125 5.45261e-19)
(14.2455 -22.9152 -5.35667e-19)
(13.8461 -22.756 -1.41881e-19)
(13.4507 -22.6107 0)
(13.075 -22.4942 1.69065e-19)
(12.7423 -22.4093 -5.20283e-19)
(12.3989 -22.3175 1.89558e-18)
(12.0938 -22.2541 -1.36806e-18)
(11.791 -22.2034 -3.54042e-19)
(11.4943 -22.1401 -1.73118e-19)
(11.2334 -22.1363 0)
(10.9778 -22.137 1.11707e-20)
(10.7046 -22.0624 -1.47027e-18)
(10.4709 -22.0465 -2.39311e-20)
(10.2413 -22.068 -3.85021e-19)
(10.0053 -22.0925 1.44645e-18)
(9.87356 -21.9004 -3.75759e-19)
(5.49746 -8.16506 -4.63728e-19)
(13.2227 -18.1901 8.71078e-19)
(15.3893 -22.0274 -5.1108e-19)
(15.1522 -22.0949 -6.12439e-19)
(14.6319 -21.9778 -4.6198e-20)
(14.2056 -21.853 4.63098e-19)
(13.7714 -21.7225 -1.79293e-19)
(13.3545 -21.6347 -1.6904e-19)
(12.9821 -21.5539 0)
(12.6065 -21.4907 0)
(12.2577 -21.4311 1.5197e-18)
(11.9234 -21.3753 -2.65079e-18)
(11.6291 -21.3919 1.51092e-18)
(11.358 -21.3959 0)
(11.0901 -21.4288 1.2188e-20)
(10.819 -21.4281 1.75945e-18)
(10.5563 -21.3858 -1.73594e-18)
(10.2956 -21.424 1.86219e-19)
(10.0733 -21.4943 1.73415e-18)
(9.92832 -21.3431 -1.182e-18)
(6.00255 -8.17694 5.41707e-19)
(13.8578 -17.7764 -6.97361e-19)
(15.7572 -21.107 0)
(15.3931 -21.0741 0)
(14.8368 -20.9454 -1.84624e-19)
(14.3539 -20.8635 9.18476e-19)
(13.9047 -20.7676 1.70955e-20)
(13.4632 -20.708 -7.53745e-19)
(13.0822 -20.6765 1.59659e-18)
(12.6945 -20.6283 -3.18827e-18)
(12.3526 -20.6302 1.59174e-18)
(12.0096 -20.6073 -4.07552e-19)
(11.6715 -20.5868 -1.86589e-18)
(11.3746 -20.6274 -2.42439e-19)
(11.0799 -20.6527 1.22047e-18)
(10.7888 -20.6669 -1.99591e-19)
(10.5193 -20.682 1.8518e-18)
(10.2344 -20.7003 -1.60733e-18)
(10.0064 -20.7837 1.11196e-20)
(9.88044 -20.6979 -1.67705e-18)
(6.41094 -8.0502 0)
(14.3289 -17.0357 -5.18459e-19)
(15.9755 -19.9153 4.88315e-19)
(15.5887 -19.9306 0)
(15.0492 -19.8686 1.84618e-19)
(14.5473 -19.8248 -8.20547e-19)
(14.0814 -19.7625 1.00289e-18)
(13.6182 -19.741 0)
(13.2116 -19.7369 -1.72903e-18)
(12.8 -19.7302 1.70015e-18)
(12.4116 -19.7192 -2.25491e-19)
(12.0446 -19.7237 2.10997e-19)
(11.699 -19.7421 2.11939e-19)
(11.3903 -19.7771 2.12432e-19)
(11.1021 -19.8775 1.97762e-18)
(10.8106 -19.9049 -3.49798e-18)
(10.5283 -19.9546 3.48403e-18)
(10.2388 -20.0251 -3.41773e-18)
(9.99139 -20.113 1.4848e-18)
(9.86127 -20.0461 -2.17552e-19)
(6.81405 -7.87693 0)
(14.7701 -16.3229 7.42879e-19)
(16.1758 -18.7846 -3.71045e-19)
(15.6695 -18.7968 -6.36525e-19)
(15.1146 -18.7433 -3.94067e-20)
(14.5697 -18.7558 -3.45836e-20)
(14.0761 -18.716 8.8415e-19)
(13.5832 -18.7075 0)
(13.1616 -18.74 0)
(12.7473 -18.7601 0)
(12.3718 -18.8186 2.25483e-19)
(12.0061 -18.8479 0)
(11.6369 -18.8922 2.1327e-18)
(11.2924 -18.9297 -1.86051e-18)
(10.9653 -19.0114 1.88048e-18)
(10.657 -19.0951 -3.72386e-18)
(10.3375 -19.1378 1.84386e-18)
(10.0228 -19.2371 2.05687e-18)
(9.74593 -19.3481 -3.60999e-18)
(9.60745 -19.3155 1.9002e-18)
(7.16729 -7.58875 0)
(14.9956 -15.4595 0)
(16.1939 -17.5312 -2.12297e-19)
(15.6289 -17.5893 -2.20563e-19)
(15.0961 -17.5858 0)
(14.5512 -17.6244 -9.82484e-19)
(14.0697 -17.6495 9.65244e-19)
(13.5785 -17.6757 0)
(13.1482 -17.7419 -2.01375e-18)
(12.7199 -17.7946 1.98011e-18)
(12.309 -17.848 0)
(11.9151 -17.8927 2.02158e-18)
(11.534 -17.9351 -2.13609e-19)
(11.1823 -17.9949 -1.9867e-18)
(10.8445 -18.0731 0)
(10.5269 -18.1632 0)
(10.1908 -18.2651 0)
(9.8404 -18.305 1.74176e-18)
(9.52365 -18.3624 -1.95102e-18)
(9.25134 -18.4056 0)
(7.34022 -27.331 0)
(6.25919 -26.306 0)
(5.54265 -26.7504 3.67657e-21)
(4.8463 -26.348 3.80566e-21)
(4.17796 -26.47 0)
(3.58766 -26.1865 2.6607e-23)
(3.10848 -26.1318 -4.15277e-21)
(2.67968 -25.9497 0)
(2.31454 -25.7705 -4.41399e-21)
(1.96977 -25.617 0)
(1.66814 -25.5049 4.54923e-21)
(1.42331 -25.3667 2.3052e-21)
(1.15469 -25.3141 -2.31753e-21)
(1.00824 -25.1568 -4.72566e-21)
(0.756495 -25.1411 0)
(0.682296 -24.9047 1.20067e-21)
(0.401341 -24.2512 -5.92874e-21)
(0.477315 -21.5852 0)
(0.0992592 -15.3056 0)
(0.12548 -6.26654 -4.90822e-21)
(7.37466 -26.9532 -1.21325e-20)
(6.37851 -26.0242 0)
(5.60969 -26.5535 -1.87573e-20)
(4.85004 -26.1854 1.13824e-20)
(4.24786 -26.3088 0)
(3.67052 -25.9922 2.08519e-20)
(3.1877 -25.9557 -8.43555e-21)
(2.74054 -25.7892 0)
(2.36437 -25.6266 -4.51129e-21)
(2.00937 -25.4876 8.97461e-21)
(1.70478 -25.3961 -1.37312e-20)
(1.45418 -25.2741 1.85147e-20)
(1.18168 -25.2397 -1.40284e-20)
(1.0266 -25.0926 4.70637e-21)
(0.76815 -25.0924 4.76126e-21)
(0.698219 -24.8545 -4.82245e-21)
(0.408763 -24.2225 9.24904e-21)
(0.480573 -21.5357 1.21574e-20)
(0.0989543 -15.2468 6.11756e-21)
(0.129014 -6.23149 6.1338e-21)
(7.45268 -26.6055 -2.17423e-21)
(6.44902 -25.7614 1.32781e-20)
(5.67037 -26.2996 1.5518e-20)
(4.9256 -25.9202 0)
(4.31133 -26.1322 0)
(3.68975 -25.8715 -2.54108e-20)
(3.22875 -25.868 -3.13773e-22)
(2.77685 -25.7115 -2.16391e-22)
(2.40801 -25.5617 -2.03688e-22)
(2.04689 -25.4287 1.81394e-20)
(1.73983 -25.3438 0)
(1.48182 -25.2203 0)
(1.20691 -25.1891 0)
(1.04317 -25.0444 1.91187e-20)
(0.778236 -25.0447 0)
(0.711241 -24.8105 1.94234e-20)
(0.419369 -24.1977 -1.80925e-20)
(0.489406 -21.5172 -7.27862e-21)
(0.113241 -15.2244 -1.22103e-20)
(0.138323 -6.21027 -1.97072e-20)
(7.4834 -26.2499 -2.82813e-20)
(6.56537 -25.4851 5.75798e-20)
(5.79367 -26.1163 2.49134e-22)
(4.98554 -25.7755 -3.19418e-20)
(4.40032 -25.956 0)
(3.7656 -25.6676 -3.46659e-20)
(3.30453 -25.6939 8.79261e-20)
(2.83579 -25.5512 -5.35508e-20)
(2.45898 -25.4191 3.63154e-20)
(2.0875 -25.2988 -1.84591e-20)
(1.77511 -25.2348 -1.21817e-22)
(1.51128 -25.1268 1.88405e-20)
(1.2304 -25.113 -1.89322e-20)
(1.06177 -24.9772 -9.54233e-21)
(0.797714 -24.9951 -9.61816e-21)
(0.722647 -24.7634 -1.94137e-20)
(0.427824 -24.1735 2.19727e-20)
(0.494386 -21.4857 -9.73431e-21)
(0.113397 -15.1838 4.90041e-21)
(0.145668 -6.17784 1.96751e-20)
(7.60143 -25.9046 -5.13922e-20)
(6.66647 -25.2309 -1.48006e-20)
(5.81631 -25.8351 3.22099e-20)
(5.01085 -25.4918 -4.94064e-20)
(4.43534 -25.7893 0)
(3.78084 -25.5512 1.75647e-20)
(3.34271 -25.6065 -1.77614e-20)
(2.86791 -25.472 0)
(2.49559 -25.3522 1.8514e-22)
(2.11892 -25.237 0)
(1.80289 -25.1798 3.75236e-20)
(1.53265 -25.07 0)
(1.24952 -25.0597 0)
(1.07237 -24.9288 3.85616e-20)
(0.814966 -24.947 -1.93232e-20)
(0.734473 -24.7192 1.9574e-20)
(0.437136 -24.1522 0)
(0.50411 -21.4734 -4.7512e-21)
(0.122984 -15.169 4.86479e-21)
(0.15865 -6.15661 0)
(7.6467 -25.5796 -2.7899e-20)
(6.74453 -24.9376 3.12783e-20)
(5.91486 -25.6438 -8.41509e-20)
(5.08915 -25.3551 8.3914e-20)
(4.53329 -25.6059 -3.54584e-20)
(3.85851 -25.3467 -1.76195e-20)
(3.41846 -25.4356 3.65454e-20)
(2.92565 -25.3122 3.69388e-20)
(2.54721 -25.2113 -1.85031e-20)
(2.16027 -25.1066 -3.76541e-20)
(1.83613 -25.07 1.89501e-20)
(1.5598 -24.976 0)
(1.27003 -24.9818 0)
(1.08647 -24.8623 2.10201e-22)
(0.826728 -24.8967 1.94059e-20)
(0.74707 -24.6729 -1.9555e-20)
(0.4461 -24.1326 0)
(0.508414 -21.4584 3.50569e-20)
(0.119889 -15.148 3.62957e-20)
(0.167074 -6.12696 2.4635e-21)
(7.73606 -25.2494 9.00298e-20)
(6.84375 -24.6878 -9.48605e-20)
(5.98798 -25.3474 3.39268e-20)
(5.13783 -25.0743 0)
(4.55728 -25.4457 3.56092e-20)
(3.87168 -25.2302 -7.29243e-20)
(3.449 -25.3459 3.65101e-20)
(2.9514 -25.2302 -3.70429e-20)
(2.57642 -25.1423 0)
(2.18626 -25.0412 0)
(1.85662 -25.0116 -3.83234e-20)
(1.5753 -24.9162 3.84607e-20)
(1.28414 -24.9253 0)
(1.09541 -24.8124 -5.82485e-20)
(0.835256 -24.8492 1.94861e-20)
(0.75697 -24.6305 1.95849e-20)
(0.454923 -24.115 -1.63442e-20)
(0.51413 -21.4532 -4.15471e-20)
(0.122691 -15.1417 -2.2895e-20)
(0.180369 -6.10648 -4.91342e-21)
(7.84352 -24.9105 0)
(6.89348 -24.3903 6.80876e-20)
(6.03913 -25.1533 -6.82837e-20)
(5.18182 -24.9196 0)
(4.64294 -25.2482 0)
(3.94777 -25.0267 7.42343e-20)
(3.52589 -25.1782 -7.4461e-20)
(3.00842 -25.0721 0)
(2.62801 -25.0036 -3.82049e-20)
(2.22791 -24.9105 7.67706e-20)
(1.88742 -24.901 -3.85576e-20)
(1.60004 -24.8221 -3.88381e-20)
(1.30353 -24.8467 3.89559e-20)
(1.11052 -24.7452 0)
(0.851133 -24.7991 0)
(0.766235 -24.5869 1.96274e-20)
(0.463712 -24.0992 -2.44389e-20)
(0.520729 -21.4504 -1.03783e-24)
(0.119974 -15.1391 1.35935e-20)
(0.191403 -6.0809 -4.87548e-21)
(7.92057 -24.5526 -6.79129e-20)
(6.98418 -24.1237 6.81295e-20)
(6.17389 -24.8443 1.0926e-19)
(5.24703 -24.6499 -1.46385e-19)
(4.66914 -25.1019 1.48786e-19)
(3.96375 -24.9103 4.81237e-22)
(3.5474 -25.0842 -7.57844e-20)
(3.02663 -24.9863 0)
(2.64961 -24.9329 0)
(2.24866 -24.8409 -3.9006e-20)
(1.9012 -24.8386 0)
(1.61012 -24.7597 0)
(1.31387 -24.7884 0)
(1.11753 -24.6952 0)
(0.863256 -24.7509 0)
(0.773757 -24.545 0)
(0.471529 -24.0855 1.62754e-20)
(0.526384 -21.452 -1.76122e-20)
(0.11358 -15.1441 4.80399e-21)
(0.2046 -6.06123 -4.81308e-21)
(8.07941 -24.1773 2.72527e-20)
(7.02168 -23.8288 1.06339e-19)
(6.22525 -24.6558 3.75189e-20)
(5.30205 -24.4589 3.83615e-20)
(4.74365 -24.8871 -3.76601e-20)
(4.0388 -24.7086 -1.15228e-19)
(3.62473 -24.918 -3.90348e-20)
(3.0824 -24.8309 0)
(2.69972 -24.7971 3.90341e-20)
(2.28932 -24.7104 -7.88109e-20)
(1.92946 -24.727 -3.94987e-20)
(1.63249 -24.6662 -3.96624e-20)
(1.33277 -24.7098 0)
(1.12931 -24.6291 -3.96757e-20)
(0.873886 -24.7008 -3.93909e-20)
(0.78123 -24.5025 0)