/*--------------------------------*- C++ -*----------------------------------*\
  =========                 |
  \\      /  F ield         | OpenFOAM: The Open Source CFD Toolbox
   \\    /   O peration     | Website:  https://openfoam.org
    \\  /    A nd           | Version:  9
     \\/     M anipulation  |
\*---------------------------------------------------------------------------*/
FoamFile
{
    format      ascii;
    class       volScalarField;
    location    "3.8";
    object      p;
}
// * * * * * * * * * * * * * * * * * * * * * * * * * * * * * * * * * * * * * //

dimensions      [0 2 -2 0 0 0 0];

internalField   nonuniform List<scalar> 
46400
(
-112.907
-105.981
-91.0858
-79.0466
-67.6817
-57.4247
-48.2042
-39.6914
-31.9829
-24.8564
-18.325
-12.2829
-6.68469
-1.44269
3.46576
8.12806
12.4846
16.9458
21.653
23.5733
-86.671
-79.4902
-65.481
-54.3417
-43.9522
-34.4888
-25.9792
-18.1631
-11.1208
-4.62972
1.30928
6.74354
11.7371
16.3363
20.5898
24.5177
28.105
31.6383
34.9444
36.0952
-59.7153
-52.6758
-39.7777
-29.2042
-19.7142
-10.9361
-3.17723
3.9743
10.3867
16.2489
21.5816
26.452
30.8908
34.9586
38.6658
42.0516
45.0753
48.0151
50.5411
50.7333
-32.035
-24.6774
-13.4262
-3.75332
4.72027
12.5764
19.5415
25.8967
31.573
36.7342
41.411
45.6312
49.4525
52.9159
56.0712
58.9102
61.4394
63.8944
66.0697
66.1054
-3.4327
2.78783
12.7022
21.5534
29.1959
36.295
42.5119
48.1985
53.2381
57.7591
61.8202
65.4593
68.7014
71.5934
74.1755
76.4601
78.4246
80.3283
81.9014
81.4453
23.9743
28.771
37.848
46.0521
52.9609
59.3149
64.8252
69.7675
74.1252
77.9946
81.4444
84.4968
87.2124
89.6058
91.7361
93.594
95.1903
96.7211
98.0505
97.4158
49.9523
54.8441
63.4342
70.9252
77.082
82.6615
87.4197
91.6489
95.3235
98.5096
101.304
103.729
105.831
107.636
109.2
110.527
111.606
112.653
113.545
112.654
75.8783
81.2825
88.6242
95.1608
100.372
105.073
109.049
112.494
115.491
118.049
120.266
122.151
123.766
125.104
126.235
127.152
127.86
128.535
129.14
128.081
102.23
108.013
113.933
119.361
123.636
127.379
130.516
133.147
135.373
137.196
138.72
139.946
140.941
141.704
142.286
142.686
142.902
143.118
143.256
142
127.361
133.351
137.745
142.025
145.396
148.256
150.648
152.567
154.166
155.401
156.382
157.096
157.613
157.917
158.07
158.053
157.882
157.688
157.426
155.897
152.328
157.375
160.835
163.819
166.294
168.22
169.802
170.954
171.825
172.383
172.729
172.854
172.824
172.626
172.311
171.864
171.299
170.732
170.086
168.402
174.817
178.47
181.235
183.398
185.158
186.451
187.433
188.045
188.407
188.466
188.325
187.966
187.469
186.81
186.05
185.173
184.193
183.215
182.188
180.247
195.148
198.03
200.087
201.491
202.563
203.155
203.51
203.521
203.341
202.902
202.295
201.505
200.593
199.565
198.447
197.249
195.975
194.726
193.499
191.454
212.793
215.091
216.679
217.596
218.213
218.353
218.242
217.82
217.208
216.37
215.355
214.167
212.853
211.415
209.908
208.305
206.652
205
203.344
201.163
228.804
230.479
231.533
231.883
231.991
231.631
231.047
230.159
229.133
227.92
226.594
225.107
223.525
221.818
220.035
218.17
216.223
214.276
212.268
209.785
242.797
244.023
244.741
244.73
244.492
243.804
242.871
241.618
240.185
238.58
236.871
235.06
233.167
231.206
229.179
227.104
224.965
222.835
220.714
218.059
254.634
255.205
255.506
255.072
254.444
253.437
252.245
250.778
249.117
247.265
245.29
243.214
241.072
238.866
236.632
234.351
232.048
229.756
227.537
224.84
265.669
265.624
265.41
264.64
263.614
262.253
260.712
258.977
257.088
255.054
252.892
250.629
248.285
245.881
243.437
240.965
238.459
235.987
233.59
230.759
272.563
272.463
271.905
270.992
269.759
268.265
266.499
264.582
262.496
260.302
258.004
255.622
253.181
250.682
248.158
245.6
243.022
240.463
238.015
235.126
278.677
278.61
277.909
276.768
275.374
273.664
271.769
269.643
267.403
265.013
262.557
260.013
257.432
254.805
252.166
249.512
246.844
244.213
241.709
238.784
-222.751
-222.59
-222.822
-222.959
-222.829
-220.116
-217.424
-213.85
-210.361
-207.263
-204.043
-200.744
-197.748
-194.832
-192.018
-189.238
-186.54
-183.987
-181.505
-178.921
-223.175
-222.313
-223.054
-221.178
-220.19
-218.135
-214.728
-211.452
-208.213
-204.598
-201.161
-197.799
-194.63
-191.461
-188.408
-185.468
-182.618
-179.798
-177.062
-174.321
-222.477
-222.336
-222.729
-222.462
-219.326
-216.477
-212.822
-209.305
-205.561
-201.853
-198.215
-194.603
-191.175
-187.71
-184.452
-181.26
-178.178
-175.074
-172.16
-169.252
-223.814
-223.944
-222.474
-221.966
-219.26
-215.489
-211.774
-207.613
-203.548
-199.49
-195.56
-191.695
-187.959
-184.23
-180.767
-177.237
-173.919
-170.726
-167.639
-164.503
-227.643
-227.446
-226.716
-224.365
-220.494
-215.806
-211.112
-206.445
-201.8
-197.278
-192.874
-188.586
-184.476
-180.408
-176.594
-172.762
-169.247
-165.694
-162.399
-159.116
-231.921
-231.388
-230.727
-226.245
-221.455
-216.305
-210.676
-205.435
-200.182
-195.133
-190.249
-185.539
-181.018
-176.604
-172.483
-168.348
-164.565
-160.787
-157.317
-153.804
-239.78
-238.83
-237.111
-231.381
-224.313
-217.472
-211.018
-204.74
-198.699
-192.916
-187.387
-182.11
-177.087
-172.261
-167.738
-163.264
-159.241
-155.142
-151.525
-147.849
-249.196
-248.146
-243.083
-235.259
-226.87
-218.407
-210.73
-203.43
-196.54
-190.062
-183.931
-178.147
-172.667
-167.456
-162.574
-157.831
-153.532
-149.17
-145.408
-141.536
-256.866
-256.076
-248.045
-237.993
-227.745
-218.235
-209.358
-201.222
-193.521
-186.33
-179.594
-173.257
-167.295
-161.672
-156.406
-151.335
-146.746
-142.107
-138.147
-134.005
-262.709
-260.371
-249.66
-237.996
-226.705
-216.161
-206.384
-197.427
-189.09
-181.327
-174.081
-167.323
-160.983
-155.036
-149.462
-144.166
-139.325
-134.462
-130.313
-125.854
-263.341
-260.27
-249.023
-235.75
-223.391
-212.065
-201.588
-192.027
-183.102
-174.843
-167.18
-160.024
-153.353
-147.117
-141.288
-135.789
-130.759
-125.706
-121.651
-116.905
-259.403
-256.946
-244.279
-230.366
-217.58
-205.643
-194.686
-184.664
-175.368
-166.765
-158.79
-151.39
-144.496
-138.074
-132.079
-126.482
-121.279
-116.238
-112.046
-107.266
-254.968
-251.728
-238.321
-222.86
-209.428
-197.133
-185.711
-175.386
-165.786
-156.923
-148.752
-141.151
-134.104
-127.546
-121.441
-115.744
-110.465
-105.402
-101.078
-96.207
-245.999
-241.703
-227.249
-212.207
-198.36
-186.065
-174.547
-164.061
-154.386
-145.435
-137.172
-129.529
-122.438
-115.861
-109.751
-104.091
-98.8073
-93.8151
-89.5643
-84.6312
-234.197
-228.962
-214.727
-199.972
-185.763
-173.249
-161.591
-151.006
-141.234
-132.216
-123.941
-116.267
-109.183
-102.606
-96.5181
-90.8784
-85.6161
-80.7149
-76.4543
-71.5166
-219.488
-213.58
-199.184
-184.644
-170.451
-157.937
-146.392
-135.889
-126.27
-117.39
-109.23
-101.704
-94.7467
-88.3113
-82.3675
-76.8786
-71.7288
-67.0059
-62.8939
-57.9095
-202.225
-196.361
-181.252
-166.451
-152.88
-140.685
-129.413
-119.16
-109.729
-101.014
-93.0358
-85.6505
-78.8485
-72.5424
-66.7447
-61.3927
-56.3847
-51.8888
-47.8912
-43.0344
-182.31
-175.983
-160.831
-146.893
-133.515
-121.757
-110.845
-100.888
-91.8178
-83.4224
-75.7266
-68.6423
-62.1009
-56.0669
-50.5283
-45.4014
-40.5994
-36.4362
-32.7094
-27.8431
-160.787
-154.428
-138.884
-125.455
-112.719
-101.318
-90.896
-81.3305
-72.5921
-64.5027
-57.0966
-50.2489
-43.9358
-38.0857
-32.7218
-27.721
-23.1104
-19.2016
-15.5495
-10.2791
-137.395
-130.631
-115.499
-102.821
-90.6897
-79.9006
-70.0002
-60.9203
-52.6746
-45.0161
-37.968
-31.4468
-25.3769
-19.7178
-14.4123
-9.36005
-4.68465
-0.316697
4.43904
9.86859
-167.09
-152.06
-137.862
-131.576
-122.775
-118.784
-113.434
-109.847
-106.206
-102.862
-100.051
-96.9785
-94.6126
-91.8066
-89.6873
-87.203
-85.1664
-83.2493
-82.2109
-81.6068
-161.643
-147.412
-132.817
-126.963
-118.151
-114.345
-109.271
-105.992
-102.667
-99.5668
-97.0186
-94.1694
-92.0438
-89.4448
-87.5657
-85.2531
-83.3075
-81.5793
-80.73
-80.1573
-155.749
-142.571
-127.758
-122.288
-113.664
-110.175
-105.358
-102.216
-99.1433
-96.2518
-93.9628
-91.3266
-89.4356
-87.0255
-85.3491
-83.2161
-81.4791
-79.9726
-79.147
-78.6048
-150.085
-137.609
-122.565
-117.573
-109.036
-105.759
-101.265
-98.4072
-95.6698
-93.0052
-90.9775
-88.5561
-86.8959
-84.6884
-83.2515
-81.2814
-79.6492
-78.314
-77.6892
-77.1727
-143.957
-132.376
-117.33
-112.811
-104.553
-101.587
-97.4037
-94.6808
-92.2018
-89.7381
-87.9637
-85.75
-84.3177
-82.2955
-81.0624
-79.2579
-77.8458
-76.7124
-76.1388
-75.6531
-138.009
-127.04
-111.989
-107.979
-99.9318
-97.1798
-93.3718
-90.9124
-88.7783
-86.5369
-85.0192
-83.015
-81.8059
-79.9813
-78.9893
-77.3382
-76.1025
-75.0677
-74.7176
-74.2445
-131.645
-121.407
-106.606
-103.102
-95.4505
-92.9998
-89.5529
-87.231
-85.3646
-83.3178
-82.0459
-80.2441
-79.2549
-77.6124
-76.8314
-75.3322
-74.4276
-73.4709
-73.214
-72.7622
-125
-115.622
-101.083
-98.1953
-90.8103
-88.5958
-85.5722
-83.501
-81.9859
-80.1613
-79.1369
-77.5433
-76.7668
-75.3202
-74.7772
-73.4353
-72.7728
-71.841
-71.8329
-71.3804
-116.958
-109.711
-95.3379
-93.1992
-86.3296
-84.3922
-81.7887
-79.8633
-78.6193
-76.991
-76.201
-74.8077
-74.2384
-72.9751
-72.6353
-71.4582
-71.1299
-70.2366
-70.3757
-69.9366
-108.493
-103.473
-89.6459
-88.095
-81.7367
-79.9773
-77.8504
-76.1764
-75.2805
-73.8785
-73.3252
-72.1392
-71.7709
-70.7017
-70.5917
-69.5812
-69.4983
-68.663
-69.0312
-68.582
-100.587
-96.9745
-83.9517
-82.9359
-77.2671
-75.7525
-74.0887
-72.5819
-71.9572
-70.7567
-70.4259
-69.4378
-69.2636
-68.3764
-68.4633
-67.6269
-67.8486
-67.1199
-67.6076
-67.1758
-92.5454
-90.0859
-78.1337
-77.6924
-72.6855
-71.3402
-70.1838
-68.9457
-68.6568
-67.6888
-67.5832
-66.8006
-66.815
-66.1181
-66.4251
-65.7643
-66.2098
-65.6136
-66.3119
-65.8482
-83.7064
-83.0486
-72.2482
-72.3998
-68.2109
-67.0971
-66.4278
-65.3921
-65.3713
-64.6136
-64.7187
-64.132
-64.3264
-63.8077
-64.3044
-63.827
-64.555
-64.0991
-64.9922
-64.4812
-74.3003
-75.6502
-66.2474
-67.034
-63.6379
-62.6982
-62.5477
-61.8118
-62.1097
-61.591
-61.9095
-61.5257
-61.8947
-61.5597
-62.2652
-61.9712
-62.9104
-62.6301
-63.822
-63.1878
-64.0455
-68.0843
-60.1899
-61.644
-59.1825
-58.4723
-58.8088
-58.3201
-58.8788
-58.5779
-59.0945
-58.9022
-59.4345
-59.2694
-60.1549
-60.0526
-61.2488
-61.1428
-62.5611
-61.8572
-52.8502
-59.9218
-53.9329
-56.123
-54.5898
-54.0746
-54.9212
-54.7807
-55.6469
-55.5941
-56.3152
-56.3238
-57.0168
-57.0281
-58.1146
-58.2032
-59.5978
-59.62
-61.4022
-60.6246
-41.4784
-51.7213
-47.5836
-50.5045
-50.0105
-49.7456
-51.068
-51.2397
-52.3763
-52.5593
-53.4779
-53.681
-54.5283
-54.702
-55.9611
-56.2424
-57.8922
-58.0457
-60.3173
-59.3052
-29.7614
-43.8394
-41.6323
-45.2223
-45.678
-45.6201
-47.4008
-47.9234
-49.326
-49.7323
-50.8279
-51.2126
-52.1905
-52.506
-53.9247
-54.4008
-56.2046
-56.6433
-59.4653
-57.9962
-12.9698
-34.2154
-35.5048
-40.1408
-41.7251
-41.8854
-44.0316
-44.8996
-46.5336
-47.1395
-48.3834
-48.929
-50.0063
-50.4572
-52.0426
-52.7752
-54.6821
-55.5587
-59.0111
-57.2058
5.44419
-20.7571
-26.752
-32.4683
-35.473
-36.0372
-38.7207
-40.2925
-42.4168
-43.4428
-44.9861
-45.8169
-47.1205
-47.826
-49.7361
-50.6317
-53.218
-54.1511
-58.2868
-55.5381
34.7551
35.5577
21.5722
15.6516
5.40688
0.0972632
-6.26511
-10.596
-15.5671
-19.0689
-22.644
-25.2832
-28.2137
-29.7432
-32.2686
-32.8055
-36.9227
-37.72
-42.622
-37.8664
85.1005
73.7768
52.328
42.2366
29.8208
21.3313
13.0488
7.16507
1.89366
-2.65951
-6.83386
-10.4217
-13.7001
-17.0309
-19.761
-22.7768
-24.7258
-27.054
-28.1477
-28.2423
92.3173
80.2151
67.3045
57.8096
48.3487
40.457
32.9443
26.6338
20.9094
16.2905
11.9411
8.46911
5.35349
2.99884
0.70558
-1.00642
-2.76363
-4.20518
-4.80383
-5.11744
95.6322
87.6397
77.4686
68.754
60.1066
52.8887
46.0009
40.0176
34.4143
29.3674
24.9217
20.6996
16.9985
13.3443
10.4686
7.57314
5.5056
3.37061
2.5857
2.24998
89.7862
82.1181
75.3734
69.3861
63.374
57.7859
52.4872
47.6124
43.0692
38.9922
35.1831
31.8826
28.8171
26.1491
23.7622
21.5568
19.8503
18.0384
17.1138
16.7868
88.187
85.1527
79.6183
74.111
69.2473
64.2457
59.562
55.0857
50.8085
46.8169
43.0282
39.4972
36.199
33.1223
30.3257
27.7612
25.4861
23.5142
22.3225
21.8788
84.0142
79.4453
76.1637
72.7303
68.9483
65.555
61.9075
58.6598
55.2584
52.2373
49.1241
46.3537
43.5465
40.9811
38.4852
36.035
33.8151
31.4649
29.8131
29.6712
83.5618
81.5281
78.6312
75.488
72.1473
69.3138
66.1234
63.211
60.1434
57.3059
54.3695
51.6572
48.865
46.2758
43.6461
41.1283
38.7373
36.2041
34.6833
34.0389
81.2698
78.8378
76.8695
75.0817
72.8419
70.4799
68.1251
65.8368
63.4432
61.2274
58.8183
56.6457
54.2058
52.0037
49.4864
47.1115
44.4363
41.7534
39.6433
38.7338
82.0506
80.7881
78.9192
77.0231
74.9468
73.09
71.1
69.2192
67.1352
65.2408
63.0826
61.1706
58.8897
56.9216
54.4172
52.2752
49.2985
46.8999
44.0584
43.2926
81.2976
80.1149
78.8903
77.7864
76.4749
75.0857
73.5294
72.129
70.5551
69.148
67.5311
66.112
64.3729
62.9041
60.8988
59.2782
56.604
54.9057
50.9917
50.7611
82.4997
81.6463
80.5158
79.4507
78.2786
77.2562
76.047
75.0465
73.8272
72.8147
71.562
70.5692
69.2039
68.2762
66.6814
65.94
63.569
63.6311
59.3792
60.872
82.8033
82.2166
81.567
80.9813
80.2272
79.5939
78.8151
78.1494
77.4481
76.8354
76.2636
75.6998
75.3281
74.8071
74.6231
74.1441
73.972
73.9076
74.4298
76.1466
83.9983
83.575
82.9224
82.4735
81.9044
81.4847
80.9877
80.6602
80.2287
80.0483
79.7658
79.7232
79.7126
79.8279
80.2715
80.4218
81.7337
81.7408
84.6226
85.2272
84.9038
84.6424
84.2962
84.0567
83.7521
83.5759
83.3386
83.26
83.1489
83.2656
83.2716
83.6984
83.9283
84.7996
85.3227
86.831
87.9365
90.0536
92.7342
93.5503
85.7986
85.6165
85.3498
85.239
85.0657
85.0636
85.0233
85.1647
85.2962
85.5975
85.9558
86.5393
87.1173
88.0085
88.8916
90.27
91.4975
93.733
95.648
99.237
86.5795
86.4802
86.3554
86.3459
86.2903
86.3864
86.4088
86.6697
86.7913
87.2792
87.5293
88.2532
88.6938
89.7771
90.4549
91.9667
92.955
94.9926
95.9161
104.379
87.223
87.1528
87.079
87.1172
87.1877
87.3425
87.5533
87.838
88.1796
88.6221
89.1211
89.804
90.4281
91.3835
92.1066
93.4353
94.1467
95.9827
96.7563
99.6103
87.7118
87.7089
87.6787
87.771
87.8215
88.016
88.1529
88.4751
88.7609
89.243
89.6878
90.3352
90.9351
91.7758
92.5117
93.5428
94.331
95.5011
95.882
101.258
87.8706
87.8502
87.9077
87.9625
88.0982
88.2601
88.5366
88.8438
89.2409
89.7065
90.2372
90.8846
91.5452
92.3994
93.1643
94.2658
95.0681
96.496
97.1935
99.0953
203.869
201.984
199.335
196.157
192.304
187.827
182.551
176.866
170.462
163.546
155.469
146.904
137.86
128.23
118.275
107.609
96.9094
85.4975
74.4204
62.8057
176.637
175.523
174.191
172.485
170.641
168.317
165.982
163.065
160.146
156.735
151.602
146.967
142.827
139.02
134.598
130.04
125.238
120.178
114.188
107.397
139.778
139.128
138.244
137.396
136.257
135.182
133.811
132.452
130.866
129.171
127.263
125.481
123.24
121.04
117.745
114.268
110.967
107.94
105.075
102.78
127.66
127.213
126.682
126.111
125.444
124.738
123.91
123.076
122.05
121.132
119.915
118.921
117.561
116.534
114.67
112.252
109.846
107.604
105.346
103.39
109.667
109.298
108.856
108.428
107.9
107.401
106.798
106.211
105.535
104.876
104.096
103.387
102.446
101.629
100.408
99.441
97.8475
96.22
94.2504
92.7573
103.7
103.416
103.095
102.769
102.399
102.033
101.606
101.204
100.71
100.256
99.6856
99.165
98.5278
97.9689
97.2835
96.6722
95.9063
94.7427
93.4658
92.3036
95.4281
95.1761
94.8981
94.6152
94.2982
93.9863
93.6319
93.2939
92.8889
92.5099
92.0443
91.6245
91.078
90.6192
89.9681
89.3365
88.4141
87.4432
86.3249
85.4152
92.3597
92.1606
91.9421
91.721
91.4766
91.238
90.9677
90.7172
90.4167
90.1579
89.8141
89.545
89.1431
88.7898
88.3849
87.9798
87.435
86.7375
86.0432
85.4548
88.8741
88.6896
88.4841
88.2764
88.05
87.8195
87.5739
87.3222
87.0549
86.7786
86.4553
86.1174
85.6715
85.1622
84.5702
84.0629
83.5638
83.1207
82.5916
82.1805
87.4551
87.3017
87.1246
86.9441
86.7517
86.5594
86.3583
86.1552
85.9499
85.7351
85.521
85.2837
85.0513
84.7935
84.528
84.2534
83.9652
83.6838
83.3612
83.0831
86.4022
86.2602
86.0724
85.8688
85.6613
85.4586
85.2502
85.0455
84.8377
84.6365
84.406
84.1903
83.9429
83.7048
83.4524
83.1976
82.9461
82.6748
82.4275
82.1466
86.09
85.9878
85.8806
85.7698
85.6511
85.5292
85.398
85.2644
85.1203
84.9747
84.8176
84.6625
84.4896
84.3146
84.1217
83.9264
83.7162
83.5047
83.2745
83.0584
86.0864
85.9819
85.8646
85.751
85.6263
85.5015
85.368
85.2317
85.0887
84.94
84.7839
84.6232
84.4543
84.2873
84.1083
83.9333
83.7414
83.5542
83.3419
83.1386
86.5867
86.4993
86.4124
86.3203
86.229
86.1329
86.0358
85.9298
85.832
85.7236
85.6146
85.4976
85.3809
85.254
85.1278
84.993
84.8575
84.7161
84.5693
84.4222
86.8456
86.7623
86.6764
86.5904
86.5022
86.4132
86.3243
86.2379
86.142
86.0524
85.9618
85.8724
85.7818
85.6943
85.6043
85.5154
85.4259
85.3345
85.2452
85.1515
87.4641
87.392
87.3211
87.2482
87.1765
87.1028
87.0314
86.9543
86.8756
86.7963
86.7195
86.6377
86.5589
86.4784
86.3989
86.319
86.2395
86.1609
86.0819
86.0048
87.8091
87.7426
87.6754
87.6101
87.5444
87.4804
87.4152
87.3556
87.2981
87.2398
87.1808
87.127
87.0704
87.0163
86.9623
86.9091
86.857
86.8049
86.7546
86.7036
88.2795
88.2196
88.163
88.106
88.0522
87.9987
87.9471
87.8981
87.846
87.7883
87.7355
87.6841
87.6344
87.5859
87.5387
87.4935
87.4489
87.4065
87.3641
87.3243
88.5054
88.4459
88.3868
88.3298
88.2725
88.2192
88.1694
88.1213
88.082
88.0512
88.0186
87.9868
87.9563
87.9271
87.8986
87.8715
87.8444
87.8183
87.7936
87.7689
88.6306
88.5771
88.525
88.4758
88.4291
88.3828
88.3365
88.2906
88.2452
88.202
88.1609
88.1226
88.0874
88.0551
88.0258
87.9985
87.9727
87.9488
87.9272
87.9065
101.281
100.898
98.4323
96.2001
94.0169
91.6465
89.1168
86.3913
83.4016
80.1248
76.5242
72.5114
68.09
63.13
57.7307
51.524
44.8532
37.267
27.9711
22.8219
111.815
112.031
110.534
108.97
107.36
105.553
103.531
101.286
98.785
95.9843
92.8709
89.3773
85.4764
81.0843
76.2533
70.686
64.7166
57.6895
49.6493
44.5165
123.492
124.357
123.434
122.326
121.151
119.755
118.138
116.317
114.224
111.867
109.201
106.16
102.732
98.833
94.4965
89.4287
83.9708
77.3004
70.2481
66.2228
135.854
136.85
136.113
135.378
134.571
133.574
132.395
131.034
129.437
127.596
125.458
122.989
120.143
116.863
113.118
108.701
103.785
97.7272
91.1298
87.1632
147.641
148.889
148.539
148.196
147.813
147.256
146.522
145.627
144.489
143.135
141.497
139.552
137.254
134.553
131.427
127.655
123.433
118.138
112.12
108.127
159.613
161.02
160.936
160.921
160.886
160.699
160.363
159.882
159.202
158.345
157.232
155.875
154.188
152.175
149.726
146.741
143.336
138.913
133.995
129.446
170.525
172.084
172.394
172.745
173.089
173.304
173.39
173.368
173.168
172.815
172.233
171.436
170.34
168.959
167.188
165.006
162.41
158.998
155.449
150.68
181.077
182.892
183.582
184.304
185.026
185.638
186.138
186.531
186.768
186.874
186.773
186.505
185.958
185.189
184.046
182.615
180.751
178.403
175.829
171.689
190.979
192.939
193.944
194.96
195.975
196.903
197.733
198.492
199.136
199.68
200.046
200.243
200.185
199.926
199.342
198.524
197.267
195.704
193.604
190.639
199.905
202.075
203.433
204.795
206.18
207.497
208.747
209.941
211.022
212.002
212.784
213.403
213.781
213.996
213.909
213.615
212.899
211.909
210.333
208.068
208.505
210.837
212.47
214.121
215.788
217.388
218.913
220.355
221.667
222.864
223.896
224.832
225.587
226.214
226.548
226.708
226.42
225.895
224.731
222.995
215.649
218.178
220.121
222.074
224.039
225.946
227.781
229.549
231.225
232.807
234.281
235.658
236.866
237.936
238.704
239.29
239.419
239.353
238.617
237.372
223.146
225.865
227.874
229.948
232.033
234.063
236.023
237.939
239.769
241.539
243.208
244.782
246.197
247.478
248.497
249.337
249.739
249.996
249.576
248.818
228.674
231.327
233.494
235.735
238.01
240.253
242.477
244.679
246.842
248.972
251.025
253.013
254.853
256.551
257.995
259.193
260.012
260.712
260.722
260.489
233.441
236.302
238.678
241.133
243.606
246.051
248.463
250.84
253.158
255.395
257.521
259.517
261.331
262.977
264.412
265.682
266.773
267.633
267.971
268.031
237.252
240.158
242.546
245.061
247.602
250.139
252.645
255.156
257.611
260.044
262.393
264.686
266.862
268.949
270.871
272.676
274.193
275.396
276.11
276.241
239.904
242.851
245.341
247.965
250.636
253.286
255.929
258.543
261.122
263.629
266.071
268.383
270.597
272.593
274.442
275.933
277.185
277.943
278.632
278.664
241.442
244.445
246.915
249.553
252.231
254.91
257.566
260.234
262.845
265.453
267.959
270.454
272.777
275.084
277.101
279.095
280.459
282.245
282.918
284.72
241.638
244.682
247.242
249.957
252.687
255.429
258.13
260.847
263.496
266.128
268.658
271.13
273.455
275.667
277.673
279.508
281.041
282.365
283.133
283.565
240.547
243.484
246.09
248.792
251.537
254.245
256.963
259.635
262.303
264.885
267.443
269.862
272.22
274.372
276.413
278.159
279.73
280.88
281.699
281.818
-67.8376
-69.1177
-70.4063
-71.7854
-73.1099
-74.4837
-75.8142
-77.1835
-78.6731
-80.1068
-81.4534
-82.931
-84.7518
-86.9135
-88.44
-89.7322
-90.3062
-90.0534
-90.0491
-89.9653
-63.3906
-64.8916
-66.3395
-67.8651
-69.4144
-70.9959
-72.603
-74.242
-75.8673
-77.7043
-79.4808
-81.2407
-83.1102
-84.9452
-86.7579
-88.69
-88.9325
-89.9321
-89.5896
-89.7374
-58.8553
-60.4932
-62.0791
-63.7852
-65.5094
-67.2816
-69.0924
-70.9907
-72.9055
-74.8963
-76.9585
-79.1101
-81.1015
-83.3349
-85.7496
-87.3141
-88.7376
-89.6449
-89.2985
-89.4377
-54.3237
-56.1631
-57.9226
-59.8396
-61.7471
-63.7401
-65.7631
-67.8978
-70.0247
-72.2821
-74.5573
-76.8813
-79.369
-81.6197
-83.76
-85.9383
-88.0328
-88.2135
-89.4528
-88.8803
-49.6213
-51.6631
-53.5637
-55.5694
-57.6813
-59.9177
-62.1564
-64.5558
-66.9868
-69.5304
-72.1482
-74.8488
-77.5979
-80.4648
-83.3031
-86.2752
-88.6175
-89.8636
-91.1329
-91.1803
-44.9011
-47.0702
-49.1134
-51.3371
-53.5901
-56.0435
-58.5114
-61.1463
-63.8434
-66.6874
-69.6194
-72.6603
-75.8615
-79.0437
-82.5783
-85.7229
-88.638
-91.5729
-92.1396
-92.4897
-39.7652
-42.0688
-44.2264
-46.6191
-49.0596
-51.7323
-54.4579
-57.3853
-60.4337
-63.6509
-67.0317
-70.5791
-74.3012
-78.2043
-82.2928
-86.3826
-90.6501
-94.4641
-95.423
-96.3924
-34.3755
-36.7787
-39.0226
-41.6103
-44.1828
-47.0557
-50.0127
-53.1885
-56.5318
-60.1043
-63.8884
-67.9066
-72.2338
-76.8464
-81.7035
-87.0262
-92.6124
-97.7187
-101.153
-102.218
-28.2867
-30.8139
-33.1208
-35.8743
-38.612
-41.6524
-44.8494
-48.2838
-51.9451
-55.8654
-60.0625
-64.5563
-69.4265
-74.5985
-80.242
-86.3618
-93.0894
-99.4415
-105.378
-106.516
-21.674
-24.3137
-26.6654
-29.5222
-32.3836
-35.5584
-38.9318
-42.5614
-46.4486
-50.6532
-55.163
-60.0279
-65.3258
-71.002
-77.2944
-84.0465
-91.5337
-98.8363
-106.387
-108.135
-14.0815
-16.8748
-19.2502
-22.2221
-25.2072
-28.4839
-32.0245
-35.8399
-39.9492
-44.3992
-49.2068
-54.4036
-60.0757
-66.1881
-72.8926
-80.165
-88.054
-96.2858
-104.652
-106.23
-5.86324
-8.71845
-11.1553
-14.1063
-17.1899
-20.5283
-24.1577
-28.0819
-32.317
-36.9453
-41.9419
-47.3838
-53.3634
-59.8181
-67.0028
-74.8139
-83.3866
-92.969
-101.243
-103.059
3.34644
0.425531
-2.04362
-4.96429
-8.09161
-11.4581
-15.141
-19.1384
-23.4633
-28.1853
-33.312
-38.9052
-45.0375
-51.6959
-59.116
-67.1222
-76.1611
-86.0457
-95.7456
-98.454
13.1161
10.1715
7.75141
4.924
1.81724
-1.51434
-5.17289
-9.15389
-13.4726
-18.2243
-23.3735
-29.022
-35.23
-41.9804
-49.5196
-57.5818
-66.7634
-76.591
-86.3974
-89.5989
23.8371
20.9097
18.5523
15.8728
12.8302
9.57287
5.9841
2.05213
-2.22468
-6.92578
-12.0522
-17.6916
-23.8767
-30.672
-38.2468
-46.3651
-55.8522
-65.5954
-75.7981
-79.8013
35.1903
32.3157
30.0593
27.5404
24.6172
21.4734
18.0088
14.2092
10.0644
5.4794
0.492644
-5.01308
-11.0636
-17.7229
-25.1078
-33.0989
-42.3219
-51.9932
-62.3528
-66.5495
47.2862
44.5678
42.4469
40.1276
37.3656
34.3781
31.078
27.4316
23.4365
19.0265
14.2005
8.85741
3.00427
-3.49196
-10.668
-18.4584
-27.5437
-36.9033
-47.6617
-52.2247
59.793
57.3573
55.3967
53.269
50.7015
47.8936
44.7921
41.3641
37.6002
33.4222
28.8616
23.8059
18.2527
12.0744
5.32045
-2.13741
-10.7181
-19.2908
-30.5471
-35.5831
73.8088
71.1483
69.3117
67.3734
64.9535
62.2976
59.3812
56.1485
52.584
48.6499
44.3344
39.5417
34.2871
28.4179
22.0212
14.8437
6.82031
-1.54151
-12.6166
-17.6655
90.0538
87.1157
84.6025
82.3962
79.9501
77.286
74.4458
71.372
68.0314
64.3599
60.3656
55.9458
51.0881
45.6645
39.7678
33.0876
25.7251
17.7966
7.41157
2.16143
-26.0793
-26.5514
-26.9707
-27.6734
-28.8238
-29.8349
-30.8395
-31.8203
-32.7633
-33.7667
-34.7735
-35.7226
-37.0331
-37.8451
-39.8276
-40.6594
-44.0755
-47.0382
-53.4107
-62.3284
-24.9607
-25.3585
-25.6767
-26.2816
-27.2935
-28.1087
-28.9295
-29.7149
-30.4471
-31.2551
-32.0393
-32.7602
-33.7806
-34.3101
-36.1872
-36.8967
-40.2696
-42.7824
-49.4815
-57.5734
-23.7686
-24.1543
-24.4432
-24.8105
-25.6751
-26.3313
-26.9771
-27.5839
-28.1266
-28.7451
-29.3161
-29.864
-30.7152
-31.0812
-32.6833
-32.9986
-36.4446
-38.518
-45.5004
-52.6249
-22.6728
-22.9946
-23.1783
-23.4696
-24.182
-24.6487
-25.1031
-25.5274
-25.8579
-26.2866
-26.6349
-26.9563
-27.5075
-27.6092
-29.0956
-29.2448
-32.584
-34.0939
-41.2927
-47.6118
-21.5237
-21.8371
-21.9618
-22.047
-22.5949
-22.9047
-23.1917
-23.4373
-23.5817
-23.8259
-23.9615
-24.1211
-24.5032
-24.4251
-25.588
-25.3352
-28.6696
-29.6693
-37.0282
-42.2565
-20.461
-20.7286
-20.719
-20.7617
-21.136
-21.2569
-21.3537
-21.4175
-21.3555
-21.4148
-21.3331
-21.2797
-21.3472
-21.0149
-22.0321
-21.586
-24.73
-25.1038
-32.5094
-36.7856
-19.362
-19.6332
-19.5145
-19.3957
-19.5802
-19.546
-19.4742
-19.3648
-19.1184
-18.9986
-18.7057
-18.4896
-18.3837
-17.8717
-18.5185
-17.6797
-20.7011
-20.5538
-27.8758
-31.019
-18.3407
-18.5904
-18.289
-18.1701
-18.1523
-17.9286
-17.6687
-17.3771
-16.9303
-16.631
-16.1236
-15.6956
-15.2829
-14.5103
-14.9881
-13.9207
-16.6553
-15.8786
-22.9638
-25.1196
-17.2964
-17.5679
-17.0921
-16.8683
-16.6263
-16.2458
-15.816
-15.3569
-14.7271
-14.2552
-13.5414
-12.9508
-12.3395
-11.3928
-11.4687
-10.0236
-12.5256
-11.1554
-17.9122
-18.9822
-16.3227
-16.5972
-15.8704
-15.7082
-15.2313
-14.6506
-14.0335
-13.3965
-12.5735
-11.9261
-11.0043
-10.2067
-9.29069
-8.12254
-7.90373
-6.2604
-8.35649
-6.34358
-12.6175
-12.6327
-15.3341
-15.6365
-14.6895
-14.4581
-13.7446
-12.9899
-12.2069
-11.4039
-10.4017
-9.58707
-8.46679
-7.50531
-6.3693
-5.0111
-4.37465
-2.38552
-4.08103
-1.50647
-7.09373
-6.06604
-14.4096
-14.7444
-13.5262
-13.3109
-12.3825
-11.4112
-10.4456
-9.46686
-8.27661
-7.2931
-5.97102
-4.80712
-3.36393
-1.77243
-0.780084
1.39791
0.21685
3.45506
-1.36101
0.833409
-13.4714
-13.826
-12.3932
-12.0581
-10.9312
-9.76679
-8.63797
-7.49696
-6.13012
-4.98847
-3.4773
-2.14592
-0.472853
1.32624
2.7603
5.26115
4.61378
8.47663
4.55745
8.16769
-12.5988
-13.0195
-11.2654
-10.9037
-9.60593
-8.19881
-6.89131
-5.58007
-4.03028
-2.73339
-1.02526
0.507198
2.49162
4.55876
6.3865
9.06796
9.0373
13.6014
10.615
15.9943
-11.6907
-12.2184
-10.186
-9.65123
-8.20757
-6.57477
-5.10692
-3.64253
-1.92255
-0.4754
1.41185
3.11725
5.34119
7.63983
9.93064
12.9106
13.5404
18.7582
16.83
24.39
-10.8969
-11.5483
-9.1545
-8.48227
-6.84697
-5.01901
-3.37076
-1.73994
0.170522
1.77165
3.84276
5.73521
8.27793
10.8861
13.5946
16.75
18.1203
24.0627
23.335
33.5411
-9.99228
-10.7498
-7.86349
-7.1879
-5.44592
-3.35072
-1.53967
0.238815
2.31401
4.03678
6.27644
8.35518
11.1528
14.0275
17.1999
20.6458
22.8223
29.3879
30.0256
42.9894
-8.99763
-10.0365
-6.58583
-5.98345
-4.2254
-1.82483
0.135496
2.05929
4.28342
6.12887
8.52751
10.7972
13.9001
17.1196
20.7238
24.3732
27.2657
34.293
36.1513
52.0522
-8.6923
-9.65094
-5.78729
-4.92884
-3.32117
-0.473521
1.64337
3.74475
6.12783
8.11016
10.6852
13.1486
16.5129
20.112
24.1592
28.0787
31.8186
39.7683
43.5562
65.7214
-7.33536
-9.09733
-4.71583
-3.99269
-1.33145
1.50735
3.97184
6.17149
8.82606
11.0084
13.8532
16.6124
20.4663
24.4788
28.8713
32.8453
38.0023
47.1728
54.3402
82.6526
10.5655
3.73837
10.8363
9.99858
16.3915
16.5366
19.8374
21.4013
24.8587
27.7342
31.7822
35.5767
40.1949
44.512
51.0236
57.405
68.5026
76.1559
94.3762
102.687
16.6477
16.5019
17.7441
19.7858
22.5359
25.034
28.4091
31.4368
34.7554
38.3946
42.5109
47.4029
53.1269
59.9524
68.1025
76.9108
88.0273
98.8327
115.799
128.885
32.541
32.6316
33.6049
35.0159
37.2387
39.1087
41.6469
44.1358
47.4003
50.8487
55.0784
59.9129
65.1468
71.0862
77.3124
84.7961
92.6543
101.799
112.286
123.798
37.3191
37.5337
38.4698
40.5723
42.6164
45.3862
48.067
51.484
54.8177
58.9274
62.9614
67.6031
72.3817
78.1861
84.1153
91.0113
97.6963
105.705
112.165
119.66
46.0917
46.4417
47.413
49.3771
51.0393
53.3716
55.6466
58.2947
61.1366
64.2508
67.5743
71.2873
75.0732
79.4128
83.509
88.4676
92.7079
98.2672
103.039
109.189
48.9546
49.2021
50.3933
52.3969
54.5105
57.0614
59.5924
62.4394
65.3109
68.4823
71.6589
75.1598
78.5955
82.4447
86.0375
90.1634
93.691
97.7702
99.9
103.86
52.746
52.9941
54.3768
56.7643
58.861
61.2204
63.4875
65.8224
68.2484
70.6616
73.1916
75.7359
78.2893
80.9791
83.4351
86.2327
88.639
91.8438
93.9629
96.7406
55.158
55.7684
57.2092
59.6217
61.9497
64.2562
66.6484
68.8843
71.2662
73.5169
75.8622
78.1477
80.4271
82.7084
84.8449
87.4035
89.1787
90.8859
91.9551
93.6834
57.4183
58.1208
60.244
62.5941
65.1695
67.1949
69.4726
71.2732
73.331
75.0324
76.9214
78.5576
80.2908
81.8701
83.4137
84.6648
86.0759
87.6906
88.7293
89.9877
61.0051
61.5941
64.3429
66.3153
69.0434
70.7936
72.9489
74.507
76.3262
77.7719
79.3467
80.7115
82.0717
83.3582
84.7533
85.9755
86.8451
87.6673
88.193
88.7595
66.4068
66.4352
70.1092
71.2935
73.7824
74.9909
76.701
77.7476
79.1099
80.0705
81.2337
82.1199
83.1616
83.9648
84.6173
85.1539
85.7436
86.3729
86.9449
87.4309
76.0174
74.0845
77.8414
77.5835
79.5211
79.968
81.1057
81.6785
82.5427
83.1227
83.8282
84.3809
84.975
85.4731
86.0567
86.5575
86.9147
87.1214
87.2331
87.3346
89.1672
87.1713
86.0253
85.9692
85.8585
85.9338
85.832
85.9534
86.0134
86.164
86.359
86.5203
86.7842
86.9697
87.156
87.2433
87.3561
87.4098
87.4648
87.4537
97.2973
96.5348
93.3601
92.9363
91.3498
90.8849
90.1162
89.6775
89.3253
88.9875
88.8266
88.5902
88.514
88.3328
88.2836
88.1624
88.1332
88.0268
87.9673
87.8187
103.989
102.942
100.179
97.753
96.3359
94.658
93.8228
92.6018
92.0419
91.2902
90.9228
90.4063
90.1355
89.7642
89.5422
89.2445
89.0427
88.7787
88.5789
88.3122
109.073
105.232
102.739
100.538
99.0258
97.3801
96.2903
95.1829
94.3216
93.4258
92.7508
92.0872
91.5685
91.0589
90.6474
90.2411
89.9027
89.5575
89.265
88.9459
112.772
103.489
102.761
100.862
99.7501
98.2083
97.2608
96.0556
95.3042
94.3711
93.745
93.0026