/*--------------------------------*- C++ -*----------------------------------*\
  =========                 |
  \\      /  F ield         | OpenFOAM: The Open Source CFD Toolbox
   \\    /   O peration     | Website:  https://openfoam.org
    \\  /    A nd           | Version:  9
     \\/     M anipulation  |
\*---------------------------------------------------------------------------*/
FoamFile
{
    format      ascii;
    class       volScalarField;
    location    "0.5";
    object      nut;
}
// * * * * * * * * * * * * * * * * * * * * * * * * * * * * * * * * * * * * * //

dimensions      [0 2 -1 0 0 0 0];

internalField   nonuniform List<scalar> 
46400
(
0.0190784
0.00650558
0.00185402
0.00141632
0.00139247
0.00138414
0.00130958
0.00129833
0.00122221
0.00117329
0.00114402
0.00112242
0.00106593
0.00101719
0.000999154
0.000999216
0.000939378
0.000888631
0.00121415
0.0010176
0.0186991
0.00575898
0.00157928
0.00149426
0.00143919
0.00140996
0.00131829
0.00129105
0.00126202
0.00122662
0.00116654
0.00113889
0.00111972
0.00107795
0.00103616
0.00101809
0.000951437
0.000862844
0.00109576
0.000947065
0.0182816
0.00458896
0.00128633
0.00150187
0.00139222
0.00141226
0.00132744
0.00129828
0.00122779
0.00119222
0.00115755
0.00111966
0.00107709
0.00103497
0.00100259
0.000981733
0.000911883
0.000862939
0.00117242
0.00102117
0.0177772
0.00421362
0.00130356
0.00154961
0.00144422
0.001434
0.00134861
0.00131622
0.00128188
0.00123548
0.00118258
0.001146
0.00111551
0.00107427
0.00103496
0.00101648
0.000961269
0.000871372
0.00115968
0.00101072
0.0171565
0.00454009
0.00137028
0.00155506
0.00142115
0.00144067
0.00136306
0.00131794
0.00125719
0.00122744
0.00119059
0.00115131
0.00111768
0.00108284
0.001056
0.00103401
0.000983225
0.000940484
0.00123067
0.00107524
0.0165099
0.00497213
0.00143394
0.00161812
0.00147975
0.00146137
0.00138843
0.00134619
0.00129905
0.00124627
0.00120657
0.00115949
0.00112541
0.00108466
0.00104829
0.00103054
0.000976362
0.000923334
0.00122326
0.00109402
0.0158845
0.00483185
0.00148937
0.00161107
0.00146975
0.00145942
0.00139844
0.00134272
0.00129308
0.00124297
0.00121116
0.00118317
0.00114377
0.00110819
0.00107895
0.00104783
0.00100544
0.000918655
0.00118855
0.00110864
0.0146968
0.0040231
0.00150148
0.00163341
0.00149187
0.0014412
0.00139873
0.00135242
0.00131272
0.00125117
0.0011952
0.00115469
0.00114457
0.00109476
0.00107129
0.00105423
0.00100863
0.000951706
0.0011494
0.00106658
0.0128893
0.00309352
0.00151017
0.00156387
0.00149059
0.00141504
0.00137406
0.00133143
0.00130965
0.00126487
0.0012198
0.0011491
0.00111426
0.00108826
0.00104697
0.00103468
0.00100363
0.000955149
0.00116517
0.00106368
0.0103771
0.00255537
0.00159815
0.00155372
0.00149496
0.00141312
0.00134882
0.00129203
0.00128392
0.00126015
0.00123997
0.00119682
0.00114359
0.00108709
0.00104796
0.000987611
0.000951682
0.000898461
0.00107383
0.00104409
0.00823191
0.0020869
0.00152659
0.00151885
0.00150039
0.00141847
0.00136608
0.00126745
0.00122821
0.0011995
0.00119619
0.00116557
0.00116713
0.00114048
0.00111583
0.00107882
0.000989958
0.000926344
0.00101501
0.00095258
0.00685047
0.00187119
0.00154533
0.00148402
0.001509
0.00145258
0.0014091
0.00131644
0.00125499
0.00118717
0.00117351
0.00113413
0.00109408
0.001096
0.00108832
0.00110708
0.00108331
0.00102613
0.00113027
0.00100676
0.00555275
0.00168676
0.00152672
0.00141812
0.00142176
0.00141488
0.00142638
0.00132798
0.00126832
0.00118916
0.00113526
0.00111102
0.00105307
0.00100141
0.000983774
0.000972913
0.000992243
0.000969833
0.00112654
0.00107976
0.0049573
0.00164765
0.00152712
0.00141614
0.00138804
0.00132684
0.00141769
0.00141601
0.00136435
0.00130352
0.00124332
0.00118952
0.00115034
0.00107028
0.0010003
0.000937326
0.000876502
0.000839383
0.00090288
0.000914272
0.00448421
0.00169736
0.00165532
0.00146072
0.00135364
0.00121004
0.00117202
0.00120861
0.00123593
0.00120771
0.00119375
0.00117588
0.00116725
0.00115689
0.00111751
0.00108307
0.00101606
0.000946487
0.00098167
0.000916557
0.00433519
0.00166061
0.00166972
0.00164533
0.00161323
0.00142981
0.00129104
0.00119289
0.00117349
0.00114201
0.00110071
0.00107115
0.00105018
0.00103418
0.00102822
0.0010105
0.000996347
0.000942852
0.000989556
0.000936571
0.00363588
0.00147371
0.00145325
0.00144247
0.00152664
0.00151082
0.00145942
0.00136415
0.0012901
0.0012458
0.00119705
0.00114214
0.0011083
0.00106604
0.00104021
0.00101623
0.000989444
0.00095191
0.000994073
0.000939796
0.0034329
0.00154204
0.00156966
0.00147524
0.00140938
0.00140779
0.00136975
0.00132843
0.00127557
0.00121089
0.00117324
0.00112066
0.0010856
0.00105092
0.00102214
0.000999992
0.000972267
0.000926256
0.000982671
0.000912634
0.00314769
0.00160997
0.00151093
0.00149171
0.00140242
0.00133234
0.00129657
0.00125495
0.00125928
0.00121977
0.00120431
0.00115243
0.00111368
0.00106014
0.00102339
0.000980072
0.000947416
0.000877329
0.000918741
0.000860268
0.00108495
0.0010237
0.00152898
0.00132426
0.00143665
0.0013363
0.00138244
0.00128615
0.00126643
0.00119518
0.00117329
0.00112642
0.00110765
0.00106484
0.00104139
0.00100653
0.00097767
0.000913588
0.000962961
0.000868618
0.000676557
0.00537885
0.0105382
0.0114154
0.00686678
0.00255539
0.000374921
0.000181241
0.000305647
0.000428038
0.00040394
0.000362423
0.000365134
0.000340587
0.000325193
0.000409617
0.000427101
0.000380803
0.000450763
0.000508249
0.00149507
0.00856147
0.0119962
0.00971332
0.00466404
0.00100353
0.000166545
0.000285022
0.000430477
0.00042517
0.000356271
0.000376952
0.000347696
0.000397574
0.000418052
0.000438514
0.000381669
0.000395298
0.000530497
0.000561174
0.00265415
0.00983671
0.0122336
0.00791005
0.00244486
0.000148285
0.000204734
0.000405403
0.000444236
0.000427577
0.000427651
0.000411245
0.000431911
0.000430953
0.000395678
0.000445944
0.00043125
0.00047555
0.000595474
0.000571847
0.00284418
0.0112685
0.0117399
0.00602463
0.000929626
0.000206868
0.000385262
0.000473055
0.000521894
0.000476816
0.00043109
0.000443026
0.000418652
0.000445029
0.000474904
0.000509249
0.000436491
0.000516963
0.00061119
0.000575525
0.00567495
0.0121862
0.0105212
0.00373301
0.000251914
0.000306961
0.00053819
0.000595851
0.00050581
0.000488735
0.000493085
0.000483391
0.000504804
0.000512942
0.000483945
0.000505648
0.000474342
0.000590564
0.000621662
0.000543009
0.00796476
0.0127981
0.00946862
0.00164801
0.000306152
0.000537316
0.000629677
0.000592099
0.000605243
0.000583896
0.000538002
0.000534542
0.000511903
0.000522524
0.000542069
0.000563346
0.000498522
0.00060525
0.000610491
0.000556381
0.0104981
0.0129427
0.00828725
0.000751664
0.000242894
0.000661758
0.000744978
0.000699063
0.000642079
0.000591429
0.000582605
0.000575454
0.000587905
0.00058758
0.000563889
0.000569882
0.000537291
0.000657044
0.000597875
0.000532877
0.0132155
0.0129142
0.00632364
0.000401662
0.000559543
0.000802745
0.000796923
0.000702315
0.000702997
0.00068779
0.000642619
0.000621883
0.000598004
0.000601857
0.000611951
0.000615726
0.000548082
0.000649038
0.000587829
0.000558748
0.0150892
0.0128014
0.00439501
0.00026146
0.000712324
0.000867003
0.000848759
0.000815052
0.00076097
0.00069576
0.000675095
0.000666724
0.000667776
0.000653939
0.000632023
0.000625837
0.000589119
0.00070113
0.000592765
0.000558676
0.0166495
0.0125046
0.00291739
0.000178636
0.000900169
0.000967716
0.000900624
0.000816699
0.000797622
0.000781954
0.000738126
0.000702779
0.000674329
0.000674762
0.000683829
0.000671261
0.000601205
0.000703203
0.000602788
0.000610478
0.0171997
0.0121815
0.00200625
0.000369971
0.000942071
0.00098216
0.000959853
0.000915551
0.000866227
0.000793494
0.000762582
0.000751054
0.000740488
0.000714811
0.000693678
0.000673658
0.000641738
0.000754902
0.000622134
0.000631769
0.0180278
0.0117804
0.0014153
0.000571583
0.00112275
0.00106573
0.00102114
0.000923583
0.000890236
0.000873841
0.000827603
0.000779431
0.000742554
0.000738686
0.000744583
0.000715999
0.000643954
0.000747363
0.000642682
0.000684115
0.0187435
0.0113517
0.00124883
0.000817822
0.00110118
0.00106824
0.00106222
0.00100969
0.000959413
0.000886521
0.000850254
0.000836336
0.00081415
0.000779576
0.000756303
0.00072818
0.000704278
0.000805775
0.00066008
0.000702883
0.0191487
0.010954
0.00128623
0.000935774
0.00125431
0.00113314
0.00112353
0.00102421
0.00097988
0.000965916
0.000917184
0.000861886
0.000819165
0.00081294
0.000814089
0.000766961
0.000707294
0.000792878
0.00067012
0.000742709
0.0195547
0.0104733
0.00193226
0.00108512
0.00123497
0.00115561
0.00114661
0.00110739
0.00104757
0.000980089
0.000945344
0.000932344
0.000899957
0.000862094
0.000843284
0.000816083
0.000802916
0.000859876
0.00068269
0.000770395
0.019696
0.0102259
0.00213555
0.00114739
0.00135655
0.00121493
0.00120192
0.00111985
0.00107184
0.00105899
0.00100955
0.00095544
0.000913462
0.000909383
0.00090525
0.000848928
0.000814547
0.000856651
0.000661634
0.000779904
0.019828
0.00991301
0.00220249
0.00121029
0.00134166
0.00124172
0.00122044
0.00119881
0.00112998
0.00107175
0.00104406
0.0010357
0.000995981
0.00095905
0.000950617
0.000929772
0.000926344
0.000918077
0.00066347
0.000804623
0.0197683
0.0095971
0.00223996
0.00125363
0.00142084
0.00130084
0.001259
0.00120394
0.00115617
0.00113987
0.0010894
0.00104268
0.00101014
0.00100763
0.000995752
0.00095588
0.000967535
0.000952721
0.000668944
0.000840953
0.0196316
0.00852049
0.00194928
0.00130686
0.00138732
0.0013266
0.00127898
0.00127135
0.00119912
0.00114926
0.00112811
0.00112195
0.00107494
0.00103618
0.00103072
0.00103086
0.00104546
0.00103215
0.000747028
0.000858909
0.0193981
0.00777098
0.00225851
0.00137368
0.00143889
0.00136795
0.00129472
0.00126096
0.00122198
0.00119994
0.00114823
0.001119
0.00110643
0.00109503
0.00107585
0.00109224
0.0011171
0.00108204
0.000955984
0.00107188
0.00393544
0.00244273
0.00228926
0.00209223
0.00190343
0.00149402
0.0012472
0.00110936
0.000994339
0.000877915
0.000753251
0.000691048
0.000554398
0.000527177
0.000213867
0.000171868
0.00023547
0.00129223
0.00651728
0.0240075
0.00400096
0.00256114
0.00237436
0.00207571
0.00184246
0.00149985
0.00126006
0.00109998
0.000967475
0.0008547
0.000735343
0.00067853
0.000542291
0.000522357
0.000185266
0.000162492
0.000211539
0.0013006
0.0066325
0.0238575
0.00391416
0.00259491
0.00249415
0.00218775
0.00189045
0.00146837
0.00123249
0.00110158
0.000990244
0.000884063
0.000755224
0.000696724
0.000553556
0.000530395
0.000187845
0.000173163
0.000182372
0.0013057
0.00671526
0.0236453
0.00404234
0.00274232
0.00256357
0.0021675
0.00184765
0.00148484
0.00125766
0.00110077
0.000971309
0.000864378
0.000739681
0.000686162
0.000544048
0.000526398
0.000190358
0.000184785
0.000149226
0.00130863
0.00679979
0.0234699
0.0040709
0.00284894
0.00269357
0.00220095
0.00185707
0.0014579
0.00122928
0.00109518
0.00099305
0.00089385
0.000760608
0.000705732
0.000558309
0.000534494
0.000213911
0.000209247
0.000122633
0.00130954
0.00687709
0.0233429
0.00426597
0.00303628
0.00271482
0.00215505
0.00186578
0.00148656
0.00126084
0.00110324
0.000983349
0.000880165
0.000748059
0.000697671
0.000552451
0.000534486
0.000230687
0.000224853
9.18189e-05
0.00130841
0.0069489
0.0232028
0.0043509
0.00318833
0.0028252
0.00210887
0.00187812
0.00147242
0.00123514
0.00109419
0.00100067
0.000907946
0.000768925
0.000718315
0.000567867
0.000546185
0.000258226
0.000252276
7.40248e-05
0.00130491
0.00701555
0.0230623
0.00456678
0.00342116
0.00283404
0.00197007
0.00188921
0.00150872
0.0012689
0.00111223
0.000998992
0.000900416
0.000758999
0.000712791
0.000565237
0.000549917
0.000279062
0.000272914
6.42354e-05
0.00129952
0.00707334
0.022929
0.00463637
0.00349452
0.00293144
0.00193748
0.00190891
0.00150756
0.00124669
0.00110522
0.00101294
0.000926944
0.000779451
0.00073337
0.000581138
0.000564687
0.000310543
0.000305638
5.63402e-05
0.00129095
0.00712925
0.022811
0.0049582
0.00356338
0.00290865
0.00185149
0.00189931
0.00155204
0.00127926
0.00112678
0.00101362
0.00092266
0.000771678
0.000730087
0.000580875
0.000572155
0.000332472
0.000328506
5.00184e-05
0.00127925
0.00717893
0.0226968
0.00517557
0.00348735
0.00283869
0.00189734
0.00192303
0.00155817
0.00126763
0.00113
0.00102874
0.0009486
0.000791954
0.000749585
0.000595661
0.000589062
0.000365158
0.000363473
5.13396e-05
0.00126645
0.00723037
0.0225898
0.00537186
0.00352086
0.002799
0.00185693
0.00192555
0.00159633
0.00128865
0.00114431
0.00102729
0.000944712
0.000786409
0.000748692
0.000597684
0.000598939
0.000395966
0.000397553
5.30455e-05
0.0012566
0.00728073
0.0224943
0.0055316
0.00337665
0.00265815
0.00192715
0.00191749
0.00160548
0.00129373
0.00116073
0.00104606
0.000969904
0.000805903
0.000766149
0.0006114
0.000616064
0.000432035
0.000438508
5.43723e-05
0.00124809
0.00733003
0.0224109
0.0056423
0.00332699
0.00260019
0.00198411
0.00195296
0.00162895
0.00130078
0.00116363
0.00104072
0.000965893
0.000803113
0.000767724
0.000615525
0.000627656
0.000467414
0.000456735
5.59531e-05
0.00123778
0.0073776
0.0223289
0.00568132
0.00316029
0.00244303
0.00201684
0.00191346
0.00162597
0.00131813
0.00118903
0.00106114
0.000989321
0.000821335
0.000782882
0.000627955
0.000644428
0.000508455
0.000471744
5.79297e-05
0.00122527
0.00743113
0.0222931
0.00579041
0.00311629
0.00239327
0.00208858
0.00197452
0.00163337
0.0013163
0.00118382
0.00105221
0.000984963
0.000821506
0.000786452
0.00063422
0.000655389
0.000534271
0.000488457
6.11243e-05
0.00120291
0.0074653
0.0222398
0.00580584
0.00304649
0.0023173
0.00207015
0.00190797
0.00161287
0.00133865
0.00121339
0.00107145
0.00100516
0.000838033
0.000799207
0.000646222
0.000670401
0.00055654
0.000505676
6.63944e-05
0.00116313
0.00746322
0.0221876
0.00585587
0.00298602
0.00225431
0.00212956
0.00197957
0.00161209
0.00134076
0.00121048
0.00106421
0.00100436
0.000842729
0.000806881
0.00065441
0.000683636
0.000577284
0.000529629
6.75209e-05
0.00114593
0.00742028
0.0221527
0.00567897
0.00300114
0.00223348
0.00208814
0.00187181
0.00156197
0.00134248
0.00123135
0.00107778
0.00101791
0.000856344
0.000816095
0.000664044
0.000696023
0.00059615
0.000546692
8.78277e-05
0.00111319
0.00741912
0.0221404
0.00620852
0.00318921
0.00223927
0.00212077
0.00192596
0.00155287
0.00136349
0.00123982
0.00107645
0.00101669
0.000865672
0.000822826
0.000674063
0.000705693
0.000621205
0.000564962
0.000185383
0.000934521
0.00727522
0.0215333
0.0191159
0.0302258
0.0162043
0.0233207
0.0196155
0.0169597
0.01525
0.0140721
0.0119914
0.0114545
0.00985328
0.00933735
0.00753737
0.00769487
0.00723234
0.00641753
0.00451435
0.00700188
0.0735408
0.192123
0.0258319
0.0199077
0.018494
0.0159854
0.0149856
0.0134597
0.0125787
0.0105484
0.00979938
0.00910239
0.00807568
0.00759137
0.00600864
0.00623854
0.00696759
0.0052039
0.00344584
0.0109262
0.0905057
0.179839
0.0243568
0.0118067
0.0114342
0.00962854
0.0103813
0.00933765
0.00942282
0.00824508
0.00754049
0.00814686
0.00760392
0.00722624
0.00535574
0.0063199
0.00819904
0.0061349
0.00379767
0.0120132
0.0911253
0.176848
0.0127212
0.00597308
0.00690237
0.00663388
0.00743184
0.0076413
0.00810176
0.00678674
0.00592382
0.00691999
0.00702416
0.00614504
0.00389095
0.00424953
0.00727104
0.0040871
0.00358021
0.0133568
0.0918017
0.167373
0.00957509
0.00274221
0.00596468
0.00504841
0.005689
0.00331661
0.00546624
0.00439812
0.00398194
0.00560991
0.00585327
0.00578144
0.00286455
0.00300751
0.00793334
0.00468394
0.00467929
0.0163487
0.0920129
0.162622
0.00344666
0.000346509
0.00314935
0.00322013
0.0042124
0.0035761
0.00455091
0.0033161
0.00204004
0.00429257
0.00590404
0.00542483
0.00195953
0.00122066
0.00776819
0.00440321
0.00477979
0.0187131
0.092751
0.156879
0.00214396
0.0017193
0.00358663
0.0018854
0.00416443
0.00220643
0.0018005
0.00218575
0.000936139
0.00340188
0.00565097
0.0045098
0.00160469
0.000642967
0.00709428
0.00373491
0.00328739
0.0234223
0.0930031
0.152257
0.00513474
0.000445468
0.0011434
0.00214687
0.00301544
0.00164992
0.000988219
0.001965
0.00131318
0.00248772
0.00611201
0.00409238
0.00152708
0.000854597
0.00639561
0.00264575
0.00331937
0.0273288
0.0938275
0.146141
0.00254226
0.000600195
0.00237831
0.000657227
0.00278291
0.00134093
0.00202182
0.00222571
0.000919241
0.00248578
0.00594312
0.00246002
0.00193332
0.00330561
0.00601021
0.00234445
0.00278961
0.0309205
0.095092
0.140565
0.00128641
0.00155497
0.00169751
0.0019018
0.00137243
0.00119624
0.00142387
0.00222962
0.001607
0.00304442
0.00529965
0.000885872
0.000938519
0.00465996
0.00527995
0.0029178
0.00415467
0.0331425
0.0971764
0.134939
0.000824702
0.000390706
0.00159177
0.0015096
0.0016384
0.0016094
0.000571354
0.00145757
0.00244072
0.00340948
0.00491737
0.00289134
0.00252788
0.00532006
0.00533781
0.0047336
0.00189707
0.03646
0.099056
0.128642
0.000848725
0.00134507
0.00115545
0.00133064
0.00106282
0.00164464
0.00124268
0.00198787
0.00262188
0.00299397
0.00479356
0.00498153
0.00469416
0.00607818
0.00702648
0.00594381
0.00375306
0.0315688
0.0995519
0.127685
0.000657867
0.00100255
0.000805103
0.00103937
0.00104335
0.00149266
0.00163143
0.00197571
0.00270329
0.00299924
0.00462297
0.00512816
0.00479981
0.0061048
0.00788627
0.00762051
0.004375
0.0190133
0.0996188
0.141088
0.000485971
0.000920489
0.000621527
0.0009735
0.000680063
0.0012417
0.00127316
0.00149518
0.00221283
0.00275975
0.00278071
0.00440002
0.00323232
0.0053228
0.00658801
0.00934953
0.00211786
0.0158722
0.0957668
0.163489
0.000427233
0.000729014
0.000321238
0.000892401
0.000565826
0.000933071
0.000812408
0.00105449
0.00117732
0.00213752
0.00191392
0.00247457
0.00152144
0.00387024
0.0030184
0.00547788
0.00869029
0.00948435
0.0664923
0.186839
0.000120877
0.000546895
0.000185495
0.000782244
0.000249766
0.000915846
0.000321207
0.000740077
0.000225466
0.000440123
0.00191253
0.0022941
0.00261861
0.00367373
0.00427764
0.00476173
0.00622499
0.0107473
0.026834
0.144288
0.000430783
0.000489747
0.00045633
0.000656199
0.000697181
0.000825727
0.000864236
0.00105396
0.000453113
0.00109539
0.00125651
0.0023547
0.00216996
0.00298887
0.00266507
0.00357389
0.00355738
0.00552743
0.00665566
0.0820751
0.000406526
0.000357207
0.000448526
0.000496423
0.000599955
0.000692069
0.000692786
0.000840577
0.000988232
0.000737532
0.000692184
0.00129169
0.0015476
0.00161687
0.00185336
0.00223291
0.00247716
0.00298329
0.00376875
0.033833
0.000221676
0.000306489
0.000344654
0.000359825
0.000363347
0.000442911
0.00054433
0.000653176
0.000843649
0.000589795
0.000657594
0.000923249
0.00100248
0.00106012
0.00133827
0.00126412
0.00161591
0.00192124
0.00308676
0.0113005
0.000170864
0.00024041
0.000240744
0.000308319
0.000352496
0.000413653
0.000524103
0.000497981
0.000699527
0.000620738
0.000892478
0.000981077
0.000972986
0.00111483
0.00117401
0.00124529
0.00137141
0.000988192
0.00106539
0.00577777
0.0132965
0.013433
0.0135892
0.0135224
0.0135517
0.0136134
0.0137542
0.0134479
0.0125906
0.0130693
0.0126622
0.0124219
0.0125831
0.0119086
0.0112025
0.00943026
0.00942274
0.0104178
0.00948577
0.00978605
0.0064711
0.0065694
0.00662012
0.00660098
0.00656332
0.00661823
0.0063659
0.00639697
0.0066004
0.00626925
0.00607348
0.00755703
0.00746416
0.00627638
0.00594799
0.00681856
0.00670023
0.00632865
0.00698962
0.00848414
0.00375127
0.00391557
0.00397239
0.00403479
0.00412221
0.00414368
0.00420526
0.00432489
0.00408573
0.00432542
0.00433223
0.00399409
0.00359604
0.00374277
0.00378395
0.00404545
0.00344604
0.00382814
0.00346253
0.00561663
0.00242361
0.00264409
0.00262217
0.00264034
0.00262565
0.00259142
0.00255903
0.00244575
0.00243035
0.00231542
0.00215491
0.00237707
0.00240947
0.00245445
0.00229108
0.00236031
0.0023588
0.00284555
0.00307239
0.00559372
0.00167726
0.00193874
0.00183921
0.00182372
0.00180983
0.00179711
0.00176107
0.0017378
0.00171413
0.0017508
0.00185219
0.00180966
0.0017262
0.00181355
0.00175638
0.00182476
0.0018041
0.00211873
0.00248101
0.00499181
0.00149473
0.00182005
0.00156969
0.00151203
0.00146873
0.00143755
0.00138378
0.00133424
0.00130976
0.0013174
0.00132668
0.00136948
0.00141627
0.0014315
0.00141056
0.00136815
0.00133202
0.00179434
0.00277582
0.00441582
0.00137443
0.00168638
0.00133522
0.00123564
0.00118207
0.00111451
0.00105545
0.000991773
0.000997727
0.00100325
0.00104715
0.00108624
0.00114345
0.00116163
0.00120838
0.00118362
0.00116909
0.00143587
0.00153365
0.00296239
0.0014508
0.00166559
0.0012228
0.00110682
0.00101094
0.000929702
0.00087733
0.000832532
0.000846589
0.000848704
0.0008622
0.000884065
0.000844441
0.00075832
0.000800143
0.000789192
0.000799311
0.000830153
0.000822514
0.00194659
0.00111436
0.00114989
0.00078721
0.000723042
0.000648718
0.000591874
0.000549414
0.000535026
0.000535388
0.0005577
0.000541933
0.000601179
0.000510181
0.000476785
0.000496731
0.000643614
0.000670558
0.000744214
0.000640474
0.000830095
0.000610648
0.000537334
0.000450756
0.000420994
0.000376686
0.000345975
0.000315985
0.000313057
0.000306966
0.00031054
0.000297783
0.000323198
0.000268953
0.000300315
0.000240015
0.00034152
0.000286468
0.000385025
0.000320858
0.000194005
0.000227203
0.000208141
0.000185546
0.000187327
0.000162824
0.000161593
0.000132786
0.000165456
0.000147352
0.000176019
0.000166446
0.000203008
0.00018617
0.000271143
0.000280696
0.000335851
0.000188536
0.000265019
0.000115075
6.38443e-05
9.69883e-05
9.65744e-05
8.19547e-05
8.59287e-05
7.16317e-05
8.39836e-05
6.48158e-05
9.91349e-05
8.06102e-05
0.000101071
9.31098e-05
0.000103879
0.000110171
0.000121722
7.54722e-05
0.000138578
8.9239e-05
0.000147743
0.000111794
0.00014998
4.21653e-05
4.23942e-05
3.70033e-05
3.26715e-05
4.64349e-05
1.86805e-05
4.51632e-05
5.93383e-05
5.74209e-05
6.69007e-05
6.67848e-05
6.14197e-05
8.28489e-05
0.000102271
9.40446e-05
0.000150269
8.72979e-05
0.000158187
3.9086e-05
0.000105203
1.29613e-05
1.15425e-05
2.36682e-05
3.41909e-05
4.5385e-05
4.21755e-05
4.80641e-05
6.46663e-05
5.57105e-05
7.22051e-05
5.8448e-05
8.98763e-05
5.64068e-05
8.98631e-05
6.24849e-05
0.000124045
0.000104891
0.000181062
0.000116384
0.000173348
6.0404e-05
7.29256e-05
4.93747e-05
6.94591e-05
1.88142e-05
6.55346e-05
5.31617e-05
6.23951e-05
5.7485e-05
6.5155e-05
6.03822e-05
6.47431e-05
6.69171e-05
7.13809e-05
7.52066e-05
8.06499e-05
7.27742e-05
8.53594e-05
0.00012169
0.000182053
8.41255e-05
7.53883e-05
7.81524e-05
7.85925e-05
7.86811e-05
6.86186e-05
7.21694e-05
7.20838e-05
7.3258e-05
7.79027e-05
7.86886e-05
8.55395e-05
8.2926e-05
9.02394e-05
8.06459e-05
9.49735e-05
4.49178e-05
8.69487e-05
2.45024e-05
0.000124028
5.60263e-05
5.41379e-05
5.68898e-05
5.97968e-05
6.85475e-05
7.24715e-05
7.49326e-05
7.03307e-05
7.19737e-05
6.92146e-05
7.29707e-05
6.47449e-05
7.94265e-05
7.67248e-05
8.7673e-05
9.15869e-05
9.08622e-05
0.000106708
8.51733e-05
0.000103253
4.93628e-05
5.32141e-05
5.31683e-05
5.80294e-05
5.60215e-05
5.81319e-05
4.53634e-05
5.54158e-05
4.73723e-05
5.81329e-05
5.49726e-05
5.95656e-05
6.22046e-05
6.30298e-05
6.56826e-05
7.12029e-05
7.08982e-05
7.84807e-05
8.22002e-05
8.51557e-05
3.23406e-05
3.25154e-05
3.18881e-05
3.13898e-05
3.13615e-05
3.16409e-05
3.49773e-05
3.55743e-05
3.92399e-05
3.77842e-05
4.10899e-05
4.00933e-05
4.36607e-05
4.34217e-05
4.89241e-05
4.97572e-05
4.88175e-05
5.6867e-05
4.71563e-05
6.27801e-05
8.73287e-06
8.54991e-06
1.01773e-05
1.15092e-05
1.31699e-05
1.41207e-05
1.59887e-05
1.70234e-05
1.89374e-05
1.9591e-05
2.3162e-05
2.32076e-05
2.82136e-05
2.7318e-05
3.21513e-05
3.05066e-05
3.38449e-05
3.51834e-05
3.59169e-05
5.24518e-05
0.00101841
0.00121194
0.000892356
0.000943997
0.00100213
0.00100159
0.00101832
0.00106629
0.00112152
0.00114233
0.00117036
0.00121907
0.00129623
0.0013085
0.00138318
0.00139135
0.00141636
0.00184274
0.00648688
0.019077
0.000956366
0.00109481
0.0008565
0.000945331
0.00101245
0.00103143
0.00107317
0.00111553
0.00113478
0.00116235
0.0012217
0.00125764
0.00128885
0.00131807
0.00140946
0.0014398
0.00149672
0.00157796
0.0057594
0.0186966
0.00101568
0.00116441
0.000864858
0.000913965
0.000983814
0.00100471
0.00103656
0.00107837
0.00111975
0.00115665
0.00119026
0.00122647
0.00129792
0.0013279
0.00141211
0.00139213
0.00150088
0.00128709
0.00457669
0.0182771
0.00101373
0.00115745
0.000869009
0.000957048
0.00101283
0.00103253
0.00107162
0.00111308
0.00114309
0.00117957
0.00123163
0.00127886
0.00131493
0.00134846
0.00143257
0.0014443
0.00154966
0.00130528
0.00422054
0.0177704
0.00107204
0.00122314
0.000938561
0.000981382
0.00103362
0.0010566
0.00108352
0.00111919
0.0011523
0.001191
0.00122702
0.00125793
0.00131834
0.0013627
0.00143883
0.00141915
0.00155099
0.00136954
0.00453157
0.0171509
0.00109245
0.00121817
0.000923947
0.000976304
0.00103137
0.00104966
0.00108555
0.00112652
0.00116005
0.00120722
0.0012457
0.00129816
0.00134407
0.00138578
0.00145689
0.00147607
0.00161336
0.00143181
0.00495641
0.0164985
0.00110756
0.0011863
0.000921595
0.0010072
0.00104979
0.00108123
0.00111006
0.00114675
0.00118621
0.00121331
0.00124296
0.00129236
0.00133988
0.00139526
0.00145506
0.00146645
0.00160795
0.00148454
0.00481849
0.0158627
0.00107715
0.00115673
0.000955016
0.001013
0.0010572
0.00107411
0.00109739
0.0011483
0.00115688
0.00119598
0.00124954
0.00130966
0.00134787
0.00139518
0.00143652
0.00149068
0.00162856
0.00149922
0.0040464
0.0146922
0.00107005
0.00116376
0.000955145
0.00100429
0.0010358
0.00104917
0.0010908
0.00111673
0.00114932
0.00121857
0.00126126
0.00130584
0.00132813
0.0013723
0.00141349
0.00149067
0.00155976
0.00151455
0.00311003
0.0129277
0.00105056
0.00107395
0.000899155
0.000955044
0.000990878
0.00105134
0.00108869
0.00114283
0.00119342
0.00123639
0.00125656
0.00128336
0.00129264
0.00135183
0.00141507
0.00149687
0.00155385
0.00160027
0.00257868
0.0104679
0.000964062
0.00101542
0.000929601
0.000994399
0.00108151
0.00111746
0.00113961
0.00116495
0.00116306
0.00119559
0.00120114
0.00123299
0.00127252
0.00137202
0.00142071
0.00150306
0.00151922
0.00153157
0.00211017
0.00834333
0.00101979
0.00113015
0.00103021
0.00108651
0.00110887
0.00108957
0.00109645
0.00109565
0.00113621
0.00117815
0.00119266
0.00126145
0.00132097
0.00141164
0.00145167
0.0015096
0.00148429
0.00154884
0.00188851
0.00696591
0.0010923
0.00111723
0.000970186
0.00099117
0.000971491
0.00098312
0.00100243
0.00105624
0.00111494
0.00113866
0.00118977
0.00126723
0.00132331
0.00142108
0.00140969
0.00142192
0.00141799
0.00153019
0.00169714
0.00566607
0.000921104
0.000887372
0.000839019
0.000874386
0.000935813
0.00100114
0.00107339
0.00115451
0.00119378
0.00124619
0.00130468
0.00136405
0.00141533
0.00141859
0.00132988
0.00139446
0.00141886
0.00153139
0.00165057
0.00506247
0.000930962
0.000974731
0.000953951
0.00101903
0.0010865
0.0011203
0.00115949
0.00116745
0.00117649
0.00119416
0.00121
0.00123965
0.0012144
0.00118024
0.00121795
0.00136281
0.00146312
0.00165753
0.0016909
0.00456533
0.000953675
0.000984611
0.000954239
0.00100183
0.00101697
0.00103345
0.00104129
0.00105514
0.00107775
0.00110563
0.0011499
0.00118048
0.00120135
0.00129746
0.00143438
0.00161434
0.00163992
0.00166806
0.0016481
0.00441583
0.00095962
0.000992114
0.00096651
0.00099677
0.00102341
0.00104502
0.00107267
0.00111148
0.00114803
0.00119862
0.00125026
0.00128835
0.00136789
0.00145785
0.00151852
0.00152665
0.0014502
0.00146196
0.00146804
0.00358462
0.000934245
0.000980107
0.000940134
0.000978459
0.00100691
0.00102628
0.00105758
0.00108773
0.00112803
0.00117502
0.00122066
0.00127688
0.00134083
0.00136885
0.00142134
0.0014018
0.00149102
0.00156277
0.00152571
0.00334654
0.00088391
0.000921294
0.000894393
0.000955987
0.000988267
0.00102949
0.0010688
0.0011183
0.00116274
0.00120799
0.00123472
0.0012628
0.00127743
0.00129915
0.00136483
0.00140824
0.00155502
0.00154408
0.00169322
0.00291214
0.000892549
0.000960311
0.000926598
0.000983677
0.00101365
0.00104529
0.00107366
0.00110985
0.00113815
0.00117375
0.00121178
0.00126177
0.00131107
0.00137344
0.00138262
0.00143159
0.00144141
0.0015488
0.0018116
0.00136063
0.000513308
0.000458643
0.000382597
0.000428927
0.000412868
0.000328855
0.000343591
0.000365281
0.000360888
0.000398675
0.00042183
0.000302375
0.0001806
0.000379282
0.0025582
0.00687316
0.0114172
0.0105332
0.00537367
0.000677373
0.000564728
0.000538258
0.000400137
0.000385184
0.000441795
0.000422027
0.000401906
0.000350732
0.000378398
0.000355253
0.000420056
0.00042462
0.00028327
0.000167057
0.00100518
0.00466921
0.00971624
0.0119936
0.0085541
0.00149031
0.000574507
0.000602033
0.000480472
0.000434466
0.000448802
0.000398966
0.000435082
0.000434407
0.000412772
0.000426853
0.000424057
0.000438787
0.000401665
0.000202999
0.000149272
0.00245487
0.00791569
0.0122334
0.00983388
0.00265221
0.00057214
0.000613083
0.000523233
0.00044079
0.000512886
0.000478226
0.000449311
0.000423084
0.00044603
0.000432108
0.00047389
0.00051716
0.000469951
0.000383956
0.000206232
0.000935019
0.00602937
0.0117432
0.0112645
0.00283659
0.000543188
0.000623158
0.000593015
0.000477568
0.000508158
0.000487442
0.000517441
0.000507964
0.000486603
0.00049479
0.000487106
0.000500384
0.000591271
0.000536489
0.000305945
0.000254372
0.00374487
0.0105242
0.0121831
0.00566834
0.000552326
0.000609191
0.000608854
0.000502466
0.000566348
0.000543521
0.000525951
0.000516848
0.000538376
0.000540193
0.000582666
0.000600708
0.000588613
0.000627487
0.000536293
0.00030617
0.0016572
0.00947356
0.0127967
0.00795914
0.00053325
0.000597564
0.000657212
0.000539129
0.000571871
0.000566786
0.000591071
0.000590551
0.000579136
0.000585691
0.000591031
0.000636954
0.000694155
0.000742632
0.000659821
0.000240468
0.000756019
0.00829168
0.0129415
0.0104931
0.000556431
0.000587266
0.000651469
0.000550653
0.000617181
0.00061161
0.000604273
0.000602489
0.000625828
0.000645067
0.000687341
0.000698855
0.000697623
0.000794488
0.000801447
0.000556423
0.00040146
0.00633715
0.0129152
0.0132082
0.000559768
0.000593703
0.000701764
0.000590418
0.000627063
0.000633639
0.00065592
0.000669619
0.000670423
0.000678922
0.000695948
0.000755859
0.000809693
0.000846337
0.000864321
0.000709438
0.000262127
0.00440847
0.0128019
0.0150856
0.000610751
0.000604673
0.000705665
0.000602911
0.000671519
0.000682734
0.000676686
0.00067823
0.000706554
0.000740425
0.000781734
0.000793926
0.000811854
0.000897762
0.000965875
0.000897197
0.000174032
0.00292623
0.0125075
0.0166477
0.000633486
0.00062526
0.000757174
0.000642629
0.000674798
0.000694709
0.000716055
0.000742108
0.000754777
0.00076667
0.00079371
0.000861038
0.000910128
0.000957032