/*--------------------------------*- C++ -*----------------------------------*\
  =========                 |
  \\      /  F ield         | OpenFOAM: The Open Source CFD Toolbox
   \\    /   O peration     | Website:  https://openfoam.org
    \\  /    A nd           | Version:  9
     \\/     M anipulation  |
\*---------------------------------------------------------------------------*/
FoamFile
{
    format      ascii;
    class       surfaceScalarField;
    location    "0.5";
    object      phi;
}
// * * * * * * * * * * * * * * * * * * * * * * * * * * * * * * * * * * * * * //

dimensions      [0 3 -1 0 0 0 0];

internalField   nonuniform List<scalar> 
92080
(
-0.00160873
-0.45889
0.460498
-0.0235721
-0.922002
0.943966
-0.0624624
-1.00897
1.04786
-0.102635
-0.993243
1.03342
-0.142098
-0.976756
1.01622
-0.181283
-0.960969
1.00015
-0.219712
-0.946878
0.985307
-0.257414
-0.933135
0.970837
-0.294959
-0.919838
0.957383
-0.332523
-0.907162
0.944725
-0.369254
-0.896983
0.933714
-0.404919
-0.886167
0.921831
-0.440884
-0.875586
0.911552
-0.476929
-0.866054
0.902098
-0.511741
-0.858662
0.893474
-0.545726
-0.849521
0.883506
-0.579243
-0.840924
0.874441
-0.611077
-0.832171
0.864005
-0.640902
-0.823074
0.852898
-0.815915
0.843567
-0.668553
-0.00326139
-0.455628
-0.0285588
-0.896705
-0.0704759
-0.967053
-0.112806
-0.950913
-0.153947
-0.935615
-0.194622
-0.920294
-0.234989
-0.906511
-0.274781
-0.893343
-0.313732
-0.880888
-0.352643
-0.86825
-0.391823
-0.857803
-0.430686
-0.847303
-0.468487
-0.837786
-0.506577
-0.827964
-0.544772
-0.820466
-0.581536
-0.812758
-0.617493
-0.804967
-0.65287
-0.796793
-0.685787
-0.790157
-0.785133
-0.716569
-0.00600469
-0.449624
-0.0346298
-0.86808
-0.0779516
-0.923732
-0.121723
-0.907142
-0.164882
-0.892457
-0.207423
-0.877753
-0.249059
-0.864875
-0.289827
-0.852575
-0.329991
-0.840724
-0.369854
-0.828387
-0.408899
-0.818757
-0.447368
-0.808835
-0.485928
-0.799225
-0.5238
-0.790092
-0.5613
-0.782966
-0.598327
-0.77573
-0.633748
-0.769546
-0.667971
-0.76257
-0.703259
-0.754869
-0.749054
-0.739337
-0.00738539
-0.442238
-0.0411459
-0.834319
-0.0856197
-0.879258
-0.130261
-0.8625
-0.174349
-0.848369
-0.218408
-0.833694
-0.262554
-0.820729
-0.30601
-0.809119
-0.348014
-0.79872
-0.389819
-0.786582
-0.432169
-0.776407
-0.473545
-0.767459
-0.51362
-0.759151
-0.554373
-0.749339
-0.595225
-0.742114
-0.635874
-0.735081
-0.676781
-0.728639
-0.715595
-0.723756
-0.752042
-0.718422
-0.712568
-0.788529
-0.00587424
-0.436364
-0.0436685
-0.796525
-0.0900343
-0.832892
-0.13673
-0.815805
-0.182827
-0.802272
-0.228064
-0.788457
-0.272841
-0.775952
-0.317507
-0.764453
-0.361336
-0.754891
-0.403884
-0.744034
-0.445981
-0.73431
-0.488775
-0.724664
-0.530791
-0.717135
-0.571323
-0.708807
-0.612304
-0.701133
-0.652762
-0.694624
-0.693594
-0.687807
-0.73584
-0.68151
-0.777064
-0.677198
-0.672695
-0.816938
-0.00236405
-0.434
-0.0441044
-0.754785
-0.0931775
-0.783819
-0.14171
-0.767272
-0.189649
-0.754333
-0.237122
-0.740984
-0.284338
-0.728735
-0.331125
-0.717666
-0.376689
-0.709328
-0.421625
-0.699098
-0.466082
-0.689853
-0.509531
-0.681215
-0.553009
-0.673657
-0.596239
-0.665577
-0.638948
-0.658424
-0.681595
-0.651977
-0.723054
-0.646348
-0.764345
-0.640219
-0.807106
-0.634437
-0.630263
-0.849538
0.000544822
-0.434545
-0.0420222
-0.712218
-0.0944808
-0.73136
-0.145583
-0.716171
-0.195596
-0.70432
-0.244098
-0.692482
-0.291872
-0.680961
-0.340028
-0.66951
-0.387534
-0.661821
-0.432972
-0.65366
-0.478162
-0.644663
-0.524025
-0.635352
-0.568504
-0.629178
-0.611911
-0.622171
-0.655461
-0.614873
-0.698713
-0.608726
-0.742241
-0.602819
-0.784405
-0.598055
-0.826225
-0.592617
-0.587361
-0.869127
0.000360271
-0.434905
-0.0466894
-0.665168
-0.101869
-0.676181
-0.154238
-0.663802
-0.20539
-0.653167
-0.255497
-0.642376
-0.304585
-0.631873
-0.353372
-0.620723
-0.402263
-0.61293
-0.450114
-0.605809
-0.495316
-0.599462
-0.54034
-0.590328
-0.586993
-0.582525
-0.63224
-0.576923
-0.676892
-0.570221
-0.721441
-0.564177
-0.765452
-0.558808
-0.809784
-0.553724
-0.85237
-0.55003
-0.545439
-0.894291
-0.00142633
-0.433479
-0.0505952
-0.615999
-0.106475
-0.620301
-0.160263
-0.610013
-0.212721
-0.600709
-0.262972
-0.592125
-0.311852
-0.582993
-0.36119
-0.571385
-0.410913
-0.563206
-0.460354
-0.556369
-0.508666
-0.55115
-0.553952
-0.545041
-0.5987
-0.537777
-0.644034
-0.53159
-0.688187
-0.526067
-0.732684
-0.51968
-0.777382
-0.51411
-0.822173
-0.508933
-0.867797
-0.504406
-0.501278
-0.911958
-0.0104095
-0.423069
-0.062161
-0.564248
-0.11915
-0.563311
-0.173696
-0.555467
-0.227041
-0.547365
-0.279456
-0.53971
-0.328727
-0.533721
-0.376425
-0.523687
-0.425509
-0.514123
-0.475402
-0.506475
-0.52529
-0.501262
-0.574628
-0.495703
-0.622331
-0.490074
-0.668829
-0.485091
-0.714396
-0.480501
-0.757725
-0.47635
-0.800917
-0.470919
-0.843673
-0.466177
-0.886933
-0.461146
-0.456697
-0.931515
-0.019183
-0.403886
-0.0705413
-0.512889
-0.125089
-0.508763
-0.180222
-0.500335
-0.234456
-0.49313
-0.287452
-0.486714
-0.339085
-0.482089
-0.387466
-0.475307
-0.434475
-0.467113
-0.482367
-0.458584
-0.530988
-0.452641
-0.578868
-0.447823
-0.627693
-0.441249
-0.6766
-0.436184
-0.725484
-0.431617
-0.773607
-0.428228
-0.819185
-0.42534
-0.863848
-0.421514
-0.906442
-0.418552
-0.414138
-0.949
-0.027283
-0.376603
-0.0799668
-0.460205
-0.134435
-0.454295
-0.187768
-0.447003
-0.242907
-0.437991
-0.298235
-0.431386
-0.352062
-0.428262
-0.403527
-0.423842
-0.45283
-0.41781
-0.500542
-0.410872
-0.549117
-0.404066
-0.597073
-0.399866
-0.643441
-0.394882
-0.690894
-0.38873
-0.73867
-0.383842
-0.788077
-0.378821
-0.837667
-0.37575
-0.88638
-0.372801
-0.934491
-0.370442
-0.368422
-0.980207
-0.0342939
-0.342309
-0.0877774
-0.406722
-0.142419
-0.399653
-0.195032
-0.39439
-0.246422
-0.386602
-0.300437
-0.37737
-0.355634
-0.373065
-0.408387
-0.37109
-0.459016
-0.36718
-0.507756
-0.362133
-0.555121
-0.356701
-0.603009
-0.351979
-0.649133
-0.348758
-0.693745
-0.344118
-0.738289
-0.339298
-0.782742
-0.334368
-0.82911
-0.329381
-0.8763
-0.325611
-0.924763
-0.321979
-0.31932
-0.973865
-0.0409411
-0.301368
-0.0959205
-0.351743
-0.150485
-0.345089
-0.203632
-0.341242
-0.255204
-0.33503
-0.306003
-0.326571
-0.361123
-0.317945
-0.417713
-0.3145
-0.472619
-0.312274
-0.526104
-0.308648
-0.578062
-0.304742
-0.629034
-0.301007
-0.679439
-0.298353
-0.727578
-0.295979
-0.773654
-0.293222
-0.817895
-0.290127
-0.8605
-0.286776
-0.903239
-0.282873
-0.945445
-0.279772
-0.276109
-0.988656
-0.0444556
-0.256913
-0.103899
-0.292299
-0.163871
-0.285116
-0.219643
-0.285471
-0.270697
-0.283976
-0.318092
-0.279176
-0.364291
-0.271745
-0.413845
-0.264946
-0.464831
-0.261288
-0.515586
-0.257892
-0.566219
-0.254109
-0.617078
-0.250148
-0.668218
-0.247212
-0.71981
-0.244387
-0.770503
-0.242529
-0.820474
-0.240156
-0.868743
-0.238506
-0.915641
-0.235975
-0.961452
-0.233961
-0.231407
-1.00615
-0.046039
-0.210874
-0.10633
-0.232008
-0.166342
-0.225104
-0.228957
-0.222856
-0.290098
-0.222835
-0.346121
-0.223153
-0.397209
-0.220658
-0.445903
-0.216252
-0.494873
-0.212318
-0.543735
-0.20903
-0.591614
-0.20623
-0.639208
-0.202555
-0.686636
-0.199784
-0.73419
-0.196833
-0.782151
-0.194568
-0.829932
-0.192376
-0.877972
-0.190466
-0.925171
-0.188776
-0.972223
-0.186909
-0.185256
-1.01837
-0.0452029
-0.165671
-0.0992907
-0.17792
-0.151863
-0.172532
-0.206244
-0.168476
-0.264448
-0.16463
-0.323403
-0.164198
-0.381162
-0.162899
-0.436297
-0.161117
-0.489519
-0.159096
-0.54198
-0.156569
-0.593487
-0.154723
-0.643661
-0.152381
-0.693371
-0.150074
-0.742163
-0.148041
-0.790688
-0.146043
-0.838801
-0.144263
-0.886654
-0.142613
-0.934407
-0.141023
-0.981685
-0.139631
-0.137979
-1.02896
-0.0507799
-0.114891
-0.10676
-0.12194
-0.165005
-0.114286
-0.221107
-0.112374
-0.275605
-0.110132
-0.331247
-0.108557
-0.386068
-0.108077
-0.440641
-0.106544
-0.493709
-0.106028
-0.545586
-0.104692
-0.596449
-0.103861
-0.646472
-0.102357
-0.695503
-0.101043
-0.744304
-0.0992398
-0.792323
-0.098024
-0.8403
-0.0962854
-0.887651
-0.0952629
-0.935041
-0.0936327
-0.981954
-0.0927176
-0.091212
-1.02872
-0.0640249
-0.050866
-0.122061
-0.0639042
-0.178728
-0.0576192
-0.23552
-0.0555822
-0.290141
-0.0555111
-0.343158
-0.055539
-0.395767
-0.0554685
-0.447627
-0.0546836
-0.50054
-0.0531157
-0.552634
-0.0525979
-0.605074
-0.0514206
-0.65611
-0.0513217
-0.706664
-0.0504893
-0.755627
-0.050277
-0.804206
-0.0494443
-0.851314
-0.049178
-0.898222
-0.0483547
-0.943816
-0.0480386
-0.989249
-0.0472846
-0.0468581
-1.0336
-0.0626217
0.0117557
-0.122754
-0.003772
-0.17964
-0.000732897
-0.232351
-0.00287106
-0.287427
-0.00043591
-0.341192
-0.001774
-0.396352
-0.000307912
-0.44979
-0.0012456
-0.502569
-0.000336871
-0.554204
-0.000963157
-0.605243
-0.000381378
-0.655767
-0.000797357
-0.705851
-0.00040599
-0.755411
-0.000717165
-0.804403
-0.0004517
-0.852872
-0.000708838
-0.900698
-0.000529349
-0.947973
-0.000763136
-0.994609
-0.000649187
-1.04052
-0.000950776
0.0184301
0.0481708
-0.0666009
0.0872012
-0.078379
0.00960797
0.258185
-0.390323
0.219339
0.44978
-0.815839
0.624244
0.571182
-1.07911
0.957708
0.624953
-1.18713
1.13336
0.64707
-1.21759
1.19548
0.657379
-1.22191
1.2116
0.663823
-1.2194
1.21296
0.666283
-1.21226
1.2098
0.669475
-1.20691
1.20372
0.673156
-1.20271
1.19903
0.676266
-1.19892
1.19581
0.679848
-1.19496
1.19137
0.682875
-1.19217
1.18914
0.684578
-1.18692
1.18521
0.685263
-1.18313
1.18244
0.686375
-1.17841
1.1773
0.686851
-1.17589
1.17541
-1.16608
0.685027
1.1679
0.0349752
0.0131956
0.116316
-0.159719
0.298448
-0.572454
0.445437
-0.962829
0.523985
-1.15766
0.556043
-1.21919
0.569135
-1.23068
0.576183
-1.22895
0.579412
-1.22263
0.582906
-1.21575
0.586776
-1.21078
0.590032
-1.20597
0.592887
-1.20177
0.594858
-1.19693
0.595584
-1.1929
0.595997
-1.18733
0.596398
-1.18353
0.596557
-1.17857
0.595128
-1.17446
-1.16261
0.591662
0.0428021
-0.0296066
0.144038
-0.260955
0.309235
-0.737652
0.419436
-1.07303
0.467606
-1.20583
0.485484
-1.23707
0.493339
-1.23854
0.497578
-1.23319
0.500244
-1.2253
0.502866
-1.21837
0.504681
-1.2126
0.506199
-1.20748
0.506931
-1.2025
0.507376
-1.19737
0.507465
-1.19298
0.507042
-1.18691
0.505966
-1.18245
0.504377
-1.17698
0.501074
-1.17115
-1.15898
0.497448
0.03873
-0.0683365
0.161656
-0.383881
0.296479
-0.872474
0.372898
-1.14945
0.402239
-1.23517
0.413383
-1.24821
0.41968
-1.24484
0.422036
-1.23555
0.424166
-1.22743
0.42593
-1.22014
0.427501
-1.21417
0.428409
-1.20839
0.428746
-1.20284
0.428473
-1.1971
0.427108
-1.19162
0.425126
-1.18492
0.422795
-1.18012
0.419929
-1.17411
0.415369
-1.16659
-1.15527
0.411651
0.0384468
-0.106783
0.160477
-0.505911
0.266396
-0.978393
0.319678
-1.20273
0.338184
-1.25367
0.346106
-1.25614
0.349011
-1.24774
0.35073
-1.23727
0.352328
-1.22903
0.353199
-1.22101
0.35307
-1.21404
0.352285
-1.20761
0.3508
-1.20136
0.348651
-1.19495
0.34594
-1.18891
0.342954
-1.18194
0.33957
-1.17674
0.335482
-1.17003
0.330643
-1.16175
-1.1513
0.326681
0.0403337
-0.147117
0.147139
-0.612716
0.231208
-1.06246
0.267298
-1.23882
0.278834
-1.26521
0.283802
-1.2611
0.285065
-1.24901
0.286207
-1.23841
0.286122
-1.22894
0.285155
-1.22004
0.283751
-1.21264
0.281664
-1.20552
0.278892
-1.19858
0.275655
-1.19171
0.271729
-1.18498
0.267304
-1.17751
0.262367
-1.1718
0.256884
-1.16454
0.251041
-1.15591
-1.1464
0.24614
0.0457102
-0.192827
0.136386
-0.703392
0.199712
-1.12579
0.221671
-1.26078
0.227299
-1.27084
0.228247
-1.26205
0.227515
-1.24827
0.226017
-1.23691
0.223919
-1.22684
0.221314
-1.21744
0.217841
-1.20916
0.213769
-1.20145
0.209244
-1.19406
0.204096
-1.18657
0.198405
-1.17929
0.19243
-1.17154
0.186155
-1.16553
0.179576
-1.15796
0.173035
-1.14937
-1.14053
0.167159
0.0483624
-0.24119
0.120227
-0.775256
0.165885
-1.17145
0.177072
-1.27197
0.178792
-1.27256
0.176482
-1.25974
0.173883
-1.24568
0.170619
-1.23365
0.166574
-1.2228
0.161718
-1.21258
0.156412
-1.20386
0.150515
-1.19555
0.144043
-1.18759
0.137231
-1.17975
0.130002
-1.17206
0.122448
-1.16398
0.114518
-1.1576
0.106289
-1.14974
0.0981258
-1.14121
-1.13266
0.0902611
0.0435378
-0.284727
0.102662
-0.834381
0.135416
-1.2042
0.139578
-1.27613
0.136871
-1.26985
0.131792
-1.25466
0.12632
-1.2402
0.120012
-1.22734
0.113117
-1.2159
0.105885
-1.20535
0.0979766
-1.19595
0.0896429
-1.18722
0.0810635
-1.17901
0.0720822
-1.17077
0.0627445
-1.16273
0.0531332
-1.15437
0.0432975
-1.14776
0.033337
-1.13977
0.0236076
-1.13148
-1.12268
0.0136201
0.0367847
-0.321512
0.0872766
-0.884873
0.105928
-1.22285
0.103607
-1.27381
0.0966129
-1.26286
0.088996
-1.24705
0.0809141
-1.23212
0.0723299
-1.21875
0.06324
-1.20681
0.0535707
-1.19568
0.0435542
-1.18593
0.0330963
-1.17676
0.022261
-1.16817
0.0111892
-1.1597
-0.000107112
-1.15143
-0.0116126
-1.14287
-0.0234506
-1.13592
-0.0354393
-1.12779
-0.047571
-1.11935
-1.10956
-0.0606861
0.0290102
-0.350522
0.0662446
-0.922107
0.0780814
-1.23469
0.0720448
-1.26777
0.062321
-1.25313
0.052071
-1.2368
0.0409919
-1.22104
0.0292736
-1.20704
0.0170443
-1.19458
0.00453588
-1.18317
-0.00849269
-1.1729
-0.0217974
-1.16346
-0.0351569
-1.15481
-0.0486662
-1.14619
-0.0622964
-1.1378
-0.0760516
-1.12911
-0.089869
-1.12211
-0.103462
-1.11419
-0.117459
-1.10535
-1.09451
-0.13251
0.0282746
-0.378797
0.0581486
-0.951981
0.058425
-1.23497
0.0465931
-1.25594
0.0322412
-1.23878
0.0179905
-1.22255
0.00357491
-1.20663
-0.0111672
-1.19229
-0.026165
-1.17959
-0.0414551
-1.16788
-0.0569281
-1.15743
-0.0727228
-1.14766
-0.088716
-1.13882
-0.104803
-1.1301
-0.120894
-1.12171
-0.137018
-1.11299
-0.153324
-1.1058
-0.169689
-1.09783
-0.186286
-1.08875
-1.0772
-0.203593
0.0217316
-0.400529
0.0419947
-0.972244
0.0363355
-1.22931
0.0203393
-1.23994
0.00341554
-1.22186
-0.0136426
-1.20549
-0.0310862
-1.18918
-0.0488501
-1.17453
-0.0669936
-1.16144
-0.0853482
-1.14953
-0.104082
-1.1387
-0.122992
-1.12875
-0.141826
-1.11999
-0.160679
-1.11125
-0.179531
-1.10286
-0.198386
-1.09413
-0.217068
-1.08712
-0.23552
-1.07938
-0.254164
-1.07011
-1.05761
-0.27376
0.0186994
-0.419228
0.031976
-0.985521
0.0195488
-1.21688
1.90518e-05
-1.22041
-0.0207536
-1.20108
-0.0414409
-1.1848
-0.0621217
-1.1685
-0.0830983
-1.15355
-0.104193
-1.14035
-0.125402
-1.12832
-0.146697
-1.1174
-0.168379
-1.10707
-0.190264
-1.0981
-0.212151
-1.08936
-0.233904
-1.0811
-0.255594
-1.07244
-0.277469
-1.06524
-0.299127
-1.05772
-0.320127
-1.04911
-1.03594
-0.34179
0.0142972
-0.433525
0.0206254
-0.991849
0.00289107
-1.19914
-0.0209132
-1.19661
-0.0446095
-1.17739
-0.0685414
-1.16087
-0.0924034
-1.14464
-0.116298
-1.12966
-0.140526
-1.11612
-0.164942
-1.1039
-0.189556
-1.09279
-0.214266
-1.08236
-0.238947
-1.07342
-0.263818
-1.06449
-0.288938
-1.05598
-0.3142
-1.04718
-0.339224
-1.04022
-0.364082
-1.03286
-0.388414
-1.02478
-1.01181
-0.412545
0.0109482
-0.444473
0.0111257
-0.992027
-0.0115494
-1.17647
-0.038094
-1.17007
-0.0649254
-1.15056
-0.0916329
-1.13416
-0.118293
-1.11798
-0.145154
-1.1028
-0.172031
-1.08924
-0.199025
-1.07691
-0.226114
-1.0657
-0.253698
-1.05477
-0.28147
-1.04565
-0.309053
-1.03691
-0.33644
-1.0286
-0.364174
-1.01945
-0.392388
-1.01201
-0.420046
-1.0052
-0.446122
-0.998699
-0.986466
-0.47147
0.00753835
-0.452012
0.00304071
-0.987529
-0.0241128
-1.14932
-0.0542344
-1.13994
-0.084102
-1.12069
-0.114116
-1.10415
-0.143793
-1.0883
-0.173314
-1.07328
-0.203078
-1.05948
-0.233
-1.04698
-0.263036
-1.03566
-0.293244
-1.02457
-0.323733
-1.01516
-0.354656
-1.00598
-0.385849
-0.997405
-0.417018
-0.988277
-0.448323
-0.9807
-0.48016
-0.973365
-0.510861
-0.967999
-0.957994
-0.539333
0.00505581
-0.457068
-0.00514296
-0.97733
-0.0360272
-1.11843
-0.0688395
-1.10713
-0.101134
-1.0884
-0.133311
-1.07197
-0.165353
-1.05626
-0.197456
-1.04117
-0.229456
-1.02748
-0.261449
-1.01499
-0.293322
-1.00379
-0.325695
-0.992194
-0.358344
-0.98251
-0.3908
-0.973528
-0.423343
-0.964862
-0.456883
-0.954736
-0.491072
-0.946511
-0.525322
-0.939115
-0.559928
-0.933392
-0.925718
-0.592204
0.00300256
-0.46007
-0.0113939
-0.962934
-0.0451386
-1.08469
-0.0808724
-1.0714
-0.116041
-1.05323
-0.151135
-1.03688
-0.185699
-1.0217
-0.2199
-1.00697
-0.254302
-0.993077
-0.289
-0.980292
-0.323616
-0.969175
-0.358077
-0.957733
-0.393002
-0.947585
-0.428425
-0.938105
-0.463524
-0.929763
-0.498397
-0.919863
-0.534596
-0.910312
-0.572606
-0.901105
-0.612197
-0.893801
-0.887632
-0.650283
0.000428371
-0.01854
-0.0553663
-0.0933486
-0.130355
-0.167076
-0.203466
-0.239601
-0.275296
-0.310862
-0.346323
-0.382224
-0.418258
-0.454265
-0.490554
-0.526911
-0.562783
-0.599882
-0.640785
-0.68485
0.594266
-10.1712
10.262
0.532553
-9.83983
9.90154
0.472613
-9.79542
9.85536
0.406988
-9.60817
9.6738
0.351217
-9.53944
9.59521
0.305328
-9.40918
9.45507
0.269437
-9.36602
9.40191
0.237331
-9.29483
9.32694
0.210315
-9.23339
9.2604
0.186472
-9.16627
9.19011
0.166194
-9.12147
9.14175
0.148331
-9.06249
9.08035
0.13377
-9.03176
9.04632
0.121065
-8.9793
8.992
0.111763
-8.96348
8.97278
0.10406
-8.92723
8.93493
0.0990764
-8.90593
8.91091
0.0917573
-8.73305
8.74037
0.0699899
-7.90314
7.92491
-4.6912
4.76119
0.504843
-10.0844
0.443271
-9.77826
0.382463
-9.73461
0.321118
-9.54683
0.272221
-9.49055
0.231219
-9.36818
0.200018
-9.33482
0.173592
-9.26841
0.152629
-9.21243
0.134746
-9.14839
0.120145
-9.10687
0.107789
-9.05013
0.0986004
-9.02257
0.0911074
-8.9718
0.0869058
-8.95928
0.0843963
-8.92472
0.0844451
-8.90598
0.0823295
-8.73093
0.0662471
-7.88706
-4.62495
0.420238
-10.0072
0.361111
-9.71913
0.302171
-9.67567
0.243691
-9.48835
0.199172
-9.44603
0.164137
-9.33314
0.138514
-9.3092
0.117082
-9.24698
0.100405
-9.19575
0.0867178
-9.1347
0.0765266
-9.09668
0.0687119
-9.04231
0.0642139
-9.01807
0.0615622
-8.96915
0.0621819
-8.9599
0.06467
-8.9272
0.0697548
-8.91106
0.0729299
-8.73411
0.0631013
-7.87723
-4.56185
0.334575
-9.9301
0.274071
-9.65863
0.215982
-9.61758
0.161349
-9.43371
0.122328
-9.40701
0.0917061
-9.30252
0.0704258
-9.28792
0.0543458
-9.2309
0.0433631
-9.18477
0.0354254
-9.12676
0.0307763
-9.09203
0.0283345
-9.03987
0.0291108
-9.01885
0.0315842
-8.97162
0.0372557
-8.96557
0.0448031
-8.93475
0.0549845
-8.92124
0.0634
-8.74252
0.0589785
-7.87281
-4.50287
0.253682
-9.8571
0.19085
-9.5958
0.132702
-9.55943
0.0836874
-9.3847
0.0499398
-9.37326
0.0249101
-9.27749
0.00903651
-9.27204
-0.00187707
-9.21998
-0.00854353
-9.1781
-0.0123033
-9.123
-0.0125777
-9.09175
-0.010574
-9.04188
-0.00513891
-9.02428
0.00187417
-8.97864
0.012509
-8.97621
0.0249045
-8.94715
0.0401723
-8.93651
0.0539756
-8.75633
0.0548287
-7.87366
-4.44804
0.170069
-9.78103
0.104114
-9.52984
0.0493813
-9.5047
0.00618105
-9.3415
-0.0242629
-9.34282
-0.0452942
-9.25646
-0.0569936
-9.26034
-0.0630171
-9.21396
-0.0644113
-9.17671
-0.0627357
-9.12468
-0.0576984
-9.09679
-0.0504242
-9.04915
-0.0400289
-9.03468
-0.0277293
-8.99094
-0.0123791
-8.99156
0.00488676
-8.96441
0.0253439
-8.95697
0.0443967
-8.77538
0.0506662
-7.87993
-4.39737
0.0913769
-9.70525
0.0223184
-9.46078
-0.0327586
-9.44962
-0.069279
-9.30498
-0.0944418
-9.31765
-0.110994
-9.23991
-0.117652
-9.25369
-0.118639
-9.21297
-0.115687
-9.17966
-0.10985
-9.13051
-0.100517
-9.10612
-0.0888641
-9.0608
-0.0739866
-9.04956
-0.057025
-9.0079
-0.0371631
-9.01142
-0.0149888
-8.98659
0.0105498
-8.98251
0.0349211
-8.79975
0.046626
-7.89164
-4.35075
0.00744929
-9.62244
-0.06534
-9.38799
-0.115241
-9.39972
-0.144421
-9.2758
-0.16567
-9.2964
-0.178496
-9.22708
-0.181334
-9.25085
-0.17785
-9.21646
-0.17
-9.18751
-0.159086
-9.14143
-0.144624
-9.12058
-0.127946
-9.07748
-0.108194
-9.06931
-0.0864428
-9.02965
-0.061919
-9.03594
-0.0348978
-9.01361
-0.00420009
-9.0132
0.0253813
-8.82933
0.0423211
-7.90858
-4.30843
-0.0669974
-9.54182
-0.143621
-9.31137
-0.192547
-9.35079
-0.215864
-9.25248
-0.233071
-9.2792
-0.242143
-9.21801
-0.240495
-9.2525
-0.232341
-9.22461
-0.220252
-9.1996
-0.20528
-9.1564
-0.186618
-9.13925
-0.165676
-9.09842
-0.14152
-9.09346
-0.115331
-9.05584
-0.0864778
-9.0648
-0.0547758
-9.04531
-0.0190134
-9.04897
0.0158966
-8.86424
0.0379967
-7.93068
-4.27043
-0.148749
-9.45376
-0.225248
-9.23487
-0.270653
-9.30539
-0.288604
-9.23453
-0.30123
-9.26657
-0.30695
-9.21229
-0.301849
-9.2576
-0.28953
-9.23693
-0.272762
-9.21636
-0.252977
-9.17618
-0.229407
-9.16282
-0.203669
-9.12416
-0.174825
-9.12231
-0.144105
-9.08656
-0.110837
-9.09806
-0.0745212
-9.08163
-0.0337182
-9.08977
0.00638865
-8.90435
0.0336419
-7.95793
-4.23679
-0.2276
-9.35867
-0.299602
-9.16287
-0.340568
-9.26442
-0.355564
-9.21953
-0.365134
-9.257
-0.367589
-9.20983
-0.358709
-9.26648
-0.342364
-9.25328
-0.321632
-9.2371
-0.29795
-9.19987
-0.270324
-9.19044
-0.240434
-9.15405
-0.207264
-9.15548
-0.172328
-9.12149
-0.134993
-9.1354
-0.0941783
-9.12244
-0.048345
-9.1356
-0.00307896
-8.94962
0.0293093
-7.99032
-4.20748
-0.303975
-9.25828
-0.374727
-9.09212
-0.413372
-9.22578
-0.425173
-9.20773
-0.4308
-9.25137
-0.430014
-9.21062
-0.417795
-9.2787
-0.397353
-9.27372
-0.372069
-9.26238
-0.343786
-9.22815
-0.311501
-9.22273
-0.277078
-9.18847
-0.239436
-9.19312
-0.200213
-9.16072
-0.158808
-9.1768
-0.113628
-9.16762
-0.0628714
-9.18636
-0.0123166
-9.00017
0.0250347
-8.02767
-4.18245
-0.381587
-9.15046
-0.445831
-9.02787
-0.478812
-9.1928
-0.488914
-9.19763
-0.491018
-9.24927
-0.487174
-9.21446
-0.471925
-9.29395
-0.448174
-9.29747
-0.419266
-9.29129
-0.387266
-9.26015
-0.351081
-9.25891
-0.312624
-9.22693
-0.270781
-9.23496
-0.22752
-9.20398
-0.182287
-9.22204
-0.132854
-9.21705
-0.0772781
-9.24193
-0.0215005
-9.05595
0.0208521
-8.07002
-4.16159
-0.452267
-9.03998
-0.51379
-8.96635
-0.54443
-9.16216
-0.554637
-9.18742
-0.554291
-9.24962
-0.547038
-9.22171
-0.528455
-9.31253
-0.500634
-9.32529
-0.467316
-9.32461
-0.430945
-9.29652
-0.390395
-9.29946
-0.347698
-9.26963
-0.301627
-9.28103
-0.254314
-9.25129
-0.205314
-9.27104
-0.151783
-9.27059
-0.0915651
-9.30215
-0.0305091
-9.117
0.0168115
-8.11735
-4.14478
-0.528408
-8.92412
-0.583507
-8.91125
-0.608079
-9.13759
-0.615686
-9.17982
-0.611537
-9.25377
-0.60099
-9.23226
-0.579876
-9.33364
-0.549279
-9.35589
-0.512594
-9.36129
-0.472668
-9.33645
-0.428376
-9.34375
-0.381783
-9.31622
-0.331663
-9.33115
-0.280489
-9.30246
-0.227928
-9.3236
-0.170427
-9.32809
-0.10577
-9.36681
-0.0393039
-9.18347
0.0129523
-8.1696
-4.13183
-0.592464
-8.80312
-0.647581
-8.85613
-0.669855
-9.11531
-0.677503
-9.17217
-0.671861
-9.25941
-0.657693
-9.24643
-0.633333
-9.358
-0.598857
-9.39036
-0.557976
-9.40217
-0.513944
-9.38048
-0.465618
-9.39208
-0.415099
-9.36674
-0.361031
-9.38522
-0.30599
-9.35751
-0.249868
-9.37972
-0.188637
-9.38932
-0.119913
-9.43553
-0.0478902
-9.25549
0.0095204
-8.22701
-4.12231
-0.66355
-8.67891
-0.714666
-8.80502
-0.732505
-9.09747
-0.735845
-9.16883
-0.726088
-9.26917
-0.708377
-9.26414
-0.681805
-9.38457
-0.645001
-9.42717
-0.60099
-9.44618
-0.553565
-9.4279
-0.501684
-9.44396
-0.447448
-9.42098
-0.389558
-9.44311
-0.330827
-9.41624
-0.271259
-9.43929
-0.206435
-9.45414
-0.133997
-9.50797
-0.0564686
-9.33302
0.00641537
-8.2899
-4.11589
-0.727486
-8.54362
-0.77939
-8.75311
-0.793564
-9.0833
-0.795392
-9.167
-0.783753
-9.2808
-0.761763
-9.28613
-0.731875
-9.41446
-0.691432
-9.46761
-0.643488
-9.49413
-0.592227
-9.47916
-0.53665
-9.49954
-0.478796
-9.47883
-0.417221
-9.50469
-0.354852
-9.47861
-0.291932
-9.50221
-0.223691
-9.52238
-0.147887
-9.58378
-0.0650585
-9.41585
0.00388175
-8.35884
-4.11201
-0.783616
-8.41029
-0.840986
-8.69574
-0.85546
-9.06882
-0.852982
-9.16948
-0.836973
-9.29681
-0.81118
-9.31192
-0.77846
-9.44718
-0.735635
-9.51044
-0.684537
-9.54522
-0.629894
-9.53381
-0.570857
-9.55858
-0.509437
-9.54025
-0.444216
-9.56991
-0.378309
-9.54451
-0.312122
-9.56839
-0.240351
-9.59415
-0.161499
-9.66263
-0.0731903
-9.50416
0.00112899
-8.43316
-4.11088
-0.833839
-8.2613
-0.89646
-8.63312
-0.910627
-9.05466
-0.905411
-9.17469
-0.886991
-9.31523
-0.85747
-9.34144
-0.822522
-9.48213
-0.77708
-9.55588
-0.723341
-9.59896
-0.665208
-9.59194
-0.603243
-9.62054
-0.53831
-9.60518
-0.469985
-9.63823
-0.40037
-9.61413
-0.331788
-9.63698
-0.256315
-9.66963
-0.175867
-9.74308
-0.08031
-9.59972
0.00203616
-8.5155
-4.10885
7.59648
-7.79469
-8.06309
6.97721
-8.01385
6.28573
-8.36318
5.60171
-8.49067
4.9766
-8.69013
4.44339
-8.80823
3.94061
-8.97935
3.47767
-9.09295
3.05478
-9.17607
2.66327
-9.20042
2.31392
-9.27119
1.99759
-9.28885
1.72884
-9.36949
1.46672
-9.35201
1.2159
-9.38616
1.04335
-9.49708
0.862105
-9.56183
0.730349
-9.46796
0.372518
-8.15767
-3.73633
4.42773
-7.74384
-4.47858
4.2959
-7.88203
4.02966
-8.09694
3.76111
-8.22212
3.44659
-8.37561
3.15885
-8.52049
2.84195
-8.66245
2.54688
-8.79788
2.25443
-8.88361
1.98149
-8.92749
1.73725
-9.02695
1.51122
-9.06282
1.32228
-9.18055
1.11344
-9.14317
0.909392
-9.18211
0.806483
-9.39417
0.676538
-9.43189
0.528801
-9.32022
0.187254
-7.81612
-3.54907
3.06578
-7.90319
-2.90643
3.13514
-7.95139
3.09961
-8.06141
3.02204
-8.14455
2.87402
-8.22758
2.72389
-8.37036
2.52711
-8.46567
2.34049
-8.61126
2.11387
-8.65699
1.87523
-8.68885
1.64638
-8.7981
1.44555
-8.86198
1.27177
-9.00678
1.05103
-8.92243
0.851163
-8.98224
0.755859
-9.29886
0.621721
-9.29775
0.450238
-9.14874
0.19088
-7.55677
-3.35819
1.98632
-8.11007
-1.77944
2.02515
-7.99023
2.02937
-8.06562
2.01714
-8.13233
1.97208
-8.18252
1.90616
-8.30444
1.78683
-8.34634
1.67155
-8.49598
1.50156
-8.487
1.32483
-8.51213
1.16517
-8.63843
1.03449
-8.73131
0.920054
-8.89234
0.771414
-8.77379
0.661924
-8.87275
0.611745
-9.24868
0.532479
-9.21848
0.387625
-9.00388
0.164983
-7.33412
-3.19321
1.41199
-8.23316
-1.2889
1.43585
-8.01408
1.47552
-8.1053
1.49353
-8.15033
1.50179
-8.19078
1.49088
-8.29354
1.425
-8.28046
1.36293
-8.4339
1.24067
-8.36474
1.11869
-8.39015
1.01628
-8.53602
0.925372
-8.6404
0.837349
-8.80432
0.731287
-8.66772
0.638362
-8.77982
0.574637
-9.18496
0.497539
-9.14138
0.366199
-8.87254
0.158014
-7.12594
-3.0352
1.02616
-8.30034
-0.958983
1.03473
-8.02265
1.05301
-8.12357
1.03308
-8.13041
1.0274
-8.1851
1.0091
-8.27524
0.962434
-8.23379
0.936708
-8.40818
0.865761
-8.2938
0.798748
-8.32313
0.756684
-8.49396
0.718982
-8.6027
0.668925
-8.75426
0.624402
-8.6232
0.578512
-8.73393
0.524174
-9.13062
0.466252
-9.08346
0.341701
-8.74799
0.14743
-6.93167
-2.88777
0.705546
-8.28073
-0.725157
0.703153
-8.02025
0.71608
-8.1365
0.710384
-8.12471
0.724863
-8.19958
0.715362
-8.26574
0.700104
-8.21853
0.690582
-8.39866
0.66019
-8.2634
0.630822
-8.29377
0.623371
-8.4865
0.619609
-8.59894
0.576445
-8.7111
0.569063
-8.61582
0.552605
-8.71747
0.502604
-9.08062
0.453634
-9.03449
0.33394
-8.6283
0.141731
-6.73946
-2.74604
0.470338
-8.18271
-0.568358
0.482976
-8.03289
0.487539
-8.14106
0.491456
-8.12863
0.49971
-8.20784
0.485905
-8.25193
0.495085
-8.22771
0.466328
-8.3699
0.471048
-8.26812
0.472571
-8.29529
0.474771
-8.4887
0.497536
-8.6217
0.463225
-8.67679
0.507031
-8.65963
0.536315
-8.74676
0.4983
-9.0426
0.460696
-8.99689
0.367199
-8.5348
0.159357
-6.53162
-2.58668
0.315225
-8.09923
-0.398702
0.324305
-8.04197
0.310335
-8.12709
0.316051
-8.13434
0.322501
-8.21429
0.310734
-8.24017
0.327015
-8.24399
0.270933
-8.31382
0.300828
-8.29802
0.333331
-8.32779
0.333337
-8.48871
0.353526
-8.64189
0.329756
-8.65302
0.413719
-8.74359
0.487857
-8.82089
0.463536
-9.01828
0.449579
-8.98293
0.390709
-8.47593
0.183492
-6.3244
-2.40319
0.22456
-8.07155
-0.252248
0.243237
-8.06065
0.240773
-8.12463
0.249023
-8.14259
0.243159
-8.20842
0.222416
-8.21942
0.232237
-8.25381
0.181949
-8.26353
0.206833
-8.3229
0.240546
-8.36151
0.234248
-8.48241
0.234246
-8.64189
0.231574
-8.65035
0.300168
-8.81218
0.367415
-8.88814
0.376015
-9.02688
0.420428
-9.02734
0.399558
-8.45506
0.198268
-6.12311
-2.20492
0.128118
-8.08064
-0.119022
0.151949
-8.08448
0.157131
-8.12981
0.159441
-8.1449
0.145301
-8.19428
0.122288
-8.19641
0.122169
-8.2537
0.101526
-8.24289
0.107145
-8.32852
0.116971
-8.37133
0.0977198
-8.46316
0.0714913
-8.61566
0.0779226
-8.65678
0.0798556
-8.81412
0.089456
-8.89774
0.124738
-9.06217
0.195507
-9.09811
0.243503
-8.50306
0.127838
-6.00745
-2.07708
0.0738978
-8.09411
-0.0604316
0.0979899
-8.10857
0.103262
-8.13508
0.10081
-8.14245
0.0793371
-8.17281
0.0536144
-8.17069
0.0320955
-8.23218
0.0165389
-8.22733
-0.00486169
-8.30712
-0.0313101
-8.34488
-0.0805764
-8.4139
-0.135127
-8.56111
-0.166493
-8.62541
-0.23716
-8.74345
-0.292407
-8.8425
-0.30823
-9.04634
-0.319155
-9.08719
-0.208401
-8.61381
-0.0251768
-6.19067
-2.10226
0.0196214
-8.09774
-0.0159948
0.0202124
-8.10916
0.0133846
-8.12826
-0.000559835
-8.12851
-0.0229089
-8.15046
-0.0434916
-8.1501
-0.0747499
-8.20092
-0.101517
-8.20056
-0.154262
-8.25438
-0.213157
-8.28599
-0.287649
-8.3394
-0.377627
-8.47113
-0.480426
-8.52261
-0.610662
-8.61321
-0.749382
-8.70378
-0.91007
-8.88565
-1.02716
-8.9701
-0.97788
-8.66309
-0.407208
-6.76134
-2.50947
-0.0338584
-8.0881
0.0242178
-0.0491177
-8.0939
-0.0656192
-8.11176
-0.0817648
-8.11236
-0.0946215
-8.1376
-0.110186
-8.13454
-0.14425
-8.16685
-0.179315
-8.1655
-0.245654
-8.18804
-0.322358
-8.20929
-0.400652
-8.26111
-0.515508
-8.35628
-0.650072
-8.38805
-0.80356
-8.45973
-0.983332
-8.524
-1.25167
-8.61731
-1.50058
-8.72119
-1.56792
-8.59575
-0.973066
-7.3562
-3.48253
-0.0544247
-8.07402
0.0403488
-0.0727831
-8.07554
-0.0952008
-8.08934
-0.115222
-8.09234
-0.140002
-8.11282
-0.163709
-8.11083
-0.198681
-8.13188
-0.230757
-8.13342
-0.279072
-8.13972
-0.348422
-8.13994
-0.420349
-8.18918
-0.524062
-8.25256
-0.633435
-8.27868
-0.779741
-8.31342
-0.951603
-8.35214
-1.20536
-8.36355
-1.53035
-8.39621
-1.71619
-8.40991
-1.34897
-7.72342
-4.8315
-0.0650497
-8.06053
0.0515611
-0.0804354
-8.06016
-0.102022
-8.06775
-0.12514
-8.06922
-0.154279
-8.08368
-0.180435
-8.08468
-0.211309
-8.10101
-0.241366
-8.10336
-0.26952
-8.11157
-0.321294
-8.08816
-0.390049
-8.12043
-0.481161
-8.16145
-0.576241
-8.1836
-0.704395
-8.18527
-0.8569
-8.19964
-1.02091
-8.19954
-1.23221
-8.18491
-1.46956
-8.17256
-1.25781
-7.93516
-6.08931
-0.0703338
-8.04449
0.0542938
-0.0862206
-8.04427
-0.103941
-8.05003
-0.124062
-8.0491
-0.150611
-8.05714
-0.176662
-8.05863
-0.210164
-8.06751
-0.243831
-8.0697
-0.272015
-8.08338
-0.305696
-8.05448
-0.353639
-8.07248
-0.429708
-8.08538
-0.511637
-8.10167
-0.605505
-8.0914
-0.7033
-8.10184
-0.80745
-8.09539
-0.898736
-8.09362
-1.01678
-8.05452
-0.94647
-8.00547
-7.03578
-0.0605906
-8.02994
0.0460407
-0.0726357
-8.03223
-0.0891128
-8.03355
-0.104628