# Residuals   
# Time        	Ux            	Uy            	p             
10            	N/A	N/A
10.0004       	2.012444e-03	1.568393e-03	2.744831e-02
10.0007       	2.012711e-03	1.568433e-03	2.716550e-02
10.0011       	2.012997e-03	1.568474e-03	2.760857e-02
10.0015       	2.013396e-03	1.568588e-03	2.760815e-02
10.0019       	2.013685e-03	1.568677e-03	2.769794e-02
10.0022       	2.006360e-03	1.562824e-03	2.806841e-02
10.0026       	2.006724e-03	1.562895e-03	2.813677e-02
10.003        	2.007091e-03	1.562990e-03	2.791578e-02
10.0034       	2.007348e-03	1.563040e-03	2.810291e-02
10.0037       	2.007584e-03	1.563049e-03	2.769666e-02
10.0041       	2.000141e-03	1.557058e-03	2.754967e-02
10.0045       	2.000396e-03	1.557025e-03	2.748110e-02
10.0048       	2.000627e-03	1.557103e-03	2.776059e-02
10.0052       	2.000841e-03	1.557200e-03	2.743033e-02
10.0056       	2.001061e-03	1.557220e-03	2.755900e-02
10.0059       	2.001278e-03	1.557177e-03	2.750437e-02
10.0063       	2.001555e-03	1.557136e-03	2.755856e-02
10.0067       	2.001868e-03	1.557094e-03	2.764514e-02
10.0071       	2.002142e-03	1.557071e-03	2.767922e-02
10.0074       	2.002466e-03	1.557088e-03	2.774993e-02
10.0078       	2.002809e-03	1.557101e-03	2.823287e-02
10.0082       	2.003246e-03	1.557193e-03	2.826129e-02
10.0085       	2.003575e-03	1.557285e-03	2.807871e-02
10.0089       	2.003908e-03	1.557332e-03	2.837447e-02
10.0093       	2.004227e-03	1.557452e-03	2.879875e-02
10.0097       	2.012683e-03	1.563904e-03	2.900260e-02
10.01         	2.012903e-03	1.563882e-03	2.894510e-02
10.0104       	2.013126e-03	1.563857e-03	2.864678e-02
10.0108       	2.013329e-03	1.563784e-03	2.838411e-02
10.0111       	2.013552e-03	1.563749e-03	2.837067e-02
10.0115       	2.013766e-03	1.563775e-03	2.864119e-02
10.0119       	2.014000e-03	1.563822e-03	2.811859e-02
10.0123       	2.014248e-03	1.563907e-03	2.765826e-02
10.0126       	2.023018e-03	1.570598e-03	2.758672e-02
10.013        	2.023265e-03	1.570625e-03	2.756525e-02
10.0134       	2.023544e-03	1.570666e-03	2.764811e-02
10.0137       	2.023816e-03	1.570665e-03	2.766437e-02
10.0141       	2.024132e-03	1.570673e-03	2.753522e-02
10.0145       	2.033266e-03	1.577428e-03	2.796494e-02
10.0149       	2.033619e-03	1.577352e-03	2.777836e-02
10.0152       	2.033881e-03	1.577259e-03	2.799322e-02
10.0156       	2.034166e-03	1.577203e-03	2.849784e-02
10.016        	2.034496e-03	1.577275e-03	2.873888e-02
10.0164       	2.034764e-03	1.577272e-03	2.884769e-02
10.0167       	2.035056e-03	1.577309e-03	2.852047e-02
10.0171       	2.044473e-03	1.584440e-03	2.857446e-02
10.0175       	2.044737e-03	1.584399e-03	2.849724e-02
10.0179       	2.044994e-03	1.584303e-03	2.864392e-02
10.0183       	2.045288e-03	1.584204e-03	2.871244e-02
10.0186       	2.045605e-03	1.584153e-03	2.865154e-02
10.019        	2.045932e-03	1.584115e-03	2.856887e-02
10.0194       	2.046300e-03	1.584225e-03	2.828236e-02
10.0198       	2.046602e-03	1.584336e-03	2.869340e-02
10.0201       	2.046897e-03	1.584390e-03	2.819918e-02
10.0205       	2.047199e-03	1.584382e-03	2.840889e-02
10.0209       	2.047496e-03	1.584352e-03	2.871057e-02
10.0213       	2.047805e-03	1.584396e-03	2.829099e-02
10.0216       	2.048051e-03	1.584340e-03	2.819027e-02
10.022        	2.048297e-03	1.584270e-03	2.831788e-02
10.0224       	2.048641e-03	1.584268e-03	2.842721e-02
10.0228       	2.048980e-03	1.584297e-03	2.819375e-02
10.0231       	2.039316e-03	1.576602e-03	2.846211e-02
10.0235       	2.039625e-03	1.576663e-03	2.825977e-02
10.0239       	2.030000e-03	1.568983e-03	2.841094e-02
10.0243       	2.030343e-03	1.568967e-03	2.849857e-02
10.0246       	2.020720e-03	1.561335e-03	2.854449e-02
10.025        	2.011134e-03	1.553693e-03	2.823321e-02
10.0254       	2.011467e-03	1.553707e-03	2.826664e-02
10.0257       	2.001912e-03	1.546083e-03	2.808979e-02
10.0261       	2.002233e-03	1.546177e-03	2.796437e-02
10.0265       	1.992609e-03	1.538543e-03	2.785251e-02
10.0268       	1.992841e-03	1.538501e-03	2.748757e-02
10.0272       	1.983204e-03	1.530781e-03	2.770314e-02
10.0276       	1.983468e-03	1.530755e-03	2.774871e-02
10.0279       	1.973882e-03	1.523179e-03	2.750432e-02
10.0283       	1.964279e-03	1.515575e-03	2.779478e-02
10.0287       	1.964483e-03	1.515570e-03	2.793903e-02
10.029        	1.954901e-03	1.508028e-03	2.780275e-02
10.0294       	1.955088e-03	1.508032e-03	2.747055e-02
10.0297       	1.945372e-03	1.500423e-03	2.774099e-02
10.0301       	1.945542e-03	1.500419e-03	2.764118e-02
10.0304       	1.935857e-03	1.492757e-03	2.764434e-02
10.0308       	1.936070e-03	1.492658e-03	2.723260e-02
10.0311       	1.926404e-03	1.484970e-03	2.744691e-02
10.0315       	1.926604e-03	1.484863e-03	2.700470e-02
10.0319       	1.916974e-03	1.477164e-03	2.706981e-02
10.0322       	1.917218e-03	1.477192e-03	2.672902e-02
10.0326       	1.907643e-03	1.469625e-03	2.682359e-02
10.0329       	1.898158e-03	1.462118e-03	2.691289e-02
10.0332       	1.898539e-03	1.462234e-03	2.633004e-02
10.0336       	1.889034e-03	1.454757e-03	2.661703e-02
10.0339       	1.889377e-03	1.454868e-03	2.627236e-02
10.0343       	1.879882e-03	1.447364e-03	2.672266e-02
10.0346       	1.880137e-03	1.447445e-03	2.621841e-02
10.035        	1.870543e-03	1.439947e-03	2.641699e-02
10.0353       	1.870793e-03	1.440022e-03	2.612494e-02
10.0357       	1.861271e-03	1.432657e-03	2.639980e-02
10.036        	1.861522e-03	1.432783e-03	2.625925e-02
10.0363       	1.851891e-03	1.425299e-03	2.636430e-02
10.0367       	1.852089e-03	1.425382e-03	2.640525e-02
10.037        	1.842347e-03	1.417756e-03	2.653151e-02
10.0373       	1.842431e-03	1.417688e-03	2.638043e-02
10.0377       	1.832707e-03	1.409985e-03	2.658755e-02
10.038        	1.832819e-03	1.409848e-03	2.658465e-02
10.0384       	1.832985e-03	1.409811e-03	2.643356e-02
10.0387       	1.823223e-03	1.402163e-03	2.666376e-02
10.039        	1.823404e-03	1.402214e-03	2.650457e-02
10.0393       	1.813665e-03	1.394639e-03	2.679767e-02
10.0397       	1.813864e-03	1.394666e-03	2.651770e-02
10.04         	1.814117e-03	1.394778e-03	2.638713e-02
10.0403       	1.804417e-03	1.387284e-03	2.651525e-02
10.0407       	1.804714e-03	1.387394e-03	2.652227e-02
10.041        	1.804999e-03	1.387469e-03	2.647661e-02
10.0413       	1.795236e-03	1.379774e-03	2.674703e-02
10.0417       	1.795435e-03	1.379786e-03	2.666730e-02
10.042        	1.785610e-03	1.372194e-03	2.695654e-02
10.0423       	1.785842e-03	1.372386e-03	2.642231e-02
10.0426       	1.786020e-03	1.372542e-03	2.629009e-02
10.043        	1.786163e-03	1.372709e-03	2.629810e-02
10.0433       	1.776147e-03	1.365129e-03	2.593026e-02
10.0436       	1.776285e-03	1.365268e-03	2.608924e-02
10.0439       	1.776432e-03	1.365418e-03	2.592233e-02
10.0443       	1.766299e-03	1.357593e-03	2.622293e-02
10.0446       	1.766373e-03	1.357594e-03	2.634775e-02
10.0449       	1.766518e-03	1.357604e-03	2.617840e-02
10.0452       	1.766721e-03	1.357588e-03	2.661545e-02
10.0455       	1.756607e-03	1.349701e-03	2.652058e-02
10.0459       	1.756733e-03	1.349746e-03	2.655309e-02
10.0462       	1.756800e-03	1.349800e-03	2.634803e-02
10.0465       	1.746543e-03	1.341922e-03	2.643057e-02
10.0468       	1.746669e-03	1.342060e-03	2.636528e-02
10.0471       	1.746821e-03	1.342178e-03	2.644657e-02
10.0475       	1.746991e-03	1.342288e-03	2.649918e-02
10.0478       	1.747109e-03	1.342413e-03	2.642789e-02
10.0481       	1.736570e-03	1.334423e-03	2.638508e-02
10.0484       	1.736609e-03	1.334565e-03	2.643175e-02
10.0487       	1.736651e-03	1.334760e-03	2.632852e-02
10.049        	1.736695e-03	1.334896e-03	2.644903e-02
10.0494       	1.736703e-03	1.334881e-03	2.620658e-02
10.0497       	1.736718e-03	1.334926e-03	2.601847e-02
10.05         	1.725910e-03	1.326665e-03	2.632572e-02
10.0503       	1.725961e-03	1.326731e-03	2.642034e-02
10.0506       	1.726004e-03	1.326796e-03	2.644295e-02
10.0509       	1.726049e-03	1.326869e-03	2.640288e-02
10.0512       	1.726104e-03	1.326939e-03	2.690282e-02
10.0516       	1.715194e-03	1.318470e-03	2.721394e-02
10.0519       	1.715301e-03	1.318534e-03	2.682994e-02
10.0522       	1.715425e-03	1.318630e-03	2.669182e-02
10.0525       	1.715539e-03	1.318714e-03	2.656129e-02
10.0528       	1.715585e-03	1.318758e-03	2.675262e-02
10.0531       	1.715583e-03	1.318800e-03	2.641069e-02
10.0534       	1.715599e-03	1.318908e-03	2.670276e-02
10.0537       	1.715711e-03	1.318995e-03	2.663165e-02
10.0541       	1.715868e-03	1.319099e-03	2.679240e-02
10.0544       	1.715994e-03	1.319144e-03	2.657258e-02
10.0547       	1.716033e-03	1.319128e-03	2.647522e-02
10.055        	1.716042e-03	1.319149e-03	2.631016e-02
10.0553       	1.716033e-03	1.319203e-03	2.654325e-02
10.0556       	1.716041e-03	1.319280e-03	2.630771e-02
10.0559       	1.715920e-03	1.319280e-03	2.622993e-02
10.0562       	1.715810e-03	1.319299e-03	2.602698e-02
10.0566       	1.715736e-03	1.319355e-03	2.598986e-02
10.0569       	1.715728e-03	1.319415e-03	2.608301e-02
10.0572       	1.715731e-03	1.319455e-03	2.623886e-02
10.0575       	1.715757e-03	1.319478e-03	2.606200e-02
10.0578       	1.715727e-03	1.319521e-03	2.599108e-02
10.0581       	1.715726e-03	1.319528e-03	2.596189e-02
10.0584       	1.715824e-03	1.319501e-03	2.617445e-02
10.0587       	1.715781e-03	1.319561e-03	2.609514e-02
10.0591       	1.715724e-03	1.319723e-03	2.596551e-02
10.0594       	1.715731e-03	1.319944e-03	2.603902e-02
10.0597       	1.715718e-03	1.320156e-03	2.574629e-02
10.06         	1.715721e-03	1.320378e-03	2.564793e-02
10.0603       	1.715681e-03	1.320613e-03	2.566866e-02
10.0606       	1.715730e-03	1.320806e-03	2.598351e-02
10.0609       	1.715750e-03	1.320986e-03	2.592998e-02
10.0612       	1.715760e-03	1.321131e-03	2.582903e-02
10.0616       	1.715733e-03	1.321294e-03	2.568963e-02
10.0619       	1.715705e-03	1.321457e-03	2.589444e-02
10.0622       	1.715636e-03	1.321593e-03	2.597904e-02
10.0625       	1.715485e-03	1.321684e-03	2.589576e-02
10.0628       	1.715228e-03	1.321690e-03	2.567464e-02
10.0631       	1.715050e-03	1.321663e-03	2.562920e-02
10.0634       	1.729533e-03	1.332903e-03	2.582767e-02
10.0638       	1.729401e-03	1.332912e-03	2.609296e-02
10.0641       	1.729237e-03	1.332940e-03	2.643606e-02
10.0644       	1.729052e-03	1.333014e-03	2.660626e-02
10.0647       	1.728863e-03	1.333072e-03	2.697642e-02
10.065        	1.728673e-03	1.333068e-03	2.698682e-02
10.0653       	1.728420e-03	1.333046e-03	2.713840e-02
10.0656       	1.728190e-03	1.333042e-03	2.733509e-02
10.066        	1.727998e-03	1.333086e-03	2.721137e-02
10.0663       	1.727814e-03	1.333098e-03	2.754345e-02
10.0666       	1.743901e-03	1.345730e-03	2.789334e-02
10.0669       	1.743660e-03	1.345789e-03	2.783998e-02
10.0672       	1.743418e-03	1.345855e-03	2.797766e-02
10.0675       	1.743289e-03	1.346028e-03	2.824737e-02
10.0679       	1.743296e-03	1.346348e-03	2.778910e-02
10.0682       	1.743266e-03	1.346438e-03	2.792588e-02
10.0685       	1.743299e-03	1.346612e-03	2.799200e-02
10.0688       	1.761074e-03	1.360531e-03	2.811159e-02
10.0691       	1.761067e-03	1.360771e-03	2.809529e-02
10.0695       	1.760982e-03	1.360950e-03	2.767340e-02
10.0698       	1.760869e-03	1.361089e-03	2.747428e-02
10.0701       	1.760741e-03	1.361241e-03	2.718905e-02
10.0704       	1.760568e-03	1.361366e-03	2.733409e-02
10.0708       	1.779741e-03	1.376405e-03	2.746119e-02
10.0711       	1.779671e-03	1.376561e-03	2.777205e-02
10.0714       	1.779586e-03	1.376768e-03	2.772454e-02
10.0717       	1.779469e-03	1.377049e-03	2.811688e-02
10.0721       	1.779360e-03	1.377285e-03	2.833090e-02
10.0724       	1.779247e-03	1.377546e-03	2.824642e-02
10.0727       	1.800261e-03	1.394121e-03	2.887032e-02
10.073        	1.800077e-03	1.394244e-03	2.903159e-02
10.0734       	1.799942e-03	1.394351e-03	2.900104e-02
10.0737       	1.799748e-03	1.394380e-03	2.880974e-02
10.074        	1.799570e-03	1.394431e-03	2.903159e-02
10.0744       	1.799365e-03	1.394541e-03	2.891855e-02
10.0747       	1.822532e-03	1.412721e-03	2.901840e-02
10.075        	1.822385e-03	1.412729e-03	2.900709e-02
10.0754       	1.822314e-03	1.412896e-03	2.900661e-02
10.0757       	1.822209e-03	1.413012e-03	2.862984e-02
10.076        	1.822026e-03	1.413059e-03	2.834976e-02
10.0764       	1.821800e-03	1.413084e-03	2.839431e-02
10.0767       	1.821589e-03	1.413048e-03	2.828007e-02
10.077        	1.847741e-03	1.433497e-03	2.855636e-02
10.0774       	1.847450e-03	1.433391e-03	2.846479e-02
10.0777       	1.847248e-03	1.433347e-03	2.856803e-02
10.078        	1.847072e-03	1.433439e-03	2.894768e-02
10.0784       	1.846833e-03	1.433588e-03	2.872231e-02
10.0787       	1.846664e-03	1.433735e-03	2.879381e-02
10.0791       	1.876204e-03	1.456969e-03	2.937160e-02
10.0794       	1.875953e-03	1.457154e-03	2.979818e-02
10.0797       	1.875712e-03	1.457366e-03	2.985490e-02
10.0801       	1.875404e-03	1.457500e-03	2.956633e-02
10.0804       	1.875183e-03	1.457740e-03	2.934351e-02
10.0808       	1.875033e-03	1.457995e-03	2.954572e-02
10.0811       	1.874879e-03	1.458297e-03	2.954114e-02
10.0815       	1.909423e-03	1.485579e-03	3.008614e-02
10.0818       	1.909330e-03	1.485814e-03	2.975325e-02
10.0822       	1.909266e-03	1.486034e-03	2.989223e-02
10.0825       	1.909232e-03	1.486268e-03	2.988668e-02
10.0829       	1.909073e-03	1.486431e-03	2.979441e-02
10.0832       	1.908849e-03	1.486484e-03	2.984482e-02
10.0836       	1.908586e-03	1.486457e-03	2.942172e-02
10.0839       	1.908336e-03	1.486522e-03	2.957325e-02
10.0843       	1.908050e-03	1.486615e-03	2.964680e-02
10.0846       	1.907838e-03	1.486876e-03	2.995947e-02
10.085        	1.907685e-03	1.487297e-03	2.991709e-02
10.0853       	1.952843e-03	1.522937e-03	3.035340e-02
10.0857       	1.952657e-03	1.523106e-03	2.983224e-02
10.086        	1.952403e-03	1.523314e-03	2.971727e-02
10.0864       	1.952095e-03	1.523453e-03	2.991265e-02
10.0868       	1.951830e-03	1.523657e-03	3.038775e-02
10.0871       	1.951552e-03	1.523865e-03	3.047798e-02
10.0875       	1.951344e-03	1.524157e-03	3.069833e-02
10.0878       	1.951155e-03	1.524543e-03	3.059429e-02
10.0882       	1.950952e-03	1.524944e-03	3.073652e-02
10.0885       	1.950771e-03	1.525314e-03	3.046694e-02
10.0889       	1.950646e-03	1.525674e-03	3.082489e-02
10.0893       	1.950480e-03	1.526034e-03	3.064586e-02
10.0896       	1.950181e-03	1.526255e-03	3.028684e-02
10.09         	1.949858e-03	1.526495e-03	3.019081e-02
10.0903       	1.949531e-03	1.526694e-03	2.981723e-02
10.0907       	1.949211e-03	1.526840e-03	2.994782e-02
10.091        	1.948945e-03	1.527032e-03	2.999448e-02
10.0914       	1.948726e-03	1.527344e-03	2.994064e-02
10.0918       	1.948520e-03	1.527768e-03	2.984335e-02
10.0921       	1.948191e-03	1.528137e-03	3.003637e-02
10.0925       	1.947878e-03	1.528533e-03	2.997522e-02
10.0928       	1.947547e-03	1.528768e-03	3.000500e-02
10.0932       	1.947182e-03	1.529027e-03	2.961534e-02
10.0936       	1.946810e-03	1.529284e-03	2.974068e-02
10.0939       	1.946374e-03	1.529618e-03	2.990005e-02
10.0943       	1.946041e-03	1.529982e-03	3.037050e-02
10.0946       	1.945786e-03	1.530407e-03	3.036924e-02
10.095        	1.945503e-03	1.530783e-03	3.044732e-02
10.0953       	1.945230e-03	1.531083e-03	3.058610e-02
10.0957       	1.944985e-03	1.531289e-03	3.076675e-02
10.0961       	1.944751e-03	1.531577e-03	3.069289e-02
10.0964       	1.944483e-03	1.531790e-03	3.047636e-02
10.0968       	1.944240e-03	1.532035e-03	3.014761e-02
10.0971       	1.943905e-03	1.532190e-03	3.041658e-02
10.0975       	1.943556e-03	1.532473e-03	3.034999e-02
10.0979       	1.943250e-03	1.532705e-03	3.026292e-02
10.0982       	1.942995e-03	1.532795e-03	3.027908e-02
10.0986       	1.942793e-03	1.533031e-03	2.996836e-02
10.0989       	1.942553e-03	1.533205e-03	2.982093e-02
10.0993       	1.942294e-03	1.533315e-03	2.988510e-02
10.0996       	1.942006e-03	1.533455e-03	3.034976e-02
10.1          	1.941667e-03	1.533575e-03	3.031706e-02
10.1004       	1.971554e-03	1.557611e-03	3.099067e-02
10.1007       	1.971121e-03	1.557676e-03	3.179105e-02
10.1011       	1.977889e-03	1.563462e-03	3.134472e-02
10.1015       	1.977570e-03	1.563674e-03	3.120905e-02
10.1018       	1.977264e-03	1.563844e-03	3.123272e-02
10.1022       	1.969636e-03	1.558233e-03	3.113312e-02
10.1025       	1.969399e-03	1.558419e-03	3.118826e-02
10.1029       	1.969119e-03	1.558670e-03	3.111785e-02
10.1033       	1.961395e-03	1.552967e-03	3.082485e-02
10.1036       	1.961073e-03	1.553049e-03	3.053269e-02
10.104        	1.960795e-03	1.553141e-03	3.082960e-02
10.1044       	1.960574e-03	1.553267e-03	3.076015e-02
10.1047       	1.960334e-03	1.553352e-03	3.105803e-02
10.1051       	1.952723e-03	1.547735e-03	3.129596e-02
10.1054       	1.952492e-03	1.547982e-03	3.073880e-02
10.1058       	1.952158e-03	1.548122e-03	3.060459e-02
10.1062       	1.951890e-03	1.548301e-03	3.073158e-02
10.1065       	1.951601e-03	1.548477e-03	3.034362e-02
10.1069       	1.951267e-03	1.548641e-03	3.039022e-02
10.1073       	1.950976e-03	1.548690e-03	3.070353e-02
10.1076       	1.950774e-03	1.548875e-03	3.139029e-02
10.108        	1.950522e-03	1.549134e-03	3.048894e-02
10.1083       	1.950332e-03	1.549409e-03	3.058101e-02
10.1087       	1.950136e-03	1.549635e-03	3.079777e-02
10.1091       	1.949971e-03	1.549829e-03	3.078235e-02
10.1094       	1.949790e-03	1.550087e-03	3.081976e-02
10.1098       	1.949480e-03	1.550225e-03	3.095424e-02
10.1101       	1.949175e-03	1.550353e-03	3.103953e-02
10.1105       	1.948896e-03	1.550535e-03	3.086950e-02
10.1109       	1.956533e-03	1.556823e-03	3.071463e-02
10.1112       	1.956300e-03	1.556865e-03	3.049721e-02
10.1116       	1.956204e-03	1.557029e-03	3.058093e-02
10.1119       	1.956137e-03	1.557195e-03	3.042895e-02
10.1123       	1.956035e-03	1.557407e-03	3.072391e-02
10.1127       	1.964017e-03	1.564009e-03	3.127117e-02
10.113        	1.963905e-03	1.564190e-03	3.057750e-02
10.1134       	1.963658e-03	1.564232e-03	3.016667e-02
10.1138       	1.963311e-03	1.564324e-03	3.007000e-02
10.1141       	1.971283e-03	1.571124e-03	3.011392e-02
10.1145       	1.971007e-03	1.571370e-03	3.004503e-02
10.1149       	1.979269e-03	1.578397e-03	2.962735e-02
10.1152       	1.979027e-03	1.578634e-03	2.981567e-02
10.1156       	1.987400e-03	1.585851e-03	2.953482e-02
10.116        	1.987202e-03	1.586062e-03	2.940198e-02
10.1163       	1.987014e-03	1.586315e-03	2.931521e-02
10.1167       	1.995533e-03	1.593466e-03	2.955488e-02
10.1171       	1.995290e-03	1.593589e-03	2.949953e-02
10.1174       	2.003884e-03	1.600772e-03	2.949157e-02
10.1178       	2.003529e-03	1.600744e-03	2.967932e-02
10.1182       	2.012390e-03	1.608172e-03	2.973499e-02
10.1186       	2.012186e-03	1.608376e-03	2.969346e-02
10.1189       	2.021208e-03	1.615891e-03	2.977656e-02
10.1193       	2.020966e-03	1.616012e-03	3.001958e-02
10.1197       	2.030130e-03	1.623602e-03	3.028627e-02
10.1201       	2.029833e-03	1.623554e-03	3.028002e-02
10.1205       	2.039126e-03	1.631292e-03	3.037902e-02
10.1208       	2.038894e-03	1.631337e-03	3.028044e-02
10.1212       	2.048473e-03	1.639193e-03	3.046690e-02
10.1216       	2.048231e-03	1.639312e-03	3.022775e-02
10.122        	2.057928e-03	1.647383e-03	3.028029e-02
10.1224       	2.057719e-03	1.647686e-03	3.017508e-02
10.1227       	2.067702e-03	1.656130e-03	3.020902e-02
10.1231       	2.067548e-03	1.656459e-03	2.995671e-02
10.1235       	2.077662e-03	1.665001e-03	3.013171e-02
10.1239       	2.077347e-03	1.665156e-03	3.020820e-02
10.1243       	2.087637e-03	1.673972e-03	3.069002e-02
10.1247       	2.098162e-03	1.682782e-03	3.112829e-02
10.1251       	2.098062e-03	1.683036e-03	3.106699e-02
10.1255       	2.097884e-03	1.683236e-03	3.070667e-02
10.1258       	2.097671e-03	1.683532e-03	3.057519e-02
10.1262       	2.097448e-03	1.683786e-03	3.058276e-02
10.1266       	2.097235e-03	1.683998e-03	3.030937e-02
10.127        	2.096940e-03	1.684093e-03	3.033632e-02
10.1274       	2.096645e-03	1.684231e-03	3.025613e-02
10.1278       	2.096384e-03	1.684438e-03	2.991557e-02
10.1282       	2.096216e-03	1.684752e-03	3.021674e-02
10.1286       	2.095925e-03	1.684922e-03	3.020221e-02
10.129        	2.095600e-03	1.685127e-03	3.041453e-02
10.1294       	2.095304e-03	1.685420e-03	3.045732e-02
10.1297       	2.095123e-03	1.685742e-03	3.032372e-02
10.1301       	2.094826e-03	1.685787e-03	3.072589e-02
10.1305       	2.094510e-03	1.685750e-03	3.070832e-02
10.1309       	2.106036e-03	1.695336e-03	3.104189e-02
10.1313       	2.105732e-03	1.695386e-03	3.103658e-02
10.1317       	2.105475e-03	1.695449e-03	3.105553e-02
10.1321       	2.105246e-03	1.695552e-03	3.110146e-02
10.1325       	2.105018e-03	1.695602e-03	3.082839e-02
10.1329       	2.104813e-03	1.695596e-03	3.089100e-02
10.1333       	2.104566e-03	1.695573e-03	3.083372e-02
10.1337       	2.104304e-03	1.695489e-03	3.089911e-02
10.1341       	2.116537e-03	1.705559e-03	3.050245e-02
10.1345       	2.116321e-03	1.705562e-03	3.089067e-02
10.1349       	2.116132e-03	1.705656e-03	3.062507e-02
10.1352       	2.115928e-03	1.705768e-03	3.074367e-02
10.1356       	2.115660e-03	1.705900e-03	3.099091e-02
10.136        	2.115347e-03	1.706089e-03	3.099282e-02
10.1364       	2.115136e-03	1.706270e-03	3.076826e-02
10.1368       	2.114777e-03	1.706195e-03	3.083027e-02
10.1372       	2.114450e-03	1.706064e-03	3.082153e-02
10.1376       	2.114205e-03	1.706010e-03	3.133752e-02
10.138        	2.114029e-03	1.706079e-03	3.133011e-02
10.1384       	2.113899e-03	1.706205e-03	3.110662e-02
10.1388       	2.113827e-03	1.706517e-03	3.119059e-02
10.1392       	2.113742e-03	1.706808e-03	3.086369e-02
10.1396       	2.113569e-03	1.706976e-03	3.081005e-02
10.14         	2.113410e-03	1.706996e-03	3.084874e-02
10.1404       	2.113179e-03	1.707009e-03	3.052836e-02
10.1408       	2.112955e-03	1.706991e-03	3.065927e-02
10.1412       	2.112763e-03	1.707072e-03	3.082050e-02
10.1416       	2.112655e-03	1.707310e-03	3.001498e-02
10.142        	2.126853e-03	1.719055e-03	3.024701e-02
10.1424       	2.126665e-03	1.719208e-03	2.992377e-02
10.1428       	2.126525e-03	1.719398e-03	3.025035e-02
10.1432       	2.126533e-03	1.719618e-03	2.954876e-02
10.1436       	2.126402e-03	1.719730e-03	2.969760e-02
10.144        	2.126163e-03	1.719597e-03	2.978491e-02
10.1443       	2.125945e-03	1.719526e-03	2.959160e-02
10.1447       	2.125712e-03	1.719543e-03	2.958586e-02
10.1451       	2.125494e-03	1.719637e-03	2.963042e-02
10.1455       	2.125389e-03	1.719825e-03	2.943483e-02
10.1459       	2.125334e-03	1.720109e-03	2.970568e-02
10.1463       	2.125273e-03	1.720377e-03	2.985129e-02
10.1467       	2.141016e-03	1.733469e-03	2.950007e-02
10.1471       	2.140821e-03	1.733575e-03	2.977491e-02
10.1475       	2.140573e-03	1.733604e-03	3.009979e-02
10.1479       	2.140396e-03	1.733760e-03	2.979101e-02
10.1483       	2.140212e-03	1.733835e-03	2.931459e-02
10.1487       	2.140037e-03	1.733844e-03	2.948377e-02
10.1491       	2.139875e-03	1.733856e-03	2.967647e-02
10.1495       	2.156683e-03	1.747624e-03	2.992313e-02
10.1499       	2.156540e-03	1.747762e-03	2.940633e-02
10.1504       	2.156403e-03	1.747843e-03	2.944099e-02
10.1508       	2.156225e-03	1.747700e-03	2.951377e-02
10.1512       	2.155947e-03	1.747477e-03	2.966089e-02
10.1516       	2.155715e-03	1.747354e-03	2.985249e-02
10.152        	2.173605e-03	1.761973e-03	2.978822e-02
10.1524       	2.173546e-03	1.761914e-03	2.956810e-02
10.1528       	2.173482e-03	1.761937e-03	2.943936e-02
10.1532       	2.173545e-03	1.762099e-03	2.954063e-02
10.1536       	2.173499e-03	1.762263e-03	2.969965e-02
10.154        	2.173321e-03	1.762386e-03	3.000138e-02
10.1544       	2.192694e-03	1.778252e-03	2.974215e-02
10.1548       	2.192677e-03	1.778309e-03	2.976700e-02
10.1552       	2.192615e-03	1.778291e-03	2.971208e-02
10.1556       	2.192456e-03	1.778099e-03	2.953702e-02
10.1561       	2.192232e-03	1.777957e-03	2.976309e-02
10.1565       	2.212622e-03	1.794691e-03	3.016190e-02
10.1569       	2.212448e-03	1.794540e-03	2.986497e-02
10.1573       	2.212284e-03	1.794264e-03	2.978901e-02
10.1577       	2.212031e-03	1.793953e-03	3.025354e-02
10.1581       	2.211709e-03	1.793656e-03	3.030661e-02
10.1585       	2.211480e-03	1.793437e-03	3.033730e-02
10.159        	2.211186e-03	1.793157e-03	2.962195e-02
10.1594       	2.210924e-03	1.793012e-03	2.969321e-02
10.1598       	2.210785e-03	1.792958e-03	2.916362e-02
10.1602       	2.210624e-03	1.792858e-03	2.928457e-02
10.1606       	2.210462e-03	1.792786e-03	2.939227e-02
10.161        	2.210334e-03	1.792776e-03	2.908821e-02
10.1614       	2.210377e-03	1.792913e-03	2.922900e-02
10.1619       	2.210467e-03	1.793098e-03	2.881078e-02
10.1623       	2.210533e-03	1.793127e-03	2.863313e-02
10.1627       	2.210530e-03	1.793127e-03	2.897215e-02
10.1631       	2.210386e-03	1.793075e-03	2.851695e-02
10.1635       	2.210273e-03	1.793144e-03	2.853059e-02
10.1639       	2.210134e-03	1.793073e-03	2.848370e-02
10.1643       	2.210033e-03	1.792957e-03	2.877641e-02
10.1648       	2.209939e-03	1.792822e-03	2.925016e-02
10.1652       	2.209832e-03	1.792754e-03	2.940828e-02
10.1656       	2.209720e-03	1.792803e-03	2.965032e-02
10.166        	2.209585e-03	1.792825e-03	2.921635e-02
10.1664       	2.209416e-03	1.792702e-03	2.941391e-02
10.1668       	2.209211e-03	1.792590e-03	2.951872e-02
10.1673       	2.209015e-03	1.792432e-03	2.931771e-02
10.1677       	2.208848e-03	1.792244e-03	2.943455e-02
10.1681       	2.208754e-03	1.792139e-03	2.921878e-02
10.1685       	2.208676e-03	1.792121e-03	2.884311e-02
10.1689       	2.208561e-03	1.792150e-03	2.895501e-02
10.1693       	2.208478e-03	1.792201e-03	2.868158e-02
10.1697       	2.208367e-03	1.792189e-03	2.899075e-02
10.1702       	2.208292e-03	1.792150e-03	2.900061e-02
10.1706       	2.208195e-03	1.792148e-03	2.905190e-02
10.171        	2.208109e-03	1.792059e-03	2.927805e-02
10.1714       	2.208070e-03	1.792101e-03	2.942552e-02
10.1718       	2.208082e-03	1.792094e-03	2.990302e-02
10.1722       	2.208095e-03	1.792136e-03	2.997213e-02
10.1726       	2.208083e-03	1.792032e-03	3.002538e-02
10.1731       	2.242069e-03	1.819624e-03	3.038237e-02
10.1735       	2.242229e-03	1.819814e-03	3.064798e-02
10.1739       	2.242370e-03	1.819952e-03	3.091845e-02
10.1743       	2.242377e-03	1.819971e-03	3.105449e-02
10.1747       	2.242322e-03	1.819843e-03	3.073902e-02
10.1752       	2.242240e-03	1.819791e-03	3.036190e-02
10.1756       	2.242170e-03	1.819715e-03	3.043757e-02
10.176        	2.242082e-03	1.819601e-03	3.028476e-02
10.1764       	2.241991e-03	1.819453e-03	2.995637e-02
10.1768       	2.241884e-03	1.819288e-03	2.966161e-02
10.1773       	2.241838e-03	1.819143e-03	2.967044e-02
10.1777       	2.241707e-03	1.818844e-03	2.966800e-02
10.1781       	2.241608e-03	1.818625e-03	2.923196e-02
10.1785       	2.241559e-03	1.818550e-03	2.950534e-02
10.179        	2.241504e-03	1.818495e-03	2.930493e-02
10.1794       	2.241498e-03	1.818495e-03	2.965139e-02
10.1798       	2.241546e-03	1.818431e-03	2.961209e-02
10.1802       	2.241643e-03	1.818343e-03	2.987008e-02
10.1806       	2.241699e-03	1.818338e-03	2.979122e-02
10.1811       	2.241747e-03	1.818395e-03	2.960138e-02
10.1815       	2.241760e-03	1.818183e-03	2.972839e-02
10.1819       	2.241735e-03	1.818102e-03	2.932530e-02
10.1823       	2.241710e-03	1.817968e-03	2.928233e-02
10.1827       	2.241661e-03	1.817755e-03	2.943967e-02
10.1832       	2.241542e-03	1.817676e-03	2.938167e-02
10.1836       	2.241454e-03	1.817581e-03	2.976599e-02
10.184        	2.241470e-03	1.817509e-03	2.925391e-02
10.1844       	2.241438e-03	1.817153e-03	2.917828e-02
10.1848       	2.241370e-03	1.816865e-03	2.921373e-02
10.1853       	2.241393e-03	1.816685e-03	2.897968e-02
10.1857       	2.241404e-03	1.816570e-03	2.903961e-02
10.1861       	2.241415e-03	1.816456e-03	2.883491e-02
10.1865       	2.241459e-03	1.816425e-03	2.905170e-02
10.187        	2.241621e-03	1.816503e-03	2.904274e-02
10.1874       	2.241679e-03	1.816546e-03	2.948295e-02
10.1878       	2.241860e-03	1.816587e-03	2.967862e-02
10.1882       	2.241952e-03	1.816712e-03	2.947751e-02
10.1886       	2.241998e-03	1.816885e-03	2.887957e-02
10.1891       	2.241827e-03	1.816728e-03	2.884004e-02
10.1895       	2.241692e-03	1.816677e-03	2.882460e-02
10.1899       	2.241470e-03	1.816566e-03	2.859459e-02
10.1903       	2.241238e-03	1.816468e-03	2.872243e-02
10.1907       	2.241136e-03	1.816402e-03	2.850978e-02
10.1912       	2.240978e-03	1.816181e-03	2.893196e-02
10.1916       	2.240762e-03	1.815921e-03	2.866399e-02
10.192        	2.240693e-03	1.815649e-03	2.864602e-02
10.1924       	2.240697e-03	1.815352e-03	2.858253e-02
10.1928       	2.240717e-03	1.815037e-03	2.821630e-02
10.1933       	2.240774e-03	1.814785e-03	2.853861e-02
10.1937       	2.240846e-03	1.814710e-03	2.836612e-02
10.1941       	2.240908e-03	1.814625e-03	2.853719e-02
10.1945       	2.240973e-03	1.814586e-03	2.855167e-02
10.1949       	2.241017e-03	1.814467e-03	2.839940e-02
10.1954       	2.241011e-03	1.814507e-03	2.821009e-02
10.1958       	2.240982e-03	1.814454e-03	2.820859e-02
10.1962       	2.240904e-03	1.814224e-03	2.793375e-02
10.1966       	2.240780e-03	1.814139e-03	2.770494e-02
10.1971       	2.240557e-03	1.814042e-03	2.797862e-02
10.1975       	2.240428e-03	1.813984e-03	2.805939e-02
10.1979       	2.240241e-03	1.813781e-03	2.806634e-02
10.1983       	2.240076e-03	1.813568e-03	2.833637e-02
10.1987       	2.240045e-03	1.813321e-03	2.813631e-02
10.1992       	2.240084e-03	1.813127e-03	2.801598e-02
10.1996       	2.240094e-03	1.812882e-03	2.798710e-02
10.2          	2.240126e-03	1.812698e-03	2.799335e-02
10.2005       	2.407946e-03	1.948237e-03	3.298291e-02
10.2009       	2.419066e-03	1.956681e-03	3.159737e-02
10.2014       	2.419208e-03	1.956339e-03	3.080552e-02
10.2018       	2.430452e-03	1.965115e-03	3.014913e-02
10.2023       	2.430547e-03	1.964948e-03	2.981188e-02
10.2027       	2.442013e-03	1.974022e-03	3.010844e-02
10.2032       	2.441927e-03	1.973881e-03	2.974618e-02
10.2037       	2.441629e-03	1.973580e-03	2.957653e-02
10.2041       	2.452943e-03	1.982826e-03	2.972396e-02
10.2046       	2.452722e-03	1.982554e-03	2.978035e-02
10.205        	2.464373e-03	1.991919e-03	2.990395e-02