/*--------------------------------*- C++ -*----------------------------------*\
  =========                 |
  \\      /  F ield         | OpenFOAM: The Open Source CFD Toolbox
   \\    /   O peration     | Website:  https://openfoam.org
    \\  /    A nd           | Version:  9
     \\/     M anipulation  |
\*---------------------------------------------------------------------------*/
FoamFile
{
    format      ascii;
    class       surfaceScalarField;
    location    "8.2";
    object      phi;
}
// * * * * * * * * * * * * * * * * * * * * * * * * * * * * * * * * * * * * * //

dimensions      [0 3 -1 0 0 0 0];

internalField   nonuniform List<scalar> 
92080
(
-0.00370996
-0.436069
0.439779
-0.0296969
-0.847047
0.873034
-0.0713322
-0.904358
0.945993
-0.113481
-0.888541
0.93069
-0.154125
-0.875198
0.915841
-0.193796
-0.861889
0.90156
-0.233301
-0.849177
0.888682
-0.272736
-0.837177
0.876611
-0.311007
-0.82726
0.865532
-0.34839
-0.816476
0.853859
-0.38586
-0.806381
0.843852
-0.423012
-0.796822
0.833974
-0.459709
-0.788693
0.825391
-0.49657
-0.780551
0.817412
-0.533255
-0.772761
0.809446
-0.567791
-0.767045
0.80158
-0.60167
-0.759076
0.792955
-0.636054
-0.751486
0.78587
-0.667126
-0.746074
0.777145
-0.739543
0.767917
-0.6955
-0.00656801
-0.429501
-0.0369878
-0.816627
-0.0797325
-0.861613
-0.122267
-0.846006
-0.164758
-0.832708
-0.206678
-0.819969
-0.247709
-0.808145
-0.288302
-0.796584
-0.32869
-0.786873
-0.368371
-0.776795
-0.407316
-0.767436
-0.446396
-0.757743
-0.485421
-0.749668
-0.522954
-0.743018
-0.560967
-0.734747
-0.599064
-0.728948
-0.634444
-0.723696
-0.669924
-0.716006
-0.704616
-0.711382
-0.707998
-0.736161
-0.00670496
-0.422796
-0.0428149
-0.780517
-0.0868652
-0.817563
-0.131306
-0.801565
-0.17482
-0.789193
-0.21778
-0.777009
-0.260657
-0.765268
-0.303342
-0.753899
-0.344776
-0.745438
-0.385234
-0.736337
-0.425193
-0.727477
-0.464456
-0.718481
-0.504247
-0.709878
-0.543895
-0.703369
-0.582152
-0.69649
-0.62066
-0.69044
-0.658054
-0.686303
-0.693251
-0.680809
-0.730068
-0.674565
-0.67072
-0.767346
-0.0034722
-0.419324
-0.0427968
-0.741192
-0.0896375
-0.770722
-0.136443
-0.75476
-0.183312
-0.742323
-0.229196
-0.731125
-0.273737
-0.720728
-0.318391
-0.709245
-0.363299
-0.70053
-0.406585
-0.69305
-0.448295
-0.685767
-0.489235
-0.677541
-0.530089
-0.669024
-0.570747
-0.662711
-0.612044
-0.655193
-0.653974
-0.64851
-0.696248
-0.644028
-0.736564
-0.640493
-0.774468
-0.636661
-0.632052
-0.813136
0.000124753
-0.419449
-0.0417846
-0.699283
-0.0915822
-0.720924
-0.140266
-0.706077
-0.187953
-0.694636
-0.235117
-0.683962
-0.28164
-0.674204
-0.327254
-0.663632
-0.372877
-0.654907
-0.418783
-0.647144
-0.463213
-0.641336
-0.504933
-0.635821
-0.546381
-0.627576
-0.587013
-0.622078
-0.625384
-0.616823
-0.664534
-0.60936
-0.705014
-0.603549
-0.746941
-0.598566
-0.788115
-0.595487
-0.592384
-0.827783
0.0010491
-0.420498
-0.0431909
-0.655043
-0.0964547
-0.667661
-0.147786
-0.654745
-0.198601
-0.643822
-0.247655
-0.634908
-0.294916
-0.626943
-0.341777
-0.61677
-0.388506
-0.608179
-0.435296
-0.600354
-0.483183
-0.59345
-0.529355
-0.589648
-0.573559
-0.583372
-0.618954
-0.576684
-0.662999
-0.572778
-0.704442
-0.567917
-0.745603
-0.562387
-0.786816
-0.557353
-0.829576
-0.552727
-0.550123
-0.871836
5.09989e-05
-0.420549
-0.0479218
-0.60707
-0.1025
-0.613082
-0.153795
-0.60345
-0.20428
-0.593336
-0.254878
-0.584309
-0.303854
-0.577967
-0.350573
-0.570051
-0.39668
-0.562071
-0.442505
-0.55453
-0.488968
-0.546987
-0.535602
-0.543014
-0.579892
-0.539083
-0.623061
-0.533514
-0.667193
-0.528646
-0.710286
-0.524823
-0.752228
-0.520445
-0.793375
-0.516206
-0.834484
-0.511618
-0.507566
-0.877042
-0.007145
-0.413404
-0.0585744
-0.555641
-0.115202
-0.556455
-0.169024
-0.549628
-0.220688
-0.541673
-0.271051
-0.533946
-0.321193
-0.527825
-0.37052
-0.520725
-0.418203
-0.514388
-0.464509
-0.508223
-0.51206
-0.499436
-0.560968
-0.494106
-0.609417
-0.490634
-0.656361
-0.48657
-0.702299
-0.482708
-0.747715
-0.479407
-0.791892
-0.476268
-0.834938
-0.47316
-0.876223
-0.470333
-0.466945
-0.916845
-0.0166762
-0.396728
-0.068457
-0.50386
-0.123436
-0.501475
-0.175899
-0.497165
-0.227828
-0.489744
-0.278661
-0.483113
-0.327697
-0.47879
-0.375732
-0.47269
-0.424151
-0.46597
-0.469491
-0.462882
-0.512607
-0.456319
-0.557563
-0.44915
-0.60326
-0.444938
-0.649094
-0.440736
-0.695532
-0.43627
-0.7421
-0.432839
-0.788678
-0.42969
-0.835177
-0.426662
-0.881154
-0.424356
-0.421848
-0.926251
-0.0255103
-0.371218
-0.0791306
-0.45024
-0.135849
-0.444757
-0.191687
-0.441327
-0.245447
-0.435985
-0.298976
-0.429584
-0.351568
-0.426198
-0.401061
-0.423196
-0.450967
-0.416064
-0.50204
-0.411809
-0.549627
-0.408732
-0.595003
-0.403775
-0.640936
-0.399005
-0.685462
-0.396209
-0.729224
-0.392509
-0.773378
-0.388685
-0.817179
-0.385889
-0.860978
-0.382863
-0.90486
-0.380474
-0.378222
-0.948486
-0.0321361
-0.339081
-0.0849907
-0.397385
-0.139706
-0.390042
-0.193012
-0.38802
-0.246699
-0.382298
-0.300766
-0.375517
-0.355382
-0.371581
-0.407091
-0.371487
-0.455046
-0.368108
-0.503386
-0.36347
-0.55298
-0.359138
-0.600729
-0.356027
-0.647896
-0.351837
-0.695878
-0.348228
-0.74227
-0.346116
-0.788118
-0.342837
-0.834145
-0.339862
-0.879578
-0.337429
-0.925065
-0.334987
-0.332924
-0.970363
-0.0391934
-0.299888
-0.0917524
-0.344826
-0.145703
-0.336091
-0.199232
-0.334492
-0.249499
-0.332031
-0.300389
-0.324627
-0.355755
-0.316216
-0.412909
-0.314332
-0.468326
-0.312692
-0.52006
-0.311736
-0.570159
-0.309038
-0.620007
-0.306179
-0.667736
-0.304108
-0.714766
-0.301198
-0.76217
-0.298711
-0.807697
-0.29731
-0.853066
-0.294494
-0.898261
-0.292234
-0.943064
-0.290184
-0.287632
-0.988356
-0.0433716
-0.256516
-0.100354
-0.287843
-0.159003
-0.277443
-0.218423
-0.275071
-0.273922
-0.276532
-0.321496
-0.277053
-0.36817
-0.269542
-0.417695
-0.264807
-0.469825
-0.260561
-0.523115
-0.258447
-0.575132
-0.257021
-0.626184
-0.255127
-0.677498
-0.252794
-0.726883
-0.251813
-0.77602
-0.249574
-0.824975
-0.248355
-0.871801
-0.247668
-0.918583
-0.245452
-0.964035
-0.244732
-0.24242
-1.00925
-0.0500059
-0.206511
-0.107952
-0.229897
-0.164088
-0.221307
-0.222963
-0.216196
-0.285092
-0.214403
-0.344367
-0.217779
-0.396919
-0.21699
-0.446522
-0.215204
-0.494748
-0.212336
-0.5436
-0.209595
-0.593617
-0.207004
-0.642719
-0.206025
-0.69151
-0.204003
-0.741139
-0.202184
-0.789228
-0.201485
-0.838458
-0.199125
-0.886973
-0.199152
-0.934748
-0.197677
-0.982216
-0.197264
-0.196279
-1.02836
-0.0539514
-0.152559
-0.107919
-0.17593
-0.157467
-0.171759
-0.206011
-0.167652
-0.259154
-0.161259
-0.317015
-0.159918
-0.375188
-0.158817
-0.43166
-0.158732
-0.486592
-0.157404
-0.539601
-0.156586
-0.591421
-0.155183
-0.643786
-0.15366
-0.694069
-0.15372
-0.744417
-0.151836
-0.793985
-0.151917
-0.842645
-0.150465
-0.891869
-0.149928
-0.940243
-0.149303
-0.988691
-0.148816
-0.148429
-1.03654
-0.0559908
-0.0965683
-0.120863
-0.111058
-0.180768
-0.111854
-0.239455
-0.108965
-0.2935
-0.107214
-0.348045
-0.105373
-0.402374
-0.104488
-0.456749
-0.104356
-0.510065
-0.104088
-0.562672
-0.103978
-0.613741
-0.104115
-0.664093
-0.103308
-0.71428
-0.103534
-0.76306
-0.103056
-0.81203
-0.102947
-0.859898
-0.102597
-0.907532
-0.102294
-0.955193
-0.101642
-1.0025
-0.101507
-0.100834
-1.0501
-0.054662
-0.0419063
-0.112433
-0.0532868
-0.173472
-0.0508148
-0.230504
-0.051934
-0.286034
-0.0516841
-0.34025
-0.051157
-0.393975
-0.050763
-0.447943
-0.0503878
-0.501195
-0.0508369
-0.554671
-0.0505021
-0.607747
-0.0510389
-0.659806
-0.0512484
-0.711745
-0.0515953
-0.762891
-0.051909
-0.813439
-0.0523997
-0.863397
-0.0526385
-0.912495
-0.0531968
-0.960779
-0.0533578
-1.00845
-0.0538365
-0.0538591
-1.05542
-0.0510459
0.00913962
-0.112163
0.00783057
-0.173548
0.01057
-0.232563
0.00708096
-0.292048
0.00780053
-0.349488
0.00628337
-0.405868
0.00561657
-0.461317
0.00506153
-0.51569
0.00353628
-0.569194
0.00300154
-0.621723
0.00149042
-0.673825
0.000853581
-0.724873
-0.000546943
-0.77524
-0.00154236
-0.825166
-0.00247368
-0.874114
-0.00369055
-0.922971
-0.00433991
-0.970777
-0.00555151
-1.01838
-0.00623803
-0.00746557
-1.06477
-0.0507017
0.0598413
-0.115937
0.0730662
-0.174089
0.0687218
-0.234028
0.0670198
-0.291124
0.0648966
-0.348105
0.0632646
-0.40366
0.0611716
-0.458329
0.0597304
-0.512839
0.0580463
-0.566237
0.0563988
-0.6194
0.0546542
-0.671471
0.0529238
-0.723569
0.0515515
-0.77489
0.0497786
-0.825589
0.0482256
-0.87576
0.0464802
-0.925358
0.0452576
-0.974285
0.0433755
-1.02278
0.0422564
0.0403459
-1.07059
-0.061029
0.12087
-0.121999
0.134036
-0.179907
0.12663
-0.237125
0.124238
-0.294984
0.122755
-0.351639
0.11992
-0.407859
0.117392
-0.462951
0.114822
-0.517178
0.112274
-0.570208
0.109428
-0.623252
0.107698
-0.675725
0.105398
-0.727499
0.103325
-0.778764
0.101044
-0.829396
0.0988576
-0.879897
0.0969821
-0.929248
0.0946084
-0.978474
0.0926016
-1.02674
0.0905255
-1.07469
0.0882886
0.0166575
-0.00448681
-0.0121707
0.0849148
-0.152223
0.0839661
0.254345
-0.499318
0.329888
0.409594
-0.877857
0.722608
0.498135
-1.08183
0.993288
0.533518
-1.15293
1.11754
0.547897
-1.16866
1.15428
0.555515
-1.16843
1.16081
0.560023
-1.16354
1.15904
0.562996
-1.15615
1.15318
0.566656
-1.15106
1.1474
0.569616
-1.14601
1.14305
0.572951
-1.1426
1.13926
0.576406
-1.13855
1.13509
0.57884
-1.13492
1.13249
0.580253
-1.12967
1.12826
0.581593
-1.1262
1.12486
0.58341
-1.1222
1.12038
0.58394
-1.1195
1.11897
-1.11003
0.581396
1.11257
0.0344153
-0.0389021
0.117732
-0.23554
0.279526
-0.661112
0.39496
-0.993291
0.449891
-1.13676
0.47069
-1.17372
0.479479
-1.17745
0.484861
-1.17381
0.486752
-1.16543
0.489366
-1.15877
0.491689
-1.15339
0.494047
-1.14837
0.495635
-1.14419
0.496243
-1.13915
0.49617
-1.13485
0.496092
-1.12959
0.495831
-1.12594
0.494904
-1.12127
0.492511
-1.11711
-1.10629
0.48877
0.035485
-0.0743872
0.143377
-0.343432
0.281128
-0.798864
0.362952
-1.07512
0.394535
-1.16834
0.405262
-1.18445
0.410602
-1.18279
0.4121
-1.17531
0.413794
-1.16713
0.415633
-1.16061
0.417051
-1.1548
0.41779
-1.14911
0.418114
-1.14451
0.418218
-1.13926
0.41777
-1.1344
0.416708
-1.12853
0.415135
-1.12437
0.413415
-1.11955
0.409847
-1.11354
-1.10191
0.405466
0.0292475
-0.103635
0.147172
-0.461357
0.255402
-0.907093
0.311855
-1.13157
0.33116
-1.18765
0.338475
-1.19177
0.342092
-1.1864
0.343363
-1.17658
0.344793
-1.16856
0.345463
-1.16128
0.345166
-1.15451
0.344529
-1.14847
0.343428
-1.14341
0.341681
-1.13751
0.339285
-1.132
0.336676
-1.12592
0.333889
-1.12158
0.330216
-1.11588
0.324519
-1.10785
-1.09696
0.319568
0.0356627
-0.139297
0.139851
-0.565544
0.22574
-0.992983
0.263817
-1.16964
0.275188
-1.19902
0.280206
-1.19678
0.280718
-1.18691
0.281076
-1.17694
0.28078
-1.16826
0.279808
-1.1603
0.278459
-1.15316
0.2764
-1.14641
0.273644
-1.14065
0.270265
-1.13413
0.266273
-1.12801
0.262054
-1.1217
0.257265
-1.11679
0.251823
-1.11043
0.24559
-1.10161
-1.09094
0.239568
0.0411767
-0.180474
0.129874
-0.654241
0.194534
-1.05764
0.216898
-1.19201
0.222608
-1.20473
0.223154
-1.19733
0.222252
-1.18601
0.220842
-1.17553
0.218817
-1.16624
0.216178
-1.15766
0.21257
-1.14955
0.208568
-1.14241
0.204124
-1.13621
0.199271
-1.12928
0.194058
-1.1228
0.188433
-1.11608
0.182427
-1.11078
0.1757
-1.10371
0.16802
-1.09393
-1.08354
0.160623
0.0448814
-0.225355
0.116155
-0.725515
0.163257
-1.10475
0.175535
-1.20429
0.177017
-1.20621
0.174645
-1.19496
0.17161
-1.18298
0.168015
-1.17194
0.163763
-1.16199
0.158799
-1.1527
0.153479
-1.14423
0.147505
-1.13644
0.140911
-1.12962
0.133775
-1.12214
0.126239
-1.11526
0.118482
-1.10832
0.110221
-1.10252
0.101593
-1.09508
0.0928801
-1.08522
-1.07511
0.0844463
0.0411518
-0.266507
0.102094
-0.786458
0.134459
-1.13711
0.137787
-1.20761
0.134582
-1.203
0.12886
-1.18924
0.123032
-1.17715
0.116585
-1.16549
0.109769
-1.15517
0.102654
-1.14558
0.0949085
-1.13649
0.0867398
-1.12827
0.0782228
-1.1211
0.0692383
-1.11316
0.0598858
-1.10591
0.0503476
-1.09878
0.0406501
-1.09282
0.0307377
-1.08517
0.0206304
-1.07511
-1.06475
0.0102752
0.0350752
-0.301582
0.083049
-0.834432
0.103349
-1.15741
0.101685
-1.20595
0.094903
-1.19622
0.0873875
-1.18172
0.079175
-1.16894
0.0705644
-1.15688
0.0613468
-1.14595
0.0515604
-1.1358
0.0414827
-1.12641
0.0309021
-1.11769
0.0198969
-1.11009
0.00870442
-1.10197
-0.00278362
-1.09442
-0.0144859
-1.08708
-0.0264559
-1.08085
-0.0384196
-1.0732
-0.0505831
-1.06295
-1.0522
-0.0631307
0.0317127
-0.333295
0.0702277
-0.872947
0.0800907
-1.16727
0.0731193
-1.19898
0.0626506
-1.18575
0.0517413
-1.17081
0.040178
-1.15737
0.0281517
-1.14485
0.0159478
-1.13375
0.00358528
-1.12344
-0.00907749
-1.11375
-0.0221045
-1.10466
-0.0354474
-1.09675
-0.0491599
-1.08825
-0.0631227
-1.08046
-0.0772855
-1.07292
-0.0914998
-1.06664
-0.105563
-1.05914
-0.11981
-1.0487
-1.03701
-0.134998
0.0267022
-0.359997
0.0556658
-0.90191
0.056614
-1.16822
0.0446794
-1.18704
0.0306984
-1.17177
0.0167514
-1.15686
0.00245979
-1.14308
-0.0120085
-1.13038
-0.0269331
-1.11883
-0.0421465
-1.10822
-0.0574736
-1.09842
-0.073043
-1.08909
-0.0887923
-1.081
-0.104563
-1.07248
-0.120494
-1.06453
-0.136559
-1.05685
-0.152877
-1.05032
-0.168781
-1.04324
-0.1845
-1.03298
-1.02096
-0.200555
0.0223279
-0.382325
0.0428697
-0.922452
0.0373486
-1.1627
0.0219993
-1.17169
0.00519266
-1.15497
-0.0117223
-1.13995
-0.0291844
-1.12562
-0.0469885
-1.11258
-0.0648246
-1.10099
-0.0828509
-1.0902
-0.100945
-1.08032
-0.119267
-1.07077
-0.137796
-1.06247
-0.156481
-1.0538
-0.1752
-1.04581
-0.194059
-1.03799
-0.212925
-1.03146
-0.231606
-1.02455
-0.250123
-1.01447
-1.00209
-0.268996
0.0180523
-0.400377
0.030908
-0.935308
0.0183298
-1.15012
-0.00142774
-1.15194
-0.0216951
-1.1347
-0.0418788
-1.11977
-0.0620395
-1.10546
-0.0823393
-1.09228
-0.102975
-1.08035
-0.123708
-1.06946
-0.144481
-1.05955
-0.165334
-1.04992
-0.186242
-1.04156
-0.207171
-1.03287
-0.228083
-1.0249
-0.248989
-1.01709
-0.270057
-1.01039
-0.290498
-1.00411
-0.310193
-0.99477
-0.982386
-0.329894
0.0146898
-0.415067
0.0208278
-0.941446
0.00407279
-1.13337
-0.018356
-1.12951
-0.0412621
-1.11179
-0.0642833
-1.09674
-0.087649
-1.08209
-0.111195
-1.06873
-0.134681
-1.05687
-0.158393
-1.04575
-0.182024
-1.03592
-0.205745
-1.02619
-0.229516
-1.01779
-0.253324
-1.00906
-0.277208
-1.00101
-0.301145
-0.993151
-0.325371
-0.986161
-0.349539
-0.979947
-0.372674
-0.971634
-0.959685
-0.395375
0.0106274
-0.425695
0.0110157
-0.941834
-0.0115241
-1.11083
-0.0379087
-1.10312
-0.064324
-1.08538
-0.0905579
-1.07051
-0.116347
-1.0563
-0.142216
-1.04286
-0.168357
-1.03073
-0.194552
-1.01955
-0.220709
-1.00976
-0.246784
-1.00012
-0.272786
-0.991791
-0.298636
-0.983212
-0.324447
-0.975202
-0.350328
-0.96727
-0.376283
-0.960207
-0.401883
-0.954347
-0.426517
-0.947
-0.93593
-0.450272
0.00832435
-0.434019
0.00365643
-0.937166
-0.022779
-1.08439
-0.0514986
-1.0744
-0.0801331
-1.05674
-0.108915
-1.04173
-0.137841
-1.02738
-0.166621
-1.01408
-0.19517
-1.00218
-0.224049
-0.990675
-0.253002
-0.980811
-0.281954
-0.971168
-0.310882
-0.962863
-0.339755
-0.954339
-0.368446
-0.946511
-0.397037
-0.93868
-0.426065
-0.931179
-0.455071
-0.925341
-0.482853
-0.919218
-0.909464
-0.509318
0.00509822
-0.439117
-0.00362414
-0.928444
-0.0343436
-1.05367
-0.0671382
-1.04161
-0.0992557
-1.02463
-0.131098
-1.00989
-0.162279
-0.996196
-0.193476
-0.982888
-0.224761
-0.970893
-0.255879
-0.959557
-0.286945
-0.949745
-0.318105
-0.940007
-0.349208
-0.93176
-0.380137
-0.923411
-0.411138
-0.915509
-0.442069
-0.907748
-0.473135
-0.900113
-0.504093
-0.894382
-0.534378
-0.888933
-0.880721
-0.563121
0.00243209
-0.441549
-0.0123292
-0.913682
-0.0450725
-1.02093
-0.0791845
-1.0075
-0.112776
-0.991035
-0.146632
-0.976031
-0.180512
-0.962317
-0.213875
-0.949524
-0.246924
-0.937844
-0.280423
-0.926058
-0.313997
-0.916171
-0.347419
-0.906586
-0.381068
-0.89811
-0.414748
-0.889731
-0.448097
-0.882159
-0.481108
-0.874738
-0.514832
-0.866389
-0.549212
-0.860002
-0.583321
-0.854823
-0.847924
-0.616119
0.000213468
-0.441763
-0.0182926
-0.895176
-0.0547155
-0.984507
-0.0926215
-0.969591
-0.129384
-0.954272
-0.165485
-0.93993
-0.201185
-0.926617
-0.236978
-0.913732
-0.27251
-0.902312
-0.307655
-0.890912
-0.343034
-0.880792
-0.378561
-0.871059
-0.413776
-0.862895
-0.44911
-0.854397
-0.485203
-0.846066
-0.521114
-0.838827
-0.556544
-0.830959
-0.593
-0.823546
-0.631337
-0.816486
-0.810579
-0.668682
-0.00198355
-0.0241263
-0.0626398
-0.101541
-0.139972
-0.178342
-0.216276
-0.253397
-0.290177
-0.327231
-0.364172
-0.401256
-0.438761
-0.475746
-0.512366
-0.549613
-0.587617
-0.625293
-0.664634
-0.707295
0.492403
-9.6867
9.77569
0.42744
-9.35704
9.422
0.375266
-9.3885
9.44067
0.327988
-9.15061
9.19789
0.293548
-9.20579
9.24023
0.25712
-9.07251
9.10894
0.226024
-9.05176
9.08286
0.196654
-8.94565
8.97502
0.172453
-8.94295
8.96715
0.149395
-8.87336
8.89642
0.127496
-8.87545
8.89734
0.107535
-8.83863
8.85859
0.0910465
-8.86925
8.88573
0.0753647
-8.84213
8.85781
0.0626308
-8.86457
8.8773
0.0499149
-8.79208
8.8048
0.0450837
-8.72739
8.73222
0.031104
-7.85391
7.86789
0.0181779
-5.62303
5.63595
-2.37388
2.39206
0.406545
-9.60447
0.34334
-9.29383
0.292327
-9.33748
0.251427
-9.10971
0.22346
-9.17782
0.191626
-9.04068
0.162678
-9.02281
0.135959
-8.91894
0.115319
-8.92231
0.0968329
-8.85487
0.0799685
-8.85858
0.0654643
-8.82413
0.0546126
-8.85839
0.044622
-8.83214
0.0378286
-8.85777
0.0309739
-8.78523
0.0316543
-8.72807
0.0231392
-7.84539
0.0156558
-5.61554
-2.35823
0.325839
-9.52484
0.262764
-9.23076
0.214196
-9.28891
0.176566
-9.07208
0.148408
-9.14966
0.118637
-9.01091
0.0964685
-9.00064
0.0768449
-8.89931
0.0624669
-8.90793
0.049475
-8.84188
0.0375305
-8.84664
0.0280129
-8.81461
0.0219504
-8.85233
0.0165249
-8.82672
0.0147398
-8.85599
0.0127168
-8.78321
0.0183601
-8.73372
0.0163883
-7.84342
0.0143908
-5.61355
-2.34384
0.241453
-9.44673
0.178113
-9.16742
0.132922
-9.24372
0.101527
-9.04068
0.0782196
-9.12635
0.053223
-8.98591
0.0341696
-8.98159
0.0172845
-8.88243
0.0062716
-8.89692
-0.00233257
-8.83328
-0.00933857
-8.83963
-0.0134585
-8.81049
-0.0140191
-8.85177
-0.0137045
-8.82703
-0.00961705
-8.86008
-0.00605444
-8.78677
0.00494296
-8.74471
0.00849213
-7.84697
0.0118595
-5.61691
-2.33198
0.161147
-9.36831
0.100563
-9.10684
0.0564192
-9.19958
0.0271157
-9.01138
0.00364953
-9.10289
-0.0187819
-8.96348
-0.0315257
-8.96885
-0.0414685
-8.87248
-0.0462039
-8.89219
-0.0492673
-8.83021
-0.0512318
-8.83767
-0.0503542
-8.81137
-0.0461888
-8.85594
-0.0413484
-8.83187
-0.0325184
-8.86891
-0.0243872
-8.7949
-0.0083653
-8.76073
0.00155137
-7.85688
0.0104516
-5.62581
-2.32153
0.0823338
-9.29002
0.0186394
-9.04314
-0.0221398
-9.1588
-0.0458408
-8.98768
-0.0652258
-9.0835
-0.0832808
-8.94542
-0.0924049
-8.95972
-0.0995568
-8.86533
-0.10105
-8.89069
-0.0999506
-8.83131
-0.0971098
-8.84051
-0.0909148
-8.81756
-0.0813995
-8.86545
-0.0710972
-8.84217
-0.0562224
-8.88378
-0.0429645
-8.80816
-0.0218932
-8.78181
-0.00614574
-7.87263
0.00820283
-5.64016
-2.31332
0.000114709
-9.20569
-0.057496
-8.98553
-0.0965175
-9.11978
-0.120231
-8.96397
-0.138407
-9.06533
-0.153847
-8.92998
-0.15684
-8.95673
-0.157293
-8.86488
-0.152708
-8.89528
-0.14612
-8.8379
-0.138192
-8.84843
-0.127031
-8.82873
-0.112805
-8.87968
-0.0983026
-8.85668
-0.078977
-8.90311
-0.0611893
-8.82595
-0.0351732
-8.80782
-0.0133604
-7.89445
0.00631028
-5.65983
-2.30701
-0.0729347
-9.12248
-0.135558
-8.92291
-0.1723
-9.08304
-0.192068
-8.9442
-0.206264
-9.05113
-0.216736
-8.91951
-0.216345
-8.95712
-0.213864
-8.86736
-0.206045
-8.9031
-0.195414
-8.84853
-0.1828
-8.86105
-0.166442
-8.84508
-0.147019
-8.8991
-0.127
-8.8767
-0.102294
-8.92781
-0.0799117
-8.84833
-0.0485933
-8.83914
-0.0208148
-7.92222
0.00439509
-5.68504
-2.30262
-0.146997
-9.03861
-0.208571
-8.86133
-0.24366
-9.04795
-0.264806
-8.92305
-0.277437
-9.0385
-0.284807
-8.91214
-0.278567
-8.96336
-0.269842
-8.87609
-0.25634
-8.9166
-0.240415
-8.86446
-0.222796
-8.87867
-0.201635
-8.86625
-0.177694
-8.92304
-0.153696
-8.90069
-0.124492
-8.95702
-0.097798
-8.87502
-0.0618477
-8.87509
-0.0282249
-7.95585
0.00227886
-5.71555
-2.30034
-0.225063
-8.94854
-0.284001
-8.8024
-0.31693
-9.01502
-0.335212
-8.90477
-0.343085
-9.03062
-0.345509
-8.90972
-0.336375
-8.97249
-0.324711
-8.88775
-0.307941
-8.93337
-0.28804
-8.88436
-0.265859
-8.90085
-0.239738
-8.89237
-0.210879
-8.9519
-0.181752
-8.92982
-0.147727
-8.99104
-0.116441
-8.90631
-0.0750187
-8.91651
-0.0356832
-7.99518
8.54294e-05
-5.75132
-2.30025
-0.294925
-8.85417
-0.353834
-8.74349
-0.385023
-8.98383
-0.405745
-8.88405
-0.411714
-9.02466
-0.410374
-8.91106
-0.395768
-8.9871
-0.378382
-8.90514
-0.356397
-8.95535
-0.331491
-8.90926
-0.304508
-8.92783
-0.273874
-8.923
-0.24076
-8.98501
-0.207986
-8.96259
-0.170033
-9.02899
-0.134438
-8.9419
-0.0880631
-8.96289
-0.0428469
-8.0404
-0.00223002
-5.79193
-2.30248
-0.368245
-8.75493
-0.424595
-8.68714
-0.454282
-8.95414
-0.472982
-8.86535
-0.47461
-9.02303
-0.468625
-8.91704
-0.451503
-9.00422
-0.431257
-8.92538
-0.405967
-8.98064
-0.377149
-8.93808
-0.345773
-8.95921
-0.310499
-8.95827
-0.272722
-9.02279
-0.235288
-9.00003
-0.192949
-9.07133
-0.152883
-8.98197
-0.101044
-9.01473
-0.0498546
-8.09159
-0.0044521
-5.83733
-2.30694
-0.435402
-8.64942
-0.491767
-8.63077
-0.519859
-8.92605
-0.540284
-8.84492
-0.540023
-9.02329
-0.530018
-8.92705
-0.507774
-9.02646
-0.482333
-8.95083
-0.452293
-9.01068
-0.418792
-8.97158
-0.382877
-8.99512
-0.34345
-8.9977
-0.301689
-9.06455
-0.26088
-9.04084
-0.21494
-9.11727
-0.170706
-9.0262
-0.114006
-9.07143
-0.0567686
-8.14883
-0.00680531
-5.8873
-2.31374
-0.503402
-8.54139
-0.558844
-8.57533
-0.585266
-8.89963
-0.603068
-8.82712
-0.599607
-9.02675
-0.586036
-8.94062
-0.561392
-9.05111
-0.533046
-8.97917
-0.499646
-9.04408
-0.462276
-9.00895
-0.422144
-9.03526
-0.378451
-9.04139
-0.33225
-9.11075
-0.287095
-9.08599
-0.237167
-9.1672
-0.188729
-9.07464
-0.126818
-9.13334
-0.0636061
-8.21204
-0.00898077
-5.94192
-2.32272
-0.56723
-8.42443
-0.625166
-8.51739
-0.649794
-8.875
-0.666226
-8.81069
-0.66072
-9.03226
-0.643675
-8.95766
-0.614484
-9.0803
-0.581486
-9.01217
-0.543759
-9.08181
-0.502004
-9.05071
-0.457569
-9.07969
-0.410154
-9.08881
-0.360193
-9.16071
-0.311787
-9.1344
-0.25846
-9.22053
-0.206085
-9.12701
-0.139687
-9.19974
-0.0708973
-8.28083
-0.0110117
-6.00181
-2.33373
-0.628563
-8.30519
-0.688835
-8.45712
-0.712258
-8.85158
-0.724983
-8.79796
-0.716813
-9.04043
-0.697251
-8.97723
-0.665762
-9.11179
-0.629774
-9.04816
-0.588736
-9.12285
-0.543205
-9.09624
-0.494703
-9.12819
-0.443459
-9.14005
-0.389305
-9.21487
-0.336842
-9.18686
-0.280059
-9.27731
-0.223723
-9.18335
-0.151955
-9.2715
-0.0774484
-8.35533
-0.012578
-6.06668
-2.34631
-0.688505
-8.17981
-0.750841
-8.39478
-0.772458
-8.82996
-0.782467
-8.78796
-0.772617
-9.05028
-0.750323
-8.99952
-0.715335
-9.14677
-0.675328
-9.08816
-0.630408
-9.16777
-0.58082
-9.14583
-0.52821
-9.1808
-0.473599
-9.19466
-0.416012
-9.27245
-0.360359
-9.24252
-0.300546
-9.33712
-0.240378
-9.24352
-0.164502
-9.34738
-0.0848314
-8.435
-0.0141416
-6.13737
-2.36045
-0.750848
-8.04508
-0.815667
-8.32996
-0.83301
-8.81262
-0.838442
-8.78252
-0.825149
-9.06357
-0.800593
-9.02408
-0.763453
-9.18391
-0.720542
-9.13108
-0.67257
-9.21574
-0.619511
-9.19889
-0.563145
-9.23717
-0.505195
-9.25261
-0.443524
-9.33412
-0.383914
-9.30213
-0.320522
-9.40052
-0.256664
-9.30738
-0.176832
-9.42721
-0.0910643
-8.52077
-0.0149785
-6.21346
-2.37543
-0.79972
-7.91404
-0.872009
-8.25768
-0.888995
-8.79563
-0.893781
-8.77774
-0.878331
-9.07902
-0.851012
-9.0514
-0.810705
-9.22422
-0.764241
-9.17754
-0.712484
-9.2675
-0.655701
-9.25567
-0.595112
-9.29776
-0.534052
-9.31367
-0.469207
-9.39897
-0.406531
-9.3648
-0.339381
-9.46767
-0.272098
-9.37466
-0.188234
-9.51108
-0.0988857
-8.61012
-0.0180432
-6.2943
-2.39347
-0.844977
-7.77636
-0.925238
-8.17742
-0.941919
-8.77895
-0.940524
-8.77913
-0.923652
-9.09589
-0.894691
-9.08036
-0.853838
-9.26507
-0.804727
-9.22665
-0.75073
-9.32149
-0.690821
-9.31558
-0.627102
-9.36148
-0.562793
-9.37798
-0.494683
-9.46708
-0.428106
-9.43138
-0.359482
-9.53629
-0.288095
-9.44605
-0.200036
-9.59914
-0.105845
-8.70431
-0.0183779
-6.38176
-2.41185
6.46298
-7.39879
-6.84055
5.91131
-7.62575
5.24006
-8.10769
4.69305
-8.23213
4.10947
-8.51231
3.63406
-8.60495
3.16079
-8.7918
2.77525
-8.84111
2.42317
-8.96941
2.11687
-9.00928
1.84563
-9.09024
1.6043
-9.13665
1.34476
-9.20754
1.13102
-9.21763
0.886715
-9.29199
0.715004
-9.27434
0.437425
-9.32156
0.25883
-8.52572
0.160883
-6.28382
-2.25097
3.52435
-7.32351
-3.59962
3.4369
-7.53829
3.20434
-7.87514
3.00685
-8.03464
2.74074
-8.2462
2.50946
-8.37367
2.24611
-8.52845
2.02772
-8.62272
1.79615
-8.73784
1.59581
-8.80894
1.39961
-8.89404
1.2149
-8.95193
1.02316
-9.0158
0.856115
-9.05059
0.677496
-9.11337
0.533963
-9.1308
0.327455
-9.11505
0.189999
-8.38826
-0.0359422
-6.05788
-2.28691
2.32142
-7.43474
-2.21019
2.40044
-7.61732
2.37757
-7.85227
2.33325
-7.99032
2.21533
-8.12827
2.09298
-8.25132
1.9395
-8.37497
1.78888
-8.4721
1.6173
-8.56626
1.45104
-8.64268
1.27431
-8.71731
1.10217
-8.7798
0.926488
-8.84012
0.766971
-8.89108
0.601875
-8.94827
0.449848
-8.97878
0.298397
-8.9636
0.195105
-8.28497
0.04371
-5.90648
-2.2432
1.3545
-7.61646
-1.17277
1.46641
-7.72923
1.49357
-7.87943
1.49048
-7.98723
1.4489
-8.08669
1.3908
-8.19322
1.30156
-8.28573
1.20508
-8.37561
1.09965
-8.46083
0.990702
-8.53373
0.878863
-8.60547
0.768047
-8.66898
0.655716
-8.72779
0.547168
-8.78253
0.430315
-8.83142
0.32449
-8.87295
0.2132
-8.85231
0.141621
-8.21339
0.0853352
-5.8502
-2.15787
0.850769
-7.7514
-0.715835
0.957447
-7.83591
1.01316
-7.93514
1.05311
-8.02718
1.05902
-8.09259
1.03911
-8.17332
0.999948
-8.24657
0.940993
-8.31666
0.865826
-8.38566
0.78291
-8.45082
0.690592
-8.51315
0.591836
-8.57023
0.490436
-8.62639
0.384231
-8.67632
0.279366
-8.72655
0.183896
-8.77748
0.0978739
-8.76629
0.0602876
-8.1758
0.0546202
-5.84453
-2.10325
0.460802
-7.87805
-0.334147
0.559475
-7.93459
0.61098
-7.98665
0.632509
-8.04871
0.636093
-8.09618
0.616367
-8.15359
0.586293
-8.2165
0.546785
-8.27715
0.497621
-8.3365
0.439501
-8.3927
0.374332
-8.44798
0.307045
-8.50294
0.234874
-8.55422
0.162367
-8.60382
0.0931532
-8.65734
0.024929
-8.70926
-0.0521122
-8.68924
-0.059163
-8.16875
0.0259656
-5.92966
-2.07728
0.215992
-7.95638
-0.13766
0.276818
-7.99541
0.319055
-8.02889
0.343233
-8.07289
0.357052
-8.11
0.360869
-8.15741
0.347519
-8.20315
0.321653
-8.25128
0.285159
-8.30001
0.239202
-8.34674
0.186345
-8.39513
0.12383
-8.44043
0.0571669
-8.48755
-0.0125232
-8.53413
-0.0803713
-8.58949
-0.152322
-8.63731
-0.213589
-8.62798
-0.192759
-8.18958
-0.0275874
-6.09483
-2.10487
0.00523703
-8.01182
0.0502041
0.0533267
-8.0435
0.0875801
-8.06314
0.100463
-8.08577
0.0983161
-8.10785
0.086447
-8.14554
0.071555
-8.18826
0.047304
-8.22703
0.0148108
-8.26751
-0.0248323
-8.3071
-0.0709931
-8.34896
-0.123562
-8.38786
-0.17826
-8.43285
-0.238173
-8.47421
-0.304881
-8.52278
-0.370354
-8.57183
-0.41631
-8.58202
-0.370309
-8.23558
-0.121178
-6.34396
-2.22605
-0.136943
-8.04266
0.167778
-0.118677
-8.06177
-0.103004
-8.07881
-0.097351
-8.09142
-0.0939797
-8.11122
-0.0996269
-8.13989
-0.114734
-8.17315
-0.137785
-8.20398
-0.16692
-8.23838
-0.205238
-8.26878
-0.25077
-8.30343
-0.304043
-8.33458
-0.364752
-8.37215
-0.431963
-8.407
-0.505209
-8.44954
-0.586749
-8.49029
-0.649938
-8.51883
-0.603403
-8.28212
-0.269125
-6.67824
-2.49517
-0.24579
-8.06207
0.265205
-0.234702
-8.07286
-0.224882
-8.08863
-0.21771
-8.09859
-0.216451
-8.11248
-0.226311
-8.13003
-0.244368
-8.15509
-0.27308
-8.17527
-0.311444
-8.20001
-0.355958
-8.22427
-0.409112
-8.25028
-0.46694
-8.27676
-0.531606
-8.30748
-0.601798
-8.33681
-0.680276
-8.37106
-0.7676
-8.40297
-0.851652
-8.43478
-0.844412
-8.28936
-0.481793
-7.04086
-2.97696
-0.30919
-8.07009
0.317207
-0.307185
-8.07486
-0.31143
-8.08439
-0.316459
-8.09356
-0.324318
-8.10462
-0.342554
-8.1118
-0.367699
-8.12995
-0.39676
-8.14621
-0.433024
-8.16375
-0.475511
-8.18178
-0.524837
-8.20095
-0.581385
-8.22021
-0.648515
-8.24035
-0.729306
-8.25602
-0.82523
-8.27513
-0.93018
-8.29802
-1.04061
-8.32435
-1.0641
-8.26586
-0.75084
-7.35412
-3.72781
-0.347924
-8.07022
0.348058
-0.349607
-8.07318
-0.354094
-8.0799
-0.362583
-8.08507
-0.373555
-8.09365
-0.38754
-8.09781
-0.409275
-8.10821
-0.439734
-8.11575
-0.476056
-8.12743
-0.521902
-8.13593
-0.573507
-8.14935
-0.634891
-8.15882
-0.706548
-8.16869
-0.785427
-8.17714
-0.87754
-8.18302
-0.983485
-8.19208
-1.11735
-8.19049
-1.20839
-8.17482
-0.982235
-7.58028
-4.71004
-0.360171
-8.06603
0.355978
-0.367108
-8.06624
-0.37804
-8.06897
-0.392714
-8.0704
-0.41213
-8.07423
-0.432781
-8.07716
-0.457545
-8.08345
-0.4857
-8.08759
-0.517496
-8.09563
-0.553077
-8.10035
-0.59533
-8.10709
-0.644042
-8.11011
-0.700568
-8.11217
-0.765388
-8.11232
-0.840716
-8.10769
-0.930607
-8.10218
-1.03166
-8.08944
-1.13156
-8.07492
-0.95612
-7.75571
-5.66616
-0.360143
-8.05628
0.350392
-0.370139
-8.05624
-0.380684
-8.05842
-0.392004
-8.05908
-0.403
-8.06324
-0.417019
-8.06314
-0.434079
-8.06639
-0.454863
-8.06681
-0.479894
-8.0706
-0.509853
-8.07039
-0.543585
-8.07336
-0.583676
-8.07002
-0.625568
-8.07027
-0.675867
-8.06202
-0.726474
-8.05709
-0.790868
-8.03779
-0.859684
-8.02062
-0.938062
-7.99654
-0.821574
-7.8722
-6.48773
-0.32838
-8.04576
0.317865
-0.339397
-8.04523
-0.351166
-8.04665
-0.364465
-8.04578
-0.379747
-8.04796
-0.394548
-8.04834
-0.410294
-8.05064
-0.426668
-8.05044
-0.444731
-8.05254
-0.464224
-8.0509
-0.486015
-8.05157
-0.509369
-8.04667
-0.534313
-8.04533
-0.560673
-8.03566
-0.587294
-8.03047
-0.612721
-8.01236
-0.634537
-7.9988
-0.679912
-7.95117
-0.630562
-7.92155
-7.1183
-0.2731
-8.03807
0.265401
-0.280844
-8.03748
-0.289115
-8.03838
-0.297002
-8.03789
-0.306275
-8.03868
-0.315892
-8.03872
-0.326685
-8.03985
-0.338003
-8.03912
-0.35056
-8.03998
-0.36371
-8.03775
-0.377237
-8.03804
-0.390286
-8.03362
-0.401948
-8.03367
-0.413178
-8.02443
-0.420544
-8.0231
-0.423987
-8.00892
-0.419504
-8.00329
-0.409382
-7.96129
-0.377784
-7.95315
-7.49608
-0.212838
-8.03073
0.205507
-0.220878
-8.02944
-0.229643
-8.02962
-0.237449
-8.03009
-0.244748
-8.03139
-0.252596
-8.03087
-0.260864
-8.03158
-0.269387
-8.0306
-0.278467
-8.0309
-0.287278
-8.02894
-0.295885
-8.02944
-0.303853
-8.02565
-0.312897
-8.02462
-0.320208
-8.01712