/*--------------------------------*- C++ -*----------------------------------*\
  =========                 |
  \\      /  F ield         | OpenFOAM: The Open Source CFD Toolbox
   \\    /   O peration     | Website:  https://openfoam.org
    \\  /    A nd           | Version:  9
     \\/     M anipulation  |
\*---------------------------------------------------------------------------*/
FoamFile
{
    format      ascii;
    class       volScalarField;
    location    "5.4";
    object      nut;
}
// * * * * * * * * * * * * * * * * * * * * * * * * * * * * * * * * * * * * * //

dimensions      [0 2 -1 0 0 0 0];

internalField   nonuniform List<scalar> 
46400
(
0.0195317
0.00461758
0.00128621
0.001552
0.00144824
0.00147655
0.00138306
0.00136239
0.00130207
0.0012621
0.00124371
0.00118871
0.00116272
0.00114663
0.00110547
0.00109866
0.00102998
0.000979064
0.00132236
0.00104114
0.0189948
0.00427579
0.00130373
0.00161444
0.00147452
0.0014839
0.00139958
0.00136028
0.00131583
0.00126769
0.00122047
0.00118613
0.00113296
0.00108043
0.00104788
0.00103451
0.00096895
0.000879097
0.00113129
0.000995377
0.0183726
0.00456098
0.0013633
0.00160757
0.00145998
0.00148562
0.0014001
0.00136893
0.00130951
0.00126626
0.00123464
0.00119041
0.00115333
0.0011248
0.00107955
0.00104517
0.000975192
0.000924043
0.00121477
0.00100531
0.0177365
0.00508834
0.00142829
0.00167285
0.00150176
0.00148473
0.0014103
0.00135899
0.00131574
0.00126443
0.00122338
0.00118325
0.00114697
0.00108775
0.00105951
0.00104211
0.000970841
0.000905534
0.00119822
0.00104888
0.0170975
0.00517775
0.00151817
0.00165074
0.00149993
0.00149632
0.00142074
0.00136685
0.00131716
0.00126832
0.00122779
0.00118043
0.00114834
0.00112349
0.00107262
0.00105147
0.000998017
0.000925591
0.00119689
0.00103672
0.0160907
0.00438669
0.0015002
0.00169284
0.0015273
0.00147839
0.0014272
0.0013628
0.00130788
0.00126615
0.00123361
0.00118541
0.00114789
0.00110942
0.00108614
0.00105824
0.00103076
0.00095587
0.00122007
0.00109484
0.0140335
0.00352092
0.00152154
0.00160017
0.00150709
0.00144916
0.0013998
0.00135128
0.00130463
0.0012454
0.00122693
0.00118015
0.00114555
0.00110184
0.00107638
0.00104204
0.0010001
0.000958279
0.00120423
0.00108454
0.0113898
0.00278442
0.00157867
0.00156266
0.00153168
0.0014501
0.0013923
0.00134652
0.00129691
0.00122887
0.00120463
0.00117639
0.00115169
0.00110666
0.00106789
0.0010522
0.00100242
0.000927925
0.00118365
0.00110967
0.00935222
0.00230718
0.00154887
0.00153914
0.00148942
0.00144282
0.00138809
0.00132721
0.00131923
0.00123692
0.0011794
0.0011337
0.00110769
0.00109335
0.0010671
0.0010376
0.00100825
0.00092243
0.00109422
0.00106141
0.00779431
0.00203497
0.00157241
0.00149417
0.00150898
0.00145996
0.00141092
0.00134208
0.00133529
0.0013131
0.00125994
0.0012058
0.00114458
0.00109048
0.00106777
0.0010449
0.00101083
0.000957481
0.00109419
0.00101565
0.00636442
0.00180587
0.00155941
0.00146454
0.00142351
0.00140602
0.00139853
0.00127364
0.00121834
0.00120279
0.00119588
0.00117608
0.00116319
0.00111444
0.00106736
0.00103562
0.00100376
0.000947905
0.0010983
0.00105429
0.00549203
0.00173567
0.00163168
0.00153831
0.00144263
0.00137659
0.00145818
0.00140302
0.00130904
0.00121231
0.00117092
0.00112443
0.0011171
0.00110334
0.00108096
0.00104158
0.00100463
0.000933791
0.00102761
0.0009988
0.00464384
0.00169272
0.00165156
0.00158953
0.00150097
0.00126606
0.00127383
0.00127794
0.00129423
0.00123932
0.00119137
0.00113064
0.00108292
0.0010597
0.00105132
0.00104426
0.00102484
0.000982997
0.00106252
0.00102621
0.00407315
0.00159852
0.00155882
0.00156915
0.00169969
0.00151601
0.00138791
0.00129171
0.00128049
0.00124788
0.00121838
0.0011765
0.00111624
0.00106003
0.00100991
0.000989008
0.000955717
0.000925478
0.000985343
0.000968181
0.00372037
0.00157763
0.00152516
0.00130766
0.00142924
0.00147839
0.00141963
0.00136199
0.00129483
0.00126261
0.00123363
0.00121414
0.00118338
0.00114693
0.00109706
0.00105423
0.00101419
0.000956893
0.00101722
0.000974303
0.00406944
0.00164816
0.00172199
0.00154386
0.00135867
0.00136661
0.00133346
0.00129859
0.00125098
0.00121415
0.0011787
0.00115006
0.00112459
0.00109586
0.00106084
0.00103228
0.000988983
0.000935992
0.000984133
0.000939451
0.0040385
0.00154891
0.00142024
0.00147783
0.00142431
0.00135462
0.00136448
0.00130823
0.001307
0.0012539
0.0012226
0.00117216
0.00114179
0.00110828
0.00108027
0.00105633
0.00102452
0.000958605
0.00101632
0.000928388
0.00236602
0.00202486
0.00169035
0.00150091
0.00145987
0.00137592
0.00134226
0.00128734
0.00126927
0.00121338
0.00117883
0.00112358
0.00110256
0.00105477
0.00104957
0.0010059
0.00100521
0.000926252
0.000992119
0.000915255
0.0012306
0.00142113
0.00156673
0.00162394
0.00157169
0.00151231
0.00148774
0.00138157
0.00136578
0.00128351
0.00128543
0.0012042
0.00120207
0.0011206
0.00109815
0.00103909
0.00102227
0.000962888
0.000991422
0.00097052
0.00152271
0.00157775
0.00162607
0.00161547
0.00159562
0.00151354
0.00144354
0.00141653
0.00134822
0.00127729
0.00121229
0.00116804
0.00112438
0.00108597
0.00105186
0.00104493
0.00100883
0.000964327
0.000988506
0.000935757
0.00963662
0.0129023
0.0101367
0.00210495
0.000292449
0.000695674
0.000955567
0.000946625
0.000898722
0.000856715
0.000797828
0.000819083
0.000837876
0.000819988
0.000814269
0.000841788
0.000877641
0.000971242
0.00095558
0.000825931
0.013077
0.0133095
0.00940649
0.000974019
0.00052758
0.000908271
0.00102626
0.000974867
0.000912997
0.00086223
0.00086421
0.000852985
0.000816077
0.000814851
0.000805746
0.000872879
0.000925994
0.000982798
0.000945791
0.000837931
0.0145788
0.0135574
0.00836991
0.000251174
0.000557026
0.00101111
0.0010581
0.000987552
0.000942808
0.00090835
0.000885138
0.000855953
0.000851994
0.000849765
0.00086708
0.000917895
0.000930686
0.00101229
0.000948824
0.000826366
0.0159852
0.013592
0.00641736
0.000470563
0.000809695
0.00108191
0.00111091
0.00102775
0.000980013
0.000928751
0.000882134
0.000893178
0.000887421
0.00088074
0.000867222
0.000921738
0.000974232
0.00103884
0.000929887
0.000828737
0.017137
0.0134515
0.00468276
0.000175785
0.000960544
0.00114017
0.00108736
0.00105824
0.000987961
0.000935774
0.000952973
0.00091985
0.000878369
0.000870444
0.000894415
0.000957895
0.000974329
0.00102426
0.000930305
0.000845105
0.0179943
0.0133132
0.00328292
0.000174905
0.00108948
0.00119412
0.00115393
0.00107971
0.00103954
0.000996347
0.000927246
0.000914148
0.000927877
0.000930739
0.000920298
0.000964881
0.00099644
0.00107765
0.00093075
0.000832036
0.0187128
0.0130447
0.00219965
0.000386415
0.00115181
0.00119785
0.00115822
0.00111333
0.00103998
0.000969496
0.000984458
0.00097307
0.00092419
0.000904029
0.000918855
0.000979812
0.00100877
0.00105872
0.000922169
0.000851405
0.0194341
0.0127705
0.0014965
0.000583641
0.00123077
0.00123227
0.00118552
0.00112051
0.00108164
0.00104071
0.000984377
0.000943874
0.000943566
0.000952269
0.000949637
0.000985191
0.0010104
0.00109344
0.000932452
0.00084718
0.0200214
0.012436
0.00103844
0.00080791
0.00127352
0.00123546
0.00123259
0.00115484
0.00108468
0.0010153
0.000998743
0.000998479
0.000968079
0.000937904
0.000938919
0.000988905
0.00102763
0.00110252
0.000922756
0.000857361
0.0205074
0.0120485
0.00105106
0.000934101
0.00131952
0.00125285
0.00121534
0.00116873
0.00112268
0.00106929
0.00103481
0.000985845
0.000956304
0.000959646
0.000956181
0.000978971
0.00101129
0.00109819
0.000919946
0.000858724
0.0209017
0.0117101
0.00101242
0.00109917
0.00136256
0.00127299
0.00127961
0.0011852
0.00112128
0.00106591
0.00101312
0.00100474
0.000994373
0.000957722
0.000944689
0.000971996
0.00101706
0.00112259
0.000914571
0.000853963
0.0211136
0.011221
0.00186381
0.00115079
0.00138296
0.00127778
0.00125809
0.00121839
0.00116208
0.00109838
0.00107513
0.00103264
0.000984177
0.000975961
0.00096417
0.000970443
0.00100947
0.00110856
0.000900915
0.000865522
0.021339
0.0110851
0.00141031
0.00127472
0.00144715
0.00130338
0.00129988
0.00122282
0.00116144
0.00112046
0.00104721
0.00101873
0.00101414
0.000978472
0.000950415
0.000943755
0.000986471
0.0011161
0.000888541
0.000846584
0.0213506
0.0107882
0.00226999
0.00125911
0.00146427
0.00132184
0.00130076
0.00126318
0.00119673
0.0011351
0.00110967
0.00107556
0.00102278
0.00100269
0.000986873
0.000967087
0.000988415
0.001091
0.000865051
0.000858835
0.0213897
0.0106111
0.00206663
0.00132466
0.00149578
0.00135658
0.00130832
0.00127504
0.00121054
0.00117831
0.00110601
0.00106084
0.00105058
0.0010207
0.000981384
0.00094369
0.000957695
0.00107995
0.000857842
0.000861843
0.0212239
0.009656
0.00182078
0.00135942
0.00147791
0.0013878
0.00132993
0.00129238
0.00123164
0.00118001
0.00114699
0.00111564
0.00106891
0.0010418
0.00102899
0.00098896
0.000976559
0.00104673
0.000814745
0.000856634
0.0210168
0.00889677
0.00177061
0.0014147
0.00150249
0.00141296
0.00134176
0.00132604
0.00125831
0.00123081
0.00117698
0.00112527
0.00110695
0.0010866
0.00104708
0.000998731
0.000976123
0.00103018
0.000802341
0.000884141
0.0207442
0.007774
0.00156134
0.00147093
0.00149415
0.00145034
0.00135431
0.00132776
0.00126982
0.00122791
0.00118434
0.00115227
0.00111188
0.00108219
0.00107875
0.00105372
0.00103949
0.00104345
0.000761162
0.000879277
0.0203645
0.00670301
0.00161818
0.00149098
0.00148469
0.00146497
0.00137725
0.00136037
0.00129989
0.00127031
0.00124339
0.00118785
0.00116303
0.00114998
0.00111239
0.00108988
0.00108057
0.00108289
0.000780682
0.000889387
0.0199676
0.00585237
0.00162604
0.00157508
0.00149324
0.00148709
0.0013845
0.00135789
0.00130548
0.00127038
0.00122835
0.00120694
0.00117215
0.00114178
0.00113673
0.00115999
0.00116966
0.00114083
0.000944261
0.00103539
0.00571653
0.00321845
0.00262628
0.00181853
0.001516
0.00118651
0.000961678
0.000560052
0.000452171
0.000490075
0.000545392
0.000489649
0.000240508
0.000138846
0.000223278
0.00040006
0.000150717
0.00555395
0.010077
0.0147735
0.00575616
0.00322534
0.0026885
0.00180428
0.00145946
0.00119914
0.000970672
0.000570754
0.000453303
0.000466712
0.000554527
0.000407069
0.000211169
0.000129105
0.000196587
0.000354853
0.000143449
0.0055561
0.0100496
0.0147549
0.00574791
0.00320702
0.00263938
0.00189202
0.00149223
0.00117017
0.000958952
0.000595976
0.000452907
0.000400907
0.000549428
0.000407825
0.000296667
0.000140989
0.000187238
0.000352866
0.000137019
0.00557361
0.0101133
0.0146568
0.00532424
0.00328649
0.00266093
0.00184635
0.00147888
0.00118573
0.000974074
0.000622789
0.000499875
0.000516366
0.0005167
0.000354376
0.0002837
0.000121927
0.000173316
0.000315755
0.000222562
0.00559896
0.0100739
0.0146096
0.00548201
0.00333363
0.0027363
0.00193909
0.00152248
0.00116454
0.000967239
0.000643588
0.000537788
0.000526972
0.00056451
0.000408394
0.000338319
0.000150772
0.000173641
0.000285103
0.000475298
0.00568297
0.0100845
0.0145812
0.00582617
0.00338244
0.00278231
0.00199977
0.00156412
0.00118813
0.000995703
0.000691482
0.000615658
0.000562731
0.000576441
0.000397518
0.000251673
0.000160591
0.000179776
0.000232395
0.00053249
0.00575544
0.0100479
0.0145962
0.00606525
0.00344329
0.00283347
0.00202402
0.00159884
0.00118666
0.00099195
0.000703103
0.000646744
0.000564072
0.000578567
0.000485988
0.000280349
0.000200896
0.000187877
0.000186592
0.00055861
0.00580985
0.0100584
0.0145234
0.00602145
0.00350104
0.00287717
0.00207267
0.00160606
0.0012139
0.00102316
0.000755722
0.000710986
0.00060233
0.000569011
0.000480359
0.000206961
0.000212065
0.000169903
0.000172984
0.000572079
0.00581841
0.0100574
0.014551
0.00609606
0.00352324
0.00288338
0.00210142
0.00164115
0.00124104
0.00105447
0.00077175
0.000721342
0.000618962
0.000539785
0.000465025
0.000248394
0.000256128
0.000176566
0.000185833
0.000556176
0.00579505
0.0100544
0.0145095
0.00606732
0.0035507
0.00291748
0.00209869
0.001592
0.00126829
0.00111275
0.000838933
0.000764512
0.000673609
0.000536409
0.000443781
0.000197605
0.000236745
0.000174384
0.000189328
0.00056696
0.00572475
0.0100574
0.0145079
0.00603228
0.00356143
0.00295329
0.00212646
0.00163252
0.0012892
0.00110995
0.000869867
0.000766482
0.000699885
0.000529548
0.000425161
0.00024732
0.000284535
0.000177021
0.000195628
0.000580044
0.00567413
0.0100249
0.0144844
0.00604824
0.00355005
0.00296288
0.002087
0.0016068
0.00132471
0.00114165
0.000927648
0.000797898
0.000760747
0.000570085
0.000429119
0.000174407
0.000239693
0.000161289
0.000170258
0.000592558
0.00564634
0.00998821
0.0144931
0.00602494
0.00355824
0.0029838
0.00209073
0.00160784
0.00135132
0.00115658
0.000951771
0.000776964
0.000761232
0.000610983
0.000451917
0.000168163
0.00023484
0.000132314
0.000120481
0.000598105
0.00559683
0.0100055
0.0144836
0.00598126
0.0035079
0.00296741
0.00206107
0.00158518
0.00138094
0.00118415
0.00100657
0.000803829
0.000787225
0.000648834
0.000485339
9.24916e-05
0.000159879
0.000125735
7.92465e-05
0.000601423
0.005544
0.00999398
0.0144922
0.00604544
0.00350947
0.00295872
0.00205893
0.00157428
0.00139637
0.00119618
0.00102598
0.000786502
0.000787232
0.000672183
0.000502603
0.000106419
0.000137411
0.000140631
5.33382e-05
0.000600479
0.00552201
0.0100339
0.0145339
0.00597101
0.00342448
0.00290165
0.00204075
0.0015454
0.00142341
0.00121922
0.00107843
0.000820226
0.000797038
0.000675617
0.000531845
6.93867e-05
0.000113922
0.000112686
4.65278e-05
0.000573519
0.0054536
0.0100253
0.0145653
0.00609285
0.00341634
0.00285579
0.0020544
0.00153809
0.00142244
0.00121212
0.00108475
0.000815943
0.000810737
0.000687597
0.000541038
0.00010643
0.000105633
0.00013672
5.99821e-05
0.000545753
0.00538958
0.0100031
0.0146311
0.00604206
0.00330365
0.00276906
0.0020673
0.00154441
0.00145879
0.00123852
0.00113361
0.000857654
0.000815249
0.000692578
0.00058954
6.17419e-05
0.000102891
0.000100387
9.02402e-05
0.000463795
0.00533191
0.0100841
0.0145653
0.0059648
0.00331563
0.00266276
0.00205025
0.00154654
0.00144612
0.00120668
0.00112344
0.000855215
0.000836491
0.00070184
0.000580642
9.59431e-05
0.000126384
0.000175707
0.000123547
0.000279071
0.00512655
0.0101883
0.0148922
0.00637906
0.00338373
0.00257372
0.00204511
0.00159149
0.00148808
0.00121583
0.00113579
0.000872542
0.000831076
0.000701047
0.000586904
0.000120379
0.000234474
0.000293321
0.000266354
0.000154081
0.00480216
0.0100158
0.0143638
0.0165085
0.0320065
0.0253301
0.0225793
0.0186425
0.0171107
0.0134536
0.0124773
0.00998
0.00963131
0.00764316
0.0065304
0.00426361
0.00221773
0.00494774
0.00384271
0.00356648
0.0467001
0.0949704
0.131024
0.028589
0.0209204
0.0190643
0.0166352
0.0148613
0.012013
0.00966088
0.00886618
0.0077527
0.00652676
0.00558186
0.00493183
0.00402303
0.00393569
0.00345491
0.00291484
0.0138637
0.0486524
0.0951415
0.129169
0.0152649
0.0147246
0.0132928
0.01117
0.0101555
0.00838694
0.00751201
0.00653515
0.00606772
0.00541632
0.00501748
0.00462576
0.00433142
0.00411768
0.00374048
0.00316392
0.00414721
0.0520255
0.0926082
0.126385
0.0118718
0.0097534
0.00800345
0.0078987
0.00746611
0.00727234
0.00646174
0.00592751
0.00546551
0.00497215
0.00466429
0.00419037
0.00388477
0.00328991
0.00300762
0.00165149
0.00749554
0.0515982
0.0927436
0.12154
0.00548945
0.00671353
0.00747529
0.00692457
0.00565642
0.00508592
0.00487537
0.00441648
0.00437991
0.00412111
0.00381814
0.00363949
0.0035043
0.00338396
0.00315036
0.00175901
0.00502048
0.0517917
0.0928489
0.118742
0.00569106
0.00530327
0.00430398
0.00380839
0.00389433
0.00420892
0.00426164
0.00407747
0.00379957
0.00377487
0.00384446
0.00372017
0.00360074
0.00345912
0.00326268
0.00118169
0.00465383
0.0504376
0.0937197
0.116853
0.00275736
0.00317047
0.0032526
0.00378342
0.00375143
0.00343956
0.00322125
0.00336996
0.00329443
0.00331405
0.0031225
0.00318014
0.00332306
0.00357652
0.00349135
0.00179283
0.00240276
0.0456388
0.0951755
0.116898
0.00277373
0.00260302
0.00251715
0.00238882
0.00218335
0.00244895
0.00262471
0.00263949
0.00274182
0.00292376
0.00312775
0.00333468
0.00337039
0.00343817
0.00358622
0.00210721
0.00171128
0.0379676
0.0961051
0.119906
0.0012144
0.00144371
0.00150749
0.00177977
0.0020594
0.00212969
0.00229208
0.0025994
0.00246382
0.00255461
0.00259194
0.00282788
0.00299732
0.00333547
0.00370566
0.00302346
0.00171769
0.0287791
0.0965645
0.128386
0.00103509
0.00112051
0.00121597
0.0013916
0.00141926
0.00157904
0.00143119
0.00159416
0.00190647
0.00231082
0.00236657
0.00268137
0.00275157
0.00313053
0.0031579
0.00329659
0.00449004
0.0206079
0.0966903
0.141958
0.00045269
0.000576992
0.000710961
0.000896522
0.0010439
0.00125006
0.00145584
0.00166768
0.00168188
0.00184692
0.00194252
0.0022048
0.00221752
0.00262015
0.00263101
0.00324482
0.00322493
0.0127273
0.0882787
0.153691
0.000257272
0.000430819
0.000473562
0.000690484
0.000725672
0.000893458
0.000951212
0.00117718
0.00138669
0.00158677
0.00178378
0.00202113
0.00223838
0.00252053
0.00257413
0.00290551
0.0026311
0.00615023
0.0656413
0.168356
0.000190065
0.000274422
0.000352643
0.000520158
0.000588812
0.000734904
0.000868568
0.000995058
0.00115403
0.00133388
0.00146368
0.00170853
0.00192378
0.00225648
0.00269071
0.00285794
0.00337508
0.00314923
0.0501792
0.189255
0.000370491
0.000392219
0.000411289
0.000508095
0.000572362
0.000644946
0.000659034
0.000879845
0.000920523
0.00123811
0.00128239
0.00161892
0.00170621
0.00209269
0.00222963
0.00286521
0.00333563
0.00829566
0.0276023
0.145402
0.000494626
0.000530312
0.000543272
0.000588108
0.000636253
0.000735656
0.000803447
0.000900229
0.000929354
0.00108562
0.00111166
0.00147312
0.00140598
0.00208983
0.00192533
0.00287384
0.00246143
0.00562835
0.0155965
0.0941603
0.000542079
0.000556659
0.000580103
0.000609352
0.000634984
0.000729474
0.000749849
0.000872021
0.000938727
0.0011476
0.0011184
0.00149497
0.0014137
0.00195681
0.00188957
0.0025658
0.00238353
0.003574
0.00228433
0.0468267
0.000504893
0.000524904
0.000538847
0.000581043
0.000628097
0.000654533
0.000685888
0.000753642
0.000764001
0.000831989
0.000911426
0.000949771
0.00114557
0.00117569
0.00152748
0.00158536
0.0019478
0.00181597
0.0018071
0.0181782
0.000331762
0.000376782
0.000419321
0.000486978
0.000502697
0.000532241
0.000584868
0.000613562
0.000665581
0.000725009
0.000754203
0.000848444
0.000792211
0.000864218
0.000666579
0.000882712
0.000878259
0.0003524
0.00275053
0.00738862
0.000236682
0.000258035
0.000263124
0.000255943
0.000279307
0.000331556
0.00036034
0.000409674
0.000436367
0.000475708
0.000499684
0.000563332
0.000586194
0.000646154
0.000774527
0.000680842
0.000661474
0.000668367
0.000931742
0.00163677
5.84998e-05
0.000100526
0.000134768
0.000159902
0.000202896
0.000239606
0.000256554
0.000309051
0.000308084
0.000368546
0.000362267
0.000428063
0.000426816
0.00051335
0.000456573
0.000420068
0.000367894
0.00027574
0.000183272
0.00101828
0.0140135
0.0139529
0.0140456
0.0140494
0.0138297
0.0137691
0.0137586
0.0134502
0.0129238
0.0129466
0.0126352
0.0126056
0.0110857
0.0114424
0.0109426
0.01017
0.0104564
0.00982819
0.0100761
0.00955229
0.0069031
0.00687215
0.00685232
0.00676344
0.00669709
0.006668
0.00658077
0.00661144
0.00647067
0.0064906
0.0071741
0.00672488
0.00642996
0.00650779
0.00620266
0.00679581
0.00658863
0.00638651
0.00656587
0.0071345
0.00409061
0.00408061
0.00406359
0.00408922
0.00413642
0.00420289
0.00422409
0.00426495
0.00426638
0.00424575
0.0040776
0.00398923
0.0039462
0.0039975
0.00366531
0.00359523
0.00324234
0.00345671
0.00320497
0.00372728
0.00260861
0.00260753
0.00258529
0.00257955
0.00253046
0.00251102
0.00245023
0.00244428
0.00236477
0.00232419
0.0022449
0.00228445
0.00234337
0.00241868
0.00248424
0.00251034
0.00230579
0.00256943
0.00227319
0.00274494
0.00161055
0.00159878
0.00159637
0.00158991
0.00158374
0.00158454
0.00157748
0.00158813
0.00163695
0.00167819
0.00167864
0.00170621
0.00161242
0.00158925
0.00146498
0.00160341
0.00169987
0.00163027
0.00144155
0.00143383
0.00113248
0.00112385
0.00112547
0.00112033
0.00111894
0.00111829
0.00111318
0.0011103
0.00109371
0.00105785
0.000980648
0.000952885
0.000962264
0.000986542
0.00104831
0.00105182
0.000958807
0.00113775
0.00110245
0.00117776
0.000671248
0.000671255
0.000667111
0.000665043
0.000662001
0.000655902
0.000654207
0.000648786
0.00064897
0.000655129
0.000708801
0.000782257
0.000780875
0.000846904
0.000790762
0.000761471
0.000735298
0.000673356
0.000660856
0.000703523
0.000495191
0.000497014
0.000492505
0.000492468
0.000490328
0.000484158
0.000481825
0.000477207
0.000480525
0.000479661
0.000480338
0.000457257
0.000435761
0.000397908
0.000380233
0.000438117
0.000484755
0.000522936
0.00043476
0.000471745
0.000269621
0.000267865
0.000263606
0.000262244
0.000262886
0.000263713
0.000261552
0.000258839
0.000259466
0.000256483
0.000266445
0.000267173
0.000275458
0.000315378
0.000348372
0.000323256
0.000293245
0.000346284
0.000365836
0.000328509
0.000172775
0.0001693
0.000165063
0.000165741
0.000154683
0.000159191
0.000163189
0.000165656
0.000167112
0.00016645
0.000169738
0.000165059
0.000162323
0.000158865
0.000149561
0.000165253
0.000187367
0.00019548
0.000175934
0.000179999
0.00012265
0.000111149
8.67778e-05
7.43766e-05
5.96178e-05
5.74356e-05
5.41711e-05
5.76519e-05
5.74719e-05
6.46184e-05
6.18902e-05
5.497e-05
5.10284e-05
5.69429e-05
6.29063e-05
7.36101e-05
7.92664e-05
8.58668e-05
9.68179e-05
0.000110156
0.00010735
9.49434e-05
8.27019e-05
7.83582e-05
7.14211e-05
7.00316e-05
6.25687e-05
5.67758e-05
4.65343e-05
3.32724e-05
3.70762e-05
3.51419e-05
1.20438e-05
2.04545e-05
3.17459e-05
3.88087e-05
4.0406e-05
4.88931e-05
4.84659e-05
5.22478e-05
0.000129083
0.000127177
0.000125411
0.00011818
0.000116189
0.000112729
0.000106583
0.000102573
0.000101007
9.50479e-05
8.77699e-05
8.58623e-05
9.62831e-05
9.50891e-05
9.9162e-05
9.10393e-05
0.000101819
8.11932e-05
8.39377e-05
6.69894e-05
0.000165098
0.000162122
0.000158757
0.00015676
0.000153781
0.000151053
0.000152843
0.00014702
0.000132062
0.000119156
0.000114557
0.000109021
0.000106546
0.000106984
0.000112871
0.000102965
9.68968e-05
8.62868e-05
9.56684e-05
9.57711e-05
0.000151607
0.000146591
0.0001422
0.000137371
0.000132085
0.000123944
0.000115809
0.000117453
0.000126682
0.000127827
0.000128767
0.000126279
0.000128837
0.000125369
0.000127155
0.000124374
0.000130334
0.000118302
0.000128381
0.000123439
0.000133976
0.000134516
0.000134033
0.000134813
0.000135738
0.000140531
0.000149467
0.000148986
0.000138445
0.000133627
0.000135168
0.000137009
0.000139963
0.000130533
0.000121635
0.000116571
0.000125489
0.000129501
0.000140769
0.00013287
0.00010117
0.000101496
0.000103559
0.000104767
0.000108029
0.000109058
0.000108848
0.000103478
9.82155e-05
9.84652e-05
0.000101702
9.85983e-05
9.35553e-05
0.000101257
0.000122471
0.000126517
0.000124182
0.000117668
0.000121125
0.000118275
4.67367e-05
4.90601e-05
5.27769e-05
5.6453e-05
5.92189e-05
6.2036e-05
6.30543e-05
6.01289e-05
5.99281e-05
6.31173e-05
6.6905e-05
7.05245e-05
8.04258e-05
7.91347e-05
7.1712e-05
7.00482e-05
7.43098e-05
7.57359e-05
7.3693e-05
7.44137e-05
1.41647e-05
1.79415e-05
2.22013e-05
2.41748e-05
2.59366e-05
2.7539e-05
2.81048e-05
2.81808e-05
3.08041e-05
3.44971e-05
3.53524e-05
3.70223e-05
3.81033e-05
3.80141e-05
4.19067e-05
4.32833e-05
4.65846e-05
4.79148e-05
4.85039e-05
5.19261e-05
4.74038e-06
4.82665e-06
4.66679e-06
4.77544e-06
4.90495e-06
6.45879e-06
9.64555e-06
1.43853e-05
1.43799e-05
1.47615e-05
7.86575e-06
6.6909e-06
5.69509e-06
5.38076e-06
6.06155e-06
7.47814e-06
8.75737e-06
1.01001e-05
1.09448e-05
1.0526e-05
0.00111472
0.00131853
0.000998106
0.00108925
0.00111259
0.00111948
0.00116306
0.0012047
0.00124138
0.00127055
0.0013245
0.00135693
0.00142609
0.00146322
0.00152333
0.00158683
0.00156354
0.00247711
0.0082844
0.0209049
0.00105325
0.00116491
0.000927826
0.00102806
0.00108222
0.00111278
0.00116025
0.00120098
0.00124194
0.0012805
0.00134023
0.00138599
0.00145166
0.00146935
0.00153919
0.00159749
0.00160651
0.00213155
0.00762236
0.0205212
0.00111251
0.00126414
0.000968178
0.00105082
0.00109606
0.00112098
0.0011689
0.00121321
0.00124931
0.00128551
0.00133675
0.00137186
0.00143684
0.00147016
0.00155606
0.00157416
0.00162551
0.00149968
0.00629556
0.0200375
0.00115248
0.00125348
0.000951367
0.00105028
0.00109545
0.00113349
0.00117983
0.00121431
0.00125151
0.00129007
0.00134512
0.00138394
0.00144873
0.00147326
0.00155193
0.00157448
0.00167669
0.00147292
0.00568801
0.0195201
0.0011464
0.00126908
0.000994777
0.00109085
0.0011322
0.00115968
0.0011858
0.00121951
0.00125397
0.00129534
0.00134282
0.00138273
0.0014536
0.00148052
0.00155928
0.00155896
0.00164909
0.00143561
0.00463839
0.0189533
0.00119183
0.00129215
0.00101729
0.00109298
0.00112266
0.00114243
0.00116989
0.00121651
0.0012571
0.00130228
0.00134784
0.00139221
0.00144818
0.0014675
0.00154411
0.00157045
0.00169843
0.00148466
0.00468777
0.0182619
0.00118369
0.00127718
0.00101241
0.00108823
0.00112408
0.0011464
0.00119407
0.0012455
0.00127626
0.00131622
0.00135497
0.00140627
0.0014631
0.00149561
0.00158073
0.00158026
0.00166757
0.00156056
0.00534564
0.0175133
0.00117062
0.00120205
0.000989025
0.00107378
0.0011131
0.00116249
0.00121307
0.00123813
0.00125414
0.00129101
0.00133809
0.00139151
0.00143763
0.00147811
0.00154263
0.0015834
0.00173366
0.00160715
0.00498124
0.0167426
0.00110545
0.00116276
0.00102345
0.00110657
0.00114926
0.00118085
0.00118432
0.00119801
0.00122925
0.00130046
0.00135706
0.00141375
0.00145514
0.00148803
0.00157427
0.00160668
0.00172445
0.00165156
0.00438601
0.0157751
0.00111994
0.00119374
0.0010595
0.00109588
0.00111424
0.00111792
0.00113748
0.00118844
0.00125971
0.00133222
0.00134913
0.00138555
0.00140036
0.0014839
0.0015569
0.00162249
0.00172603
0.00161905
0.00367255
0.0142885
0.00105981
0.0011144
0.000961853
0.000993549
0.00102947
0.00106769
0.00113967
0.00122164
0.00129022
0.00129689
0.00130432
0.00134979
0.00140891
0.00150709
0.00154218
0.00159682
0.00166577
0.00171104
0.00302518
0.0123633
0.00102784
0.00107377
0.000964266
0.00105064
0.00112055
0.00119443
0.00125372
0.00128846
0.00128165
0.00126445
0.00129743
0.00137719
0.00145209
0.0015071
0.00152857
0.00160069
0.00162789
0.00166326
0.00250555
0.0100584
0.00108047
0.00115812
0.00109067
0.00117759
0.00120609
0.00121767
0.00119215
0.00117985
0.00115479
0.00119639
0.00129007
0.00137674
0.00140709
0.00145986
0.00147904
0.00154772
0.0015975
0.00165647
0.00213348
0.00801748
0.00102728
0.00106997
0.00101354
0.00103984
0.00103845
0.00103242
0.00104336
0.00108691
0.00114534
0.00127542
0.00137741
0.00141807
0.0014504
0.00148593
0.00147597
0.00154411
0.00156003
0.00167702
0.00190892
0.00660044
0.000970893
0.00102252
0.000972172
0.00100274
0.00104759
0.00110011
0.00117453
0.00125403
0.00134229
0.00141932
0.00138494
0.0013556
0.00133235
0.00132744
0.00135034
0.00151946
0.00157864
0.00166002
0.00176502
0.00542124
0.00101345
0.00108048
0.00102224
0.0010818
0.00113186
0.00116588
0.00119255
0.00120901
0.00121254
0.00117946
0.00114277
0.00118698
0.00126519
0.00137673
0.00155426
0.00170069
0.00162754
0.00170817
0.00170945
0.00472975
0.000988948
0.0010263
0.000977343
0.00104218
0.00106495
0.00107696
0.00108993
0.00111327
0.00113182
0.0011589
0.00125182
0.00138322
0.00147908
0.00155448
0.00162753
0.00154837
0.00143569
0.0015733
0.00161864
0.00429169
0.000967615
0.00100347
0.000973475
0.00103172
0.00104891
0.00107681
0.00111952
0.00117219
0.00121424
0.001293
0.00137936
0.00141102
0.00139442
0.00138733
0.00135402
0.00127422
0.00146135
0.00167254
0.00169739
0.00382047
0.000968324
0.000989612
0.000965771
0.00101991
0.00104869
0.00109327
0.00113763
0.00116606
0.00120109
0.00124588
0.0012506
0.00124123
0.00126432
0.00135072
0.00138566
0.00145839
0.00164015
0.00157944
0.00165085
0.00414222
0.000922224
0.000970712
0.000958804
0.00102417
0.001071
0.0010989
0.00113557
0.00114354
0.0012032
0.00121014
0.00123345
0.0012753
0.00134071
0.00138158
0.00142795
0.00154766
0.00155533
0.00156938
0.00183756
0.00266691
0.000726195
0.000777448
0.00064039
0.000570683
0.000588953
0.00053874
0.000521873
0.00052041
0.000565157
0.000557415
0.000595736
0.000547602
0.000370933
0.000191384
0.00108938
0.00546681
0.0114286
0.0138955
0.00974116
0.00142161
0.00069969
0.000747463
0.000682642
0.000626879
0.00062043
0.000568198
0.000582897
0.000526675
0.000531921
0.000557787
0.000563151
0.000609583
0.00052117
0.000263041
0.000152854
0.0030677
0.00928554
0.0141619
0.0112465
0.0030986
0.00071692
0.000794011
0.000706421
0.000606995
0.00063804
0.000603879
0.000597487
0.00058044
0.000598509
0.000587506
0.000585562
0.000587884
0.000587857
0.000477411
0.000243892
0.00119647
0.00725377
0.0135239
0.01274
0.00276654
0.000709701
0.000785156
0.000777571
0.000683293
0.000680802
0.000620887
0.000630218
0.000599217
0.000608122
0.000649256
0.00065945
0.00065652
0.000695887
0.000615979
0.000303065
0.00028257
0.00473938
0.0122908
0.0137493
0.00486436
0.000722525
0.000798347
0.000783549
0.000675518
0.000709262
0.000691393
0.000688408
0.000651586
0.000662545
0.000670433
0.000682592
0.000699368
0.000732701
0.000749681
0.000598829
0.000334407
0.00228883
0.0111623
0.014461
0.0076671
0.000735865
0.000807964
0.000840194
0.00073283
0.000744837
0.00069512
0.000710131
0.00071158
0.00071923
0.000757644
0.000783752
0.000792162
0.000796026
0.000868753
0.000789973
0.000298324
0.00100599
0.00985724
0.0146806
0.0103303
0.000755967
0.000819254
0.000864367
0.000749886
0.000779984
0.000770761
0.000772372
0.000732997
0.000750081
0.000783982
0.000806234
0.000840015
0.000872783
0.000942925
0.000927447
0.000592438
0.000439335
0.00848498
0.014762
0.0129716
0.000769488
0.000820956
0.00087983
0.000769978
0.00080492
0.000775438
0.000790869
0.000810062
0.000822719
0.000851994
0.000887748
0.000903866
0.000927293
0.00100025
0.00104324
0.000830567
0.00035155
0.00618471
0.0144953
0.0161466
0.00079222
0.000840684
0.000927753
0.000809273
0.000837946
0.0008337
0.000845115
0.000820209
0.000842637
0.000895674
0.000921941
0.000965752
0.000999078
0.00104103
0.00110375
0.00099088
0.000405476
0.0042412
0.0144245
0.0175418
0.000800771
0.000831836
0.000926021
0.000812854
0.000861413
0.000857192
0.000864691
0.000886394
0.000911797
0.000934594
0.000972338
0.00100017
0.00103569
0.00112343
0.0011945
0.00113492
0.000350515
0.00312622
0.0138933
0.0189898
0.000825173
0.000843577
0.000965464
0.000853839
0.000889796
0.000886477
0.000905738
0.000907077
0.000933857
0.000992603
0.00102635
0.00107181
0.00110444
0.00116166
0.00119741
0.00116642
0.000575456
0.00204631
0.0136562
0.0195669
0.000817782