/*--------------------------------*- C++ -*----------------------------------*\
  =========                 |
  \\      /  F ield         | OpenFOAM: The Open Source CFD Toolbox
   \\    /   O peration     | Website:  https://openfoam.org
    \\  /    A nd           | Version:  9
     \\/     M anipulation  |
\*---------------------------------------------------------------------------*/
FoamFile
{
    format      ascii;
    class       volScalarField;
    location    "5.4";
    object      p;
}
// * * * * * * * * * * * * * * * * * * * * * * * * * * * * * * * * * * * * * //

dimensions      [0 2 -2 0 0 0 0];

internalField   nonuniform List<scalar> 
46400
(
-67.2985
-60.0098
-48.3496
-37.8664
-28.7386
-20.0807
-12.4392
-5.32194
1.11782
7.05094
12.5009
17.5458
22.2249
26.6043
30.7511
34.7176
38.4128
42.3892
46.4146
47.3816
-34.2578
-28.3778
-17.9672
-8.28628
-0.0121761
7.78812
14.659
20.9635
26.6572
31.8321
36.5787
40.8775
44.8415
48.4797
51.8314
54.9379
57.7678
60.6594
63.2468
63.4388
-3.10829
1.91398
11.6615
20.7335
28.2265
35.2496
41.3319
46.8636
51.8063
56.2446
60.2746
63.8968
67.1883
70.1566
72.878
75.3373
77.5121
79.7148
81.4316
80.708
27.0326
32.7164
41.545
49.6389
56.2577
62.3159
67.5549
72.2041
76.341
79.9831
83.2519
86.1457
88.7238
91.0295
93.0665
94.878
96.4444
98.0372
99.2741
98.3017
57.55
63.6546
71.2901
78.2396
83.7831
88.8421
93.176
96.9645
100.31
103.2
105.761
107.968
109.91
111.559
113.018
114.232
115.223
116.213
116.879
115.469
88.1199
94.7352
100.581
106.216
110.684
114.656
118.076
120.972
123.506
125.638
127.485
129.04
130.36
131.458
132.36
133.095
133.637
134.187
134.606
133.033
117.645
124.134
128.447
132.702
136.179
139.11
141.67
143.745
145.527
146.958
148.144
149.069
149.796
150.318
150.702
150.929
150.997
151.093
151.095
149.381
146.224
150.962
154.614
157.623
160.251
162.335
164.089
165.445
166.525
167.315
167.893
168.252
168.45
168.462
168.356
168.11
167.751
167.389
167.054
165.105
171.238
175.045
178.024
180.354
182.29
183.677
184.793
185.498
185.979
186.167
186.182
185.993
185.691
185.242
184.708
184.067
183.322
182.604
181.962
179.957
194.7
197.844
200.141
201.75
203.038
203.815
204.324
204.469
204.405
204.078
203.586
202.894
202.094
201.163
200.164
199.075
197.91
196.766
195.672
193.444
215.547
218.007
219.74
220.741
221.468
221.701
221.713
221.355
220.806
220.039
219.145
218.089
216.922
215.638
214.272
212.833
211.319
209.834
208.392
205.99
235.377
237.293
238.46
238.857
238.994
238.642
238.136
237.252
236.205
234.925
233.544
232.033
230.447
228.773
227.035
225.239
223.377
221.547
219.755
217.175
252.254
253.536
254.271
254.245
253.95
253.193
252.271
251.1
249.771
248.23
246.556
244.744
242.852
240.882
238.87
236.807
234.696
232.6
230.559
227.792
268.413
269.069
269.323
268.877
268.169
266.95
265.508
263.82
262.009
260.042
257.974
255.799
253.552
251.248
248.911
246.545
244.149
241.773
239.449
236.581
280.875
280.823
280.71
279.923
279.015
277.748
276.263
274.466
272.536
270.401
268.184
265.828
263.412
260.907
258.366
255.785
253.171
250.585
248.083
245.012
292.928
292.782
291.99
290.815
289.306
287.563
285.607
283.454
281.179
278.764
276.284
273.71
271.102
268.434
265.754
263.047
260.327
257.636
255.094
251.955
300.132
300.116
299.37
298.134
296.699
294.933
292.986
290.806
288.468
285.973
283.367
280.665
277.91
275.099
272.279
269.433
266.582
263.761
261.135
257.852
308.233
307.616
306.515
304.936
303.118
300.996
298.759
296.271
293.748
291.03
288.312
285.463
282.639
279.735
276.865
273.967
271.077
268.218
265.552
262.3
310.271
310.12
309.393
308.273
306.809
304.864
302.759
300.31
297.775
295.017
292.221
289.298
286.362
283.36
280.368
277.359
274.355
271.369
268.539
265.318
313.397
312.752
311.865
310.498
308.793
306.725
304.434
301.945
299.307
296.554
293.729
290.838
287.915
284.956
282.002
279.031
276.065
273.115
270.339
267.092
-461.254
-459.084
-449.931
-437.262
-421.741
-406.398
-392.238
-378.49
-365.454
-353.071
-341.146
-329.756
-318.851
-308.327
-298.33
-288.585
-279.425
-270.481
-262.087
-254.067
-459.218
-457.712
-445.387
-431.743
-416.034
-400.48
-385.916
-372.037
-358.759
-346.104
-334.052
-322.479
-311.455
-300.855
-290.796
-281.037
-271.894
-262.959
-254.665
-246.674
-455.953
-455.125
-442.949
-426.458
-410.068
-393.988
-378.774
-364.545
-350.999
-338.177
-325.943
-314.305
-303.214
-292.592
-282.53
-272.78
-263.684
-254.782
-246.61
-238.643
-452.817
-451.37
-438.273
-420.19
-402.701
-386.253
-370.68
-356.112
-342.346
-329.322
-316.959
-305.216
-294.069
-283.423
-273.344
-263.631
-254.589
-245.737
-237.674
-229.746
-446.981
-444.641
-430.169
-411.462
-393.582
-376.799
-361.064
-346.328
-332.453
-319.374
-306.994
-295.248
-284.113
-273.516
-263.501
-253.884
-244.946
-236.18
-228.305
-220.442
-438.768
-435.662
-420.288
-401.022
-382.923
-365.859
-349.972
-335.12
-321.128
-308.01
-295.576
-283.856
-272.768
-262.242
-252.304
-242.794
-233.983
-225.349
-217.699
-209.94
-428.477
-424.457
-408.07
-388.474
-370.209
-353.135
-337.217
-322.421
-308.515
-295.458
-283.173
-271.554
-260.587
-250.2
-240.399
-231.057
-222.38
-213.914
-206.434
-198.729
-415.305
-410.602
-393.444
-373.785
-355.592
-338.599
-322.73
-308.036
-294.221
-281.323
-269.144
-257.699
-246.918
-236.735
-227.129
-218.009
-209.535
-201.291
-194.08
-186.495
-399.986
-394.47
-376.811
-357.178
-339.063
-322.338
-306.65
-292.169
-278.587
-265.886
-253.986
-242.769
-232.226
-222.272
-212.898
-204.029
-195.769
-187.768
-180.788
-173.362
-381.785
-375.722
-357.629
-338.341
-320.466
-304.06
-288.65
-274.483
-261.233
-248.861
-237.272
-226.381
-216.162
-206.549
-197.498
-188.959
-180.996
-173.317
-166.652
-159.418
-361.262
-354.588
-336.487
-317.675
-300.207
-284.279
-269.294
-255.494
-242.617
-230.613
-219.39
-208.868
-199.009
-189.737
-181.027
-172.839
-165.188
-157.85
-151.501
-144.489
-338.579
-331.555
-313.378
-294.953
-277.882
-262.469
-247.948
-234.645
-222.278
-210.729
-199.999
-189.917
-180.499
-171.669
-163.38
-155.606
-148.326
-141.388
-135.398
-128.642
-313.427
-306.154
-288.137
-270.735
-254.205
-239.465
-225.572
-212.765
-200.918
-189.884
-179.611
-170.027
-161.079
-152.707
-144.867
-137.545
-130.68
-124.185
-118.567
-112.097
-287.047
-279.631
-261.304
-244.817
-228.814
-214.645
-201.417
-189.219
-177.989
-167.511
-157.84
-148.785
-140.36
-132.496
-125.157
-118.32
-111.908
-105.888
-100.687
-94.5444
-258.791
-251
-232.508
-217.251
-202.24
-188.804
-176.346
-164.796
-154.197
-144.336
-135.208
-126.724
-118.843
-111.508
-104.671
-98.3387
-92.3972
-86.8879
-82.0768
-76.2734
-229.377
-221.368
-203.497
-188.75
-174.632
-161.874
-150.172
-139.298
-129.365
-120.125
-111.625
-103.729
-96.4062
-89.619
-83.3318
-77.518
-72.0836
-67.0937
-62.7088
-57.2575
-198.476
-190.298
-173.22
-159.381
-146.155
-134.151
-123.216
-113.051
-103.786
-95.1794
-87.2675
-79.935
-73.1662
-66.8973
-61.1063
-55.785
-50.8344
-46.3861
-42.4375
-37.4149
-166.497
-158.416
-142.431
-129.323
-117.126
-105.903
-95.7878
-86.3488
-77.7816
-69.8441
-62.5448
-55.8317
-49.6064
-43.8801
-38.6119
-33.7714
-29.2969
-25.3724
-21.8441
-17.2642
-134.258
-126.216
-111.27
-98.9353
-87.6682
-77.2105
-67.8805
-59.1768
-51.2788
-43.9648
-37.2646
-31.0659
-25.3617
-20.0869
-15.237
-10.7392
-6.63366
-3.14052
0.171288
4.96029
-101.238
-92.7367
-79.5512
-68.1618
-58.0414
-48.5195
-40.0291
-32.1167
-24.9164
-18.2562
-12.0831
-6.40367
-1.07451
3.87966
8.5405
12.9881
17.089
20.9432
25.3515
30.1884
-214.913
-171.398
-130.532
-104.187
-78.9633
-61.7943
-45.5932
-33.8891
-23.1972
-15.1767
-8.01046
-2.48432
2.44757
6.06191
9.36565
11.976
14.4341
15.5506
16.3134
16.8266
-208.184
-166.728
-126.851
-101.546
-76.9114
-60.2368
-44.3782
-32.8872
-22.4213
-14.5217
-7.55327
-1.9923
2.71011
6.31628
9.38513
12.1462
14.2737
15.5757
16.1842
16.7546
-201.037
-161.767
-122.99
-98.602
-74.6721
-58.5288
-43.0786
-31.8361
-21.6088
-13.8545
-7.06127
-1.50552
3.00699
6.64486
9.37774
12.3643
14.1428
15.6296
16.1463
16.7738
-193.215
-156.405
-118.793
-95.5693
-72.2886
-56.6973
-41.6258
-30.655
-20.6785
-13.0855
-6.46167
-1.02494
3.34888
6.97902
9.45225
12.5616
13.9859
15.8558
16.0821
16.7029
-184.785
-150.758
-114.324
-92.3081
-69.6637
-54.7811
-40.0846
-29.4399
-19.7078
-12.2515
-5.82887
-0.534651
3.76553
7.38529
9.58723
12.7492
13.9332
16.2018
15.947
16.8958
-175.701
-144.758
-109.566
-88.9526
-66.9057
-52.7327
-38.3868
-28.0988
-18.6111
-11.3288
-5.09637
0.0562418
4.24396
7.78939
9.77078
12.9648
13.9093
16.4674
15.8518
16.8728
-166.129
-138.278
-104.519
-85.4032
-63.916
-50.6235
-36.6321
-26.7199
-17.4923
-10.3583
-4.33069
0.708392
4.76626
8.27016
10.0156
13.2841
13.93
16.8452
15.81
17.0431
-156.147
-131.269
-99.2795
-81.6533
-60.8955
-48.2733
-34.73
-25.2043
-16.2524
-9.28305
-3.47334
1.42389
5.35851
8.74996
10.3165
13.732
14.0491
17.1655
15.8359
17.1937
-145.639
-123.774
-93.8102
-77.6314
-57.6024
-45.9401
-32.767
-23.6632
-15.0067
-8.17288
-2.58886
2.17488
5.98646
9.30746
10.6808
14.2475
14.2141
17.5572
15.9036
17.3328
-134.643
-115.917
-88.2141
-73.3903
-54.3294
-43.2735
-30.7437
-21.9144
-13.6558
-6.95577
-1.6068
2.99588
6.66912
9.86018
11.0509
14.7873
14.4471
17.8538
16.0342
17.5082
-123.042
-107.67
-82.4054
-68.8968
-50.9136
-40.5281
-28.673
-20.1247
-12.2915
-5.70633
-0.60997
3.85403
7.39936
10.4845
11.4496
15.359
14.7025
18.0753
16.1182
17.6837
-110.866
-99.1276
-76.4097
-64.3071
-47.416
-37.5735
-26.5203
-18.1646
-10.825
-4.36814
0.463607
4.79158
8.21066
11.1304
12.0315
15.9472
14.9819
18.357
16.2198
17.8625
-98.0755
-90.2246
-70.1995
-59.4973
-43.8295
-34.5216
-24.3267
-16.1702
-9.33615
-2.99432
1.66706
5.78634
9.03216
11.91
12.7674
16.5047
15.2561
18.6001
16.3414
18.0644
-84.7256
-81.0811
-63.8557
-54.5564
-40.1222
-31.3203
-22.0236
-14.0504
-7.74614
-1.53912
2.83676
6.83978
9.90876
12.7816
13.5531
17.0353
15.532
18.8534
16.4447
18.2838
-70.7152
-71.6411
-57.402
-49.4703
-36.3444
-28.0557
-19.6917
-11.9109
-6.13935
-0.0476774
3.97893
7.9237
10.8378
13.6978
14.357
17.5826
15.802
19.0983
16.5604
18.5035
-55.8997
-61.8099
-50.8239
-44.279
-32.4964
-24.6627
-17.2719
-9.69543
-4.44182
1.46214
5.18829
9.07338
11.7769
14.6805
15.1379
18.1388
16.0351
19.3034
16.6427
18.7808
-40.7986
-51.5704
-43.9469
-38.7175
-28.4258
-21.0894
-14.7105
-7.38187
-2.66814
3.08091
6.53635
10.2814
12.8066
15.7774
15.9182
18.8075
16.2712
19.7833
16.6066
18.998
-26.0361
-42.236
-37.6158
-33.3848
-24.3958
-17.4646
-12.1176
-5.04158
-0.815686
4.71626
7.90871
11.5376
13.8855
16.4728
16.7246
19.3783
16.477
19.953
16.7394
19.316
-6.24291
-31.2733
-31.9068
-29.1585
-21.0882
-14.413
-9.9876
-3.15619
0.691206
6.04734
8.98122
12.5537
14.8473
17.0119
17.4027
19.58
16.6514
19.409
16.5535
18.9481
16.5738
-14.5385
-22.117
-21.3819
-15.7416
-9.86551
-6.55706
-0.29349
3.00153
7.9662
10.3849
14.1837
16.0128
18.5239
18.6716
20.7788
17.8117
19.7193
15.2185
19.6768
60.7897
61.9526
42.0484
38.4132
26.5481
28.054
23.2845
25.3221
23.4786
26.8154
25.449
29.3969
27.6358
31.6145
30.6145
33.928
31.483
36.489
19.941
43.3189
107.435
97.1574
74.9013
67.4701
55.4188
51.2525
45.4515
43.7246
40.4298
39.6082
37.945
37.5995
36.4849
37.3812
36.2388
37.7322
36.1609
38.2419
35.6865
38.3878
119.842
108.725
95.9427
87.3139
78.3434
72.1812
66.1667
62.5243
59.0128
56.9364
54.9967
53.985
52.6133
52.2702
51.2956
51.6237
50.554
50.7648
50.3206
50.9321
122.916
114.611
104.35
96.9928
89.2759
83.8434
78.3876
74.1525
70.1757
67.0181
64.0616
61.795
59.7298
58.171
56.9014
55.7681
55.2866
54.489
54.278
54.4361
119.757
112.866
106.934
101.096
95.8606
90.9321
86.6535
82.6951
79.3867
76.3818
73.841
71.4995
69.5046
67.648
66.0459
64.5232
63.1896
62.3172
61.7022
61.522
118.044
113.586
109.188
104.304
100.112
95.8913
92.126
88.5972
85.2826
82.2804
79.4659
76.9486
74.6097
72.4078
70.513
68.4457
66.9624
65.2512
64.6363
64.569
115.318
111.72
108.431
105.087
101.931
98.7895
95.844
93.0092
90.3327
87.7702
85.331
83.0182
80.8223
78.6907
76.6229
74.5356
72.536
70.5798
69.2528
69.0862
114.385
111.93
109.7
107.119
104.272
101.589
99.0824
96.5605
94.0959
91.8193
89.485
87.3721
85.1062
82.9976
80.8197
78.4932
76.4008
73.731
72.1858
71.6823
113.344
111.32
109.368
107.252
105.44
103.569
101.52
99.7483
97.7185
95.8735
93.7616
91.9507
89.8186
88.0436
85.7642
83.7439
81.2095
78.8108
76.7787
76.0662
113.268
112.047
110.68
109.323
107.726
106.117
104.338
102.75
101.052
99.6895
97.9543
96.6128
94.6831
93.2876
91.1447
89.6968
87.0838
85.6314
82.9715
82.6855
113.733
112.679
111.427
110.235
109.034
108.01
106.831
105.753
104.405
103.323
101.888
100.901
99.3628
98.4906
96.6878
95.8959
93.4052
93.0382
90.2736
90.2329
114.362
113.719
112.895
112.262
111.364
110.53
109.522
108.793
107.815
107.197
106.247
105.701
104.672
104.198
103.031
102.718
100.995
101.313
97.4738
99.3085
115.468
114.965
114.282
113.753
113.093
112.612
111.991
111.515
110.943
110.563
110.085
109.892
109.545
109.558
109.38
109.598
109.547
110.126
110.826
113.012
116.451
116.125
115.675
115.357
114.938
114.691
114.339
114.251
113.965
114.066
113.883
114.228
114.234
114.746
115.321
116.067
117.52
118.432
121.431
122.637
117.563
117.343
117.037
116.868
116.62
116.549
116.376
116.453
116.368
116.688
116.684
117.427
117.394
118.94
119.501
121.548
122.972
125.579
128.513
130.221
118.513
118.392
118.225
118.18
118.092
118.175
118.186
118.468
118.585
119.174
119.335
120.462
120.533
122.426
122.48
125.091
125.451
130.198
131.713
135.077
119.337
119.253
119.181
119.186
119.2
119.324
119.436
119.722
119.925
120.408
120.744
121.483
121.993
123.065
123.756
125.452
125.99
132.373
131.321
138.187
119.994
120.017
119.984
120.035
120.098
120.289
120.474
120.82
121.144
121.72
122.135
123.002
123.467
124.672
125.191
126.652
127.262
128.783
129.677
131.563
120.44
120.38
120.388
120.506
120.635
120.855
121.065
121.404
121.716
122.181
122.595
123.219
123.723
124.528
125.109
126.121
126.78
128.445
128.978
130.383
120.586
120.607
120.661
120.758
120.886
121.087
121.327
121.659
122.011
122.495
122.962
123.594
124.16
124.933
125.542
126.425
126.93
127.406
127.415
133.591
228.789
227.583
225.281
222.854
219.354
215.62
210.788
205.603
199.473
192.868
185.684
177.554
168.68
159.725
149.707
139.179
128.27
116.774
105.136
92.7754
201.077
200.189
199.08
197.569
195.807
193.696
191.285
188.578
185.565
182.242
178.608
173.334
168.222
164.519
159.701
155.175
149.933
144.876
138.973
132.187
163.044
162.502
161.767
160.999
159.981
158.974
157.678
156.432
154.851
153.341
151.453
149.646
147.667
145.721
143.361
141.189
138.456
136.056
133.104
130.849
151.469
150.978
150.455
149.839
149.181
148.433
147.618
146.72
145.721
144.678
143.494
142.336
140.973
139.71
138.178
136.812
135.106
133.627
131.518
129.753
135.369
135.038
134.667
134.272
133.81
133.347
132.796
132.266
131.631
131.038
130.328
129.691
128.947
128.276
127.454
126.761
125.846
125.105
124.088
123.34
130.206
129.918
129.597
129.265
128.904
128.527
128.127
127.707
127.264
126.8
126.289
125.772
125.173
124.617
123.957
123.373
122.612
122.005
121.209
120.603
123.87
123.643
123.408
123.148
122.872
122.579
122.262
121.937
121.582
121.225
120.834
120.454
120.038
119.645
119.201
118.796
118.328
117.921
117.392
116.981
121.623
121.417
121.192
120.964
120.719
120.467
120.201
119.926
119.641
119.346
119.043
118.727
118.388
118.044
117.67
117.307
116.902
116.525
116.092
115.709
118.986
118.838
118.679
118.508
118.324
118.129
117.921
117.708
117.48
117.246
116.999
116.744
116.475
116.199
115.907
115.62
115.283
114.997
114.568
114.205
118.085
117.932
117.771
117.585
117.38
117.166
116.951
116.744
116.535
116.331
116.126
115.92
115.71
115.495
115.269
115.042
114.802
114.564
114.308
114.045
117.774
117.66
117.532
117.397
117.25
117.101
116.942
116.778
116.603
116.427
116.245
116.058
115.866
115.673
115.474
115.272
115.061
114.846
114.621
114.39
117.825
117.716
117.602
117.483
117.36
117.227
117.083
116.927
116.763
116.597
116.434
116.275
116.111
115.944
115.773
115.596
115.417
115.234
115.053
114.863
118.186
118.096
118.003
117.906
117.806
117.702
117.596
117.484
117.371
117.251
117.131
117.004
116.878
116.745
116.613
116.472
116.333
116.181
116.037
115.875
118.675
118.591
118.506
118.418
118.328
118.235
118.141
118.044
117.946
117.846
117.745
117.64
117.536
117.428
117.321
117.208
117.1
116.983
116.872
116.75
119.311
119.24
119.168
119.095
119.021
118.946
118.87
118.792
118.714
118.633
118.554
118.471
118.39
118.304
118.223
118.134
118.051
117.959
117.877
117.78
119.936
119.859
119.785
119.712
119.64
119.569
119.5
119.431
119.363
119.295
119.229
119.163
119.099
119.033
118.971
118.906
118.846
118.781
118.723
118.657
120.474
120.426
120.376
120.322
120.266
120.207
120.15
120.092
120.035
119.978
119.922
119.865
119.811
119.756
119.703
119.647
119.596
119.542
119.496
119.444
120.832
120.764
120.699
120.64
120.586
120.534
120.484
120.435
120.387
120.341
120.298
120.258
120.221
120.182
120.149
120.12
120.095
120.072
120.052
120.032
121.206
121.149
121.094
121.041
120.989
120.94
120.894
120.852
120.811
120.773
120.736
120.702
120.669
120.639
120.612
120.584
120.558
120.533
120.511
120.49
121.349
121.297
121.247
121.199
121.154
121.11
121.068
121.026
120.986
120.947
120.909
120.873
120.838
120.805
120.773
120.743
120.715
120.687
120.661
120.637
71.3631
69.0113
63.6488
58.6935
53.7786
48.5442
43.0404
37.1976
30.9317
24.1651
16.8693
8.89614
0.25725
-9.28962
-19.6552
-31.1075
-43.7985
-57.4783
-73.9218
-81.9204
84.6174
83.3259
79.6155
75.76
71.7878
67.4399
62.7411
57.6452
52.1019
46.0617
39.5058
32.304
24.4832
15.8222
6.4131
-4.06441
-15.5511
-28.0614
-43.2652
-51.7027
99.8729
99.5032
96.5971
93.4017
90.0571
86.3417
82.2855
77.8596
73.0194
67.7222
61.9279
55.5321
48.5388
40.7406
32.2676
22.73
12.4032
0.819848
-12.9364
-21.1633
115.627
115.555
113.103
110.547
107.845
104.817
101.466
97.7661
93.6594
89.1201
84.1099
78.544
72.4316
65.5935
58.1095
49.6581
40.4832
30.0347
18.0166
10.0138
131.339
131.745
129.893
127.922
125.815
123.378
120.633
117.551
114.105
110.26
105.976
101.173
95.8451
89.8101
83.1971
75.6382
67.506
58.0569
47.4734
41.0852
147.258
147.805
146.291
144.752
143.1
141.189
139.009
136.563
133.785
130.65
127.096
123.075
118.542
113.388
107.62
101.007
93.6958
85.1191
75.5228
70.1403
162.373
163.162
162.142
161.118
160.026
158.699
157.133
155.313
153.183
150.713
147.872
144.585
140.847
136.477
131.589
125.807
119.427
111.769
102.725
97.6898
176.629
177.656
177.115
176.574
175.979
175.178
174.151
172.915
171.388
169.595
167.436
164.924
161.934
158.447
154.39
149.597
144.189
137.552
129.632
124.274
189.976
191.289
191.265
191.222
191.147
190.876
190.42
189.774
188.894
187.769
186.343
184.576
182.408
179.772
176.664
172.853
168.522
162.94
156.611
150.685
202.603
204.202
204.64
205.05
205.417
205.63
205.694
205.614
205.332
204.837
204.047
202.971
201.51
199.709
197.397
194.6
191.179
186.887
182.147
176.183
213.75
215.596
216.471
217.339
218.188
218.935
219.544
220.036
220.307
220.399
220.221
219.838
219.143
218.144
216.717
214.854
212.43
209.384
205.728
200.833
224.382
226.584
227.927
229.261
230.585
231.782
232.852
233.777
234.524
235.116
235.503
235.711
235.614
235.249
234.464
233.339
231.688
229.63
226.82
223.216
234.137
236.579
238.162
239.774
241.373
242.854
244.225
245.504
246.654
247.728
248.621
249.369
249.813
250.056
249.891
249.474
248.523
247.215
245.206
242.346
242.874
245.409
247.22
249.106
250.987
252.805
254.567
256.271
257.901
259.43
260.808
261.999
262.925
263.619
263.976
264.081
263.712
263.037
261.597
259.435
249.786
252.468
254.607
256.809
259.025
261.195
263.32
265.394
267.36
269.205
270.85
272.346
273.613
274.746
275.594
276.274
276.415
276.328
275.414
273.879
256.037
258.972
261.327
263.779
266.226
268.623
270.946
273.213
275.367
277.44
279.388
281.26
282.974
284.568
285.889
286.983
287.544
287.842
287.327
286.348
260.966
263.918
266.345
268.911
271.491
274.038
276.563
279.059
281.507
283.909
286.236
288.475
290.543
292.415
293.959
295.226
296.106
296.864
296.851
296.78
264.464
267.527
270.156
272.922
275.707
278.47
281.213
283.93
286.589
289.187
291.667
294.016
296.163
298.143
299.865
301.391
302.65
303.656
304.103
304.138
266.651
269.781
272.477
275.323
278.197
281.041
283.887
286.685
289.462
292.146
294.767
297.251
299.634
301.84
303.87
305.649
307.145
308.223
308.747
308.507
267.787
270.966
273.691
276.603
279.544
282.493
285.412
288.346
291.201
294.05
296.766
299.447
301.94
304.347
306.484
308.461
310.097
311.347
312.415
313.247
-149.636
-154.747
-160.11
-165.631
-171.164
-176.997
-182.74
-188.768
-194.761
-200.903
-207.042
-213.423
-219.698
-225.87
-231.47
-236.993
-240.408
-240.46
-241.666
-241.768
-144.673
-149.919
-155.373
-161.11
-166.792
-172.85
-178.856
-185.139
-191.438
-197.924
-204.517
-211.162
-217.94
-224.554
-231.297
-237.668
-242.704
-245.011
-245.487
-245.967
-139.678
-145.104
-150.708
-156.683
-162.628
-168.989
-175.346
-182.022
-188.79
-195.757
-202.867
-210.161
-217.581
-225.029
-232.66
-239.602
-245.735
-250.801
-251.261
-252.02
-134.641
-140.267
-146.006
-152.246
-158.422
-165.086
-171.808
-178.892
-186.144
-193.681
-201.481
-209.511
-217.82
-226.399
-235.148
-244.068
-252.794
-259.893
-261.137
-262.006
-129.329
-135.176
-141.078
-147.579
-154.058
-161.062
-168.201
-175.737
-183.553
-191.71
-200.233
-209.133
-218.466
-228.277
-238.295
-249.045
-259.922
-269.528
-274.174
-274.944
-123.608
-129.665
-135.69
-142.425
-149.146
-156.44
-163.952
-171.923
-180.247
-189.014
-198.254
-208.006
-218.377
-229.29
-241.006
-253.606
-266.983
-279.413
-287.704
-288.729
-117.222
-123.494
-129.668
-136.626
-143.605
-151.18
-159.041
-167.379
-176.165
-185.445
-195.294
-205.746
-216.887
-228.756
-241.597
-255.318
-270.14
-284.705
-296.682
-297.347
-110.5
-116.88
-123.061
-130.141
-137.258
-144.991
-153.087
-161.722
-170.849
-180.553
-190.895
-201.922
-213.756
-226.436
-240.118
-254.875
-270.783
-287.025
-301.42
-304.321
-102.608
-109.099
-115.262
-122.428
-129.668
-137.542
-145.843
-154.686
-164.093
-174.117
-184.83
-196.279
-208.614
-221.812
-236.102
-251.651
-268.501
-286.289
-300.807
-305.206
-93.8895
-100.494
-106.664
-113.836
-121.14
-129.054
-137.432
-146.392
-155.932
-166.129
-177.06
-188.786
-201.429
-214.989
-229.675
-245.693
-262.722
-280.64
-297.97
-301.969
-84.1284
-90.7113
-96.7403
-103.808
-111.081
-118.946
-127.35
-136.34
-145.961
-156.288
-167.379
-179.311
-192.227
-206.085
-221.31
-237.777
-255.486
-275.586
-292.065
-295.951
-73.3707
-79.9185
-85.8165
-92.7544
-99.9386
-107.71
-116.012
-124.922
-134.462
-144.712
-155.74
-167.635
-180.497
-194.379
-209.565
-225.946
-244.053
-263.696
-282.227
-287.612
-61.0422
-67.6225
-73.325
-80.0412
-87.0982
-94.6912
-102.87
-111.662
-121.098
-131.282
-142.253
-154.1
-166.944
-180.778
-195.977
-212.341
-230.225
-249.97
-268.154
-273.839
-47.3735
-53.9031
-59.5941
-66.1548
-73.0681
-80.4936
-88.4653
-97.0339
-106.231
-116.154
-126.852
-138.435
-150.982
-164.582
-179.533
-195.551
-213.542
-232.763
-251.521
-258.396
-33.7693
-40.1176
-45.3336
-51.4448
-58.0071
-65.0518
-72.6833
-80.9317
-89.815
-99.4471
-109.855
-121.139
-133.383
-146.663
-161.213
-176.947
-194.368
-213.1
-231.613
-238.604
-17.8305
-23.9804
-29.0718
-34.8889
-41.2386
-48.0321
-55.3809
-63.3209
-71.8679
-81.1362
-91.1402
-102.006
-113.788
-126.601
-140.688
-155.819
-172.806
-190.924
-209.799
-217.227
-2.00017
-8.07055
-12.7239
-18.0481
-24.001
-30.3706
-37.2848
-44.793
-52.9
-61.717
-71.2527
-81.6318
-92.8909
-105.18
-118.592
-133.147
-149.347
-166.434
-185.391
-192.776
15.4601
9.76532
5.37305
0.457687
-5.19396
-11.2473
-17.8096
-24.9437
-32.6542
-41.0414
-50.1044
-59.9767
-70.6822
-82.3593
-95.1603
-108.995
-124.375
-140.792
-159.383
-167.167
34.5209
28.3506
24.0941
19.5422
14.1937
8.43454
2.24628
-4.47387
-11.737
-19.6263
-28.145
-37.4395
-47.5083
-58.5625
-70.5945
-83.714
-98.3129
-113.859
-131.838
-139.638
57.0368
50.9054
45.4441
40.4929
35.1238
29.3533
23.2888
16.8189
9.89049
2.42006
-5.6063
-14.343
-23.7859
-34.1301
-45.4001
-57.7071
-71.3533
-85.9886
-103.243
-111.269
45.8219
46.0117
44.8345
43.5954
41.3292
38.7538
36.3101
32.8438
29.5945
25.0389
20.2624
14.2649
6.75684
-1.32597
-13.4608
-24.9067
-44.4504
-62.6312
-92.4511
-124.072
46.1235
46.4033
45.2006
43.9304
41.8157
39.3323
37.0071
33.6368
30.5139
26.0601
21.4392
15.5791
8.28871
0.433871
-11.4543
-22.4605
-41.7477
-58.9956
-88.5132
-118.826
46.4527
46.8964
45.6253
44.3314
42.2692
39.906
37.6917
34.4236
31.4329
27.0955
22.6378
16.9191
9.83829
2.21759
-9.38924
-19.9969
-38.9682
-55.2685
-84.6593
-113.315
46.7355
47.2582
45.9608
44.722
42.7868
40.5105
38.4181
35.2588
32.3941
28.1682
23.8783
18.2952
11.4644
4.05539
-7.28532
-17.3329
-36.0219
-51.4073
-80.4696
-107.901
47.04
47.5771
46.2934
45.1064
43.2827
41.1103
39.134
36.0888
33.3547
29.2522
25.134
19.688
13.1035
5.89077
-5.13179
-14.7631
-33.1706
-47.4233
-76.2813
-102.128
47.2649
47.802
46.5966
45.5087
43.824
41.7458
39.8938
36.9665
34.3592
30.3769
26.4352
21.1244
14.8197
7.79401
-2.83762
-12.0563
-29.9992
-43.3839
-71.8753
-96.2917
47.4964
48.0755
46.878
45.8552
44.3438
42.3726
40.6436
37.8416
35.3631
31.5116
27.746
22.5734
16.5421
9.69521
-0.531425
-9.41682
-26.8091
-39.2895
-67.2837
-89.8324
47.6922
48.2783
47.1653
46.2455
44.9057
43.0416
41.4386
38.7649
36.4108
32.6891
29.1032
24.07
18.3416
11.6692
1.8981
-6.6431
-23.4386
-35.15
-62.4617
-83.3028
47.8677
48.4372
47.4824
46.5777
45.4434
43.7021
42.2253
39.688
37.4583
33.8767
30.4656
25.5779
20.1431
13.643
4.33579
-3.9077
-20.0217
-30.839
-57.2103
-76.1109
48.0244
48.5891
47.8304
46.9456
46.0264
44.4106
43.058
40.6593
38.5486
35.1069
31.8729
27.1353
22.0176
15.6894
6.88535
-1.06551
-16.4569
-26.49
-51.8456
-68.8109
48.1585
48.7137
48.1552
47.2658
46.5877
45.1123
43.8851
41.6329
39.6395
36.3477
33.2823
28.7041
23.893
17.7397
9.44316
1.75364
-12.8277
-21.9572
-46.0793
-60.789
48.2773
48.8242
48.4511
47.6362
47.1954
45.8685
44.7588
42.6538
40.771
37.6289
34.7323
30.3221
25.8338
19.861
12.0969
4.65899
-9.04455
-17.3524
-40.2055
-52.3359
48.3845
48.9178
48.74
47.9753
47.7909
46.6198
45.6303
43.679
41.9041
38.9204
36.1822
31.9527
27.7762
21.9922
14.756
7.54654
-5.22714
-12.7658
-33.7868
-41.7571
48.4815
49.0128
49.0411
48.3567
48.4366
47.4333
46.5499
44.7506
43.0765
40.2509
37.6697
33.6339
29.7796
24.1967
17.497
10.5153
-1.26309
-7.95459
-27.397
-32.1278
48.5721
49.0921
49.3546
48.7085
49.0753
48.2429
47.4669
45.8255
44.2473
41.5867
39.1504
35.324
31.778
26.4029
20.2138
13.4445
2.82432
-2.0967
-20.5521
-21.2009
48.6509
49.1207
49.6248
49.0873
49.7639
49.1182
48.4283
46.9342
45.4464
42.9474
40.6539
37.0526
33.8192
28.6684
22.981
16.422
6.93552
2.83308
-13.2821
-9.75782
48.7112
49.1005
49.9575
49.4575
50.4944
50.0129
49.4175
48.0727
46.6805
44.3492
42.1997
38.8452
35.931
31.0401
25.8614
19.5573
11.3874
7.80142
-5.73989
2.66067
48.7863
49.2594
50.6557
49.8037
51.2557
50.9942
50.4434
49.2495
47.9342
45.7765
43.7563
40.6799
38.0625
33.3992
28.5831
22.4544
15.4017
12.3972
1.35006
14.6449
48.7798
48.9861
50.7027
50.0099
51.7976
51.8579
51.2764
50.2603
48.9642
46.9663
44.9996
42.213
39.8031
35.2721
30.5738
24.5129
18.6093
16.1958
9.76741
31.9974
49.6727
47.6817
50.8645
50.7746
52.9528
52.9231
52.5469
51.4915
50.4229
48.5098
46.7826
44.1916
42.2201
38.1623
34.4435
29.3393
25.2254
24.2519
22.9923
52.0593
68.7633
53.6009
63.7842
60.7777
63.9657
61.7746
63.6927
62.4439
63.7133
62.9328
64.3187
63.5404
65.5072
65.3008
69.833
71.7112
78.9591
82.4917
93.6526
85.9967
67.0314
64.3563
67.0888
65.6294
67.7535
67.3602
68.7392
68.9835
70.4369
71.3165
73.487
75.5127
79.3386
82.6673
88.8725
92.7868
103.354
109.442
127.482
135.51
78.4446
77.9511
78.3887
78.8041
79.7632
80.4025
81.5868
82.6489
84.231
85.7457
88.1886
90.4474
93.6947
96.7188
101.446
105.915
113.304
119.28
130.213
138.058
81.5975
81.6551
81.9877
82.6521
83.5925
84.7513
86.2283
87.9208
90.0999
92.5071
95.2911
98.1176
101.787
105.488
110.456
115.06
121.575
126.856
135.119
139.519
87.2757
87.4331
88.1511
89.4469
90.5035
91.8071
93.1851
94.695
96.4978
98.2596
100.445
102.718
105.435
108.28
111.576
115.016
118.902
122.801
127.052
132.535
90.2355
90.4751
90.9733
92.2654
93.3982
94.9455
96.5088
98.2879
100.227
102.226
104.571
106.815
109.564
112.133
115.206
118.087
121.239
124.438
127.297
129.767
93.4573
93.8772
94.5863
96.0085
97.364
98.701
100.262
101.682
103.35
104.897
106.671
108.403
110.294
112.196
114.153
116.18
118.12
120.172
121.821
124.063
95.2129
95.6503
96.6774
98.0885
99.5601
100.99
102.679
104.043
105.822
107.241
109.087
110.557
112.407
113.924
115.668
117.262
118.649
120.477
121.638
122.794
96.7
97.2981
98.7065
100.247
102.048
103.42
105.074
106.335
107.878
109.071
110.505
111.651
113.002
114.092
115.387
116.364
117.608
118.319
118.97
119.621
97.5681
98.1812
100.372
101.958
104.183
105.498
107.336
108.427
110.029
111.002
112.358
113.255
114.436
115.248
116.244
116.961
117.71
118.316
119.01
119.339
100.175
100.891
103.738
105.187
107.64
108.756
110.467
111.329
112.621
113.347
114.351
114.973
115.81
116.331
117.038
117.452
118.059
118.317
118.548
118.586
103.36
103.52
108.479
109.075
111.504
112.202
113.612
114.156
115.106
115.552
116.277
116.646
117.213
117.491
117.953
118.137
118.438
118.516
118.813
118.796
117.706
114.804
116.928
116.284
117.739
117.721
118.402
118.435
118.869
118.91
119.196
119.216
119.434
119.469
119.614
119.569
119.676
119.63
119.66
119.417
129.149
126.589
124.525
124.25
123.233
122.813
122.263
121.921
121.65
121.349
121.203
120.949
120.875
120.642
120.542
120.375
120.344
120.198
120.127
119.853
136.063
135.627
132.21
130.895
129.081
127.778
126.758
125.738
125.124
124.349
123.949
123.367
123.071
122.604
122.413
122.001
121.756
121.304
121.032
120.65
144.882
140.528
137.062
134.127
132.49
130.639
129.608
128.246
127.473
126.412
125.791
124.972
124.45
123.807
123.361
122.804
122.407
121.982
121.696
121.374
150.719
137.481
136.683
134.527
133.371
131.601
130.556
129.176
128.338
127.306
126.644
125.837
125.302
124.667
124.222
123.722
123.371
122.921
122.58
122.114
139.7
137.37
136.734
134.853
134.04
132.451
131.645
130.33
129.564
128.486
127.784
126.908
126.275
125.544
124.984
124.369
123.878
123.354
122.954
122.526
139.109
137.052
136.336
134.698
133.982
132.594
131.762
130.612
129.783
128.827
128.06
127.262
126.585
125.919
125.332
124.77
124.277
123.781
123.373