/*--------------------------------*- C++ -*----------------------------------*\
  =========                 |
  \\      /  F ield         | OpenFOAM: The Open Source CFD Toolbox
   \\    /   O peration     | Website:  https://openfoam.org
    \\  /    A nd           | Version:  9
     \\/     M anipulation  |
\*---------------------------------------------------------------------------*/
FoamFile
{
    format      ascii;
    class       surfaceScalarField;
    location    "5.4";
    object      phi;
}
// * * * * * * * * * * * * * * * * * * * * * * * * * * * * * * * * * * * * * //

dimensions      [0 3 -1 0 0 0 0];

internalField   nonuniform List<scalar> 
92080
(
-0.00703746
-0.482603
0.48964
-0.0362018
-0.925643
0.954807
-0.0797295
-0.983861
1.02739
-0.124046
-0.966063
1.01038
-0.167457
-0.950897
0.994308
-0.210025
-0.934999
0.977567
-0.252061
-0.919951
0.961986
-0.294284
-0.906623
0.948846
-0.336263
-0.894161
0.93614
-0.377244
-0.883119
0.9241
-0.417804
-0.872211
0.912771
-0.458016
-0.860826
0.901038
-0.498171
-0.851744
0.891898
-0.538165
-0.841929
0.881924
-0.577622
-0.834028
0.873485
-0.6152
-0.825772
0.86335
-0.651684
-0.816155
0.852639
-0.688119
-0.807148
0.843583
-0.72315
-0.798889
0.83392
-0.793127
0.825139
-0.755161
-0.00789371
-0.474709
-0.0418436
-0.891693
-0.0872219
-0.938482
-0.132623
-0.920661
-0.177265
-0.906255
-0.221329
-0.890935
-0.265243
-0.876036
-0.3085
-0.863367
-0.351638
-0.851023
-0.394662
-0.840095
-0.436239
-0.830633
-0.477464
-0.819602
-0.517807
-0.8114
-0.557523
-0.802214
-0.597221
-0.79433
-0.635704
-0.787288
-0.672575
-0.779284
-0.708452
-0.771271
-0.742675
-0.764667
-0.759568
-0.776234
-0.0058385
-0.468871
-0.044045
-0.853486
-0.0907579
-0.891769
-0.13804
-0.873379
-0.184532
-0.859763
-0.229726
-0.845741
-0.274488
-0.831274
-0.319262
-0.818593
-0.363103
-0.807183
-0.407041
-0.796156
-0.45013
-0.787544
-0.492937
-0.776795
-0.535437
-0.7689
-0.57687
-0.760781
-0.617988
-0.753212
-0.658354
-0.746922
-0.697579
-0.740059
-0.736039
-0.73281
-0.774065
-0.726641
-0.722093
-0.811539
-0.000861962
-0.468009
-0.0435982
-0.81075
-0.0929346
-0.842433
-0.14221
-0.824104
-0.190749
-0.811223
-0.237992
-0.798498
-0.28401
-0.785256
-0.329721
-0.772882
-0.374955
-0.761949
-0.420034
-0.751077
-0.464259
-0.743319
-0.507464
-0.73359
-0.551036
-0.725327
-0.593691
-0.718127
-0.636272
-0.710631
-0.678372
-0.704822
-0.718878
-0.699553
-0.758614
-0.693074
-0.798237
-0.687018
-0.682537
-0.837793
0.00114294
-0.469152
-0.0423877
-0.767219
-0.095518
-0.789303
-0.147017
-0.772605
-0.197759
-0.760481
-0.247287
-0.74897
-0.295425
-0.737118
-0.342736
-0.72557
-0.38901
-0.715675
-0.435484
-0.704604
-0.481304
-0.697498
-0.525993
-0.688901
-0.57036
-0.680961
-0.614292
-0.674195
-0.657219
-0.667703
-0.701067
-0.660974
-0.744372
-0.656249
-0.785714
-0.651732
-0.826643
-0.646088
-0.641504
-0.867676
0.00122772
-0.470379
-0.045656
-0.720336
-0.100242
-0.734717
-0.153676
-0.719172
-0.205755
-0.708401
-0.256351
-0.698375
-0.305713
-0.687756
-0.35431
-0.676974
-0.401175
-0.66881
-0.447895
-0.657883
-0.494876
-0.650517
-0.540417
-0.64336
-0.585695
-0.635683
-0.631191
-0.628699
-0.675945
-0.622949
-0.719623
-0.617295
-0.764658
-0.611214
-0.809173
-0.607217
-0.851873
-0.603388
-0.598809
-0.894569
-0.000886793
-0.469493
-0.0505051
-0.670717
-0.106905
-0.678317
-0.160259
-0.665818
-0.213206
-0.655454
-0.26477
-0.646811
-0.314392
-0.638133
-0.364139
-0.627227
-0.412439
-0.62051
-0.459425
-0.610897
-0.507163
-0.60278
-0.554129
-0.596393
-0.599776
-0.590037
-0.644563
-0.583912
-0.689984
-0.577528
-0.73455
-0.57273
-0.778294
-0.56747
-0.823438
-0.562073
-0.868457
-0.558369
-0.555122
-0.912144
-0.0107923
-0.4587
-0.0618858
-0.619624
-0.118155
-0.622048
-0.172023
-0.61195
-0.225531
-0.601946
-0.27842
-0.593922
-0.328913
-0.587639
-0.379001
-0.577139
-0.428436
-0.571075
-0.475594
-0.563738
-0.522936
-0.555438
-0.570648
-0.548682
-0.618358
-0.542326
-0.665165
-0.537105
-0.710591
-0.532102
-0.75638
-0.526941
-0.801093
-0.522757
-0.845057
-0.518109
-0.890258
-0.513167
-0.509398
-0.935983
-0.0179357
-0.440765
-0.0690433
-0.568516
-0.124048
-0.567044
-0.178583
-0.557415
-0.231815
-0.548714
-0.285459
-0.540278
-0.337015
-0.536083
-0.387491
-0.526664
-0.438742
-0.519825
-0.487764
-0.514716
-0.534892
-0.50831
-0.581454
-0.50212
-0.627679
-0.496102
-0.67469
-0.490093
-0.721579
-0.485213
-0.767707
-0.480813
-0.813781
-0.476683
-0.858734
-0.473156
-0.902184
-0.469717
-0.465211
-0.946371
-0.0251068
-0.415658
-0.0786807
-0.514942
-0.13432
-0.511404
-0.187595
-0.50414
-0.241505
-0.494805
-0.296234
-0.485549
-0.349467
-0.48285
-0.40055
-0.47558
-0.452656
-0.467719
-0.505376
-0.461996
-0.556483
-0.457203
-0.606518
-0.452085
-0.654719
-0.447901
-0.701641
-0.443172
-0.748502
-0.438352
-0.795394
-0.433921
-0.841886
-0.430191
-0.888651
-0.426391
-0.934314
-0.424054
-0.421306
-0.978218
-0.0304982
-0.38516
-0.0842479
-0.461193
-0.140186
-0.455465
-0.193963
-0.450364
-0.245512
-0.443255
-0.299034
-0.432028
-0.353103
-0.428781
-0.403179
-0.425504
-0.451407
-0.419491
-0.500495
-0.412907
-0.5501
-0.407598
-0.599931
-0.402254
-0.650002
-0.39783
-0.698882
-0.394291
-0.746473
-0.390762
-0.793406
-0.386987
-0.840039
-0.383559
-0.886397
-0.380033
-0.933636
-0.376815
-0.374508
-0.980434
-0.0371981
-0.347962
-0.0940391
-0.404352
-0.152463
-0.397042
-0.209943
-0.392883
-0.263021
-0.390178
-0.315588
-0.379461
-0.372297
-0.372072
-0.42858
-0.369222
-0.481319
-0.366751
-0.531449
-0.362777
-0.58055
-0.358498
-0.628833
-0.35397
-0.677627
-0.349036
-0.726919
-0.345
-0.776014
-0.341667
-0.824109
-0.338892
-0.871628
-0.33604
-0.917936
-0.333725
-0.963761
-0.33099
-0.328841
-1.00943
-0.0397577
-0.308204
-0.0985449
-0.345564
-0.15794
-0.337647
-0.217808
-0.333015
-0.274138
-0.333847
-0.322406
-0.331194
-0.371887
-0.32259
-0.42375
-0.317359
-0.476869
-0.313632
-0.528877
-0.31077
-0.579553
-0.307821
-0.62871
-0.304813
-0.676463
-0.301283
-0.724166
-0.297296
-0.772306
-0.293526
-0.820821
-0.290377
-0.869377
-0.287484
-0.917951
-0.285151
-0.965931
-0.28301
-0.281049
-1.01372
-0.0433249
-0.264879
-0.10077
-0.288119
-0.156421
-0.281996
-0.215655
-0.273781
-0.279886
-0.269616
-0.338961
-0.272119
-0.393037
-0.268514
-0.44492
-0.265476
-0.497231
-0.261321
-0.549623
-0.258377
-0.60172
-0.255725
-0.65314
-0.253393
-0.703026
-0.251398
-0.751466
-0.248856
-0.798683
-0.246309
-0.84569
-0.24337
-0.892208
-0.240967
-0.938924
-0.238434
-0.985428
-0.236506
-0.234538
-1.03194
-0.0471865
-0.217693
-0.105027
-0.230278
-0.160107
-0.226916
-0.209483
-0.224404
-0.263983
-0.215116
-0.322184
-0.213918
-0.378612
-0.212086
-0.434251
-0.209837
-0.487735
-0.207837
-0.541144
-0.204968
-0.593957
-0.202912
-0.647035
-0.200315
-0.699545
-0.198887
-0.751525
-0.196876
-0.802293
-0.195541
-0.851999
-0.193665
-0.900976
-0.19199
-0.949217
-0.190193
-0.997182
-0.188542
-0.186767
-1.04495
-0.0636672
-0.154025
-0.123209
-0.170736
-0.187431
-0.162694
-0.245995
-0.165841
-0.298811
-0.1623
-0.352821
-0.159908
-0.406555
-0.158353
-0.459919
-0.156472
-0.512337
-0.15542
-0.56428
-0.153024
-0.61559
-0.151603
-0.666668
-0.149237
-0.71743
-0.148125
-0.76787
-0.146437
-0.817653
-0.145757
-0.866894
-0.144424
-0.915147
-0.143737
-0.963054
-0.142285
-1.01021
-0.14139
-0.139775
-1.0572
-0.0657638
-0.0882616
-0.121691
-0.114808
-0.174564
-0.109822
-0.231296
-0.109109
-0.28661
-0.106985
-0.340513
-0.106006
-0.395574
-0.103292
-0.449477
-0.102569
-0.504124
-0.100773
-0.557532
-0.0996157
-0.610642
-0.0984932
-0.66258
-0.097299
-0.714147
-0.0965578
-0.765178
-0.0954055
-0.815811
-0.0951245
-0.866109
-0.0941257
-0.915778
-0.0940682
-0.964872
-0.0931915
-1.01327
-0.0929953
-0.0922487
-1.06079
-0.0574142
-0.0308474
-0.130416
-0.0418069
-0.193151
-0.0470857
-0.250161
-0.0520996
-0.306577
-0.0505684
-0.361306
-0.0512772
-0.41529
-0.0493081
-0.468759
-0.0490993
-0.52187
-0.0476625
-0.574353
-0.0471323
-0.625836
-0.0470104
-0.676514
-0.0466207
-0.726686
-0.0463858
-0.776123
-0.0459688
-0.825749
-0.0454984
-0.874451
-0.0454235
-0.923558
-0.0449621
-0.971597
-0.0451523
-1.01976
-0.0448273
-0.0452213
-1.06679
-0.0437668
0.0129194
-0.0951847
0.00961102
-0.153584
0.011314
-0.215009
0.00932474
-0.275166
0.00958879
-0.335008
0.00856522
-0.394089
0.00977249
-0.451009
0.00782094
-0.507564
0.00889205
-0.56252
0.00782409
-0.61788
0.00834905
-0.67137
0.00686971
-0.72521
0.00745374
-0.776984
0.00580585
-0.828445
0.00596259
-0.878406
0.00453692
-0.928194
0.00482616
-0.977325
0.00397898
-1.02621
0.00405593
0.00369122
-1.07512
-0.0482408
0.0611603
-0.106544
0.0679138
-0.16647
0.0712407
-0.227674
0.0705281
-0.288894
0.0708088
-0.348391
0.068063
-0.406269
0.06765
-0.463991
0.0655425
-0.520251
0.0651527
-0.574745
0.0623179
-0.627674
0.0612775
-0.679738
0.0589342
-0.730887
0.0586031
-0.781342
0.0562609
-0.831131
0.0557509
-0.881303
0.0547088
-0.930609
0.0541323
-0.979966
0.0533359
-1.02859
0.0526766
-1.07657
0.0516727
0.0387492
-0.191423
0.152674
0.125431
-0.658272
0.57159
0.205088
-1.13305
1.05339
0.240437
-1.34984
1.3145
0.250004
-1.38564
1.37607
0.253477
-1.3806
1.37713
0.252438
-1.36413
1.36517
0.252248
-1.34773
1.34792
0.252278
-1.33387
1.33384
0.251411
-1.32086
1.32173
0.251349
-1.30946
1.30953
0.250746
-1.29814
1.29874
0.249151
-1.28648
1.28807
0.247348
-1.27518
1.27698
0.245166
-1.26456
1.26674
0.242938
-1.25265
1.25487
0.239958
-1.24059
1.24357
0.235945
-1.22471
1.22872
0.231727
-1.2101
1.21432
-1.19457
0.228214
1.19808
0.0399009
-0.231324
0.117999
-0.73637
0.180601
-1.19565
0.203011
-1.37225
0.20847
-1.3911
0.209439
-1.38157
0.208736
-1.36343
0.20862
-1.34761
0.207396
-1.33264
0.206701
-1.32016
0.204718
-1.30748
0.201917
-1.29534
0.199256
-1.28382
0.196509
-1.27243
0.193322
-1.26137
0.189456
-1.24878
0.184569
-1.2357
0.179374
-1.21951
0.173945
-1.20467
-1.18936
0.168741
0.0345853
-0.265909
0.10131
-0.803095
0.154333
-1.24868
0.169648
-1.38757
0.172085
-1.39353
0.169935
-1.37942
0.16736
-1.36085
0.163992
-1.34425
0.161018
-1.32967
0.156902
-1.31605
0.153065
-1.30364
0.149742
-1.29202
0.145831
-1.2799
0.141518
-1.26812
0.136655
-1.25651
0.131474
-1.2436
0.125989
-1.23022
0.119967
-1.21349
0.113727
-1.19843
-1.18382
0.108182
0.0342214
-0.30013
0.0918263
-0.8607
0.131381
-1.28823
0.138939
-1.39513
0.138155
-1.39275
0.134269
-1.37553
0.130691
-1.35728
0.126988
-1.34054
0.122296
-1.32498
0.11794
-1.31169
0.113143
-1.29885
0.107245
-1.28612
0.101096
-1.27376
0.0949058
-1.26193
0.0884896
-1.25009
0.081901
-1.23701
0.0746304
-1.22295
0.0669636
-1.20582
0.0596765
-1.19115
-1.17647
0.0523343
0.0335093
-0.33364
0.0836813
-0.910872
0.110104
-1.31465
0.111371
-1.39639
0.106708
-1.38809
0.100118
-1.36894
0.0936549
-1.35081
0.0869761
-1.33386
0.0803796
-1.31838
0.0733166
-1.30463
0.0658696
-1.2914
0.0587247
-1.27897
0.0515703
-1.2666
0.0441438
-1.2545
0.0362869
-1.24224
0.0280839
-1.22881
0.0195478
-1.21441
0.011015
-1.19729
0.00209652
-1.18223
-1.16768
-0.00670183
0.0292724
-0.362912
0.0711552
-0.952755
0.089369
-1.33287
0.0863296
-1.39336
0.0787023
-1.38046
0.0709561
-1.3612
0.0628452
-1.3427
0.0541538
-1.32517
0.0451562
-1.30938
0.0359388
-1.29541
0.0268584
-1.28232
0.0174676
-1.26958
0.00773835
-1.25687
-0.00212446
-1.24464
-0.0120991
-1.23226
-0.0219609
-1.21895
-0.0320294
-1.20434
-0.0424256
-1.18689
-0.0526847
-1.17197
-1.15725
-0.0631129
0.0261879
-0.3891
0.0615762
-0.988143
0.0709976
-1.34229
0.0630461
-1.3854
0.0519181
-1.36933
0.0407739
-1.35005
0.0296718
-1.3316
0.019158
-1.31466
0.00823281
-1.29846
-0.00242779
-1.28475
-0.0134958
-1.27125
-0.0247997
-1.25828
-0.0359616
-1.24571
-0.0470579
-1.23354
-0.0583052
-1.22102
-0.0696976
-1.20755
-0.0812525
-1.19279
-0.0928091
-1.17534
-0.104451
-1.16033
-1.14517
-0.116525
0.0225842
-0.411684
0.0509143
-1.01647
0.0539053
-1.34528
0.0431942
-1.37469
0.0301106
-1.35625
0.0171495
-1.33709
0.00391672
-1.31837
-0.0101549
-1.30059
-0.0237332
-1.28488
-0.0378605
-1.27062
-0.0517869
-1.25733
-0.0652933
-1.24477
-0.0788585
-1.23214
-0.092639
-1.21976
-0.106319
-1.20734
-0.119784
-1.19409
-0.133174
-1.1794
-0.146591
-1.16192
-0.160438
-1.14648
-1.13165
-0.173966
0.019714
-0.431398
0.0409577
-1.03772
0.0365519
-1.34087
0.0210912
-1.35923
0.00451521
-1.33967
-0.0115978
-1.32098
-0.0273184
-1.30265
-0.0422896
-1.28562
-0.0580491
-1.26912
-0.0731588
-1.25551
-0.0883391
-1.24215
-0.103944
-1.22917
-0.119409
-1.21668
-0.134544
-1.20463
-0.149604
-1.19227
-0.164411
-1.17928
-0.179103
-1.16471
-0.193853
-1.14717
-0.208686
-1.13165
-1.11647
-0.223865
0.0169713
-0.44837
0.0332436
-1.05399
0.0248921
-1.33252
0.00757429
-1.34191
-0.0109934
-1.32111
-0.0297067
-1.30227
-0.0485567
-1.2838
-0.0676729
-1.2665
-0.08602
-1.25077
-0.104916
-1.23662
-0.123621
-1.22344
-0.141624
-1.21117
-0.159416
-1.19889
-0.177195
-1.18685
-0.194562
-1.17491
-0.211572
-1.16227
-0.227965
-1.14831
-0.244213
-1.13092
-0.260916
-1.11494
-1.09978
-0.2776
0.0140473
-0.462417
0.0232863
-1.06323
0.00811158
-1.31735
-0.0136933
-1.32011
-0.0354646
-1.29933
-0.0566412
-1.28109
-0.0772827
-1.26316
-0.0976741
-1.24611
-0.118518
-1.22993
-0.138716
-1.21642
-0.158792
-1.20336
-0.178997
-1.19096
-0.199047
-1.17884
-0.21891
-1.16699
-0.238464
-1.15535
-0.257505
-1.14323
-0.276137
-1.12968
-0.294501
-1.11256
-0.312983
-1.09646
-1.08151
-0.331259
0.0121217
-0.474538
0.0173102
-1.06842
-0.00045236
-1.29959
-0.0242755
-1.29629
-0.0487283
-1.27488
-0.0732766
-1.25654
-0.0976636
-1.23877
-0.121373
-1.2224
-0.144762
-1.20654
-0.168401
-1.19278
-0.191829
-1.17994
-0.214762
-1.16803
-0.237124
-1.15648
-0.25919
-1.14492
-0.280906
-1.13364
-0.302024
-1.12211
-0.322137
-1.10957
-0.341866
-1.09283
-0.361899
-1.07643
-1.06158
-0.381823
0.00899845
-0.483537
0.00844886
-1.06787
-0.0152239
-1.27591
-0.0421476
-1.26936
-0.068933
-1.2481
-0.0951987
-1.23028
-0.12103
-1.21294
-0.147215
-1.19622
-0.172961
-1.18079
-0.198497
-1.16724
-0.223861
-1.15457
-0.248985
-1.1429
-0.274018
-1.13144
-0.298752
-1.12019
-0.322908
-1.10948
-0.346562
-1.09846
-0.369178
-1.08695
-0.390899
-1.07111
-0.412609
-1.05472
-1.04016
-0.434033
0.0072867
-0.490824
0.00337523
-1.06396
-0.0234191
-1.24912
-0.0535275
-1.23925
-0.0836273
-1.218
-0.113833
-1.20007
-0.143315
-1.18345
-0.171575
-1.16796
-0.200203
-1.15217
-0.228456
-1.13899
-0.25662
-1.12641
-0.284593
-1.11493
-0.311919
-1.10412
-0.339129
-1.09298
-0.36614
-1.08247
-0.392481
-1.07212
-0.417539
-1.06189
-0.441162
-1.04749
-0.464398
-1.03148
-1.017
-0.487558
0.00480533
-0.495629
-0.0035663
-1.05558
-0.0338631
-1.21882
-0.0660215
-1.2071
-0.0976289
-1.18639
-0.12916
-1.16854
-0.160678
-1.15194
-0.192272
-1.13636
-0.222715
-1.12172
-0.253568
-1.10814
-0.284148
-1.09583
-0.314339
-1.08474
-0.34424
-1.07422
-0.373591
-1.06363
-0.402542
-1.05352
-0.431403
-1.04326
-0.459004
-1.03429
-0.484978
-1.02151
-0.510317
-1.00614
-0.991854
-0.535461
0.00215321
-0.497782
-0.0114226
-1.04201
-0.0448556
-1.18539
-0.0804752
-1.17148
-0.115222
-1.15164
-0.149771
-1.13399
-0.183397
-1.11831
-0.21641
-1.10335
-0.249794
-1.08834
-0.282255
-1.07567
-0.315
-1.06308
-0.347906
-1.05183
-0.380481
-1.04164
-0.412929
-1.03118
-0.444884
-1.02156
-0.476656
-1.01149
-0.507592
-1.00336
-0.536093
-0.993011
-0.562899
-0.979339
-0.965199
-0.589554
0.00072742
-0.49851
-0.0161821
-1.0251
-0.0510648
-1.15051
-0.0875076
-1.13503
-0.123705
-1.11544
-0.160266
-1.09743
-0.197046
-1.08153
-0.232897
-1.0675
-0.268024
-1.05321
-0.303579
-1.04012
-0.338607
-1.02806
-0.373431
-1.01701
-0.408043
-1.00703
-0.442558
-0.996664
-0.476764
-0.987357
-0.51086
-0.977389
-0.544604
-0.969613
-0.576577
-0.961037
-0.606356
-0.94956
-0.935951
-0.635605
-0.0017431
-0.496767
-0.0224634
-1.00438
-0.0621324
-1.11084
-0.102313
-1.09485
-0.140918
-1.07684
-0.178922
-1.05943
-0.216662
-1.04379
-0.254602
-1.02956
-0.291775
-1.01604
-0.328319
-1.00358
-0.365011
-0.991364
-0.40177
-0.980249
-0.438145
-0.970655
-0.474472
-0.960337
-0.510833
-0.950996
-0.547697
-0.940525
-0.584988
-0.932322
-0.620993
-0.925032
-0.654557
-0.915996
-0.903957
-0.68655
-0.00297022
-0.493796
-0.0262447
-0.981104
-0.0655723
-1.07151
-0.10628
-1.05415
-0.146723
-1.0364
-0.187158
-1.01899
-0.227329
-1.00362
-0.266748
-0.990139
-0.306457
-0.976332
-0.345692
-0.964341
-0.384782
-0.952273
-0.423994
-0.941037
-0.462921
-0.931729
-0.501616
-0.921642
-0.539814
-0.912798
-0.578254
-0.902085
-0.618058
-0.892518
-0.658175
-0.884916
-0.697303
-0.876868
-0.867877
-0.733383
-0.00415589
-0.0304529
-0.0745737
-0.11834
-0.160427
-0.201853
-0.243484
-0.284777
-0.324969
-0.36521
-0.404712
-0.444712
-0.484543
-0.524261
-0.563574
-0.60231
-0.642189
-0.683521
-0.726469
-0.769207
0.17292
-10.3359
10.3912
0.140764
-9.7155
9.74766
0.119454
-9.60616
9.62747
0.104705
-9.22919
9.24394
0.0957204
-9.17046
9.17945
0.0897878
-8.95481
8.96074
0.0872205
-8.89611
8.89868
0.0872395
-8.76496
8.76494
0.0890891
-8.75157
8.74972
0.0857114
-8.68585
8.68922
0.0779173
-8.61193
8.61972
0.0670294
-8.51236
8.52325
0.057841
-8.49027
8.49946
0.0561989
-8.48164
8.48328
0.0542345
-8.56141
8.56338
0.0461123
-8.43885
8.44697
0.0430238
-8.4462
8.44929
0.0242836
-7.51069
7.52943
0.0127098
-5.45819
5.46977
-2.24316
2.25587
0.109211
-10.2764
0.0749552
-9.68124
0.0521727
-9.58337
0.0391822
-9.2162
0.0322357
-9.16352
0.0282305
-8.9508
0.0284359
-8.89632
0.0319638
-8.76848
0.0365169
-8.75613
0.0364915
-8.68582
0.0340443
-8.60948
0.0284118
-8.50673
0.0236766
-8.48554
0.0274111
-8.48538
0.0307448
-8.56474
0.0278801
-8.43598
0.0294893
-8.44781
0.0166054
-7.49781
0.0103813
-5.45197
-2.23277
0.0432861
-10.2115
0.00834405
-9.6463
-0.0146509
-9.56038
-0.0281411
-9.20271
-0.0342712
-9.15739
-0.0344385
-8.95064
-0.0304332
-8.90032
-0.0235309
-8.77539
-0.0160646
-8.76359
-0.0119989
-8.68989
-0.00896071
-8.61252
-0.00885452
-8.50683
-0.00924646
-8.48514
-0.00106958
-8.49355
0.00745895
-8.57327
0.00961774
-8.43814
0.0152803
-8.45347
0.00902706
-7.49156
0.00960813
-5.45255
-2.22317
-0.0210703
-10.1381
-0.0588607
-9.60851
-0.0817649
-9.53747
-0.0936821
-9.19079
-0.0979693
-9.1531
-0.0957931
-8.95281
-0.0884349
-8.90768
-0.078597
-8.78522
-0.0688485
-8.77334
-0.0611902
-8.69755
-0.0527119
-8.621
-0.0470763
-8.51247
-0.0426978
-8.48952
-0.0296794
-8.50657
-0.0161389
-8.58681
-0.00865885
-8.44562
0.00130254
-8.46344
0.00139476
-7.49165
0.00722084
-5.45838
-2.21595
-0.0831592
-10.0616
-0.125018
-9.56665
-0.148662
-9.51383
-0.1613
-9.17815
-0.1635
-9.1509
-0.157949
-8.95836
-0.147476
-8.91815
-0.134371
-8.79833
-0.121593
-8.78612
-0.10946
-8.70968
-0.0951553
-8.6353
-0.0839639
-8.52366
-0.0747437
-8.49874
-0.0579282
-8.52339
-0.0396062
-8.60514
-0.026834
-8.45839
-0.0135478
-8.47672
-0.00703009
-7.49817
0.00568757
-5.4711
-2.21026
-0.145403
-9.97934
-0.190282
-9.52177
-0.214271
-9.48984
-0.226436
-9.16599
-0.2267
-9.15064
-0.21854
-8.96652
-0.204611
-8.93208
-0.188727
-8.81421
-0.174075
-8.80077
-0.158282
-8.72547
-0.138256
-8.65533
-0.121992
-8.53992
-0.107467
-8.51327
-0.0859886
-8.54487
-0.0631017
-8.62802
-0.0448547
-8.47664
-0.0274549
-8.49412
-0.0148591
-7.51076
0.00248033
-5.48843
-2.20778
-0.206626
-9.88924
-0.256098
-9.4723
-0.280153
-9.46579
-0.292221
-9.15392
-0.290297
-9.15256
-0.279593
-8.97723
-0.263065
-8.94861
-0.243754
-8.83352
-0.225575
-8.81895
-0.205457
-8.74559
-0.180066
-8.68072
-0.158455
-8.56153
-0.138775
-8.53295
-0.113802
-8.56984
-0.0866032
-8.65522
-0.062891
-8.50035
-0.040838
-8.51618
-0.0219981
-7.5296
0.000846615
-5.51128
-2.20693
-0.26661
-9.7966
-0.319732
-9.41918
-0.346077
-9.43944
-0.357726
-9.14227
-0.35251
-9.15778
-0.338636
-8.9911
-0.318979
-8.96827
-0.29709
-8.85541
-0.276794
-8.83924
-0.253221
-8.76916
-0.222687
-8.71125
-0.196034
-8.58819
-0.17068
-8.5583
-0.141418
-8.5991
-0.110286
-8.68635
-0.0813005
-8.52934
-0.0543709
-8.5431
-0.0289948
-7.55498
-0.00164834
-5.53863
-2.20858
-0.326074
-9.69439
-0.382753
-9.3625
-0.409435
-9.41276
-0.420268
-9.13144
-0.413894
-9.16415
-0.398334
-9.00666
-0.376289
-8.99031
-0.351063
-8.88064
-0.326755
-8.86355
-0.299298
-8.79662
-0.264253
-8.7463
-0.231979
-8.62046
-0.201117
-8.58916
-0.168699
-8.63152
-0.133859
-8.72119
-0.09998
-8.56322
-0.0673937
-8.57569
-0.0351418
-7.58723
-0.00346679
-5.5703
-2.21205
-0.38423
-9.58776
-0.444994
-9.30174
-0.474383
-9.38337
-0.483754
-9.12207
-0.473967
-9.17394
-0.45542
-9.02521
-0.430688
-9.01505
-0.403114
-8.90821
-0.375985
-8.89068
-0.345676
-8.82693
-0.306773
-8.7852
-0.268936
-8.6583
-0.232055
-8.62604
-0.195668
-8.66791
-0.15718
-8.75968
-0.118582
-8.60181
-0.0809459
-8.61333
-0.0416702
-7.62651
-0.00526411
-5.60671
-2.21731
-0.441778
-9.47724
-0.505269
-9.23825
-0.53589
-9.35275
-0.543965
-9.11399
-0.533233
-9.18467
-0.512648
-9.04579
-0.486064
-9.04163
-0.455225
-8.93905
-0.423757
-8.92215
-0.390138
-8.86055
-0.34789
-8.82745
-0.304286
-8.7019
-0.261755
-8.66858
-0.222266
-8.70739
-0.180154
-8.80179
-0.136854
-8.64511
-0.0943585
-8.65582
-0.0482132
-7.67265
-0.00695181
-5.64797
-2.22426
-0.498805
-9.36026
-0.565071
-9.17198
-0.59715
-9.32067
-0.603612
-9.10753
-0.590479
-9.1978
-0.567694
-9.06858
-0.538496
-9.07083
-0.505123
-8.97243
-0.470376
-8.95689
-0.433998
-8.89693
-0.389167
-8.87228
-0.34078
-8.75029
-0.292283
-8.71707
-0.248709
-8.75097
-0.202867
-8.84763
-0.154838
-8.69314
-0.107646
-8.70302
-0.0551069
-7.72519
-0.00917583
-5.6939
-2.23344
-0.554765
-9.23952
-0.623451
-9.10329
-0.656719
-9.2874
-0.661911
-9.10234
-0.647385
-9.21233
-0.622331
-9.09363
-0.59136
-9.1018
-0.554689
-9.0091
-0.515216
-8.99637
-0.475122
-8.93702
-0.427847
-8.91955
-0.375544
-8.80259
-0.321862
-8.77076
-0.274973
-8.79786
-0.225351
-8.89726
-0.172572
-8.74592
-0.120507
-8.75508
-0.0617706
-7.78393
-0.0109038
-5.74477
-2.24434
-0.61124
-9.11584
-0.680643
-9.03389
-0.714464
-9.25358
-0.718294
-9.09851
-0.701625
-9.229
-0.674515
-9.12074
-0.641319
-9.13499
-0.602535
-9.04788
-0.560016
-9.03889
-0.516426
-8.98061
-0.466449
-8.96953
-0.410621
-8.85842
-0.35198
-8.8294
-0.300923
-8.84891
-0.247442
-8.95074
-0.190092
-8.80327
-0.133202
-8.81197
-0.068482
-7.84865
-0.0127014
-5.80055
-2.25704
-0.665884
-8.98542
-0.736945
-8.96283
-0.77119
-9.21934
-0.774146
-9.09555
-0.756122
-9.24702
-0.726558
-9.15031
-0.691275
-9.17028
-0.649329
-9.08983
-0.60251
-9.08571
-0.555348
-9.02777
-0.502676
-9.0222
-0.443553
-8.91754
-0.381166
-8.89178
-0.326571
-8.90351
-0.269181
-9.00813
-0.207435
-8.86502
-0.145758
-8.87365
-0.0747377
-7.91967
-0.0140101
-5.86127
-2.27105
-0.720772
-8.8542
-0.791661
-8.89194
-0.825699
-9.1853
-0.827707
-9.09355
-0.807691
-9.26704
-0.776042
-9.18195
-0.738693
-9.20763
-0.694914
-9.13361
-0.645534
-9.13508
-0.594417
-9.07889
-0.538735
-9.07788
-0.476765
-8.97951
-0.410265
-8.95828
-0.352053
-8.96172
-0.291221
-9.06896
-0.224658
-8.93158
-0.157628
-8.94068
-0.0807718
-7.99652
-0.0151338
-5.92691
-2.28619
-0.773892
-8.71591
-0.844559
-8.82128
-0.878146
-9.15171
-0.880222
-9.09147
-0.859543
-9.28772
-0.825202
-9.21629
-0.785131
-9.2477
-0.738178
-9.18056
-0.685363
-9.1879
-0.631438
-9.13282
-0.572818
-9.1365
-0.507439
-9.04489
-0.437738
-9.02798
-0.376196
-9.02326
-0.312381
-9.13278
-0.241741
-9.00222
-0.169554
-9.01286
-0.0867113
-8.07937
-0.0160789
-5.99755
-2.30227
-0.830069
-8.5724
-0.898499
-8.75285
-0.929005
-9.1212
-0.930207
-9.09027
-0.908438
-9.30949
-0.872247
-9.25249
-0.830048
-9.2899
-0.781179
-9.22943
-0.726078
-9.243
-0.667981
-9.19091
-0.606055
-9.19843
-0.538418
-9.11253
-0.465135
-9.10127
-0.40004
-9.08836
-0.33338
-9.19944
-0.258674
-9.07692
-0.181288
-9.09025
-0.0924022
-8.16825
-0.0160154
-6.07393
-2.31828
-0.876356
-8.42942
-0.950271
-8.67893
-0.980847
-9.09063
-0.981484
-9.08963
-0.958961
-9.33201
-0.919764
-9.29168
-0.873919
-9.33574
-0.821673
-9.28167
-0.76344
-9.30123
-0.702913
-9.25144
-0.638187
-9.26315
-0.567495
-9.18322
-0.490955
-9.17781
-0.422272
-9.15704
-0.353273
-9.26843
-0.275667
-9.15453
-0.192242
-9.17368
-0.0987276
-8.26177
-0.0175458
-6.15511
-2.33583
-0.91897
-8.27966
-0.993346
-8.60455
-1.0216
-9.06237
-1.02192
-9.08931
-1.00204
-9.3519
-0.962501
-9.33122
-0.915361
-9.38288
-0.860934
-9.3361
-0.800788
-9.36138
-0.73668
-9.31555
-0.669335
-9.3305
-0.595859
-9.2567
-0.517111
-9.25656
-0.444023
-9.23013
-0.373036
-9.33942
-0.292242
-9.23532
-0.203585
-9.26233
-0.105342
-8.36001
-0.0170891
-6.24337
-2.35292
6.64321
-7.68795
-7.23492
5.90193
-7.86327
5.12125
-8.2817
4.46436
-8.43241
3.82665
-8.71418
3.26895
-8.77352
2.78072
-8.89465
2.36186
-8.91725
1.99103
-8.99054
1.67013
-8.99464
1.37812
-9.03849
1.16981
-9.04839
0.996365
-9.08311
0.857819
-9.09158
0.664667
-9.14627
0.554919
-9.12558
0.413302
-9.12072
0.319084
-8.26579
0.173211
-6.09749
-2.17971
3.64286
-7.49764
-3.83317
3.44317
-7.66358
3.14937
-7.9879
2.86763
-8.15068
2.5305
-8.37705
2.23953
-8.48255
1.95058
-8.6057
1.70154
-8.66821
1.46111
-8.75011
1.26384
-8.79738
1.08342
-8.85806
0.933113
-8.89809
0.79892
-8.94892
0.683397
-8.97606
0.555647
-9.01852
0.467423
-9.03735
0.341911
-8.9952
0.24166
-8.16554
-0.0504386
-5.8054
-2.23014
2.33278
-7.53316
-2.29726
2.38604
-7.71684
2.31713
-7.919
2.22193
-8.05548
2.05179
-8.20691
1.89016
-8.32092
1.71254
-8.42808
1.55085
-8.50653
1.38377
-8.58303
1.23346
-8.64708
1.08349
-8.70809
0.945546
-8.76014
0.804421
-8.80779
0.67806
-8.8497
0.555445
-8.8959
0.452914
-8.93482
0.368689
-8.91098
0.24161
-8.03846
0.0461196
-5.60991
-2.18402
1.3507
-7.67229
-1.21156
1.42601
-7.79215
1.41424
-7.90723
1.39502
-8.03626
1.33186
-8.14375
1.24817
-8.23723
1.15194
-8.33185
1.04983
-8.40442
0.945042
-8.47824
0.844106
-8.54614
0.743375
-8.60736
0.648434
-8.6652
0.560947
-8.72031
0.489922
-8.77867
0.42241
-8.82839
0.366538
-8.87895
0.276611
-8.82105
0.195597
-7.95745
0.103183
-5.51749
-2.08084
0.72794
-7.79166
-0.608573
0.813013
-7.87722
0.874161
-7.96838
0.906207
-8.06831
0.904405
-8.14195
0.876882
-8.2097
0.829059
-8.28403
0.777245
-8.3526
0.712886
-8.41388
0.645088
-8.47834
0.57382
-8.53609
0.508151
-8.59953
0.444144
-8.6563
0.38089
-8.71542
0.324465
-8.77197
0.267183
-8.82167
0.192321
-8.74619
0.149821
-7.91494
0.0901946
-5.45787
-1.99065
0.339079
-7.90234
-0.228401
0.429646
-7.96779
0.481085
-8.01981
0.487386
-8.07461
0.477298
-8.13186
0.464702
-8.19711
0.436415
-8.25574
0.405803
-8.32199
0.372278
-8.38035
0.332429
-8.43849
0.293311
-8.49698
0.247411
-8.55363
0.199535
-8.60842
0.153796
-8.66968
0.113832
-8.732
0.07787
-8.78571
0.0456933
-8.71401
0.0668948
-7.93615
0.0710111
-5.46198
-1.91964
0.0602755
-7.9761
0.0134842
0.110876
-8.01839
0.146143
-8.05508
0.177131
-8.1056
0.201805
-8.15653
0.210888
-8.20619
0.207635
-8.25249
0.188631
-8.30299
0.159823
-8.35155
0.12503
-8.4037
0.0830396
-8.45498
0.0360516
-8.50664
-0.00736921
-8.565
-0.0528665
-8.62418
-0.0953952
-8.68947
-0.135656
-8.74545
-0.154445
-8.69522
-0.0819395
-8.00865
0.0259322
-5.56985
-1.8937
-0.11748
-8.03726
0.17864
-0.0678691
-8.068
-0.0292888
-8.09366
-0.00904567
-8.12584
-0.00593015
-8.15965
-0.0179288
-8.19419
-0.0351306
-8.23529
-0.0568143
-8.2813
-0.0797784
-8.32858
-0.111341
-8.37214
-0.145142
-8.42118
-0.179483
-8.4723
-0.216713
-8.52777
-0.261493
-8.5794
-0.312547
-8.63842
-0.361581
-8.69641
-0.389501
-8.6673
-0.287752
-8.1104
-0.0416412
-5.81596
-1.93534
-0.238808
-8.06908
0.270631
-0.217285
-8.08953
-0.203358
-8.10759
-0.196736
-8.13246
-0.193581
-8.1628
-0.191451
-8.19632
-0.196033
-8.2307
-0.214465
-8.26287
-0.24038
-8.30267
-0.274027
-8.33849
-0.310237
-8.38497
-0.359694
-8.42285
-0.417172
-8.47029
-0.481853
-8.51472
-0.554372
-8.5659
-0.630827
-8.61996
-0.68069
-8.61744
-0.5884
-8.20269
-0.200599
-6.20377
-2.13594
-0.324353
-8.09027
0.345538
-0.310136
-8.10374
-0.29822
-8.1195
-0.291148
-8.13953
-0.291272
-8.16268
-0.300724
-8.18687
-0.316724
-8.2147
-0.343853
-8.23574
-0.378767
-8.26775
-0.419609
-8.29765
-0.467939
-8.33664
-0.522824
-8.36796
-0.583185
-8.40993
-0.655155
-8.44275
-0.73542
-8.48564
-0.829892
-8.52549
-0.904929
-8.5424
-0.845171
-8.26245
-0.377416
-6.67152
-2.51336
-0.365445
-8.09636
0.371538
-0.363735
-8.10545
-0.36448
-8.11876
-0.370513
-8.1335
-0.381599
-8.15159
-0.399673
-8.1688
-0.424397
-8.18998
-0.449077
-8.21106
-0.478152
-8.23868
-0.514653
-8.26115
-0.56128
-8.29002
-0.613644
-8.3156
-0.677183
-8.34639
-0.747836
-8.3721
-0.825802
-8.40767
-0.919764
-8.43152
-1.00357
-8.4586
-0.966617
-8.2994
-0.554846
-7.08329
-3.06821
-0.384378
-8.09629
0.384312
-0.388087
-8.10174
-0.394382
-8.11247
-0.404708
-8.12317
-0.418603
-8.1377
-0.438124
-8.14928
-0.463112
-8.16499
-0.495449
-8.17872
-0.537436
-8.19669
-0.58244
-8.21615
-0.636717
-8.23574
-0.695907
-8.25641
-0.765807
-8.27649
-0.839128
-8.29878
-0.925799
-8.321
-1.0145
-8.34283
-1.11241
-8.36068
-1.12081
-8.29101
-0.807892
-7.39621
-3.8761
-0.375635
-8.08807
0.367417
-0.385662
-8.09172
-0.398018
-8.10011
-0.414267
-8.10693
-0.43391
-8.11806
-0.457304
-8.12588
-0.485846
-8.13645
-0.517113
-8.14746
-0.554124
-8.15968
-0.597729
-8.17254
-0.648259
-8.18521
-0.706711
-8.19795
-0.77523
-8.20798
-0.853938
-8.22007
-0.949346
-8.22559
-1.04874
-8.24344
-1.16819
-8.24123
-1.24127
-8.21792
-1.01026
-7.62722
-4.88636
-0.328951
-8.07587
0.316744
-0.341338
-8.07933
-0.35575
-8.0857
-0.372991
-8.08969
-0.393661
-8.09738
-0.415656
-8.10389
-0.439643
-8.11246
-0.46961
-8.11749
-0.502971
-8.12632
-0.545084
-8.13043
-0.592072
-8.13822
-0.647148
-8.14288
-0.708594
-8.14653
-0.780578
-8.14808
-0.857908
-8.14826
-0.956604
-8.14474
-1.06577
-8.13207
-1.1502
-8.13349
-0.980377
-7.79704
-5.86674
-0.259127
-8.0636
0.246862
-0.272829
-8.06563
-0.28869
-8.06984
-0.306018
-8.07236
-0.327292
-8.07611
-0.35173
-8.07945
-0.379434
-8.08476
-0.409111
-8.08781
-0.442201
-8.09323
-0.477096
-8.09553
-0.516285
-8.09903
-0.56108
-8.09808
-0.608747
-8.09886
-0.670812
-8.08602
-0.733529
-8.08554
-0.815744
-8.06253
-0.89771
-8.05011
-0.986804
-8.04439
-0.865946
-7.9179
-6.73268
-0.186353
-8.04921
0.171965
-0.201105
-8.05088
-0.21744
-8.0535
-0.233482
-8.05632
-0.250079
-8.05951
-0.269395
-8.06013
-0.291426
-8.06273
-0.315775
-8.06346
-0.343332
-8.06567
-0.37498
-8.06388
-0.408027
-8.06598
-0.445913
-8.0602
-0.483196
-8.06158
-0.524038
-8.04518
-0.56682
-8.04276
-0.614693
-8.01465
-0.659219
-8.00558
-0.729352
-7.97426
-0.67409
-7.97316
-7.40677
-0.111874
-8.03731
0.0999704
-0.124375
-8.03837
-0.138475
-8.0394
-0.154913
-8.03988
-0.172853
-8.04157
-0.190631
-8.04236
-0.208711
-8.04465
-0.228199
-8.04397
-0.247438
-8.04643