/*--------------------------------*- C++ -*----------------------------------*\
  =========                 |
  \\      /  F ield         | OpenFOAM: The Open Source CFD Toolbox
   \\    /   O peration     | Website:  https://openfoam.org
    \\  /    A nd           | Version:  9
     \\/     M anipulation  |
\*---------------------------------------------------------------------------*/
FoamFile
{
    format      ascii;
    class       volScalarField;
    location    "1.1";
    object      nut;
}
// * * * * * * * * * * * * * * * * * * * * * * * * * * * * * * * * * * * * * //

dimensions      [0 2 -1 0 0 0 0];

internalField   nonuniform List<scalar> 
46400
(
0.0183788
0.0066468
0.00194393
0.0012863
0.00130992
0.00128771
0.00124073
0.00120969
0.00112955
0.00111567
0.00107973
0.00103751
0.00100433
0.000976073
0.000946155
0.000952314
0.000916667
0.000856338
0.00120675
0.000984477
0.0180985
0.00584537
0.00166543
0.00139927
0.00135676
0.00132756
0.00124918
0.00122266
0.00115684
0.00113449
0.0010889
0.00105197
0.00100395
0.000973093
0.000938222
0.000905119
0.000836206
0.000755892
0.00100724
0.00091378
0.0177003
0.00462087
0.00121707
0.00141073
0.00131176
0.00132845
0.00126975
0.00124209
0.00116629
0.00114206
0.0011106
0.0010724
0.00103674
0.00100025
0.000969369
0.000957297
0.000897806
0.000840374
0.00113773
0.000969494
0.0172774
0.00414672
0.00124553
0.00148368
0.00136953
0.00135305
0.00127894
0.00125833
0.0011907
0.00115383
0.00111052
0.001074
0.0010305
0.000995492
0.000964967
0.000938112
0.000884107
0.000822519
0.00112927
0.00100687
0.0167407
0.00414473
0.00128551
0.00148113
0.0013508
0.00135942
0.00129818
0.00127271
0.00121157
0.00117287
0.00114161
0.00110601
0.00107493
0.00103587
0.0010033
0.00098542
0.000928604
0.000875601
0.0011743
0.00103562
0.0161235
0.0047979
0.00137651
0.00154832
0.00141569
0.0013882
0.00131371
0.00128627
0.00122926
0.00118585
0.00113806
0.00109993
0.00106545
0.00103895
0.00101883
0.000993294
0.000951251
0.000876216
0.00117551
0.00108057
0.0155451
0.00465484
0.00144146
0.00155129
0.00141433
0.0013964
0.00132809
0.00128786
0.00123908
0.00119694
0.001169
0.00112235
0.00108664
0.00103812
0.00101704
0.00100399
0.000960545
0.000891508
0.0011559
0.00108054
0.0144771
0.00402991
0.00145097
0.0015781
0.00144465
0.00140121
0.00134149
0.00129332
0.00124374
0.00119447
0.00115722
0.00112726
0.00110104
0.00106206
0.00102468
0.00100838
0.000965138
0.000906736
0.00113149
0.0010615
0.0131097
0.00316155
0.00147443
0.00153967
0.00144816
0.00139072
0.00133806
0.00128649
0.00124434
0.00119155
0.00115681
0.00109916
0.001073
0.00104118
0.00101053
0.000988994
0.000957115
0.000899642
0.00110215
0.00104522
0.0105595
0.00258286
0.00152145
0.00150409
0.0014548
0.00138856
0.00134796
0.0012852
0.00125157
0.00120872
0.00118945
0.00115125
0.00109556
0.00105882
0.00102354
0.000987285
0.000948134
0.000897647
0.00105417
0.00102308
0.00846338
0.00215052
0.00150544
0.00146349
0.00142628
0.00136883
0.00133574
0.00128171
0.0012239
0.00116575
0.00114178
0.00111776
0.00110364
0.00105555
0.00103074
0.000997504
0.000949262
0.00090558
0.00102922
0.000989714
0.0069426
0.00188738
0.00154037
0.00147009
0.00143314
0.00137024
0.00133921
0.00129502
0.0012854
0.00121171
0.00117193
0.00113217
0.00110577
0.00108994
0.00104932
0.00102497
0.000972281
0.000916982
0.00101272
0.000967902
0.0057086
0.00169813
0.00151849
0.00146481
0.00142957
0.00135884
0.00132985
0.00123817
0.00120355
0.00117111
0.00111474
0.00109488
0.00106501
0.0010451
0.0010504
0.00102584
0.00101371
0.000965515
0.00105023
0.000991306
0.0049015
0.00162315
0.00154148
0.00147134
0.00145503
0.00138525
0.00140561
0.00137563
0.00130642
0.00125273
0.00118991
0.00110606
0.00107514
0.00101063
0.000991134
0.000971699
0.000949675
0.000930231
0.00100869
0.000973335
0.00429152
0.0016041
0.00154721
0.0014582
0.00141015
0.00128125
0.00123567
0.00123732
0.00125468
0.00122802
0.00123849
0.00118984
0.00114894
0.0011095
0.00105406
0.00102503
0.000977439
0.000936174
0.00100788
0.00095165
0.00421023
0.00163842
0.00153671
0.00151376
0.00160667
0.00147237
0.00136766
0.00124363
0.00120389
0.00115333
0.00112028
0.00111581
0.00107983
0.00106502
0.00103389
0.00101092
0.000975176
0.000927488
0.000979241
0.000924573
0.00372407
0.00163872
0.00145196
0.0012436
0.00132614
0.00139075
0.00139539
0.00136355
0.00129435
0.00126228
0.00119643
0.00115882
0.00111934
0.00107968
0.0010485
0.00101699
0.000983365
0.000928462
0.000982767
0.000914789
0.00393322
0.00171675
0.00173788
0.00151739
0.00130467
0.00128189
0.00124899
0.00124662
0.00122767
0.00119102
0.00117933
0.00112872
0.00111403
0.00106862
0.00104859
0.00101294
0.000986112
0.000928661
0.000970609
0.000909257
0.00278748
0.00145113
0.00153278
0.00155748
0.00151037
0.00137575
0.00133858
0.00125413
0.00124389
0.00118194
0.00116787
0.00112277
0.00110062
0.00106413
0.00104011
0.00101181
0.000984666
0.000930858
0.000969781
0.000914643
0.000590109
0.000359553
0.00130838
0.00126734
0.00144237
0.00133337
0.00136123
0.00127116
0.00125961
0.00119539
0.00117602
0.001125
0.00110609
0.00106075
0.00104065
0.00100431
0.000979563
0.000918223
0.000963739
0.000888504
0.000139898
0.00133209
0.00552935
0.0100904
0.0103269
0.006453
0.00277024
0.000751337
5.86839e-05
0.000129747
0.000231921
0.000328218
0.000260179
0.00020473
0.000241791
0.000273577
0.00022272
0.00021387
0.000243174
0.0003209
0.000112523
0.00344712
0.00842495
0.0112022
0.00824857
0.00394203
0.00112136
7.30578e-05
0.000107306
0.000254676
0.000328451
0.000283456
0.000225874
0.000268086
0.000263946
0.000234062
0.00023119
0.00031323
0.000303533
0.000308446
0.000578622
0.00577732
0.0104432
0.0103708
0.00583989
0.00197118
0.000259089
5.97064e-05
0.000257011
0.000330682
0.000291279
0.000278553
0.000282055
0.000275423
0.000254005
0.000281895
0.000317809
0.000315457
0.000261304
0.000332842
0.00153246
0.00856706
0.0114971
0.0086196
0.00366782
0.000709665
0.000138313
0.000263704
0.000335129
0.000318517
0.000318148
0.000323133
0.000269585
0.000298914
0.00029309
0.000320547
0.000298019
0.000296946
0.000319867
0.000375638
0.00283093
0.00958097
0.0115138
0.00672054
0.00172734
0.000151338
0.000220838
0.000349501
0.000374415
0.000360133
0.000357924
0.000314599
0.000324013
0.000343639
0.000316593
0.000346762
0.000338317
0.00037078
0.00035975
0.000388023
0.00407164
0.0111308
0.0106257
0.00467164
0.000542921
0.000199707
0.0003743
0.000418296
0.00041252
0.000396663
0.000374313
0.000380344
0.000352743
0.000361949
0.000353534
0.000393067
0.00034815
0.000368273
0.000391481
0.000426216
0.00661443
0.0118511
0.00944334
0.00251903
0.000219976
0.000321974
0.000505314
0.000514017
0.000438265
0.000459311
0.000450845
0.000395588
0.000400233
0.000422616
0.000400726
0.000425547
0.000379387
0.000456654
0.000455894
0.000441964
0.00907265
0.0122421
0.00829048
0.00101817
0.000306285
0.00052971
0.000597475
0.000519256
0.000522113
0.000515376
0.00046506
0.000464502
0.000454881
0.000449776
0.000439153
0.000471431
0.00041579
0.000483149
0.000465672
0.000467533
0.0114827
0.0122312
0.00665163
0.000507299
0.000342854
0.000639291
0.000683816
0.000618911
0.000572758
0.000571451
0.000552321
0.000498245
0.000494996
0.000508878
0.00049046
0.000499449
0.000448277
0.00054841
0.000514563
0.000493533
0.013774
0.0121437
0.0047424
0.000382576
0.000599576
0.000763099
0.000740153
0.000644773
0.000646197
0.000638244
0.000570826
0.000561484
0.0005558
0.00054197
0.000529069
0.000544471
0.000494703
0.00056525
0.000505006
0.000514382
0.015352
0.0119116
0.00307585
0.000399846
0.000751405
0.000834555
0.000799169
0.000748886
0.000702267
0.000685082
0.000656618
0.000605291
0.000595179
0.00060081
0.000579646
0.000571838
0.000531655
0.000623059
0.000550528
0.000544454
0.0161766
0.0115381
0.00202599
0.0003181
0.000869629
0.000904254
0.000870098
0.000766841
0.000766947
0.000754727
0.000680671
0.00066409
0.000652927
0.000636045
0.000625618
0.000625641
0.000584802
0.00064371
0.000537411
0.000569381
0.0169427
0.0110926
0.0014014
0.000514237
0.000988549
0.000948776
0.000936601
0.000868017
0.000820381
0.000797989
0.000759772
0.000710266
0.000693524
0.000693014
0.000667838
0.000646721
0.000620685
0.000688528
0.000563395
0.000594544
0.017724
0.0107186
0.00100347
0.00072761
0.0010664
0.000989929
0.000986457
0.000881733
0.000872938
0.000861778
0.000787947
0.000765089
0.000743793
0.000727623
0.000719545
0.000705814
0.000674804
0.00070612
0.000552337
0.00062834
0.0180845
0.0102899
0.00148011
0.000839539
0.00115835
0.00104177
0.00104998
0.000979453
0.00092303
0.000903761
0.000859079
0.000810749
0.000786509
0.000779326
0.000749925
0.000720454
0.000713484
0.000744393
0.000561143
0.000647676
0.0185195
0.00990035
0.0018531
0.00102
0.0012006
0.00109786
0.00108322
0.00099548
0.000970722
0.000961305
0.000891669
0.000864065
0.000833405
0.000818828
0.000810289
0.000784271
0.000772241
0.000768264
0.000561178
0.000692604
0.0186558
0.00956556
0.00243387
0.0010698
0.00125343
0.00113625
0.00113935
0.00107547
0.00101033
0.000998051
0.000951997
0.000904729
0.000875245
0.000861975
0.000828603
0.000798212
0.000814656
0.000800807
0.000556291
0.000714086
0.0188116
0.00930492
0.00227828
0.00115966
0.00130606
0.00118705
0.00116085
0.00109728
0.00105354
0.00104739
0.000986476
0.000955876
0.000919485
0.000907277
0.000893099
0.000861789
0.000870063
0.000841978
0.000571075
0.000760595
0.0187334
0.00873439
0.00200502
0.00115507
0.00131391
0.00122481
0.00120123
0.00115811
0.00108342
0.00107604
0.00103596
0.000991829
0.00096066
0.000943355
0.00091067
0.000893495
0.00092064
0.000907334
0.000599881
0.000752811
0.0186427
0.00778833
0.00215624
0.00126822
0.00134472
0.00127399
0.0012156
0.001176
0.00111982
0.00111204
0.00106533
0.00103796
0.00100363
0.00099277
0.000979338
0.000977915
0.000972975
0.000975507
0.000765656
0.000831387
0.00253844
0.00208345
0.00200053
0.00155145
0.00165865
0.0014843
0.0014136
0.00126968
0.00117327
0.00109154
0.000962474
0.000925831
0.000815628
0.000755241
0.000684293
0.000734514
0.00117635
0.00479129
0.0100964
0.0207115
0.00248571
0.00218357
0.00210979
0.00152518
0.00175704
0.00162762
0.00149591
0.00127606
0.00114848
0.00106748
0.000936885
0.000898491
0.000784266
0.00073537
0.000653728
0.000700053
0.00116362
0.00492261
0.0101146
0.0205011
0.00269184
0.00222563
0.00210073
0.00155735
0.00179388
0.00153496
0.00139496
0.0012546
0.00116078
0.00108261
0.00095603
0.000924486
0.000811206
0.000756215
0.000680205
0.000721163
0.00115025
0.00497331
0.0101471
0.0203707
0.00269459
0.00228954
0.00217251
0.00157575
0.00189745
0.00165436
0.00147242
0.00126946
0.00114029
0.00106032
0.000933473
0.000898603
0.000781379
0.000737408
0.00064723
0.000685065
0.00113674
0.00504444
0.0101632
0.0201796
0.00302335
0.00236915
0.00217833
0.00162376
0.00193101
0.00155819
0.00137649
0.00124906
0.00115122
0.00107518
0.000953343
0.000923903
0.000809442
0.000759455
0.000676707
0.000708117
0.00112078
0.00505591
0.010193
0.020061
0.00307907
0.0023827
0.00222765
0.00170496
0.00201804
0.00164515
0.00145033
0.00127009
0.00113506
0.001054
0.000932997
0.000899725
0.000781931
0.000741837
0.000642496
0.000671097
0.00110443
0.00511399
0.0102077
0.0198885
0.00338798
0.00248366
0.00225098
0.00177931
0.00203725
0.00154329
0.00136176
0.00124905
0.00114338
0.00106833
0.000953995
0.000924301
0.000810732
0.000765153
0.000674776
0.000697057
0.00108717
0.00511832
0.0102384
0.0197668
0.00345774
0.00245301
0.002308
0.00188356
0.002082
0.00160959
0.00143791
0.00127526
0.00113248
0.00104822
0.000935286
0.000902156
0.000785999
0.000749253
0.00064104
0.000657228
0.00106567
0.00516402
0.0102486
0.0195788
0.00377316
0.00254666
0.00232662
0.00198079
0.00208276
0.00150914
0.00135796
0.00125255
0.00113831
0.00106231
0.000956883
0.000925981
0.000815162
0.000773835
0.000677073
0.0006841
0.00104679
0.00516234
0.0102828
0.0194587
0.00394045
0.00257495
0.00240319
0.00206881
0.00208495
0.00156984
0.00143185
0.00128025
0.00113175
0.00104381
0.000940006
0.000906053
0.000793479
0.000759964
0.000645425
0.000645771
0.00101873
0.00519485
0.010289
0.0192861
0.00406721
0.00266428
0.00243397
0.00217204
0.00206019
0.0014761
0.0013581
0.00125723
0.00113667
0.00105799
0.00096139
0.000929154
0.000822361
0.000785728
0.000684534
0.000668966
0.000999326
0.00518246
0.0103283
0.0191745
0.00425409
0.00270907
0.00250309
0.00221589
0.00203928
0.00154701
0.00142696
0.00128431
0.00113338
0.00104198
0.000946303
0.000911438
0.000803884
0.000773769
0.00065604
0.00063178
0.000965275
0.00519452
0.0103342
0.0190223
0.00440968
0.0027749
0.002557
0.00230444
0.00199176
0.00145695
0.00135359
0.00126218
0.00113868
0.0010567
0.000966879
0.000933581
0.000831597
0.000800576
0.00069692
0.000653622
0.000945714
0.00518216
0.0103713
0.0189225
0.00462098
0.00282608
0.0026
0.00229414
0.00195479
0.00154025
0.0014171
0.00128727
0.00113854
0.00104411
0.000953555
0.000918017
0.000816241
0.000790226
0.000672166
0.00062084
0.000907295
0.00517734
0.0103758
0.0187891
0.00478472
0.00287353
0.00265924
0.00236244
0.00189187
0.00145643
0.00134848
0.00126791
0.00114492
0.00105942
0.000972798
0.000938674
0.000842196
0.000817566
0.000713457
0.000644076
0.000890484
0.00515423
0.010409
0.0187131
0.00498982
0.00293136
0.00267726
0.00230317
0.00183239
0.00153679
0.00140478
0.00128801
0.00114625
0.00104975
0.000960683
0.000924469
0.000828999
0.000807801
0.000692578
0.000615409
0.000853588
0.00511846
0.0104012
0.0185945
0.00524873
0.00300083
0.00272264
0.00233727
0.00176915
0.00147972
0.00135892
0.00127598
0.0011557
0.00106719
0.000979253
0.000943964
0.000853485
0.00083587
0.00073299
0.00064137
0.00084161
0.00506617
0.0104446
0.018494
0.00535669
0.00302217
0.00271019
0.00227433
0.0017259
0.00156157
0.00141465
0.00129804
0.00116316
0.00106496
0.000971823
0.000934761
0.000844898
0.000830797
0.00071962
0.000621744
0.000815738
0.00499186
0.0104652
0.0185004
0.00534861
0.00311139
0.00266481
0.00221443
0.00161055
0.00149307
0.00137388
0.0012704
0.00115339
0.00106884
0.000980361
0.000943522
0.000860747
0.000850761
0.00075431
0.000647259
0.000836301
0.00491628
0.0104618
0.0183778
0.00603915
0.00331593
0.00266161
0.00213408
0.00161814
0.00162167
0.00146211
0.00131837
0.0011894
0.00109025
0.000987957
0.000943763
0.000858999
0.000848337
0.000746139
0.00064147
0.000804049
0.00464662
0.010212
0.0179751
0.0168801
0.0323391
0.0181703
0.0228636
0.0185301
0.0175687
0.0157183
0.0140716
0.0126393
0.0115811
0.0106123
0.0101635
0.0094323
0.00947923
0.00874544
0.00826132
0.0124027
0.0436668
0.0974537
0.158344
0.0321487
0.0228608
0.0198244
0.0177799
0.0161758
0.0144189
0.0132943
0.0118714
0.0105809
0.0098477
0.00947342
0.00871677
0.00822007
0.00742785
0.00743469
0.00561365
0.0123718
0.0506064
0.0955652
0.146106
0.0158312
0.0150914
0.0155071
0.0131985
0.0119701
0.0108575
0.0102479
0.0094373
0.00897266
0.00839576
0.00783009
0.00747318
0.00731319
0.00701512
0.00691224
0.00619103
0.0139456
0.0504078
0.0947685
0.142772
0.0131083
0.011459
0.00976673
0.00947049
0.00926954
0.00866824
0.00845274
0.0082061
0.00808561
0.00750354
0.00719762
0.00656271
0.00660275
0.00604589
0.00613643
0.00475027
0.00996932
0.0518082
0.0944781
0.132997
0.00660537
0.00743002
0.00854587
0.0081971
0.00735255
0.00689328
0.00633935
0.00602032
0.0059196
0.00592283
0.00573871
0.00564748
0.00574076
0.00564704
0.00556755
0.00473924
0.0104344
0.0491104
0.0946585
0.131584
0.00580569
0.00636895
0.00538529
0.00492037
0.0051868
0.0054842
0.00551863
0.00544737
0.00544303
0.00546553
0.00526433
0.00499581
0.00489463
0.00496084
0.00498866
0.00365364
0.00808314
0.0458662
0.0953822
0.128248
0.00321448
0.00368754
0.004499
0.00502377
0.00462886
0.00440301
0.00415821
0.00415463
0.00404973
0.00439201
0.00449611
0.00458132
0.00451465
0.00457357
0.00447506
0.00339151
0.00569322
0.0398896
0.0962073
0.127963
0.00295888
0.00326935
0.00317947
0.00278765
0.00286781
0.0033017
0.00365316
0.00383675
0.00390813
0.00396818
0.00405736
0.0040286
0.00386042
0.00398912
0.00415188
0.00328038
0.00540506
0.0340722
0.0965245
0.130007
0.0013744
0.00205417
0.00230608
0.00279806
0.00301439
0.00296652
0.00291046
0.00310288
0.00294095
0.00310664
0.00339021
0.00373387
0.00375544
0.00372926
0.00364639
0.00340553
0.00256232
0.0261537
0.097047
0.135333
0.00153583
0.00168903
0.00177473
0.00165234
0.00149184
0.00193638
0.00233828
0.00265391
0.0029186
0.0028931
0.00287801
0.00312302
0.00328634
0.00372516
0.00362125
0.00368688
0.00416823
0.0195613
0.0944151
0.143166
0.000981682
0.00114078
0.0013175
0.00160917
0.00192596
0.00198103
0.00186077
0.00196204
0.0022099
0.00266728
0.00273076
0.00310862
0.00325514
0.00373909
0.00376402
0.00374394
0.00330149
0.0121557
0.0895969
0.154883
0.000797831
0.000964578
0.0010092
0.00108831
0.00112457
0.00141295
0.00167854
0.0019344
0.00206305
0.00225377
0.00252045
0.00266373
0.00295005
0.00325995
0.00368871
0.00428908
0.00344325
0.00807743
0.0669192
0.167762
0.000580879
0.000751636
0.000898046
0.00106806
0.00124043
0.00141651
0.00142037
0.00154865
0.00169734
0.00198988
0.00210771
0.00243427
0.00260902
0.00279408
0.00315796
0.00384125
0.00439737
0.00437606
0.053479
0.18691
0.000530157
0.000613858
0.000659296
0.000783929
0.000792413
0.000966304
0.00116427
0.00139181
0.00143101
0.00160473
0.00181195
0.00198297
0.00222886
0.00245675
0.00289356
0.00302775
0.00393999
0.00829829
0.027594
0.160235
0.000506365
0.000605941
0.000664978
0.000778758
0.000872708
0.000899871
0.000902786
0.00105004
0.00117621
0.00135375
0.00135429
0.00159475
0.00158474
0.00200939
0.00200577
0.00252908
0.0026731
0.00565494
0.0155804
0.114839
0.000376903
0.000434142
0.00046902
0.000522987
0.000582883
0.000717525
0.000795032
0.000838408
0.00089297
0.00100779
0.00110687
0.00127216
0.0014195
0.00161396
0.00174148
0.00211041
0.00210375
0.0029879
0.00446191
0.0707124
0.000338922
0.000382719
0.000396265
0.000451046
0.000476973
0.000532219
0.000555498
0.000638373
0.000663503
0.000747867
0.000762752
0.000875669
0.0008943
0.00104062
0.00105784
0.0011572
0.00107152
0.00170671
0.00428603
0.0414494
0.000262986
0.000293433
0.000319089
0.00036552
0.000435115
0.000476758
0.00051957
0.000598542
0.000647641
0.000712865
0.000742383
0.000837114
0.00085679
0.000978913
0.000923105
0.00100559
0.000899373
0.000992463
0.000657968
0.0237545
0.000202559
0.000222307
0.000230115
0.000258384
0.000271264
0.000317088
0.000355008
0.000409546
0.000430668
0.000461263
0.000528401
0.000567347
0.000598874
0.000631811
0.000573792
0.000546423
0.000805007
0.000937104
0.00122531
0.00879616
0.000117914
0.0001653
0.000198581
0.000239266
0.000278199
0.000324384
0.000358966
0.000404483
0.000412836
0.00049504
0.000537383
0.000589167
0.000615035
0.00069797
0.000689405
0.000832142
0.000890981
0.000616016
0.000693089
0.00565993
0.0139112
0.0139222
0.0138377
0.0138685
0.0137223
0.0138079
0.0135502
0.0136835
0.013062
0.0133615
0.0125067
0.0123108
0.0124183
0.0113283
0.0112044
0.00996158
0.00962904
0.00955998
0.00930432
0.00834706
0.00699739
0.00698045
0.00693468
0.00692125
0.00683012
0.00680652
0.00674435
0.00657817
0.00669686
0.00661838
0.00631098
0.00749718
0.00729457
0.00677602
0.00604573
0.00670126
0.00671877
0.00602104
0.00670215
0.00751409
0.00431292
0.00431774
0.00435888
0.00438346
0.00441205
0.00450176
0.00443482
0.00462028
0.00451025
0.00444538
0.00463171
0.00430815
0.00407626
0.00408024
0.00401123
0.00419955
0.00372157
0.00394692
0.00348895
0.00378052
0.00275266
0.00275457
0.00274388
0.00271561
0.00271238
0.0026868
0.00265011
0.00259157
0.00256952
0.00261903
0.00237839
0.00264605
0.00272393
0.00278853
0.00267322
0.00272184
0.00264934
0.00296408
0.00272565
0.00302131
0.00172433
0.00172176
0.00172713
0.00172308
0.001732
0.00173118
0.00172513
0.00179748
0.00179057
0.00177884
0.00193708
0.00184984
0.00179897
0.00187161
0.00180184
0.00191878
0.00180839
0.00190136
0.00176428
0.00174421
0.00123364
0.00123229
0.00123611
0.00123318
0.00123631
0.00122943
0.00122839
0.00123822
0.00120126
0.00124334
0.00119597
0.001227
0.00125363
0.00127885
0.00126043
0.00130664
0.00129751
0.00143764
0.00134545
0.00131651
0.000752642
0.000752546
0.000754033
0.000755282
0.000754356
0.000754541
0.00075748
0.000766395
0.000770984
0.000774914
0.000785447
0.0008181
0.000822988
0.000835632
0.000818722
0.000855021
0.0008791
0.000936575
0.000855462
0.000747741
0.000545569
0.000546065
0.000547996
0.000550636
0.000550784
0.000555603
0.000562305
0.000572921
0.000575332
0.000578048
0.000582863
0.000599114
0.000595976
0.000598713
0.000582092
0.000609029
0.000610972
0.000654294
0.000584451
0.000533592
0.000299294
0.000300131
0.00030107
0.000303209
0.000303091
0.00030739
0.000311786
0.000317003
0.000322998
0.000334673
0.000344246
0.000366146
0.000368939
0.000380486
0.000372284
0.0004132
0.000420866
0.000479901
0.00040839
0.000314327
0.000197828
0.000199824
0.000201835
0.000205993
0.000207243
0.000212064
0.000213946
0.00021558
0.000217379
0.0002212
0.000228119
0.000239133
0.000242407
0.000244967
0.000222611
0.000230453
0.000225188
0.000226764
0.000270676
0.000339268
7.13881e-05
7.29135e-05
7.68204e-05
8.29794e-05
8.94767e-05
9.605e-05
0.000102138
0.0001065
0.000114494
0.000125652
0.000143635
0.000164803
0.000181472
0.000196481
0.000160211
0.000175022
0.000175275
0.000173373
0.000116139
7.57422e-05
5.92393e-06
1.02422e-05
2.0293e-05
3.49364e-05
4.35252e-05
5.22974e-05
5.80825e-05
6.63985e-05
7.15835e-05
8.1425e-05
9.54695e-05
9.61379e-05
9.62002e-05
0.000101912
0.000131443
0.000149764
0.000161173
0.00017935
0.000157643
0.000171261
2.97469e-05
3.27152e-05
3.35256e-05
4.18773e-05
4.57448e-05
4.51835e-05
4.91854e-05
5.01594e-05
5.50793e-05
5.8575e-05
6.56789e-05
8.9054e-05
0.000101555
9.39172e-05
7.89111e-05
7.42219e-05
8.35305e-05
9.83171e-05
0.0001155
0.000120268
5.58959e-05
5.71609e-05
5.82822e-05
5.92657e-05
6.67395e-05
7.08661e-05
7.26991e-05
7.48502e-05
8.30769e-05
8.09141e-05
8.68644e-05
7.13777e-05
8.32533e-05
8.32191e-05
0.000114944
9.92282e-05
0.000103474
8.90742e-05
0.00010369
0.000119946
7.01274e-05
7.11896e-05
7.16827e-05
7.05997e-05
6.97592e-05
7.09785e-05
7.02388e-05
7.18191e-05
7.32939e-05
7.54168e-05
7.60928e-05
7.97181e-05
8.31027e-05
7.81574e-05
8.39682e-05
9.06451e-05
9.81979e-05
9.84553e-05
0.000106804
0.000111404
6.87737e-05
6.80289e-05
6.83365e-05
6.63897e-05
6.9373e-05
6.90838e-05
7.17181e-05
6.95283e-05
7.44068e-05
7.56323e-05
7.90229e-05
7.30866e-05
7.70049e-05
7.73383e-05
7.96254e-05
7.82065e-05
8.26838e-05
8.09421e-05
8.72551e-05
8.96817e-05
5.99665e-05
6.03861e-05
6.10175e-05
5.87608e-05
5.94671e-05
6.23307e-05
6.34927e-05
6.33046e-05
6.45521e-05
6.37194e-05
6.58633e-05
7.03397e-05
6.90588e-05
7.22896e-05
7.16173e-05
7.55573e-05
7.34757e-05
7.77663e-05
6.96103e-05
8.37441e-05
4.53693e-05
4.58741e-05
4.79173e-05
4.89349e-05
4.99296e-05
4.80168e-05
4.92196e-05
4.82866e-05
4.89287e-05
4.55816e-05
4.88508e-05
4.81183e-05
5.09833e-05
5.09496e-05
5.26309e-05
5.35193e-05
5.46814e-05
5.59735e-05
5.716e-05
5.99192e-05
2.4621e-05
2.46437e-05
2.44515e-05
2.41461e-05
2.51553e-05
2.50946e-05
3.03268e-05
3.17409e-05
3.50135e-05
3.57719e-05
3.9037e-05
3.80438e-05
4.07964e-05
4.0429e-05
4.1273e-05
4.25271e-05
4.28209e-05
4.51049e-05
4.33808e-05
4.80091e-05
8.5505e-06
1.01326e-05
1.10417e-05
1.20968e-05
1.30287e-05
1.44237e-05
1.54518e-05
1.53348e-05
1.64713e-05
1.68027e-05
1.85945e-05
1.87063e-05
2.07525e-05
2.09208e-05
2.23429e-05
2.31154e-05
2.4044e-05
2.52556e-05
2.43992e-05
2.9597e-05
0.00098656
0.00120607
0.00086004
0.000919624
0.000954722
0.00094762
0.000974598
0.00100278
0.00103487
0.0010751
0.00111179
0.00112619
0.00120506
0.00123987
0.00128985
0.00131404
0.00128699
0.00195539
0.00665101
0.0183866
0.000917548
0.00100397
0.000755752
0.000834662
0.000902381
0.00093593
0.000970333
0.00100346
0.00104871
0.00108467
0.00113012
0.0011524
0.00121951
0.00124968
0.00132579
0.00135236
0.00140459
0.00162725
0.00582339
0.0181034
0.000966801
0.00113162
0.000841169
0.000895795
0.000956432
0.000968849
0.000998857
0.00103659
0.00107063
0.00110872
0.00114072
0.00116622
0.00124219
0.0012723
0.00133114
0.0013131
0.00140891
0.00121883
0.00462485
0.0177037
0.00100472
0.00112111
0.000818785
0.000879065
0.000934966
0.000963263
0.00099496
0.00103098
0.00107058
0.00110664
0.00114992
0.00118737
0.00125501
0.00127836
0.00134908
0.00136859
0.001491
0.00124806
0.00413187
0.0172819
0.00102874
0.00116396
0.000876638
0.000927674
0.000986131
0.00100618
0.00103645
0.0010744
0.00110361
0.00114168
0.0011738
0.00121276
0.00127406
0.00130078
0.00136076
0.00135066
0.00147641
0.00128423
0.00414546
0.0167444
0.00107694
0.00117092
0.00087967
0.00095051
0.000995224
0.00102008
0.0010383
0.00106553
0.00109838
0.00113799
0.00118381
0.00122748
0.00128443
0.0013133
0.00138491
0.00141447
0.00154847
0.0013783
0.00476964
0.0161194
0.00107518
0.00115407
0.000896635
0.000963129
0.00100564
0.00101755
0.00103741
0.00108635
0.00112262
0.00117171
0.00119824
0.0012414
0.00128917
0.0013295
0.00139429
0.00141153
0.00155212
0.00143865
0.0046308
0.0155265
0.00107876
0.00114673
0.000913001
0.00097189
0.00101091
0.00102832
0.00106633
0.00110822
0.00113327
0.00116178
0.00119595
0.00124644
0.0012937
0.00134185
0.00139902
0.00144711
0.00157598
0.00144924
0.0040687
0.014476
0.00104725
0.00109581
0.000896379
0.000953287
0.000987245
0.00101274
0.00104491
0.00107765
0.00110055
0.0011595
0.00119408
0.00124639
0.00128383
0.00133717
0.00138828
0.00144949
0.00153991
0.00148074
0.00318453
0.0131585
0.00103423
0.00106207
0.000904862
0.000958525
0.00100055
0.00103834
0.00107339
0.00110834
0.00116048
0.00119868
0.0012128
0.00125289
0.00128572
0.00135341
0.00139427
0.00146221
0.00150308
0.00152035
0.00261241
0.0106787
0.00100331
0.00103225
0.000911441
0.000958695
0.00100738
0.00103965
0.00106189
0.00110669
0.00111815
0.00113816
0.00115931
0.00121967
0.00128058
0.00134122
0.00137068
0.0014257
0.00146207
0.00151212
0.00217961
0.0086088
0.000986723
0.00102364
0.000931462
0.000988704
0.00103887
0.0010599
0.00109705
0.00110871
0.00113004
0.0011697
0.00121365
0.00129325
0.00130816
0.00135248
0.00137197
0.00143571
0.00146952
0.00154314
0.00190334
0.00706074
0.0010175
0.0010534
0.000971101
0.00101574
0.00102204
0.00104275
0.00103535
0.00105187
0.00108831
0.00111574
0.00117749
0.00121397
0.00124673
0.00132827
0.00135039
0.00142689
0.00146429
0.00152458
0.00170407
0.00581463
0.000983107
0.000991929
0.000927021
0.000942181
0.000966328
0.000988004
0.00100991
0.00108093
0.0011201
0.00120211
0.00126567
0.00131381
0.00137071
0.00139435
0.00138126
0.00146634
0.00148503
0.00155615
0.00161659
0.00496829
0.000964168
0.000999271
0.000942673
0.000980204
0.00103234
0.00105875
0.00112041
0.00115897
0.00119832
0.00123978
0.0012311
0.00124178
0.00123258
0.00123573
0.00129266
0.00142741
0.00145032
0.00154736
0.00158197
0.00435958
0.000941807
0.000972657
0.000935649
0.000978593
0.00101368
0.00103455
0.00106928
0.00107634
0.00111524
0.00111614
0.00115028
0.00120112
0.00125766
0.00137613
0.00149223
0.00159853
0.001504
0.00154495
0.00161187
0.00432198
0.000933865
0.00097905
0.000941905
0.000986625
0.00102376
0.0010512
0.00108655
0.00112028
0.00116772
0.00119669
0.00127234
0.00130004
0.00137378
0.00138829
0.00139195
0.00130377
0.00125004
0.00144395
0.00160102
0.00376048
0.000927331
0.000968732
0.000941
0.00098913
0.00102091
0.00104857
0.00107538
0.00111109
0.00113442
0.00117261
0.00120027
0.00121785
0.00125695
0.00124262
0.00130391
0.00130582
0.00155829
0.00172342
0.00171441
0.00384853
0.000930657
0.000972218
0.000943328
0.000988588
0.00101688
0.00104
0.00106822
0.00109811
0.00112796
0.00116752
0.00119333
0.00124908
0.00128128
0.00135338
0.00142754
0.00153946
0.00167885
0.00157179
0.00165171
0.00197157
0.000913211
0.000960195
0.000930548
0.000982066
0.00101033
0.00104106
0.00106898
0.00110779
0.0011388
0.00118188
0.00121882
0.0012716
0.00130918
0.00137772
0.00139472
0.00146348
0.00143507
0.0014822
0.00165634
0.00188971
0.000324473
0.000246339
0.000222485
0.000232623
0.000276782
0.000243102
0.000206991
0.000253319
0.000317178
0.00022402
0.000127085
5.27288e-05
0.000753416
0.00277842
0.0064543
0.0103371
0.0100915
0.00557353
0.0012872
0.000152669
0.000313131
0.00030624
0.000316939
0.00024182
0.000242809
0.000267441
0.000266534
0.00022505
0.000277725
0.000315714
0.000249155
0.000107832
7.54677e-05
0.00112177
0.00394059
0.00824977
0.0111929
0.00847625
0.00341475
8.78733e-05
0.000339863
0.000268042
0.000317299
0.000324542
0.000290545
0.000262121
0.000280964
0.000278907
0.00027563
0.000285616
0.000322173
0.000251044
6.19025e-05
0.000263132
0.00197023
0.00584243
0.0103857
0.0104503
0.00578735
0.000565949
0.000383071
0.000329465
0.000301964
0.0003049
0.000328481
0.000299808
0.000303085
0.000274004
0.000319208
0.000311601
0.000314871
0.000328407
0.000262135
0.000139364
0.000711038
0.00366065
0.00861125
0.0115004
0.00858553
0.00155043
0.000396066
0.000369221
0.000375254
0.000343358
0.000354489
0.000326001
0.000350175
0.00032553
0.00031722
0.00035242
0.00035136
0.000368433
0.000345801
0.000220063
0.000155664
0.00172935
0.00672781
0.0115177
0.00957473
0.00283751
0.000432578
0.000403999
0.000374716
0.000354611
0.000399664
0.000359959
0.000369432
0.000358167
0.000379822
0.000373558
0.00039251
0.000405884
0.000412323
0.0003714
0.000200508
0.000543938
0.0046601
0.0106327
0.0111419
0.00408522
0.000447312
0.000465701
0.00046444
0.000385314
0.000433156
0.000409184
0.000428789
0.000404342
0.000399501
0.000445391
0.000451455
0.000428883
0.000505133
0.000502003
0.000319503
0.000218649
0.00252407
0.00944458
0.0118517
0.00663538
0.000470901
0.000475543
0.000491876
0.000421662
0.000475564
0.000444485
0.000457162
0.00045894
0.000465481
0.000466453
0.000509953
0.000512422
0.000512793
0.000594562
0.000532176
0.000314802
0.00101298
0.00828742
0.0122507
0.00907914
0.000496048
0.000522815
0.000557666
0.000455758
0.000506836
0.000498071
0.000515536
0.00050063
0.000503908
0.000550491
0.000568309
0.000566407
0.000609655
0.000680345
0.000637142
0.000337211
0.000516662
0.00664528
0.0122316
0.0114668
0.000516905
0.000515316
0.000575662
0.000500704
0.000547675
0.000533639
0.000548834
0.000558592
0.000562908
0.000572511
0.000631707
0.000636063
0.000639135
0.00073743
0.000767484
0.000605446
0.000397879
0.00477288
0.0121545
0.0137632
0.00054656
0.000559191
0.00063386
0.00053863
0.0005782
0.000586369
0.000606462
0.00059987
0.000611122
0.000656388
0.000682892
0.000696073