/*--------------------------------*- C++ -*----------------------------------*\
  =========                 |
  \\      /  F ield         | OpenFOAM: The Open Source CFD Toolbox
   \\    /   O peration     | Website:  https://openfoam.org
    \\  /    A nd           | Version:  9
     \\/     M anipulation  |
\*---------------------------------------------------------------------------*/
FoamFile
{
    format      ascii;
    class       volScalarField;
    location    "1.1";
    object      p;
}
// * * * * * * * * * * * * * * * * * * * * * * * * * * * * * * * * * * * * * //

dimensions      [0 2 -2 0 0 0 0];

internalField   nonuniform List<scalar> 
46400
(
-32.5344
-26.2485
-13.8419
-3.91653
5.18703
13.5011
20.9112
27.7011
33.8268
39.4477
44.5675
49.2822
53.6232
57.6725
61.4728
65.073
68.4298
71.9413
75.6144
76.7419
-7.7242
-1.38243
9.92806
19.1307
27.3856
34.9989
41.7367
47.9153
53.4208
58.4811
63.0374
67.1854
70.9616
74.4001
77.5591
80.4499
83.0643
85.6846
88.076
88.5441
17.5772
23.772
33.5934
42.1941
49.5921
56.4884
62.5435
68.065
72.9957
77.4613
81.4939
85.1343
88.4258
91.4094
94.1125
96.5522
98.6927
100.8
102.531
102.158
43.4082
48.7493
57.3926
65.2246
71.8997
78.0632
83.4493
88.3053
92.5669
96.4058
99.8039
102.834
105.53
107.918
110.055
111.939
113.569
115.169
116.51
115.898
68.1546
72.4334
80.4567
87.7531
93.7828
99.303
104.051
108.294
112
115.259
118.143
120.656
122.867
124.788
126.46
127.891
129.072
130.228
131.086
130.114
91.9604
96.6217
103.995
110.527
115.818
120.56
124.588
128.098
131.11
133.719
135.969
137.903
139.564
140.971
142.175
143.175
143.972
144.748
145.389
144.283
116.101
121.137
127.417
132.988
137.4
141.314
144.602
147.425
149.818
151.816
153.511
154.894
156.043
156.958
157.697
158.253
158.626
158.994
159.322
158.026
140.254
145.675
150.505
155.031
158.548
161.568
164.075
166.127
167.825
169.182
170.275
171.115
171.74
172.168
172.448
172.571
172.552
172.55
172.477
171.04
163.694
168.984
172.605
175.957
178.62
180.771
182.539
183.902
184.961
185.706
186.227
186.514
186.637
186.58
186.401
186.08
185.636
185.211
184.722
183.041
186.609
190.554
193.358
195.635
197.517
198.902
199.972
200.686
201.151
201.351
201.355
201.15
200.792
200.282
199.669
198.942
198.114
197.315
196.455
194.573
206.652
209.615
211.802
213.379
214.595
215.376
215.863
216.018
215.942
215.62
215.142
214.488
213.711
212.793
211.778
210.658
209.453
208.268
207.033
204.955
224.753
227.123
228.769
229.765
230.46
230.693
230.688
230.354
229.825
229.06
228.143
227.067
225.888
224.586
223.213
221.738
220.196
218.672
217.092
214.797
240.644
242.432
243.614
244.103
244.308
244.08
243.61
242.846
241.894
240.739
239.455
238.025
236.516
234.9
233.225
231.469
229.642
227.826
225.943
223.469
255.203
256.563
257.304
257.377
257.184
256.551
255.707
254.546
253.22
251.666
249.996
248.195
246.315
244.364
242.363
240.309
238.206
236.118
234.004
231.341
267.253
268.078
268.432
268.1
267.546
266.552
265.393
263.985
262.448
260.729
258.882
256.906
254.833
252.675
250.472
248.216
245.928
243.672
241.45
238.648
279.09
279.2
279.075
278.314
277.362
275.979
274.379
272.563
270.617
268.54
266.382
264.124
261.817
259.439
257.037
254.593
252.125
249.694
247.326
244.466
286.536
286.474
286.03
285.086
283.957
282.566
280.966
279.104
277.09
274.885
272.6
270.192
267.743
265.221
262.685
260.11
257.52
254.971
252.511
249.537
293.835
293.645
292.906
291.586
290.071
288.238
286.314
284.154
281.919
279.522
277.065
274.51
271.917
269.27
266.609
263.925
261.225
258.57
256.014
253.016
297.405
296.994
296.227
295.05
293.563
291.763
289.747
287.556
285.215
282.762
280.214
277.593
274.921
272.205
269.474
266.724
263.958
261.237
258.627
255.584
301.969
298.911
298.556
297.105
295.609
293.664
291.625
289.305
286.922
284.363
281.769
279.069
276.354
273.58
270.812
268.018
265.223
262.472
259.849
256.758
-150.407
-149.852
-149.984
-149.503
-149.657
-147.794
-145.554
-142.79
-140.208
-137.828
-135.291
-132.663
-130.296
-127.978
-125.711
-123.457
-121.298
-119.225
-117.231
-115.12
-150.487
-150.069
-150.523
-148.762
-147.498
-145.9
-143.271
-140.661
-138.108
-135.229
-132.463
-129.756
-127.197
-124.608
-122.13
-119.745
-117.419
-115.089
-112.826
-110.615
-150.696
-150.61
-150.613
-150.416
-147.275
-144.814
-141.818
-138.897
-135.782
-132.758
-129.785
-126.822
-124.013
-121.161
-118.497
-115.829
-113.259
-110.736
-108.343
-105.923
-152.389
-152.549
-151.067
-150.354
-147.831
-144.417
-141.086
-137.45
-134.009
-130.578
-127.254
-124.002
-120.882
-117.777
-114.888
-111.957
-109.234
-106.601
-104.087
-101.506
-155.091
-154.836
-154.344
-151.884
-148.203
-144.255
-140.186
-136.182
-132.157
-128.344
-124.634
-121.013
-117.56
-114.158
-110.978
-107.78
-104.858
-101.938
-99.2399
-96.5318
-159.232
-158.579
-157.87
-153.927
-149.356
-144.617
-139.687
-135.107
-130.54
-126.155
-121.971
-117.947
-114.099
-110.374
-106.895
-103.441
-100.308
-97.1862
-94.3648
-91.4905
-166.308
-165.251
-162.919
-157.754
-151.302
-145.171
-139.431
-133.902
-128.65
-123.657
-118.928
-114.42
-110.154
-106.065
-102.238
-98.4797
-95.107
-91.6659
-88.6635
-85.6021
-174.043
-172.736
-166.991
-160.282
-152.511
-145.142
-138.409
-132.094
-126.128
-120.535
-115.285
-110.333
-105.658
-101.231
-97.0779
-93.0779
-89.4438
-85.749
-82.5983
-79.2428
-180.351
-178.821
-169.526
-161.107
-152.269
-143.986
-136.27
-129.249
-122.641
-116.484
-110.757
-105.369
-100.33
-95.5814
-91.1436
-86.9056
-83.0535
-79.1696
-75.8825
-72.3515
-182.129
-180.049
-170.543
-160.098
-150.295
-141.216
-132.772
-125.071
-117.916
-111.28
-105.128
-99.393
-94.0407
-89.0404
-84.3713
-79.9836
-75.9594
-71.9736
-68.6531
-64.961
-181.35
-178.856
-168.268
-156.931
-146.279
-136.493
-127.494
-119.305
-111.686
-104.661
-98.1889
-92.1487
-86.5541
-81.3357
-76.4864
-71.9497
-67.8008
-63.7395
-60.368
-56.5778
-177.286
-175.016
-164.206
-151.542
-140.306
-129.954
-120.433
-111.835
-103.884
-96.566
-89.8393
-83.6085
-77.8384
-72.4836
-67.5094
-62.9026
-58.6374
-54.5357
-51.0927
-47.1675
-171.904
-168.471
-156.165
-143.143
-131.408
-120.913
-111.153
-102.376
-94.2515
-86.7792
-79.9428
-73.5922
-67.7477
-62.3229
-57.3088
-52.6783
-48.3885
-44.3439
-40.9082
-36.9648
-161.946
-157.899
-145.509
-132.629
-120.709
-110.106
-100.201
-91.2721
-83.065
-75.5127
-68.6069
-62.2347
-56.3636
-50.9363
-45.9271
-41.3248
-37.0344
-33.0432
-29.6359
-25.6547
-150.264
-145.29
-132.576
-119.919
-107.658
-97.0571
-87.1555
-78.2454
-70.0715
-62.5621
-55.7301
-49.4106
-43.6247
-38.2733
-33.3577
-28.8527
-24.6544
-20.8298
-17.5187
-13.5573
-135.206
-130.018
-117.157
-104.552
-92.6297
-82.1129
-72.4081
-63.6097
-55.5898
-48.2046
-41.4808
-35.2956
-29.6168
-24.3844
-19.5861
-15.1927
-11.0806
-7.41444
-4.18025
-0.20948
-118.33
-112.808
-99.6187
-87.2922
-75.6266
-65.4396
-55.9844
-47.4438
-39.6515
-32.4881
-25.9928
-20.0033
-14.5359
-9.4934
-4.89027
-0.677138
3.25014
6.66126
9.75018
13.6739
-99.1131
-93.4573
-79.9731
-68.3759
-57.0998
-47.2312
-38.1947
-29.9368
-22.48
-15.5932
-9.34523
-3.61303
1.641
6.46173
10.8574
14.8899
18.6308
21.7879
24.6807
28.443
-78.669
-72.6765
-58.8535
-47.8752
-37.2236
-27.7929
-19.223
-11.4014
-4.30488
2.22009
8.14221
13.5923
18.5724
23.161
27.3495
31.2257
34.777
37.7085
40.4862
44.6431
-56.2641
-49.8315
-36.4843
-26.1561
-16.2902
-7.38889
0.622727
8.00014
14.6393
20.7979
26.3998
31.5644
36.3349
40.7524
44.8719
48.7626
52.3166
55.6231
59.2215
63.4528
-105.557
-93.4493
-82.2278
-77.2462
-70.102
-67.1385
-62.6339
-59.747
-56.6853
-53.8497
-51.5087
-48.8525
-46.875
-44.506
-42.6718
-40.6525
-38.6888
-37.3473
-36.5399
-35.9306
-100.524
-89.1581
-77.5436
-73.0133
-65.8495
-63.128
-58.9187
-56.3431
-53.5921
-50.9836
-48.8955
-46.4503
-44.7053
-42.5179
-40.8988
-39.0554
-37.2131
-36.0775
-35.3097
-34.7849
-95.1745
-84.7578
-72.9275
-68.8102
-61.749
-59.391
-55.392
-52.9883
-50.4759
-48.0901
-46.2487
-44.0101
-42.4842
-40.4905
-39.0655
-37.3907
-35.722
-34.8152
-34.0558
-33.5996
-89.8269
-80.1682
-68.1131
-64.5583
-57.517
-55.4206
-51.7337
-49.6245
-47.4263
-45.2639
-43.6679
-41.6363
-40.3359
-38.5203
-37.3161
-35.8019
-34.282
-33.535
-32.8568
-32.4647
-84.3687
-75.4459
-63.3244
-60.2766
-53.3952
-51.6914
-48.2551
-46.3179
-44.3585
-42.4125
-41.0527
-39.2244
-38.1359
-36.5103
-35.5027
-34.1482
-32.8239
-32.2582
-31.6492
-31.3001
-78.8345
-70.5606
-58.3882
-55.9681
-49.1978
-47.7503
-44.6502
-42.993
-41.3437
-39.6226
-38.501
-36.8756
-36.0062
-34.5559
-33.7762
-32.5666
-31.4222
-30.9645
-30.4951
-30.1843
-72.0614
-65.4139
-53.4251
-51.5763
-45.0619
-44.0186
-41.2081
-39.728
-38.3252
-36.8092
-35.9144
-34.4891
-33.8254
-32.5608
-31.9822
-30.927
-30.0464
-29.6796
-29.3299
-29.0468
-65.1842
-60.1893
-48.3511
-47.2399
-40.8705
-40.0891
-37.6517
-36.4374
-35.3375
-34.0508
-33.3872
-32.1634
-31.7095
-30.6198
-30.2732
-29.3589
-28.7419
-28.3784
-28.2328
-27.9596
-58.3413
-54.7674
-43.2363
-42.7565
-36.7466
-36.328
-34.2486
-33.2071
-32.3557
-31.2742
-30.8261
-29.8014
-29.5439
-28.639
-28.4908
-27.7376
-27.4363
-27.0797
-27.1015
-26.8543
-51.4679
-49.1356
-38.1064
-38.281
-32.6196
-32.3856
-30.7322
-29.9518
-29.3957
-28.547
-28.3207
-27.496
-27.4385
-26.7083
-26.7893
-26.1797
-26.1639
-25.7858
-26.0587
-25.7996
-44.234
-43.1667
-32.9269
-33.6991
-28.5262
-28.5981
-27.3543
-26.759
-26.4464
-25.8053
-25.7849
-25.1566
-25.2864
-24.7377
-25.0128
-24.5722
-24.8635
-24.5384
-24.9707
-24.7294
-36.5084
-37.0086
-27.6773
-29.1505
-24.4284
-24.6368
-23.8673
-23.5434
-23.5138
-23.1084
-23.3004
-22.8699
-23.1892
-22.8137
-23.3104
-23.0223
-23.5753
-23.299
-23.9757
-23.71
-28.1851
-30.5787
-22.3465
-24.5128
-20.3664
-20.8115
-20.4965
-20.3859
-20.5915
-20.3979
-20.7887
-20.5509
-21.0485
-20.8483
-21.5339
-21.4229
-22.2619
-22.0731
-22.9278
-22.6764
-19.2538
-23.9737
-16.9694
-19.9208
-16.312
-16.8283
-17.026
-17.2152
-17.6884
-17.7303
-18.3256
-18.282
-18.9582
-18.9263
-19.8241
-19.8758
-20.9643
-20.8859
-21.9998
-21.6976
-9.54158
-17.0806
-11.5275
-15.2909
-12.3497
-12.999
-13.6688
-14.116
-14.8113
-15.0636
-15.8497
-15.9929
-16.8363
-16.9708
-18.0514
-18.2871
-19.6422
-19.6965
-21.0808
-20.6917
1.0338
-9.75024
-5.94297
-10.6048
-8.32759
-8.98016
-10.1787
-10.9802
-11.932
-12.4171
-13.4035
-13.7376
-14.7489
-15.0445
-16.3291
-16.7427
-18.3349
-18.4899
-20.2455
-19.785
11.9727
-2.27755
-0.290463
-5.77725
-4.24388
-4.96889
-6.67437
-7.82182
-9.01163
-9.71952
-10.9038
-11.4253
-12.5979
-13.047
-14.509
-15.0994
-16.9745
-17.1975
-19.2974
-18.7662
22.9963
4.62634
4.81705
-1.58373
-0.662479
-1.20419
-3.34671
-4.89082
-6.30469
-7.20452
-8.56221
-9.25866
-10.5761
-11.1678
-12.8041
-13.5646
-15.6303
-16.0449
-18.502
-17.7395
38.9912
13.6494
10.1611
2.24036
2.28161
2.10774
-0.275451
-2.23861
-3.82588
-4.8651
-6.36636
-7.22568
-8.66921
-9.40779
-11.2171
-12.2399
-14.4648
-15.1812
-18.0347
-17.2771
57.5307
27.3028
18.6822
9.88262
8.15531
7.65718
4.55313
1.93534
-0.128911
-1.5624
-3.3914
-4.50042
-6.15402
-7.05054
-9.11745
-10.4009
-13.3763
-14.0138
-17.3764
-15.8469
85.4865
84.0057
66.9801
60.422
46.5251
39.8298
33.2281
28.7146
23.3642
19.3927
15.5864
13.0195
10.0314
8.6345
5.81245
5.29578
0.681017
0.652734
-4.31464
1.12189
121.812
110.109
90.5252
80.016
67.0704
58.3944
50.2339
43.9046
38.5823
34.1928
29.9759
25.97
22.6633
19.0106
16.3801
13.3569
11.1076
9.0801
7.95563
8.18183
124.001
111.755
100.23
90.6318
81.6709
73.6721
66.4928
59.9658
54.1373
49.3542
45.2304
41.7525
38.5193
35.9594
33.4105
31.3595
29.2692
27.6131
26.8047
26.6217
123.032
114.991
106.455
97.7434
89.9721
82.5386
76.2709
70.4332
65.349
60.2325
55.7772
51.4039
47.9082
44.0936
41.3754
38.178
35.9694
33.5639
32.8088
32.5317
114.699
107.702
101.877
95.8651
90.6759
85.2537
80.3717
75.6573
71.3697
67.4421
63.8063
60.4741
57.4698
54.6358
52.2428
49.725
47.9398
45.4638
44.3719
43.9747
111.141
106.995
103.367
98.3188
94.0849
89.4007
85.238
80.9897
77.1397
73.2922
69.8119
66.334
63.3003
60.1542
57.6323
54.8301
52.8313
50.5016
49.698
49.2856
104.935
101.547
98.4697
95.4009
92.2023
89.1388
85.9079
82.955
79.8394
77.0842
74.1677
71.6033
68.9317
66.5043
63.9364
61.6328
59.4403
57.1556
55.8176
55.4118
103.265
101.075
99.1837
96.3819
93.8173
91.2308
88.5721
85.9371
83.291
80.7116
78.0969
75.6351
73.0462
70.7511
68.3853
65.9954
63.7865
61.5852
60.1234
59.5491
99.8885
98.22
96.6063
95.1738
93.3292
91.4128
89.4225
87.4773
85.3085
83.4348
81.2062
79.3412
77.0343
75.1297
72.712
70.745
68.1077
65.9595
63.8388
63.1149
99.5601
98.5408
97.4198
95.9666
94.3625
92.9152
91.2893
89.7654
88.0544
86.398
84.5805
82.8863
80.9315
79.1781
77.0148
75.1746
72.5134
70.6346
67.9095
67.3394
98.5839
97.721
96.9311
96.1962
95.2138
94.1734
92.932
91.8219
90.505
89.3864
87.9542
86.8177
85.2248
84.0437
82.0948
80.8214
78.2831
77.0008
73.648
73.3527
99.013
98.5964
97.8922
97.1745
96.3663
95.6197
94.7966
93.9967
93.1353
92.2975
91.3593
90.4965
89.4299
88.6143
87.368
86.4888
84.6211
84.1451
80.2754
81.328
99.3253
99.0665
98.6998
98.4004
97.9536
97.546
96.9958
96.5967
96.0336
95.6677
95.1749
94.8308
94.4503
94.0859
93.7891
93.5216
93.0897
93.1312
93.3434
95.1037
99.9853
99.8504
99.555
99.3856
99.1193
98.9632
98.7416
98.6364
98.4696
98.42
98.3835
98.4393
98.6216
98.7457
99.3258
99.4929
100.749
100.992
103.425
104.67
100.833
100.844
100.744
100.767
100.66
100.752
100.701
100.888
100.897
101.259
101.35
101.97
102.239
103.253
103.839
105.32
106.664
108.462
111.336
111.859
101.53
101.608
101.654
101.781
101.913
102.113
102.307
102.588
102.931
103.375
103.902
104.602
105.345
106.385
107.386
108.953
110.171
112.54
114.637
118.22
102.241
102.38
102.481
102.671
102.835
103.111
103.363
103.792
104.154
104.746
105.256
106.069
106.741
107.847
108.733
110.217
111.374
113.406
114.347
124.504
102.819
103.007
103.198
103.459
103.742
104.099
104.477
104.957
105.446
106.101
106.706
107.554
108.274
109.397
110.18
111.689
112.569
114.571
115.532
118.374
103.197
103.384
103.587
103.861
104.152
104.52
104.917
105.406
105.924
106.557
107.199
108.005
108.775
109.769
110.649
111.83
112.605
113.955
114.331
120.497
103.402
103.613
103.851
104.145
104.479
104.871
105.313
105.823
106.384
107.033
107.72
108.531
109.34
110.346
111.249
112.497
113.428
115.006
115.8
117.895
221.056
220.509
219.216
217.518
214.964
212.131
208.285
204.248
199.066
193.836
187.681
181.09
174.154
165.52
158.006
148.744
138.4
129.336
119.924
110.073
190.988
190.7
190.132
189.283
188.13
186.747
185.004
183.122
180.781
178.44
175.455
172.871
168.948
164.44
160.598
157.127
153.148
149.086
144.66
140.066
153.928
153.825
153.593
153.279
152.826
152.288
151.621
150.865
149.954
149.015
147.851
146.709
145.263
143.978
142.191
140.633
138.634
136.885
134.628
132.944
141.273
141.219
141.083
140.91
140.619
140.327
139.866
139.43
138.827
138.212
137.46
136.712
135.809
134.947
133.901
132.954
131.75
130.742
129.351
128.419
123.295
123.257
123.198
123.083
122.962
122.78
122.588
122.356
122.086
121.827
121.47
121.194
120.78
120.449
119.944
119.566
118.976
118.569
117.874
117.49
117.407
117.391
117.344
117.292
117.195
117.106
116.961
116.832
116.642
116.449
116.228
115.966
115.673
115.387
115.023
114.713
114.269
113.934
113.408
113.11
109.198
109.179
109.148
109.092
109.027
108.938
108.836
108.722
108.578
108.445
108.262
108.106
107.895
107.708
107.465
107.251
106.965
106.727
106.394
106.139
106.235
106.226
106.201
106.171
106.121
106.069
105.996
105.92
105.825
105.727
105.61
105.492
105.349
105.214
105.042
104.891
104.689
104.524
104.28
104.113
102.956
102.944
102.922
102.886
102.841
102.782
102.713
102.633
102.539
102.44
102.321
102.203
102.058
101.922
101.752
101.595
101.389
101.194
100.926
100.672
101.482
101.474
101.457
101.434
101.4
101.362
101.314
101.261
101.2
101.135
101.059
100.983
100.889
100.803
100.682
100.577
100.446
100.325
100.182
100.033
100.688
100.678
100.662
100.634
100.601
100.558
100.511
100.455
100.395
100.326
100.253
100.172
100.078
99.9725
99.8178
99.6705
99.5025
99.3498
99.1786
99.0142
100.293
100.276
100.254
100.222
100.192
100.161
100.127
100.09
100.051
100.012
99.9688
99.9166
99.8588
99.7889
99.7214
99.642
99.5599
99.4719
99.3667
99.2809
100.358
100.356
100.351
100.346
100.332
100.309
100.283
100.251
100.214
100.173
100.127
100.077
100.022
99.9642
99.9006
99.8339
99.7631
99.6876
99.614
99.5374
100.67
100.667
100.662
100.653
100.643
100.629
100.613
100.595
100.574
100.55
100.524
100.494
100.463
100.427
100.389
100.347
100.302
100.254
100.202
100.146
101.148
101.147
101.145
101.141
101.136
101.13
101.122
101.113
101.103
101.091
101.078
101.063
101.048
101.03
101.012
100.992
100.972
100.948
100.927
100.899
101.598
101.598
101.598
101.597
101.597
101.595
101.595
101.592
101.591
101.588
101.586
101.583
101.58
101.575
101.572
101.565
101.561
101.554
101.549
101.541
102.11
102.111
102.112
102.114
102.117
102.12
102.123
102.127
102.132
102.137
102.143
102.149
102.155
102.163
102.17
102.179
102.187
102.197
102.205
102.215
102.453
102.454
102.458
102.463
102.47
102.477
102.487
102.498
102.512
102.526
102.544
102.561
102.58
102.6
102.621
102.643
102.667
102.691
102.717
102.744
102.776
102.779
102.784
102.791
102.802
102.813
102.828
102.842
102.859
102.875
102.895
102.913
102.934
102.954
102.977
103.001
103.027
103.055
103.084
103.116
102.896
102.9
102.907
102.915
102.925
102.937
102.951
102.966
102.983
103.002
103.023
103.045
103.071
103.098
103.129
103.16
103.196
103.232
103.271
103.312
76.7117
75.5831
71.9192
68.4059
65.0504
61.4487
57.6452
53.5948
49.2491
44.531
39.4102
33.7885
27.6643
20.8799
13.4729
5.16717
-3.92336
-13.8361
-26.2445
-32.5355
88.519
88.0387
85.6461
83.0242
80.4084
77.5171
74.3584
70.9211
67.1471
63.0023
58.4519
53.3999
47.9031
41.7377
35.01
27.4034
19.1515
9.94431
-1.36647
-7.70518
102.073
102.445
100.734
98.6317
96.5006
94.0707
91.3746
88.3999
85.1126
81.4784
77.4533
72.9949
68.0734
62.5624
56.5131
49.6258
42.2415
33.65
23.8401
17.6128
115.819
116.427
115.104
113.509
111.886
110.008
107.878
105.497
102.806
99.7847
96.3952
92.5676
88.3173
83.477
78.1043
71.9606
65.2999
57.4888
48.8722
43.5168
129.963
130.948
130.135
128.994
127.833
126.422
124.765
122.86
120.66
118.16
115.288
112.041
108.35
104.122
99.3876
93.8857
87.878
80.6175
72.6229
68.339
144.167
145.296
144.699
143.935
143.151
142.164
140.969
139.568
137.914
135.987
133.743
131.14
128.133
124.631
120.607
115.876
110.6
104.097
96.7238
92.1671
157.847
159.184
158.917
158.574
158.223
157.69
156.969
156.07
154.933
153.562
151.875
149.885
147.498
144.68
141.393
137.485
133.074
127.493
121.216
116.213
171.117
172.582
172.654
172.66
172.682
172.559
172.279
171.849
171.221
170.377
169.278
167.914
166.208
164.15
161.632
158.612
155.085
150.565
145.714
140.297
183.103
184.776
185.269
185.698
186.15
186.477
186.663
186.723
186.602
186.315
185.792
185.043
183.981
182.612
180.839
178.684
176.003
172.651
168.975
163.747
194.746
196.644
197.509
198.314
199.147
199.874
200.485
200.988
201.336
201.529
201.513
201.298
200.818
200.089
199.003
197.595
195.69
193.388
190.53
186.606
205.206
207.266
208.485
209.657
210.851
211.956
212.957
213.859
214.622
215.261
215.729
216.042
216.112
215.948
215.45
214.656
213.422
211.829
209.613
206.648
215.033
217.314
218.887
220.408
221.947
223.413
224.781
226.074
227.247
228.315
229.231
229.991
230.515
230.833
230.821
230.566
229.852
228.836
227.16
224.775
223.812
226.24
228.089
229.879
231.684
233.416
235.077
236.678
238.182
239.602
240.882
242.023
242.963
243.705
244.161
244.374
244.154
243.649
242.44
240.636
231.52
234.123
236.239
238.327
240.43
242.485
244.495
246.45
248.341
250.142
251.817
253.359
254.683
255.827
256.67
257.292
257.475
257.383
256.604
255.219
238.747
241.506
243.76
246.033
248.334
250.597
252.812
254.969
257.047
259.013
260.859
262.563
264.105
265.498
266.66
267.627
268.159
268.46
268.058
267.209
244.482
247.296
249.71
252.164
254.652
257.106
259.527
261.909
264.232
266.489
268.664
270.738
272.703
274.512
276.121
277.474
278.424
279.152
279.246
279.111
249.461
252.405
254.923
257.507
260.126
262.721
265.283
267.816
270.288
272.7
275.006
277.204
279.237
281.077
282.694
284.049
285.197
286.101
286.559
286.617
252.985
255.954
258.553
261.23
263.952
266.648
269.332
271.985
274.604
277.163
279.653
282.05
284.328
286.477
288.453
290.249
291.822
293.032
293.827
293.78
255.481
258.516
261.178
263.933
266.717
269.49
272.237
274.973
277.657
280.303
282.864
285.349
287.704
289.939
291.962
293.811
295.271
296.445
297.06
297.282
256.675
259.729
262.394
265.177
267.985
270.8
273.581
276.375
279.104
281.828
284.44
287.029
289.434
291.791
293.851
295.842
297.365
298.857
299.609
300.31
-114.828
-116.921
-118.905
-120.967
-123.115
-125.361
-127.613
-129.914
-132.258
-134.872
-137.373
-139.733
-142.302
-145.026
-147.266
-149.045
-148.882
-149.385
-149.292
-149.934
-110.356
-112.551
-114.799
-117.12
-119.441
-121.824
-124.288
-126.874
-129.421
-132.12
-134.87
-137.733
-140.282
-142.89
-145.515
-147.22
-148.557
-150.155
-149.686
-150.112
-105.685
-108.09
-110.471
-112.977
-115.535
-118.201
-120.856
-123.703
-126.508
-129.47
-132.442
-135.468
-138.576
-141.525
-144.561
-146.998
-150.08
-150.336
-150.348
-150.407
-101.273
-103.838
-106.351
-108.981
-111.7
-114.628
-117.515
-120.621
-123.739
-126.993
-130.316
-133.752
-137.199
-140.838
-144.164
-147.601
-150.16
-150.873
-152.287
-152.132
-96.3256
-99.0191
-101.704
-104.617
-107.528
-110.724
-113.9
-117.303
-120.758
-124.383
-128.098
-131.917
-135.947
-139.971
-144.032
-148.002
-151.713
-154.163
-154.656
-154.891
-91.2778
-94.1386
-96.9589
-100.083
-103.213
-106.668
-110.148
-113.876
-117.726
-121.752
-125.936
-130.318
-134.887
-139.45
-144.374
-149.093
-153.639
-157.569
-158.251
-158.917
-85.3819
-88.4395
-91.4348
-94.8791
-98.2486
-102.009
-105.838
-109.931
-114.203
-118.718
-123.454
-128.453
-133.705
-139.227
-144.954
-151.071
-157.522
-162.635
-164.953
-166.028
-79.0429
-82.3979
-85.5468
-89.2449
-92.8812
-96.885
-101.042
-105.474
-110.154
-115.112
-120.366
-125.96
-131.924
-138.233
-144.959
-152.327
-160.062
-166.751
-172.515
-173.807
-72.1512
-75.6814
-78.9672
-82.8532
-86.7064
-90.9495
-95.3913
-100.149
-105.199
-110.598
-116.339
-122.509
-129.126
-136.154
-143.877
-152.155
-161.001
-169.442
-178.73
-180.253
-64.7935
-68.4804
-71.801
-75.7911
-79.8187
-84.2138
-88.8888
-93.899
-99.2602
-105.007
-111.17
-117.815
-124.977
-132.682
-141.127
-150.221
-160.022
-170.514
-180.011
-182.098
-56.4147
-60.2029
-63.5717
-67.6421
-71.7882
-76.3346
-81.1903
-86.4202
-92.027
-98.0811
-104.571
-111.612
-119.245
-127.444
-136.459
-146.259
-156.946
-168.318
-178.863
-181.405
-47.0265
-50.9454
-54.39
-58.4996
-62.7664
-67.382
-72.3654
-77.7318
-83.5133
-89.759
-96.4992
-103.829
-111.789
-120.389
-129.91
-140.266
-151.496
-164.138
-174.97
-177.222
-36.8326
-40.7741
-44.2087
-48.2648
-52.5576
-57.1987
-62.2213
-67.6587
-73.5163
-79.8817
-86.7363
-94.2226
-102.361
-111.146
-120.918
-131.425
-143.171
-156.211
-168.507
-171.932
-25.5446
-29.5208
-32.9317
-36.9362
-41.2288
-45.8411
-50.8607
-56.2992
-62.1819
-68.5697
-75.4891
-83.0531
-91.2687
-100.199
-110.104
-120.706
-132.62
-145.505
-157.921
-161.971
-13.4635
-17.4173
-20.7284
-24.571
-28.7696
-33.285
-38.2105
-43.5735
-49.3723
-55.7068
-62.5553
-70.0768
-78.2615
-87.1774
-97.0862
-107.692
-119.961
-132.623
-145.344
-150.319
-0.179451
-4.12899
-7.35765
-11.0451
-15.1551
-19.5543
-24.3619
-29.6029
-35.2913
-41.4903
-48.2248
-55.6185
-63.6455
-72.4451
-82.1506
-92.6694
-104.593
-117.19
-130.049
-135.246
13.694
9.78859
6.71144
3.28154
-0.644142
-4.86121
-9.47142
-14.5221
-20.0003
-26.0017
-32.5095
-39.6819
-47.4812
-56.0247
-65.4838
-75.6731
-87.3445
-99.6759
-112.875
-118.397
28.4338
24.6758
21.7936
18.6255
14.8859
10.8513
6.44951
1.62271
-3.63788
-9.37948
-15.6337
-22.5235
-29.9832
-38.2384
-47.2721
-57.1418
-68.4158
-80.0106
-93.4973
-99.1564
44.662
40.5058
37.7303
34.7841
31.2305
27.3498
23.1542
18.5588
13.5692
8.10933
2.17937
-4.35138
-11.4507
-19.2711
-27.8411
-37.268
-47.917
-58.8894
-72.7257
-78.7211
63.4439
59.1988
55.6056
52.2957
48.7392
44.8471
40.7236
36.3028
31.5295
26.3615
20.7598
14.605
7.96884
0.59882
-7.40696
-16.3097
-26.1758
-36.5103
-49.8651
-56.2955
-36.0691
-36.6802
-37.483
-38.8413
-40.7935
-42.8149
-44.6457
-47.0174
-48.9888
-51.6457
-53.9814
-56.8055
-59.878
-62.7193
-67.2606
-70.1367
-77.3544
-82.214
-93.424
-105.333
-34.922
-35.4489
-36.2113
-37.3639
-39.1938
-41.0402
-42.6551
-44.8446
-46.5833
-49.0276
-51.1091
-53.7025
-56.4629
-58.983
-63.2323
-65.8527
-73.0857
-77.5042
-89.1153
-100.267
-33.7352
-34.1936
-34.9475
-35.8725
-37.5276
-39.205
-40.6254
-42.6203
-44.1397
-46.3752
-48.2105
-50.5759
-53.1001
-55.4379
-59.481
-61.7174
-68.8526
-72.8466
-84.6991
-94.943
-32.599
-32.9932
-33.6658
-34.4304
-35.9382
-37.4541
-38.6529
-40.4691
-41.7628
-43.789
-45.3784
-47.5158
-49.7256
-51.7591
-55.4929
-57.4511
-64.5556
-67.9969
-80.0961
-89.5848
-31.4329
-31.7842
-32.3878
-32.9712
-34.2813
-35.6383
-36.6405
-38.266
-39.3479
-41.1687
-42.5225
-44.4391
-46.4092
-48.2615
-51.7505
-53.301
-60.2476
-63.1781
-75.365
-84.1482
-30.316
-30.6285
-31.093
-31.5665
-32.6708
-33.9097
-34.6839
-36.1335
-36.9962
-38.6119
-39.7258
-41.4146
-43.0738
-44.6369
-47.7912
-49.0691
-55.8899
-58.2048
-70.4727
-78.6358
-29.1772
-29.4621
-29.8072
-30.1866
-31.0417
-32.1118
-32.687
-33.9499
-34.6068
-36.0207
-36.9075
-38.3859
-39.7978
-41.174
-44.0455
-44.9068
-51.4695
-53.2178
-65.3171
-71.8415
-28.089
-28.3637
-28.5051
-28.8736
-29.4927
-30.4032
-30.7444
-31.8315
-32.2786
-33.4891
-34.1453
-35.3904
-36.496
-37.5993
-40.0966
-40.6813
-47.0828
-48.1136
-60.0995
-64.995
-26.9826
-27.2314
-27.2055
-27.569
-27.8612
-28.6186
-28.7619
-29.6633
-29.9141
-30.9236
-31.3625
-32.4004
-33.2523
-34.1767
-36.3148
-36.5261
-42.5707
-42.9775
-54.6697
-58.1496
-25.9272
-26.1879
-25.9108
-26.2945
-26.304
-26.9166
-26.8296
-27.5558
-27.6065
-28.4145
-28.6305
-29.4334
-29.9842
-30.6436
-32.3478
-32.361
-38.0486
-37.8268
-49.0568
-51.2935
-24.8562
-25.0996
-24.6625
-24.9938
-24.6937
-25.1384
-24.8576
-25.4017
-25.2649
-25.875
-25.8836
-26.4778
-26.7764
-27.247
-28.5314
-28.228
-33.4336
-32.6409
-43.083
-44.0722
-23.8362
-24.1043
-23.4222
-23.7036
-23.1414
-23.4354
-22.9323
-23.3028
-22.9763
-23.3876
-23.1817
-23.5392
-23.5461
-23.7441
-24.5372
-24.0848
-28.8406
-27.3869
-36.9497
-36.3734
-22.8019
-23.0561
-22.1961
-22.3902
-21.5405
-21.6574
-20.9657
-21.1606
-20.6557
-20.873
-20.4669
-20.6126
-20.3726
-20.356
-20.6733
-19.971
-24.1648
-22.0709
-30.5258
-28.0596
-21.8223
-22.1278
-21.0081
-21.0904
-19.9911
-19.9472
-19.0427
-19.069
-18.3854
-18.4078
-17.7953
-17.7045
-17.1852
-16.8687
-16.6442
-15.8568
-19.53
-16.7159
-23.9522
-19.1602
-20.8158
-21.2092
-19.8178
-19.768
-18.4006
-18.1734
-17.0865
-16.9462
-16.0952
-15.93
-15.1253
-14.8245
-14.0688
-13.4931
-12.7615
-11.8264
-14.864
-11.3214
-17.0792
-9.45045
-19.908
-20.3741
-18.6106
-18.4586
-16.8545
-16.4507
-15.1597
-14.8582
-13.8392
-13.4827
-12.4766
-11.9421
-10.9155
-9.98437
-8.68164
-7.73119
-10.1467
-5.79678
-9.77445
1.09843
-18.8885
-19.4251
-17.3179
-17.0971
-15.2096
-14.63
-13.1622
-12.707
-11.5267
-10.9827
-9.77829
-9.02146
-7.74245
-6.46364
-4.60374
-3.564
-5.29312
-0.227488
-2.32135
12.0211
-17.8612
-18.6283
-16.1649
-15.7518
-13.6724
-12.9247
-11.2827
-10.6849
-9.35948
-8.64053
-7.26241
-6.3117
-4.78966
-3.10205
-0.731952
0.145067
-1.08334
4.75979
4.54837
23.0069
-17.3964
-18.1608
-15.3007
-14.5897
-12.343
-11.3366
-9.52259
-8.77744
-7.32582
-6.444
-4.92238
-3.82821
-2.10589
0.031339
2.74177
3.25623
2.72883
9.93461
13.5708
38.984
-15.9666
-17.5019
-14.1344
-13.4945
-10.5113
-9.23895
-7.16968
-6.2659
-4.6056
-3.47594
-1.62978
-0.143635
2.05312
4.83651
8.2826
9.02754
10.2401
18.346
27.263
57.5557
0.980299
-4.43372
0.504138
0.554591
5.13844
5.66377
8.48274
9.88119
12.8645
15.4309
19.2213
23.1912
28.5065
32.8731
39.4349
45.5022
59.8621
66.5838
83.9129
85.3968
8.05319
7.82498
8.95145
10.9826
13.2277
16.2621
18.8876
22.5444
25.846
29.8519
34.0612
38.4353
43.7188
49.9725
58.1274
66.6104
79.6557
90.1888
109.907
121.59
26.4964
26.6792
27.4865
29.1403
31.224
33.2729
35.8148
38.3693
41.5952
45.0662
49.1716
53.9456
59.7497
66.2608
73.4144
81.3855
90.3946
99.984
111.56
123.813
32.4199
32.6962
33.4521
35.8525
38.0648
41.2598
43.9785
47.7929
51.2844
55.6553
60.1077
65.2186
70.2958
76.1212
82.3975
89.8151
97.6198
106.342
114.924
122.97
43.8565
44.254
45.3443
47.8205
49.6042
52.1199
54.5117
57.3405
60.3447
63.67
67.3056
71.225
75.5118
80.2212
85.1023
90.5226
95.7188
101.726
107.567
114.572
49.1954
49.6087
50.4121
52.7414
54.74
57.5403
60.0619
63.2078
66.2395
69.7185
73.1959
77.0454
80.8921
85.1433
89.3026
93.9954
98.2179
103.291
106.963
111.131
55.3101
55.7147
57.0536
59.339
61.5309
63.8363
66.4038
68.8308
71.5054
74.0682
76.9908
79.7433
82.8699
85.8191
89.0691
92.1282
95.3564
98.4252
101.464
104.852
59.4781
60.0533
61.5141
63.7156
65.9244
68.3137
70.6795
72.9768
75.5633
78.0281
80.6407
83.2232
85.8681
88.5053
91.1683
93.7528
96.3326
99.1467
101.045
103.247
63.032
63.7556
65.8771
68.0259
70.6646
72.6328
75.0525
76.9588
79.2682
81.1367
83.3674
85.2473
87.418
89.3748
91.3625
93.2944
95.1351
96.5631
98.1866
99.8638
67.2822
67.853
70.5779
72.457
75.1182
76.9587
79.1223
80.8764
82.8321
84.5271
86.3461
88.0043
89.7157
91.2429
92.8662
94.3248
95.9344
97.3971
98.5183
99.5389
73.286
73.5822
76.934
78.2165
80.7577
82.0319
83.9839
85.1668
86.7625
87.9017
89.3374
90.4587
91.7809
92.8929
94.1432
95.1832
96.1596
96.9012
97.6959
98.5656
81.2774
80.2248
84.0965
84.5762
86.4422
87.3236
88.5698
89.3865
90.4532
91.3174
92.2564
93.0959
93.9582
94.7603
95.5856
96.3336
97.1483
97.8675
98.5733
98.9936
95.0486
93.2883
93.0788
93.0357
93.4715
93.7386
94.0383
94.4037
94.7877
95.1332
95.6291
95.9972
96.5635
96.9653
97.5182
97.9292
98.3765
98.6796
99.0475
99.3097
104.629
103.383
100.951
100.71
99.4534
99.2878
98.7076
98.5851
98.4041
98.3498
98.3876
98.4387
98.607
98.7135
98.9373
99.0942
99.3632
99.5339
99.8322
99.9696
111.819
111.296
108.42
106.624
105.28
103.8
103.216
102.202
101.933
101.315
101.226
100.865
100.859
100.674
100.727
100.637
100.746
100.726
100.828
100.819
118.189
114.604
112.507
110.138
108.92
107.354
106.353
105.315
104.573
103.873
103.347
102.904
102.562
102.283
102.09
101.893
101.762
101.637
101.594
101.517
124.47
114.312
113.372
111.34
110.183