/*--------------------------------*- C++ -*----------------------------------*\
  =========                 |
  \\      /  F ield         | OpenFOAM: The Open Source CFD Toolbox
   \\    /   O peration     | Website:  https://openfoam.org
    \\  /    A nd           | Version:  9
     \\/     M anipulation  |
\*---------------------------------------------------------------------------*/
FoamFile
{
    format      ascii;
    class       surfaceScalarField;
    location    "1.1";
    object      phi;
}
// * * * * * * * * * * * * * * * * * * * * * * * * * * * * * * * * * * * * * //

dimensions      [0 3 -1 0 0 0 0];

internalField   nonuniform List<scalar> 
92080
(
0.000707148
-0.439671
0.438964
-0.0178779
-0.892911
0.911496
-0.0529581
-0.982132
1.01721
-0.0894594
-0.967317
1.00382
-0.12542
-0.951828
0.987789
-0.161288
-0.936827
0.972695
-0.196538
-0.923255
0.958506
-0.231528
-0.908698
0.943688
-0.266632
-0.897543
0.932647
-0.301053
-0.886428
0.920849
-0.334994
-0.875637
0.909578
-0.369089
-0.86497
0.899065
-0.403155
-0.856376
0.890442
-0.437199
-0.848138
0.882181
-0.470753
-0.840685
0.874239
-0.503788
-0.833088
0.866124
-0.536136
-0.826294
0.858642
-0.568131
-0.818408
0.850403
-0.599478
-0.81048
0.841827
-0.805316
0.83436
-0.628522
-0.00186764
-0.437803
-0.0234912
-0.871288
-0.0623759
-0.943247
-0.102101
-0.927592
-0.140753
-0.913176
-0.178784
-0.898797
-0.216162
-0.885878
-0.253334
-0.871525
-0.290108
-0.86077
-0.326661
-0.849875
-0.362556
-0.839742
-0.397903
-0.829623
-0.433316
-0.820963
-0.468361
-0.813093
-0.502921
-0.806125
-0.537036
-0.798974
-0.570393
-0.792937
-0.601852
-0.786949
-0.631881
-0.78045
-0.775709
-0.661489
-0.00405804
-0.433745
-0.0295055
-0.84584
-0.069656
-0.903097
-0.110386
-0.886862
-0.150603
-0.872959
-0.19043
-0.858969
-0.229356
-0.846952
-0.267795
-0.833086
-0.306294
-0.822271
-0.344166
-0.812002
-0.381787
-0.802121
-0.419194
-0.792216
-0.456212
-0.783944
-0.493369
-0.775936
-0.530089
-0.769405
-0.566266
-0.762797
-0.602529
-0.756674
-0.638045
-0.751434
-0.672414
-0.74608
-0.741183
-0.706941
-0.00571139
-0.428034
-0.0362778
-0.815274
-0.0788964
-0.860478
-0.121454
-0.844305
-0.163437
-0.830975
-0.2051
-0.817306
-0.246234
-0.805818
-0.286912
-0.792409
-0.327033
-0.782149
-0.366783
-0.772252
-0.405653
-0.763252
-0.444131
-0.753739
-0.482516
-0.745558
-0.520486
-0.737966
-0.558594
-0.731297
-0.596175
-0.725216
-0.63359
-0.71926
-0.670995
-0.714028
-0.707481
-0.709594
-0.705223
-0.743441
-0.00520856
-0.422825
-0.0404097
-0.780073
-0.0842261
-0.816662
-0.128489
-0.800042
-0.172149
-0.787315
-0.215237
-0.774218
-0.257411
-0.763643
-0.299263
-0.750557
-0.341389
-0.740024
-0.382839
-0.730802
-0.423897
-0.722193
-0.464432
-0.713204
-0.504638
-0.705352
-0.544788
-0.697817
-0.584518
-0.691567
-0.623941
-0.685793
-0.66299
-0.680211
-0.702193
-0.674825
-0.741651
-0.670137
-0.666226
-0.780648
-0.0017842
-0.421041
-0.0414842
-0.740373
-0.0885551
-0.769591
-0.134963
-0.753634
-0.180973
-0.741305
-0.226588
-0.728603
-0.271256
-0.718975
-0.314828
-0.706986
-0.35807
-0.696781
-0.401302
-0.687569
-0.443322
-0.680174
-0.48484
-0.671686
-0.526199
-0.663994
-0.56743
-0.656585
-0.609199
-0.649798
-0.650494
-0.644498
-0.691471
-0.639234
-0.731799
-0.634497
-0.772062
-0.629873
-0.625387
-0.812901
0.000237998
-0.421279
-0.0408357
-0.699299
-0.0911832
-0.719244
-0.140499
-0.704318
-0.188398
-0.693406
-0.235467
-0.681535
-0.281418
-0.673024
-0.326384
-0.662019
-0.371039
-0.652127
-0.415547
-0.643061
-0.459965
-0.635756
-0.502966
-0.628685
-0.545144
-0.621815
-0.586526
-0.615203
-0.628016
-0.608308
-0.669959
-0.602555
-0.711635
-0.597558
-0.75347
-0.592661
-0.794509
-0.588835
-0.584435
-0.835461
0.000177834
-0.421457
-0.0445641
-0.654557
-0.0971997
-0.666608
-0.147755
-0.653763
-0.197464
-0.643697
-0.246483
-0.632516
-0.294581
-0.624925
-0.34099
-0.61561
-0.386399
-0.606719
-0.431564
-0.597896
-0.476441
-0.590879
-0.521466
-0.58366
-0.566207
-0.577074
-0.609882
-0.571527
-0.652691
-0.565499
-0.69556
-0.559686
-0.738096
-0.555023
-0.780564
-0.550193
-0.822937
-0.546462
-0.542862
-0.86451
-0.000730703
-0.420726
-0.0484417
-0.606846
-0.103012
-0.612038
-0.155496
-0.601279
-0.206185
-0.593008
-0.2559
-0.582801
-0.304704
-0.576121
-0.352624
-0.56769
-0.399502
-0.559841
-0.445503
-0.551895
-0.49097
-0.545412
-0.534696
-0.539934
-0.578546
-0.533224
-0.622486
-0.527587
-0.665516
-0.52247
-0.708444
-0.516758
-0.751475
-0.511992
-0.79422
-0.507447
-0.837245
-0.503438
-0.499986
-0.88012
-0.00873616
-0.41199
-0.05888
-0.556702
-0.113405
-0.557513
-0.166244
-0.54844
-0.218009
-0.541243
-0.269056
-0.531754
-0.319294
-0.525883
-0.367755
-0.519229
-0.415658
-0.511937
-0.463243
-0.50431
-0.51137
-0.497285
-0.559126
-0.492178
-0.604795
-0.487555
-0.650024
-0.482358
-0.694577
-0.477917
-0.738023
-0.473312
-0.781278
-0.468737
-0.824226
-0.464499
-0.866855
-0.460808
-0.457186
-0.909656
-0.0179047
-0.394085
-0.0686555
-0.505951
-0.122636
-0.503532
-0.175574
-0.495502
-0.22706
-0.489757
-0.277794
-0.48102
-0.328563
-0.475113
-0.37836
-0.469433
-0.426066
-0.464231
-0.472254
-0.458122
-0.518239
-0.4513
-0.564834
-0.445583
-0.611887
-0.440502
-0.657852
-0.436392
-0.703506
-0.432264
-0.748501
-0.428317
-0.792608
-0.42463
-0.836585
-0.420523
-0.880142
-0.417251
-0.413807
-0.923521
-0.0261518
-0.367933
-0.0787218
-0.453381
-0.133316
-0.448937
-0.187025
-0.441794
-0.239594
-0.437188
-0.291312
-0.429303
-0.342424
-0.424002
-0.39339
-0.418467
-0.444661
-0.412959
-0.493992
-0.408792
-0.542309
-0.402982
-0.589929
-0.397964
-0.637085
-0.393346
-0.684816
-0.388662
-0.731461
-0.385618
-0.77783
-0.381948
-0.823195
-0.379265
-0.867646
-0.376072
-0.911628
-0.373269
-0.370393
-0.955042
-0.0320061
-0.335927
-0.0847609
-0.400627
-0.139133
-0.394565
-0.19364
-0.387287
-0.246542
-0.384286
-0.298322
-0.377523
-0.349905
-0.372418
-0.399062
-0.36931
-0.447633
-0.364389
-0.496093
-0.360332
-0.542848
-0.356227
-0.590051
-0.35076
-0.636632
-0.346765
-0.683292
-0.342002
-0.730865
-0.338045
-0.778042
-0.334771
-0.825742
-0.331565
-0.872656
-0.329158
-0.919399
-0.326526
-0.324379
-0.965414
-0.0378253
-0.298102
-0.0921354
-0.346317
-0.146771
-0.33993
-0.201642
-0.332415
-0.256265
-0.329663
-0.309584
-0.324204
-0.364256
-0.317747
-0.419407
-0.314158
-0.472219
-0.311577
-0.524268
-0.308283
-0.574445
-0.30605
-0.622175
-0.30303
-0.669545
-0.299395
-0.715204
-0.296343
-0.760771
-0.292479
-0.806269
-0.289272
-0.85183
-0.286003
-0.897835
-0.283153
-0.943781
-0.28058
-0.278099
-0.990061
-0.0400425
-0.25806
-0.0960003
-0.290359
-0.151773
-0.284157
-0.206822
-0.277367
-0.260002
-0.276483
-0.310046
-0.27416
-0.358573
-0.269219
-0.408848
-0.263884
-0.460413
-0.260012
-0.511904
-0.256792
-0.564497
-0.253457
-0.616042
-0.251485
-0.666618
-0.24882
-0.716506
-0.246455
-0.76486
-0.244124
-0.812663
-0.24147
-0.859515
-0.239151
-0.906154
-0.236514
-0.952384
-0.23435
-0.231793
-0.99869
-0.0435516
-0.214508
-0.103019
-0.230891
-0.158108
-0.229068
-0.215617
-0.219858
-0.276533
-0.215567
-0.33419
-0.216503
-0.388404
-0.215006
-0.438991
-0.213296
-0.488911
-0.210092
-0.537963
-0.20774
-0.586412
-0.205008
-0.635625
-0.202272
-0.684078
-0.200367
-0.732739
-0.197793
-0.78082
-0.196043
-0.828563
-0.193727
-0.875738
-0.191977
-0.922449
-0.189803
-0.968684
-0.188115
-0.186052
-1.01442
-0.0511102
-0.163398
-0.11059
-0.171412
-0.164167
-0.175491
-0.210755
-0.17327
-0.261715
-0.164606
-0.316537
-0.161682
-0.372105
-0.159437
-0.427624
-0.157777
-0.481086
-0.15663
-0.534436
-0.15439
-0.585858
-0.153585
-0.636815
-0.151315
-0.68685
-0.150332
-0.736231
-0.148412
-0.784994
-0.14728
-0.833144
-0.145577
-0.880767
-0.144354
-0.927812
-0.142758
-0.97443
-0.141497
-0.139932
-1.02055
-0.0533346
-0.110063
-0.115435
-0.109311
-0.179417
-0.111509
-0.237588
-0.115099
-0.28783
-0.114364
-0.33899
-0.110521
-0.389278
-0.109149
-0.440891
-0.106164
-0.492202
-0.10532
-0.54325
-0.103342
-0.594399
-0.102436
-0.644547
-0.101167
-0.694728
-0.100152
-0.743975
-0.0991653
-0.793064
-0.0981904
-0.84134
-0.0973007
-0.88932
-0.0963742
-0.936576
-0.0955015
-0.983479
-0.0945941
-0.0937669
-1.02964
-0.0551833
-0.05488
-0.107918
-0.0565762
-0.165127
-0.0543001
-0.224247
-0.055979
-0.282652
-0.0559587
-0.337043
-0.0561313
-0.391114
-0.0550776
-0.442751
-0.0545274
-0.495017
-0.0530536
-0.545645
-0.0527134
-0.596595
-0.0514865
-0.646544
-0.0512184
-0.696373
-0.0503228
-0.745519
-0.0500196
-0.794411
-0.0492977
-0.842727
-0.0489847
-0.890747
-0.0483547
-0.938199
-0.0480498
-0.985304
-0.0474892
-0.0471535
-1.03192
-0.0741104
0.0192304
-0.123995
-0.00669177
-0.177875
-0.000420197
-0.228951
-0.00490233
-0.28409
-0.000819767
-0.337616
-0.00260598
-0.392031
-0.000662383
-0.444827
-0.00173142
-0.497381
-0.000499476
-0.548886
-0.00120855
-0.600015
-0.000356901
-0.650311
-0.000922748
-0.700326
-0.000308274
-0.749546
-0.000798854
-0.798495
-0.000348925
-0.846693
-0.000786322
-0.894587
-0.000460815
-0.941783
-0.000853887
-0.988637
-0.00063546
-1.03473
-0.0010569
-0.00305225
0.0581473
-0.0550951
0.0268577
0.018845
-0.048755
0.118475
-0.114699
0.0230824
0.324625
-0.42686
0.22071
0.542142
-0.778485
0.560969
0.684629
-1.00031
0.857823
0.751887
-1.09632
1.02906
0.781714
-1.12679
1.09697
0.797148
-1.13422
1.11878
0.807516
-1.13437
1.12401
0.815244
-1.13189
1.12416
0.820798
-1.127
1.12145
0.827234
-1.12441
1.11797
0.834748
-1.12221
1.1147
0.840961
-1.12095
1.11474
0.846455
-1.11784
1.11235
0.85261
-1.11715
1.111
0.858959
-1.11526
1.10891
0.863914
-1.11401
1.10905
-1.11062
0.86773
1.1068
0.00773437
0.0504129
0.058063
-0.0314836
0.193527
-0.250163
0.407533
-0.640866
0.565756
-0.936708
0.648771
-1.08333
0.683545
-1.13109
0.700106
-1.14336
0.710007
-1.14412
0.716806
-1.14117
0.721425
-1.13651
0.727065
-1.13264
0.733171
-1.13052
0.738408
-1.12745
0.743254
-1.1258
0.748425
-1.12301
0.753557
-1.12229
0.756435
-1.11814
0.759103
-1.11667
-1.11341
0.761894
0.0194002
0.0310127
0.0888764
-0.10096
0.264082
-0.425369
0.441769
-0.818553
0.548212
-1.04315
0.592524
-1.12764
0.612171
-1.15074
0.622256
-1.15344
0.628469
-1.15033
0.632599
-1.1453
0.63727
-1.14118
0.641983
-1.13736
0.645869
-1.1344
0.649884
-1.13146
0.653529
-1.12944
0.65671
-1.1262
0.658567
-1.12414
0.660472
-1.12005
0.662804
-1.11901
-1.11446
0.66386
0.0361615
-0.00514876
0.1197
-0.184498
0.294968
-0.600637
0.425294
-0.948879
0.491388
-1.10925
0.518727
-1.15498
0.530462
-1.16247
0.537132
-1.16011
0.541032
-1.15423
0.545199
-1.14947
0.548758
-1.14474
0.551807
-1.14041
0.554989
-1.13758
0.55768
-1.13415
0.55964
-1.1314
0.561174
-1.12773
0.562355
-1.12532
0.563682
-1.12137
0.5642
-1.11952
-1.11355
0.56328
0.0407554
-0.0459042
0.148999
-0.292742
0.301926
-0.753564
0.397292
-1.04424
0.43628
-1.14823
0.451143
-1.16984
0.4583
-1.16963
0.461869
-1.16368
0.465035
-1.1574
0.467671
-1.15211
0.469682
-1.14675
0.471728
-1.14245
0.472956
-1.13881
0.473665
-1.13486
0.473862
-1.1316
0.473693
-1.12756
0.472794
-1.12442
0.471564
-1.12014
0.469781
-1.11774
-1.11085
0.467088
0.0357859
-0.0816901
0.159705
-0.41666
0.279461
-0.87332
0.342879
-1.10766
0.366334
-1.17169
0.375632
-1.17914
0.380827
-1.17482
0.382893
-1.16574
0.3852
-1.1597
0.386704
-1.15361
0.387628
-1.14768
0.387839
-1.14266
0.387693
-1.13867
0.387058
-1.13423
0.38572
-1.13026
0.383851
-1.12569
0.381523
-1.1221
0.379212
-1.11783
0.375988
-1.11452
-1.10641
0.371542
0.0385175
-0.120208
0.155036
-0.533179
0.248899
-0.967183
0.292833
-1.1516
0.307152
-1.18601
0.313435
-1.18542
0.31504
-1.17643
0.316107
-1.16681
0.316776
-1.16037
0.316388
-1.15322
0.315206
-1.14649
0.313772
-1.14123
0.311615
-1.13651
0.30876
-1.13137
0.305322
-1.12683
0.301489
-1.12186
0.29707
-1.11768
0.292213
-1.11298
0.286368
-1.10867
-1.10014
0.280099
0.0414479
-0.161655
0.141615
-0.633346
0.212756
-1.03832
0.23927
-1.17811
0.246868
-1.19361
0.249098
-1.18765
0.248952
-1.17628
0.248598
-1.16646
0.247197
-1.15897
0.24492
-1.15094
0.242122
-1.1437
0.238615
-1.13772
0.234532
-1.13243
0.229892
-1.12673
0.224663
-1.1216
0.218982
-1.11618
0.212804
-1.1115
0.206363
-1.10654
0.199119
-1.10143
-1.09233
0.191315
0.0493794
-0.211035
0.12868
-0.712646
0.179682
-1.08933
0.1941
-1.19253
0.197061
-1.19657
0.195742
-1.18633
0.193528
-1.17407
0.190549
-1.16348
0.18689
-1.15531
0.182334
-1.14639
0.177085
-1.13845
0.171425
-1.13206
0.165209
-1.12621
0.158388
-1.11991
0.151064
-1.11427
0.143332
-1.10844
0.135075
-1.10324
0.126422
-1.09788
0.11717
-1.09217
-1.08297
0.107802
0.0442634
-0.255298
0.106426
-0.774809
0.143293
-1.12619
0.149759
-1.199
0.148556
-1.19536
0.144316
-1.18209
0.139656
-1.16941
0.134213
-1.15803
0.127923
-1.14902
0.120889
-1.13935
0.113342
-1.1309
0.105232
-1.12395
0.096623
-1.1176
0.0875075
-1.1108
0.0779485
-1.10472
0.0681168
-1.09861
0.0579124
-1.09304
0.047458
-1.08743
0.0366093
-1.08133
-1.07192
0.0255637
0.0388792
-0.294178
0.0923688
-0.828298
0.114237
-1.14806
0.113618
-1.19838
0.107619
-1.18937
0.100537
-1.17501
0.0928053
-1.16168
0.0844503
-1.14968
0.0754829
-1.14006
0.0658704
-1.12974
0.0557213
-1.12075
0.0450777
-1.11331
0.0340477
-1.10657
0.0225875
-1.09934
0.0107025
-1.09283
-0.0016062
-1.0863
-0.0143136
-1.08033
-0.0272598
-1.07448
-0.0404114
-1.06817
-1.05872
-0.0536145
0.032067
-0.326245
0.0712729
-0.867504
0.0836312
-1.16042
0.0783778
-1.19312
0.0693684
-1.18036
0.0596745
-1.16531
0.0491092
-1.15111
0.0378817
-1.13845
0.0260464
-1.12822
0.0136215
-1.11732
0.000731299
-1.10786
-0.0125567
-1.10002
-0.0262109
-1.09292
-0.0402595
-1.08529
-0.0546574
-1.07843
-0.0692209
-1.07174
-0.0841149
-1.06544
-0.0992865
-1.05931
-0.114558
-1.0529
-1.04345
-0.129828
0.0293893
-0.355634
0.0609519
-0.899067
0.062943
-1.16241
0.0518369
-1.18202
0.0381001
-1.16662
0.0243948
-1.15161
0.0103097
-1.13703
-0.0041516
-1.12399
-0.0189938
-1.11338
-0.0342395
-1.10207
-0.049857
-1.09224
-0.0659583
-1.08392
-0.082251
-1.07662
-0.0987333
-1.06881
-0.115527
-1.06164
-0.132696
-1.05457
-0.150089
-1.04804
-0.167523
-1.04188
-0.184727
-1.0357
-1.02627
-0.201906
0.0224196
-0.378053
0.0423368
-0.918984
0.0375683
-1.15764
0.0229839
-1.16743
0.00706539
-1.1507
-0.0091508
-1.13539
-0.0258488
-1.12033
-0.043103
-1.10674
-0.0606923
-1.09579
-0.0786653
-1.0841
-0.0970308
-1.07388
-0.115689
-1.06526
-0.134654
-1.05766
-0.153857
-1.0496
-0.173215
-1.04228
-0.192674
-1.03511
-0.212441
-1.02828
-0.23252
-1.0218
-0.252243
-1.01598
-1.0067
-0.271811
0.0187273
-0.396781
0.0322214
-0.932478
0.0206788
-1.1461
0.00201144
-1.14876
-0.0177506
-1.13094
-0.0376583
-1.11549
-0.057783
-1.1002
-0.0781956
-1.08632
-0.098894
-1.07509
-0.119856
-1.06314
-0.141034
-1.0527
-0.162631
-1.04366
-0.18427
-1.03602
-0.205954
-1.02792
-0.227835
-1.0204
-0.249941
-1.013
-0.272074
-1.00614
-0.294243
-0.999629
-0.315964
-0.994254
-0.985151
-0.337515
0.0144931
-0.411274
0.0209433
-0.938928
0.00353741
-1.12869
-0.0191932
-1.12603
-0.0418293
-1.1083
-0.0646954
-1.09262
-0.0875865
-1.07731
-0.110851
-1.06306
-0.134139
-1.0518
-0.157629
-1.03965
-0.181475
-1.02885
-0.205539
-1.0196
-0.229897
-1.01166
-0.25434
-1.00348
-0.278764
-0.995977
-0.303273
-0.988496
-0.328098
-0.981318
-0.353272
-0.974454
-0.377916
-0.969611
-0.961004
-0.402062
0.0112328
-0.422507
0.0119531
-0.939649
-0.00965316
-1.10709
-0.0356198
-1.10007
-0.0616314
-1.08229
-0.0875771
-1.06667
-0.11354
-1.05135
-0.139643
-1.03696
-0.165901
-1.02555
-0.192213
-1.01333
-0.21863
-1.00244
-0.245428
-0.9928
-0.272234
-0.984855
-0.299081
-0.97663
-0.326018
-0.969039
-0.352991
-0.961523
-0.379823
-0.954486
-0.406841
-0.947437
-0.433872
-0.942579
-0.934884
-0.459993
0.00771626
-0.430223
0.0029071
-0.93484
-0.0236685
-1.08051
-0.0528217
-1.07091
-0.0816834
-1.05343
-0.110439
-1.03792
-0.138887
-1.0229
-0.167657
-1.00819
-0.196248
-0.996954
-0.224853
-0.984729
-0.253786
-0.973505
-0.282886
-0.963701
-0.312273
-0.955468
-0.341757
-0.947145
-0.371202
-0.939594
-0.400768
-0.931957
-0.43061
-0.924645
-0.460757
-0.91729
-0.491249
-0.912087
-0.905146
-0.520987
0.00587041
-0.436093
-0.00330264
-0.925667
-0.0332146
-1.0506
-0.0650978
-1.03903
-0.0965
-1.02203
-0.127935
-1.00648
-0.159068
-0.991768
-0.190172
-0.977083
-0.221409
-0.965717
-0.252408
-0.95373
-0.283413
-0.942499
-0.314921
-0.932193
-0.34637
-0.924019
-0.377953
-0.915562
-0.409844
-0.907703
-0.441758
-0.900042
-0.473634
-0.89277
-0.505913
-0.885011
-0.53959
-0.87841
-0.87263
-0.572106
0.00287029
-0.0112999
-0.0446868
-0.0799003
-0.114139
-0.147928
-0.18119
-0.214585
-0.247655
-0.280536
-0.313457
-0.346586
-0.380162
-0.413543
-0.447007
-0.480926
-0.515053
-0.54966
-0.586244
-0.624514
0.781308
-9.78576
9.87218
0.711694
-9.63625
9.70587
0.643051
-9.61124
9.67989
0.586225
-9.57149
9.62832
0.529534
-9.59952
9.65621
0.475808
-9.57207
9.62579
0.426953
-9.56143
9.61029
0.382165
-9.54356
9.58835
0.341444
-9.56442
9.60514
0.304211
-9.54836
9.58559
0.271197
-9.5442
9.57721
0.240273
-9.54332
9.57424
0.212757
-9.53794
9.56545
0.18801
-9.54151
9.56626
0.165894
-9.54672
9.56883
0.145109
-9.51272
9.5335
0.126843
-9.40357
9.42183
0.0962152
-8.79847
8.82909
0.0464483
-6.95987
7.00964
-3.67669
3.72314
0.685768
-9.70963
0.617248
-9.56773
0.551464
-9.54546
0.500671
-9.5207
0.446031
-9.54488
0.392998
-9.51904
0.347127
-9.51556
0.307803
-9.50423
0.273527
-9.53014
0.242797
-9.51763
0.216239
-9.51764
0.191861
-9.51894
0.171006
-9.51708
0.152573
-9.52308
0.137167
-9.53131
0.12336
-9.49891
0.111393
-9.3916
0.0867845
-8.77386
0.0434296
-6.91651
-3.63326
0.584625
-9.63039
0.518827
-9.50194
0.459063
-9.4857
0.412459
-9.47409
0.362512
-9.49493
0.318249
-9.47477
0.281257
-9.47857
0.248192
-9.47117
0.219035
-9.50098
0.193418
-9.49201
0.171802
-9.49603
0.152196
-9.49933
0.136013
-9.5009
0.122476
-9.50954
0.111715
-9.52055
0.102489
-9.48969
0.0960807
-9.38519
0.078245
-8.75602
0.0411563
-6.87943
-3.5921
0.490097
-9.55721
0.426588
-9.43843
0.370527
-9.42963
0.327939
-9.43151
0.279726
-9.44672
0.236831
-9.43188
0.202891
-9.44463
0.174908
-9.44319
0.151925
-9.478
0.132637
-9.47272
0.117285
-9.48067
0.104082
-9.48613
0.0944346
-9.49125
0.0871223
-9.50223
0.0830861
-9.51652
0.0808255
-9.48743
0.0806243
-9.38499
0.0689668
-8.74436
0.0382684
-6.84873
-3.55383
0.393856
-9.48398
0.331709
-9.37628
0.28039
-9.37831
0.241282
-9.3924
0.198004
-9.40344
0.163708
-9.39758
0.138097
-9.41902
0.116121
-9.42121
0.0981703
-9.46005
0.083881
-9.45843
0.0733636
-9.47016
0.0648723
-9.47764
0.0597835
-9.48616
0.0572524
-9.4997
0.0576756
-9.51694
0.059888
-9.48964
0.0652618
-9.39037
0.0605
-8.7396
0.0361007
-6.82433
-3.51773
0.300753
-9.41319
0.242459
-9.31799
0.194998
-9.33085
0.157469
-9.35487
0.116228
-9.3622
0.0841459
-9.3655
0.0615509
-9.39643
0.0443314
-9.40399
0.0322559
-9.44798
0.0241018
-9.45028
0.019656
-9.46571
0.0173784
-9.47536
0.0186474
-9.48743
0.0222134
-9.50327
0.0293081
-9.52403
0.0383996
-9.49873
0.0498557
-9.40182
0.0513666
-8.74111
0.0333387
-6.8063
-3.48439
0.210032
-9.34312
0.151495
-9.25945
0.107532
-9.28689
0.0727546
-9.32009
0.036699
-9.32615
0.0130458
-9.34184
-0.00189957
-9.38148
-0.0133106
-9.39258
-0.0204397
-9.44085
-0.0237222
-9.447
-0.0234908
-9.46594
-0.0211498
-9.4777
-0.0154602
-9.49312
-0.00726924
-9.51146
0.00407397
-9.53538
0.0175512
-9.51221
0.0345284
-9.4188
0.0429816
-8.74957
0.031268
-6.79459
-3.45313
0.118881
-9.27069
0.0652686
-9.20584
0.0238922
-9.24551
-0.00966267
-9.28654
-0.0428671
-9.29294
-0.0639954
-9.32072
-0.0761152
-9.36936
-0.0831203
-9.38557
-0.0847489
-9.43922
-0.0821189
-9.44963
-0.0760343
-9.47203
-0.0676942
-9.48604
-0.0558885
-9.50492
-0.0417636
-9.52558
-0.0239062
-9.55323
-0.0036433
-9.53247
0.0192793
-9.44172
0.0340282
-8.76432
0.0285768
-6.78913
-3.42455
0.031558
-9.19444
-0.0218938
-9.15239
-0.0598318
-9.20758
-0.0920042
-9.25437
-0.119447
-9.2655
-0.132707
-9.30746
-0.137805
-9.36426
-0.139254
-9.38413
-0.136067
-9.4424
-0.128737
-9.45696
-0.118142
-9.48262
-0.105316
-9.49887
-0.0892485
-9.52099
-0.0706815
-9.54415
-0.0488616
-9.57505
-0.0243069
-9.55703
0.00410695
-9.47014
0.0257506
-8.78596
0.0265491
-6.78993
-3.398
-0.0536914
-9.11519
-0.105645
-9.10043
-0.141482
-9.17174
-0.172662
-9.22319
-0.196138
-9.24202
-0.206902
-9.29669
-0.209371
-9.3618
-0.206627
-9.38687
-0.198324
-9.45071
-0.185364
-9.46992
-0.169162
-9.49882
-0.150605
-9.51742
-0.128683
-9.54291
-0.104422
-9.56841
-0.0762935
-9.60318
-0.0451444
-9.58817
-0.0108851
-9.50439
0.0169697
-8.81381
0.0238302
-6.79679
-3.37417
-0.135315
-9.03349
-0.188635
-9.04711
-0.221561
-9.13881
-0.251192
-9.19355
-0.269311
-9.22391
-0.272775
-9.29323
-0.26884
-9.36573
-0.260853
-9.39486
-0.247957
-9.4636
-0.230512
-9.48736
-0.20997
-9.51937
-0.187093
-9.5403
-0.161079
-9.56893
-0.1326
-9.59689
-0.100782
-9.635
-0.0654972
-9.62346
-0.0258011
-9.54409
0.00874558
-8.84836
0.0218013
-6.80985
-3.35237
-0.216852
-8.94647
-0.269306
-8.99466
-0.300975
-9.10714
-0.328174
-9.16636
-0.342293
-9.20979
-0.3438
-9.29172
-0.337311
-9.37222
-0.325358
-9.40681
-0.307735
-9.48123
-0.285005
-9.51009
-0.259134
-9.54524
-0.230819
-9.56862
-0.199257
-9.60049
-0.16535
-9.6308
-0.127497
-9.67285
-0.0858936
-9.66506
-0.0404762
-9.58951
-4.94547e-05
-8.88879
0.0191283
-6.82903
-3.33324
-0.294124
-8.85425
-0.347494
-8.94129
-0.377359
-9.07728
-0.402921
-9.14079
-0.411808
-9.2009
-0.406541
-9.29699
-0.394095
-9.38466
-0.37729
-9.42361
-0.355371
-9.50314
-0.328418
-9.53705
-0.298391
-9.57526
-0.265941
-9.60107
-0.230464
-9.63597
-0.192593
-9.66867
-0.151315
-9.71413
-0.105773
-9.7106
-0.0550854
-9.6402
-0.00802889
-8.93584
0.017149
-6.85421
-3.31609
-0.371685
-8.75437
-0.425339
-8.88763
-0.453532
-9.04909
-0.475323
-9.119
-0.480493
-9.19573
-0.473993
-9.30349
-0.459076
-9.39958
-0.438514
-9.44418
-0.412274
-9.52938
-0.380439
-9.56888
-0.345389
-9.61031
-0.307816
-9.63864
-0.267122
-9.67666
-0.22411
-9.71168
-0.177127
-9.76111
-0.125625
-9.76211
-0.0694203
-9.6964
-0.0164887
-8.98878
0.014573
-6.88527
-3.30152
-0.443677
-8.64821
-0.498865
-8.83245
-0.525927
-9.02203
-0.545789
-9.09914
-0.545784
-9.19573
-0.533079
-9.31619
-0.512799
-9.41986
-0.487846
-9.46913
-0.457643
-9.55959
-0.421877
-9.60465
-0.382866
-9.64933
-0.341351
-9.68015
-0.296927
-9.72108
-0.250224
-9.75838
-0.200069
-9.81127
-0.144882
-9.81729
-0.0836966
-9.75759
-0.024568
-9.0479
0.012615
-6.92245
-3.2889
-0.516302
-8.53397
-0.572955
-8.77579
-0.598257
-8.99672
-0.613544
-9.08385
-0.610187
-9.19909
-0.596706
-9.32967
-0.573994
-9.44257
-0.54545
-9.49767
-0.511327
-9.59371
-0.471114
-9.64486
-0.427413
-9.69303
-0.381106
-9.72646
-0.331812
-9.77038
-0.280268
-9.80993
-0.224794
-9.86674
-0.164088
-9.878
-0.0977081
-9.82397
-0.0329031
-9.11271
0.010266
-6.96562
-3.27864
-0.58312
-8.41084
-0.6419
-8.71701
-0.66611
-8.97251
-0.678579
-9.07138
-0.669965
-9.20771
-0.651277
-9.34836
-0.624275
-9.46958
-0.591824
-9.53012
-0.554076
-9.63146
-0.510269
-9.68867
-0.462835
-9.74046
-0.412787
-9.77651
-0.359971
-9.82319
-0.305023
-9.86488
-0.246627
-9.92514
-0.182526
-9.9421
-0.111556
-9.89494
-0.0409797
-9.18329
0.0084074
-7.01501
-3.27023
-0.654107
-8.27772
-0.713822
-8.6573
-0.734996
-8.95134
-0.74309
-9.06329
-0.731458
-9.21934
-0.711685
-9.36813
-0.682027
-9.49923
-0.645979
-9.56617
-0.604535
-9.6729
-0.556636
-9.73657
-0.504817
-9.79228
-0.450281
-9.83105
-0.392909
-9.88057
-0.333414
-9.92437
-0.270117
-9.98844
-0.200973
-10.0112
-0.125107
-9.9708
-0.0490484
-9.25934
0.00625423
-7.07031
-3.26398
-0.708317
-8.14151
-0.777767
-8.58785
-0.799676
-8.92943
-0.804428
-9.05854
-0.787259
-9.23651
-0.762866
-9.39253
-0.729845
-9.53226
-0.690188
-9.60583
-0.645128
-9.71796
-0.593783
-9.78791
-0.538372
-9.84769
-0.480238
-9.88918
-0.419496
-9.94131
-0.356867
-9.987
-0.290803
-10.0545
-0.218613
-10.0834
-0.138862
-10.0506
-0.057413
-9.34079
0.00462734
-7.13235
-3.25935
-0.76072
-8.00531
-0.836073
-8.51249
-0.855794
-8.90971
-0.857361
-9.05697
-0.839954
-9.25391
-0.815157
-9.41732
-0.780801
-9.56661
-0.73831
-9.64832
-0.690377
-9.7659
-0.63565
-9.84264
-0.576701
-9.90664
-0.51445
-9.95143
-0.449864
-10.0059
-0.38294
-10.0539
-0.312903
-10.1245
-0.235858
-10.1605
-0.152533
-10.1339
-0.0652405
-9.42809
0.00236819
-7.19996
-3.25698
7.88791
-7.57746
-8.31575
7.23511
-7.8597
6.57242
-8.24702
5.97845
-8.463
5.45281
-8.72827
4.94286
-8.90737
4.45761
-9.08137
4.02703
-9.21774
3.62561
-9.36447
3.24965
-9.46668
2.89146
-9.54845
2.55389
-9.61386
2.23027
-9.68228
1.92313
-9.74679
1.6204
-9.8218
1.3549
-9.89498
1.06535
-9.84432
0.725453
-9.08819
0.290077
-6.76458
-2.9669
4.64426
-7.46297
-4.75875
4.48222
-7.69765
4.23731
-8.00212
4.00497
-8.23065
3.7363
-8.4596
3.46237
-8.63344
3.17988
-8.79888
2.90677
-8.94463
2.61985
-9.07754
2.34154
-9.18837
2.07724
-9.28415
1.83164
-9.36826
1.60291
-9.45355
1.39468
-9.53855
1.18781
-9.61493
0.998213
-9.70539
0.791723
-9.63783
0.528567
-8.82504
0.157885
-6.3939
-2.80902
3.33726
-7.53833
-3.2619
3.37387
-7.73427
3.33014
-7.95838
3.24616
-8.14668
3.10747
-8.32091
2.94778
-8.47375
2.76403
-8.61513
2.56766
-8.74827
2.35534
-8.86522
2.1457
-8.97874
1.93599
-9.07445
1.73011
-9.16237
1.52238
-9.24582
1.31801
-9.33418
1.11112
-9.40804
0.899106
-9.49337
0.690873
-9.4296
0.465046
-8.59921
0.207766
-6.13662
-2.60125
2.14428
-7.68892
-1.99369
2.23779
-7.82778
2.24824
-7.96883
2.22365
-8.12209
2.16361
-8.26086
2.08239
-8.39253
1.97501
-8.50776
1.84528
-8.61854
1.70018
-8.72011
1.5477
-8.82626
1.38945
-8.9162
1.23671
-9.00963
1.08103
-9.09014
0.932309
-9.18546
0.782572
-9.2583
0.624138
-9.33493
0.472863
-9.27832
0.328383
-8.45473
0.154392
-5.96263
-2.44686
1.51746
-7.81905
-1.38733
1.60265
-7.91297
1.66192
-8.0281
1.68407
-8.14423
1.66613
-8.24292
1.62322
-8.34962
1.56163
-8.44617
1.48284
-8.53975
1.38677
-8.62404
1.27692
-8.71641
1.16266
-8.80193
1.0391
-8.88607
0.909102
-8.96014
0.763655
-9.04002
0.611649
-9.1063
0.44777
-9.17106
0.297109
-9.12766
0.205048
-8.36267
0.126293
-5.88387
-2.32057
1.0098
-7.92969
-0.899165
1.0999
-8.00307
1.14767
-8.07587
1.16205
-8.15862
1.15651
-8.23738
1.12712
-8.32023
1.08289
-8.40194
1.02318
-8.48005
0.954994
-8.55586
0.872239
-8.63366
0.786878
-8.71657
0.691213
-8.79041
0.59057
-8.8595
0.475208
-8.92465
0.358807
-8.9899
0.244624
-9.05687
0.137358
-9.0204
0.100938
-8.32625
0.0959424
-5.87888
-2.22463
0.673749
-8.0053
-0.598135
0.725781
-8.0551
0.760483
-8.11058
0.787157
-8.18529
0.798954
-8.24917
0.789106
-8.31039
0.765929
-8.37876
0.725929
-8.44005
0.679153
-8.50908
0.615033
-8.56954
0.537617
-8.63915
0.449177
-8.70197
0.353483
-8.76381
0.249692
-8.82086
0.145043
-8.88525
0.041261
-8.95309
-0.0527835
-8.92635
-0.0547724
-8.32426
0.042836
-5.97649
-2.18179
0.463121
-8.05888
-0.409546
0.508471
-8.10045
0.54122
-8.14333
0.54578
-8.18985
0.533789
-8.23718
0.51298
-8.28958
0.478049
-8.34383
0.438141
-8.40014
0.390175
-8.46111
0.328446
-8.50781
0.253932
-8.56464
0.176404
-8.62444
0.0962846
-8.68369
0.0171959
-8.74177
-0.06507
-8.80298
-0.154324
-8.86384
-0.222094
-8.85858
-0.184663
-8.36169
0.00261586
-6.16377
-2.17917
0.271014
-8.08973
-0.240161
0.290196
-8.11963
0.299728
-8.15286
0.30168
-8.1918
0.295042
-8.23054
0.274863
-8.2694
0.243665
-8.31263
0.204025
-8.3605
0.152563
-8.40965
0.0969743
-8.45222
0.0359241
-8.50359
-0.0336864
-8.55483
-0.10757
-8.6098
-0.180811
-8.66853
-0.260593
-8.7232
-0.353394
-8.77104
-0.420943
-8.79103
-0.375501
-8.40713
-0.102667
-6.4366
-2.28184
0.171299
-8.10758
-0.153446
0.182837
-8.13117
0.187288
-8.15731
0.181482
-8.186
0.163088
-8.21215
0.135032
-8.24134
0.0998356
-8.27743
0.0509841
-8.31165
-0.00900815
-8.34966
-0.0639713
-8.39725
-0.124153
-8.44341
-0.197707
-8.48128
-0.274847
-8.53266
-0.365055
-8.57832
-0.455855
-8.6324
-0.550879
-8.67601
-0.637947
-8.70396
-0.611268
-8.43381
-0.265205
-6.78266
-2.54705
0.0680062
-8.11057
-0.0650251
0.0648414
-8.12801
0.0557314
-8.1482
0.0381136
-8.16838
0.0186805
-8.19272
-0.00260658
-8.22005
-0.0332796
-8.24676
-0.071202
-8.27373
-0.116045
-8.30482
-0.175301
-8.338
-0.246541
-8.37217
-0.323381
-8.40444
-0.410394
-8.44565
-0.511058
-8.47766
-0.619938
-8.52352
-0.726307
-8.56964
-0.828748
-8.60152
-0.831862
-8.4307
-0.472789
-7.14174
-3.01983
0.0128927
-8.10659
-0.0168703
0.0037758
-8.11889
-0.00902081
-8.1354
-0.027159
-8.15024
-0.0523913
-8.16748
-0.0876884
-8.18476
-0.127642
-8.20681
-0.17237
-8.229
-0.225242
-8.25194
-0.288832
-8.27441
-0.361489
-8.29951
-0.438993
-8.32693
-0.532365
-8.35228
-0.631592
-8.37843
-0.74705
-8.40806
-0.875282
-8.44141
-1.00318
-8.47362
-1.04335
-8.39054
-0.736192
-7.44889
-3.75603
-0.0338819
-8.09497
0.0222682
-0.0500237
-8.10275
-0.0714934
-8.11393
-0.0976591
-8.12407
-0.127284
-8.13786
-0.161474
-8.15057
-0.200438
-8.16784
-0.247127
-8.18231
-0.300458
-8.19861
-0.361077
-8.21379
-0.42843
-8.23216
-0.507872
-8.24749
-0.594138
-8.26601
-0.688592
-8.28398
-0.798154
-8.2985
-0.93168
-8.30788
-1.0887
-8.3166
-1.18922
-8.29001
-0.966653
-7.67146
-4.72268
-0.0614958
-8.08109
0.0476086
-0.0774656
-8.08678
-0.0965864
-8.09481
-0.119343
-8.10132
-0.145176
-8.11203
-0.176691
-8.11905
-0.215194
-8.12934
-0.259914
-8.13759
-0.308192
-8.15033
-0.363602
-8.15838
-0.427158
-8.1686
-0.497382
-8.17727
-0.575412
-8.18798
-0.66437
-8.19502
-0.763992
-8.19888
-0.874017
-8.19786
-1.00212
-8.1885
-1.11358
-8.17855
-0.941335
-7.84371
-5.66401
-0.0744018
-8.0636
0.0569134
-0.0942728
-8.06691
-0.117298
-8.07179
-0.142617
-8.076
-0.171969
-8.08267
-0.201091
-8.08993
-0.233438
-8.09699
-0.269377
-8.10165
-0.312479
-8.10723
-0.358761
-8.1121
-0.408894
-8.11847
-0.463061
-8.1231
-0.521272
-8.12977
-0.58735
-8.12894
-0.656328
-8.1299
-0.732959
-8.12123
-0.816568
-8.10489
-0.901175
-8.09394
-0.79497
-7.94991
-6.45898
-0.0678455
-8.04989
0.0541319
-0.0829235
-8.05183
-0.0997806
-8.05493
-0.118177
-8.0576
-0.138987
-8.06186
-0.16418
-8.06474
-0.192459
-8.06871
-0.221831
-8.07228
-0.252917
-8.07615
-0.287196
-8.07782
-0.324741
-8.08093
-0.36626
-8.08158
-0.412315
-8.08371
-0.460782
-8.08048
-0.5117
-8.07898
-0.563369
-8.06956
-0.60738
-8.06088
-0.654971
-8.04635
-0.615346
-7.98954
-7.07433
-0.0621968
-8.03753
0.0498433
-0.075471
-8.03856
-0.089844
-8.04055
-0.105534
-8.04191
-0.122808
-8.04459
-0.14121
-8.04634
-0.161243
-8.04868
-0.182851
-8.05067
-0.206191
-8.05281
-0.230459
-8.05355
-0.256343
-8.05504
-0.283072
-8.05485
-0.311194
-8.05559
-0.338251
-8.05342
-0.365809
-8.05142
-0.389031
-8.04634
-0.402981
-8.04693
-0.410942
-8.03839
-0.384931
-8.01555
-7.45926
-0.0466789
-8.02841