/*--------------------------------*- C++ -*----------------------------------*\
  =========                 |
  \\      /  F ield         | OpenFOAM: The Open Source CFD Toolbox
   \\    /   O peration     | Website:  https://openfoam.org
    \\  /    A nd           | Version:  9
     \\/     M anipulation  |
\*---------------------------------------------------------------------------*/
FoamFile
{
    format      ascii;
    class       volVectorField;
    location    "1.1";
    object      U;
}
// * * * * * * * * * * * * * * * * * * * * * * * * * * * * * * * * * * * * * //

dimensions      [0 1 -1 0 0 0 0];

internalField   nonuniform List<vector> 
46400
(
(7.84671 -7.68527 -1.65914e-19)
(16.3551 -15.5512 1.13213e-19)
(17.701 -17.6335 -5.78358e-20)
(17.1639 -17.7096 -5.83734e-20)
(16.6389 -17.7195 -4.37316e-20)
(16.0809 -17.7648 1.00903e-19)
(15.5899 -17.7845 -8.32968e-20)
(15.0615 -17.7759 4.49987e-20)
(14.6216 -17.8215 -5.10422e-20)
(14.206 -17.8793 5.6335e-20)
(13.7708 -17.8871 -6.08854e-20)
(13.3875 -17.9275 0)
(13.0219 -17.9839 4.19489e-19)
(12.6819 -18.0359 -4.80111e-19)
(12.3607 -18.1116 -6.1131e-19)
(12.0483 -18.1496 -1.05196e-19)
(11.7255 -18.2075 -2.83004e-20)
(11.4277 -18.1905 4.89783e-19)
(11.1378 -18.1735 6.73e-19)
(10.712 -18.3737 -6.20419e-19)
(8.17487 -7.35808 0)
(16.5298 -14.63 -2.88698e-20)
(17.6864 -16.403 0)
(17.0522 -16.5108 1.28562e-19)
(16.4951 -16.5324 -1.16693e-19)
(15.9125 -16.6182 2.98903e-20)
(15.4144 -16.6701 0)
(14.9047 -16.7293 -4.49974e-20)
(14.4638 -16.8176 5.10401e-20)
(14.0211 -16.8696 -5.63333e-20)
(13.6212 -16.9724 6.50288e-19)
(13.2161 -17.0022 3.52962e-20)
(12.8565 -17.1007 -5.37182e-19)
(12.5258 -17.1734 0)
(12.1955 -17.2612 7.38249e-20)
(11.9005 -17.3306 7.61013e-20)
(11.6178 -17.4388 0)
(11.372 -17.4835 -7.20177e-19)
(11.1219 -17.5232 -1.86404e-19)
(10.7926 -17.7341 7.33013e-19)
(8.43324 -6.90156 5.00531e-20)
(16.5614 -13.6966 -1.5685e-19)
(17.4645 -15.0619 1.48519e-19)
(16.8196 -15.2413 2.34622e-19)
(16.3211 -15.3485 -2.30339e-19)
(15.7673 -15.4862 0)
(15.2737 -15.6014 -7.20973e-19)
(14.7411 -15.6583 6.21676e-19)
(14.2931 -15.7803 -8.0092e-19)
(13.8786 -15.8932 7.92343e-19)
(13.446 -15.9826 7.54175e-19)
(13.0675 -16.0886 -7.37604e-20)
(12.6868 -16.1871 -6.54356e-19)
(12.3475 -16.2884 0)
(12.0303 -16.4179 8.09849e-19)
(11.7172 -16.5044 -7.9756e-19)
(11.4096 -16.6182 0)
(11.1501 -16.6986 -1.4962e-20)
(10.8715 -16.7742 9.37801e-20)
(10.506 -17.0169 -8.60447e-19)
(8.62172 -6.46694 -1.76736e-19)
(16.4856 -12.6799 4.11089e-20)
(17.2178 -13.8609 3.1735e-19)
(16.5377 -14.0595 -3.13402e-19)
(15.9791 -14.1695 -2.72377e-19)
(15.4092 -14.3295 3.69622e-19)
(14.9217 -14.4889 5.04328e-19)
(14.4226 -14.6222 -1.26971e-18)
(13.968 -14.7757 1.06289e-18)
(13.5419 -14.9012 -1.00013e-19)
(13.147 -15.0677 0)
(12.7456 -15.1545 1.04637e-19)
(12.3956 -15.3185 -1.06257e-19)
(12.0616 -15.429 0)
(11.7446 -15.58 9.42958e-19)
(11.4656 -15.714 -8.03249e-19)
(11.179 -15.8608 0)
(10.9463 -15.9823 1.09601e-19)
(10.7127 -16.1175 1.22429e-19)
(10.3577 -16.3834 9.80974e-19)
(8.76378 -6.01546 0)
(16.2865 -11.5896 0)
(16.7802 -12.5651 -4.35104e-19)
(16.1247 -12.8195 3.03232e-19)
(15.6256 -13.0274 -5.88541e-19)
(15.0853 -13.228 4.75923e-19)
(14.5957 -13.4338 0)
(14.0761 -13.5587 5.24286e-19)
(13.6317 -13.7651 -6.35074e-19)
(13.2271 -13.9387 -1.43212e-19)
(12.8134 -14.1152 -1.43767e-19)
(12.4442 -14.2773 0)
(12.058 -14.4277 1.08529e-18)
(11.7267 -14.5842 -1.06832e-18)
(11.4015 -14.7484 0)
(11.1013 -14.8932 -1.20026e-18)
(10.7985 -15.0512 1.05885e-18)
(10.5351 -15.168 1.06079e-18)
(10.2874 -15.3249 -1.15676e-18)
(9.957 -15.6335 0)
(8.9546 -5.54456 0)
(15.9221 -10.4083 0)
(16.3321 -11.3613 0)
(15.6435 -11.6235 -2.89041e-20)
(15.0866 -11.8497 0)
(14.5458 -12.0906 0)
(14.0825 -12.3607 0)
(13.6022 -12.5583 -1.63935e-19)
(13.1372 -12.7696 0)
(12.7375 -12.9719 1.4321e-19)
(12.3601 -13.2087 -2.00102e-20)
(11.9793 -13.3618 -1.39857e-18)
(11.6447 -13.5855 1.05402e-18)
(11.3147 -13.7418 -1.38209e-18)
(11.0117 -13.9554 1.0434e-18)
(10.7432 -14.1413 0)
(10.4678 -14.3442 -1.18968e-18)
(10.2233 -14.5013 1.01791e-18)
(9.97896 -14.6526 0)
(9.6469 -14.9761 -1.60223e-19)
(9.18277 -5.14178 5.98146e-19)
(15.4415 -9.25259 1.73163e-19)
(15.6526 -10.0819 6.7479e-19)
(15.0326 -10.431 -6.93938e-19)
(14.5297 -10.7576 -6.99407e-19)
(14.0136 -11.0256 1.39165e-18)
(13.5518 -11.3434 -1.58641e-18)
(13.0774 -11.5537 1.51516e-19)
(12.6435 -11.8298 5.09639e-19)
(12.2466 -12.0446 0)
(11.8765 -12.3173 -1.94086e-20)
(11.532 -12.5355 -1.8486e-20)
(11.1551 -12.736 1.6193e-19)
(10.8372 -12.928 1.34054e-18)
(10.5022 -13.1062 -1.17724e-18)
(10.2254 -13.3036 -1.49843e-18)
(9.94444 -13.5065 1.30569e-18)
(9.70543 -13.6867 -1.41073e-20)
(9.47795 -13.8634 -1.6586e-19)
(9.15384 -14.1806 -1.19395e-18)
(9.43323 -4.70904 -1.94814e-19)
(14.8358 -8.20885 3.13564e-20)
(14.9036 -8.93535 -2.09827e-19)
(14.2737 -9.29031 -8.28837e-19)
(13.761 -9.66261 5.7534e-19)
(13.2741 -9.97332 0)
(12.8586 -10.3537 1.19632e-18)
(12.4317 -10.6309 -5.77584e-19)
(11.9884 -10.9124 3.92145e-19)
(11.6078 -11.1596 2.04125e-19)
(11.2483 -11.4441 -3.87688e-19)
(10.9281 -11.6889 9.41554e-19)
(10.6353 -11.9824 1.9631e-19)
(10.3404 -12.2081 -1.11566e-18)
(10.0459 -12.4482 3.1196e-18)
(9.7724 -12.6444 -1.27019e-18)
(9.51647 -12.8876 1.60647e-18)
(9.27587 -13.0609 -1.05115e-18)
(9.06455 -13.2781 3.44434e-19)
(8.78174 -13.5888 1.65978e-18)
(9.62207 -4.31386 9.96068e-19)
(14.0661 -7.14143 -2.06877e-19)
(13.9637 -7.8126 -2.78759e-20)
(13.4782 -8.2388 4.48915e-19)
(13.007 -8.6903 2.11526e-19)
(12.5442 -9.01414 2.33954e-19)
(12.1317 -9.42313 -1.09723e-18)
(11.7401 -9.7255 6.63848e-19)
(11.3584 -10.0838 -2.06353e-19)
(10.9872 -10.3414 -2.04128e-19)
(10.6456 -10.6607 -2.01697e-19)
(10.3151 -10.8999 -2.15793e-19)
(9.96526 -11.1425 -4.08561e-19)
(9.70453 -11.3971 1.41557e-18)
(9.41415 -11.6416 -1.97975e-18)
(9.15305 -11.8555 -2.01321e-19)
(8.901 -12.0973 1.31666e-20)
(8.67949 -12.3013 -1.48921e-18)
(8.46451 -12.5112 1.11041e-18)
(8.22019 -12.8456 -1.76384e-18)
(9.68643 -3.99612 8.96805e-19)
(13.1923 -6.17954 -2.26763e-18)
(12.958 -6.85265 1.50095e-18)
(12.4746 -7.25207 -2.37439e-19)
(12.0516 -7.75456 -2.58549e-19)
(11.6344 -8.12235 1.00447e-18)
(11.2809 -8.57968 -1.21768e-18)
(10.9135 -8.91876 0)
(10.5333 -9.27609 9.41727e-19)
(10.2034 -9.58948 -9.2603e-19)
(9.88429 -9.92893 -6.75212e-19)
(9.64639 -10.2683 8.80578e-19)
(9.36969 -10.5848 2.12227e-19)
(9.0882 -10.8338 -8.62668e-19)
(8.84834 -11.1288 2.07823e-19)
(8.59285 -11.3529 1.03505e-18)
(8.3541 -11.606 -1.82713e-18)
(8.13594 -11.8118 1.20542e-18)
(7.9302 -12.0351 -1.11553e-20)
(7.6891 -12.3339 -1.6761e-18)
(9.4731 -3.59883 1.24121e-18)
(12.1937 -5.29872 -8.33307e-19)
(11.9209 -5.95228 5.56471e-19)
(11.5549 -6.40928 7.1438e-21)
(11.1651 -6.92942 -1.09475e-18)
(10.7602 -7.30301 -1.04339e-18)
(10.4134 -7.76835 1.29611e-18)
(10.1198 -8.1548 -7.62497e-19)
(9.79022 -8.55924 1.01071e-18)
(9.45676 -8.85231 0)
(9.11878 -9.18148 1.51563e-20)
(8.82378 -9.46068 2.31362e-19)
(8.57514 -9.80715 2.40808e-19)
(8.35039 -10.1006 -2.35847e-19)
(8.10524 -10.3962 0)
(7.90505 -10.6712 2.26092e-19)
(7.68025 -10.9402 0)
(7.48843 -11.1718 4.22489e-19)
(7.30049 -11.4176 2.06184e-18)
(7.09747 -11.7229 -1.35238e-20)
(9.04185 -3.13495 6.83201e-19)
(11.1457 -4.50066 -1.44108e-19)
(10.8063 -5.15705 -2.09413e-18)
(10.4109 -5.60273 1.17205e-18)
(10.0911 -6.17301 2.79239e-19)
(9.74145 -6.58402 -2.74887e-19)
(9.42114 -7.07195 -1.11653e-18)
(9.12569 -7.46191 8.31685e-19)
(8.86035 -7.91735 0)
(8.61706 -8.305 0)
(8.33536 -8.67143 -1.28096e-18)
(8.09774 -9.01204 1.01355e-18)
(7.82919 -9.33563 -2.40805e-19)
(7.61121 -9.6504 -7.29997e-19)
(7.40637 -9.9789 6.04692e-21)
(7.19426 -10.2527 1.6288e-18)
(7.01019 -10.5601 -9.10514e-19)
(6.81261 -10.7911 6.67904e-19)
(6.63934 -11.0526 -1.08367e-18)
(6.43768 -11.3403 0)
(8.43298 -2.64083 -5.92691e-19)
(10.0228 -3.74735 9.56175e-19)
(9.70099 -4.40498 1.63055e-19)
(9.41518 -4.90017 1.60233e-19)
(9.11614 -5.49107 0)
(8.78104 -5.90965 1.20218e-18)
(8.49853 -6.42117 -1.18112e-18)
(8.24289 -6.83018 1.4799e-19)
(7.93917 -7.2351 0)
(7.71398 -7.6123 1.10493e-18)
(7.44731 -7.98975 -9.48357e-19)
(7.20834 -8.3006 1.0567e-18)
(7.00586 -8.67538 -1.03989e-18)
(6.7829 -8.95623 1.00976e-18)
(6.60448 -9.3119 -8.67903e-19)
(6.43761 -9.60744 -9.6437e-19)
(6.27286 -9.93785 1.89239e-18)
(6.13416 -10.2241 -8.10819e-19)
(5.98124 -10.5139 1.14985e-19)
(5.83228 -10.8431 9.66277e-19)
(7.65529 -2.14921 -4.73633e-19)
(8.84098 -3.09342 5.10344e-19)
(8.47518 -3.7591 -1.63058e-19)
(8.11065 -4.22702 -1.60229e-19)
(7.90683 -4.86538 0)
(7.64106 -5.33232 0)
(7.3656 -5.85867 0)
(7.20482 -6.35977 -3.02194e-19)
(6.99833 -6.86335 -1.18115e-18)
(6.7938 -7.2735 2.31564e-18)
(6.61593 -7.72611 -1.27372e-18)
(6.39059 -8.06368 -1.40586e-19)
(6.18066 -8.42449 0)
(5.98996 -8.73911 0)
(5.77954 -9.03935 -2.57112e-19)
(5.61039 -9.33646 0)
(5.43496 -9.62479 9.77313e-19)
(5.28982 -9.9048 -1.20232e-18)
(5.14701 -10.1808 -1.04577e-18)
(5.00174 -10.5041 1.01248e-18)
(6.77847 -1.672 4.92443e-19)
(7.65392 -2.49235 8.89427e-19)
(7.35857 -3.20521 3.20528e-23)
(7.10117 -3.71492 -1.1324e-21)
(6.8594 -4.33764 1.69016e-19)
(6.62204 -4.792 -4.91201e-19)
(6.32293 -5.26542 0)
(6.07983 -5.66132 -4.72266e-19)
(5.90877 -6.15886 1.59715e-19)
(5.74087 -6.57324 6.0182e-19)
(5.58049 -7.03466 5.8356e-19)
(5.46512 -7.45524 -4.33583e-19)
(5.30143 -7.86204 1.11194e-18)
(5.16932 -8.23196 -9.56522e-19)
(5.01951 -8.59944 1.18987e-18)
(4.87628 -8.91357 -2.20795e-18)
(4.73296 -9.24954 1.01809e-18)
(4.5978 -9.52262 1.21741e-19)
(4.46836 -9.82314 9.60309e-19)
(4.33021 -10.1332 -1.04418e-18)
(5.75374 -1.2399 1.7146e-19)
(6.20979 -1.99742 -1.81295e-19)
(5.90677 -2.72295 7.25756e-19)
(5.62389 -3.21017 -7.12297e-19)
(5.55372 -3.94836 -3.46939e-19)
(5.47151 -4.53296 -8.45296e-19)
(5.31591 -5.11561 4.13562e-21)
(5.12495 -5.56751 6.50942e-19)
(4.91655 -6.01797 -1.55925e-19)
(4.76053 -6.43195 0)
(4.58256 -6.83511 0)
(4.4411 -7.21387 0)
(4.31049 -7.61064 0)
(4.18118 -7.95343 3.3827e-21)
(4.065 -8.32907 0)
(3.94865 -8.64164 1.31456e-19)
(3.83803 -8.98992 5.16962e-19)
(3.72936 -9.26972 -1.51829e-18)
(3.62846 -9.57689 1.1192e-18)
(3.51576 -9.88043 -1.05913e-18)
(4.80099 -0.972231 0)
(4.94763 -1.65882 -9.61171e-20)
(4.91753 -2.43909 0)
(4.58302 -2.86655 2.71625e-19)
(4.23348 -3.36963 -1.80991e-19)
(4.17406 -3.91327 -6.94563e-19)
(4.06037 -4.49237 4.19134e-21)
(4.00229 -5.01947 6.66415e-19)
(3.88718 -5.55036 -6.45675e-19)
(3.7844 -5.99725 1.2647e-18)
(3.68029 -6.48603 -5.30919e-21)
(3.56186 -6.86541 -6.0426e-19)
(3.46181 -7.31033 5.83904e-19)
(3.35225 -7.64984 -7.16237e-19)
(3.2561 -8.05261 0)
(3.15666 -8.36066 -5.4132e-19)
(3.06474 -8.72971 5.33245e-19)
(2.97489 -9.00651 0)
(2.89019 -9.32919 -1.24981e-19)
(2.80018 -9.63158 0)
(3.19164 -0.640282 9.85568e-20)
(3.28128 -1.33021 9.60836e-20)
(3.32911 -2.16495 0)
(3.43006 -2.84606 3.70086e-19)
(3.22179 -3.4386 -4.56606e-19)
(3.02863 -3.88144 2.64785e-19)
(2.90074 -4.44657 -7.80613e-19)
(2.77061 -4.85651 3.39488e-19)
(2.70295 -5.40872 -8.2941e-20)
(2.59695 -5.79173 0)
(2.54386 -6.3003 -7.88237e-20)
(2.4609 -6.6634 -7.68315e-20)
(2.40557 -7.11869 -7.48896e-20)
(2.33814 -7.46042 0)
(2.28157 -7.86937 -5.63362e-19)
(2.22143 -8.18658 1.17337e-18)
(2.16429 -8.55862 -1.00884e-18)
(2.10696 -8.84781 5.27594e-19)
(2.05213 -9.17121 6.43427e-20)
(1.99293 -9.47777 5.48362e-19)
(2.2907 -0.590929 -1.49866e-19)
(2.04451 -1.04773 -1.96758e-19)
(1.98073 -1.83835 6.32308e-22)
(1.95221 -2.37242 5.17952e-19)
(2.00905 -3.1612 -1.39302e-19)
(1.92954 -3.63087 -8.98217e-20)
(1.89139 -4.27513 8.84709e-20)
(1.80198 -4.69756 1.71767e-19)
(1.73961 -5.25155 8.29398e-20)
(1.68245 -5.65442 -3.23845e-19)
(1.61135 -6.14226 3.57611e-19)
(1.57116 -6.52281 7.68335e-20)
(1.50491 -6.96206 3.74619e-19)
(1.46781 -7.31476 -2.93744e-21)
(1.41166 -7.71503 3.29469e-20)
(1.37648 -8.04019 -6.2723e-19)
(1.32883 -8.4093 1.71647e-19)
(1.29628 -8.70652 0)
(1.25481 -9.0296 -3.19316e-20)
(1.2218 -9.34243 -2.76971e-19)
(0.27136 -1.08671 0)
(0.709635 -0.963706 -9.67943e-20)
(0.557947 -2.03263 1.03191e-19)
(0.659952 -2.31369 -4.77704e-20)
(0.540426 -3.10221 -4.675e-20)
(0.597474 -3.50967 0)
(0.530134 -4.18855 -8.79329e-20)
(0.561461 -4.59975 1.72139e-19)
(0.504722 -5.1882 -8.42674e-20)
(0.515308 -5.57369 8.14126e-20)
(0.485105 -6.09691 -4.03328e-20)
(0.483639 -6.45333 -7.72957e-20)
(0.46922 -6.92438 1.51384e-19)
(0.464597 -7.25445 -1.47531e-19)
(0.452043 -7.67999 3.64037e-20)
(0.44678 -7.9848 2.48932e-34)
(0.432915 -8.37343 -3.38814e-20)
(0.427202 -8.65158 1.99496e-19)
(0.413926 -8.98921 -9.84323e-20)
(0.407569 -9.28711 -7.03929e-20)
(-0.147254 1.47144 2.87157e-20)
(0.0515665 0.931952 0)
(0.60079 -1.50763 0)
(2.46514 -7.73956 2.32315e-20)
(5.62808 -16.9802 1.78291e-20)
(7.76937 -23.4472 2.22951e-20)
(8.78183 -26.6559 0)
(9.10253 -27.7163 2.01262e-20)
(9.15768 -28.0339 0)
(9.14309 -28.0643 0)
(9.10033 -28.0399 -1.69377e-20)
(9.02748 -27.9425 6.79309e-22)
(8.9231 -27.8361 3.60605e-20)
(8.89271 -27.8026 0)
(8.80942 -27.789 1.62198e-20)
(8.76023 -27.7075 1.59125e-20)
(8.66094 -27.6716 1.53852e-20)
(8.6328 -27.6599 0)
(8.53676 -27.6548 -2.78127e-20)
(8.50074 -27.5698 2.64704e-20)
(-0.19509 1.42558 7.53759e-20)
(0.330232 0.0233632 -1.23194e-19)
(1.29339 -4.17548 0)
(4.48946 -13.3271 -1.15324e-19)
(7.1725 -21.4277 1.1334e-19)
(8.72911 -25.9469 -2.00406e-19)
(9.22627 -27.4843 8.5341e-20)
(9.33896 -27.9407 6.02069e-20)
(9.34812 -27.9982 -2.594e-19)
(9.31096 -27.9698 1.41748e-19)
(9.21981 -27.8757 -1.85059e-20)
(9.14762 -27.7388 1.43239e-19)
(9.07665 -27.7226 -2.82447e-21)
(9.03716 -27.648 -1.35961e-19)
(8.93784 -27.606 -1.6468e-20)
(8.89914 -27.5378 -1.55787e-20)
(8.81257 -27.5469 -1.45097e-20)
(8.77993 -27.4644 0)
(8.6454 -27.4128 -1.10412e-19)
(8.61951 -27.3319 1.9592e-21)
(-0.0150862 1.09005 -2.23058e-20)
(0.550991 -1.52546 0)
(2.57821 -8.06342 0)
(6.37256 -18.022 -1.104e-20)
(8.42096 -24.341 4.56381e-20)
(9.35656 -26.9663 0)
(9.58721 -27.7663 -4.24478e-20)
(9.6323 -27.9118 1.13752e-19)
(9.59614 -27.8871 -1.09324e-19)
(9.51491 -27.7823 1.4709e-19)
(9.43442 -27.6576 -1.85186e-19)
(9.37965 -27.609 0)
(9.29447 -27.5308 -1.34497e-19)
(9.24497 -27.4585 -1.26425e-19)
(9.14894 -27.4339 2.23787e-19)
(9.11573 -27.3667 -2.37134e-19)
(9.00185 -27.3355 2.05238e-19)
(8.95009 -27.2165 0)
(8.83458 -27.2152 -2.34573e-19)
(8.81573 -27.1351 3.86615e-19)
(0.339456 0.490351 2.54733e-19)
(0.933498 -3.40021 0)
(4.30048 -12.5226 7.39609e-20)
(7.51847 -21.5251 1.39377e-19)
(9.21977 -26.1049 -2.77674e-19)
(9.71277 -27.5581 8.55367e-20)
(9.85425 -27.8814 4.01956e-20)
(9.8292 -27.8613 4.04053e-19)
(9.76286 -27.746 -6.05288e-19)
(9.68461 -27.6144 -6.68047e-20)
(9.62475 -27.547 3.28623e-19)
(9.54381 -27.4195 6.82929e-20)
(9.47181 -27.3671 -3.27256e-19)
(9.41979 -27.3038 3.20348e-19)
(9.32042 -27.2502 9.1046e-20)
(9.28043 -27.1627 -5.75098e-20)
(9.15467 -27.1201 8.38692e-20)
(9.12753 -27.0444 0)
(9.00222 -27.022 -2.33349e-20)
(8.97129 -26.8787 0)
(0.377875 -0.632729 0)
(1.75223 -5.50118 3.99036e-19)
(5.81617 -16.3223 -4.88923e-19)
(8.76628 -23.9459 4.73095e-19)
(9.87694 -27.0137 -3.73051e-19)
(10.1693 -27.7591 -8.78299e-20)
(10.1756 -27.7893 0)
(10.1331 -27.706 2.25467e-19)
(10.0399 -27.5457 -3.14487e-19)
(9.97543 -27.461 3.66093e-19)
(9.8877 -27.3131 -2.86703e-19)
(9.81666 -27.2446 -6.82928e-20)
(9.74042 -27.1781 3.19628e-19)
(9.66539 -27.0876 -5.5595e-19)
(9.56601 -27.0329 3.53986e-19)
(9.51174 -26.9492 -1.16229e-19)
(9.38253 -26.91 -2.68423e-19)
(9.34145 -26.7942 6.12113e-19)
(9.18727 -26.7664 -3.43922e-19)
(9.15884 -26.6174 -4.01949e-19)
(0.292656 -1.55462 4.22062e-19)
(2.84191 -8.49015 4.08661e-19)
(7.22832 -19.4839 -4.02957e-19)
(9.60767 -25.6194 -9.85752e-20)
(10.3372 -27.5022 9.26751e-20)
(10.4739 -27.777 3.34938e-19)
(10.4619 -27.7348 -3.18689e-19)
(10.3687 -27.5438 0)
(10.3008 -27.4185 3.00824e-19)
(10.2082 -27.2628 -2.95783e-19)
(10.1355 -27.1694 -2.71894e-19)
(10.0453 -27.0511 2.67485e-19)
(9.95952 -26.9638 0)
(9.88085 -26.8835 0)
(9.77872 -26.8125 5.05119e-19)
(9.70992 -26.7152 -4.95659e-19)
(9.57188 -26.6477 -4.07292e-19)
(9.53422 -26.5627 3.96046e-19)
(9.3759 -26.5308 -3.6239e-19)
(9.33737 -26.3413 4.3752e-19)
(0.453574 -2.49414 -3.23917e-19)
(4.13502 -11.2851 1.13264e-19)
(8.36366 -21.7102 9.56112e-21)
(10.4528 -26.5605 5.06441e-19)
(10.8784 -27.6738 0)
(10.9287 -27.7261 0)
(10.8612 -27.5675 6.3776e-19)
(10.7416 -27.338 -2.5704e-20)
(10.6586 -27.1875 -6.15324e-19)
(10.5666 -27.0735 5.58992e-19)
(10.4571 -26.9043 -5.49781e-19)
(10.3598 -26.8084 0)
(10.2698 -26.732 4.74399e-19)
(10.1657 -26.6271 -4.66925e-19)
(10.053 -26.5452 0)
(9.96461 -26.4438 0)
(9.82226 -26.3938 0)
(9.77131 -26.2792 0)
(9.57153 -26.2257 0)
(9.53237 -26.0179 -4.25205e-20)
(0.751048 -3.43665 3.41636e-19)
(5.4753 -13.7325 -5.55985e-19)
(9.52927 -23.4987 0)
(11.1811 -27.1709 0)
(11.3879 -27.6696 8.17861e-19)
(11.3502 -27.5809 5.22113e-20)
(11.2195 -27.3267 -7.63316e-19)
(11.1074 -27.1225 0)
(11.0108 -26.9879 7.28659e-20)
(10.8779 -26.7934 -6.82608e-20)
(10.7717 -26.6735 0)
(10.6566 -26.5561 6.01101e-20)
(10.5416 -26.4446 -5.10378e-19)
(10.4264 -26.3445 9.28106e-19)
(10.3064 -26.2556 -1.73339e-20)
(10.1975 -26.1549 -3.98091e-19)
(10.0481 -26.0695 -4.44607e-20)
(9.98194 -25.9727 4.17352e-20)
(9.77668 -25.9169 0)
(9.73935 -25.7007 3.66872e-20)
(1.29379 -4.44826 2.01401e-19)
(6.94226 -15.6129 1.14835e-19)
(10.6124 -24.5489 -6.76273e-19)
(11.8943 -27.2727 2.05051e-19)
(11.9694 -27.498 9.20503e-20)
(11.8697 -27.3205 7.59539e-19)
(11.7064 -27.0697 -1.07737e-18)
(11.5573 -26.8422 7.84425e-19)
(11.4241 -26.6576 -6.33153e-19)
(11.2845 -26.5179 7.50337e-19)
(11.138 -26.3386 1.22288e-19)
(11.0017 -26.2226 5.12579e-19)
(10.8787 -26.1328 -2.88178e-19)
(10.7399 -26.0155 -5.55949e-19)
(10.6017 -25.9182 4.9021e-19)
(10.4737 -25.8098 0)
(10.3204 -25.7477 1.26424e-19)
(10.2318 -25.6335 3.48746e-20)
(10.0034 -25.5608 -7.23088e-20)
(9.95574 -25.3276 3.00806e-20)
(2.15785 -5.52514 0)
(7.82151 -16.9318 3.37428e-19)
(11.7251 -25.2906 -8.10374e-22)
(12.5823 -27.2582 -3.99882e-19)
(12.541 -27.2346 -3.6422e-19)
(12.3659 -26.9686 -1.73557e-19)
(12.1675 -26.7003 -5.32046e-21)
(11.9923 -26.4805 -1.51523e-19)
(11.8429 -26.3343 0)
(11.6516 -26.1202 -1.3116e-19)
(11.4964 -25.9868 -1.22279e-19)
(11.3404 -25.8708 -7.36719e-21)
(11.1845 -25.7513 3.94042e-19)
(11.0276 -25.6424 -2.03684e-19)
(10.8759 -25.5461 -4.4263e-19)
(10.7252 -25.4475 3.4404e-19)
(10.5591 -25.3501 2.23058e-19)
(10.4463 -25.2535 -3.77238e-19)
(10.2236 -25.1897 7.23247e-20)
(10.1666 -24.9701 4.33062e-19)
(2.60235 -6.32162 -7.4362e-19)
(9.06027 -17.9963 8.83064e-19)
(12.682 -25.5305 -1.27379e-18)
(13.2937 -26.9154 1.01946e-18)
(13.1417 -26.8209 8.83207e-19)
(12.915 -26.5338 -6.97249e-19)
(12.6887 -26.2929 -9.06473e-19)
(12.4686 -26.0621 3.76713e-20)
(12.2696 -25.8644 5.41107e-19)
(12.07 -25.7169 -3.51371e-19)
(11.8727 -25.5392 8.90777e-19)
(11.6874 -25.4196 -5.30973e-19)
(11.5195 -25.3295 -9.902e-20)
(11.338 -25.2098 2.48773e-19)
(11.1625 -25.1124 -6.50957e-19)
(10.9937 -25.0122 3.10704e-19)
(10.8197 -24.9492 0)
(10.6803 -24.8466 -5.04145e-19)
(10.4379 -24.7729 4.96117e-19)
(10.36 -24.5403 -3.85378e-19)
(3.33905 -7.09162 2.29367e-19)
(9.99026 -18.8116 2.56079e-19)
(13.6361 -25.5766 1.09342e-18)
(13.9504 -26.5162 9.26224e-19)
(13.7068 -26.2988 -5.57191e-19)
(13.4515 -26.014 7.72696e-19)
(13.1684 -25.7522 -4.56808e-19)
(12.9202 -25.5361 5.14016e-19)
(12.707 -25.3937 -9.74791e-19)
(12.4488 -25.1837 3.45809e-19)
(12.2371 -25.0539 0)
(12.0303 -24.9449 0)
(11.827 -24.8348 0)
(11.6255 -24.7329 -6.04419e-19)
(11.4324 -24.6416 5.95073e-19)
(11.237 -24.5507 0)
(11.0426 -24.4537 0)
(10.8781 -24.3738 -5.02038e-20)
(10.6414 -24.3201 0)
(10.5565 -24.1052 -4.15087e-19)
(3.85655 -7.59052 -4.45098e-19)
(11.1425 -19.1214 -1.10414e-18)
(14.434 -25.221 -7.61603e-19)
(14.6378 -25.8596 -1.24368e-19)
(14.2859 -25.6612 9.8833e-19)
(13.9876 -25.3888 -2.04721e-19)
(13.6694 -25.1626 -4.49396e-20)
(13.369 -24.9505 -6.24037e-19)
(13.1014 -24.7648 0)
(12.8359 -24.6305 -2.90516e-19)
(12.5803 -24.4691 4.61752e-19)
(12.3425 -24.3644 0)
(12.1257 -24.2906 5.70496e-19)
(11.8986 -24.1828 -5.61536e-19)
(11.6805 -24.0994 4.675e-19)
(11.4725 -24.0202 -8.34271e-19)
(11.2709 -23.966 4.16705e-19)
(11.0817 -23.8836 5.02008e-20)
(10.8304 -23.8269 -3.50902e-20)
(10.7314 -23.6063 2.84993e-19)
(4.53451 -8.05507 -6.02732e-19)
(12.0936 -19.3618 4.25272e-20)
(15.1657 -24.811 6.28109e-20)
(15.2099 -25.164 1.35667e-18)
(14.7848 -24.9218 1.01445e-19)
(14.462 -24.6807 -6.97262e-19)
(14.1013 -24.4505 -4.64127e-19)
(13.7747 -24.2647 1.56139e-19)
(13.5004 -24.1453 4.97908e-19)
(13.1768 -23.9608 -5.04746e-19)
(12.908 -23.8513 2.42319e-19)
(12.6478 -23.7582 -5.90748e-19)
(12.3974 -23.6747 4.65333e-19)
(12.1541 -23.5978 -4.18152e-19)
(11.9166 -23.5252 3.69573e-19)
(11.6791 -23.4486 2.78803e-19)
(11.4516 -23.3683 -3.23062e-19)
(11.2414 -23.3197 2.27254e-19)
(10.9999 -23.298 -2.14371e-19)
(10.8892 -23.0946 -2.17436e-19)
(5.06041 -8.25624 -7.52869e-19)
(12.9879 -19.1682 -1.32618e-19)
(15.8068 -24.0978 6.95441e-19)
(15.7822 -24.3108 -5.82276e-19)
(15.2962 -24.1182 5.71568e-19)
(14.9213 -23.8893 1.27747e-19)
(14.532 -23.6951 0)
(14.1511 -23.5186 -8.44582e-20)
(13.8214 -23.3662 2.2094e-19)
(13.4948 -23.2641 -7.70647e-19)
(13.1807 -23.133 5.35797e-19)
(12.8924 -23.0568 1.09359e-19)
(12.6284 -23.0109 5.4803e-20)
(12.3583 -22.9305 0)
(12.0997 -22.8787 1.39917e-20)
(11.8572 -22.8297 2.23964e-19)
(11.6239 -22.7927 -3.30753e-20)
(11.3863 -22.7372 1.27018e-20)
(11.1349 -22.7205 -1.52354e-19)
(11.0164 -22.5215 2.63116e-20)
(5.66623 -8.41599 6.74856e-19)
(13.8156 -18.9859 -1.15014e-18)
(16.4224 -23.2833 6.33092e-19)
(16.2136 -23.3789 5.04165e-19)
(15.7034 -23.1766 -5.63638e-20)
(15.2845 -23.0043 -3.40074e-19)
(14.8648 -22.8221 7.77761e-20)
(14.4634 -22.6859 8.44528e-20)
(14.1318 -22.6054 0)
(13.7501 -22.4616 0)
(13.4276 -22.3895 -3.47742e-19)
(13.1165 -22.323 5.53429e-19)
(12.8229 -22.2808 -2.84665e-19)
(12.5428 -22.2416 0)
(12.2623 -22.2008 1.51194e-20)
(11.9876 -22.1501 -1.1828e-19)
(11.7277 -22.1029 1.12365e-19)
(11.4739 -22.0938 -1.43285e-20)
(11.2358 -22.1138 -1.4752e-20)
(11.1019 -21.9324 1.74438e-20)
(6.15872 -8.41767 -5.8796e-19)
(14.4992 -18.4742 7.33092e-19)
(16.8659 -22.2885 0)
(16.6274 -22.3492 0)
(16.0819 -22.2193 8.33191e-20)
(15.6252 -22.0625 -3.90477e-19)
(15.1808 -21.9249 2.28844e-20)
(14.7314 -21.8001 2.46325e-19)
(14.3501 -21.7025 -3.37813e-19)
(13.9742 -21.646 6.01458e-19)
(13.606 -21.5545 -2.64871e-19)
(13.274 -21.5162 4.39438e-20)
(12.9671 -21.5055 1.12468e-19)
(12.6603 -21.4659 -3.99938e-20)
(12.3683 -21.4599 -5.13332e-20)
(12.0965 -21.4461 8.30028e-21)
(11.8287 -21.4344 3.67793e-20)
(11.5441 -21.4115 -4.00534e-20)
(11.3016 -21.4418 1.43833e-20)
(11.169 -21.2841 -9.41876e-20)
(6.65269 -8.36713 0)
(15.1557 -17.9628 3.16256e-19)
(17.2488 -21.2934 -3.5941e-19)
(16.894 -21.262 0)
(16.3254 -21.137 -8.33068e-20)
(15.8296 -21.0485 2.1071e-19)
(15.3679 -20.9266 -2.64057e-19)
(14.9055 -20.852 0)
(14.5268 -20.8235 1.78314e-19)
(14.1013 -20.7341 -1.75334e-19)
(13.7338 -20.7109 6.80817e-22)
(13.3783 -20.6783 -1.31494e-20)
(13.0488 -20.684 -7.06565e-21)
(12.7378 -20.6873 -1.63513e-21)
(12.4209 -20.6904 1.12505e-19)
(12.1191 -20.6781 -2.47873e-19)
(11.83 -20.6809 3.04624e-19)
(11.5391 -20.709 -3.50232e-19)
(11.2915 -20.7575 1.6755e-19)
(11.1584 -20.643 -2.12415e-20)
(7.06985 -8.21177 0)
(15.6622 -17.1955 -3.39497e-19)
(17.4743 -20.094 1.89207e-19)
(17.1071 -20.1081 1.70334e-19)
(16.5505 -20.0458 -5.04287e-20)
(16.0232 -19.9889 -4.439e-20)
(15.5475 -19.9233 -1.13951e-19)
(15.046 -19.856 0)
(14.626 -19.8271 0)
(14.2182 -19.8256 0)
(13.8044 -19.7793 -6.80755e-22)
(13.4378 -19.7844 0)
(13.0943 -19.8138 2.12955e-19)
(12.7574 -19.8176 -1.80007e-19)
(12.4395 -19.8621 2.48784e-19)
(12.1413 -19.8865 -5.21072e-19)
(11.8347 -19.9141 2.71923e-19)
(11.5142 -19.931 3.59071e-19)
(11.2411 -19.9958 -6.43456e-19)
(11.1086 -19.8721 3.46316e-19)
(7.48518 -8.01742 0)
(16.1151 -16.4365 0)
(17.6738 -18.9326 6.17e-20)
(17.1695 -18.9409 4.73061e-20)
(16.604 -18.886 0)
(16.0461 -18.8885 1.67401e-20)
(15.5575 -18.8446 -1.6447e-20)
(15.0584 -18.8349 0)
(14.6424 -18.8636 -1.65777e-19)
(14.194 -18.8379 1.63008e-19)
(13.7953 -18.8684 0)
(13.402 -18.8619 3.02337e-19)
(13.046 -18.9186 1.01931e-20)
(12.7094 -18.9582 -3.32507e-19)
(12.3598 -18.9906 0)
(12.0355 -19.0138 0)
(11.7077 -19.0727 0)
(11.3972 -19.1028 4.18475e-19)
(11.066 -19.1257 -4.59116e-19)
(10.8994 -19.0774 0)
(7.82764 -27.3046 0)
(7.4625 -26.8571 0)
(6.5906 -26.7984 -2.19984e-21)
(6.16833 -26.6762 -2.08135e-21)
(5.5892 -26.7347 0)
(5.08066 -26.6429 6.93918e-24)
(4.60678 -26.6215 1.82531e-21)
(4.13996 -26.5755 0)
(3.75552 -26.6291 1.56527e-21)
(3.35047 -26.5789 0)
(3.02092 -26.561 -1.44157e-21)
(2.69842 -26.5508 -6.91116e-22)
(2.391 -26.5271 6.94691e-22)
(2.14024 -26.5322 1.27005e-21)
(1.87053 -26.5412 0)
(1.673 -26.448 -2.92548e-22)
(1.42128 -26.1435 1.27921e-21)
(1.26256 -24.4856 0)
(0.754219 -19.417 0)
(0.212889 -10.2826 1.05754e-21)
(7.96257 -27.0735 1.18839e-20)
(7.60199 -26.684 0)
(6.63548 -26.5987 1.04932e-20)
(6.23701 -26.5007 -6.2646e-21)
(5.64514 -26.5939 0)
(5.07854 -26.5298 -8.67178e-21)
(4.56448 -26.4924 3.43483e-21)
(4.08192 -26.4406 0)
(3.70693 -26.503 1.40445e-21)
(3.3061 -26.4629 -2.98529e-21)
(2.98482 -26.4566 4.18166e-21)
(2.66789 -26.461 -5.38634e-21)
(2.36993 -26.4541 3.91271e-21)
(2.12816 -26.4678 -1.32551e-21)
(1.86076 -26.4874 -1.22378e-21)
(1.67943 -26.3912 1.12467e-21)
(1.43327 -26.0878 -1.99085e-21)
(1.26765 -24.3838 -2.63664e-21)
(0.749049 -19.2402 -1.27638e-21)
(0.220395 -10.1389 -1.31898e-21)
(8.06045 -26.8503 -3.23597e-21)
(7.65881 -26.4538 -1.07074e-20)
(6.67477 -26.4111 -7.78436e-21)
(6.2898 -26.3674 0)
(5.65786 -26.4067 0)
(5.1022 -26.3263 9.87002e-21)
(4.63376 -26.3395 -3.60694e-22)
(4.16759 -26.3231 -2.78393e-22)
(3.78882 -26.4005 -2.78577e-22)
(3.38224 -26.3688 -5.63235e-21)
(3.05468 -26.3731 0)
(2.72983 -26.3739 0)
(2.42138 -26.3685 0)
(2.17073 -26.3869 -4.6117e-21)
(1.89723 -26.4108 0)
(1.70124 -26.3261 -4.31529e-21)
(1.445 -26.0335 3.5888e-21)
(1.27407 -24.3094 1.59396e-21)
(0.759196 -19.1426 2.58241e-21)
(0.226696 -10.0221 3.946e-21)
(8.1915 -26.5825 1.85577e-20)
(7.78576 -26.2617 -3.63772e-20)
(6.74427 -26.2035 3.93949e-22)
(6.36378 -26.1813 1.47661e-20)
(5.70476 -26.2495 0)
(5.1018 -26.2106 1.20371e-20)
(4.59767 -26.2157 -2.91768e-20)
(4.11285 -26.1894 1.69977e-20)
(3.73976 -26.2753 -1.07532e-20)
(3.33803 -26.2538 5.08732e-21)
(3.0168 -26.269 -2.42347e-22)
(2.69764 -26.2836 -4.73786e-21)
(2.39784 -26.2952 4.7609e-21)
(2.1564 -26.3222 2.39824e-21)
(1.88467 -26.3574 2.22382e-21)
(1.70712 -26.2693 4.31293e-21)
(1.45451 -25.9797 -4.36779e-21)
(1.2777 -24.2155 1.99096e-21)
(0.753631 -18.9811 -9.88758e-22)
(0.234845 -9.88325 -3.93977e-21)
(8.32754 -26.357 4.18154e-20)
(7.85789 -26.0163 8.6054e-21)
(6.79614 -26.0147 -1.42709e-20)
(6.41891 -26.0407 2.02867e-20)
(5.71537 -26.0509 0)
(5.12714 -26.0034 -5.59865e-21)
(4.66668 -26.0616 5.65462e-21)
(4.19736 -26.072 0)
(3.82034 -26.1727 3.47027e-22)
(3.4135 -26.1602 0)
(3.08499 -26.185 -9.45722e-21)
(2.75801 -26.1968 0)
(2.4475 -26.2097 0)
(2.19654 -26.2408 -8.34931e-21)
(1.91862 -26.2808 4.2215e-21)
(1.72483 -26.206 -3.928e-21)
(1.46302 -25.9272 0)
(1.28203 -24.1479 9.46859e-22)
(0.762755 -18.8942 -9.50049e-22)
(0.24229 -9.76812 0)
(8.45632 -26.0728 1.66458e-20)
(7.96811 -25.8017 -1.51102e-20)
(6.89382 -25.7971 3.12051e-20)
(6.48524 -25.8444 -3.2145e-20)
(5.74678 -25.8832 1.06029e-20)
(5.12972 -25.8867 5.61604e-21)
(4.63565 -25.9413 -9.7369e-21)
(4.14592 -25.9383 -9.41916e-21)
(3.77097 -26.0478 4.89768e-21)
(3.36951 -26.046 8.96745e-21)
(3.04585 -26.0812 -4.42043e-21)
(2.72472 -26.1062 0)
(2.42189 -26.1361 0)
(2.18005 -26.1759 3.01484e-22)
(1.90368 -26.2276 -4.00351e-21)
(1.72965 -26.149 3.92227e-21)
(1.46981 -25.8755 0)
(1.28407 -24.0632 -7.17648e-21)
(0.756177 -18.7489 -6.64898e-21)
(0.251587 -9.63408 -4.50164e-22)
(8.62164 -25.7825 -4.19589e-20)
(8.05192 -25.5454 4.59372e-20)
(6.95986 -25.6054 -1.25423e-20)
(6.5358 -25.6802 0)
(5.75241 -25.6723 -1.06477e-20)
(5.15725 -25.6797 1.93272e-20)
(4.7031 -25.7859 -9.62709e-21)
(4.22875 -25.8205 9.44564e-21)
(3.85001 -25.9453 0)
(3.4445 -25.9527 0)
(3.11224 -25.9967 8.12636e-21)
(2.78322 -26.0194 -8.15541e-21)
(2.46954 -26.0506 0)
(2.21754 -26.0939 1.15961e-20)
(1.93478 -26.1512 -3.77905e-21)
(1.74318 -26.0878 -3.5807e-21)
(1.47565 -25.8254 2.91563e-21)
(1.28614 -24.0036 8.9046e-21)
(0.764067 -18.6735 4.46788e-21)
(0.259989 -9.52129 8.63403e-22)
(8.73069 -25.509 0)
(8.15351 -25.307 -2.4429e-20)
(7.06486 -25.3755 2.45015e-20)
(6.58225 -25.4759 0)
(5.77608 -25.4993 0)
(5.16784 -25.5639 -1.7708e-20)
(4.67741 -25.6671 1.77611e-20)
(4.18154 -25.6863 0)
(3.80095 -25.8199 7.974e-21)
(3.40096 -25.8392 -1.5771e-20)
(3.07253 -25.8931 7.79653e-21)
(2.74932 -25.9288 7.40649e-21)
(2.44231 -25.9764 -7.42896e-21)
(2.19907 -26.0287 0)
(1.91762 -26.0979 0)
(1.74608 -26.0307 -3.40957e-21)
(1.48017 -25.7758 4.1325e-21)
(1.28709 -23.929 -1.4992e-23)
(0.756132 -18.546 -2.49685e-21)
(0.269656 -9.3922 8.28025e-22)
(8.90088 -25.1941 2.44658e-20)
(8.2276 -25.0467 -2.56531e-20)
(7.14476 -25.1724 -2.87916e-20)
(6.62601 -25.2832 3.77127e-20)
(5.77983 -25.281 -3.48467e-20)
(5.19823 -25.3584 5.7206e-22)
(4.74293 -25.5101 1.61965e-20)
(4.2626 -25.5675 0)
(3.87878 -25.7176 0)
(3.47514 -25.7464 6.91149e-21)
(3.13706 -25.8077 0)
(2.80572 -25.8419 0)
(2.48777 -25.8906 0)
(2.23371 -25.9462 0)
(1.94556 -26.0214 0)
(1.75466 -25.9721 0)
(1.4837 -25.7279 -2.59414e-21)
(1.28737 -23.8779 3.20324e-21)
(0.762383 -18.4808 -7.91415e-22)
(0.278119 -9.28243 7.91726e-22)
(9.03851 -24.8787 -2.41484e-20)
(8.32426 -24.7852 -3.357e-20)
(7.23865 -24.9351 -8.18778e-21)
(6.6502 -25.0657 -6.99795e-21)
(5.80469 -25.1091 8.38057e-21)
(5.21492 -25.2431 2.19893e-20)
(4.72153 -25.3907 6.69711e-21)
(4.21993 -25.4323 0)
(3.83104 -25.5911 -6.94813e-21)
(3.43275 -25.6333 1.2795e-20)
(3.0975 -25.7042 6.27896e-21)
(2.77169 -25.7513 6.12016e-21)
(2.45947 -25.8159 0)
(2.21345 -25.8805 5.99927e-21)
(1.92644 -25.9675 6.05069e-21)
(1.7549 -25.9147 0)
(1.48591 -25.6809 0)
(1.28748 -23.8142 0)
(0.752883 -18.373 0)
(0.286295 -9.15886 0)
(9.20958 -24.5119 8.96465e-20)