/*--------------------------------*- C++ -*----------------------------------*\
  =========                 |
  \\      /  F ield         | OpenFOAM: The Open Source CFD Toolbox
   \\    /   O peration     | Website:  https://openfoam.org
    \\  /    A nd           | Version:  9
     \\/     M anipulation  |
\*---------------------------------------------------------------------------*/
FoamFile
{
    format      ascii;
    class       volScalarField;
    location    "5";
    object      nut;
}
// * * * * * * * * * * * * * * * * * * * * * * * * * * * * * * * * * * * * * //

dimensions      [0 2 -1 0 0 0 0];

internalField   nonuniform List<scalar> 
46400
(
0.0224308
0.00847066
0.0024397
0.00173362
0.00172943
0.00166346
0.00157659
0.00154655
0.00147915
0.00144546
0.00137423
0.00132904
0.0012943
0.00126872
0.00123019
0.00122666
0.00117083
0.00110889
0.00146555
0.00116403
0.0219355
0.00718605
0.00176674
0.00169617
0.00166704
0.00166487
0.00157236
0.00153463
0.0014672
0.00142856
0.00138123
0.00134385
0.00128887
0.00123628
0.00119493
0.00115871
0.00108745
0.00100007
0.00126948
0.00112886
0.0213987
0.00646406
0.0015666
0.00176543
0.00168758
0.00166221
0.00157057
0.00154347
0.00147606
0.00143505
0.00136678
0.00131807
0.00128185
0.00124182
0.0011996
0.00117863
0.00109843
0.00104955
0.00137364
0.00113671
0.0208301
0.00533983
0.00150437
0.0017369
0.00162572
0.00164709
0.00154916
0.00151751
0.00145004
0.00142017
0.00137955
0.00133522
0.00128755
0.00123885
0.00119816
0.00116
0.00109674
0.00102704
0.00137266
0.00120526
0.0201883
0.00484504
0.00151918
0.00177156
0.00165086
0.00165214
0.00156718
0.00154269
0.00147585
0.00142598
0.00137271
0.00132297
0.00128727
0.00124625
0.00121137
0.00118907
0.00112044
0.00105437
0.00138561
0.00119889
0.0194414
0.00533082
0.00156615
0.00175918
0.00162598
0.00163762
0.00154695
0.00151412
0.00145992
0.00142022
0.0013807
0.00133516
0.00129746
0.00125498
0.00122014
0.00118577
0.00113152
0.00106259
0.00138276
0.00123264
0.0186811
0.00543641
0.00163757
0.00180507
0.00164121
0.00164616
0.00155977
0.00152114
0.00146788
0.0014195
0.00137728
0.00132704
0.00128717
0.00124965
0.0012237
0.001203
0.00114627
0.00106775
0.00137758
0.00123074
0.0178792
0.00544066
0.00164849
0.00183025
0.00166417
0.00163543
0.00156195
0.00150055
0.00144803
0.00139957
0.00136311
0.00132519
0.00128897
0.00124238
0.00121494
0.00119373
0.00115568
0.0010756
0.00135816
0.00125518
0.0166571
0.00459335
0.00167925
0.00182006
0.00166901
0.00163274
0.00155719
0.00149043
0.00143012
0.00137814
0.00133311
0.00129701
0.00127894
0.00123497
0.00119736
0.0011734
0.00113074
0.00106797
0.00129884
0.00120572
0.0149947
0.00360364
0.00167262
0.00174429
0.00168343
0.00162045
0.00157839
0.00151447
0.00145883
0.00139691
0.00133832
0.00126931
0.00123984
0.00121877
0.00118439
0.0011601
0.00111947
0.00105622
0.00126024
0.00118937
0.0126745
0.0030424
0.00172983
0.00170591
0.0016402
0.00159209
0.00154257
0.00147097
0.00141505
0.00137
0.00135584
0.00130285
0.00123744
0.00120615
0.00117741
0.00114792
0.00111225
0.00104784
0.00120624
0.00114938
0.0100787
0.0025056
0.00171123
0.0016662
0.00163647
0.00154999
0.00152238
0.00148978
0.00143625
0.00134677
0.00130255
0.00127932
0.00122779
0.00117812
0.00115053
0.00111366
0.00108193
0.0010295
0.00114866
0.0010959
0.00837292
0.00216572
0.00169148
0.00162626
0.00159364
0.00151883
0.00147501
0.001437
0.00145838
0.00140495
0.00133603
0.00129064
0.00126431
0.00120642
0.0011759
0.00114184
0.00109258
0.00104794
0.00113244
0.00106602
0.00669359
0.00195173
0.00172684
0.00158563
0.00159445
0.00153515
0.00147591
0.00135063
0.00131371
0.00131699
0.00128453
0.00123741
0.00121915
0.0011844
0.00115073
0.00113324
0.00108859
0.00104887
0.00113252
0.00106758
0.00564299
0.00177709
0.00170049
0.00158
0.00153892
0.0014641
0.00151981
0.00146143
0.00136436
0.00130431
0.00128778
0.00123747
0.00120148
0.00117046
0.00111978
0.00110005
0.0010614
0.00101735
0.00108311
0.00103926
0.00483196
0.00172597
0.00173416
0.00165655
0.00162276
0.00142259
0.0013661
0.00136859
0.00134209
0.00127992
0.00125669
0.00123081
0.00118597
0.00116857
0.00113385
0.00109976
0.00107049
0.00101736
0.0010696
0.00102199
0.00458785
0.00163501
0.0016233
0.00150114
0.00159299
0.0015664
0.0014806
0.00137803
0.00136163
0.00131758
0.00124912
0.00122595
0.00118349
0.00114896
0.00112452
0.00108902
0.0010573
0.00100714
0.0010333
0.000999957
0.00421661
0.00173019
0.00157665
0.00143649
0.00140576
0.00142318
0.00143532
0.00137833
0.00133578
0.00129496
0.00125323
0.00121195
0.00118224
0.00115069
0.00111776
0.00109671
0.00106043
0.00101776
0.00103334
0.000998784
0.00415992
0.00178667
0.0016772
0.00159923
0.00149429
0.00139641
0.00136003
0.00131985
0.00128586
0.00124529
0.00122592
0.0011905
0.00114522
0.00111298
0.00107793
0.00106075
0.00102781
0.000994031
0.00100362
0.000980127
0.0034637
0.00165981
0.00154123
0.00154896
0.00152416
0.00148777
0.00142153
0.00137131
0.00134932
0.0012965
0.00125635
0.00121203
0.00118735
0.00114676
0.00111376
0.00107982
0.00105198
0.000997569
0.00101406
0.000976683
0.00943035
0.0158313
0.0119258
0.0020639
0.000271803
0.00087471
0.0010775
0.00104629
0.000982676
0.000943406
0.000923015
0.00093799
0.000946157
0.000947754
0.000951362
0.00104601
0.00111825
0.0011558
0.00108182
0.000938418
0.0121381
0.0160814
0.0109231
0.000788516
0.000618659
0.00107596
0.0011535
0.00107565
0.00104358
0.00100582
0.000992062
0.000962647
0.000951971
0.000966142
0.000980619
0.00105681
0.00110708
0.00115696
0.00105463
0.000911686
0.0148261
0.0160933
0.00997914
0.00028774
0.000779682
0.00120604
0.0012331
0.00114365
0.00108277
0.00104544
0.00102569
0.0010346
0.00103565
0.00102069
0.00101965
0.00111839
0.00117395
0.00119895
0.00107236
0.000942682
0.0176027
0.0160088
0.00818537
0.000562413
0.00100715
0.0012833
0.00124728
0.00118849
0.00113979
0.00108892
0.00106684
0.00103126
0.00102209
0.00103533
0.0010478
0.0011138
0.00114919
0.00120909
0.00106411
0.000931756
0.0189445
0.0159815
0.00607844
0.000306696
0.0011876
0.00136407
0.00129019
0.00122411
0.00116613
0.00112708
0.00110537
0.00110771
0.00109852
0.00107283
0.00107845
0.00117286
0.00120521
0.00122414
0.00106914
0.000964045
0.02065
0.0156046
0.0046173
8.3694e-05
0.00129572
0.00139993
0.00131826
0.00126864
0.00121444
0.00115675
0.00113322
0.00109482
0.00108613
0.00108857
0.00108834
0.00114196
0.00118242
0.00125952
0.00106555
0.000953434
0.0209851
0.0154888
0.00331351
0.000457845
0.00137035
0.00143789
0.00136907
0.00128634
0.00123591
0.00119062
0.0011627
0.00115926
0.00114312
0.00111573
0.00112384
0.00119704
0.00121005
0.0012498
0.001069
0.000981394
0.0217378
0.0151181
0.00234627
0.000588009
0.00147935
0.00145581
0.00139644
0.00133751
0.00127685
0.00121789
0.00118958
0.001147
0.00113722
0.00112632
0.00110827
0.00115542
0.0011997
0.00128713
0.00106289
0.00097019
0.0224714
0.014753
0.00180293
0.000828626
0.00151836
0.00149427
0.00143859
0.00134493
0.00129461
0.00124156
0.0012095
0.0012008
0.0011755
0.00115328
0.00115637
0.00119833
0.00121344
0.00128237
0.0010802
0.00100684
0.0229711
0.0143907
0.00132113
0.00100726
0.0015768
0.00149745
0.00145442
0.00138799
0.00132667
0.00126695
0.00122926
0.00118668
0.00117489
0.00114893
0.00111781
0.00114894
0.00118889
0.00129832
0.00105726
0.000990924
0.0234573
0.0139718
0.00140137
0.00114816
0.00159969
0.00153235
0.00149428
0.00139745
0.00134098
0.0012853
0.00125087
0.00123132
0.00119929
0.00118766
0.00117939
0.00118932
0.00120494
0.0012917
0.0010698
0.00102341
0.023716
0.0135525
0.0016292
0.00127457
0.00162992
0.00152662
0.00149511
0.00142658
0.0013662
0.00130386
0.00125967
0.00122112
0.00119801
0.00115996
0.00112458
0.00113465
0.00117009
0.00129928
0.00104372
0.00100987
0.0239783
0.0131017
0.0019634
0.00136997
0.00167495
0.00155685
0.00153418
0.00144765
0.00138213
0.00132492
0.00128418
0.00125844
0.00122564
0.00121752
0.00119253
0.00116933
0.00117286
0.00127253
0.00104638
0.0010357
0.0240461
0.012624
0.00239787
0.00141441
0.00168734
0.00155931
0.001519
0.00145925
0.00140196
0.00133945
0.0012874
0.00124885
0.001215
0.00117829
0.00114617
0.00113644
0.00115362
0.00126939
0.00101397
0.0010357
0.0241177
0.0123559
0.00265312
0.00148943
0.00171518
0.00159302
0.0015581
0.00148768
0.00141769
0.0013631
0.00131887
0.00128913
0.00125086
0.00123742
0.00119981
0.0011585
0.00115154
0.00123355
0.000997504
0.00104849
0.0239998
0.0119557
0.00257054
0.00150095
0.00169658
0.00159568
0.00154611
0.00148916
0.00143797
0.00137534
0.00131466
0.00128143
0.00124453
0.00121426
0.00118195
0.0011535
0.00115096
0.00122328
0.000963388
0.00106615
0.0238669
0.0116307
0.00253889
0.00160862
0.00172832
0.00162082
0.00157413
0.00151891
0.00144699
0.00140667
0.00135757
0.00131918
0.00127391
0.00125914
0.0012266
0.00118156
0.0011637
0.00118972
0.000917765
0.00106886
0.023566
0.0109825
0.0023349
0.00158185
0.00170626
0.0016269
0.00157113
0.0015209
0.00146601
0.00140529
0.00134802
0.00132321
0.00128337
0.00124898
0.0012164
0.00119125
0.00118753
0.00119746
0.000876645
0.00108771
0.0232937
0.0102358
0.00254439
0.00168561
0.00173992
0.00164936
0.00158395
0.00154488
0.00147707
0.00144945
0.00138841
0.00134521
0.00130705
0.00129562
0.00126174
0.0012304
0.00123189
0.00120655
0.000849526
0.00104586
0.0228485
0.0090915
0.00235135
0.00164604
0.00169996
0.00165355
0.00158348
0.00154258
0.00148066
0.00143511
0.00139088
0.00137088
0.00133198
0.00129916
0.00128207
0.00129686
0.00131131
0.00127731
0.00104563
0.00121528
0.00656686
0.00480559
0.00380209
0.00300314
0.00263326
0.00219658
0.00186597
0.00149919
0.00125629
0.0010361
0.000839312
0.000673454
0.000537418
0.000454956
0.000488013
0.000986507
0.00251464
0.00657559
0.0104509
0.0143088
0.00643773
0.00475641
0.00385493
0.0029781
0.00267542
0.00223688
0.00189255
0.00151169
0.00127138
0.00104527
0.000833432
0.00066563
0.000535258
0.00045723
0.000484718
0.000985843
0.00249176
0.00657157
0.0104249
0.0142901
0.00602545
0.00480366
0.00388494
0.00292603
0.00261106
0.0021691
0.00183921
0.00146966
0.00123994
0.00101961
0.000813657
0.000648568
0.000512584
0.00043208
0.000444338
0.000962557
0.00247741
0.00657024
0.0104085
0.0142951
0.00661645
0.00476661
0.00390561
0.00292225
0.00265945
0.00221088
0.00186292
0.00148908
0.00125582
0.00102929
0.000811494
0.000649266
0.000516069
0.000433951
0.00042831
0.000954622
0.00245373
0.00655383
0.010386
0.014281
0.00677783
0.00478176
0.00390401
0.00286646
0.00258987
0.00214823
0.00180985
0.00145114
0.00122413
0.00100586
0.000792752
0.000632819
0.000494353
0.000409686
0.00039418
0.000930664
0.00243359
0.00654751
0.0103867
0.0142844
0.00682944
0.00476984
0.0039317
0.00287741
0.00263769
0.00218761
0.00183267
0.00147586
0.00124014
0.00101869
0.000796072
0.00064006
0.000501624
0.00041012
0.000376443
0.000925061
0.00239103
0.0065012
0.01036
0.0142847
0.00704922
0.00477379
0.00391365
0.0028202
0.00257303
0.00213014
0.00178099
0.00144227
0.00120948
0.000998651
0.000779592
0.000626255
0.000482942
0.000385582
0.000341987
0.000875416
0.00235543
0.00647093
0.010349
0.0142972
0.00698812
0.00478429
0.00393535
0.00283326
0.0026128
0.00216743
0.00180376
0.00147042
0.00122474
0.00101393
0.000788383
0.000638745
0.000494358
0.000386309
0.000321526
0.000857638
0.00228639
0.00644661
0.0103882
0.0143122
0.00712484
0.00478269
0.00391875
0.00277713
0.00254662
0.00211115
0.00175377
0.00144188
0.00119639
0.000996012
0.000772997
0.000629116
0.000481094
0.000369583
0.00029977
0.000835976
0.00225244
0.00641584
0.0104274
0.0143237
0.00709439
0.0047833
0.00393594
0.00279822
0.00258613
0.00214708
0.00177362
0.00147202
0.00121054
0.00101367
0.000784802
0.00064559
0.000497741
0.000378798
0.000295852
0.000794836
0.00217847
0.00640127
0.0104692
0.0143389
0.0071709
0.00477201
0.00392113
0.00274024
0.002513
0.00209967
0.00172579
0.00144845
0.00118491
0.000997759
0.000771865
0.000639508
0.000491817
0.000370812
0.000250307
0.000728058
0.0020959
0.00635173
0.0104994
0.0143859
0.00715359
0.00473755
0.00393667
0.00277871
0.00254577
0.00213016
0.0017449
0.00147798
0.00120047
0.00101788
0.000786651
0.000657309
0.000512675
0.000395847
0.000277956
0.000671298
0.00201317
0.00635305
0.0105105
0.014429
0.00719338
0.00469592
0.00390727
0.0027229
0.00247449
0.00209542
0.00170121
0.00145689
0.0011792
0.0010045
0.000778374
0.000653866
0.00050981
0.000396621
0.000145628
0.000622527
0.00192536
0.00630126
0.0105157
0.0144737
0.00718906
0.00461961
0.0039111
0.002772
0.00248863
0.00212073
0.00172268
0.00148299
0.0011972
0.00102517
0.00079447
0.000671414
0.000530735
0.000429052
0.000249395
0.000572413
0.00181496
0.00628065
0.0104908
0.0146273
0.0072267
0.00453381
0.00384879
0.00272938
0.0024236
0.00209269
0.00168676
0.00146456
0.0011818
0.0010159
0.000791029
0.000670115
0.00052526
0.000421341
0.000184859
0.00055092
0.00172867
0.00624301
0.0104407
0.0147376
0.0072668
0.0044265
0.00380823
0.00277156
0.00241906
0.00210848
0.00170674
0.00148385
0.00119921
0.00103403
0.00080657
0.000685615
0.000546482
0.000445177
0.000272455
0.00054769
0.00161749
0.00619223
0.0103881
0.0147185
0.00736986
0.00432391
0.00370295
0.00273705
0.0023586
0.00207706
0.00167583
0.00146565
0.00118626
0.00102582
0.000804666
0.00068276
0.000536889
0.000429868
0.000322605
0.000517261
0.00152168
0.0061153
0.0103945
0.0147179
0.00743067
0.00421998
0.0036319
0.00278593
0.00237
0.00210231
0.00170755
0.00149358
0.00121174
0.00104906
0.000825696
0.000703926
0.00056766
0.000470905
0.000347285
0.000489544
0.00140788
0.00611339
0.0104342
0.0147466
0.00741611
0.00418906
0.00343398
0.00272535
0.00230694
0.0020584
0.00167642
0.00147661
0.00120315
0.00104464
0.000826156
0.000702719
0.000560197
0.000460261
0.000357824
0.000455064
0.00130229
0.00609473
0.0105056
0.0147912
0.00790643
0.0041487
0.00329053
0.00274013
0.00229294
0.0020313
0.00165743
0.00145238
0.00119191
0.00103287
0.00082515
0.000706577
0.000581715
0.000489638
0.000380523
0.000393139
0.00115081
0.00580192
0.0103734
0.0145539
0.0141523
0.0430712
0.0324931
0.0296707
0.0251188
0.0222431
0.0179028
0.0156324
0.0126807
0.0110448
0.00877156
0.00736474
0.00604396
0.00525937
0.00479508
0.00456516
0.00528834
0.0553608
0.098513
0.134554
0.0373052
0.0263331
0.0220656
0.0197211
0.0167088
0.0146367
0.0121828
0.0103258
0.00852909
0.00721882
0.00623223
0.0056468
0.00506671
0.00466385
0.00426087
0.00443599
0.0110186
0.0570662
0.0964875
0.131994
0.0174645
0.0163633
0.0161325
0.0131561
0.012103
0.0105888
0.00948868
0.00860634
0.00778996
0.00715115
0.00662415
0.00630513
0.00589573
0.00552632
0.00510277
0.00446195
0.00984097
0.0559443
0.0937908
0.132472
0.0126751
0.0112831
0.00987439
0.00988023
0.00927193
0.00877099
0.00798729
0.00740359
0.00677426
0.00635844
0.00579508
0.00525779
0.00468758
0.00442866
0.00408893
0.00339402
0.00878868
0.054824
0.0949135
0.129085
0.00714685
0.00839718
0.00867534
0.0071458
0.00663193
0.00603752
0.00583251
0.00555765
0.0053506
0.00502929
0.00488363
0.00463277
0.00464949
0.00433043
0.00436711
0.00365228
0.00662784
0.0530916
0.0951159
0.128964
0.00569267
0.00514451
0.00430474
0.00531825
0.00530442
0.0051852
0.00488871
0.0048799
0.0046905
0.00460485
0.00436638
0.004234
0.00412747
0.00402351
0.00388327
0.00295728
0.00681781
0.0473046
0.0960507
0.129292
0.00350242
0.0042885
0.00483654
0.00418892
0.00391492
0.00383008
0.00381299
0.00388288
0.00380192
0.00381048
0.00372614
0.00368817
0.00357442
0.00355015
0.00342289
0.00272393
0.00568018
0.0397805
0.096857
0.130859
0.00281827
0.00268772
0.00231891
0.00275146
0.00296583
0.00334255
0.0032798
0.00339749
0.00335587
0.00340962
0.00337378
0.00343488
0.00329313
0.00341983
0.00327391
0.00277306
0.00486673
0.0329454
0.0972458
0.133961
0.00192373
0.00220702
0.00257943
0.00269323
0.00257491
0.00251317
0.00276004
0.00289316
0.00293409
0.00309372
0.00303871
0.00320991
0.00310633
0.00323618
0.00317823
0.00262043
0.00398163
0.0246574
0.0970303
0.13894
0.00150775
0.00160129
0.0015184
0.00170065
0.00199432
0.00234059
0.00231922
0.00257789
0.002628
0.00285494
0.00292902
0.00315235
0.0031779
0.00321521
0.00324551
0.00322804
0.00317497
0.018771
0.0951724
0.145816
0.00120623
0.0014559
0.00164112
0.00187082
0.00189915
0.00204087
0.00218789
0.0023243
0.00249116
0.00265828
0.0027245
0.00295904
0.00304821
0.00339269
0.00324241
0.0034019
0.00333784
0.0123692
0.0913172
0.155712
0.00104422
0.00117567
0.00124643
0.0014019
0.00160551
0.00185013
0.00196315
0.00218986
0.00228519
0.00251158
0.00265085
0.00286613
0.00300085
0.00336331
0.00354036
0.00369522
0.00256784
0.00663921
0.0756121
0.166297
0.000995965
0.00119106
0.00132142
0.00153605
0.00159997
0.00176452
0.00183137
0.00201905
0.0021341
0.00236815
0.00250992
0.00282182
0.00302612
0.00329149
0.0035826
0.00412759
0.00365919
0.00591524
0.0577134
0.179764
0.000912601
0.00101974
0.00106308
0.00123954
0.00132829
0.00146657
0.00160538
0.00181565
0.00196713
0.00216057
0.00235503
0.00253536
0.0028272
0.0030132
0.00341454
0.00385218
0.00473435
0.00740623
0.041221
0.18971
0.000878405
0.000971389
0.00100882
0.00114837
0.00122725
0.00135903
0.00136717
0.00155568
0.00162245
0.00183539
0.00192365
0.00217754
0.00235332
0.00274093
0.00303652
0.00325115
0.00393652
0.00715422
0.0203762
0.134014
0.000696367
0.000783227
0.000816044
0.00089163
0.000999401
0.00112209
0.00119001
0.00126022
0.00136241
0.00152149
0.00161814
0.00184912
0.00195904
0.00232632
0.00238835
0.0029102
0.00279952
0.0043827
0.00793201
0.0831867
0.000660698
0.000679294
0.000677001
0.000699292
0.000691283
0.000753059
0.000792947
0.00086971
0.000915039
0.00105127
0.00107247
0.00126676
0.00128742
0.00155164
0.00164411
0.00206171
0.00231381
0.00277399
0.00282457
0.037412
0.000439238
0.000449427
0.000449056
0.000455817
0.000477955
0.000551528
0.000596563
0.00069149
0.000707103
0.000792255
0.000818305
0.00091318
0.000941975
0.00101815
0.00100095
0.00113556
0.00116627
0.00119538
0.00230946
0.0174401
0.000239279
0.000232996
0.000242022
0.000266544
0.000296705
0.000324214
0.000330489
0.000367739
0.000410925
0.000450554
0.000505523
0.000554318
0.000605102
0.000660075
0.000771547
0.000732095
0.000826489
0.00069424
0.000693388
0.00644613
0.00012688
0.000125885
0.000109029
0.000123017
0.000157123
0.000199569
0.000245814
0.000288353
0.000343913
0.000387139
0.000431962
0.000480577
0.000524511
0.000576958
0.000592247
0.000678306
0.000613582
0.000677765
0.00061643
0.00117514
0.0140965
0.0141696
0.0143087
0.0143955
0.014516
0.0145762
0.0148374
0.0142164
0.014704
0.0151371
0.0142744
0.0125181
0.0132108
0.0127182
0.0126251
0.0120433
0.0120502
0.011031
0.0108975
0.0110712
0.00695581
0.00697493
0.00699916
0.00697035
0.00693858
0.00694881
0.00698896
0.00656794
0.00759202
0.0083817
0.00682008
0.00685796
0.00759889
0.006981
0.00646107
0.00709823
0.00714988
0.00637946
0.00642352
0.00805275
0.00419058
0.00424386
0.00425772
0.004362
0.00446226
0.00457252
0.00470786
0.00480815
0.0046003
0.00437171
0.00436805
0.00543427
0.00544031
0.00467307
0.00329234
0.00316967
0.00287927
0.00340463
0.00384244
0.004221
0.00267848
0.00270322
0.00268003
0.00272774
0.00274736
0.00279814
0.00276441
0.00264247
0.00248613
0.00268191
0.00248524
0.00231799
0.00287729
0.00347666
0.00312024
0.0031704
0.00266221
0.00266439
0.00183027
0.00256803
0.00157411
0.00160083
0.00162434
0.00165974
0.00172972
0.00174279
0.00169628
0.00177644
0.00187345
0.00205034
0.00199189
0.00197477
0.00173849
0.00184541
0.00186355
0.00139942
0.00120555
0.00131783
0.00103959
0.00102788
0.00114792
0.00119793
0.0012359
0.00125066
0.00125815
0.00120343
0.00116449
0.00116386
0.00111526
0.00110452
0.00100587
0.00117994
0.0010564
0.00109948
0.00137613
0.00157013
0.00125332
0.000926916
0.000890446
0.00137486
0.000700122
0.000741524
0.000750336
0.000753525
0.000713087
0.000662799
0.000640211
0.000656755
0.000659555
0.000725505
0.000824351
0.000934473
0.000981981
0.00107071
0.000764222
0.000701687
0.000546623
0.000630294
0.000517928
0.00025714
0.000505655
0.00051473
0.000518616
0.000518311
0.000501126
0.000457363
0.000454678
0.000470058
0.000486991
0.000504295
0.000522514
0.000537978
0.000516539
0.000565509
0.000542831
0.000465141
0.000440837
0.000581953
0.000601467
0.000717464
0.000273046
0.00027843
0.000287053
0.000281757
0.000257984
0.000257563
0.000292204
0.000313563
0.00031945
0.000316163
0.000323221
0.000330432
0.000343952
0.000358157
0.000368897
0.000375368
0.000359715
0.000366056
0.000318374
0.000365154
0.000177419
0.00018309
0.000181234
0.000175287
0.000170913
0.000175068
0.00020253
0.000221937
0.000248439
0.000248954
0.000254723
0.00026585
0.000281122
0.00028481
0.000294391
0.000298981
0.000303488
0.000310712
0.000300976
0.000328825
0.00010274
0.000106255
0.000108747
0.000116719
0.000130436
0.000148437
0.000166312
0.000174268
0.000177069
0.000174412
0.000176948
0.000179064
0.000189213
0.000193104
0.000191516
0.000194169
0.000201868
0.000212228
0.000209807
0.000227978
6.25743e-05
6.05755e-05
7.0568e-05
8.10028e-05
9.86408e-05
0.000120088
0.000137668
0.000134661
0.000128595
0.000131626
0.000144886
0.000159313
0.000162408
0.000150303
0.000157684
0.000159065
0.000177671
0.000178389
0.000188826
0.000233835
9.69023e-05
9.44641e-05
9.61256e-05
0.000102638
0.000108645
0.000111085
0.000118738
0.000126406
0.000137075
0.000148962
0.000165434
0.000171114
0.000176827
0.00018107
0.00019808
0.000201531
0.000191896
0.000193603
0.000215034
0.000230253
0.0001352
0.000140237
0.000143785
0.000142557
0.000143489
0.000140377
0.000132499
0.000130629
0.000145388
0.000151973
0.000153672
0.00015585
0.00016297
0.000167617
0.000177535
0.000188318
0.000196089
0.000191062
0.000193078
0.000207739
0.000143789
0.000150606
0.000155671
0.000159567
0.000161621
0.000167208
0.000171775
0.000171448
0.00016119
0.00015587
0.000153919
0.000153061
0.000155102
0.000156911
0.000161234
0.000168072
0.000187087
0.00019471
0.000191209
0.000200893
0.000124406
0.000123624
0.00012532
0.0001294
0.000133888
0.000137808
0.000145884
0.000157582
0.00017156
0.000175859
0.00017536
0.000171773
0.000167479
0.000164012
0.000158583
0.000152565
0.000140673
0.00014116
0.000151188
0.000162666
0.000126689
0.000127037
0.000125939
0.000123566
0.00012228
0.000119835
0.000116102
0.000113291
0.000112833
0.000117626
0.000123708
0.000131851
0.000139955
0.000146504
0.000150704
0.000154729
0.000163849
0.000165965
0.000161805
0.000164741
9.47596e-05
9.48435e-05
9.56244e-05
9.6696e-05
9.73934e-05
9.97255e-05
0.000100565
9.8103e-05
9.71747e-05
9.79134e-05
9.63505e-05
9.33479e-05
8.93645e-05
8.8744e-05
8.84313e-05
8.998e-05
8.67001e-05
8.90209e-05
9.11515e-05
9.77714e-05
8.49103e-05
8.32495e-05
8.10771e-05
7.83161e-05
7.90499e-05
7.71855e-05
7.36976e-05
7.28451e-05
7.11488e-05
7.109e-05
7.13715e-05
6.90515e-05
6.79674e-05
6.68506e-05
6.8209e-05
6.88183e-05
6.86571e-05
6.65137e-05
6.27612e-05
6.46207e-05
5.41708e-05
5.30427e-05
5.20422e-05
4.91707e-05
4.51184e-05
4.06909e-05
3.93178e-05
3.85846e-05
3.71469e-05
3.5834e-05
3.66438e-05
3.87429e-05
3.90043e-05
3.78026e-05
3.32789e-05
3.24281e-05
3.14603e-05
3.5276e-05
3.42725e-05
3.23686e-05
0.000971474
0.00114884
0.000865882
0.000941774
0.000966241
0.000995868
0.00102201
0.00102779
0.0010512
0.00108533
0.0011313
0.00116728
0.00122998
0.00125329
0.00133036
0.00132991
0.00142576
0.00123927
0.00495291
0.0179653
0.000909653
0.00103128
0.000815987
0.00090228
0.00096229
0.000991542
0.00102469
0.00107251
0.0011171
0.00114594
0.00117478
0.00119884
0.0012598
0.00128962
0.00136841
0.00136037
0.00148512
0.00123264
0.00428404
0.0175504
0.000971485
0.00112949
0.000840861
0.000891274
0.000942326
0.000973861
0.00100456
0.00103951
0.00106616
0.00109677
0.00114185
0.00118188
0.0012481
0.00127754
0.00134952
0.00134805
0.00147814
0.00124863
0.00369101
0.0170662
0.00101206
0.00111605
0.000864887
0.000982649
0.00102335
0.00102398
0.00105131
0.00109614
0.00112196
0.00115265
0.00118312
0.00123043
0.00130081
0.00133727
0.00140868
0.00142228
0.00154409
0.00135934
0.00473023
0.0163915
0.00102492
0.00111808
0.000867902
0.000929113
0.000935194
0.000984848
0.00104088
0.00106919
0.00109003
0.00113612
0.00119462
0.00125409
0.00130592
0.00133356
0.00140803
0.00141498
0.00154407
0.00139596
0.00473285
0.0157699
0.00102528
0.00113582
0.000904232
0.000969357
0.00102994
0.0010767
0.0010769
0.0010932
0.00113007
0.00119164
0.00122908
0.00127044
0.00131462
0.00136237
0.00142112
0.00146176
0.00160885
0.00149179
0.00451894
0.0149923
0.00103922
0.00110161
0.000865344
0.00094876
0.000985048
0.000989765
0.00102491
0.00107383
0.00113557
0.00119105
0.00121077
0.00125934
0.00129956
0.00134072
0.00140875
0.00145138
0.00153922
0.00145972
0.00370968
0.0139236
0.00100049
0.0010239
0.000866411
0.000961441
0.000989344
0.00104781
0.00110152
0.00116691
0.00120351
0.00120087
0.00121771
0.00128047
0.00130447
0.00137192
0.0014113
0.00147807
0.00156377
0.00155885
0.00286447
0.0115454
0.00100466
0.00107185
0.000957628
0.00100662
0.00106408
0.00109773
0.00109402
0.00111648
0.00110485
0.00113109
0.00119195
0.00123169
0.00125438
0.00130733
0.00134518
0.00141212
0.00145149
0.00153115
0.00227961
0.00924484
0.00101011
0.00106852
0.000930528
0.000985435
0.00101726
0.00100387
0.00103167
0.00107612
0.00111236
0.00117577
0.00120071
0.00123102
0.0012526
0.00134666
0.00139551
0.00146936
0.00151182
0.00159687
0.00202842
0.00736955
0.0010346
0.00105447
0.000940252
0.000998301
0.000996522
0.00101645
0.00105238
0.00105941
0.00107347
0.00108724
0.00111254
0.00115708
0.0012584
0.00138811
0.00137992
0.00143557
0.00148393
0.00157707
0.00168578
0.00578012
0.000939382
0.00091676
0.0008584
0.000880968
0.000912603
0.000944004
0.000975714
0.00102688
0.0010895
0.00118465
0.00126637
0.0013846
0.00148756
0.00145127
0.00137414
0.00149223
0.00151804
0.00155518
0.00156313
0.00466928
0.00094687
0.00097787
0.000915836
0.000975926
0.00102509
0.00106218
0.00113988
0.00118981
0.00124907
0.00127734
0.00128513
0.00130649
0.0012268
0.0011683
0.00124281
0.00142963
0.00145762
0.0015416
0.00143423
0.00387568
0.000952917
0.000953239
0.000921314
0.000975492
0.000998441
0.00105205
0.00106591
0.00107686
0.00109185
0.00107915
0.00112429
0.00113934
0.00116693
0.00133843
0.00156629
0.00170204
0.00156557
0.00157872
0.00155355
0.00394257
0.000947527
0.000976809
0.000953133
0.000997524
0.00104742
0.00106713
0.00108127
0.00111924
0.00113176
0.00119306
0.00124914
0.00128395
0.00137635
0.00145595
0.00142748
0.00128473
0.00122633
0.00141876
0.00156808
0.00424667
0.00094717
0.000987142
0.000963082
0.00101594
0.00104017
0.00104615
0.00108544
0.00110315
0.00115259
0.00121174
0.00122225
0.00127905
0.00129578
0.00130795
0.00125526
0.00126029
0.00141875
0.00161653
0.00184051
0.00425685
0.000960866
0.000992327
0.000950445
0.00100382
0.00101092
0.00105532
0.00108159
0.00113736
0.00118142
0.0012222
0.00124091
0.00129431
0.0013039
0.00133662
0.00140228
0.00149708
0.00156129
0.00149211
0.00163217
0.00281549
0.000923777
0.000956021
0.000941052
0.00100972
0.00103004
0.00109259
0.00110426
0.00117599
0.00116875
0.00122615
0.00123613
0.00130403
0.00132457
0.00141518
0.00141712
0.00152822
0.00146464
0.00167361
0.00178213
0.00161657
0.000935249
0.000989182
0.00096857
0.00103354
0.00105249
0.0010951
0.00110486
0.00114648
0.00116244
0.00120925
0.00122495
0.00128901
0.00132943
0.00140814
0.00144467
0.00153962
0.00160977
0.00173261
0.00160239
0.00143333
0.000939062
0.000973722
0.000953117
0.00101605
0.00103388
0.00107679
0.00110237
0.0011536
0.00117541
0.00124319
0.00128543
0.00133753
0.00139904
0.00144349
0.00151833
0.00157659
0.00166346
0.00157336
0.00151396
0.00245699
0.00039801
0.000288111
0.000310988
0.000350934
0.000339374
0.00030899
0.000314004
0.000328298
0.000336025
0.000382681
0.000438435
0.000359519
0.000185371
0.000206574
0.00191711
0.00587154
0.0102423
0.0100334
0.00526725
0.000141619
0.000477603
0.000383728
0.000297624
0.000330291
0.000377512
0.000371787
0.000368033
0.000328743
0.000381922
0.000400622
0.000450023
0.000459419
0.000348647
0.000203897
0.000613925
0.00385711
0.00863078
0.0111045
0.00847978
0.000795906
0.000530866
0.000507252
0.000391261
0.000364965
0.000387788
0.00037972
0.000413144
0.000392774
0.000377258
0.000428824
0.000466033
0.000489405
0.000433897
0.000290882
0.000190048
0.00183363
0.00694266
0.0113643
0.00952691
0.00214497
0.000546271
0.000527767
0.000422483
0.000408341
0.000455535
0.00041182
0.000415712
0.000407389
0.00043548
0.000439415
0.000476892
0.000532373
0.000508298
0.000407352
0.000115635
0.00053593
0.00526116
0.0107331
0.0108036
0.00503227
0.000562147
0.00059891
0.000503755
0.000402592
0.000467125
0.000475922
0.000494042
0.00045377
0.000449467
0.000509915
0.000531
0.000528313
0.000596546
0.000553651
0.000358332
0.000209566
0.00268908
0.00954388
0.011705
0.00699536
0.000521346
0.000558233
0.00055962
0.000480529
0.000522345
0.000469705
0.000494521
0.000514724
0.000511618
0.000514142
0.00057129
0.000617644
0.000605487
0.000614317
0.000525714
0.000202025
0.0012613
0.00854259
0.0121284
0.00900424
0.000549109
0.000582287
0.000555677
0.000453427
0.000534327
0.000545851
0.000543361
0.00051158
0.000535648
0.000592031
0.000600586
0.000623686
0.000661893
0.00072733
0.000697845
0.000436993
0.000447134
0.00731401
0.0122814
0.0114722
0.000535962
0.000569773
0.000615497
0.000525892
0.000577519
0.000539514
0.000574806
0.000604789
0.000589375
0.000608901
0.00067906
0.000714206
0.000706364
0.000734267
0.000738142
0.000556099
0.000286414
0.00500849
0.0122544
0.0133085
0.000577658
0.000584943
0.000596368
0.0005082
0.000593764
0.000600457
0.000586039
0.00057924
0.00062459
0.000672564
0.000681745
0.000716534
0.000766767
0.000825446
0.000890093
0.000780406
0.000313721
0.00333214
0.0120495
0.015447
0.000602906
0.000608396
0.000678736
0.000576943
0.000630627
0.000610426
0.000641708
0.000673855
0.000665988
0.000704354
0.000772035
0.000806062
0.000814516
0.000843188
0.000889504
0.0008871
0.000251314
0.0022288
0.0116599
0.015995
0.000667354
0.000634005
0.000670077
0.000579039
0.000658509
0.000664885
0.000648436
0.000662787
0.000718171
0.000757167
0.00077589
0.000810457
0.000852596
0.000930538
0.000991657
0.000989175
0.000461373
0.00142135
0.0113689
0.0170205
0.000657314
0.00064182
0.000732109
0.000628432
0.000673589
0.00066721
0.000699267
0.000735604
0.000743609
0.000788595
0.000846191
0.000880491
0.000904221
0.000953321
0.000986564
0.00106163
0.000661974
0.00112587
0.0108815
0.0175652
0.000719876
0.000663657
0.000738313
0.000663034