/*--------------------------------*- C++ -*----------------------------------*\
  =========                 |
  \\      /  F ield         | OpenFOAM: The Open Source CFD Toolbox
   \\    /   O peration     | Website:  https://openfoam.org
    \\  /    A nd           | Version:  9
     \\/     M anipulation  |
\*---------------------------------------------------------------------------*/
FoamFile
{
    format      ascii;
    class       volScalarField;
    location    "5";
    object      p;
}
// * * * * * * * * * * * * * * * * * * * * * * * * * * * * * * * * * * * * * //

dimensions      [0 2 -2 0 0 0 0];

internalField   nonuniform List<scalar> 
46400
(
-146.077
-135.876
-117.488
-102.044
-87.7439
-74.6507
-62.8065
-51.8282
-41.8112
-32.5011
-23.9099
-15.8929
-8.44056
-1.43007
5.21542
11.5435
17.4941
23.7153
30.0374
32.6997
-109.231
-99.4033
-82.5249
-68.1632
-55.17
-43.1143
-32.2975
-22.2597
-13.1572
-4.75624
2.93307
10.0387
16.6164
22.6899
28.3421
33.5747
38.4089
43.2207
47.6035
49.2069
-71.9544
-62.2526
-47.0459
-34.0352
-22.3872
-11.582
-1.93798
6.97153
15.046
22.4897
29.2866
35.5405
41.2793
46.5689
51.4525
55.9316
59.9736
63.9826
67.2737
67.6599
-34.587
-26.2863
-12.9629
-1.0737
9.32148
19.077
27.72
35.6869
42.8365
49.3569
55.2663
60.6358
65.54
69.9787
74.0492
77.7417
81.0681
84.3277
87.1422
87.2229
1.70167
8.5077
20.4943
31.2725
40.6038
49.2578
56.8652
63.8193
70.0365
75.6873
80.77
85.3657
89.5164
93.2567
96.6309
99.6535
102.303
104.909
107.093
106.706
35.3477
41.2004
52.4078
62.2847
70.6729
78.4285
85.159
91.2362
96.6
101.381
105.652
109.431
112.83
115.836
118.539
120.928
123.018
125.058
126.785
126.141
67.9525
73.9609
84.1875
93.0683
100.33
106.995
112.692
117.783
122.248
126.201
129.691
132.758
135.462
137.828
139.902
141.693
143.203
144.67
145.958
145.017
99.7488
106.51
115.189
122.924
129.11
134.695
139.458
143.59
147.18
150.266
152.961
155.259
157.258
158.963
160.443
161.692
162.712
163.708
164.645
163.584
131.543
138.989
145.57
151.828
156.791
161.146
164.847
167.996
170.691
172.962
174.894
176.505
177.84
178.914
179.777
180.431
180.891
181.344
181.707
180.418
162.033
168.976
174.31
179.067
183.068
186.377
189.169
191.405
193.248
194.691
195.839
196.716
197.374
197.828
198.118
198.235
198.185
198.14
198.021
196.457
191.342
196.709
200.803
204.272
207.145
209.462
211.36
212.821
213.952
214.739
215.275
215.54
215.612
215.485
215.231
214.825
214.29
213.761
213.173
211.393
217.434
221.653
224.906
227.403
229.464
230.95
232.08
232.762
233.161
233.25
233.131
232.805
232.311
231.663
230.89
230.01
229.006
228.022
226.974
224.946
240.485
243.849
246.326
248.012
249.366
250.142
250.661
250.791
250.688
250.278
249.655
248.817
247.835
246.705
245.467
244.125
242.686
241.254
239.774
237.471
261.303
263.927
265.713
266.715
267.369
267.519
267.359
266.868
266.164
265.256
264.176
262.936
261.555
260.067
258.476
256.809
255.049
253.304
251.53
249.034
279.566
281.503
282.76
283.139
283.313
282.922
282.359
281.413
280.266
278.88
277.355
275.679
273.893
272.007
270.044
268.018
265.922
263.843
261.76
259.113
295.606
296.899
297.654
297.527
297.157
296.277
295.217
293.856
292.35
290.635
288.795
286.823
284.76
282.605
280.391
278.119
275.793
273.482
271.214
268.395
309.497
309.981
310.256
309.697
308.996
307.81
306.389
304.671
302.78
300.721
298.539
296.257
293.89
291.472
288.994
286.496
283.946
281.429
278.968
276.101
321.274
321.127
320.733
319.759
318.601
317.125
315.45
313.516
311.423
309.153
306.769
304.281
301.715
299.092
296.426
293.733
291.005
288.296
285.662
282.662
329.254
329.24
328.584
327.502
326.056
324.332
322.369
320.198
317.882
315.409
312.85
310.185
307.476
304.701
301.914
299.093
296.264
293.435
290.708
287.652
335.313
335.316
334.671
333.569
332.094
330.246
328.174
325.841
323.38
320.736
318.026
315.188
312.33
309.393
306.459
303.489
300.523
297.562
294.716
291.57
-483.949
-483.329
-474.897
-459.904
-442.061
-424.907
-409.036
-393.753
-379.247
-365.464
-352.344
-339.824
-327.893
-316.456
-305.617
-295.132
-285.33
-275.832
-267.025
-258.606
-498.904
-498.484
-485.97
-467.955
-448.035
-429.243
-411.781
-395.438
-379.969
-365.383
-351.527
-338.387
-325.901
-314.005
-302.763
-291.92
-281.844
-272.067
-263.105
-254.445
-510.225
-509.963
-493.797
-473.151
-451.717
-431.572
-412.824
-395.395
-379.04
-363.646
-349.113
-335.381
-322.382
-310.042
-298.396
-287.242
-276.885
-266.863
-257.726
-248.865
-519.547
-515.902
-496.886
-474.344
-452.027
-431.191
-411.708
-393.568
-376.569
-360.631
-345.588
-331.413
-318.028
-305.372
-293.443
-282.035
-271.491
-261.262
-252.019
-242.945
-521.539
-516.28
-497.397
-473.159
-449.846
-428.123
-408.054
-389.311
-371.795
-355.41
-340
-325.507
-311.839
-298.939
-286.782
-275.238
-264.542
-254.159
-244.911
-235.607
-519.669
-514.65
-492.544
-468.08
-444.687
-422.578
-402.149
-383.143
-365.299
-348.616
-332.93
-318.194
-304.337
-291.291
-279.03
-267.403
-256.647
-246.248
-237.075
-227.757
-513.923
-508.99
-487.709
-461.252
-437.257
-414.729
-393.835
-374.466
-356.4
-339.545
-323.753
-308.938
-295.011
-281.922
-269.619
-257.995
-247.19
-236.798
-227.617
-218.258
-505.908
-500.213
-477.695
-451.071
-426.578
-403.918
-382.94
-363.554
-345.409
-328.523
-312.702
-297.875
-283.986
-270.954
-258.72
-247.205
-236.519
-226.26
-217.273
-207.923
-493.51
-487.199
-464.053
-437.342
-412.99
-390.413
-369.453
-350.119
-332.101
-315.309
-299.625
-284.941
-271.178
-258.273
-246.168
-234.786
-224.173
-214.044
-205.155
-195.848
-477.95
-470.66
-447.032
-420.666
-396.458
-374.174
-353.465
-334.388
-316.588
-300.05
-284.591
-270.143
-256.641
-243.99
-232.141
-221.033
-210.683
-200.824
-192.221
-183.005
-458.548
-450.636
-426.827
-400.914
-377.197
-355.375
-335.036
-316.314
-298.901
-282.684
-267.583
-253.458
-240.266
-227.919
-216.368
-205.545
-195.421
-185.846
-177.455
-168.42
-436.516
-427.972
-404.174
-378.727
-355.484
-334.247
-314.432
-296.221
-279.283
-263.558
-248.89
-235.206
-222.437
-210.49
-199.332
-188.911
-179.164
-169.972
-161.932
-153.05
-411.137
-402.237
-378.478
-353.99
-331.329
-310.812
-291.638
-273.974
-257.605
-242.379
-228.245
-215.043
-202.758
-191.276
-180.562
-170.554
-161.173
-152.404
-144.674
-136.093
-383.585
-374.481
-350.625
-327.368
-305.417
-285.588
-267.167
-250.199
-234.481
-219.895
-206.326
-193.685
-181.918
-170.936
-160.718
-151.203
-142.286
-133.982
-126.644
-118.275
-353.416
-344.186
-320.439
-298.243
-277.33
-258.338
-240.717
-224.475
-209.464
-195.532
-182.638
-170.609
-159.445
-149.021
-139.329
-130.303
-121.84
-114.05
-107.064
-99.0493
-321.848
-312.469
-289.126
-267.971
-248.055
-229.982
-213.228
-197.785
-183.526
-170.287
-158.014
-146.605
-136.018
-126.161
-117.021
-108.527
-100.569
-93.277
-86.6945
-78.9165
-288.32
-278.759
-256.334
-236.147
-217.27
-200.093
-184.237
-169.605
-156.14
-143.657
-132.13
-121.38
-111.428
-102.152
-93.5657
-85.5867
-78.1253
-71.3932
-65.2195
-57.8718
-253.986
-244.459
-222.793
-203.69
-185.822
-169.621
-154.685
-140.892
-128.215
-116.443
-105.586
-95.5138
-86.1834
-77.5161
-69.504
-62.0632
-55.1303
-48.9648
-43.3011
-36.2584
-218.419
-208.593
-187.931
-170.055
-153.335
-138.104
-124.157
-111.251
-99.424
-88.4443
-78.31
-68.8556
-60.1093
-51.9693
-44.4288
-37.3692
-30.8466
-25.1891
-19.6983
-12.2638
-182.66
-172.902
-153.31
-136.458
-120.861
-106.617
-93.6232
-81.5683
-70.5298
-60.2606
-50.7899
-41.9495
-33.6815
-25.9261
-18.6102
-11.6403
-5.17076
0.934184
7.71514
15.1538
-217.864
-173.159
-132.18
-106.711
-81.5816
-64.8513
-49.3546
-37.6678
-27.8529
-19.2899
-12.9348
-6.55272
-2.35611
2.44293
5.30101
8.83604
11.0325
12.7291
13.8013
14.0758
-213.19
-169.184
-128.159
-103.567
-78.682
-62.5098
-47.3138
-35.9165
-26.3337
-17.9563
-11.7807
-5.5319
-1.46157
3.24994
5.95838
9.44805
11.4234
13.2306
14.0169
14.3551
-207.071
-164.54
-123.983
-100.384
-75.8746
-60.1571
-45.2878
-34.1543
-24.8245
-16.6187
-10.6126
-4.49579
-0.569848
4.03801
6.60225
10.0494
11.8333
13.7972
14.2936
14.7146
-201.135
-159.968
-119.629
-96.894
-72.8353
-57.6238
-43.1431
-32.2707
-23.2113
-15.1876
-9.37343
-3.39257
0.4057
4.90472
7.31741
10.7073
12.3001
14.3465
14.6013
15.0629
-193.894
-154.605
-115.143
-93.3853
-69.8702
-55.079
-41.007
-30.3787
-21.6049
-13.7501
-8.11944
-2.28003
1.37219
5.75697
8.02517
11.3645
12.7961
14.8923
14.995
15.4674
-186.67
-149.118
-110.406
-89.5689
-66.6709
-52.3607
-38.7508
-28.3674
-19.8968
-12.224
-6.79341
-1.09427
2.42838
6.68439
8.80173
12.0499
13.3335
15.4097
15.383
15.8732
-178.242
-142.953
-105.536
-85.7141
-63.5331
-49.623
-36.4985
-26.3496
-18.1901
-10.69
-5.45341
0.0942092
3.47507
7.60464
9.56922
12.7335
13.884
15.9475
15.7939
16.3069
-169.632
-136.57
-100.381
-81.5652
-60.1735
-46.725
-34.1274
-24.2184
-16.3865
-9.07304
-4.04018
1.36053
4.61119
8.59706
10.4079
13.6211
14.4794
16.5165
16.255
16.7848
-159.929
-129.594
-95.0909
-77.3578
-56.8581
-43.8
-31.7539
-22.0814
-14.5779
-7.44782
-2.61525
2.62421
5.73754
9.58579
11.2703
14.5039
15.1155
17.1058
16.7488
17.2874
-149.81
-122.351
-89.5087
-72.8689
-53.3395
-40.7317
-29.2657
-19.8405
-12.6788
-5.74523
-1.11638
3.96737
6.95383
10.6329
12.1768
15.3391
15.7544
17.709
17.2918
17.8273
-138.688
-114.609
-83.7999
-68.312
-49.8472
-37.6313
-26.7674
-17.5935
-10.7686
-4.03511
0.391041
5.30543
8.17719
11.6785
13.0721
16.1808
16.4091
18.3429
17.8803
18.4004
-126.961
-106.578
-77.819
-63.4886
-46.176
-34.4098
-24.1621
-15.2555
-8.7758
-2.25341
1.97056
6.7193
9.47546
12.794
14.159
17.0382
17.0957
18.9862
18.5078
19.0135
-114.288
-98.1204
-71.7312
-58.5868
-42.5058
-31.1521
-21.5372
-12.9097
-6.76694
-0.465517
3.55555
8.12794
10.7851
13.932
15.1725
17.9538
17.781
19.6516
19.1591
19.6469
-100.886
-89.3992
-65.4317
-53.4429
-38.6782
-27.793
-18.8096
-10.4819
-4.68045
1.39098
5.20973
9.60515
12.1365
15.1636
16.2746
18.9076
18.4979
20.3205
19.7967
20.3067
-86.4649
-80.2974
-59.1317
-48.28
-34.8675
-24.4299
-16.0759
-8.058
-2.58364
3.24714
6.8642
11.0795
13.4934
16.3815
17.3175
19.8477
19.2071
21.009
20.4165
20.9656
-70.9729
-70.6741
-52.5818
-42.8637
-30.9006
-20.9874
-13.2567
-5.57523
-0.42797
5.15639
8.57299
12.6047
14.8926
17.6504
18.3419
20.815
19.9803
21.6629
20.9853
21.6412
-55.0557
-60.6838
-45.8473
-37.1832
-26.7059
-17.368
-10.2965
-2.99725
1.80701
7.11438
10.3202
14.1603
16.3226
18.9192
19.5058
21.832
20.802
22.3389
21.486
22.2864
-38.7998
-51.3086
-39.798
-31.9305
-22.7229
-13.8962
-7.36806
-0.416473
4.07844
9.1242
12.1204
15.7672
17.8022
20.2692
20.7297
22.8964
21.5392
23.2202
22.0796
23.0162
-16.9562
-40.5008
-34.5977
-27.6897
-19.5638
-11.1963
-5.04354
1.66247
5.98263
10.8317
13.6792
17.1798
19.1319
21.4823
21.8398
23.8713
22.0282
23.5359
22.4
23.5585
6.91978
-23.5016
-24.2573
-19.272
-13.6229
-6.48719
-1.37169
4.65847
8.50716
12.9732
15.5867
18.8573
20.736
22.9255
23.1948
24.9557
22.6989
23.1377
22.0819
24.3125
53.34
63.1811
50.6098
45.5404
37.9239
37.136
33.3081
33.4105
31.8446
32.6107
32.3038
33.0413
33.0083
33.8251
33.8769
34.7096
33.9573
34.9755
32.934
37.7608
119.414
109.424
86.6474
79.3113
67.847
62.5761
56.1781
52.9372
49.3137
47.3254
45.4697
44.7568
43.8371
43.6079
42.8703
42.9047
42.1763
41.7206
40.9649
41.8812
133.611
122.375
109.209
100.214
91.321
85.1662
79.1846
75.2697
71.3497
68.7085
65.8338
63.9402
62.132
60.8609
59.7958
58.7699
58.3411
57.5277
57.6103
57.9057
141.9
132.87
121.882
114.04
105.717
99.6624
93.4958
88.7606
84.1821
80.6642
77.3283
74.6206
71.9745
69.9903
68.1413
66.8776
65.4906
64.4399
64.2539
64.0317
137.127
129.541
123.408
117.104
111.69
106.359
101.839
97.618
93.9606
90.6552
87.7985
85.2487
83.0634
80.8609
79.1203
77.2877
75.8939
74.4791
73.6735
73.5691
137.878
133.543
127.454
122.854
117.866
113.714
109.28
105.662
101.907
98.8182
95.7284
93.0871
90.6111
88.4414
86.4855
84.4933
83.3414
81.7453
81.0313
80.6843
133.784
130.077
127.381
123.694
120.205
116.766
113.519
110.444
107.509
104.834
102.228
99.9284
97.6149
95.601
93.6916
91.8693
90.3561
88.9179
87.8903
87.4597
134.799
132.219
128.974
126.105
123.172
120.516
117.606
115.125
112.365
110.085
107.532
105.46
103.144
101.242
99.1267
97.3371
95.4487
94.1356
92.6542
92.2766
133.323
131.566
129.753
127.701
125.282
123.126
120.801
118.759
116.503
114.607
112.413
110.687
108.475
106.909
104.725
103.256
101.017
99.5843
97.8751
97.3522
134.335
132.84
130.795
129.188
127.292
125.682
123.698
122.075
120.134
118.529
116.622
115.046
113.119
111.557
109.528
107.938
105.637
104.055
101.792
101.222
134.839
133.734
132.412
131.133
129.586
128.278
126.758
125.453
123.913
122.675
121.092
119.885
118.197
117.015
115.113
113.891
111.508
110.309
107.666
107.12
135.541
134.677
133.517
132.618
131.443
130.502
129.324
128.384
127.17
126.234
125.077
124.132
122.925
121.958
120.552
119.535
117.539
116.61
113.383
113.159
136.848
136.235
135.372
134.711
133.851
133.186
132.354
131.717
130.917
130.331
129.57
129.037
128.272
127.795
126.915
126.51
125.048
125.257
122.381
124.247
137.83
137.379
136.72
136.266
135.655
135.224
134.686
134.299
133.877
133.597
133.343
133.176
133.134
133.093
133.331
133.399
133.919
134.013
135.566
137.527
139.177
138.883
138.427
138.18
137.791
137.648
137.342
137.352
137.145
137.319
137.282
137.651
137.912
138.465
139.211
139.895
141.583
142.175
145.763
146.332
140.111
139.903
139.606
139.468
139.259
139.242
139.153
139.298
139.357
139.684
139.922
140.531
141.017
142.031
142.887
144.533
145.848
148.438
150.855
153.476
141.126
140.986
140.795
140.758
140.683
140.768
140.813
141.059
141.266
141.772
142.172
143.033
143.668
145
145.964
147.737
149.168
151.774
153.623
158.08
141.758
141.674
141.577
141.594
141.618
141.794
141.95
142.296
142.582
143.114
143.553
144.292
144.881
145.87
146.603
148.092
148.97
150.933
151.741
162.795
142.357
142.281
142.24
142.313
142.375
142.533
142.704
143.003
143.315
143.815
144.28
145.009
145.624
146.597
147.333
148.513
149.22
150.568
151.018
153.296
142.542
142.519
142.481
142.552
142.631
142.816
143.036
143.368
143.738
144.228
144.738
145.403
146.041
146.899
147.624
148.698
149.416
150.719
151.251
162.188
254.854
252.421
249.512
245.706
241.467
236.241
230.62
223.895
216.75
208.86
199.513
189.926
179.338
168.319
156.566
143.929
131.112
117.237
103.439
89.1526
224.964
223.578
221.949
219.889
217.732
214.949
212.261
208.837
205.438
201.685
196.417
191.893
187.475
183.005
178.093
173.004
167.72
161.322
153.794
145.48
188.302
187.441
186.333
185.269
183.874
182.58
180.881
179.305
177.317
175.417
173.156
170.874
168.316
164.984
161.122
157.689
154.354
151.52
148.164
145.4
175.859
175.253
174.548
173.822
172.948
172.091
171.037
170.019
168.806
167.495
166.219
164.658
163.266
161.657
159.371
157.183
154.898
153.211
150.962
149.269
160.31
159.808
159.265
158.683
158.07
157.429
156.711
156.029
155.142
154.46
153.445
152.671
151.591
150.523
149.195
147.603
145.793
144.215
142.387
140.951
154.609
154.244
153.859
153.457
153.02
152.574
152.038
151.549
150.932
150.394
149.683
149.093
148.416
147.728
147.015
146.068
144.785
143.607
142.502
141.489
147.481
147.149
146.791
146.412
145.996
145.561
145.112
144.637
144.119
143.611
143.025
142.459
141.747
141.105
140.068
139.096
138.01
137.113
136.092
135.265
145.089
144.799
144.506
144.189
143.856
143.479
143.081
142.663
142.225
141.759
141.294
140.789
140.252
139.736
139.163
138.539
137.963
137.494
136.947
136.488
141.688
141.421
141.135
140.823
140.499
140.161
139.85
139.505
139.086
138.614
138.169
137.721
137.289
136.877
136.467
136.069
135.667
135.286
134.872
134.509
140.641
140.42
140.181
139.928
139.674
139.417
139.159
138.889
138.62
138.343
138.069
137.784
137.5
137.207
136.914
136.614
136.308
135.991
135.658
135.327
140.074
139.906
139.736
139.563
139.376
139.176
138.974
138.76
138.537
138.299
138.055
137.802
137.545
137.281
137.012
136.736
136.457
136.181
135.9
135.628
139.979
139.832
139.683
139.529
139.375
139.21
139.035
138.85
138.668
138.469
138.261
138.041
137.816
137.602
137.388
137.163
136.938
136.703
136.466
136.223
140.519
140.386
140.248
140.107
139.962
139.812
139.661
139.505
139.347
139.184
139.021
138.851
138.68
138.503
138.325
138.142
137.958
137.768
137.578
137.383
140.859
140.741
140.622
140.499
140.376
140.249
140.121
139.989
139.857
139.721
139.584
139.444
139.303
139.159
139.014
138.865
138.716
138.563
138.41
138.253
141.605
141.503
141.398
141.293
141.187
141.08
140.972
140.863
140.754
140.643
140.532
140.42
140.307
140.193
140.079
139.963
139.847
139.729
139.612
139.493
142.101
142.006
141.911
141.816
141.721
141.627
141.533
141.439
141.346
141.252
141.16
141.068
140.976
140.884
140.793
140.703
140.612
140.523
140.433
140.344
142.724
142.64
142.556
142.474
142.392
142.312
142.232
142.154
142.076
142
141.925
141.851
141.778
141.706
141.634
141.564
141.495
141.427
141.36
141.295
143.134
143.046
142.959
142.875
142.794
142.715
142.64
142.566
142.494
142.424
142.358
142.295
142.237
142.18
142.125
142.071
142.019
141.97
141.921
141.875
143.525
143.45
143.376
143.306
143.231
143.166
143.1
143.037
142.976
142.917
142.86
142.803
142.749
142.698
142.651
142.607
142.566
142.526
142.486
142.448
143.627
143.554
143.483
143.414
143.347
143.283
143.22
143.16
143.102
143.046
142.992
142.941
142.891
142.844
142.8
142.758
142.718
142.682
142.648
142.616
139.033
138.067
134.726
131.774
128.932
125.891
122.689
119.298
115.625
111.631
107.277
102.474
97.2384
91.3807
85.0122
77.7437
70.0018
61.0642
50.6773
44.0699
150.931
151.069
149.229
147.212
145.163
142.879
140.347
137.542
134.444
131.017
127.233
123.026
118.398
113.189
107.509
101.018
94.1046
85.974
77.088
70.979
164.444
165.25
163.968
162.453
160.893
159.09
157.048
154.791
152.252
149.41
146.233
142.665
138.695
134.175
129.181
123.381
117.149
109.669
101.692
97.4446
178.396
179.464
178.678
177.705
176.689
175.461
174.005
172.333
170.385
168.161
165.608
162.694
159.365
155.517
151.164
146.054
140.418
133.549
125.751
121.708
192.288
193.558
193.006
192.441
191.826
191.027
190.041
188.875
187.474
185.827
183.887
181.616
178.966
175.837
172.251
167.927
163.159
157.085
150.235
145.597
205.732
207.193
207.042
206.935
206.804
206.52
206.071
205.456
204.61
203.567
202.233
200.619
198.618
196.24
193.38
189.965
186.054
181.046
175.424
170.188
218.079
219.716
219.977
220.251
220.512
220.625
220.616
220.48
220.174
219.671
218.931
217.939
216.645
215.016
212.99
210.496
207.552
203.682
199.642
194.232
229.975
231.884
232.543
233.266
234
234.619
235.13
235.527
235.723
235.767
235.567
235.178
234.486
233.545
232.201
230.55
228.37
225.716
222.655
218.051
240.945
243.044
244.08
245.148
246.206
247.142
247.972
248.69
249.286
249.756
250.055
250.185
250.077
249.738
249.083
248.128
246.737
244.935
242.545
239.254
250.746
253.071
254.482
255.933
257.38
258.755
260.037
261.263
262.366
263.367
264.191
264.876
265.314
265.588
265.503
265.185
264.373
263.268
261.514
258.885
260.548
263.008
264.594
266.261
267.94
269.548
271.092
272.568
273.953
275.255
276.427
277.489
278.358
279.03
279.377
279.498
279.152
278.51
277.183
275.21
268.156
270.626
272.575
274.583
276.62
278.623
280.608
282.547
284.44
286.257
287.969
289.556
290.918
292.074
292.887
293.491
293.609
293.489
292.623
291.14
275.61
278.403
280.67
282.988
285.311
287.596
289.816
291.978
294.031
295.974
297.755
299.396
300.8
302.126
303.195
304.129
304.51
304.715
304.137
303.313
281.425
284.264
286.672
289.158
291.664
294.135
296.574
298.983
301.319
303.618
305.815
307.946
309.95
311.848
313.563
315.053
316.041
316.845
316.9
316.867
287.146
290.162
292.717
295.374
298.05
300.69
303.305
305.866
308.383
310.817
313.151
315.374
317.408
319.272
320.823
322.16
323.216
324.155
324.584
324.705
290.501
293.537
296.221
299.021
301.812
304.62
307.375
310.158
312.855
315.549
318.116
320.634
322.974
325.217
327.211
329.093
330.681
332.126
333.023
333.184
293.679
296.875
299.656
302.572
305.491
308.41
311.297
314.177
316.984
319.747
322.388
324.94
327.327
329.559
331.588
333.364
334.898
335.971
336.904
336.849
294.857
297.981
300.778
303.732
306.68
309.66
312.595
315.559
318.437
321.326
324.079
326.837
329.381
331.908
334.098
336.272
337.868
339.515
340.338
341.355
295.287
298.515
301.368
304.384
307.392
310.432
313.414
316.428
319.344
322.266
325.059
327.813
330.391
332.875
335.071
337.155
338.713
340.244
340.724
341.652
293.998
297.143
299.952
302.904
305.869
308.839
311.789
314.739
317.643
320.518
323.31
326.027
328.605
331.034
333.256
335.195
336.821
337.956
338.778
338.848
-72.5454
-76.2669
-80.0359
-83.9388
-87.9166
-92.0347
-96.2184
-100.584
-104.983
-109.602
-114.324
-119.183
-124.464
-129.378
-134.094
-138.608
-143.449
-144.729
-145.323
-144.82
-67.9633
-71.7177
-75.5919
-79.5503
-83.6689
-87.9661
-92.2944
-96.8783
-101.508
-106.339
-111.288
-116.468
-121.744
-127.363
-132.862
-138.47
-143.362
-145.047
-146.556
-145.963
-62.9444
-66.7155
-70.7354
-74.8988
-79.1236
-83.6495
-88.1837
-93.0023
-97.8934
-103.009
-108.274
-113.739
-119.4
-125.186
-131.229
-137.087
-142.497
-146.288
-147.417
-147.556
-57.57
-61.5556
-65.6455
-69.9979
-74.3731
-79.0717
-83.8108
-88.8402
-93.9957
-99.3633
-104.94
-110.717
-116.781
-122.923
-129.475
-135.763
-141.883
-146.809
-147.948
-148.81
-51.8564
-55.9734
-60.1221
-64.64
-69.15
-74.0657
-79.0335
-84.3285
-89.8005
-95.5454
-101.536
-107.826
-114.368
-121.276
-128.41
-135.878
-143.46
-149.901
-152.703
-153.816
-45.6994
-49.9272
-54.1187
-58.8149
-63.4465
-68.5192
-73.7014
-79.2232
-84.9822
-91.0311
-97.426
-104.124
-111.279
-118.851
-126.757
-135.31
-144.414
-152.121
-157.934
-159.035
-39.1783
-43.4689
-47.6991
-52.4654
-57.2168
-62.4218
-67.7869
-73.5007
-79.518
-85.8816
-92.5971
-99.7451
-107.362
-115.386
-124.067
-133.359
-143.133
-152.29
-161.446
-163.381
-31.8039
-36.1354
-40.331
-45.1815
-49.9739
-55.2825
-60.7962
-66.6951
-72.9343
-79.5538
-86.6289
-94.1467
-102.215
-110.822
-120.178
-130.068
-140.691
-151.643
-161.781
-163.794
-23.6331
-28.0605
-32.2184
-37.1648
-42.0524
-47.418
-53.0666
-59.0721
-65.4803
-72.3063
-79.5836
-87.3987
-95.8065
-104.837
-114.605
-125.135
-136.565
-148.827
-159.01
-160.426
-14.1948
-18.8064
-22.9216
-27.876
-32.8083
-38.1983
-43.8976
-49.9935
-56.4872
-63.442
-70.9168
-78.9334
-87.6202
-96.9387
-107.123
-118.181
-130.34
-143.325
-154.737
-157.39
-4.1861
-8.85456
-12.9569
-17.8262
-22.7826
-28.1342
-33.8492
-39.9294
-46.4599
-53.4564
-60.9556
-69.0636
-77.8252
-87.2668
-97.5649
-108.724
-120.926
-134.075
-146.138
-149.263
6.39492
1.80435
-2.11239
-6.82896
-11.6491
-16.8794
-22.4794
-28.4905
-34.9272
-41.8821
-49.3769
-57.4844
-66.2971
-75.7686
-86.249
-97.5249
-110.035
-123.565
-136.391
-140.417
18.123
13.6202
9.86148
5.34755
0.625507
-4.43281
-9.90907
-15.7653
-22.0932
-28.9196
-36.2715
-44.2775
-52.9278
-62.3252
-72.6775
-83.7568
-96.2049
-109.561
-122.808
-127.433
30.5652
26.1445
22.609
18.3503
13.8469
9.00558
3.75899
-1.90933
-8.00562
-14.6427
-21.8101
-29.6188
-38.1025
-47.3036
-57.4729
-68.3873
-80.7129
-93.8868
-107.349
-112.441
43.8261
39.5446
36.2878
32.3659
28.0851
23.5378
18.5571
13.1796
7.33233
0.977266
-5.90231
-13.4468
-21.6007
-30.5464
-40.3895
-50.9434
-63.0466
-75.7443
-89.3562
-94.8668
58.0591
53.8958
50.891
47.3311
43.3281
39.0719
34.3958
29.2883
23.7609
17.7042
11.1394
3.94133
-3.86945
-12.4432
-21.8479
-32.0582
-43.7359
-55.7659
-69.5852
-75.3106
72.7378
68.7897
66.1097
62.9552
59.2465
55.3193
50.9858
46.247
41.0631
35.3966
29.2302
22.4324
15.0795
6.92747
-1.97313
-11.7074
-22.8223
-34.0748
-48.3202
-54.4165
87.9932
84.4246
82.086
79.3799
76.0284
72.4224
68.4402
64.0272
59.2216
53.9297
48.1661
41.8142
34.9215
27.2749
18.9823
9.7499
-0.503243
-11.146
-24.9539
-31.4315
104.869
101.18
98.9862
96.5286
93.4514
90.0892
86.412
82.3656
77.9102
73.03
67.6955
61.8049
55.418
48.2936
40.5506
31.881
22.3375
12.1051
-0.829247
-7.17786
126.051
122.151
118.717
115.805
112.589
109.125
105.48
101.544
97.3199
92.7362
87.779
82.3442
76.4565
69.8912
62.8123
54.7814
46.1073
36.5041
24.5805
18.226
70.5316
70.0177
70.0071
68.7258
67.5202
65.2471
63.7764
60.9966
58.4462
54.9823
51.0527
46.5331
40.3787
34.3606
24.3099
16.3588
0.893798
-11.4172
-34.6469
-54.6562
70.6319
70.0917
70.2743
68.9292
67.9139
65.6817
64.3736
61.6919
59.2771
55.9274
52.1575
47.8107
41.8818
36.1374
26.5349
18.9232
3.88407
-7.67202
-30.4225
-49.3523
70.7865
70.2186
70.5782
69.1577
68.4083
66.1708
65.0178
62.4333
60.1211
56.8921
53.2915
49.1013
43.4335
37.8399
28.6794
21.4362
6.91905
-3.90725
-26.1692
-44.0924
70.8939
70.2965
70.9031
69.3621
68.9061
66.5966
65.6422
63.1649
60.9917
57.8836
54.4575
50.4371
45.0559
39.7138
31.0321
24.1241
10.1043
0.0483655
-21.752
-38.5546
71.0445
70.4374
71.3271
69.6328
69.5575
67.1262
66.3219
63.95
61.8751
58.899
55.6565
51.8093
46.6849
41.5286
33.2549
26.7689
13.3674
3.92065
-17.2585
-32.8001
71.1755
70.559
71.7181
69.8849
70.039
67.6864
66.9814
64.7271
62.7794
59.9386
56.8763
53.2149
48.382
43.5036
35.7006
29.5929
16.6859
8.09366
-12.4682
-26.6652
71.3257
70.8039
72.1294
70.2146
70.5731
68.3183
67.6932
65.5542
63.6979
61.0032
58.1436
54.6656
50.0973
45.4174
38.0655
32.3741
20.1353
12.223
-7.70606
-20.4052
71.4745
70.9893
72.5147
70.4717
71.089
68.9287
68.3651
66.3667
64.6301
62.0836
59.4224
56.1421
51.8796
47.4722
40.6248
35.2969
23.6225
16.4859
-2.6606
-13.8546
71.6567
71.2452
72.9514
70.8056
71.6479
69.5415
69.0949
67.2199
65.5788
63.1926
60.7498
57.6633
53.6738
49.4945
43.1338
38.2111
27.2491
20.6866
2.59726
-5.43928
71.8217
71.4623
73.3659
71.0782
72.1875
70.1424
69.7942
68.0591
66.5326
64.3121
62.084
59.216
55.5258
51.6314
45.8006
41.2331
30.9615
25.6976
8.13208
3.42867
72.0331
71.7039
73.8644
71.4194
72.7613
70.7902
70.5411
68.9337
67.5042
65.4601
63.4648
60.8092
57.4111
53.7576
48.4447
44.2783
34.8359
30.8005
13.892
11.3933
72.21
71.9885
74.3397
71.7335
73.3166
71.4535
71.2675
69.7938
68.473
66.6167
64.8576
62.4423
59.3596
55.9749
51.2085
47.3733
38.6897
35.4106
19.9559
19.8824
72.4241
72.2482
74.7874
72.0983
73.9008
72.1631
72.0327
70.6847
69.4591
67.7988
66.2864
64.1056
61.3261
58.1907
53.9711
50.522
42.7076
39.8712
26.2932
29.0038
72.622
72.4907
75.2527
72.4463
74.4903
72.8975
72.803
71.5604
70.4412
68.9977
67.7436
65.8286
63.376
60.4864
56.8311
53.7149
46.6762
44.4102
32.9093
38.6627
72.8349
72.6892
75.7614
72.8408
75.0662
73.6767
73.5662
72.4517
71.4227
70.1992
69.221
67.5677
65.4182
62.7717
59.6873
56.9327
50.7614
49.0125
39.7099
49.0078
73.02
72.7218
76.2482
73.2107
75.5514
74.4499
74.2494
73.3206
72.388
71.4085
70.7305
69.3717
67.5321
65.1108
62.6188
60.2719
54.6884
53.8643
46.9506
60.092
73.2269
72.6223
76.723
73.6532
76.5065
75.3745
75.419
74.265
73.4716
72.7891
72.3284
71.249
69.7137
67.526
65.6816
63.7583
59.0361
58.952
54.4339
71.5742
73.5771
72.588
77.4289
74.1146
77.3283
76.2614
76.3158
75.0923
74.4141
74.0096
73.9107
73.1532
71.8849
69.9096
68.7052
67.1765
62.617
63.6764
60.7639
82.5527
73.2024
72.2565
77.7372
74.481
77.4041
76.8264
76.4611
75.5026
74.9688
74.8577
75.1446
74.7732
73.5372
71.8281
71.1155
69.8567
65.5353
69.0581
68.5803
97.8677
74.154
71.1806
77.9792
74.9874
78.8046
78.3189
78.2187
77.2428
77.0069
76.7488
77.4121
77.2435
76.4858
75.0417
75.4932
74.671
72.2727
77.2098
83.3906
117.133
98.3331
75.9835
92.3611
87.7548
94.3095
92.6742
96.093
96.1914
98.6897
96.562
98.6244
97.1751
101.208
101.364
107.223
108.016
121.216
121.282
145.097
146.232
95.191
92.4135
95.1261
94.1606
97.1974
97.4457
99.8359
100.612
103.136
104.042
107.354
108.718
112.977
115.854
122.648
127.479
138.938
146.3
164.646
176.624
106.155
105.285
106.896
106.954
109.295
109.611
111.758
112.846
114.968
116.408
119.016
121.344
125.205
128.985
134.318
139.66
147.186
154.357
164.499
174.346
108.891
108.921
109.619
110.38
111.861
113.178
115.012
116.742
119.054
121.428
124.441
127.437
131.09
134.995
139.636
144.882
150.708
157.308
164.175
170.636
113.435
113.551
114.476
116.162
117.656
119.087
120.828
122.555
124.533
126.647
129.017
131.505
134.322
137.457
140.731
144.526
148.151
152.541
156.471
161.763
116.045
116.258
117.087
118.532
119.738
121.512
123.213
125.07
127.16
129.243
131.526
134.03
136.577
139.437
142.151
145.419
148.092
151.693
153.653
156.53
118.31
118.842
119.689
121.189
122.8
124.36
126.097
127.667
129.492
131.137
133.088
134.81
136.775
138.667
140.562
142.62
144.339
146.775
148.556
150.696
119.662
120.054
121.437
122.993
124.812
126.333
128.144
129.652
131.473
132.997
134.753
136.355
138.087
139.699
141.311
143.212
144.529
146.109
146.766
147.981
120.744
121.277
123.089
124.736
126.818
128.233
130.056
131.294
132.915
134.06
135.504
136.606
137.852
138.92
139.935
140.747
141.597
142.706
143.753
144.345
122.731
123.227
125.63
127.226
129.482
130.813
132.54
133.661
135.1
136.113
137.349
138.257
139.306
140.13
141.194
142.022
142.671
143.038
143.233
143.502
125.983
126.288
129.209
130.413
132.683
133.72
135.228
136.033
137.212
137.848
138.731
139.264
139.978
140.411
140.787
140.912
141.363
141.5
142.018
142.065
133.281
131.888
135.718
136.04
137.554
138.134
139.015
139.469
140.097
140.432
140.984
141.261
141.68
141.933
142.35
142.561
142.71
142.479
142.56
142.148
145.404
143.531
143.07
142.787
142.991
142.892
143.044
142.947
143.082
143.02
143.161
143.117
143.29
143.223
143.249
143.055
143.016
142.856
142.796
142.486
154.226
152.95
150.122
149.839
148.454
147.939
147.131
146.668
146.202
145.775
145.47
145.072
144.857
144.48
144.313
143.997
143.836
143.499
143.19
142.829
160.179
159.514
156.37
154.299
152.866
151.257
150.432
149.136
148.568
147.674
147.288
146.626
146.295
145.766
145.465
144.991
144.717
144.27
143.998
143.571
166.585
162.681
160.027
157.456
155.851
154.141
152.923
151.773
150.829
149.874
149.107
148.34
147.721
147.074
146.555
146.005
145.543
145.058
144.635
144.185
171.103
160.427
159.634
157.755
156.553
154.931
153.91
152.592
151.774
150.711
150.028
149.156
148.569
147.842
147.323
146.703
146.237
145.697
145.267
144.791
163.746
161.168
160.087
158.196
157.339
155.854
154.936
153.707
152.831
151.799
150.998
150.126
149.411
148.665
148.032
147.391
146.829
146.273
145.775
145.288
165.997
159.59
159.341
158.148
157.248
156.007
155.103
153.974
153.121
152.123
151.345
150.473
149.773
149.015
148.389
147.732
147.17
146.602
146.098
145.608
163.132
161.029
160.342
158.699
157.798
156.469
155.52
154.395
153.48
152.506
151.661
150.812
150.05
149.307
148.629
147.978
147.378