/*--------------------------------*- C++ -*----------------------------------*\
  =========                 |
  \\      /  F ield         | OpenFOAM: The Open Source CFD Toolbox
   \\    /   O peration     | Website:  https://openfoam.org
    \\  /    A nd           | Version:  9
     \\/     M anipulation  |
\*---------------------------------------------------------------------------*/
FoamFile
{
    format      ascii;
    class       surfaceScalarField;
    location    "5";
    object      phi;
}
// * * * * * * * * * * * * * * * * * * * * * * * * * * * * * * * * * * * * * //

dimensions      [0 3 -1 0 0 0 0];

internalField   nonuniform List<scalar> 
92080
(
-0.00453769
-0.538859
0.543397
-0.0325648
-1.08127
1.1093
-0.0787388
-1.19431
1.24049
-0.125738
-1.1749
1.2219
-0.171871
-1.15455
1.20068
-0.217362
-1.13483
1.18032
-0.261916
-1.11688
1.16143
-0.305664
-1.09972
1.14347
-0.348008
-1.08427
1.12661
-0.389539
-1.06874
1.11027
-0.431377
-1.05426
1.0961
-0.473178
-1.0409
1.0827
-0.513932
-1.02893
1.06968
-0.553684
-1.01717
1.05692
-0.593115
-1.00536
1.04479
-0.631877
-0.994139
1.0329
-0.668954
-0.983215
1.02029
-0.706088
-0.970555
1.00769
-0.742387
-0.959439
0.995737
-0.952121
0.98403
-0.774297
-0.00628423
-0.532575
-0.03602
-1.05154
-0.0832032
-1.14713
-0.130675
-1.12743
-0.176943
-1.10828
-0.222954
-1.08881
-0.268573
-1.07126
-0.313896
-1.0544
-0.35925
-1.03891
-0.40368
-1.02431
-0.446936
-1.011
-0.489927
-0.997906
-0.532971
-0.985884
-0.574965
-0.975174
-0.615438
-0.964886
-0.655097
-0.95448
-0.693178
-0.945134
-0.728807
-0.934925
-0.763049
-0.925197
-0.918425
-0.796745
-0.00772228
-0.524853
-0.0403094
-1.01895
-0.0899001
-1.09754
-0.139834
-1.07749
-0.188624
-1.05949
-0.236484
-1.04095
-0.283601
-1.02414
-0.329593
-1.00841
-0.374612
-0.993893
-0.419631
-0.979288
-0.464226
-0.966411
-0.507677
-0.954454
-0.550721
-0.94284
-0.593859
-0.932036
-0.636337
-0.922408
-0.678226
-0.912591
-0.719765
-0.903595
-0.760222
-0.894468
-0.800273
-0.885145
-0.878756
-0.839943
-0.00963616
-0.515217
-0.0448384
-0.983747
-0.0953895
-1.04699
-0.14544
-1.02744
-0.194277
-1.01066
-0.242562
-0.992669
-0.290571
-0.976132
-0.338711
-0.960267
-0.385983
-0.946621
-0.432451
-0.93282
-0.478944
-0.919918
-0.525056
-0.908341
-0.570376
-0.89752
-0.615184
-0.887227
-0.659237
-0.878355
-0.702239
-0.869588
-0.744575
-0.86126
-0.78567
-0.853373
-0.826161
-0.844654
-0.837244
-0.867673
-0.0105496
-0.504667
-0.0514861
-0.942811
-0.102942
-0.995533
-0.154664
-0.975719
-0.205408
-0.959911
-0.255279
-0.942798
-0.304209
-0.927202
-0.352681
-0.911796
-0.400863
-0.898438
-0.448007
-0.885676
-0.494781
-0.873144
-0.541149
-0.861974
-0.587145
-0.851525
-0.633148
-0.841224
-0.679252
-0.832251
-0.724862
-0.823978
-0.770271
-0.815852
-0.814968
-0.808676
-0.858239
-0.801383
-0.794213
-0.90127
-0.00889698
-0.49577
-0.0521689
-0.899539
-0.104737
-0.942965
-0.157305
-0.92315
-0.208816
-0.9084
-0.259585
-0.89203
-0.309846
-0.876941
-0.359948
-0.861694
-0.409897
-0.848489
-0.459082
-0.836491
-0.507663
-0.824563
-0.555996
-0.813641
-0.603528
-0.803993
-0.650418
-0.794334
-0.697121
-0.785548
-0.7432
-0.777899
-0.788907
-0.770145
-0.834626
-0.762956
-0.879686
-0.756323
-0.749256
-0.924643
-0.00750252
-0.488268
-0.0540113
-0.85303
-0.109208
-0.887768
-0.164195
-0.868163
-0.217886
-0.854708
-0.27031
-0.839606
-0.321346
-0.825906
-0.371302
-0.811738
-0.421562
-0.79823
-0.471309
-0.786744
-0.520495
-0.775377
-0.569399
-0.764737
-0.618013
-0.755379
-0.666244
-0.746103
-0.714802
-0.736989
-0.763197
-0.729504
-0.810875
-0.722467
-0.858184
-0.715647
-0.904744
-0.709763
-0.703062
-0.950938
-0.00361465
-0.484653
-0.05083
-0.805815
-0.108231
-0.830367
-0.16551
-0.810884
-0.221683
-0.798535
-0.276132
-0.785158
-0.329904
-0.772133
-0.382021
-0.75962
-0.433189
-0.747062
-0.484046
-0.735887
-0.534066
-0.725357
-0.583837
-0.714966
-0.632937
-0.706279
-0.680726
-0.698314
-0.72835
-0.689366
-0.776516
-0.681338
-0.824618
-0.674365
-0.872776
-0.667489
-0.920491
-0.662049
-0.656083
-0.96747
-0.00261911
-0.482034
-0.054324
-0.75411
-0.115188
-0.769503
-0.17301
-0.753062
-0.230459
-0.741086
-0.286139
-0.729478
-0.339847
-0.718425
-0.392213
-0.707255
-0.443333
-0.695942
-0.493924
-0.685296
-0.543716
-0.675565
-0.593578
-0.665104
-0.644436
-0.655421
-0.694433
-0.648318
-0.743106
-0.640692
-0.791485
-0.632959
-0.839713
-0.626137
-0.887995
-0.619206
-0.936439
-0.613604
-0.608514
-0.984008
-0.0035843
-0.478449
-0.0564349
-0.701259
-0.117054
-0.708884
-0.175601
-0.694515
-0.233619
-0.683068
-0.291283
-0.671813
-0.348302
-0.661407
-0.40381
-0.651748
-0.457753
-0.641998
-0.510659
-0.632391
-0.561784
-0.624439
-0.610332
-0.616556
-0.65908
-0.606673
-0.708788
-0.598609
-0.757756
-0.591725
-0.806352
-0.584363
-0.854547
-0.577942
-0.902414
-0.571339
-0.950739
-0.565279
-0.56032
-0.998933
-0.00900482
-0.469445
-0.0644328
-0.645831
-0.125961
-0.647356
-0.184335
-0.636141
-0.242039
-0.625364
-0.29867
-0.615182
-0.354306
-0.605771
-0.408925
-0.597129
-0.462064
-0.588859
-0.51503
-0.579425
-0.568883
-0.570586
-0.621397
-0.564042
-0.671237
-0.556833
-0.721283
-0.548564
-0.771007
-0.542001
-0.82014
-0.53523
-0.869147
-0.528936
-0.917257
-0.523229
-0.965275
-0.517261
-0.512159
-1.01344
-0.0171571
-0.452288
-0.0736513
-0.589337
-0.134672
-0.586335
-0.193931
-0.576882
-0.252047
-0.567248
-0.309296
-0.557933
-0.36619
-0.548877
-0.423043
-0.540276
-0.47814
-0.533762
-0.530172
-0.527393
-0.581514
-0.519244
-0.633783
-0.511773
-0.684683
-0.505932
-0.734176
-0.499071
-0.783678
-0.492499
-0.83225
-0.486657
-0.880872
-0.480314
-0.929045
-0.475056
-0.976616
-0.46969
-0.464548
-1.02423
-0.0246963
-0.427591
-0.0815088
-0.532525
-0.141008
-0.526835
-0.199506
-0.518385
-0.2569
-0.509854
-0.312815
-0.502018
-0.36713
-0.494563
-0.422412
-0.484994
-0.479782
-0.476392
-0.536315
-0.470859
-0.59023
-0.465329
-0.643328
-0.458675
-0.696338
-0.452923
-0.747893
-0.447516
-0.798956
-0.441436
-0.849299
-0.436314
-0.898767
-0.430845
-0.948073
-0.425751
-0.996449
-0.421314
-0.416727
-1.04427
-0.0322552
-0.395336
-0.0917088
-0.473071
-0.153559
-0.464985
-0.211866
-0.460078
-0.270496
-0.451224
-0.329173
-0.443341
-0.38587
-0.437866
-0.437845
-0.433019
-0.489319
-0.424918
-0.542737
-0.41744
-0.595806
-0.41226
-0.647778
-0.406703
-0.69979
-0.400911
-0.751098
-0.396208
-0.801811
-0.390723
-0.852466
-0.385658
-0.902298
-0.381014
-0.95203
-0.376018
-1.0015
-0.371847
-0.367819
-1.05041
-0.0390081
-0.356328
-0.0979203
-0.414159
-0.158282
-0.404622
-0.217239
-0.401121
-0.273356
-0.395107
-0.329126
-0.38757
-0.387914
-0.379078
-0.446389
-0.374544
-0.500953
-0.370354
-0.554375
-0.364019
-0.608095
-0.35854
-0.660703
-0.354095
-0.71276
-0.348854
-0.764479
-0.344489
-0.814815
-0.340386
-0.864961
-0.335513
-0.914534
-0.33144
-0.963561
-0.326992
-1.01265
-0.32276
-0.318959
-1.06151
-0.0444324
-0.311895
-0.104612
-0.353979
-0.166676
-0.342559
-0.229278
-0.338519
-0.290011
-0.334374
-0.344885
-0.332696
-0.397348
-0.326615
-0.45208
-0.319812
-0.506653
-0.315781
-0.559688
-0.310983
-0.612601
-0.305628
-0.665521
-0.301174
-0.717279
-0.297096
-0.769317
-0.292452
-0.820668
-0.289036
-0.87121
-0.28497
-0.921451
-0.281199
-0.970976
-0.277467
-1.01997
-0.273763
-0.26999
-1.06894
-0.0481437
-0.263752
-0.107396
-0.294727
-0.164652
-0.285303
-0.221612
-0.281558
-0.281741
-0.274246
-0.342956
-0.271481
-0.400937
-0.268635
-0.456285
-0.264464
-0.511722
-0.260344
-0.566508
-0.256198
-0.61942
-0.252715
-0.672403
-0.248192
-0.724598
-0.2449
-0.776112
-0.240938
-0.827606
-0.237542
-0.878202
-0.234374
-0.928397
-0.231005
-0.977949
-0.227915
-1.02693
-0.224779
-0.221572
-1.07535
-0.0575917
-0.20616
-0.120472
-0.231847
-0.178348
-0.227427
-0.233267
-0.22664
-0.286718
-0.220795
-0.342636
-0.215562
-0.399757
-0.211515
-0.45592
-0.2083
-0.511033
-0.205231
-0.565697
-0.201533
-0.619454
-0.198958
-0.672394
-0.195252
-0.724935
-0.192359
-0.777008
-0.188865
-0.82851
-0.18604
-0.879793
-0.183091
-0.930369
-0.180428
-0.980583
-0.177701
-1.03007
-0.175288
-0.172462
-1.07918
-0.0620941
-0.144066
-0.126417
-0.167523
-0.188636
-0.165208
-0.249031
-0.166245
-0.306642
-0.163184
-0.361436
-0.160768
-0.415812
-0.157139
-0.469867
-0.154245
-0.523383
-0.151716
-0.576334
-0.148582
-0.629176
-0.146116
-0.681653
-0.142775
-0.732975
-0.141037
-0.783959
-0.137882
-0.834226
-0.135772
-0.884536
-0.132781
-0.934121
-0.130843
-0.983851
-0.127971
-1.03288
-0.126255
-0.123707
-1.08164
-0.0503525
-0.0937134
-0.109943
-0.107933
-0.167321
-0.10783
-0.225833
-0.107733
-0.284129
-0.104887
-0.342507
-0.10239
-0.399176
-0.10047
-0.455177
-0.0982434
-0.510972
-0.0959209
-0.565983
-0.0935711
-0.620014
-0.0920855
-0.673529
-0.0892603
-0.726616
-0.0879495
-0.779076
-0.0854221
-0.83077
-0.0840781
-0.881942
-0.0816086
-0.932527
-0.0802585
-0.982426
-0.0780721
-1.03208
-0.0766038
-1.08107
-0.0747144
0.0456841
-0.179438
0.133754
0.149573
-0.755243
0.651355
0.236412
-1.32104
1.2342
0.275125
-1.57108
1.53236
0.287906
-1.6065
1.59371
0.293743
-1.59847
1.59263
0.295693
-1.57895
1.577
0.297568
-1.5615
1.55962
0.298294
-1.54558
1.54485
0.29801
-1.53113
1.53142
0.297025
-1.51739
1.51837
0.295433
-1.50405
1.50564
0.293286
-1.49076
1.49291
0.290697
-1.47733
1.47991
0.287353
-1.46404
1.46739
0.283207
-1.44916
1.45331
0.27817
-1.43262
1.43765
0.272786
-1.41265
1.41803
0.267234
-1.39576
1.40132
-1.37899
0.262264
1.38396
0.0461093
-0.225547
0.133856
-0.84299
0.203359
-1.39054
0.229356
-1.59707
0.236979
-1.61412
0.238913
-1.6004
0.239355
-1.57939
0.239429
-1.56157
0.239031
-1.54518
0.238131
-1.53023
0.236486
-1.51574
0.234123
-1.50169
0.230971
-1.48761
0.227267
-1.47362
0.223133
-1.45991
0.218541
-1.44457
0.213214
-1.42729
0.207546
-1.40698
0.201763
-1.38998
-1.37363
0.196394
0.0486279
-0.274175
0.121178
-0.915541
0.176311
-1.44568
0.193143
-1.61391
0.197103
-1.61808
0.195972
-1.59927
0.194664
-1.57808
0.19227
-1.55918
0.188977
-1.54189
0.184967
-1.52622
0.180496
-1.51127
0.175593
-1.49679
0.170341
-1.48236
0.164556
-1.46784
0.158224
-1.45358
0.151515
-1.43786
0.144555
-1.42033
0.137425
-1.39985
0.130033
-1.38259
-1.3665
0.122907
0.0486239
-0.322799
0.110366
-0.977283
0.150918
-1.48623
0.158516
-1.6215
0.15743
-1.61699
0.153474
-1.59532
0.149632
-1.57424
0.145606
-1.55515
0.141197
-1.53748
0.136298
-1.52132
0.130756
-1.50573
0.124671
-1.4907
0.118006
-1.47569
0.111083
-1.46091
0.103745
-1.44624
0.0958802
-1.43
0.0874376
-1.41189
0.0790103
-1.39142
0.0706326
-1.37421
-1.3583
0.0624332
0.0397146
-0.362514
0.0928229
-1.03039
0.124815
-1.51822
0.12761
-1.6243
0.12293
-1.61231
0.116453
-1.58884
0.109731
-1.56752
0.102219
-1.54764
0.0942214
-1.52948
0.0859441
-1.51305
0.0774323
-1.49722
0.0686321
-1.4819
0.0596403
-1.4667
0.0502254
-1.4515
0.0407546
-1.43677
0.0314322
-1.42067
0.0220622
-1.40252
0.0123791
-1.38174
0.00239902
-1.36423
-1.34834
-0.00755754
0.0348352
-0.397349
0.0839372
-1.07949
0.102464
-1.53675
0.0988633
-1.6207
0.0906622
-1.60411
0.0823986
-1.58058
0.0736628
-1.55878
0.064932
-1.53891
0.0557719
-1.52032
0.0461092
-1.50338
0.036072
-1.48718
0.0256739
-1.4715
0.0149532
-1.45598
0.00406826
-1.44061
-0.0071846
-1.42552
-0.0187064
-1.40915
-0.0301167
-1.39111
-0.0411072
-1.37075
-0.0523145
-1.35302
-1.33715
-0.06351
0.0264693
-0.423818
0.0642677
-1.11729
0.0785147
-1.55099
0.0714088
-1.61359
0.0603498
-1.59305
0.0489066
-1.56913
0.0370898
-1.54696
0.0246594
-1.52648
0.012133
-1.5078
-0.000503847
-1.49075
-0.0133368
-1.47435
-0.026224
-1.45862
-0.0391748
-1.44303
-0.0523745
-1.42741
-0.0653988
-1.41249
-0.0782488
-1.3963
-0.091219
-1.37814
-0.104218
-1.35775
-0.117401
-1.33984
-1.3239
-0.130649
0.0255959
-0.449414
0.0569389
-1.14863
0.0611137
-1.55517
0.0501827
-1.60266
0.036364
-1.57924
0.0226638
-1.55543
0.00858005
-1.53288
-0.00554777
-1.51235
-0.0201465
-1.4932
-0.034949
-1.47594
-0.0498538
-1.45944
-0.0650825
-1.44339
-0.08025
-1.42786
-0.0953656
-1.4123
-0.110609
-1.39725
-0.125574
-1.38134
-0.139986
-1.36373
-0.154195
-1.34354
-0.168732
-1.3253
-1.30924
-0.183392
0.0218081
-0.471222
0.0460895
-1.17292
0.0436955
-1.55277
0.0276993
-1.58666
0.0103882
-1.56192
-0.00687799
-1.53817
-0.0241399
-1.51562
-0.0415831
-1.49491
-0.0588577
-1.47592
-0.0762799
-1.45852
-0.0936903
-1.44203
-0.110941
-1.42614
-0.128396
-1.41041
-0.145989
-1.39471
-0.163392
-1.37985
-0.180549
-1.36418
-0.197391
-1.34688
-0.213744
-1.32719
-0.230426
-1.30862
-1.29246
-0.247201
0.0192419
-0.490464
0.0379997
-1.19167
0.0299072
-1.54468
0.0111701
-1.56793
-0.00862446
-1.54213
-0.0282667
-1.51853
-0.0480498
-1.49583
-0.0679074
-1.47505
-0.0880245
-1.45581
-0.107989
-1.43856
-0.127966
-1.42205
-0.147948
-1.40616
-0.167341
-1.39101
-0.186584
-1.37546
-0.205824
-1.36061
-0.224665
-1.34534
-0.242883
-1.32866
-0.260712
-1.30936
-0.278558
-1.29078
-1.27459
-0.296427
0.0156641
-0.506128
0.0281997
-1.20421
0.0142099
-1.53069
-0.00867682
-1.54504
-0.0317214
-1.51909
-0.054466
-1.49578
-0.0770485
-1.47325
-0.0995217
-1.45257
-0.121864
-1.43346
-0.144333
-1.41609
-0.166594
-1.39979
-0.188898
-1.38385
-0.211389
-1.36852
-0.233518
-1.35333
-0.255262
-1.33886
-0.276535
-1.32407
-0.297108
-1.30809
-0.31709
-1.28938
-0.337422
-1.27044
-1.25437
-0.357649
0.0135131
-0.519641
0.0210273
-1.21172
0.00317058
-1.51284
-0.0220985
-1.51977
-0.0476607
-1.49352
-0.073157
-1.47028
-0.0983813
-1.44803
-0.123568
-1.42739
-0.148758
-1.40827
-0.173646
-1.3912
-0.198309
-1.37513
-0.222585
-1.35958
-0.246431
-1.34468
-0.270383
-1.32938
-0.294233
-1.31501
-0.317662
-1.30064
-0.340096
-1.28566
-0.361464
-1.26801
-0.38284
-1.24907
-1.23293
-0.404274
0.010331
-0.529972
0.0123524
-1.21374
-0.0110472
-1.48944
-0.0397848
-1.49103
-0.0682702
-1.46504
-0.0962673
-1.44229
-0.124142
-1.42015
-0.151749
-1.39978
-0.179275
-1.38075
-0.20698
-1.36349
-0.234474
-1.34764
-0.261859
-1.33219
-0.288811
-1.31772
-0.315063
-1.30313
-0.340963
-1.28911
-0.366546
-1.27506
-0.391623
-1.26058
-0.415575
-1.24406
-0.439175
-1.22547
-1.20928
-0.462825
0.00859291
-0.538565
0.00642003
-1.21157
-0.0199344
-1.46308
-0.0509756
-1.45999
-0.081939
-1.43407
-0.112865
-1.41136
-0.143072
-1.38995
-0.173078
-1.36977
-0.202838
-1.35099
-0.232226
-1.33411
-0.261426
-1.31844
-0.290527
-1.30309
-0.319586
-1.28866
-0.348623
-1.27409
-0.377212
-1.26052
-0.405108
-1.24716
-0.43207
-1.23362
-0.457888
-1.21824
-0.483125
-1.20023
-1.18413
-0.508277
0.00565452
-0.54422
-0.00146908
-1.20445
-0.0326896
-1.43186
-0.0670988
-1.42558
-0.100586
-1.40059
-0.133687
-1.37826
-0.166801
-1.35683
-0.199456
-1.33712
-0.232042
-1.3184
-0.264782
-1.30137
-0.296939
-1.28628
-0.328519
-1.27151
-0.359465
-1.25772
-0.390003
-1.24356
-0.420598
-1.22993
-0.450971
-1.21679
-0.480652
-1.20394
-0.508909
-1.18998
-0.536097
-1.17304
-1.15688
-0.563346
0.0038703
-0.54809
-0.00708402
-1.19349
-0.0397075
-1.39924
-0.0761196
-1.38917
-0.112065
-1.36464
-0.147623
-1.3427
-0.182422
-1.32203
-0.216915
-1.30263
-0.250848
-1.28447
-0.284689
-1.26752
-0.318922
-1.25205
-0.353303
-1.23713
-0.387365
-1.22366
-0.420827
-1.21009
-0.453722
-1.19703
-0.486392
-1.18412
-0.518536
-1.17179
-0.549365
-1.15915
-0.578532
-1.14387
-1.12804
-0.607376
0.000954161
-0.549044
-0.0154829
-1.17706
-0.052087
-1.36263
-0.0910606
-1.3502
-0.129137
-1.32656
-0.167027
-1.30481
-0.20473
-1.28433
-0.242082
-1.26527
-0.279203
-1.24735
-0.31589
-1.23084
-0.351564
-1.21637
-0.387013
-1.20168
-0.422516
-1.18815
-0.4578
-1.17481
-0.492927
-1.1619
-0.52769
-1.14935
-0.562303
-1.13718
-0.595876
-1.12558
-0.627357
-1.11239
-1.09706
-0.658336
-5.24073e-05
-0.548992
-0.0191257
-1.15798
-0.0570592
-1.3247
-0.0978125
-1.30944
-0.13786
-1.28652
-0.177301
-1.26537
-0.21625
-1.24538
-0.254783
-1.22674
-0.292907
-1.20922
-0.331526
-1.19222
-0.370526
-1.17737
-0.408893
-1.16331
-0.446814
-1.15023
-0.484285
-1.13734
-0.521499
-1.12469
-0.558724
-1.11213
-0.595709
-1.1002
-0.632481
-1.08881
-0.667247
-1.07763
-1.06346
-0.700843
-0.0023485
-0.546643
-0.0256084
-1.13472
-0.0672514
-1.28306
-0.110497
-1.2662
-0.152956
-1.24406
-0.195117
-1.22321
-0.236639
-1.20386
-0.277941
-1.18544
-0.318447
-1.16872
-0.358029
-1.15264
-0.397306
-1.13809
-0.436928
-1.12369
-0.47667
-1.11049
-0.516158
-1.09785
-0.555186
-1.08566
-0.594202
-1.07311
-0.633712
-1.06069
-0.673301
-1.04922
-0.712478
-1.03845
-1.02665
-0.749291
-0.00324628
-0.0286704
-0.0712394
-0.115541
-0.158917
-0.201812
-0.244241
-0.286208
-0.328316
-0.370686
-0.41268
-0.453675
-0.494483
-0.535416
-0.576288
-0.6165
-0.656893
-0.698424
-0.741137
-0.783758
0.184576
-11.9808
12.0585
0.129083
-11.3126
11.3681
0.0805574
-10.9766
11.0251
0.0492788
-10.61
10.6413
0.024408
-10.3624
10.3872
0.00570678
-10.0776
10.0963
-0.00805008
-9.84279
9.85655
-0.0164968
-9.64885
9.6573
-0.0221574
-9.49459
9.50026
-0.0251723
-9.35343
9.35645
-0.0257071
-9.24886
9.24939
-0.0235489
-9.16049
9.15833
-0.0201055
-9.10447
9.10103
-0.0160145
-9.03841
9.03432
-0.00964128
-9.00172
8.99535
-0.00363773
-8.89213
8.88613
0.00314646
-8.58943
8.58265
0.00603098
-7.48509
7.48221
0.00764262
-5.27263
5.27101
-2.16304
2.17068
0.125016
-11.9095
0.0711085
-11.2587
0.0208595
-10.9263
-0.0103647
-10.5788
-0.033909
-10.3388
-0.0505556
-10.0609
-0.0608867
-9.83246
-0.0662636
-9.64347
-0.0685409
-9.49232
-0.0677788
-9.35419
-0.0644079
-9.25223
-0.0585303
-9.16637
-0.0511718
-9.11183
-0.0427273
-9.04685
-0.032078
-9.01237
-0.0214139
-8.9028
-0.00937184
-8.60148
-0.000246549
-7.49422
0.00533519
-5.27821
-2.1577
0.0384134
-11.825
-0.0170129
-11.2032
-0.0631982
-10.8801
-0.0895546
-10.5524
-0.107858
-10.3205
-0.119933
-10.0488
-0.125046
-9.82735
-0.12534
-9.64318
-0.122561
-9.4951
-0.116761
-9.35999
-0.108307
-9.26068
-0.0974742
-9.1772
-0.0852891
-9.12401
-0.0719941
-9.06015
-0.0561967
-9.02817
-0.0399025
-8.91909
-0.0222007
-8.61918
-0.00659271
-7.50982
0.00293314
-5.28773
-2.15477
-0.0196592
-11.7429
-0.0749303
-11.148
-0.122604
-10.8325
-0.149681
-10.5253
-0.166487
-10.3037
-0.176135
-10.0392
-0.177956
-9.82553
-0.175129
-9.64601
-0.168856
-9.50137
-0.159352
-9.3695
-0.147147
-9.27289
-0.132626
-9.19172
-0.116415
-9.14022
-0.0987858
-9.07778
-0.0787993
-9.04816
-0.0578672
-8.94002
-0.0350177
-8.64203
-0.0132367
-7.5316
0.000545703
-5.30152
-2.15422
-0.102362
-11.6481
-0.160879
-11.0894
-0.204757
-10.7886
-0.227159
-10.5029
-0.239355
-10.2915
-0.244512
-10.034
-0.241349
-9.82869
-0.233579
-9.65378
-0.222347
-9.5126
-0.207893
-9.38395
-0.190644
-9.29014
-0.171298
-9.21107
-0.150416
-9.16111
-0.127945
-9.10025
-0.10296
-9.07314
-0.0764381
-8.96654
-0.0478379
-8.67063
-0.0198137
-7.55963
-0.00180382
-5.31952
-2.15603
-0.158147
-11.5534
-0.218545
-11.029
-0.264337
-10.7428
-0.287271
-10.48
-0.297899
-10.2809
-0.300337
-10.0316
-0.293983
-9.83504
-0.283072
-9.66469
-0.268279
-9.52739
-0.250225
-9.40201
-0.229364
-9.311
-0.206301
-9.23413
-0.181377
-9.18603
-0.154686
-9.12694
-0.12559
-9.10224
-0.0944556
-8.99768
-0.0604306
-8.70465
-0.026533
-7.59353
-0.00429186
-5.34177
-2.16032
-0.238165
-11.4459
-0.301046
-10.9662
-0.343639
-10.7002
-0.362615
-10.461
-0.369148
-10.2744
-0.367229
-10.0335
-0.356141
-9.84613
-0.340471
-9.68036
-0.320847
-9.54702
-0.297929
-9.42492
-0.272144
-9.33678
-0.244463
-9.26181
-0.215075
-9.21542
-0.183637
-9.15838
-0.149573
-9.1363
-0.113106
-9.03414
-0.0733991
-8.74436
-0.0336881
-7.63324
-0.00711026
-5.36834
-2.16743
-0.292576
-11.3367
-0.358498
-10.9002
-0.402986
-10.6557
-0.422197
-10.4418
-0.427042
-10.2695
-0.422328
-10.0382
-0.408158
-9.8603
-0.389335
-9.69918
-0.366121
-9.57023
-0.339703
-9.45134
-0.310407
-9.36608
-0.278992
-9.29323
-0.245719
-9.24869
-0.210324
-9.19377
-0.172371
-9.17425
-0.131189
-9.07533
-0.0861561
-8.78939
-0.0406289
-7.67876
-0.00965634
-5.39932
-2.17709
-0.36855
-11.2154
-0.436948
-10.8318
-0.479169
-10.6135
-0.495133
-10.4259
-0.496263
-10.2684
-0.487248
-10.0472
-0.468621
-9.87893
-0.44527
-9.72253
-0.417394
-9.59811
-0.386216
-9.48252
-0.352193
-9.4001
-0.316407
-9.32901
-0.278917
-9.28618
-0.238937
-9.23375
-0.196365
-9.21683
-0.149915
-9.12178
-0.0991032
-8.8402
-0.0476891
-7.73018
-0.012601
-5.4344
-2.18969
-0.421983
-11.0898
-0.493553
-10.7603
-0.537575
-10.5695
-0.553792
-10.4096
-0.553167
-10.269
-0.541351
-10.0591
-0.519671
-9.90061
-0.493148
-9.74906
-0.461731
-9.62953
-0.427181
-9.51707
-0.389678
-9.4376
-0.35016
-9.36853
-0.309
-9.32734
-0.265317
-9.27744
-0.21881
-9.26333
-0.167939
-9.17265
-0.111892
-8.89625
-0.0547281
-7.78734
-0.0156629
-5.47347
-2.20535
-0.493407
-10.9541
-0.567507
-10.6862
-0.61015
-10.5268
-0.623622
-10.3962
-0.619625
-10.273
-0.603867
-10.0748
-0.578049
-9.92643
-0.547212
-9.77989
-0.511366
-9.66537
-0.472223
-9.55621
-0.430246
-9.47958
-0.386563
-9.41221
-0.341208
-9.3727
-0.293035
-9.32561
-0.241852
-9.31452
-0.186174
-9.22832
-0.124615
-8.95781
-0.0617602
-7.8502
-0.0187564
-5.51647
-2.22411
-0.545912
-10.8124
-0.622614
-10.6095
-0.667029
-10.4824
-0.681158
-10.382
-0.675229
-10.2789
-0.656599
-10.0935
-0.627781
-9.95524
-0.593754
-9.81392
-0.55451
-9.70462
-0.512099
-9.59862
-0.466642
-9.52504
-0.419225
-9.45963
-0.370264
-9.42166
-0.318769
-9.3771
-0.263832
-9.36945
-0.204042
-9.28811
-0.137366
-9.02449
-0.0688255
-7.91874
-0.0213495
-5.56395
-2.24546
-0.613058
-10.6622
-0.691819
-10.5307
-0.735071
-10.4392
-0.747004
-10.3701
-0.73829
-10.2877
-0.7163
-10.1154
-0.683657
-9.98789
-0.645531
-9.85204
-0.60213
-9.74802
-0.555361
-9.64539
-0.505733
-9.57467
-0.454253
-9.51111
-0.401053
-9.47486
-0.345514
-9.43264
-0.286199
-9.42877
-0.221624
-9.35269
-0.149639
-9.09647
-0.0755084
-7.99287
-0.0233939
-5.61606
-2.26885
-0.66479
-10.5057
-0.745366
-10.4501
-0.790083
-10.3944
-0.802894
-10.3573
-0.792004
-10.2985
-0.767194
-10.1402
-0.731716
-10.0234
-0.690406
-9.89335
-0.643775
-9.79465
-0.593795
-9.69537
-0.540682
-9.62778
-0.485536
-9.56626
-0.428886
-9.53151
-0.370023
-9.49151
-0.307381
-9.49141
-0.23905
-9.42102
-0.162186
-9.17334
-0.0823534
-8.0727
-0.024715
-5.6737
-2.29357
-0.728176
-10.3408
-0.81002
-10.3683
-0.853045
-10.3514
-0.8644
-10.3459
-0.851419
-10.3115
-0.82365
-10.168
-0.784687
-10.0623
-0.739542
-9.9385
-0.689027
-9.84516
-0.634989
-9.74941
-0.578014
-9.68475
-0.518918
-9.62535
-0.457946
-9.59248
-0.394873
-9.55458
-0.328386
-9.5579
-0.255881
-9.49353
-0.174281
-9.25494
-0.0888411
-8.15814
-0.0254184
-5.73713
-2.31898
-0.778745
-10.1695
-0.862253
-10.2848
-0.905811
-10.3079
-0.917804
-10.3339
-0.902753
-10.3266
-0.872349
-10.1984
-0.830716
-10.104
-0.782448
-9.98677
-0.728831
-9.89878
-0.671622
-9.80662
-0.611225
-9.74515
-0.548608
-9.68797
-0.484341
-9.65675
-0.417912
-9.62101
-0.348377
-9.62743
-0.272494
-9.56941
-0.186363
-9.34107
-0.0954166
-8.24909
-0.026102
-5.80644
-2.34509
-0.839092
-9.98872
-0.922597
-10.2013
-0.963221
-10.2672
-0.974312
-10.3229
-0.957963
-10.3429
-0.924905
-10.2315
-0.880256
-10.1486
-0.828547
-10.0385
-0.77136
-9.95597
-0.710443
-9.86754
-0.646475
-9.80912
-0.580064
-9.75438
-0.511675
-9.72514
-0.441176
-9.69151
-0.368347
-9.70026
-0.288988
-9.64877
-0.198295
-9.43176
-0.101942
-8.34544
-0.0268071
-5.88157
-2.37189
-0.891249
-9.79832
-0.976035
-10.1165
-1.01457
-10.2287
-1.0252
-10.3122
-1.00687
-10.3613
-0.971208
-10.2671
-0.923867
-10.196
-0.869115
-10.0932
-0.808933
-10.0161
-0.744906
-9.93157
-0.677692
-9.87633
-0.608087
-9.82398
-0.536847
-9.79638
-0.463865
-9.76449
-0.388104
-9.77602
-0.305263
-9.73161
-0.210157
-9.52686
-0.108236
-8.44736
-0.0274625
-5.96235
-2.39936
-0.941345
-9.60626
-1.03503
-10.0228
-1.07086
-10.1929
-1.07973
-10.3034
-1.06002
-10.381
-1.02152
-10.3056
-0.971036
-10.2464
-0.91287
-10.1514
-0.849154
-10.0799
-0.78159
-9.99913
-0.71093
-9.94699
-0.63763
-9.89728
-0.562504
-9.8715
-0.4856
-9.84139
-0.40682
-9.8548
-0.321128
-9.8173
-0.221752
-9.62624
-0.114872
-8.55424
-0.028262
-6.04896
-2.42762
-0.98012
-9.4099
-1.07766
-9.92527
-1.11191
-10.1586
-1.12097
-10.2943
-1.10249
-10.3994
-1.06266
-10.3455
-1.01083
-10.2983
-0.949998
-10.2122
-0.884009
-10.1459
-0.813389
-10.0697
-0.739968
-10.0204
-0.663695
-9.97356
-0.586149
-9.94905
-0.506654
-9.92089
-0.425714
-9.93574
-0.33686
-9.90615
-0.233232
-9.72987
-0.1215
-8.66597
-0.0291186
-6.14134
-2.45674
8.49544
-8.50122
-9.40412
7.33009
-8.75992
6.28845
-9.11697
5.32115
-9.32701
4.43481
-9.5131
3.66782
-9.57848
3.0201
-9.65055
2.47572
-9.66785
2.01866
-9.6888
1.63455
-9.68563
1.32039
-9.70626
1.06403
-9.7172
0.847329
-9.73235
0.664408
-9.73797
0.49034
-9.76167
0.344819
-9.76063
0.262663
-9.64771
0.169689
-8.573
0.0715147
-6.04317
-2.38522
4.98769
-8.10264
-5.38627
4.52877
-8.30099
4.05748
-8.64568
3.56622
-8.83575
3.08029
-9.02717
2.64846
-9.14666
2.2585
-9.2606
1.9226
-9.33195
1.63112
-9.39731
1.38735
-9.44186
1.17204
-9.49095
0.978227
-9.52339
0.798692
-9.55281
0.638246
-9.57752
0.485574
-9.609
0.3466
-9.62166
0.209509
-9.51062
0.0928047
-8.45629
-0.0430419
-5.90732
-2.42826
3.62552
-7.99319
-3.73498
3.50876
-8.18422
3.28743
-8.42435
3.03254
-8.58086
2.74739
-8.74202
2.47217
-8.87144
2.19582
-8.98424
1.93489
-9.07102
1.68537
-9.14779
1.45407
-9.21056
1.23005
-9.26693
1.01626
-9.30959
0.814402
-9.35096
0.626526
-9.38965
0.452808
-9.43528
0.294487
-9.46334
0.157677
-9.37381
0.0949117
-8.39353
0.0284289
-5.84084
-2.39983
2.32721
-8.00969
-2.31071
2.30653
-8.16355
2.21039
-8.32821
2.09152
-8.46199
1.94164
-8.59213
1.77369
-8.70349
1.59332
-8.80386
1.41156
-8.88926
1.23107
-8.9673
1.05669
-9.03618
0.890987
-9.10123
0.740062
-9.15867
0.601382
-9.21228
0.47413
-9.26239
0.349023
-9.31018
0.229886
-9.3442
0.121935
-9.26586
0.0924583
-8.36405
0.0686037
-5.81698
-2.33123
1.63982
-8.0738
-1.57571
1.65783
-8.18156
1.63166
-8.30204
1.57651
-8.40684
1.49942
-8.51505
1.4031
-8.60717
1.28846
-8.68922
1.16438
-8.76519
1.03417
-8.8371
0.904452
-8.90646
0.770557
-8.96733
0.638067
-9.02618
0.501372
-9.07558
0.369383
-9.13041
0.231574
-9.17237
0.101305
-9.21393
0.00213353
-9.16669
-0.0023412
-8.35958
0.0389327
-5.85826
-2.2923
1.17346
-8.13249
-1.11477
1.20819
-8.21629
1.19722
-8.29106
1.16637
-8.37599
1.10939
-8.45807
1.03715
-8.53493
0.95024
-8.60231
0.855688
-8.67063
0.756189
-8.7376
0.650937
-8.80121
0.544089
-8.86048
0.432899
-8.91499
0.322386
-8.96507
0.209904
-9.01792
0.101947
-9.06441
-0.000313135
-9.11167
-0.0921601
-9.07484
-0.073442
-8.3783
0.0374263
-5.96912
-2.25487
0.828241
-8.16502
-0.795706
0.837955
-8.22601
0.845008
-8.29812
0.831865
-8.36285
0.796374
-8.42258
0.74468
-8.48324
0.686282
-8.54391
0.618992
-8.60334
0.545703
-8.66431
0.463029
-8.71853
0.37531
-8.77276
0.283692
-8.82337
0.192599
-8.87398
0.0971938
-8.92252
0.00372956
-8.97095
-0.0901821
-9.01776
-0.171471
-8.99355
-0.140898
-8.40887
0.0115801
-6.1216
-2.24329
0.666312
-8.19402
-0.637315
0.681661
-8.24136
0.670226
-8.28668
0.640192
-8.33281
0.604681
-8.38706
0.554533
-8.43309
0.499187
-8.48857
0.436737
-8.54089
0.365911
-8.59348
0.290796
-8.64342
0.210581
-8.69255
0.129172
-8.74196
0.0475983
-8.7924
-0.0375895
-8.83733
-0.119498
-8.88904
-0.203324
-8.93394
-0.273902
-8.92298
-0.227984
-8.45479
-0.0317545
-6.31783
-2.27505
0.493239
-8.19792
-0.489342
0.485468
-8.23359
0.473318
-8.27453
0.45457
-8.31406
0.422946
-8.35544
0.385343
-8.39549
0.337843
-8.44107
0.28114
-8.48419
0.217514
-8.52986
0.146959
-8.57286
0.0748984
-8.62049
-0.00151386
-8.66555
-0.0791737
-8.71474
-0.158167
-8.75834
-0.241215
-8.80599
-0.320742
-8.85441
-0.381541
-8.86218
-0.333759
-8.50257
-0.100044
-6.55155
-2.37509
0.426628
-8.19351
-0.431037
0.414733
-8.22169
0.393536
-8.25334
0.360728
-8.28126
0.320108
-8.31482
0.276602
-8.35198
0.227498
-8.39196
0.168852
-8.42555
0.105196
-8.4662
0.0353948
-8.50306
-0.0389224
-8.54617
-0.119471
-8.585
-0.204046
-8.63017
-0.286135
-8.67625
-0.368618
-8.72351
-0.45027
-8.77276
-0.516068
-8.79638
-0.484545
-8.53409
-0.205663
-6.83043
-2.58075
0.341817
-8.17583
-0.359492
0.317126
-8.197
0.287591
-8.2238
0.255333
-8.249
0.220978
-8.28046
0.177066
-8.30807
0.122916
-8.33781
0.06483
-8.36746
-0.00143773
-8.39993
-0.0711747
-8.43333
-0.148303
-8.46904
-0.228932
-8.50437
-0.313844
-8.54526
-0.403504
-8.58659
-0.493632
-8.63338
-0.593062
-8.67333
-0.687191
-8.70225
-0.680135
-8.54115
-0.358912
-7.15165
-2.93966
0.30334
-8.15797
-0.321206
0.280446
-8.17411
0.251404
-8.19476
0.216034
-8.21363
0.171159
-8.23559
0.119205
-8.25611
0.0625471
-8.28116
0.000127542
-8.30504
-0.0665558
-8.33325
-0.139921
-8.35996
-0.218161
-8.3908
-0.301737
-8.4208
-0.391611
-8.45538
-0.491609
-8.48659
-0.601195
-8.52379
-0.709009
-8.56551
-0.804903
-8.60635
-0.838436
-8.50761
-0.552036
-7.43805
-3.4917
0.2495
-8.13339
-0.274079
0.219524
-8.14413
0.184431
-8.15967
0.14371
-8.17291
0.0989023
-8.19078
0.04936
-8.20657
-0.004497
-8.2273
-0.0649373
-8.2446
-0.130996
-8.26719
-0.204399
-8.28656
-0.285304
-8.3099
-0.375329
-8.33077
-0.475544
-8.35517
-0.581534
-8.3806
-0.69918
-8.40615
-0.826284
-8.43841
-0.963484
-8.46915
-1.04172
-8.42938
-0.819968
-7.6598
-4.31167
0.208721
-8.10919
-0.232919
0.181261
-8.11667
0.149567
-8.12797
0.111674
-8.13502
0.0695605
-8.14867
0.0234186
-8.16043
-0.0292426
-8.17464
-0.0886511
-8.18519
-0.154726
-8.20111
-0.227785
-8.2135
-0.308316
-8.22936
-0.396001
-8.24309
-0.493137
-8.25803
-0.598576
-8.27516
-0.717282
-8.28744
-0.854487
-8.3012
-1.01955
-8.30409
-1.1484
-8.30052
-0.978096
-7.83011
-5.28977
0.152212
-8.08385
-0.177558
0.124442
-8.0889
0.0931591
-8.09669
0.0589337
-8.10079
0.0207798
-8.11051
-0.0214278
-8.11822
-0.0675802
-8.12848
-0.11899
-8.13378
-0.175586
-8.14452
-0.237971
-8.15111
-0.306445
-8.16089
-0.382394
-8.16714
-0.466317
-8.17411
-0.563794
-8.17769
-0.670171
-8.18106
-0.786667
-8.18471
-0.914707
-8.17605
-1.04886
-8.16637
-0.927033
-7.95194
-6.2168
0.116458
-8.06348
-0.136818
0.0931893
-8.06563
0.0665729
-8.07007
0.0373797
-8.0716
0.00297634
-8.07611
-0.0350528
-8.08019
-0.0773128
-8.08622
-0.120933
-8.09016
-0.169964
-8.09549
-0.223169
-8.09791
-0.28148
-8.10258
-0.345365
-8.10325
-0.414304
-8.10517
-0.492219
-8.09977
-0.574274
-8.09901
-0.667368
-8.09161
-0.758512
-8.08491
-0.855197
-8.06968
-0.799348
-8.00779
-7.01615
0.0665449
-8.04264
-0.0873852
0.0449896
-8.04408
0.0222342
-8.04732
-0.000832929
-8.04853
-0.024292
-8.05265
-0.049649
-8.05484
-0.077887
-8.05799
-0.10816
-8.05989
-0.141311
-8.06234
-0.177142
-8.06208
-0.215169
-8.06455
-0.2557
-8.06272
-0.29705
-8.06382
-0.339615
-8.05721
-0.384234
-8.05439
-0.431548
-8.0443
-0.480427
-8.03603