/*--------------------------------*- C++ -*----------------------------------*\
  =========                 |
  \\      /  F ield         | OpenFOAM: The Open Source CFD Toolbox
   \\    /   O peration     | Website:  https://openfoam.org
    \\  /    A nd           | Version:  9
     \\/     M anipulation  |
\*---------------------------------------------------------------------------*/
FoamFile
{
    format      ascii;
    class       volVectorField;
    location    "5";
    object      U;
}
// * * * * * * * * * * * * * * * * * * * * * * * * * * * * * * * * * * * * * //

dimensions      [0 1 -1 0 0 0 0];

internalField   nonuniform List<vector> 
46400
(
(9.67507 -9.48687 -6.21348e-19)
(19.7843 -18.9606 6.52807e-19)
(21.5052 -21.6354 -7.39969e-20)
(20.7481 -21.6696 2.76823e-20)
(20.0233 -21.6453 -5.81745e-20)
(19.3018 -21.6865 -5.64078e-19)
(18.6698 -21.693 2.81715e-19)
(18.0402 -21.7193 -3.72964e-20)
(17.4538 -21.7268 2.72028e-20)
(16.8793 -21.7047 -1.81307e-20)
(16.3378 -21.7075 1.00409e-20)
(15.8662 -21.7499 0)
(15.398 -21.7969 -4.04555e-20)
(14.9473 -21.7935 3.60923e-20)
(14.5008 -21.8054 -7.52362e-20)
(14.0994 -21.8115 -6.34139e-20)
(13.6737 -21.8255 -4.24292e-20)
(13.2979 -21.7409 1.12733e-19)
(12.9316 -21.7143 2.38731e-19)
(12.4487 -21.9276 -2.16755e-19)
(9.96088 -8.96705 0)
(19.9192 -17.7503 -3.7244e-20)
(21.3873 -19.9582 0)
(20.6477 -20.1039 -3.5888e-19)
(19.9796 -20.1354 2.61984e-19)
(19.2539 -20.202 -6.13996e-20)
(18.6136 -20.2455 0)
(17.9908 -20.3058 3.72974e-20)
(17.4298 -20.3977 -2.72037e-20)
(16.8934 -20.4765 1.81313e-20)
(16.3756 -20.5536 3.95582e-20)
(15.8707 -20.5854 5.15594e-20)
(15.4041 -20.6693 -9.4977e-20)
(14.9858 -20.7509 0)
(14.5653 -20.8139 1.50747e-20)
(14.1708 -20.8523 1.99609e-20)
(13.7913 -20.9158 0)
(13.4322 -20.888 -3.29243e-19)
(13.0975 -20.8766 -1.00454e-19)
(12.663 -21.0812 3.40087e-19)
(10.201 -8.42631 -2.36129e-19)
(19.9479 -16.5061 1.78418e-19)
(21.2318 -18.4266 -2.39371e-19)
(20.426 -18.5814 -1.22116e-19)
(19.7394 -18.6645 1.19885e-19)
(19.0253 -18.7919 0)
(18.3953 -18.8892 -3.37275e-20)
(17.7761 -18.991 2.0167e-20)
(17.1798 -19.065 -1.77172e-19)
(16.6263 -19.1392 1.81017e-19)
(16.1083 -19.2506 2.48189e-19)
(15.6428 -19.3451 -1.04375e-22)
(15.1705 -19.4344 -2.35275e-19)
(14.7422 -19.5165 0)
(14.332 -19.6304 3.8587e-19)
(13.9442 -19.7018 -3.8002e-19)
(13.5596 -19.8103 0)
(13.2293 -19.852 -1.76493e-20)
(12.8708 -19.9242 4.77224e-20)
(12.4554 -20.2041 -4.93444e-19)
(10.3673 -7.8586 8.31435e-20)
(19.866 -15.2839 -4.26851e-20)
(20.8732 -16.8173 -3.08129e-20)
(20.0846 -17.0624 3.04439e-20)
(19.4556 -17.1959 -3.37393e-20)
(18.7561 -17.3603 5.91671e-20)
(18.1307 -17.4941 1.43087e-19)
(17.5424 -17.6493 -4.43819e-19)
(17.0065 -17.8374 3.95333e-19)
(16.4763 -17.9587 -3.49654e-20)
(15.9654 -18.1134 0)
(15.4941 -18.2436 4.52954e-20)
(15.0381 -18.3948 -4.95095e-20)
(14.6193 -18.518 0)
(14.2154 -18.6612 5.45474e-19)
(13.8363 -18.7719 -4.58726e-19)
(13.4643 -18.8958 0)
(13.1237 -18.9686 6.36789e-20)
(12.7769 -19.0282 8.10155e-20)
(12.3257 -19.3139 6.32267e-19)
(10.4688 -7.27221 0)
(19.6396 -14.0123 0)
(20.4508 -15.351 -1.13197e-19)
(19.6621 -15.6176 6.13078e-20)
(19.0171 -15.8088 -2.17275e-19)
(18.3386 -16.0158 1.8736e-19)
(17.7138 -16.1994 0)
(17.1025 -16.3494 2.69512e-19)
(16.5262 -16.5328 -3.2081e-19)
(16.0033 -16.686 -8.61729e-20)
(15.4834 -16.8521 -8.92386e-20)
(15.0304 -17.0069 0)
(14.5808 -17.1805 6.77676e-19)
(14.1678 -17.3239 -6.67079e-19)
(13.7815 -17.5123 0)
(13.4238 -17.6689 -7.93227e-19)
(13.0622 -17.8474 7.04102e-19)
(12.7621 -17.9857 7.28161e-19)
(12.4329 -18.1201 -7.91661e-19)
(12.0045 -18.4198 0)
(10.5488 -6.71193 0)
(19.2695 -12.6376 0)
(19.9249 -13.845 0)
(19.1381 -14.1474 -3.34163e-20)
(18.5339 -14.3971 0)
(17.8759 -14.6428 0)
(17.2774 -14.8807 0)
(16.7141 -15.0978 -1.05232e-19)
(16.1914 -15.3549 0)
(15.7019 -15.569 8.61743e-20)
(15.2101 -15.7896 -2.3418e-20)
(14.7605 -15.9829 -9.51448e-19)
(14.3246 -16.195 7.09005e-19)
(13.9094 -16.3661 -9.71156e-19)
(13.5073 -16.5503 7.26155e-19)
(13.1446 -16.7272 0)
(12.7806 -16.9011 -8.64896e-19)
(12.4564 -17.0501 7.36256e-19)
(12.1513 -17.2065 0)
(11.7264 -17.5327 -1.21003e-19)
(10.6582 -6.12779 2.8509e-19)
(18.7931 -11.327 9.70937e-20)
(19.2757 -12.4089 3.87518e-19)
(18.4953 -12.7664 -4.16099e-19)
(17.8935 -13.0779 -4.40225e-19)
(17.2651 -13.3692 8.90522e-19)
(16.6626 -13.6522 -1.05154e-18)
(16.0745 -13.8577 8.59827e-20)
(15.5121 -14.1091 3.41815e-19)
(15.0256 -14.3381 0)
(14.5324 -14.5827 -2.26467e-20)
(14.0931 -14.7918 -2.1584e-20)
(13.6788 -15.0426 1.15083e-19)
(13.2955 -15.2484 9.94013e-19)
(12.9242 -15.4855 -8.81965e-19)
(12.596 -15.7042 -1.1425e-18)
(12.2573 -15.937 9.93255e-19)
(11.9597 -16.1168 -1.65944e-20)
(11.6652 -16.3051 -1.30819e-19)
(11.2677 -16.6489 -9.2879e-19)
(10.7984 -5.53995 -1.25024e-19)
(18.1561 -9.99014 3.5784e-20)
(18.5133 -10.9618 -1.42747e-19)
(17.747 -11.356 -5.76804e-19)
(17.174 -11.7612 3.83374e-19)
(16.5829 -12.0988 0)
(16.0353 -12.4628 8.65045e-19)
(15.5252 -12.7679 -4.13126e-19)
(15.0061 -13.0647 2.90681e-19)
(14.5527 -13.3407 1.57314e-19)
(14.0996 -13.6241 -2.97926e-19)
(13.677 -13.868 7.16308e-19)
(13.2674 -14.1319 1.55319e-19)
(12.8806 -14.3532 -8.76265e-19)
(12.4802 -14.5605 2.45838e-18)
(12.135 -14.7765 -1.00588e-18)
(11.8058 -15.0138 1.28777e-18)
(11.4987 -15.2132 -8.40621e-19)
(11.232 -15.4202 2.77877e-19)
(10.8464 -15.7765 1.34391e-18)
(11.0176 -4.99783 6.91255e-19)
(17.4505 -8.82208 -1.36096e-19)
(17.566 -9.65638 -3.24783e-20)
(16.826 -10.0801 3.2746e-19)
(16.2758 -10.529 1.51777e-19)
(15.7425 -10.9323 1.81205e-19)
(15.1867 -11.3055 -8.37931e-19)
(14.6787 -11.6227 5.1343e-19)
(14.1773 -11.9466 -1.57336e-19)
(13.7212 -12.2234 -1.57323e-19)
(13.2836 -12.5275 -1.56959e-19)
(12.871 -12.7757 -1.75792e-19)
(12.5019 -13.0823 -3.29244e-19)
(12.1823 -13.3698 1.15511e-18)
(11.8386 -13.6387 -1.61172e-18)
(11.5083 -13.8665 -1.67532e-19)
(11.1956 -14.1233 1.54601e-20)
(10.9088 -14.3342 -1.23228e-18)
(10.6498 -14.5659 9.21472e-19)
(10.3365 -14.9311 -1.46576e-18)
(11.1284 -4.53887 6.8753e-19)
(16.5105 -7.57977 -1.70404e-18)
(16.477 -8.38431 1.13852e-18)
(15.9055 -8.84788 -1.78925e-19)
(15.3538 -9.34884 -2.0716e-19)
(14.8627 -9.77833 8.08448e-19)
(14.4151 -10.2588 -9.74712e-19)
(13.9781 -10.6595 0)
(13.5282 -11.0504 7.6803e-19)
(13.1154 -11.3913 -7.55252e-19)
(12.7185 -11.74 -5.54916e-19)
(12.3165 -12.0133 7.21245e-19)
(11.8977 -12.2617 1.73932e-19)
(11.5644 -12.5431 -7.2267e-19)
(11.2352 -12.823 1.6904e-19)
(10.9197 -13.0716 8.68989e-19)
(10.617 -13.3345 -1.54708e-18)
(10.3248 -13.5514 1.02161e-18)
(10.0634 -13.7784 -1.33118e-20)
(9.76273 -14.1379 -1.42601e-18)
(11.1681 -4.10344 9.88759e-19)
(15.5879 -6.53509 -6.60964e-19)
(15.3883 -7.30137 4.51221e-19)
(14.7985 -7.76708 1.37229e-20)
(14.3092 -8.29728 -8.98359e-19)
(13.8311 -8.74014 -8.54516e-19)
(13.3328 -9.18659 1.06757e-18)
(12.9125 -9.58993 -6.35173e-19)
(12.5014 -9.9995 8.44982e-19)
(12.1076 -10.3453 0)
(11.7651 -10.7373 1.78534e-20)
(11.4707 -11.1131 1.94182e-19)
(11.1179 -11.4343 2.07638e-19)
(10.7841 -11.7104 -2.04037e-19)
(10.4929 -12.029 0)
(10.1987 -12.2912 1.9682e-19)
(9.92473 -12.5816 0)
(9.66896 -12.8253 3.6658e-19)
(9.41075 -13.0613 1.79724e-18)
(9.14838 -13.409 -7.34768e-21)
(10.9898 -3.65456 5.62295e-19)
(14.3813 -5.52673 -1.13131e-19)
(14.1024 -6.26792 -1.7459e-18)
(13.7193 -6.81504 9.78418e-19)
(13.2315 -7.37082 2.31825e-19)
(12.8267 -7.84958 -2.29676e-19)
(12.4686 -8.36645 -9.52641e-19)
(12.1139 -8.82263 7.11847e-19)
(11.7637 -9.28916 0)
(11.3905 -9.66636 0)
(10.9937 -10.0064 -1.10702e-18)
(10.672 -10.3572 8.77921e-19)
(10.3871 -10.7244 -2.07646e-19)
(10.0695 -11.0186 -6.40267e-19)
(9.77988 -11.327 2.97016e-21)
(9.51078 -11.6123 1.43138e-18)
(9.24013 -11.8894 -8.00304e-19)
(9.00351 -12.1553 5.91856e-19)
(8.76672 -12.3997 -9.56346e-19)
(8.50853 -12.7294 0)
(10.5815 -3.1575 -5.0204e-19)
(13.2966 -4.66771 8.11937e-19)
(12.9445 -5.38419 1.41048e-19)
(12.4897 -5.88515 1.39194e-19)
(12.0941 -6.48592 0)
(11.7 -6.95744 1.04476e-18)
(11.2554 -7.43851 -1.02644e-18)
(10.8728 -7.85045 1.30332e-19)
(10.5652 -8.34439 0)
(10.3253 -8.81769 9.73309e-19)
(10.0398 -9.25598 -8.34384e-19)
(9.73636 -9.62156 9.35764e-19)
(9.46801 -10.0128 -9.20899e-19)
(9.2157 -10.3648 8.98336e-19)
(8.95203 -10.6975 -7.71298e-19)
(8.71781 -11.0198 -8.61602e-19)
(8.46806 -11.3202 1.69249e-18)
(8.25164 -11.6014 -7.25098e-19)
(8.03892 -11.8754 1.03948e-19)
(7.81465 -12.2021 8.62795e-19)
(9.99093 -2.65178 -4.09208e-19)
(11.9604 -3.85519 4.446e-19)
(11.6003 -4.61912 -1.41061e-19)
(11.3141 -5.1865 -1.39201e-19)
(10.9317 -5.78151 0)
(10.6325 -6.32523 0)
(10.3957 -6.89993 0)
(10.0413 -7.34688 -2.68421e-19)
(9.65726 -7.73015 -1.05242e-18)
(9.35838 -8.14874 2.06576e-18)
(9.11183 -8.57706 -1.13702e-18)
(8.85501 -8.96704 -1.26866e-19)
(8.60763 -9.34154 0)
(8.37452 -9.70915 0)
(8.13264 -10.0446 -2.31944e-19)
(7.91453 -10.3772 0)
(7.70339 -10.6995 8.86312e-19)
(7.49294 -10.9886 -1.09046e-18)
(7.3132 -11.2845 -9.51217e-19)
(7.10978 -11.6225 9.11909e-19)
(9.1875 -2.1525 4.29335e-19)
(10.6846 -3.16295 7.91277e-19)
(10.2697 -3.88864 1.80611e-21)
(10.0269 -4.47598 5.99068e-22)
(9.66218 -5.08329 1.5391e-19)
(9.30836 -5.56972 -4.39638e-19)
(8.99327 -6.10553 0)
(8.84996 -6.68801 -4.27633e-19)
(8.60739 -7.17697 1.44246e-19)
(8.31869 -7.60987 5.44407e-19)
(8.09448 -8.03796 5.29615e-19)
(7.87151 -8.46349 -3.94197e-19)
(7.64342 -8.83456 1.01234e-18)
(7.45336 -9.22878 -8.69958e-19)
(7.25175 -9.57116 1.08582e-18)
(7.04964 -9.90963 -2.01834e-18)
(6.86818 -10.2319 9.30986e-19)
(6.68046 -10.5356 1.11049e-19)
(6.50792 -10.8186 8.81723e-19)
(6.34183 -11.1641 -9.49971e-19)
(8.21763 -1.67607 1.50388e-19)
(9.29236 -2.54812 -1.61568e-19)
(8.9265 -3.30354 6.55915e-19)
(8.7473 -3.9377 -6.43783e-19)
(8.54781 -4.6399 -3.15065e-19)
(8.31026 -5.20093 -7.68162e-19)
(7.99355 -5.67622 2.48055e-21)
(7.69606 -6.14809 5.93376e-19)
(7.52618 -6.65298 -1.4175e-19)
(7.31351 -7.10848 0)
(7.08778 -7.53079 0)
(6.91222 -7.96202 0)
(6.71905 -8.3585 0)
(6.53182 -8.73704 4.44165e-21)
(6.37913 -9.11862 0)
(6.19683 -9.45986 1.20835e-19)
(6.0377 -9.8021 4.78861e-19)
(5.87518 -10.1166 -1.40754e-18)
(5.71613 -10.4108 1.0385e-18)
(5.55153 -10.748 -9.7457e-19)
(7.1095 -1.2461 0)
(7.90605 -2.03436 -8.81596e-20)
(7.46093 -2.73571 0)
(7.24364 -3.30981 2.49562e-19)
(7.01973 -3.93354 -1.6761e-19)
(6.97689 -4.5955 -6.40662e-19)
(6.81671 -5.18587 3.2161e-21)
(6.61155 -5.71837 6.15486e-19)
(6.42327 -6.19942 -5.97565e-19)
(6.24235 -6.7046 1.17107e-18)
(6.0632 -7.13682 -4.27529e-21)
(5.87748 -7.56992 -5.60442e-19)
(5.73755 -7.98004 5.42789e-19)
(5.56841 -8.36983 -6.65292e-19)
(5.42949 -8.74216 0)
(5.29389 -9.1086 -5.0487e-19)
(5.15505 -9.44431 4.97328e-19)
(5.02579 -9.77776 0)
(4.90414 -10.0733 -1.16426e-19)
(4.7705 -10.4117 0)
(5.90003 -0.905674 8.8231e-20)
(6.47249 -1.7596 8.84691e-20)
(6.28413 -2.45735 0)
(6.17361 -3.08722 3.42991e-19)
(5.89467 -3.62826 -4.24726e-19)
(5.65445 -4.18464 2.46344e-19)
(5.53353 -4.74713 -7.28234e-19)
(5.39773 -5.30774 3.16772e-19)
(5.26121 -5.80158 -7.78915e-20)
(5.1127 -6.30621 0)
(5.011 -6.75652 -7.41769e-20)
(4.86324 -7.21178 -7.23724e-20)
(4.74109 -7.6126 -7.06105e-20)
(4.61476 -8.03393 0)
(4.49539 -8.39932 -5.30374e-19)
(4.38283 -8.78531 1.10543e-18)
(4.27232 -9.12575 -9.50837e-19)
(4.16574 -9.47519 4.97606e-19)
(4.05938 -9.77706 6.09841e-20)
(3.95052 -10.1246 5.13252e-19)
(4.33937 -0.610915 -1.37221e-19)
(4.91289 -1.47782 -1.84516e-19)
(4.76587 -2.2014 4.78298e-22)
(4.72951 -2.90234 4.86445e-19)
(4.62355 -3.53595 -1.31664e-19)
(4.51245 -4.11753 -8.50314e-20)
(4.34696 -4.64025 8.27876e-20)
(4.23612 -5.17425 1.61833e-19)
(4.14285 -5.65475 7.79005e-20)
(4.02758 -6.14554 -3.05896e-19)
(3.93054 -6.57715 3.37286e-19)
(3.8198 -7.03932 7.23767e-20)
(3.73372 -7.43077 3.54465e-19)
(3.61829 -7.84576 -2.53858e-21)
(3.53821 -8.20157 3.16538e-20)
(3.44162 -8.58256 -5.9505e-19)
(3.36449 -8.91506 1.63017e-19)
(3.27854 -9.26398 0)
(3.21538 -9.56554 -3.00147e-20)
(3.1289 -9.90989 -2.61142e-19)
(2.82827 -0.294238 4.71508e-20)
(3.36425 -1.07419 -9.40155e-20)
(3.33528 -1.75711 1.84408e-19)
(3.36985 -2.39976 -4.50502e-20)
(3.26803 -3.0597 -4.46913e-20)
(3.21134 -3.65278 0)
(3.14875 -4.26349 -8.37925e-20)
(3.07356 -4.78315 1.64092e-19)
(2.99962 -5.33231 -8.03569e-20)
(2.92056 -5.81877 7.77443e-20)
(2.85868 -6.30937 -3.87071e-20)
(2.76816 -6.75047 -7.39108e-20)
(2.73568 -7.19365 1.448e-19)
(2.66237 -7.60493 -1.41203e-19)
(2.60883 -8.00274 3.50127e-20)
(2.52763 -8.37824 2.39507e-34)
(2.4821 -8.74007 -3.26612e-20)
(2.39839 -9.08552 1.91414e-19)
(2.35304 -9.39961 -9.42773e-20)
(2.28481 -9.74664 -6.68864e-20)
(-0.0551393 -3.93419 1.34973e-19)
(1.50535 -17.671 6.67404e-20)
(3.14735 -32.0102 0)
(3.98254 -38.8107 6.2406e-20)
(4.10708 -39.956 5.73358e-20)
(4.12172 -39.8255 5.29479e-20)
(4.08714 -39.3729 0)
(4.04924 -38.9222 4.96995e-20)
(3.99412 -38.5515 0)
(3.94097 -38.1994 0)
(3.86883 -37.8945 -4.07435e-20)
(3.80636 -37.5732 2.88034e-21)
(3.72216 -37.2504 7.73985e-20)
(3.65871 -36.9107 0)
(3.55791 -36.6007 3.41642e-20)
(3.50446 -36.2354 3.24587e-20)
(3.36198 -35.8319 3.08839e-20)
(3.32721 -35.3294 0)
(3.15007 -34.9189 -5.55815e-20)
(3.13883 -34.4871 5.38423e-20)
(0.124194 -5.06621 2.06893e-19)
(2.33836 -19.9996 -3.38269e-19)
(4.23535 -33.8284 0)
(5.04361 -39.4663 -3.09495e-19)
(5.1158 -40.0799 2.9046e-19)
(5.0834 -39.8092 -4.91515e-19)
(5.00759 -39.2855 2.1558e-19)
(4.94182 -38.8689 1.45627e-19)
(4.87427 -38.4488 -6.55103e-19)
(4.79492 -38.085 3.62958e-19)
(4.72899 -37.7077 -4.21372e-20)
(4.63497 -37.3683 3.13002e-19)
(4.5614 -37.0321 -1.13054e-20)
(4.45898 -36.7062 -2.92025e-19)
(4.36828 -36.3595 -3.41635e-20)
(4.27996 -35.9854 -3.24588e-20)
(4.14863 -35.5721 -3.08848e-20)
(4.08446 -35.0789 0)
(3.90611 -34.6591 -2.18923e-19)
(3.88634 -34.252 6.96741e-21)
(0.459656 -6.19417 -1.40918e-19)
(3.30612 -21.8673 0)
(5.48945 -35.1766 0)
(6.2162 -39.7721 -1.27854e-19)
(6.25469 -39.9991 1.17071e-19)
(6.16421 -39.5863 0)
(6.05106 -39.0674 -1.05652e-19)
(5.95455 -38.5982 2.90762e-19)
(5.84161 -38.2083 -2.89544e-19)
(5.7368 -37.8337 3.47066e-19)
(5.61897 -37.4973 -4.24518e-19)
(5.51086 -37.1464 0)
(5.38736 -36.791 -2.93194e-19)
(5.27902 -36.4306 -2.66694e-19)
(5.14525 -36.1062 4.80192e-19)
(5.04603 -35.7254 -4.99039e-19)
(4.87117 -35.2952 4.31763e-19)
(4.79915 -34.7803 0)
(4.5803 -34.3783 -4.8247e-19)
(4.56313 -33.9689 8.24101e-19)
(0.982001 -7.53073 4.95652e-19)
(4.46992 -23.3369 0)
(6.80722 -36.1406 2.69757e-19)
(7.42955 -39.8609 3.65844e-19)
(7.38567 -39.8519 -7.08586e-19)
(7.23932 -39.3544 2.2076e-19)
(7.09123 -38.8405 1.05646e-19)
(6.95249 -38.3877 1.07235e-18)
(6.8219 -37.9366 -1.49276e-18)
(6.68487 -37.5521 -1.44139e-19)
(6.56255 -37.1638 7.59574e-19)
(6.41771 -36.8151 1.54741e-19)
(6.29729 -36.4727 -7.24036e-19)
(6.14797 -36.1325 7.06805e-19)
(6.01946 -35.7703 1.96782e-19)
(5.87817 -35.3873 -1.23241e-19)
(5.70598 -34.9759 1.7647e-19)
(5.59017 -34.4814 0)
(5.36324 -34.0667 -5.11935e-20)
(5.32953 -33.6717 0)
(1.5965 -8.4087 0)
(5.29696 -24.5841 9.56885e-19)
(8.16212 -36.7624 -1.37395e-18)
(8.65431 -39.6997 1.23654e-18)
(8.54972 -39.4934 -9.63063e-19)
(8.34235 -38.9421 -2.23532e-19)
(8.15269 -38.4404 0)
(7.97527 -37.9741 5.69561e-19)
(7.78875 -37.5799 -7.53713e-19)
(7.62083 -37.1939 8.51454e-19)
(7.44611 -36.8398 -6.66005e-19)
(7.28144 -36.4772 -1.54724e-19)
(7.10597 -36.1065 7.12259e-19)
(6.94489 -35.7472 -1.22976e-18)
(6.7708 -35.4137 7.73745e-19)
(6.6196 -35.0212 -2.53924e-19)
(6.40971 -34.5758 -5.68641e-19)
(6.2887 -34.0709 1.30196e-18)
(6.02347 -33.6924 -7.39345e-19)
(5.99037 -33.2905 -8.69622e-19)
(1.76855 -9.40986 1.09803e-18)
(6.71378 -25.5617 8.08036e-19)
(9.47318 -37.08 -1.09897e-18)
(9.89116 -39.4016 -2.48695e-19)
(9.71078 -39.0681 2.35155e-19)
(9.46397 -38.518 8.60447e-19)
(9.23431 -38.0188 -8.45311e-19)
(9.01923 -37.5539 0)
(8.8139 -37.1008 7.06929e-19)
(8.60658 -36.7232 -6.95139e-19)
(8.41991 -36.341 -6.23577e-19)
(8.21564 -35.9951 6.13485e-19)
(8.03993 -35.6601 0)
(7.83773 -35.3161 0)
(7.6613 -34.9688 1.10893e-18)
(7.4626 -34.6098 -1.08679e-18)
(7.2541 -34.2133 -8.76287e-19)
(7.0805 -33.718 8.63306e-19)
(6.80707 -33.3123 -7.86524e-19)
(6.75955 -32.9221 9.69971e-19)
(2.47989 -9.99146 -8.27144e-19)
(7.59866 -26.4674 2.60807e-19)
(10.857 -37.1227 5.21551e-20)
(11.0764 -38.9259 1.26869e-18)
(10.8384 -38.4996 0)
(10.5558 -37.9626 0)
(10.2669 -37.4598 1.57485e-18)
(10.0121 -37.0106 -7.54165e-20)
(9.75388 -36.6186 -1.44739e-18)
(9.51906 -36.2307 1.29165e-18)
(9.28239 -35.8819 -1.27041e-18)
(9.05737 -35.5255 0)
(8.82608 -35.1599 1.06974e-18)
(8.61014 -34.8138 -1.05295e-18)
(8.38877 -34.4798 0)
(8.18131 -34.0945 0)
(7.92956 -33.6721 0)
(7.74561 -33.2052 0)
(7.43733 -32.8367 0)
(7.38463 -32.4339 -9.3876e-20)
(2.98162 -10.5132 8.07598e-19)
(8.88845 -26.9273 -1.37376e-18)
(12.1514 -36.955 0)
(12.3299 -38.309 0)
(11.9909 -37.8245 1.97707e-18)
(11.6668 -37.29 1.16088e-19)
(11.3447 -36.8157 -1.80556e-18)
(11.042 -36.36 0)
(10.757 -35.9337 1.67692e-19)
(10.4742 -35.5816 -1.567e-19)
(10.2214 -35.2152 0)
(9.95312 -34.8924 1.37264e-19)
(9.71896 -34.5794 -1.15765e-18)
(9.46005 -34.2482 2.10027e-18)
(9.23491 -33.9332 -4.26742e-20)
(8.98824 -33.606 -8.95136e-19)
(8.74172 -33.2268 -1.0034e-19)
(8.50987 -32.7527 9.44786e-20)
(8.18856 -32.3708 0)
(8.11931 -31.9803 8.53032e-20)
(3.59957 -10.9705 5.24484e-19)
(10.0987 -27.291 4.58816e-19)
(13.4237 -36.4999 -1.58519e-18)
(13.4775 -37.5624 4.63054e-19)
(13.0742 -37.0627 2.06355e-19)
(12.7069 -36.5701 1.77681e-18)
(12.3194 -36.0873 -2.46907e-18)
(11.9822 -35.6696 1.79413e-18)
(11.6522 -35.2897 -1.44969e-18)
(11.3454 -34.9257 1.71686e-18)
(11.0459 -34.6045 2.797e-19)
(10.7603 -34.2637 1.17201e-18)
(10.471 -33.9299 -6.57812e-19)
(10.2003 -33.6142 -1.27049e-18)
(9.92469 -33.2999 1.12119e-18)
(9.66124 -32.955 0)
(9.36879 -32.5813 2.89764e-19)
(9.12243 -32.1481 8.35637e-20)
(8.77155 -31.7872 -1.68092e-19)
(8.6857 -31.383 7.49601e-20)
(4.18355 -11.2836 -1.01113e-18)
(11.3149 -27.3244 1.04643e-18)
(14.6361 -35.9058 -2.04035e-20)
(14.6167 -36.6397 -9.08104e-19)
(14.1429 -36.1402 -8.39774e-19)
(13.7314 -35.6542 -3.98717e-19)
(13.3201 -35.2307 -1.76328e-20)
(12.9305 -34.8136 -3.44658e-19)
(12.5688 -34.4358 0)
(12.2148 -34.1169 -2.99521e-19)
(11.8965 -33.7864 -2.79696e-19)
(11.5684 -33.5064 -1.48292e-20)
(11.2784 -33.2161 9.13927e-19)
(10.967 -32.9103 -4.69241e-19)
(10.6965 -32.6348 -1.02916e-18)
(10.4061 -32.3501 8.01851e-19)
(10.1232 -32.016 5.27667e-19)
(9.83416 -31.5979 -8.84515e-19)
(9.47011 -31.2354 1.68017e-19)
(9.37582 -30.8448 1.05896e-18)
(4.80305 -11.5314 -2.44848e-18)
(12.4963 -27.3027 2.49103e-18)
(15.7496 -35.1028 -2.74954e-18)
(15.6511 -35.6763 2.23677e-18)
(15.1175 -35.2006 1.96713e-18)
(14.6714 -34.7646 -1.52814e-18)
(14.1975 -34.3261 -2.02033e-18)
(13.7788 -33.9523 7.27855e-20)
(13.3803 -33.6041 1.21818e-18)
(13.0044 -33.2907 -8.05538e-19)
(12.646 -33.0087 2.05165e-18)
(12.2995 -32.7073 -1.22831e-18)
(11.9572 -32.4393 -2.30312e-19)
(11.6347 -32.1655 5.95529e-19)
(11.3065 -31.8843 -1.55635e-18)
(10.9971 -31.5902 7.46501e-19)
(10.6707 -31.2723 0)
(10.3698 -30.8891 -1.24743e-18)
(9.98043 -30.5563 1.22806e-18)
(9.86307 -30.1591 -9.87925e-19)
(5.40621 -11.6403 4.71808e-19)
(13.6013 -26.977 5.24496e-19)
(16.8124 -34.1737 2.2798e-18)
(16.629 -34.5141 1.9856e-18)
(16.0506 -34.0716 -1.19493e-18)
(15.5573 -33.6571 1.6895e-18)
(15.0712 -33.2979 -9.96679e-19)
(14.6045 -32.9426 1.15912e-18)
(14.1762 -32.6193 -2.21434e-18)
(13.7584 -32.3434 7.91066e-19)
(13.3824 -32.0663 0)
(13.0024 -31.8255 0)
(12.6593 -31.5659 0)
(12.3022 -31.3168 -1.49596e-18)
(11.9885 -31.0973 1.47287e-18)
(11.6592 -30.8721 0)
(11.3443 -30.6073 0)
(11.0059 -30.2552 -1.38362e-19)
(10.6044 -29.9118 0)
(10.48 -29.534 -1.16106e-18)
(6.01058 -11.6954 -8.97399e-19)
(14.6693 -26.6089 -2.23342e-18)
(17.7513 -33.1039 -1.60484e-18)
(17.521 -33.3655 -2.94195e-19)
(16.8716 -32.9605 2.11679e-18)
(16.3507 -32.5894 -4.19138e-19)
(15.811 -32.2223 -7.54964e-20)
(15.3149 -31.9086 -1.40306e-18)
(14.8538 -31.6125 0)
(14.417 -31.3642 -6.91307e-19)
(14.0058 -31.1412 1.1093e-18)
(13.6066 -30.9058 0)
(13.22 -30.7013 1.46113e-18)
(12.8509 -30.4625 -1.43822e-18)
(12.4765 -30.226 1.26178e-18)
(12.131 -29.9879 -2.27421e-18)
(11.7791 -29.7506 1.15627e-18)
(11.4386 -29.4584 1.38369e-19)
(11.0192 -29.1561 -1.14349e-19)
(10.8719 -28.7685 9.11329e-19)
(6.58542 -11.6302 -1.19683e-18)
(15.6311 -25.9883 7.20283e-20)
(18.6117 -31.893 1.03219e-19)
(18.3105 -32.0251 2.8355e-18)
(17.6479 -31.6726 2.49324e-19)
(17.072 -31.3517 -1.51639e-18)
(16.5302 -31.0564 -1.06026e-18)
(15.9998 -30.7787 3.29734e-19)
(15.5149 -30.5139 1.17936e-18)
(15.0404 -30.285 -1.25701e-18)
(14.6152 -30.0665 6.08198e-19)
(14.1902 -29.8785 -1.58695e-18)
(13.8016 -29.6873 1.23464e-18)
(13.4088 -29.5162 -1.21063e-18)
(13.0546 -29.3573 1.05717e-18)
(12.6901 -29.1881 8.9639e-19)
(12.3464 -28.9863 -1.02305e-18)
(11.9725 -28.7315 7.88561e-19)
(11.5475 -28.4424 -7.64231e-19)
(11.3875 -28.0727 -8.86558e-19)
(7.13993 -11.5319 -1.49246e-18)
(16.5532 -25.3284 -2.87223e-19)
(19.3479 -30.631 1.45559e-18)
(18.9849 -30.7224 -1.24483e-18)
(18.2767 -30.3996 1.22241e-18)
(17.6762 -30.1104 2.83598e-19)
(17.0895 -29.8412 0)
(16.5321 -29.6023 -2.12581e-19)
(16.018 -29.3777 5.82125e-19)
(15.5333 -29.2041 -2.05884e-18)
(15.0764 -29.0461 1.44837e-18)
(14.6339 -28.8663 3.20966e-19)
(14.2079 -28.712 1.58213e-19)
(13.8 -28.5199 0)
(13.3892 -28.3518 1.96278e-20)
(13.0171 -28.1883 8.92382e-19)
(12.6442 -28.0346 -5.66596e-20)
(12.2797 -27.8407 1.4472e-19)
(11.8458 -27.5994 -7.43186e-19)
(11.6721 -27.2313 1.6827e-19)
(7.64664 -11.324 1.35773e-18)
(17.3511 -24.4571 -2.34586e-18)
(19.9871 -29.1977 1.31704e-18)
(19.5628 -29.2553 1.11607e-18)
(18.8709 -29.0092 -8.06882e-20)
(18.231 -28.7857 -7.72863e-19)
(17.6385 -28.5543 2.03606e-19)
(17.0604 -28.3672 2.12581e-19)
(16.5288 -28.1648 0)
(16.0046 -27.9876 0)
(15.5429 -27.8499 -1.16669e-18)
(15.0852 -27.7426 1.93721e-18)
(14.6617 -27.6341 -1.04804e-18)
(14.2396 -27.5289 0)
(13.8454 -27.4155 2.05567e-20)
(13.4515 -27.3011 -8.25927e-19)
(13.0826 -27.1783 8.0679e-19)
(12.6913 -27.0371 -8.90035e-20)
(12.2646 -26.8352 -6.20014e-19)
(12.0708 -26.4738 4.30234e-19)
(8.12879 -11.0784 -1.21445e-18)
(18.0821 -23.5467 1.52685e-18)
(20.5353 -27.8315 0)
(20.0098 -27.8392 0)
(19.2758 -27.6063 2.13984e-19)
(18.6139 -27.4186 -1.02585e-18)
(17.9999 -27.2492 3.24897e-20)
(17.3973 -27.0947 7.12607e-19)
(16.8484 -26.9606 -1.18709e-18)
(16.3263 -26.8522 2.24114e-18)
(15.8237 -26.7361 -1.05622e-18)
(15.3459 -26.6015 2.28353e-19)
(14.8897 -26.5174 8.83567e-19)
(14.4588 -26.4041 1.67651e-20)
(14.0205 -26.3147 -5.35528e-19)
(13.6219 -26.2064 8.58669e-20)
(13.226 -26.1228 -5.9911e-19)
(12.8509 -26.0402 5.1359e-19)
(12.4321 -25.9115 1.81755e-20)
(12.2412 -25.5761 4.09833e-19)
(8.55232 -10.7358 0)
(18.6553 -22.4488 7.36724e-19)
(20.9238 -26.2517 -7.97656e-19)
(20.3849 -26.2907 0)
(19.679 -26.1515 -2.13991e-19)
(18.9926 -26.0182 6.76433e-19)
(18.3636 -25.8626 -8.38191e-19)
(17.7507 -25.7617 0)
(17.1837 -25.6331 9.68763e-19)
(16.6305 -25.5365 -9.52638e-19)
(16.1503 -25.5044 8.80272e-20)
(15.6678 -25.4616 -1.02146e-19)
(15.21 -25.4052 -9.15854e-20)
(14.7668 -25.3593 -8.19661e-20)
(14.3448 -25.3063 -5.46092e-19)
(13.9322 -25.257 8.80447e-19)
(13.5331 -25.1937 -7.71462e-19)
(13.1297 -25.152 6.74528e-19)
(12.7288 -25.0915 -2.63593e-19)
(12.5215 -24.7716 4.00386e-20)
(8.96278 -10.3941 0)
(19.165 -21.3721 -8.61597e-19)
(21.2601 -24.8052 4.56018e-19)
(20.6018 -24.7899 5.33632e-19)
(19.8611 -24.6594 -6.78545e-20)
(19.1568 -24.59 -6.08573e-20)
(18.5273 -24.5075 -5.37436e-19)
(17.8988 -24.4441 0)
(17.3279 -24.3945 0)
(16.7688 -24.3251 0)
(16.228 -24.2543 -8.80217e-20)
(15.7368 -24.204 0)
(15.2632 -24.1965 -4.5908e-19)
(14.8145 -24.1573 4.091e-19)
(14.3544 -24.1335 -2.93977e-19)
(13.9323 -24.0714 5.30952e-19)
(13.5074 -24.0564 -2.37823e-19)
(13.105 -24.0473 -1.64006e-19)
(12.7155 -24.0597 2.57818e-19)
(12.5237 -23.7793 -1.10185e-19)
(9.32293 -9.93418 0)
(19.5022 -20.1693 0)
(21.3998 -23.1458 1.86572e-19)
(20.7524 -23.2118 1.65701e-19)
(20.055 -23.161 0)
(19.3369 -23.1236 4.17672e-19)
(18.6924 -23.0627 -4.10355e-19)
(18.0596 -23.0342 0)
(17.4798 -23.0052 5.17917e-19)
(16.9262 -23.004 -5.09286e-19)
(16.4263 -23.0429 0)
(15.9198 -23.0326 -2.85008e-19)
(15.4327 -23.024 1.02876e-19)
(14.9789 -23.0312 2.17604e-19)
(14.5411 -23.0472 0)
(14.1078 -23.0362 0)
(13.655 -23.0077 0)
(13.222 -22.9955 4.00557e-20)
(12.8119 -22.9546 -2.92177e-20)
(12.5315 -22.7959 0)
(2.36971 -33.375 0)
(2.16093 -31.517 0)
(1.34702 -30.5489 -3.03426e-21)
(1.12169 -29.4822 -2.46377e-21)
(0.745793 -28.7797 0)
(0.550597 -27.9936 1.55891e-22)
(0.345932 -27.3424 1.35904e-21)
(0.213747 -26.8019 0)
(0.124551 -26.3718 6.51697e-22)
(0.0476456 -25.9788 0)
(-0.00121897 -25.686 -3.00408e-22)
(-0.0103312 -25.4349 -5.44084e-23)
(-0.0284124 -25.2763 5.46992e-23)
(0.0135149 -25.0936 -7.03126e-23)
(-0.0157547 -24.9898 0)
(0.0943897 -24.6905 6.20041e-23)
(0.0388802 -23.8468 -3.43962e-22)
(0.167428 -20.7878 0)
(0.0306462 -14.6422 0)
(0.144582 -6.02076 -3.60385e-22)
(3.07271 -33.1897 2.30773e-20)
(2.78374 -31.3266 0)
(1.86562 -30.4183 1.38466e-20)
(1.53155 -29.447 -8.40134e-21)
(1.09618 -28.7717 0)
(0.825189 -27.9766 -7.01629e-21)
(0.584497 -27.3236 2.615e-21)
(0.409508 -26.7867 0)
(0.289455 -26.3597 4.1362e-22)
(0.182002 -25.9686 -1.07108e-21)
(0.115098 -25.6807 7.21268e-22)
(0.0838728 -25.441 -5.93862e-22)
(0.0474572 -25.2882 1.49725e-22)
(0.0739787 -25.1039 -2.13064e-23)
(0.0351324 -25.0039 1.14268e-22)
(0.130322 -24.695 -2.60476e-22)
(0.0644025 -23.8578 5.43317e-22)
(0.182004 -20.7844 8.52008e-22)
(0.0412842 -14.6418 4.3286e-22)
(0.132701 -5.99399 4.50051e-22)
(3.56314 -32.9026 -1.08855e-20)
(3.10127 -31.1585 -1.94645e-20)
(2.10906 -30.2233 -1.13834e-20)
(1.72959 -29.2657 0)
(1.27349 -28.6074 0)
(0.960071 -27.8572 7.91107e-21)
(0.700683 -27.2408 -1.23957e-21)
(0.504139 -26.7276 -9.80477e-22)
(0.37105 -26.3151 -8.44446e-22)
(0.248416 -25.9389 -2.00561e-21)
(0.173 -25.6602 0)
(0.132778 -25.4233 0)
(0.088797 -25.2735 0)
(0.107026 -25.0975 4.41756e-22)
(0.0620395 -25.0058 0)
(0.156137 -24.7071 1.03569e-21)
(0.085704 -23.8716 -1.20978e-21)
(0.195354 -20.7995 -4.48726e-22)
(0.0522797 -14.6464 -8.10986e-22)
(0.118985 -5.97883 -1.4958e-21)
(4.26747 -32.6635 3.34808e-20)
(3.70518 -30.9525 -6.34574e-20)
(2.61298 -30.0806 2.12459e-21)
(2.12641 -29.216 2.03841e-20)
(1.61317 -28.585 0)
(1.22657 -27.8279 9.57677e-21)
(0.934155 -27.215 -2.08424e-20)
(0.693182 -26.7058 9.89805e-21)
(0.532182 -26.2966 -4.83517e-21)
(0.379735 -25.9232 1.18963e-21)
(0.285403 -25.6511 -3.43923e-22)
(0.222509 -25.4251 -1.45955e-22)
(0.161555 -25.2794 1.46656e-22)
(0.165421 -25.1016 -1.39829e-22)
(0.110706 -25.0158 -3.03289e-22)
(0.188477 -24.7112 -1.03507e-21)
(0.109819 -23.8844 1.54244e-21)
(0.203862 -20.8099 -6.61513e-22)
(0.0615457 -14.6517 3.3816e-22)
(0.106578 -5.96143 1.46991e-21)
(4.74324 -32.3075 8.62093e-20)
(4.01248 -30.7258 1.47181e-20)
(2.85157 -29.8467 -2.00353e-20)
(2.31699 -29.0082 2.83308e-20)
(1.78345 -28.4079 0)
(1.3552 -27.6962 -5.11832e-21)
(1.04743 -27.1239 4.02684e-21)
(0.783998 -26.6373 0)
(0.611319 -26.2448 1.60084e-22)
(0.444008 -25.887 0)
(0.341515 -25.6235 -1.5787e-21)
(0.270353 -25.4001 0)
(0.200363 -25.2606 0)
(0.196026 -25.093 1.29514e-21)
(0.136715 -25.0141 -6.82799e-22)
(0.210171 -24.7215 1.16669e-21)
(0.131364 -23.8994 0)
(0.214182 -20.8341 -3.52311e-22)
(0.0707219 -14.6608 3.66128e-22)
(0.094868 -5.95011 0)
(5.44128 -32.0088 3.4168e-20)
(4.58947 -30.4919 -2.74565e-20)
(3.33286 -29.6891 4.74945e-20)
(2.70004 -28.9421 -4.65885e-20)
(2.11083 -28.3685 1.23933e-20)
(1.61347 -27.6547 5.13428e-21)
(1.27515 -27.0903 -7.22121e-21)
(0.966244 -26.6084 -5.27234e-21)
(0.768054 -26.2198 2.00766e-21)
(0.571726 -25.8659 1.84728e-21)
(0.449333 -25.6106 -1.12756e-21)
(0.355724 -25.3968 0)
(0.270537 -25.2593 0)
(0.251454 -25.0914 3.2109e-23)
(0.18241 -25.0198 7.66781e-22)
(0.239156 -24.726 -1.16556e-21)
(0.154519 -23.9151 0)
(0.225177 -20.8553 3.14201e-21)
(0.0755767 -14.6741 2.93653e-21)
(0.0844522 -5.9404 1.88195e-22)
(5.89566 -31.5827 -9.49359e-20)
(4.88461 -30.2046 8.83412e-20)
(3.56633 -29.4182 -2.04904e-20)
(2.88326 -28.71 0)
(2.27384 -28.1796 -1.2446e-20)
(1.73676 -27.513 1.6524e-20)
(1.38568 -26.9911 -9.33864e-21)
(1.054 -26.5312 5.28723e-21)
(0.844714 -26.1616 0)
(0.634432 -25.8228 0)
(0.50405 -25.5756 5.23205e-22)
(0.402094 -25.3655 -5.25091e-22)
(0.306559 -25.2372 0)
(0.27893 -25.0799 -2.25711e-21)
(0.206095 -25.0144 8.49461e-22)
(0.259081 -24.7355 1.31444e-21)
(0.1718 -23.9328 -1.32765e-21)
(0.233587 -20.8864 -3.92854e-21)
(0.0741708 -14.6882 -1.92698e-21)
(0.0732926 -5.93513 -3.85314e-22)
(6.57103 -31.2168 0)
(5.42802 -29.9414 -4.50986e-20)
(4.02304 -29.2419 4.52425e-20)
(3.25058 -28.6252 0)
(2.59051 -28.1216 0)
(1.98673 -27.4598 -1.55823e-20)
(1.60672 -26.9491 1.56299e-20)
(1.2295 -26.4948 0)
(0.996508 -26.1302 2.47567e-21)
(0.758359 -25.7966 -3.76208e-21)
(0.607338 -25.5586 1.2828e-21)
(0.483809 -25.356 -5.86214e-22)
(0.374167 -25.2281 5.87924e-22)
(0.329414 -25.0727 0)
(0.246251 -25.016 0)
(0.283327 -24.733 1.20095e-21)
(0.192146 -23.9511 -2.17046e-21)
(0.241243 -20.9145 -4.4242e-23)
(0.0769698 -14.7078 1.23102e-21)
(0.0631691 -5.93388 -4.03961e-22)
(6.99416 -30.7236 5.5461e-20)
(5.71031 -29.5953 -5.55292e-20)
(4.24576 -28.9372 -5.09056e-20)
(3.42361 -28.3713 5.91229e-20)
(2.74426 -27.9223 -4.5389e-20)
(2.10587 -27.309 4.86332e-21)
(1.71475 -26.8418 1.46714e-20)
(1.31495 -26.4097 0)
(1.07071 -26.0662 0)
(0.819792 -25.7467 1.28966e-21)
(0.660744 -25.5165 0)
(0.528121 -25.3196 0)
(0.407354 -25.2024 0)
(0.352762 -25.0572 0)
(0.266586 -25.0053 0)
(0.296543 -24.7451 0)
(0.206719 -23.9701 1.56567e-21)
(0.248857 -20.9534 -1.60212e-21)
(0.0767448 -14.7297 4.23494e-22)
(0.0476654 -5.93629 -4.2384e-22)
(7.61957 -30.2871 -5.83822e-20)
(6.21515 -29.3 -7.55737e-20)
(4.68103 -28.738 -1.35858e-20)
(3.77308 -28.2657 -6.68208e-21)
(3.04886 -27.8455 1.62855e-20)
(2.3465 -27.2454 2.5963e-20)
(1.92782 -26.7909 5.46721e-21)
(1.48413 -26.3656 0)
(1.21722 -26.0287 -1.31251e-21)
(0.939307 -25.7156 3.2787e-21)
(0.759034 -25.4949 7.07937e-23)
(0.606928 -25.303 -9.12699e-22)
(0.471893 -25.1851 0)
(0.398458 -25.0448 -2.19984e-21)