/*--------------------------------*- C++ -*----------------------------------*\
  =========                 |
  \\      /  F ield         | OpenFOAM: The Open Source CFD Toolbox
   \\    /   O peration     | Website:  https://openfoam.org
    \\  /    A nd           | Version:  9
     \\/     M anipulation  |
\*---------------------------------------------------------------------------*/
FoamFile
{
    format      ascii;
    class       volScalarField;
    location    "2";
    object      nut;
}
// * * * * * * * * * * * * * * * * * * * * * * * * * * * * * * * * * * * * * //

dimensions      [0 2 -1 0 0 0 0];

internalField   nonuniform List<scalar> 
46400
(
0.018062
0.00679797
0.00198319
0.00127978
0.00131912
0.00128049
0.00119028
0.00117445
0.0011112
0.00108474
0.00102559
0.000990292
0.000968689
0.000950402
0.000913658
0.000903656
0.000867624
0.000811019
0.00115871
0.000948938
0.0177541
0.00566527
0.00149658
0.00131834
0.0012681
0.00125298
0.00119497
0.00120182
0.00114601
0.00110035
0.00105353
0.00101655
0.000983366
0.000946052
0.000909153
0.000885862
0.000817139
0.000735111
0.000998322
0.000912843
0.0174222
0.00482495
0.00125228
0.00140855
0.00133204
0.00132071
0.0012165
0.00120352
0.00115274
0.00112406
0.00106558
0.00102492
0.000999563
0.000975073
0.000939407
0.000920595
0.000857667
0.000801924
0.00109981
0.000938935
0.0170085
0.00391744
0.00117615
0.00140906
0.00128211
0.00129709
0.00123205
0.00122188
0.00117005
0.0011316
0.00109457
0.00104703
0.00100858
0.000976573
0.000947408
0.000927586
0.000881503
0.000808584
0.00112435
0.00101753
0.0164921
0.00396021
0.00128018
0.00147994
0.00136758
0.001353
0.00125522
0.00123658
0.00119288
0.001157
0.00111034
0.0010729
0.00103833
0.00100428
0.000976721
0.000950119
0.000897839
0.000857408
0.00114805
0.00101492
0.0158889
0.00481987
0.00132839
0.00148936
0.00134447
0.00134797
0.00127875
0.00124282
0.00119923
0.00115916
0.00112858
0.00108686
0.00105655
0.0010169
0.000991645
0.000980458
0.00092225
0.00086454
0.00118242
0.0010804
0.0153589
0.00442763
0.00142634
0.00154243
0.00142179
0.00138773
0.00130512
0.00126459
0.00121746
0.00117381
0.00113109
0.00109531
0.00107084
0.00103673
0.000993469
0.000970486
0.000930481
0.000851295
0.00112802
0.00106243
0.0142819
0.00395389
0.00141744
0.00152902
0.00139579
0.00137533
0.00131521
0.00126477
0.00122558
0.00117327
0.00114348
0.00109779
0.00107681
0.00106282
0.00104208
0.00100607
0.000960301
0.000895969
0.00111694
0.00107473
0.0130391
0.00320714
0.00146509
0.0015395
0.00144248
0.00138012
0.00132927
0.00126923
0.00122893
0.00117985
0.00112996
0.0010837
0.00104233
0.00101819
0.00101303
0.00100164
0.00095144
0.0008999
0.00107448
0.000999703
0.0104082
0.00253162
0.0014804
0.00146408
0.00142162
0.00136207
0.00131867
0.00127209
0.00123122
0.00118214
0.00116001
0.00110787
0.00106846
0.00102573
0.00100705
0.00100521
0.000979937
0.000939333
0.0011207
0.00106471
0.00847729
0.00214275
0.00152166
0.00146936
0.00141877
0.00136504
0.00132635
0.0012617
0.00123864
0.00117203
0.001124
0.0010921
0.00104314
0.00100072
0.000962687
0.000936429
0.0009132
0.000875744
0.00102438
0.00100225
0.00676758
0.00183008
0.00148106
0.00144043
0.0014135
0.00133973
0.0013341
0.00128152
0.00125129
0.00122869
0.00118124
0.0011303
0.0011047
0.00104823
0.00102187
0.000980194
0.000940639
0.000904827
0.00101324
0.000993302
0.00574986
0.00170742
0.00152575
0.00142926
0.00141174
0.00132828
0.00128689
0.00125265
0.00121986
0.00117351
0.00116421
0.00110894
0.00107496
0.00103958
0.000991891
0.000974418
0.000915155
0.000883329
0.000966978
0.000942016
0.0048232
0.00161001
0.00151424
0.00146189
0.00142933
0.00134506
0.00131485
0.00125667
0.00124974
0.00121201
0.0011866
0.00117187
0.00112284
0.00109569
0.00104997
0.00101208
0.00096722
0.000905214
0.00096446
0.00090411
0.00438968
0.00157341
0.00149896
0.00144579
0.00147859
0.00135633
0.00128529
0.00121844
0.00116444
0.00114674
0.00111591
0.00110657
0.00110138
0.00107524
0.00107313
0.00104289
0.00102787
0.000980262
0.00105073
0.000984323
0.004388
0.00166729
0.00151511
0.00139101
0.0014585
0.00148115
0.0014083
0.00133927
0.00126043
0.00118261
0.00113849
0.00107702
0.00105609
0.00101496
0.000999343
0.000975353
0.000953703
0.000918872
0.00098322
0.000941021
0.0036326
0.00163124
0.00148443
0.00133048
0.00126333
0.00128073
0.00133086
0.0013065
0.00130723
0.0012564
0.00122213
0.0011729
0.00113403
0.00109193
0.0010549
0.00102336
0.000982713
0.000935284
0.000978229
0.000923971
0.00359576
0.00178445
0.00175123
0.00155894
0.00140704
0.00126579
0.00123624
0.00119284
0.0011817
0.0011567
0.00113863
0.00110935
0.00108539
0.00105847
0.001031
0.00100957
0.000976153
0.00092743
0.000973644
0.000907957
0.00270311
0.00132008
0.00149474
0.00150255
0.00152512
0.0014372
0.00138725
0.00131372
0.00127253
0.00121553
0.00117997
0.0011347
0.00110029
0.00106236
0.0010331
0.00100423
0.000974632
0.000919859
0.000964269
0.000901839
0.000719773
0.000713759
0.00127918
0.00121367
0.0013602
0.00127441
0.00130649
0.00123688
0.00123483
0.00117867
0.00116911
0.00112015
0.00110596
0.00105961
0.00104116
0.00100355
0.000977832
0.00091595
0.00096518
0.000884824
0.000845453
4.00993e-05
0.00394112
0.00859108
0.0107551
0.00785441
0.00377624
0.00134317
0.000357237
7.69672e-05
0.000117226
0.000235461
0.000257889
0.000141379
0.000132245
0.000195526
0.000222514
0.000195585
0.000159924
0.000246113
3.29894e-23
0.00182764
0.0069259
0.010673
0.00911503
0.00493308
0.00180665
0.000441322
0.000104516
0.000151961
0.000258772
0.000269952
0.00018137
0.000199315
0.000229265
0.000235258
0.000198459
0.000217424
0.000238242
0.000296773
0.000310681
0.00422168
0.00924577
0.0107219
0.00682425
0.00271476
0.000666098
0.000113707
0.000162735
0.000276522
0.000275763
0.000222336
0.000222619
0.000246073
0.000210925
0.00019374
0.000213509
0.000282645
0.000262158
0.00027766
0.000777407
0.00716747
0.0108087
0.00924471
0.00467901
0.00122103
0.00010083
0.000129465
0.000272547
0.000320095
0.000284756
0.000266347
0.000243338
0.000238751
0.000225767
0.000270715
0.00029358
0.00030146
0.000257459
0.000312787
0.00271385
0.00888198
0.011311
0.00751506
0.002397
0.000297847
0.000150563
0.000263407
0.000345468
0.000354194
0.000284352
0.000262269
0.000260059
0.000295584
0.000271111
0.000294891
0.000281982
0.000291646
0.000294153
0.000338417
0.00272731
0.0102449
0.0108861
0.00561651
0.00103089
0.000168646
0.000277148
0.000385506
0.000405547
0.000330372
0.000318107
0.000322926
0.000330445
0.00031122
0.000279104
0.000341602
0.00033063
0.000364327
0.000344821
0.000369571
0.00542144
0.0112935
0.00965856
0.00333006
0.000263542
0.00021959
0.000391841
0.000429739
0.000406334
0.000405504
0.000367964
0.000353584
0.000332278
0.000345125
0.000348894
0.000388316
0.000338053
0.000374811
0.000368791
0.000393938
0.0074266
0.0118011
0.0085846
0.00155941
0.000258533
0.000385186
0.000497984
0.000534222
0.000500296
0.000432546
0.000402738
0.000402397
0.000418629
0.00040165
0.000372936
0.000418193
0.000375144
0.000449734
0.000420326
0.000422426
0.00985314
0.0120256
0.00740255
0.00067609
0.000273328
0.000573298
0.000629751
0.000549169
0.000519112
0.000501865
0.000474402
0.000468865
0.000434766
0.000421478
0.000434796
0.00046802
0.000403948
0.000473433
0.000434673
0.000439852
0.0124175
0.0118365
0.00537759
0.000395922
0.000484151
0.000640894
0.000656692
0.000652896
0.000623715
0.000553175
0.000513692
0.000501911
0.000510028
0.00049564
0.000477131
0.000498264
0.000448518
0.000537615
0.000481618
0.00047442
0.0141488
0.0118148
0.00361716
0.000232038
0.000667016
0.000787804
0.000768432
0.000697267
0.000641329
0.000612422
0.000586485
0.000584878
0.000545752
0.000517104
0.000529947
0.000545924
0.000485268
0.000552287
0.000498362
0.000512202
0.0155768
0.0113205
0.00236257
0.000235362
0.000793987
0.000809788
0.000777078
0.000771394
0.00074036
0.000671238
0.000627932
0.000610683
0.000607769
0.000592696
0.000581687
0.000579452
0.000547448
0.000619007
0.000513033
0.000534237
0.0162402
0.0110272
0.00152342
0.000461927
0.000891261
0.000900395
0.000903928
0.000822722
0.000759621
0.000726253
0.000696563
0.000694425
0.000653509
0.000620272
0.00062747
0.000627701
0.000585518
0.000634786
0.000521467
0.000562759
0.0169864
0.0105558
0.00105887
0.000590032
0.00101868
0.000905308
0.000906958
0.000889214
0.000850002
0.000785325
0.000736984
0.000718991
0.000708767
0.000688144
0.000675276
0.000664127
0.000645014
0.000682748
0.000531494
0.000593474
0.0175692
0.0102007
0.00117447
0.00079729
0.00109082
0.00100283
0.00101269
0.000937863
0.000869228
0.000836203
0.000801333
0.00079444
0.000753111
0.000721049
0.000721142
0.000707608
0.000682513
0.000695759
0.000528239
0.00061997
0.017875
0.00974895
0.00184406
0.000908489
0.00114866
0.00101382
0.00101721
0.00100309
0.000954132
0.000892753
0.0008385
0.00082211
0.000807948
0.000779506
0.000759038
0.000745286
0.000749626
0.000743568
0.000538279
0.00065905
0.0182401
0.00943477
0.00227979
0.00106599
0.00120098
0.0011106
0.00109903
0.00103907
0.0009681
0.000939215
0.000896957
0.000881934
0.000845332
0.000818872
0.000806254
0.000782091
0.000782119
0.000758006
0.000528964
0.000685219
0.0182742
0.00912405
0.00224405
0.00107728
0.00124029
0.00109758
0.00109825
0.0010978
0.00104068
0.000984514
0.00092918
0.000913137
0.000897557
0.000864198
0.000835311
0.000824808
0.000849229
0.00081448
0.000551047
0.000735795
0.0183713
0.00864386
0.00208861
0.00115825
0.0012894
0.00120734
0.00115607
0.00112428
0.00105525
0.00103018
0.00097966
0.000955476
0.000929599
0.000910866
0.000881688
0.000858146
0.000874097
0.000861589
0.000567922
0.000710878
0.018212
0.00773426
0.00199507
0.00118856
0.00127104
0.00118518
0.00115473
0.00116627
0.00110961
0.00106153
0.00101258
0.00099485
0.000981341
0.000953028
0.000927299
0.00094561
0.000948824
0.000943903
0.000741535
0.000802605
0.00226194
0.00177438
0.00178382
0.00160057
0.00167415
0.00150365
0.00143721
0.00133238
0.00128891
0.00121999
0.00112841
0.00107009
0.000975266
0.000916254
0.000840259
0.000821454
0.000946602
0.00419475
0.00998349
0.0222186
0.00215323
0.00174772
0.00183566
0.00161151
0.0016841
0.0015849
0.00153841
0.00138608
0.001283
0.00120024
0.00110794
0.00104874
0.000938882
0.000882379
0.000798544
0.000763096
0.000925642
0.00431361
0.0100152
0.0219731
0.00218803
0.00189811
0.00199835
0.00163403
0.00171482
0.00151151
0.00141698
0.00133399
0.00127631
0.00120921
0.00111669
0.00105976
0.000962553
0.000907599
0.00082549
0.00080297
0.000942823
0.00434578
0.0100537
0.0218257
0.00228784
0.00193315
0.00204006
0.00162266
0.00171092
0.00158074
0.00151892
0.00139412
0.00127281
0.00119109
0.00109735
0.00104048
0.00092962
0.000875472
0.000784555
0.000745027
0.000921051
0.00444205
0.0100825
0.0215762
0.00232887
0.00206483
0.00216819
0.00163329
0.00174039
0.00152158
0.00140551
0.00134146
0.00126498
0.0012006
0.0011071
0.00105162
0.00095303
0.000901834
0.000812275
0.00078619
0.000942663
0.00445772
0.0101191
0.0214333
0.00257545
0.00212063
0.00219213
0.00163637
0.00173826
0.00158511
0.00150618
0.00140338
0.00126432
0.00118392
0.00108882
0.00103377
0.000923168
0.00087151
0.000772577
0.000729208
0.000919791
0.00453487
0.0101448
0.0212005
0.0026415
0.00221741
0.00227562
0.00164584
0.00176434
0.00153912
0.00140323
0.00135105
0.00125549
0.00119347
0.0010991
0.00104541
0.000946666
0.000898766
0.000801152
0.000771334
0.000944643
0.00453417
0.0101803
0.0210649
0.00303392
0.00228683
0.00228224
0.00168205
0.00177193
0.00159673
0.00149844
0.0014081
0.00125607
0.00117845
0.00108192
0.00102864
0.000919459
0.00087018
0.00076339
0.000716031
0.000921008
0.00459041
0.0101987
0.0208504
0.00320504
0.0023733
0.00234296
0.0017054
0.00179226
0.00155861
0.00140473
0.00135658
0.00124709
0.00118765
0.0010922
0.00104087
0.00094302
0.00089811
0.000793051
0.000758972
0.00094855
0.00457206
0.0102407
0.02072
0.00367034
0.00245097
0.00235321
0.00176583
0.00180414
0.00161548
0.00149761
0.00140685
0.00124783
0.00117424
0.00107632
0.00102504
0.000918207
0.000871326
0.000758333
0.000706143
0.000924233
0.00460983
0.0102469
0.0205245
0.00376498
0.00252026
0.00240763
0.00180242
0.00181736
0.00157667
0.0014083
0.00135418
0.00123842
0.00118252
0.00108635
0.00103736
0.000941592
0.000899856
0.00078978
0.000749685
0.000947745
0.00457118
0.0102924
0.0204023
0.00399288
0.00259202
0.00242553
0.00187094
0.00182793
0.00163898
0.00150122
0.00139799
0.00123928
0.00117006
0.00107176
0.00102257
0.00091907
0.000875018
0.00075916
0.000699974
0.000922136
0.00458083
0.0102945
0.0202263
0.00406326
0.00263703
0.00247918
0.00191669
0.0018311
0.00159276
0.00141446
0.0013462
0.00123002
0.00117642
0.00108138
0.00103462
0.000941849
0.000904081
0.000792339
0.00074398
0.000942962
0.00453267
0.0103414
0.0201112
0.00431699
0.00269207
0.00250271
0.00197613
0.0018391
0.00166375
0.00150337
0.00138253
0.00123058
0.00116447
0.00106815
0.00102092
0.000921681
0.000881578
0.000766255
0.000698657
0.000916924
0.00451725
0.0103418
0.0199541
0.00439162
0.00271777
0.00254938
0.0020229
0.00182651
0.00160621
0.00142145
0.00133605
0.00122228
0.00116819
0.00107675
0.00103224
0.000943447
0.000911003
0.000801168
0.000743429
0.000937427
0.00445466
0.010382
0.0198635
0.00466761
0.00277294
0.00256444
0.00206611
0.00183578
0.00167971
0.00149775
0.00136233
0.00122061
0.00115556
0.00106389
0.00101901
0.000925055
0.000890569
0.000779489
0.000703019
0.000913285
0.00440417
0.0103693
0.0197204
0.00483198
0.00280425
0.00260023
0.00210585
0.00180888
0.00161776
0.00143081
0.00133012
0.00121749
0.00116004
0.00107322
0.00103115
0.000946803
0.000921422
0.000815946
0.000749175
0.000933745
0.00435744
0.0104192
0.0196056
0.00500729
0.00282157
0.00257613
0.00213484
0.00183258
0.00169384
0.00149798
0.0013552
0.00121886
0.00115189
0.00106457
0.0010226
0.000933552
0.000907044
0.000802664
0.000719288
0.000908824
0.00428349
0.01044
0.0195976
0.00492914
0.00289496
0.00254564
0.0021232
0.00176439
0.00160038
0.00142156
0.00130962
0.00119587
0.00113665
0.00105972
0.00102212
0.000945208
0.000929697
0.000837665
0.000755785
0.000951323
0.00420012
0.0104387
0.0194461
0.00573109
0.00313049
0.00257912
0.00215342
0.00180046
0.00169371
0.00151576
0.00137128
0.00123251
0.00116129
0.00107564
0.00103208
0.000944524
0.000924604
0.000826068
0.000736455
0.000909419
0.0039499
0.0101577
0.018977
0.0168575
0.0323383
0.0162598
0.0236351
0.0198033
0.0177759
0.0156003
0.014103
0.0127604
0.011839
0.0109566
0.0104967
0.00991672
0.010008
0.0095006
0.00953042
0.0110964
0.0371658
0.0970546
0.166942
0.032372
0.0231529
0.0202655
0.0182882
0.0164701
0.014478
0.0132136
0.0120041
0.0108356
0.00980586
0.00937645
0.00934799
0.00887033
0.00814532
0.00785708
0.00661368
0.0116464
0.0423188
0.0959171
0.154256
0.0156248
0.0148596
0.0154306
0.0132467
0.0120668
0.0111395
0.0105944
0.0097084
0.00893442
0.00852139
0.00813556
0.00785061
0.00746848
0.00734502
0.00718212
0.00685064
0.0114867
0.0399572
0.0951494
0.150775
0.0131395
0.0117438
0.0101849
0.00959807
0.00942059
0.00894055
0.00851609
0.00824818
0.00803986
0.0076053
0.00723158
0.00677106
0.00665714
0.00620402
0.0061569
0.00519868
0.00955005
0.0415978
0.0952241
0.140263
0.00659898
0.00721068
0.00831285
0.00822259
0.00747389
0.00706239
0.00670962
0.0063232
0.00594173
0.00587307
0.00585769
0.00586729
0.00568719
0.00561657
0.00552824
0.00483925
0.0100815
0.0385317
0.0951626
0.138569
0.00575511
0.00643832
0.0059052
0.00531608
0.00520776
0.00538386
0.00539074
0.00552122
0.00557547
0.00540969
0.00517506
0.00493439
0.00485956
0.00465478
0.00455262
0.00382095
0.00750538
0.0357581
0.0958847
0.134475
0.00328433
0.00365443
0.00408999
0.00470916
0.00472804
0.00453064
0.00435464
0.00418166
0.00402659
0.00413106
0.00423488
0.00441705
0.00434068
0.00429812
0.00421802
0.00349715
0.00516074
0.0321512
0.0963305
0.133397
0.0029146
0.00329465
0.00344758
0.00326346
0.00292088
0.00304067
0.00330505
0.0036579
0.0038368
0.00387379
0.00372865
0.00365687
0.00369927
0.00376124
0.00368106
0.00314562
0.0061924
0.0269004
0.0962206
0.135017
0.0016248
0.00204595
0.00222945
0.00252064
0.00281249
0.00305262
0.00298474
0.00288749
0.00284046
0.00308696
0.00328456
0.00355267
0.00350689
0.00371175
0.00362583
0.00313742
0.00238891
0.0219807
0.096329
0.138843
0.00162411
0.00174456
0.00189118
0.00196511
0.00185293
0.00190243
0.00215815
0.00255764
0.00279558
0.00295023
0.00292245
0.00305355
0.00310453
0.00334731
0.00341516
0.00330263
0.00327538
0.0157063
0.0936705
0.145842
0.000868741
0.0011724
0.0013046
0.0015186
0.00175256
0.00208197
0.00219951
0.00221083
0.00219885
0.00242882
0.00263846
0.00300981
0.00307139
0.00334872
0.00335413
0.00346469
0.0024027
0.0115961
0.0900762
0.155059
0.000830747
0.000997405
0.00108483
0.00117704
0.00117164
0.00129094
0.00150635
0.00185587
0.00213883
0.00229389
0.00231877
0.00249017
0.00271507
0.00302213
0.00325107
0.00361973
0.00268999
0.00575043
0.0706506
0.166107
0.000594568
0.000732335
0.000885937
0.00107171
0.00120992
0.00140229
0.00147348
0.00154973
0.0015904
0.00194686
0.00223165
0.0024922
0.00265317
0.00288257
0.00312751
0.00352759
0.00346679
0.00443097
0.0580587
0.180994
0.000531232
0.000638814
0.000663564
0.000785704
0.000861206
0.00101207
0.00110674
0.00133152
0.00144543
0.00161796
0.00172921
0.00194923
0.00227129
0.00255891
0.00305318
0.00321188
0.00396497
0.00908417
0.0363853
0.180805
0.000484463
0.000592974
0.000648929
0.000749749
0.000785046
0.000938084
0.0010169
0.00111215
0.00119082
0.00141946
0.00139566
0.0017241
0.00170253
0.00213529
0.00212953
0.00271278
0.00285462
0.00674554
0.0207421
0.130836
0.000379949
0.000463366
0.000493277
0.000568321
0.000611965
0.000697848
0.000781557
0.000960138
0.000956181
0.00111163
0.0012132
0.00149888
0.00150746
0.00187079
0.00187889
0.00241814
0.00244733
0.00407589
0.0069447
0.0832131
0.00037064
0.000415304
0.000453445
0.000506931
0.000554638
0.000658061
0.000640647
0.00071968
0.000784275
0.00092978
0.000951309
0.0010382
0.00112463
0.00127706
0.00146204
0.00162585
0.00197815
0.00231948
0.00237966
0.0452991
0.000266234
0.000299895
0.000334645
0.000385555
0.000440668
0.000484062
0.000556355
0.000611138
0.000679637
0.000727632
0.000805595
0.000913309
0.000964783
0.00110435
0.00104033
0.00113318
0.00104059
0.00133945
0.00191589
0.0224023
0.000211735
0.00024005
0.000253033
0.000291862
0.000280069
0.000293806
0.000340869
0.000418362
0.000433265
0.000520735
0.000523019
0.000629221
0.000610761
0.000788821
0.0008015
0.000867809
0.000765959
0.000933429
0.000786758
0.00969566
0.000119726
0.00014197
0.000171186
0.000211005
0.000265287
0.000322581
0.000368537
0.000412548
0.000450159
0.000505052
0.000541041
0.0005999
0.000635971
0.000694984
0.000764335
0.000847298
0.000846119
0.000809505
0.000988967
0.00217819
0.0138954
0.0138801
0.0138147
0.0137467
0.0137431
0.0136371
0.0134351
0.0138932
0.0132191
0.0133691
0.012398
0.0122392
0.0124688
0.0111992
0.0112616
0.00987531
0.00960308
0.00911475
0.00919755
0.0079058
0.00701442
0.007007
0.00694527
0.00696619
0.00684322
0.00679698
0.00682508
0.0066167
0.00666999
0.00652877
0.0063692
0.00776614
0.00717776
0.00670246
0.00609827
0.0066908
0.0066305
0.00644504
0.00672608
0.00750279
0.00434603
0.00435959
0.00439451
0.00442676
0.004443
0.00457325
0.00446284
0.00458899
0.00451098
0.00455833
0.00468178
0.00424029
0.00404243
0.004183
0.0041322
0.0042716
0.00378542
0.00394327
0.00347893
0.00378376
0.00277281
0.00276551
0.00276453
0.00273677
0.00274164
0.00270397
0.00266289
0.00263448
0.00263376
0.00264495
0.00243305
0.00266973
0.0026862
0.00284485
0.00276155
0.00283259
0.00269397
0.00295921
0.00277173
0.00304493
0.00174827
0.00174541
0.00175226
0.0017461
0.00175414
0.00175214
0.00175198
0.00183973
0.00181629
0.00180621
0.00198105
0.00191527
0.00188111
0.00192708
0.00184401
0.00192226
0.00180165
0.00190676
0.00181238
0.00177124
0.00125611
0.00125366
0.00125856
0.00125144
0.00125899
0.00124906
0.0012583
0.00126388
0.00122405
0.00126687
0.00122529
0.00124666
0.00126916
0.00131955
0.00128165
0.00132191
0.00128084
0.00143679
0.00136537
0.00127618
0.000778904
0.000779325
0.000780103
0.000781668
0.000784096
0.000786799
0.000791441
0.000796813
0.000794776
0.000803363
0.000816136
0.000845879
0.000866578
0.000893107
0.000852907
0.000876015
0.000891214
0.000960889
0.000848391
0.000726514
0.000569358
0.000570758
0.000572222
0.000577543
0.000582355
0.000585851
0.000585294
0.000587688
0.000587714
0.000597671
0.000600573
0.000626568
0.000643657
0.000662188
0.00062203
0.000637186
0.000639433
0.000687
0.000610546
0.000528843
0.000320773
0.000322222
0.000324376
0.00033022
0.000333347
0.00033139
0.000329989
0.000333552
0.00033683
0.000344951
0.000353216
0.000393285
0.000416751
0.000441457
0.000400359
0.000425678
0.000428069
0.000488294
0.000406198
0.000289054
0.000215603
0.000218693
0.000222653
0.00023052
0.000230178
0.000227209
0.000228529
0.000233778
0.000235878
0.000239922
0.00024266
0.000264775
0.000268284
0.000280783
0.000246259
0.000242114
0.00022797
0.000213544
0.000321987
0.000348927
8.07495e-05
8.43009e-05
9.08074e-05
0.000101828
0.000104004
0.000102087
0.000110251
0.000120378
0.000126667
0.000136108
0.00014241
0.0001788
0.000187559
0.00022613
0.00017685
0.000175713
0.000158339
0.000221024
0.000164934
0.000104393
1.14172e-05
1.79627e-05
3.15439e-05
4.60644e-05
4.46581e-05
4.81555e-05
6.05224e-05
7.07411e-05
7.91929e-05
8.87212e-05
9.59688e-05
0.000103508
0.000112445
9.84532e-05
0.00011212
0.000132646
0.000139716
0.000148161
0.000187695
0.000239968
1.69239e-05
3.19544e-05
4.40515e-05
5.60798e-05
5.14401e-05
5.00971e-05
4.66126e-05
5.50623e-05
5.69946e-05
6.0984e-05
6.40742e-05
6.37864e-05
7.33628e-05
9.04745e-05
7.96861e-05
8.1793e-05
0.000100751
0.000103952
0.000110869
0.000110739
5.3583e-05
5.38235e-05
5.46329e-05
5.63702e-05
5.30351e-05
4.576e-05
5.6023e-05
5.29351e-05
7.19109e-05
7.15771e-05
8.63915e-05
8.06778e-05
9.0751e-05
8.1566e-05
0.000116868
9.82364e-05
9.72556e-05
9.37119e-05
0.000104157
0.000117736
6.26618e-05
6.51617e-05
6.9539e-05
7.42543e-05
7.43857e-05
7.10449e-05
6.78676e-05
6.79234e-05
6.78747e-05
6.82342e-05
7.12261e-05
6.99021e-05
7.55155e-05
7.66006e-05
7.77409e-05
8.481e-05
9.67939e-05
9.68069e-05
0.000105652
0.000110806
6.60344e-05
6.79616e-05
7.07071e-05
7.04295e-05
7.11705e-05
6.98542e-05
7.32836e-05
7.27361e-05
7.86932e-05
7.95865e-05
8.40422e-05
8.69093e-05
8.38524e-05
8.38325e-05
8.7374e-05
8.23982e-05
8.45479e-05
8.55923e-05
9.01144e-05
9.58292e-05
6.33832e-05
6.23608e-05
6.34693e-05
6.7815e-05
6.52307e-05
6.06982e-05
6.03596e-05
6.16888e-05
6.42073e-05
6.74629e-05
6.86953e-05
6.87539e-05
7.10293e-05
7.062e-05
7.5674e-05
7.67263e-05
7.9582e-05
7.99617e-05
8.36531e-05
8.73036e-05
4.15883e-05
4.15523e-05
4.52962e-05
5.2303e-05
5.24703e-05
5.13899e-05
5.37599e-05
5.20769e-05
5.40607e-05
5.4207e-05
5.4614e-05
5.07027e-05
5.11488e-05
5.18737e-05
5.33156e-05
5.50334e-05
5.56415e-05
5.80717e-05
5.78969e-05
6.33243e-05
2.91003e-05
2.95357e-05
2.87137e-05
2.64678e-05
2.35463e-05
2.46551e-05
2.51767e-05
2.56711e-05
2.97671e-05
3.36191e-05
3.58171e-05
3.61078e-05
4.15957e-05
3.99091e-05
4.37344e-05
4.30738e-05
4.4708e-05
4.63232e-05
4.55178e-05
4.92359e-05
7.81342e-06
7.37952e-06
8.14516e-06
9.76909e-06
1.09532e-05
1.28724e-05
1.3937e-05
1.53445e-05
1.70398e-05
1.65681e-05
1.75213e-05
1.85661e-05
2.04739e-05
2.11129e-05
2.27359e-05
2.29934e-05
2.39086e-05
2.49904e-05
2.47662e-05
2.83113e-05
0.000953625
0.00116528
0.000816076
0.00087005
0.000907899
0.000914005
0.000942956
0.000966749
0.000993963
0.0010244
0.00108207
0.00111534
0.00117219
0.00117634
0.00126647
0.00131461
0.00127974
0.00197204
0.00676861
0.0180343
0.000911728
0.000989813
0.00073135
0.000812209
0.000879702
0.000903982
0.000943411
0.000980961
0.00101118
0.0010488
0.00109938
0.00114914
0.0012006
0.00118685
0.00124513
0.00127104
0.00132529
0.00146848
0.00564292
0.0177287
0.000938056
0.00109581
0.000803434
0.000857477
0.000921061
0.000940957
0.000971895
0.00100038
0.00102904
0.00106559
0.00112297
0.00115521
0.00120059
0.00120656
0.00131261
0.00133061
0.0014069
0.00124396
0.00479555
0.0173948
0.00101474
0.0011163
0.00080636
0.000874477
0.000923012
0.000942887
0.000973554
0.00100859
0.00104248
0.00109078
0.00113265
0.00117368
0.00121583
0.00122156
0.00129099
0.00128536
0.00141173
0.00117797
0.00391411
0.016981
0.00100974
0.00114028
0.000855756
0.000895896
0.000951482
0.000978684
0.00100544
0.00103956
0.00107317
0.001109
0.0011539
0.00118831
0.00122631
0.00124539
0.00134535
0.0013678
0.0014808
0.00127972
0.00395603
0.0164631
0.00107698
0.0011728
0.000865603
0.0009225
0.000980162
0.000991243
0.00101389
0.00105277
0.00107987
0.00112368
0.00115695
0.00119722
0.00123568
0.00127326
0.00134856
0.00134795
0.00148268
0.00132275
0.00479514
0.0158566
0.0010603
0.0011261
0.000858606
0.0009336
0.000972996
0.000993443
0.00103359
0.00106986
0.00109442
0.00113063
0.0011693
0.00121286
0.00125844
0.00130041
0.00138065
0.0014188
0.00153863
0.00142537
0.00442665
0.0153182
0.00108834
0.0011289
0.000900555
0.000963352
0.00100483
0.00103744
0.00105983
0.00107513
0.00109171
0.0011369
0.00116666
0.00122205
0.00125757
0.00131008
0.00137057
0.00139431
0.00152484
0.00141968
0.00394448
0.014236
0.00101034
0.00107045
0.000893598
0.000945179
0.000994426
0.00100962
0.00101657
0.00103946
0.00107902
0.00112616
0.00117679
0.00122999
0.00126875
0.00132785
0.00137701
0.00144573
0.00152867
0.00146512
0.0032015
0.0129996
0.00107134
0.00111485
0.000938308
0.000982626
0.00100936
0.00101239
0.00102628
0.00106653
0.00110117
0.00115691
0.00118374
0.00123658
0.00127066
0.00131787
0.00136044
0.00142241
0.00147032
0.00149155
0.00253698
0.0104187
0.00100822
0.00101736
0.000876851
0.000911792
0.000933291
0.000953179
0.000988574
0.00103109
0.00108587
0.00113002
0.00118257
0.00124978
0.00126652
0.0013315
0.00136862
0.00142775
0.00146703
0.00151626
0.00214682
0.00852593
0.000998519
0.00100729
0.000901876
0.000934166
0.00097108
0.00101402
0.00104772
0.0011132
0.00115185
0.00120829
0.00125285
0.00126715
0.0012866
0.00133683
0.00134335
0.00142033
0.00144204
0.00148632
0.00183596
0.00684451
0.000938297
0.000941269
0.000874309
0.000905241
0.000970682
0.000999707
0.0010572
0.00110172
0.00113721
0.00118473
0.00118228
0.00121759
0.00124538
0.00128637
0.00132964
0.0014146
0.00142902
0.00152911
0.00169882
0.00579835
0.000916779
0.000979885
0.000929908
0.00099489
0.00104769
0.00108736
0.00113515
0.00115398
0.00119171
0.00119119
0.00120759
0.00124056
0.00125146
0.00131859
0.00134798
0.0014419
0.00146903
0.00151678
0.00159878
0.0048808
0.00102009
0.00107455
0.00100716
0.00105227
0.00106426
0.00108586
0.00107998
0.00109068
0.00109063
0.00109133
0.00112923
0.00114902
0.00121675
0.00128405
0.00135412
0.00147696
0.00142663
0.00149999
0.00156654
0.00446675
0.000949771
0.000965545
0.000915547
0.000943634
0.00096307
0.000980859
0.000995616
0.00103494
0.00106299
0.00112916
0.00118736
0.00126483
0.00135583
0.00141097
0.00149528
0.0014618
0.00139054
0.00151497
0.00166782
0.00441283
0.000939446
0.000972759
0.000942818
0.000983836
0.00102531
0.00105507
0.00109983
0.00114205
0.00119091
0.00123815
0.00127508
0.0013156
0.00131708
0.0013197
0.00128158
0.00122532
0.00131919
0.00146094
0.00161103
0.00366562
0.000923627
0.000964834
0.000933016
0.000977434
0.00101312
0.00103471
0.00106711
0.00109009
0.00112064
0.00113794
0.00116893
0.00118035
0.00121251
0.00123698
0.00129548
0.00140489
0.00160563
0.00177363
0.00178755
0.00345663
0.000922035
0.000966532
0.000935655
0.000983208
0.00101268
0.00103826
0.00106847
0.00110093
0.00113791
0.00117813
0.00122453
0.00127489
0.00133904
0.00140442
0.0015022
0.00158314
0.00164801
0.00154578
0.00144238
0.00195764
0.00091996
0.000957763
0.000929769
0.000978296
0.00100585
0.00103451
0.00106048
0.00109655
0.00112468
0.00116325
0.00119377
0.0012361
0.00126894
0.00131936
0.00135199
0.00139821
0.00140986
0.00143771
0.00165141
0.00223608
0.000249005
0.000159229
0.000205087
0.000236876
0.000198235
0.00013304
0.00016806
0.00024967
0.000212729
0.000113794
8.24431e-05
0.000359865
0.00137456
0.00382233
0.00791025
0.0107185
0.00840574
0.00384591
0.000169372
0.000728992
0.00029664
0.000234793
0.000209366
0.000198544
0.00023928
0.000226952
0.000197318
0.000196849
0.000279942
0.000247928
0.000150798
0.000107618
0.000451644
0.00186704
0.00497268
0.00916191
0.0105845
0.0067624
0.00186417
6.87857e-23
0.000282181
0.000271973
0.00029238
0.000218847
0.000198017
0.000212921
0.000242184
0.000212984
0.000228001
0.000292853
0.000275494
0.000162229
0.000114589
0.000696863
0.0027728
0.00686923
0.0107275
0.00917465
0.00416201
0.000449987
0.00031426
0.000254176
0.000299006
0.0003037
0.000280578
0.000232814
0.000243782
0.000245345
0.000256317
0.000277693
0.000321967
0.00026639
0.000123722
9.54308e-05
0.00124996
0.00473033
0.00927565
0.0107469
0.00703106
0.000849644
0.000348131
0.000301202
0.000290507
0.000279985
0.000296821
0.000275128
0.000298068
0.000265399
0.000272768
0.00027874
0.000350283
0.00034806
0.00025653
0.000150036
0.000315286
0.00243919
0.0075545
0.0112806
0.00883541
0.002582
0.000373395
0.000352504
0.000369264
0.000335866
0.000347432
0.000284309
0.000309374
0.000324257
0.000320933
0.000322784
0.000331591
0.000401157
0.000377951
0.000258379
0.000165361
0.00106667
0.00565151
0.0108882
0.0101699
0.00271909
0.000401323
0.00037665
0.000375426
0.000337769
0.00039173
0.000357833
0.000353236
0.00033482
0.000351285
0.000354454
0.000396977
0.000416767
0.000430156
0.000384397
0.000233629
0.000272904
0.00332007
0.00967117
0.0112481
0.00539112
0.000427226
0.000433155
0.000457912
0.000376366
0.000418719
0.000374833
0.000401834
0.000418999
0.000411811
0.000413928
0.000426611
0.000490141
0.000534175
0.000486999
0.000373465
0.000257359
0.0016689
0.00857348
0.0117573
0.00739766
0.000439725
0.000439297
0.000478318
0.000408198
0.000472533
0.000443018
0.000425599
0.000428705
0.000458043
0.000461573
0.000497555
0.000527629
0.000547814
0.000616027
0.000565478
0.00032887
0.000642602
0.00743199
0.0120054
0.00981232
0.000477247
0.000490648
0.000545457
0.000448144
0.000495438
0.000479926
0.000501748
0.000516251
0.000514506
0.00052486
0.000543918
0.000614198
0.000661245
0.000649853
0.000622658
0.000449441
0.000385002
0.00529298
0.0118009
0.0123554
0.000503664
0.000497781
0.000560451
0.000493072
0.000549764
0.000533967
0.000516098
0.000535829
0.000573684
0.00057733
0.000610349
0.00064606