/*--------------------------------*- C++ -*----------------------------------*\
  =========                 |
  \\      /  F ield         | OpenFOAM: The Open Source CFD Toolbox
   \\    /   O peration     | Website:  https://openfoam.org
    \\  /    A nd           | Version:  9
     \\/     M anipulation  |
\*---------------------------------------------------------------------------*/
FoamFile
{
    format      ascii;
    class       volScalarField;
    location    "2";
    object      p;
}
// * * * * * * * * * * * * * * * * * * * * * * * * * * * * * * * * * * * * * //

dimensions      [0 2 -2 0 0 0 0];

internalField   nonuniform List<scalar> 
46400
(
-39.0516
-32.9221
-20.7682
-11.356
-2.611
5.36951
12.45
19.0046
24.8432
30.2008
35.0665
39.543
43.6705
47.4863
51.0682
54.451
57.5902
60.8612
64.2767
65.2541
-15.8065
-9.78634
1.1454
10.1438
18.1447
25.5323
32.0516
38.018
43.3672
48.2182
52.5909
56.5641
60.1773
63.4636
66.4506
69.1795
71.6379
74.0935
76.3492
76.705
8.57375
14.738
24.3497
32.5464
39.6685
46.2855
52.0872
57.4142
62.1186
66.3895
70.2134
73.6657
76.7856
79.5971
82.1421
84.4132
86.3957
88.3455
89.9044
89.4542
33.2358
38.251
46.6083
54.2631
60.7232
66.7204
71.9261
76.6368
80.8089
84.5102
87.7965
90.7046
93.2958
95.5862
97.6156
99.4053
100.941
102.439
103.707
103.038
57.121
61.3176
69.118
76.1698
82.0186
87.3514
91.9294
96.015
99.5555
102.687
105.418
107.803
109.884
111.69
113.257
114.58
115.667
116.736
117.531
116.548
79.8653
84.3839
91.5132
97.9016
103.041
107.659
111.556
114.977
117.936
120.464
122.658
124.517
126.116
127.458
128.598
129.533
130.264
130.986
131.545
130.415
103.533
108.351
114.46
119.858
124.158
127.961
131.138
133.839
136.116
138.029
139.62
140.925
141.982
142.815
143.462
143.924
144.205
144.498
144.665
143.31
126.526
131.701
136.507
140.969
144.427
147.398
149.852
151.876
153.554
154.875
155.947
156.756
157.374
157.788
158.054
158.152
158.096
158.056
157.94
156.428
149.734
154.916
158.394
161.659
164.242
166.33
168.024
169.306
170.298
170.988
171.447
171.686
171.756
171.67
171.46
171.117
170.647
170.201
169.664
167.986
171.472
175.441
178.232
180.51
182.383
183.774
184.852
185.579
186.052
186.25
186.256
186.056
185.71
185.215
184.623
183.912
183.098
182.302
181.415
179.493
191.662
194.568
196.692
198.2
199.373
200.101
200.545
200.656
200.55
200.201
199.684
198.992
198.183
197.25
196.24
195.144
193.972
192.837
191.633
189.595
208.949
211.275
212.92
213.93
214.633
214.904
214.927
214.64
214.149
213.417
212.528
211.464
210.279
208.979
207.594
206.128
204.592
203.085
201.525
199.23
224.986
226.71
227.817
228.252
228.425
228.162
227.687
226.92
225.998
224.871
223.614
222.214
220.716
219.118
217.465
215.735
213.966
212.226
210.476
208.071
238.972
240.237
240.966
241.019
240.824
240.194
239.359
238.254
236.985
235.527
233.948
232.22
230.411
228.489
226.518
224.473
222.384
220.322
218.224
215.653
251.1
251.883
252.206
251.856
251.308
250.329
249.13
247.679
246.096
244.352
242.523
240.581
238.57
236.479
234.331
232.125
229.862
227.619
225.349
222.579
262.19
262.367
262.242
261.526
260.628
259.358
257.883
256.13
254.237
252.19
250.053
247.833
245.558
243.23
240.876
238.484
236.069
233.686
231.345
228.505
270.133
269.993
269.559
268.552
267.389
265.94
264.349
262.527
260.553
258.408
256.156
253.791
251.372
248.883
246.375
243.828
241.265
238.739
236.279
233.363
276.948
276.69
276.049
274.785
273.277
271.494
269.582
267.48
265.289
262.953
260.555
258.059
255.528
252.937
250.336
247.703
245.057
242.453
239.938
236.955
279.986
279.714
279.091
278.064
276.712
275.012
273.086
270.939
268.656
266.236
263.733
261.146
258.515
255.838
253.15
250.443
247.724
245.06
242.504
239.493
285.198
282.002
281.62
280.13
278.665
276.766
274.791
272.546
270.236
267.753
265.226
262.593
259.937
257.221
254.506
251.763
249.017
246.32
243.742
240.684
-139.567
-139.515
-139.128
-139.173
-138.776
-136.819
-135.305
-133.407
-131.682
-130.16
-128.681
-126.828
-125.016
-123.484
-121.873
-120.131
-118.467
-116.921
-115.394
-113.756
-141.115
-140.498
-141.252
-139.638
-139.358
-137.822
-135.423
-132.808
-130.537
-128.408
-126.261
-124.139
-122.166
-120.178
-118.247
-116.316
-114.481
-112.708
-110.999
-109.199
-141.762
-141.633
-142.006
-141.253
-138.628
-136.606
-134.195
-131.668
-129.135
-126.552
-124.14
-121.742
-119.47
-117.197
-115.024
-112.917
-110.88
-108.807
-106.848
-104.905
-142.565
-142.766
-142.143
-141.958
-138.93
-136.058
-133.171
-130.434
-127.443
-124.587
-121.781
-119.07
-116.496
-113.894
-111.48
-109.074
-106.776
-104.515
-102.399
-100.249
-144.463
-144.641
-143.316
-141.985
-139.458
-136.054
-132.785
-129.256
-125.984
-122.701
-119.59
-116.538
-113.62
-110.748
-108.076
-105.371
-102.884
-100.455
-98.177
-95.8431
-147.376
-146.931
-146.85
-143.677
-140.1
-136.18
-132
-128.155
-124.332
-120.662
-117.084
-113.642
-110.353
-107.141
-104.141
-101.138
-98.411
-95.6829
-93.2009
-90.6686
-152.594
-151.701
-150.656
-146.428
-141.639
-136.753
-131.943
-127.326
-122.864
-118.602
-114.562
-110.678
-106.986
-103.447
-100.132
-96.8527
-93.8944
-90.9114
-88.2637
-85.4953
-160.568
-159.66
-156.153
-150.248
-143.726
-137.408
-131.601
-126.076
-120.883
-116.015
-111.409
-107.058
-102.952
-99.0514
-95.3942
-91.8413
-88.6503
-85.4008
-82.6079
-79.6803
-166.427
-165.698
-159.615
-152.015
-144.24
-136.957
-130.206
-123.988
-118.148
-112.706
-107.634
-102.853
-98.3739
-94.1643
-90.2204
-86.4476
-83.0376
-79.5872
-76.6806
-73.5548
-172.38
-170.339
-161.977
-152.737
-143.703
-135.464
-127.766
-120.785
-114.317
-108.329
-102.766
-97.5764
-92.7475
-88.2353
-84.0157
-80.0383
-76.4366
-72.8311
-69.8044
-66.5175
-172.661
-170.044
-160.712
-150.257
-140.476
-131.549
-123.339
-115.85
-108.945
-102.581
-96.7032
-91.2222
-86.1408
-81.414
-77.0034
-72.8921
-69.1317
-65.3857
-62.4247
-58.8816
-169.461
-167.394
-157.005
-145.874
-135.618
-126.156
-117.43
-109.522
-102.221
-95.4952
-89.2976
-83.5455
-78.2393
-73.3157
-68.7359
-64.5021
-60.5825
-56.8408
-53.7451
-50.1791
-165.113
-162.33
-151.338
-139.022
-128.219
-118.444
-109.378
-101.185
-93.6716
-86.7698
-80.433
-74.5569
-69.1395
-64.1239
-59.4708
-55.1707
-51.1875
-47.4191
-44.2033
-40.5536
-157.687
-153.919
-142.178
-130.14
-118.848
-108.948
-99.6904
-91.3364
-83.6764
-76.6257
-70.1653
-64.1883
-58.7059
-53.6391
-48.9508
-44.6501
-40.6467
-36.9316
-33.7391
-30.0553
-146.881
-142.484
-130.693
-118.781
-107.352
-97.3142
-88.0078
-79.5749
-71.903
-64.8664
-58.4355
-52.4962
-47.0424
-42.0152
-37.3807
-33.125
-29.1563
-25.5362
-22.3724
-18.6765
-134.281
-129.294
-117.153
-105.286
-93.8531
-83.8742
-74.6348
-66.2896
-58.697
-51.717
-45.3544
-39.4855
-34.1218
-29.1794
-24.636
-20.4775
-16.5905
-13.1207
-10.0191
-6.29671
-118.509
-113.478
-100.934
-89.1749
-78.1839
-68.4636
-59.5068
-51.3424
-43.9664
-37.1957
-31.0287
-25.3483
-20.1442
-15.3711
-10.9999
-6.98825
-3.24999
-0.00155172
2.97054
6.62671
-101.397
-95.9021
-83.1956
-72.0214
-61.1924
-51.7782
-43.1125
-35.2318
-28.1088
-21.5619
-15.6149
-10.145
-5.15197
-0.570142
3.60748
7.43981
10.9884
13.9928
16.7747
20.2714
-82.0101
-76.297
-63.1717
-52.6879
-42.5459
-33.5144
-25.3473
-17.8168
-11.0656
-4.86497
0.772397
5.95626
10.7056
15.0426
19.0082
22.6808
26.0282
28.7809
31.3763
35.232
-61.485
-55.5772
-42.8693
-32.779
-23.1908
-14.6097
-6.87023
0.221236
6.62187
12.5019
17.8539
22.7931
27.3427
31.552
35.4568
39.1376
42.4847
45.6066
49.0093
52.9321
-106.679
-96.5585
-88.4121
-85.3469
-80.999
-79.7754
-77.4156
-76.1299
-74.5696
-73.1045
-71.8425
-70.2629
-69.0942
-67.4709
-66.2492
-64.644
-63.1301
-62.1076
-61.4706
-60.9292
-101.436
-92.5424
-83.8952
-81.0994
-76.7381
-75.6212
-73.4215
-72.4051
-71.1402
-69.9023
-68.8818
-67.5129
-66.5759
-65.1482
-64.1487
-62.7362
-61.4077
-60.468
-59.9614
-59.4772
-96.5159
-88.1592
-79.1798
-76.7987
-72.4812
-71.6681
-69.7196
-68.8263
-67.7585
-66.7095
-65.9208
-64.7516
-64.0284
-62.7851
-61.9954
-60.7359
-59.6169
-58.8892
-58.4483
-57.956
-91.1827
-83.7766
-74.4832
-72.4941
-68.2224
-67.5517
-65.8075
-65.1648
-64.4049
-63.5725
-63.0205
-62.054
-61.5577
-60.5051
-59.937
-58.8651
-57.9381
-57.2789
-56.9745
-56.541
-85.91
-79.072
-69.6047
-68.1067
-63.9811
-63.606
-62.1575
-61.6467
-61.0907
-60.4423
-60.1169
-59.346
-59.0539
-58.1836
-57.825
-56.9028
-56.1939
-55.722
-55.5046
-55.0757
-79.8658
-74.2621
-64.7435
-63.7089
-59.7304
-59.5112
-58.3148
-58.0431
-57.8017
-57.3676
-57.2718
-56.6978
-56.6291
-55.9426
-55.8049
-55.0662
-54.5652
-54.1378
-54.0813
-53.7051
-73.9332
-69.2049
-59.7436
-59.2097
-55.5038
-55.563
-54.7082
-54.5793
-54.55
-54.2954
-54.4215
-54.0373
-54.1655
-53.6586
-53.7308
-53.1404
-52.8757
-52.602
-52.6712
-52.2985
-67.7519
-63.9607
-54.7519
-54.6918
-51.2509
-51.4841
-50.9235
-51.0325
-51.319
-51.2791
-51.626
-51.4336
-51.7784
-51.4521
-51.7446
-51.3351
-51.3014
-51.0438
-51.3162
-50.9782
-61.4918
-58.5271
-49.5763
-50.0821
-47.0319
-47.5293
-47.3555
-47.6184
-48.125
-48.2642
-48.8238
-48.8195
-49.354
-49.2031
-49.7031
-49.4448
-49.6754
-49.525
-49.9387
-49.632
-54.7049
-52.8889
-44.4406
-45.4047
-42.7921
-43.4462
-43.6198
-44.1286
-44.9479
-45.3027
-46.0745
-46.2581
-46.9984
-47.0274
-47.7421
-47.6708
-48.1674
-47.9817
-48.6743
-48.3674
-47.8113
-46.9601
-39.1766
-40.6293
-38.5825
-39.4862
-40.082
-40.7637
-41.8071
-42.3459
-43.3203
-43.6872
-44.6084
-44.8087
-45.7256
-45.8158
-46.5904
-46.5077
-47.368
-47.0841
-40.4172
-40.7374
-33.8848
-35.7951
-34.3347
-35.4041
-36.3802
-37.3316
-38.6813
-39.4387
-40.6152
-41.1659
-42.2823
-42.6581
-43.782
-44.0701
-45.0916
-45.0494
-46.1734
-45.8779
-32.688
-34.3368
-28.434
-30.8847
-30.1168
-31.4443
-32.8586
-34.0117
-35.5885
-36.5377
-37.9062
-38.6351
-39.9228
-40.4636
-41.7824
-42.2455
-43.5212
-43.6227
-44.9235
-44.6577
-24.2235
-27.7028
-22.9615
-25.9106
-25.855
-27.3728
-29.1859
-30.6407
-32.5165
-33.6874
-35.2469
-36.1535
-37.6243
-38.3334
-39.8489
-40.5238
-42.0294
-42.2289
-43.8171
-43.5123
-15.2333
-20.8695
-17.3525
-20.8891
-21.6355
-23.4375
-25.6839
-27.3787
-29.4852
-30.8557
-32.5952
-33.6723
-35.3029
-36.1672
-37.8678
-38.7368
-40.4705
-40.87
-42.7319
-42.343
-5.25148
-13.6165
-11.6393
-15.7401
-17.3146
-19.3495
-21.9983
-24.0363
-26.4435
-28.0428
-29.9664
-31.2173
-33.0208
-34.0444
-35.9347
-37.0307
-38.9776
-39.4994
-41.7532
-41.296
4.77368
-6.32572
-5.8398
-10.5529
-13.0089
-15.3699
-18.4289
-20.7459
-23.4022
-25.2164
-27.3139
-28.7317
-30.6867
-31.8523
-33.9161
-35.2044
-37.3883
-38.0085
-40.6397
-40.1189
15.0577
0.638535
-0.44216
-5.56788
-8.88682
-11.5603
-14.9943
-17.6556
-20.589
-22.6116
-24.8563
-26.4154
-28.5119
-29.8085
-32.0223
-33.5683
-35.8796
-36.6681
-39.6883
-38.9643
30.1
9.25888
5.34984
-0.506076
-4.78944
-7.86611
-11.6735
-14.6926
-17.8741
-20.1101
-22.5073
-24.2021
-26.4337
-27.8584
-30.2468
-32.133
-34.527
-35.6434
-39.1364
-38.4341
47.3682
20.6865
13.0979
6.16282
0.868442
-2.47718
-6.7279
-10.3011
-13.9438
-16.5472
-19.2473
-21.2195
-23.6821
-25.2887
-27.9671
-29.9652
-33.2161
-34.2213
-38.3675
-36.8067
71.2751
65.8607
50.3324
42.0198
31.8675
25.4231
18.9358
14.1003
8.80489
4.32676
-0.0367874
-3.39663
-6.69966
-8.83319
-12.029
-12.4837
-17.7364
-18.2121
-24.0164
-18.2267
107.761
95.4493
76.7073
65.5047
53.697
44.4668
35.94
29.018
23.4603
18.6812
14.4284
10.3563
6.56903
2.98634
-0.223833
-3.72367
-6.17525
-8.93033
-10.1947
-10.1682
108.885
96.378
84.8353
75.2214
66.4052
58.6084
51.5528
45.0244
39.0328
33.9693
29.5383
25.8903
22.5037
19.8092
17.2248
15.2403
13.1459
11.4317
10.5399
10.2765
108.237
100.125
91.9602
83.0418
75.4516
67.8542
61.3572
55.3509
50.1639
45.0718
40.4928
36.0889
32.352
28.6366
25.6364
22.5864
20.2754
17.9734
16.9184
16.638
99.7136
92.7613
86.7329
80.7308
75.4926
70.129
65.2264
60.5018
56.1243
52.1722
48.4443
45.151
42.0225
39.3042
36.7713
34.485
32.5646
30.5639
29.2664
28.9519
96.1236
91.7457
88.4098
83.5088
79.0777
74.478
70.1788
65.9649
62.0136
58.1914
54.608
51.1992
48.0276
45.0381
42.3069
39.7683
37.5233
35.5158
34.3147
34.002
89.7036
86.4834
83.297
79.9583
76.8558
73.7271
70.5833
67.577
64.5316
61.7436
58.8729
56.3294
53.684
51.3646
48.9772
46.7725
44.6108
42.5293
40.998
40.6311
88.0844
85.8349
84.1191
81.5746
78.737
76.0526
73.4389
70.7636
68.1008
65.5196
62.8972
60.456
57.9229
55.6353
53.2414
51.133
48.9757
46.9126
45.5174
44.9124
84.4677
82.8047
81.0037
79.313
77.784
75.9049
73.8761
71.974
69.876
67.9896
65.8499
63.9985
61.8174
59.9904
57.7483
55.874
53.5591
51.6335
49.7447
49.053
84.2437
83.2034
82.1307
80.7873
79.1795
77.5295
75.9594
74.3574
72.6445
71.001
69.1693
67.5147
65.5452
63.8818
61.7254
60.0197
57.5388
55.777
53.3889
52.7421
83.0481
82.0754
81.2072
80.3775
79.539
78.5762
77.3145
76.1884
74.8375
73.6846
72.2393
71.0524
69.4655
68.2305
66.3816
65.0665
62.6592
61.3789
58.6036
57.972
83.46
83.0794
82.4426
81.7525
80.8435
80.0854
79.2053
78.411
77.4623
76.6077
75.577
74.6727
73.5063
72.541
71.1511
70.1327
68.1508
67.3171
63.6773
63.712
83.6392
83.3181
82.9454
82.6235
82.1791
81.7752
81.1709
80.7234
80.1001
79.6814
79.0589
78.6603
78.0514
77.6472
76.9668
76.5094
75.4432
75.2297
73.6637
75.2517
84.4439
84.3019
83.9809
83.7932
83.4799
83.3219
83.0504
82.9205
82.6913
82.6389
82.4956
82.5327
82.5906
82.7026
83.098
83.1984
84.137
84.2079
85.9692
87.8623
85.1573
85.1513
85.052
85.0521
84.9526
84.9952
84.9038
85.0665
85.0261
85.3398
85.3896
85.9325
86.1565
86.9431
87.5608
88.5868
90.0361
91.0882
94.4256
94.9403
85.8875
85.9526
85.9547
86.0698
86.1362
86.3346
86.4695
86.7912
87.0147
87.529
87.9073
88.6715
89.2389
90.3708
91.2202
92.8566
94.1606
96.4942
98.7154
100.827
86.5978
86.7305
86.842
87.0339
87.2165
87.4925
87.7703
88.2105
88.5996
89.2438
89.7435
90.6591
91.398
92.6959
93.6968
95.5509
96.8372
99.4238
101.235
105.803
87.1671
87.3525
87.5312
87.7878
88.0519
88.4187
88.7946
89.2581
89.7487
90.3727
91.0149
91.8712
92.5995
93.7286
94.558
96.0604
96.9643
99.0965
99.8068
111.037
87.5633
87.7503
87.954
88.2329
88.5269
88.9129
89.2948
89.8223
90.3116
91.0157
91.6111
92.5089
93.2074
94.3334
95.1072
96.4576
97.2154
98.7349
99.2587
101.713
87.7552
87.9625
88.2003
88.4928
88.8266
89.2167
89.6612
90.1629
90.7309
91.3639
92.0615
92.8481
93.6601
94.626
95.5126
96.696
97.5605
99.0342
99.673
111.635
205.43
204.873
203.592
201.916
199.358
196.518
192.674
188.539
183.634
178.29
172.239
165.685
158.595
149.95
142.364
133.241
123.488
114.292
105.071
95.3235
175.991
175.71
175.147
174.326
173.176
171.861
170.1
168.34
165.963
163.72
160.816
158.207
153.942
149.475
145.755
142.315
138.412
134.428
130.057
125.534
138.833
138.723
138.491
138.154
137.712
137.134
136.498
135.689
134.815
133.819
132.676
131.495
130.082
128.779
126.997
125.433
123.442
121.681
119.449
117.753
126.492
126.437
126.294
126.126
125.822
125.544
125.059
124.64
124.009
123.421
122.651
121.914
120.989
120.138
119.08
118.137
116.925
115.911
114.53
113.584
108.25
108.208
108.155
108.03
107.92
107.722
107.545
107.291
107.038
106.754
106.407
106.103
105.701
105.37
104.891
104.509
103.938
103.521
102.844
102.452
102.409
102.395
102.346
102.299
102.199
102.118
101.967
101.848
101.652
101.469
101.24
100.989
100.684
100.394
100.018
99.7045
99.2545
98.92
98.3931
98.0907
94.002
93.9812
93.9526
93.8944
93.8353
93.7444
93.6497
93.534
93.3948
93.2591
93.0794
92.9156
92.7055
92.5133
92.2702
92.0504
91.7649
91.5218
91.1878
90.9365
91.123
91.1142
91.0878
91.0591
91.0069
90.957
90.8808
90.8092
90.709
90.6147
90.4902
90.3744
90.2231
90.0868
89.9067
89.7494
89.5419
89.3639
89.12
88.9323
87.5814
87.5689
87.5466
87.5105
87.4656
87.4075
87.3383
87.2615
87.1666
87.0734
86.9527
86.8449
86.6991
86.5693
86.3885
86.2273
86.0118
85.8055
85.5245
85.2246
86.1568
86.1491
86.1323
86.1089
86.0756
86.0367
85.9877
85.9374
85.8714
85.8126
85.7276
85.6648
85.5586
85.4838
85.3557
85.2453
85.1178
84.9825
84.8377
84.6817
85.2645
85.2534
85.2347
85.2036
85.1663
85.1173
85.0654
85.0032
84.9356
84.8624
84.7779
84.699
84.5913
84.4971
84.3254
84.1673
83.9721
83.808
83.6135
83.4425
84.7832
84.766
84.7431
84.711
84.6754
84.6351
84.6005
84.5589
84.5168
84.4696
84.4237
84.376
84.3266
84.2561
84.1878
84.1119
84.0214
83.9313
83.8112
83.7233
84.8102
84.804
84.7955
84.7846
84.7742
84.7594
84.7296
84.6984
84.66
84.6201
84.5723
84.5227
84.4652
84.398
84.328
84.2439
84.1494
84.0556
83.9413
83.8338
85.1446
85.1417
85.1354
85.1258
85.1137
85.0979
85.0828
85.0627
85.0422
85.0162
84.9905
84.9604
84.9286
84.8948
84.8556
84.8165
84.7711
84.7216
84.6729
84.6107
85.5034
85.5021
85.4998
85.4955
85.4902
85.483
85.4744
85.4644
85.453
85.4398
85.4254
85.4086
85.3916
85.3711
85.3517
85.328
85.3071
85.2812
85.2573
85.2286
86.0124
86.0118
86.011
86.0092
86.0077
86.0046
86.0026
85.9986
85.9959
85.9907
85.987
85.9806
85.9756
85.9682
85.9614
85.9529
85.9445
85.9347
85.9253
85.9139
86.4534
86.4543
86.4559
86.4586
86.462
86.466
86.4705
86.4755
86.4807
86.4863
86.4924
86.4989
86.5062
86.5135
86.5222
86.5301
86.5394
86.5481
86.5584
86.5674
86.8394
86.8411
86.8444
86.8484
86.8544
86.8602
86.8687
86.8768
86.8883
86.8992
86.9139
86.9287
86.947
86.9651
86.9849
87.0054
87.027
87.0504
87.0739
87.0997
87.1338
87.1364
87.141
87.1483
87.1575
87.1695
87.1832
87.1989
87.2173
87.236
87.2562
87.2754
87.2977
87.3179
87.3426
87.3658
87.3923
87.4199
87.4489
87.4804
87.258
87.2622
87.2688
87.2772
87.2874
87.2995
87.3133
87.3288
87.3456
87.364
87.3849
87.4075
87.432
87.4582
87.4875
87.5177
87.5517
87.5862
87.6242
87.6634
65.5635
64.5998
61.2003
57.9312
54.7994
51.4228
47.8482
44.043
39.9275
35.4655
30.6203
25.2858
19.469
12.936
5.88547
-2.05073
-10.7479
-20.1174
-32.2207
-38.3221
76.9392
76.5698
74.3283
71.8864
69.4455
66.7376
63.7709
60.5115
56.9259
52.9778
48.6307
43.8103
38.4834
32.5434
26.0588
18.7222
10.767
1.81386
-9.07118
-15.069
89.7154
90.1718
88.6357
86.6965
84.7285
82.4703
79.9394
77.1439
74.0371
70.6013
66.7982
62.5493
57.8642
52.5611
46.7919
40.2165
33.1319
24.9673
15.4019
9.2798
103.251
103.914
102.667
101.178
99.6575
97.8854
95.8747
93.6064
91.0389
88.154
84.8926
81.219
77.0694
72.3867
67.2159
61.2685
54.8507
47.243
38.9335
33.9343
116.723
117.717
116.964
115.911
114.845
113.542
111.995
110.208
108.14
105.772
103.06
99.9477
96.4239
92.3671
87.8291
82.5458
76.7391
69.7376
61.994
57.8174
130.552
131.701
131.191
130.486
129.773
128.856
127.733
126.407
124.827
122.989
120.819
118.317
115.385
111.998
108.139
103.565
98.4651
92.1212
85.0512
80.5722
143.458
144.841
144.713
144.44
144.175
143.73
143.099
142.282
141.24
139.951
138.375
136.481
134.216
131.54
128.388
124.623
120.349
114.998
108.944
104.159
156.723
158.241
158.352
158.393
158.451
158.355
158.093
157.684
157.074
156.277
155.218
153.914
152.258
150.261
147.836
144.904
141.472
137.061
132.303
127.108
168.259
169.922
170.457
170.904
171.381
171.731
171.952
172.05
171.994
171.77
171.329
170.657
169.679
168.415
166.738
164.671
162.099
158.88
155.391
150.287
179.796
181.718
182.605
183.406
184.227
184.943
185.541
186.041
186.395
186.606
186.61
186.42
185.955
185.239
184.171
182.794
180.928
178.672
175.862
171.989
189.93
191.938
193.13
194.259
195.431
196.528
197.547
198.492
199.32
200.03
200.564
200.925
201.038
200.933
200.494
199.767
198.592
197.077
194.935
192.053
199.514
201.788
203.36
204.874
206.422
207.904
209.309
210.632
211.836
212.915
213.807
214.534
215.018
215.297
215.267
214.987
214.269
213.252
211.585
209.262
208.171
210.556
212.375
214.162
215.97
217.733
219.419
221.037
222.549
223.948
225.202
226.32
227.238
228.004
228.478
228.74
228.561
228.114
226.983
225.253
215.763
218.366
220.518
222.622
224.746
226.818
228.81
230.738
232.552
234.271
235.847
237.294
238.569
239.669
240.507
241.126
241.308
241.24
240.485
239.199
222.909
225.666
227.924
230.16
232.416
234.609
236.745
238.819
240.82
242.751
244.582
246.323
247.916
249.362
250.564
251.528
252.074
252.411
252.078
251.3
228.657
231.433
233.792
236.188
238.611
241.01
243.379
245.716
248.013
250.248
252.413
254.475
256.396
258.152
259.651
260.905
261.83
262.533
262.685
262.496
233.414
236.3
238.811
241.372
243.962
246.531
249.066
251.57
254.015
256.384
258.655
260.787
262.771
264.56
266.155
267.556
268.733
269.688
270.148
270.258
236.995
239.937
242.487
245.113
247.778
250.425
253.05
255.654
258.212
260.722
263.154
265.503
267.74
269.848
271.815
273.586
275.143
276.334
276.975
277.06
239.435
242.427
245.044
247.75
250.491
253.224
255.931
258.63
261.277
263.888
266.408
268.859
271.161
273.347
275.285
277.006
278.307
279.245
279.69
279.765
240.61
243.605
246.233
248.961
251.724
254.479
257.211
259.938
262.613
265.26
267.818
270.32
272.678
274.946
276.985
278.897
280.451
281.87
282.785
283.529
-113.301
-115
-116.586
-118.2
-119.934
-121.728
-123.419
-125.064
-126.947
-128.869
-130.505
-132.199
-134.134
-136.171
-137.875
-139.808
-140.239
-140.107
-140.274
-140.311
-108.936
-110.767
-112.497
-114.294
-116.17
-118.151
-120.132
-122.176
-124.223
-126.461
-128.726
-130.958
-133.291
-136.021
-138.602
-140.552
-140.795
-141.943
-141.248
-141.623
-104.609
-106.576
-108.574
-110.686
-112.763
-114.911
-117.131
-119.459
-121.778
-124.228
-126.702
-129.357
-131.968
-134.556
-137.012
-138.909
-141.412
-142.39
-142.031
-142.133
-100.013
-102.187
-104.321
-106.588
-108.913
-111.353
-113.789
-116.424
-119.034
-121.788
-124.63
-127.511
-130.522
-133.286
-136.201
-139.056
-142.082
-142.21
-142.799
-142.572
-95.6058
-97.9571
-100.25
-102.689
-105.194
-107.924
-110.617
-113.51
-116.446
-119.515
-122.641
-125.942
-129.235
-132.773
-136.039
-139.451
-141.956
-143.242
-144.539
-144.404
-90.4636
-92.9872
-95.4656
-98.1979
-100.923
-103.93
-106.935
-110.156
-113.455
-116.907
-120.495
-124.178
-127.996
-131.859
-135.998
-139.887
-143.475
-146.552
-146.692
-147.177
-85.2613
-88.0322
-90.6791
-93.6665
-96.6294
-99.9128
-103.232
-106.776
-110.466
-114.348
-118.387
-122.637
-127.089
-131.681
-136.504
-141.349
-146.065
-150.279
-151.342
-152.184
-79.4371
-82.3549
-85.132
-88.3772
-91.5545
-95.0999
-98.7483
-102.644
-106.745
-111.088
-115.686
-120.543
-125.72
-131.235
-137.002
-143.274
-149.801
-155.638
-159.06
-160.003
-73.2927
-76.4115
-79.3079
-82.7573
-86.1658
-89.9303
-93.8711
-98.0747
-102.544
-107.314
-112.376
-117.795
-123.609
-129.793
-136.511
-143.734
-151.428
-158.952
-164.981
-165.669
-66.2384
-69.5086
-72.507
-76.0999
-79.6902
-83.6546
-87.8589
-92.3602
-97.1746
-102.347
-107.894
-113.863
-120.312
-127.285
-134.953
-143.152
-152.194
-161.384
-169.618
-171.682
-58.6071
-62.1203
-65.092
-68.8103
-72.5655
-76.6633
-81.0623
-85.7778
-90.8456
-96.3115
-102.177
-108.516
-115.391
-122.846
-131.008
-139.901
-149.588
-159.95
-169.271
-171.896
-49.8204
-53.3753
-56.4747
-60.2041
-64.105
-68.3295
-72.8941
-77.8051
-83.0942
-88.8258
-95.0022
-101.702
-108.978
-116.861
-125.559
-134.973
-145.191
-156.262
-166.644
-168.712
-40.2412
-43.8802
-47.0814
-50.8411
-54.8117
-59.0957
-63.7348
-68.7373
-74.1389
-79.9987
-86.3233
-93.2025
-100.686
-108.853
-117.884
-127.603
-138.334
-150.571
-161.471
-164.237
-29.6625
-33.3329
-36.5207
-40.2308
-44.2224
-48.517
-53.1959
-58.2529
-63.7221
-69.6824
-76.1254
-83.152
-90.7902
-99.124
-108.356
-118.221
-129.497
-141.469
-153.168
-156.928
-18.3467
-22.0331
-25.1843
-28.8023
-32.7565
-36.9973
-41.6173
-46.6314
-52.0669
-57.9882
-64.4045
-71.4181
-79.0616
-87.4705
-96.7503
-106.745
-118.108
-129.956
-141.667
-146.038
-5.9108
-9.61284
-12.7032
-16.1755
-20.0507
-24.2009
-28.7371
-33.669
-39.0202
-44.8759
-51.2239
-58.1809
-65.7535
-74.0794
-83.292
-93.2266
-104.615
-116.441
-128.564
-133.522
6.98098
3.31701
0.353123
-2.89864
-6.62814
-10.6275
-14.987
-19.7498
-24.9369
-30.599
-36.7484
-43.4938
-50.8402
-58.9793
-67.9075
-77.5798
-88.514
-100.213
-112.695
-117.711
20.6341
17.1338
14.3724
11.3697
7.83371
4.01448
-0.153478
-4.7198
-9.69483
-15.1497
-21.08
-27.6018
-34.7059
-42.5694
-51.2091
-60.5812
-71.369
-82.4987
-95.1646
-100.64
35.5865
31.7061
29.119
26.3619
23.0163
19.3542
15.3992
11.0724
6.33865
1.17201
-4.44495
-10.6194
-17.3424
-24.8467
-32.9816
-41.963
-52.0521
-62.4775
-75.5505
-81.252
53.1159
49.1371
45.8108
42.7381
39.4234
35.7742
31.895
27.7149
23.1951
18.2803
12.9532
7.1051
0.727571
-6.34195
-14.051
-22.5881
-32.1316
-42.1753
-54.845
-60.7359
-61.257
-61.7757
-62.4408
-63.4257
-64.9678
-66.5674
-67.7797
-69.3997
-70.5501
-72.1047
-73.3542
-74.7603
-76.3202
-77.5269
-79.8503
-80.9628
-85.1065
-88.1426
-96.2465
-106.08
-59.7958
-60.2619
-60.788
-61.699
-63.0478
-64.4563
-65.4445
-66.8688
-67.789
-69.1317
-70.1395
-71.317
-72.5703
-73.4958
-75.6704
-76.683
-80.9085
-83.6357
-92.2572
-100.995
-58.2622
-58.7384
-59.1953
-59.8988
-61.0343
-62.2925
-63.0701
-64.3112
-65.0144
-66.1587
-66.9322
-67.9241
-68.9909
-69.8028
-71.7195
-72.4396
-76.6084
-78.9357
-87.917
-96.0869
-56.8371
-57.2605
-57.5723
-58.2147
-59.1523
-60.2247
-60.7782
-61.8302
-62.3066
-63.2478
-63.784
-64.5555
-65.3036
-65.861
-67.5804
-68.1853
-72.3245
-74.2346
-83.5648
-90.8363
-55.3587
-55.7797
-56.0015
-56.4613
-57.1768
-58.1029
-58.4463
-59.3182
-59.5859
-60.3337
-60.6403
-61.234
-61.7841
-62.2142
-63.6294
-63.9436
-67.9492
-69.3857
-78.8801
-85.5527
-53.9764
-54.3512
-54.4048
-54.8263
-55.3299
-56.0742
-56.1944
-56.8821
-56.9274
-57.48
-57.554
-57.935
-58.1586
-58.3498
-59.5114
-59.7089
-63.5567
-64.518
-74.0991
-79.6257
-52.5551
-52.9301
-52.8543
-53.1269
-53.3912
-53.991
-53.9007
-54.4096
-54.2562
-54.6202
-54.4692
-54.677
-54.6901
-54.7446
-55.5529
-55.4755
-59.077
-59.5469
-69.0345
-73.6372
-51.2204
-51.5655
-51.2839
-51.5452
-51.5766
-51.9976
-51.6839
-52.0147
-51.6428
-51.8179
-51.4403
-51.4385
-51.1244
-50.9407
-51.4483
-51.242
-54.5589
-54.5509
-63.8222
-67.5123
-49.8575
-50.1788
-49.7502
-49.9082
-49.6738
-49.9478
-49.4265
-49.5836
-49.0203
-49.0087
-48.4157
-48.2395
-47.7026
-47.3718
-47.4822
-47.0144
-49.9775
-49.3976
-58.3674
-61.2572
-48.5742
-48.8986
-48.1949
-48.3918
-47.8918
-47.9807
-47.2417
-47.2211
-46.4501
-46.2524
-45.443
-45.0564
-44.196
-43.6205
-43.3736
-42.7926
-45.3025
-44.2577
-52.7637
-54.4625
-47.2721
-47.5788
-46.7049
-46.8029
-46.0252
-45.9568
-45.016
-44.8248
-43.8718
-43.4916
-42.4776
-41.9111
-40.8201
-40.0763
-39.4035
-38.5742
-40.5554
-39.0089
-46.8123
-47.5719
-46.0431
-46.3658
-45.235
-45.2947
-44.2729
-44.0087
-42.8575
-42.4932
-41.3433
-40.7806
-39.561
-38.7807
-37.3728
-36.3633
-35.2999
-34.345
-35.727
-33.7132
-40.6213
-40.1678
-44.8016
-45.0998
-43.8003
-43.712
-42.4381
-42.003
-40.6574
-40.128
-38.8061
-38.0654
-36.6525
-35.6831
-34.0388
-32.8279
-31.3329
-30.1206
-30.8394
-28.2733
-34.2049
-32.4236
-43.6303
-43.9728
-42.3907
-42.21
-40.711
-40.0671
-38.5206
-37.8254
-36.3188
-35.4007
-33.7948
-32.6067
-30.6524
-29.1453
-27.2479
-25.8807
-25.8752
-22.7978
-27.6112
-23.9362
-42.4376
-42.8711
-41.0187
-40.6395
-38.9155
-38.0819
-36.3501
-35.4989
-33.8323
-32.7434
-30.9573
-29.5699
-27.3735
-25.6243
-23.31
-21.659
-20.8663
-17.1982
-20.7728
-14.9051
-41.3602
-41.8679
-39.6375
-39.1363
-37.2053
-36.1485
-34.2224
-33.2141
-31.3731
-30.1099
-28.1397
-26.5236
-24.0156
-21.9276
-19.2168
-17.3635
-15.7269
-11.4838
-13.5606
-4.89512
-40.1625
-40.7268
-38.1375
-37.5372
-35.3717
-34.1268
-32.0278
-30.8749
-28.8839
-27.4525
-25.3101
-23.4789
-20.7089
-18.3339
-15.2351
-13.0651
-10.5428
-5.69621
-6.27936
5.18777
-38.9829
-39.7581
-36.7886
-36.0171
-33.7335
-32.239
-29.9782
-28.6983
-26.5635
-24.9901
-22.7012
-20.6556
-17.5917
-14.8749
-11.4254
-8.97516
-5.58274
-0.315361
0.601523
15.4803
-38.4058
-39.2183
-35.7538
-34.6547
-32.2956
-30.4722
-28.0259
-26.6178
-24.3455
-22.6357
-20.1956
-17.9189
-14.5823
-11.5155
-7.74816
-4.89409
-0.518607
5.4846
9.31958
30.5855
-36.779
-38.4501
-34.329
-33.3365
-30.1255
-28.1728
-25.465
-23.8654
-21.3671
-19.3735
-16.6398
-13.9891
-10.1959
-6.59352
-2.40178
0.714006
6.2426
13.2209
20.9595
48.0304
-18.5036
-24.1868
-18.4099
-17.9421
-12.6429
-12.0563
-9.00695
-6.80038
-3.56472
-0.17019
4.19754
8.63655
13.8338
18.5721
25.3689
31.8365
42.384
50.5193
66.5608
71.6889
-10.3472
-10.2962
-9.08939
-6.30174
-3.85175
-0.413174
2.90037
6.50634
10.3377
14.4356
18.6926
23.5238
29.1803
36.159
44.5721
53.8486
65.2961
76.5626
95.169
107.792
10.1071
10.3583
11.2671
12.9905
15.0963
17.1137
19.6926
22.4064
25.7732
29.4286
33.8633
38.9313
44.915
51.4274
58.5695
66.32
75.259
84.8208
96.4071
108.89
16.5022
16.7822
17.8522
20.1536
22.4901
25.5312
28.5669
32.272
36.0446
40.4577
45.0519
50.161
55.3761
61.3952
67.8622
75.4755
83.0056
91.9693
100.167
108.29
28.8006
29.1169
30.4129
32.4334
34.3507
36.6626
39.1885
41.9267
45.0547
48.3573
52.0907
56.0496
60.4314
65.1524
70.0756
75.4307
80.6934
86.6832
92.6439
99.6445
33.9127
34.2243
35.4355
37.4403
39.7005
42.2444
44.9825
47.9734
51.1541
54.5666
58.1551
61.9816
65.936
70.1584
74.4482
79.0529
83.4728
88.4644
91.8514
96.1673
40.5308
40.9015
42.4302
44.5185
46.6934
48.8834
51.2694
53.6057
56.255
58.8101
61.6879
64.4858
67.5394
70.5571
73.7065
76.8558
79.9557
83.2176
86.4238
89.6725
44.8418
45.4453
46.8437
48.9087
51.055
53.1742
55.5919
57.8696
60.412
62.852
65.478
68.0596
70.726
73.3975
76.0211
78.6905
81.5199
84.1269
85.8495
88.1106
48.9841
49.6765
51.5681
53.496
55.8167
57.7012
59.9365
61.7743
63.955
65.8167
67.9582
69.8577
71.9562
73.8778
75.9044
77.8086
79.3551
81.0123
82.8104
84.481
52.6895
53.3373
55.7241
57.4882
59.9676
61.6758
63.8371
65.5003
67.473
69.1283
70.9623
72.6093
74.3195
75.9339
77.4878
79.1296
80.7336
82.1113
83.1615
84.2431
57.9289
58.5596
61.3375
62.619
65.0284
66.347
68.1961
69.4349
71.0238
72.2137
73.6635
74.8169
76.1758
77.2958
78.5722
79.5611
80.3992
81.2289
82.0882
83.0538
63.6735
63.6349
67.2732
68.1139
70.093
71.1139
72.5041
73.4714
74.638
75.5444
76.5749
77.4333
78.3796
79.1813
80.0602
80.8127
81.7236
82.4146
83.0645
83.4519
75.2327
73.6466
75.2146
75.4196
76.4887
76.9423
77.6259
78.028
78.6411
79.0386
79.6662
80.0827
80.714
81.1584
81.7675
82.1831
82.6291
82.9541
83.3297
83.6482
87.8374
85.9449
84.1855
84.1079
83.1722
83.0692
82.6762
82.5626
82.5068
82.4705
82.6151
82.6694
82.9014
83.0292
83.3067
83.4602
83.7756
83.9618
84.2838
84.4276
94.9112
94.3956
91.0583
90.0076
88.5618
87.5368
86.9212
86.1371
85.9133
85.3731
85.3226
85.012
85.0498
84.8929
84.9821
84.9441
85.0441
85.0467
85.1472
85.1544
100.79
98.6864
96.4642
94.1325
92.8304
91.1931
90.3466
89.214
88.649
87.8842
87.509
86.995
86.7742
86.4532
86.3206
86.1246
86.0586
85.9457
85.9433