/*--------------------------------*- C++ -*----------------------------------*\
  =========                 |
  \\      /  F ield         | OpenFOAM: The Open Source CFD Toolbox
   \\    /   O peration     | Website:  https://openfoam.org
    \\  /    A nd           | Version:  9
     \\/     M anipulation  |
\*---------------------------------------------------------------------------*/
FoamFile
{
    format      ascii;
    class       surfaceScalarField;
    location    "2";
    object      phi;
}
// * * * * * * * * * * * * * * * * * * * * * * * * * * * * * * * * * * * * * //

dimensions      [0 3 -1 0 0 0 0];

internalField   nonuniform List<scalar> 
92080
(
0.00129268
-0.429644
0.428351
-0.0155178
-0.878096
0.894906
-0.0508473
-0.96693
1.00226
-0.0872257
-0.952595
0.988973
-0.122523
-0.937621
0.972918
-0.157415
-0.923099
0.95799
-0.191661
-0.910845
0.945091
-0.225686
-0.897205
0.931231
-0.2591
-0.88491
0.918324
-0.292264
-0.873041
0.906205
-0.325577
-0.86317
0.896484
-0.358852
-0.854394
0.887669
-0.391598
-0.846551
0.879298
-0.423711
-0.838028
0.87014
-0.456071
-0.830538
0.862899
-0.488403
-0.823655
0.855988
-0.519979
-0.817218
0.848793
-0.550762
-0.810067
0.84085
-0.58052
-0.802463
0.83222
-0.797213
0.824973
-0.608279
-0.000600263
-0.429043
-0.021044
-0.857652
-0.0572363
-0.930738
-0.0944172
-0.915414
-0.131123
-0.900915
-0.167856
-0.886365
-0.204028
-0.874673
-0.239377
-0.861856
-0.274657
-0.84963
-0.309916
-0.837782
-0.345101
-0.827985
-0.38011
-0.819385
-0.414718
-0.811943
-0.449042
-0.803705
-0.482792
-0.796788
-0.515747
-0.790701
-0.548057
-0.784909
-0.579131
-0.778992
-0.608524
-0.773069
-0.768259
-0.637478
-0.0031267
-0.425917
-0.0277255
-0.833053
-0.0681253
-0.890338
-0.10875
-0.874789
-0.148166
-0.8615
-0.186922
-0.84761
-0.225184
-0.836411
-0.26302
-0.82402
-0.299978
-0.812672
-0.336559
-0.801201
-0.373253
-0.79129
-0.409921
-0.782718
-0.446067
-0.775797
-0.481544
-0.768228
-0.517532
-0.760799
-0.55357
-0.754662
-0.588744
-0.749735
-0.6229
-0.744836
-0.656312
-0.739657
-0.734907
-0.689665
-0.00552932
-0.420387
-0.0341623
-0.80442
-0.0745245
-0.849976
-0.115179
-0.834134
-0.155745
-0.820934
-0.196266
-0.807088
-0.236034
-0.796643
-0.274873
-0.785181
-0.313531
-0.774015
-0.35189
-0.762842
-0.390092
-0.753089
-0.428344
-0.744466
-0.466402
-0.737738
-0.503753
-0.730877
-0.540265
-0.724288
-0.577197
-0.71773
-0.614907
-0.712025
-0.651931
-0.707812
-0.687556
-0.704032
-0.699209
-0.723253
-0.00496828
-0.415419
-0.0400234
-0.769365
-0.0835781
-0.806421
-0.126988
-0.790725
-0.169469
-0.778452
-0.21173
-0.764828
-0.253926
-0.754447
-0.295527
-0.74358
-0.335929
-0.733613
-0.375753
-0.723018
-0.415694
-0.713148
-0.455714
-0.704446
-0.495459
-0.697992
-0.534705
-0.69163
-0.573871
-0.685122
-0.611876
-0.679726
-0.649915
-0.673986
-0.68927
-0.668457
-0.727877
-0.665425
-0.66174
-0.765347
-0.000781335
-0.414638
-0.038643
-0.731504
-0.0842683
-0.760796
-0.129895
-0.745099
-0.174817
-0.73353
-0.219051
-0.720593
-0.262415
-0.711084
-0.304939
-0.701057
-0.347279
-0.691272
-0.388605
-0.681692
-0.429332
-0.672421
-0.470582
-0.663196
-0.512127
-0.656448
-0.552725
-0.651032
-0.592969
-0.644877
-0.633795
-0.638901
-0.67329
-0.63449
-0.712979
-0.628768
-0.753913
-0.624491
-0.62127
-0.794383
-0.000226728
-0.414411
-0.0415018
-0.690228
-0.0911349
-0.711163
-0.139202
-0.697032
-0.186142
-0.68659
-0.232492
-0.674243
-0.278696
-0.66488
-0.323698
-0.656055
-0.36725
-0.647719
-0.410375
-0.638567
-0.452623
-0.630173
-0.494401
-0.621418
-0.537079
-0.61377
-0.579623
-0.608488
-0.620681
-0.603819
-0.661375
-0.598207
-0.702447
-0.593418
-0.742183
-0.589033
-0.782613
-0.584061
-0.580402
-0.823481
0.00133021
-0.415741
-0.0411994
-0.647699
-0.0926285
-0.659734
-0.142746
-0.646914
-0.191599
-0.637737
-0.239154
-0.626688
-0.285833
-0.618201
-0.332175
-0.609713
-0.377802
-0.602092
-0.421866
-0.594504
-0.4653
-0.586738
-0.507966
-0.578753
-0.550914
-0.570821
-0.595109
-0.564293
-0.639145
-0.559783
-0.681962
-0.55539
-0.72432
-0.55106
-0.766367
-0.546986
-0.807123
-0.543305
-0.538751
-0.848775
-0.000963148
-0.414778
-0.048544
-0.600118
-0.102677
-0.605601
-0.154202
-0.595389
-0.204267
-0.587672
-0.253547
-0.577407
-0.302325
-0.569423
-0.349692
-0.562345
-0.396238
-0.555547
-0.442218
-0.548524
-0.486634
-0.542321
-0.529785
-0.535602
-0.571999
-0.528608
-0.614588
-0.521704
-0.658215
-0.516157
-0.70202
-0.511584
-0.745221
-0.50786
-0.788165
-0.504041
-0.830204
-0.501266
-0.498074
-0.87088
-0.0069446
-0.407834
-0.055142
-0.551921
-0.10875
-0.551993
-0.161072
-0.543067
-0.212106
-0.536637
-0.2615
-0.528014
-0.310253
-0.52067
-0.358997
-0.513601
-0.406621
-0.507923
-0.453222
-0.501923
-0.49983
-0.495712
-0.545175
-0.490257
-0.589361
-0.484422
-0.632741
-0.478324
-0.676078
-0.47282
-0.720196
-0.467466
-0.764622
-0.463434
-0.809187
-0.459475
-0.854023
-0.45643
-0.453722
-0.898376
-0.0174332
-0.3904
-0.0681552
-0.501198
-0.122041
-0.498107
-0.174629
-0.49048
-0.225906
-0.485359
-0.276873
-0.477047
-0.326962
-0.470581
-0.375801
-0.464762
-0.424726
-0.458999
-0.472122
-0.454527
-0.51815
-0.449684
-0.564044
-0.444364
-0.608533
-0.439932
-0.652257
-0.4346
-0.695103
-0.429974
-0.737474
-0.425095
-0.780245
-0.420662
-0.822891
-0.416829
-0.866092
-0.41323
-0.410372
-0.909441
-0.0247678
-0.365633
-0.0753916
-0.450575
-0.128379
-0.44512
-0.181682
-0.437177
-0.233684
-0.433357
-0.283682
-0.42705
-0.334487
-0.419776
-0.384745
-0.414505
-0.434351
-0.409392
-0.484435
-0.404443
-0.533187
-0.400931
-0.580825
-0.396726
-0.628177
-0.392581
-0.674042
-0.388735
-0.71962
-0.384397
-0.764072
-0.380644
-0.80814
-0.376594
-0.852159
-0.37281
-0.895762
-0.369627
-0.36611
-0.940025
-0.0327659
-0.332867
-0.0859305
-0.39741
-0.13973
-0.39132
-0.192457
-0.38445
-0.245222
-0.380592
-0.296375
-0.375897
-0.345956
-0.370195
-0.395858
-0.364603
-0.445047
-0.360203
-0.493614
-0.355877
-0.54265
-0.351896
-0.590384
-0.348991
-0.637444
-0.345522
-0.683989
-0.342189
-0.729204
-0.339181
-0.774402
-0.335446
-0.818178
-0.332818
-0.862077
-0.328911
-0.90523
-0.326474
-0.322865
-0.948475
-0.038291
-0.294576
-0.0920651
-0.343636
-0.146513
-0.336872
-0.201511
-0.329452
-0.254992
-0.327111
-0.306981
-0.323907
-0.358245
-0.318931
-0.408513
-0.314335
-0.459234
-0.309482
-0.509491
-0.30562
-0.559372
-0.302015
-0.609781
-0.298581
-0.658799
-0.296504
-0.707721
-0.293267
-0.755467
-0.291435
-0.802429
-0.288485
-0.848691
-0.286555
-0.893614
-0.283989
-0.938243
-0.281845
-0.279651
-0.981456
-0.0423006
-0.252275
-0.0971673
-0.288769
-0.150132
-0.283908
-0.204451
-0.275133
-0.260475
-0.271086
-0.313621
-0.270761
-0.364409
-0.268143
-0.413971
-0.264774
-0.462054
-0.261398
-0.510619
-0.257055
-0.558601
-0.254033
-0.607054
-0.250128
-0.655951
-0.247606
-0.704505
-0.244714
-0.753584
-0.242356
-0.801981
-0.240087
-0.850709
-0.237827
-0.898702
-0.235996
-0.946655
-0.233892
-0.232209
-0.994098
-0.0443377
-0.207937
-0.10395
-0.229157
-0.158966
-0.228891
-0.211397
-0.222703
-0.266578
-0.215905
-0.324477
-0.212862
-0.380038
-0.212582
-0.434246
-0.210566
-0.486155
-0.209489
-0.536037
-0.207173
-0.585098
-0.204972
-0.632665
-0.202561
-0.680163
-0.200108
-0.7269
-0.197977
-0.773615
-0.195641
-0.82
-0.193703
-0.866306
-0.19152
-0.912621
-0.189681
-0.958745
-0.187767
-0.18594
-1.00501
-0.0480381
-0.159899
-0.107544
-0.169651
-0.162036
-0.1744
-0.21289
-0.171849
-0.261418
-0.167376
-0.312253
-0.162027
-0.365474
-0.159361
-0.418845
-0.157196
-0.472856
-0.155478
-0.525906
-0.154123
-0.578262
-0.152616
-0.629664
-0.151159
-0.680178
-0.149594
-0.729943
-0.148212
-0.778866
-0.146718
-0.827198
-0.145371
-0.874747
-0.143971
-0.921872
-0.142557
-0.968394
-0.141245
-0.139724
-1.01461
-0.0491356
-0.110764
-0.113987
-0.1048
-0.178186
-0.110201
-0.237543
-0.112492
-0.29174
-0.113179
-0.342036
-0.111731
-0.391891
-0.109506
-0.441404
-0.107684
-0.49101
-0.105872
-0.540741
-0.104392
-0.590319
-0.103038
-0.639695
-0.101783
-0.688709
-0.10058
-0.737514
-0.099408
-0.785823
-0.0984081
-0.833878
-0.0973157
-0.881402
-0.0964469
-0.928531
-0.095428
-0.975219
-0.0945571
-0.0935947
-1.02135
-0.0502522
-0.0605114
-0.0975872
-0.0574649
-0.153285
-0.0545025
-0.210378
-0.0553994
-0.269119
-0.0544387
-0.325736
-0.0551132
-0.381306
-0.0539365
-0.435102
-0.0538868
-0.48818
-0.0527946
-0.539989
-0.0525831
-0.591224
-0.0518019
-0.641535
-0.0514717
-0.691248
-0.0508676
-0.740241
-0.0504156
-0.788788
-0.0498608
-0.83671
-0.0493932
-0.884304
-0.0488535
-0.931299
-0.0484322
-0.977939
-0.0479178
-0.0474989
-1.02403
-0.0786178
0.0181064
-0.130515
-0.00556745
-0.182867
-0.00215119
-0.232332
-0.00593376
-0.284431
-0.0023398
-0.335869
-0.00367561
-0.388268
-0.00153739
-0.439766
-0.00238873
-0.491368
-0.00119246
-0.542166
-0.00178506
-0.592963
-0.00100449
-0.642968
-0.00146729
-0.692881
-0.000954721
-0.741947
-0.00134906
-0.790802
-0.00100548
-0.83885
-0.00134611
-0.886595
-0.00110791
-0.933619
-0.00140851
-0.980293
-0.00124364
-1.02619
-0.00160321
-0.0124856
0.045792
-0.0333064
0.00219518
0.0354729
-0.0501536
0.0737074
-0.0594145
-0.0120977
0.249966
-0.302759
0.1265
0.483535
-0.653153
0.419583
0.662439
-0.907426
0.728523
0.755576
-1.03458
0.941444
0.798332
-1.08024
1.03748
0.821962
-1.09454
1.07091
0.837219
-1.09748
1.08223
0.848295
-1.09677
1.08569
0.855944
-1.09305
1.0854
0.863394
-1.09058
1.08313
0.87219
-1.08886
1.08007
0.881531
-1.08901
1.07966
0.88928
-1.08693
1.07918
0.896159
-1.08652
1.07964
0.903339
-1.08484
1.07766
0.910914
-1.08522
1.07764
-1.08276
0.917063
1.07661
-0.00431027
0.0501022
0.0350251
-0.00386248
0.143005
-0.167395
0.360732
-0.520486
0.548561
-0.840981
0.657784
-1.01665
0.707784
-1.08458
0.732113
-1.10457
0.745917
-1.10834
0.755597
-1.10716
0.76214
-1.10331
0.768211
-1.09912
0.775508
-1.09788
0.78226
-1.09561
0.787697
-1.09444
0.79305
-1.09228
0.798766
-1.09224
0.804109
-1.09018
0.808177
-1.08929
-1.08605
0.811469
0.00800919
0.0420931
0.0668005
-0.0626538
0.223046
-0.32364
0.417865
-0.715304
0.545501
-0.968617
0.607892
-1.07904
0.634888
-1.11158
0.648181
-1.11786
0.656972
-1.11713
0.663014
-1.1132
0.668033
-1.10833
0.674195
-1.10529
0.679721
-1.10341
0.684704
-1.1006
0.689848
-1.09959
0.695195
-1.09763
0.69984
-1.09688
0.702781
-1.09312
0.705425
-1.09193
-1.08864
0.708018
0.0280707
0.0140223
0.103549
-0.138132
0.282921
-0.503011
0.433714
-0.866097
0.517048
-1.05195
0.550276
-1.11227
0.564866
-1.12617
0.573219
-1.12622
0.57913
-1.12304
0.582775
-1.11685
0.587078
-1.11264
0.59129
-1.1095
0.59515
-1.10727
0.599011
-1.10446
0.602303
-1.10288
0.604804
-1.10013
0.606167
-1.09824
0.607516
-1.09447
0.60897
-1.09338
-1.08907
0.609399
0.0416086
-0.0275862
0.132994
-0.229517
0.294493
-0.664511
0.403317
-0.974922
0.453129
-1.10176
0.473245
-1.13238
0.482887
-1.13581
0.48917
-1.1325
0.492105
-1.12598
0.495412
-1.12016
0.498914
-1.11614
0.502307
-1.11289
0.505022
-1.10998
0.507008
-1.10645
0.508524
-1.1044
0.509736
-1.10135
0.510379
-1.09889
0.510998
-1.09509
0.510906
-1.09329
-1.08779
0.509619
0.0376382
-0.0652244
0.156944
-0.348823
0.292031
-0.799599
0.368689
-1.05158
0.398038
-1.13111
0.409214
-1.14356
0.415104
-1.1417
0.417689
-1.13508
0.419882
-1.12817
0.422182
-1.12246
0.423995
-1.11795
0.4251
-1.114
0.425416
-1.1103
0.425655
-1.10668
0.425473
-1.10421
0.424516
-1.10039
0.422789
-1.09716
0.42079
-1.09309
0.418129
-1.09063
-1.08426
0.414603
0.0346564
-0.0998809
0.15527
-0.469437
0.25709
-0.901419
0.308226
-1.10271
0.325583
-1.14847
0.332878
-1.15086
0.336869
-1.14569
0.33888
-1.13709
0.340548
-1.12984
0.341331
-1.12324
0.341642
-1.11826
0.341496
-1.11385
0.34088
-1.10968
0.339653
-1.10546
0.337627
-1.10219
0.335084
-1.09784
0.332115
-1.09419
0.329036
-1.09001
0.325133
-1.08673
-1.07938
0.320252
0.039512
-0.139393
0.144597
-0.574522
0.226254
-0.983076
0.260306
-1.13677
0.271219
-1.15938
0.276532
-1.15617
0.277534
-1.14669
0.277821
-1.13738
0.277249
-1.12927
0.276243
-1.12223
0.274661
-1.11668
0.272264
-1.11145
0.268959
-1.10638
0.265222
-1.10172
0.26105
-1.09802
0.256334
-1.09313
0.251095
-1.08895
0.245506
-1.08442
0.239142
-1.08036
-1.07249
0.232255
0.0436422
-0.183035
0.130802
-0.661681
0.189076
-1.04135
0.208163
-1.15585
0.212874
-1.16409
0.212962
-1.15626
0.211837
-1.14557
0.210143
-1.13569
0.207655
-1.12678
0.204399
-1.11898
0.200498
-1.11278
0.195996
-1.10695
0.191099
-1.10148
0.185772
-1.09639
0.179765
-1.09201
0.173254
-1.08662
0.166312
-1.08201
0.159103
-1.07721
0.151251
-1.07251
-1.06415
0.142906
0.0452954
-0.22833
0.114265
-0.73065
0.156886
-1.08397
0.167043
-1.16601
0.168303
-1.16535
0.165925
-1.15388
0.162927
-1.14257
0.158661
-1.13142
0.153578
-1.1217
0.147934
-1.11333
0.141713
-1.10656
0.134807
-1.10004
0.127148
-1.09382
0.118919
-1.08817
0.110253
-1.08334
0.101169
-1.07753
0.0916925
-1.07254
0.0819186
-1.06744
0.0715632
-1.06215
-1.05356
0.0609786
0.0418461
-0.270177
0.0980608
-0.786865
0.124844
-1.11075
0.126237
-1.1674
0.121855
-1.16097
0.115528
-1.14755
0.108764
-1.1358
0.101414
-1.12407
0.0934861
-1.11377
0.085041
-1.10489
0.0760737
-1.09759
0.0665887
-1.09056
0.0567351
-1.08397
0.0465375
-1.07797
0.0358722
-1.07268
0.0247974
-1.06646
0.013295
-1.06103
0.00147492
-1.05562
-0.0105631
-1.05012
-1.04124
-0.0228894
0.0362654
-0.306442
0.0820042
-0.832604
0.0972627
-1.12601
0.093678
-1.16382
0.0859056
-1.1532
0.0775929
-1.13924
0.0685009
-1.12671
0.0586236
-1.11419
0.0481115
-1.10326
0.0370208
-1.0938
0.0254209
-1.08599
0.0132638
-1.0784
0.000547736
-1.07125
-0.0126718
-1.06475
-0.0262647
-1.05909
-0.0402153
-1.05251
-0.0545202
-1.04673
-0.0688914
-1.04125
-0.0835122
-1.0355
-1.02669
-0.0980607
0.0285807
-0.335023
0.062031
-0.866054
0.0684153
-1.1324
0.0594762
-1.15488
0.047659
-1.14138
0.0355685
-1.12715
0.0228837
-1.11403
0.00964672
-1.10096
-0.00404772
-1.08956
-0.0181012
-1.07974
-0.0325215
-1.07157
-0.0472695
-1.06365
-0.0623579
-1.05616
-0.0777905
-1.04932
-0.0934794
-1.0434
-0.109467
-1.03652
-0.125826
-1.03037
-0.142419
-1.02466
-0.158961
-1.01895
-1.01017
-0.17548
0.0261071
-0.36113
0.0507181
-0.890665
0.0484328
-1.13011
0.0359714
-1.14242
0.0212509
-1.12666
0.00634298
-1.11224
-0.00905496
-1.09863
-0.0248931
-1.08512
-0.0411808
-1.07327
-0.057988
-1.06294
-0.0751863
-1.05437
-0.0928401
-1.046
-0.110811
-1.03819
-0.12911
-1.03102
-0.147698
-1.02481
-0.166524
-1.01769
-0.185617
-1.01128
-0.20481
-1.00546
-0.223601
-1.00016
-0.991526
-0.242244
0.0188088
-0.379938
0.0337071
-0.905564
0.0245833
-1.12099
0.0071683
-1.125
-0.0109924
-1.1085
-0.0293663
-1.09387
-0.0479472
-1.08005
-0.0670185
-1.06605
-0.0864357
-1.05386
-0.106121
-1.04325
-0.126018
-1.03447
-0.146049
-1.02597
-0.166469
-1.01777
-0.187245
-1.01024
-0.208029
-1.00402
-0.228918
-0.996804
-0.250148
-0.990047
-0.271666
-0.983945
-0.292689
-0.97914
-0.970814
-0.313401
0.016871
-0.39681
0.0265964
-0.915289
0.0118487
-1.10624
-0.0084544
-1.1047
-0.029474
-1.08748
-0.0508556
-1.07248
-0.0724691
-1.05844
-0.094224
-1.04429
-0.116276
-1.0318
-0.138761
-1.02077
-0.16154
-1.01169
-0.184577
-1.00293
-0.2076
-0.994748
-0.230909
-0.986932
-0.254514
-0.98042
-0.278186
-0.973132
-0.302015
-0.966218
-0.326096
-0.959864
-0.349836
-0.9554
-0.9478
-0.37285
0.0118659
-0.408675
0.014248
-0.917671
-0.0061104
-1.08588
-0.0314168
-1.07939
-0.0562985
-1.0626
-0.0809957
-1.04779
-0.105456
-1.03398
-0.130203
-1.01955
-0.155124
-1.00688
-0.180215
-0.995676
-0.205375
-0.986536
-0.230615
-0.977691
-0.256264
-0.9691
-0.282117
-0.961079
-0.307793
-0.954744
-0.33345
-0.947476
-0.359353
-0.940315
-0.385664
-0.933553
-0.411877
-0.929187
-0.922564
-0.437114
0.00951646
-0.418192
0.00698043
-0.915135
-0.0167467
-1.06215
-0.0434089
-1.05273
-0.0704771
-1.03553
-0.0977399
-1.02052
-0.124919
-1.0068
-0.151947
-0.992518
-0.179153
-0.979678
-0.206812
-0.968016
-0.234749
-0.958599
-0.262652
-0.949787
-0.290353
-0.941399
-0.318554
-0.932878
-0.347131
-0.926166
-0.375521
-0.919085
-0.40385
-0.911986
-0.432599
-0.904804
-0.462115
-0.899672
-0.89378
-0.490898
0.00595558
-0.424147
-0.00172061
-0.907459
-0.0310521
-1.03282
-0.0622941
-1.02149
-0.092676
-1.00515
-0.12292
-0.99028
-0.15267
-0.977046
-0.182533
-0.962655
-0.212339
-0.949872
-0.242157
-0.938199
-0.272096
-0.92866
-0.302204
-0.919679
-0.332488
-0.911116
-0.362769
-0.902597
-0.393114
-0.895821
-0.423613
-0.888587
-0.4543
-0.881299
-0.485176
-0.873928
-0.517438
-0.867409
-0.862295
-0.548924
0.0042036
-0.0083491
-0.038913
-0.0714301
-0.10366
-0.13595
-0.167906
-0.199329
-0.230878
-0.262871
-0.295048
-0.327058
-0.358877
-0.391333
-0.424255
-0.456854
-0.48936
-0.522437
-0.557626
-0.594948
0.840515
-9.57758
9.65413
0.779013
-9.45884
9.52034
0.716136
-9.48453
9.5474
0.656573
-9.47975
9.53932
0.598114
-9.49503
9.55349
0.543484
-9.51995
9.57458
0.493078
-9.52654
9.57695
0.445949
-9.55635
9.60348
0.400838
-9.58019
9.6253
0.358423
-9.59836
9.64078
0.319133
-9.61546
9.65475
0.282568
-9.62306
9.65962
0.249039
-9.63349
9.66702
0.218335
-9.63998
9.67068
0.190217
-9.64195
9.67007
0.163838
-9.61804
9.64442
0.141022
-9.573
9.59582
0.108015
-9.05222
9.08522
0.054873
-7.37599
7.42913
-3.98625
4.04112
0.735435
-9.50155
0.679025
-9.40243
0.62044
-9.42594
0.565861
-9.42517
0.512634
-9.4418
0.460825
-9.46814
0.412595
-9.47832
0.369173
-9.51293
0.329889
-9.54091
0.293875
-9.56235
0.260998
-9.58258
0.23092
-9.59298
0.204367
-9.60694
0.18058
-9.61619
0.159639
-9.62101
0.141066
-9.59947
0.124947
-9.55688
0.0974442
-9.02471
0.0509773
-7.32952
-3.93527
0.64017
-9.4337
0.582859
-9.34512
0.524624
-9.36771
0.474598
-9.37515
0.426039
-9.39324
0.382271
-9.42437
0.343636
-9.43968
0.307615
-9.47691
0.274137
-9.50743
0.243471
-9.53168
0.215941
-9.55505
0.19119
-9.56823
0.169503
-9.58525
0.150585
-9.59727
0.134386
-9.60481
0.120059
-9.58514
0.109099
-9.54592
0.0888585
-9.00447
0.0488072
-7.28947
-3.88646
0.537895
-9.3622
0.483451
-9.29068
0.429619
-9.31387
0.385095
-9.33062
0.341948
-9.3501
0.301217
-9.38364
0.264624
-9.40309
0.232055
-9.44434
0.204207
-9.47958
0.179776
-9.50725
0.158512
-9.53379
0.140079
-9.5498
0.125153
-9.57033
0.113012
-9.58513
0.10389
-9.59569
0.0972842
-9.57854
0.0930152
-9.54165
0.0785322
-8.98999
0.0452002
-7.25614
-3.84126
0.443611
-9.29619
0.388799
-9.23586
0.336065
-9.26114
0.29626
-9.29082
0.257784
-9.31162
0.224504
-9.35036
0.196982
-9.37557
0.171596
-9.41895
0.149424
-9.45741
0.130194
-9.48802
0.114126
-9.51772
0.1009
-9.53657
0.0907572
-9.56018
0.0833574
-9.57773
0.0788611
-9.59119
0.0763898
-9.57606
0.0772248
-9.54249
0.0699862
-8.98275
0.0430692
-7.22922
-3.79819
0.345405
-9.22699
0.292504
-9.18296
0.244266
-9.2129
0.209133
-9.25569
0.175619
-9.2781
0.145303
-9.32005
0.119716
-9.34998
0.0976583
-9.3969
0.0808755
-9.44062
0.0676808
-9.47482
0.0577041
-9.50775
0.0506131
-9.52948
0.0469967
-9.55657
0.0461998
-9.57693
0.0486345
-9.59363
0.0537497
-9.58118
0.0612153
-9.54995
0.0599057
-8.98144
0.0396858
-7.209
-3.75851
0.252316
-9.15906
0.200022
-9.13067
0.153724
-9.1666
0.123084
-9.22505
0.0942679
-9.24929
0.0708813
-9.29666
0.0537723
-9.33287
0.0386432
-9.38177
0.0273598
-9.42934
0.019206
-9.46667
0.0142669
-9.50281
0.0122176
-9.52743
0.0132628
-9.55761
0.0170472
-9.58072
0.0239576
-9.60054
0.0330775
-9.5903
0.0455801
-9.56246
0.0514473
-8.98731
0.0375782
-7.19513
-3.72093
0.159377
-9.08618
0.108344
-9.07963
0.0660537
-9.12431
0.0387015
-9.19769
0.0140288
-9.22462
-0.00641532
-9.27622
-0.0215868
-9.3177
-0.0333281
-9.37003
-0.0394384
-9.42323
-0.0417952
-9.46431
-0.0408558
-9.50375
-0.0369664
-9.53132
-0.0296482
-9.56493
-0.0194581
-9.59091
-0.00581243
-9.61419
0.010699
-9.60681
0.0297163
-9.58147
0.0415903
-8.99918
0.034368
-7.18791
-3.68656
0.0700867
-9.01336
0.0201317
-9.02968
-0.020683
-9.0835
-0.0441689
-9.17421
-0.0641039
-9.20468
-0.0781655
-9.26216
-0.0854317
-9.31043
-0.0905473
-9.36491
-0.0913954
-9.42238
-0.0888897
-9.46682
-0.0830919
-9.50954
-0.0743469
-9.54007
-0.0625426
-9.57674
-0.0479413
-9.60551
-0.0300288
-9.6321
-0.00965212
-9.62719
0.0143178
-9.60544
0.0332368
-9.0181
0.0323232
-7.18699
-3.65424
-0.0175536
-8.93483
-0.0668225
-8.98041
-0.103812
-9.04651
-0.125591
-9.15243
-0.141743
-9.18853
-0.153147
-9.25075
-0.158559
-9.30502
-0.16019
-9.36328
-0.156068
-9.4265
-0.14804
-9.47485
-0.136599
-9.52098
-0.122149
-9.55452
-0.104329
-9.59456
-0.0835642
-9.62627
-0.0591899
-9.65647
-0.0316529
-9.65473
-0.00129662
-9.6358
0.0236058
-9.043
0.0291921
-7.19258
-3.62504
-0.100982
-8.85673
-0.150856
-8.93054
-0.186126
-9.01124
-0.205035
-9.13352
-0.216821
-9.17674
-0.222042
-9.24553
-0.220054
-9.30701
-0.215343
-9.36799
-0.206195
-9.43565
-0.193503
-9.48754
-0.177402
-9.53709
-0.158309
-9.57361
-0.136186
-9.61668
-0.111231
-9.65123
-0.0828233
-9.68488
-0.0516015
-9.68595
-0.0164126
-9.67099
0.0153164
-9.07473
0.0271533
-7.20442
-3.59789
-0.181864
-8.77293
-0.232066
-8.88033
-0.265226
-8.97808
-0.282646
-9.1161
-0.291037
-9.16835
-0.29408
-9.24249
-0.290484
-9.3106
-0.28228
-9.3762
-0.26838
-9.44955
-0.25045
-9.50547
-0.228974
-9.55856
-0.204436
-9.59815
-0.176587
-9.64453
-0.145747
-9.68207
-0.111194
-9.71943
-0.073134
-9.72401
-0.0317454
-9.71238
0.00581174
-9.11229
0.0241412
-7.22275
-3.57375
-0.261686
-8.68672
-0.311314
-8.83071
-0.343307
-8.94609
-0.358601
-9.10081
-0.362919
-9.16404
-0.359805
-9.2456
-0.349241
-9.32117
-0.335091
-9.39035
-0.316431
-9.46821
-0.294033
-9.52787
-0.26812
-9.58448
-0.239167
-9.6271
-0.20722
-9.67647
-0.172437
-9.71685
-0.134114
-9.75776
-0.0925889
-9.76553
-0.046495
-9.75847
-0.00248284
-9.1563
0.0221172
-7.24735
-3.55163
-0.337288
-8.59168
-0.387495
-8.7805
-0.418098
-8.91548
-0.431803
-9.0871
-0.433128
-9.16271
-0.428565
-9.25016
-0.416584
-9.33315
-0.398966
-9.40797
-0.375783
-9.49139
-0.348436
-9.55521
-0.317443
-9.61547
-0.283331
-9.66121
-0.245978
-9.71383
-0.205629
-9.7572
-0.161519
-9.80187
-0.113538
-9.81351
-0.0614861
-9.81052
-0.011723
-9.20606
0.0192137
-7.27828
-3.53242
-0.412334
-8.49275
-0.462334
-8.7305
-0.491943
-8.88587
-0.504195
-9.07485
-0.501423
-9.16548
-0.490542
-9.26104
-0.472134
-9.35155
-0.449152
-9.43095
-0.42153
-9.51902
-0.389912
-9.58683
-0.354718
-9.65066
-0.316436
-9.69949
-0.275206
-9.75506
-0.231191
-9.80122
-0.183598
-9.84946
-0.132411
-9.8647
-0.0759145
-9.86702
-0.0199763
-9.262
0.0171204
-7.31538
-3.5153
-0.481956
-8.38364
-0.5336
-8.67886
-0.562072
-8.8574
-0.572512
-9.06441
-0.56755
-9.17044
-0.555889
-9.27271
-0.536023
-9.37142
-0.509593
-9.45738
-0.477701
-9.55091
-0.441443
-9.62309
-0.401481
-9.69063
-0.358356
-9.74262
-0.31207
-9.80134
-0.262848
-9.85044
-0.209868
-9.90244
-0.152665
-9.9219
-0.0905946
-9.92909
-0.0291066
-9.32349
0.0144501
-7.35894
-3.50085
-0.552744
-8.26801
-0.604209
-8.62739
-0.631519
-8.83009
-0.640829
-9.0551
-0.631406
-9.17987
-0.613378
-9.29073
-0.587869
-9.39693
-0.556784
-9.48846
-0.520812
-9.58688
-0.48052
-9.66338
-0.436615
-9.73453
-0.389585
-9.78965
-0.339669
-9.85126
-0.287088
-9.90302
-0.230944
-9.95858
-0.170801
-9.98205
-0.104665
-9.99522
-0.0374171
-9.39074
0.012438
-7.40879
-3.48841
-0.619802
-8.13911
-0.672537
-8.57466
-0.697454
-8.80517
-0.704725
-9.04783
-0.694268
-9.19032
-0.675759
-9.30924
-0.648469
-9.42422
-0.613895
-9.52304
-0.573827
-9.62695
-0.529133
-9.70808
-0.480717
-9.78295
-0.429134
-9.84123
-0.374493
-9.9059
-0.317068
-9.96044
-0.255935
-10.0197
-0.190244
-10.0477
-0.118801
-10.0667
-0.0461817
-9.46336
0.0100379
-7.46501
-3.47837
-0.677252
-8.01078
-0.73769
-8.51422
-0.76257
-8.78029
-0.768741
-9.04166
-0.753592
-9.20547
-0.729058
-9.33378
-0.697034
-9.45624
-0.65851
-9.56156
-0.614588
-9.67087
-0.566032
-9.75663
-0.513865
-9.83511
-0.458586
-9.89651
-0.400528
-9.96396
-0.340064
-10.0209
-0.276039
-10.0837
-0.207701
-10.1161
-0.132754
-10.1416
-0.0547874
-9.54133
0.00813968
-7.52794
-3.47023
-0.727901
-7.87783
-0.796275
-8.44584
-0.818339
-8.75823
-0.82368
-9.03632
-0.809267
-9.21989
-0.78406
-9.35898
-0.750746
-9.48956
-0.709354
-9.60295
-0.662221
-9.718
-0.609822
-9.80903
-0.553942
-9.89099
-0.494566
-9.95589
-0.432597
-10.0259
-0.367634
-10.0859
-0.299622
-10.1518
-0.225706
-10.19
-0.146916
-10.2204
-0.0630921
-9.62515
0.00540736
-7.59644
-3.46483
8.00286
-7.50336
-8.37733
7.35785
-7.80084
6.77772
-8.1781
6.16483
-8.42343
5.61681
-8.67186
5.1164
-8.85858
4.66132
-9.03447
4.24248
-9.18411
3.84744
-9.32296
3.47654
-9.43813
3.12046
-9.53491
2.77867
-9.6141
2.44362
-9.69088
2.11537
-9.75762
1.78086
-9.81724
1.48037
-9.88951
1.15095
-9.89098
0.789389
-9.26359
0.326041
-7.13309
-3.13878
4.70575
-7.41689
-4.79222
4.55739
-7.65247
4.33412
-7.95483
4.09897
-8.18828
3.84299
-8.41589
3.58329
-8.59887
3.31688
-8.76807
3.05117
-8.9184
2.77839
-9.05018
2.50216
-9.16189
2.22788
-9.26063
1.96789
-9.35411
1.71859
-9.44159
1.48301
-9.52204
1.25953
-9.59376
1.04737
-9.67735
0.808848
-9.65245
0.546043
-9.00079
0.177547
-6.76459
-2.96124
3.39698
-7.50624
-3.30762
3.44229
-7.69779
3.41026
-7.9228
3.33572
-8.11374
3.20429
-8.28446
3.04988
-8.44446
2.87239
-8.59058
2.68245
-8.72846
2.47789
-8.84562
2.26846
-8.95247
2.05964
-9.0518
1.85017
-9.14464
1.63591
-9.22733
1.41844
-9.30458
1.19713
-9.37244
0.9637
-9.44392
0.731159
-9.41991
0.501243
-8.77087
0.22355
-6.4869
-2.73769
2.18097
-7.66515
-2.02206
2.28299
-7.79981
2.29927
-7.93907
2.27832
-8.09279
2.22402
-8.23015
2.14566
-8.3661
2.0426
-8.48753
1.91596
-8.60182
1.77548
-8.70514
1.6266
-8.80359
1.47146
-8.89666
1.31158
-8.98476
1.1489
-9.06465
0.987257
-9.14294
0.823836
-9.20902
0.662114
-9.28219
0.507476
-9.26527
0.359384
-8.62278
0.162549
-6.29007
-2.57514
1.55364
-7.7998
-1.41899
1.64181
-7.88798
1.70197
-7.99923
1.73389
-8.12471
1.72916
-8.22543
1.69289
-8.32983
1.63262
-8.42727
1.55256
-8.52176
1.45902
-8.6116
1.35276
-8.69733
1.23463
-8.77852
1.1055
-8.85564
0.96789
-8.92703
0.821121
-8.99617
0.670383
-9.05828
0.511141
-9.12295
0.356612
-9.11074
0.247304
-8.51347
0.137645
-6.18041
-2.43749
1.02746
-7.91067
-0.91659
1.12483
-7.98535
1.17924
-8.05364
1.19304
-8.13851
1.18596
-8.21835
1.15869
-8.30255
1.11507
-8.38365
1.056
-8.46269
0.985042
-8.54064
0.903127
-8.61542
0.811814
-8.68721
0.713512
-8.75734
0.611413
-8.82493
0.507873
-8.89263
0.402078
-8.95249
0.294706
-9.01558
0.195509
-9.01155
0.143399
-8.46136
0.101207
-6.13822
-2.33629
0.704409
-7.99233
-0.622747
0.7612
-8.04214
0.800198
-8.09264
0.826688
-8.165
0.841468
-8.23313
0.834945
-8.29603
0.810282
-8.35899
0.770743
-8.42315
0.717605
-8.4875
0.652079
-8.54989
0.578354
-8.61348
0.496131
-8.67512
0.408666
-8.73747
0.314812
-8.79878
0.217548
-8.85522
0.115587
-8.91362
0.0146151
-8.91058
-0.0174196
-8.42933
0.04303
-6.19867
-2.29326
0.478796
-8.04815
-0.422981
0.526283
-8.08963
0.563442
-8.1298
0.580267
-8.18182
0.574622
-8.22749
0.554721
-8.27613
0.524506
-8.32878
0.483225
-8.38187
0.432685
-8.43696
0.375564
-8.49277
0.313103
-8.55102
0.245454
-8.60747
0.171612
-8.66363
0.0916919
-8.71886
0.011966
-8.7755
-0.071021
-8.83063
-0.14495
-8.83665
-0.140586
-8.43369
0.000729327
-6.33998
-2.29253
0.292596
-8.08326
-0.257486
0.316298
-8.11333
0.33242
-8.14592
0.335169
-8.18457
0.331879
-8.2242
0.321066
-8.26531
0.301591
-8.3093
0.271483
-8.35176
0.232988
-8.39846
0.184896
-8.44468
0.127735
-8.49386
0.0619008
-8.54163
-0.00985361
-8.59187
-0.0875274
-8.64118
-0.165917
-8.69711
-0.246354
-8.7502
-0.316499
-8.7665
-0.299767
-8.45042
-0.0885033
-6.55124
-2.38103
0.186647
-8.10234
-0.167567
0.20003
-8.12671
0.207095
-8.15299
0.205383
-8.18286
0.194662
-8.21348
0.172404
-8.24306
0.140855
-8.27775
0.103089
-8.31399
0.0586811
-8.35406
0.0059395
-8.39194
-0.0546798
-8.43324
-0.121501
-8.47481
-0.191261
-8.52211
-0.263634
-8.56881
-0.341553
-8.61919
-0.421426
-8.67032
-0.491106
-8.69682
-0.478316
-8.46321
-0.207829
-6.82173
-2.58886
0.0811205
-8.10782
-0.0756375
0.0807871
-8.12638
0.0750109
-8.14721
0.0607079
-8.16856
0.0389764
-8.19175
0.0113269
-8.21541
-0.0215511
-8.24487
-0.0607081
-8.27484
-0.107743
-8.30702
-0.1609
-8.33878
-0.219092
-8.37505
-0.282876
-8.41103
-0.35326
-8.45173
-0.430921
-8.49115
-0.514989
-8.53512
-0.603924
-8.58139
-0.686048
-8.6147
-0.684335
-8.46493
-0.37465
-7.13142
-2.96351
0.0225316
-8.10606
-0.0242933
0.0149074
-8.11875
0.00332849
-8.13563
-0.0133998
-8.15183
-0.0346433
-8.1705
-0.0630965
-8.18695
-0.0997676
-8.2082
-0.144311
-8.23029
-0.197349
-8.25398
-0.254484
-8.28164
-0.316998
-8.31253
-0.387003
-8.34102
-0.466983
-8.37175
-0.552473
-8.40566
-0.647628
-8.43997
-0.748716
-8.4803
-0.851624
-8.51179
-0.881137
-8.43541
-0.592099
-7.42046
-3.55561
-0.0261519
-8.09553
0.0156196
-0.0407453
-8.10416
-0.0608292
-8.11555
-0.0863472
-8.12631
-0.116774
-8.14008
-0.149589
-8.15414
-0.185396
-8.1724
-0.227723
-8.18797
-0.274944
-8.20676
-0.331895
-8.22469
-0.400318
-8.24411
-0.475529
-8.26581
-0.557793
-8.28948
-0.646867
-8.31658
-0.748499
-8.33833
-0.860678
-8.36812
-0.988418
-8.38405
-1.06996
-8.35387
-0.853137
-7.63728
-4.40875
-0.0554514
-8.08182
0.0417413
-0.0713129
-8.0883
-0.0901069
-8.09675
-0.112225
-8.10419
-0.138636
-8.11366
-0.1701
-8.12267
-0.207079
-8.13542
-0.24894
-8.14611
-0.295515
-8.16019
-0.349372
-8.17084
-0.409198
-8.18429
-0.476537
-8.19847
-0.555221
-8.2108
-0.646491
-8.22531
-0.751783
-8.23304
-0.869411
-8.25049
-1.00425
-8.24921
-1.11267
-8.24545
-0.940188
-7.80976
-5.34893
-0.0676208
-8.06558
0.0513868
-0.0866556
-8.06926
-0.108451
-8.07496
-0.132768
-8.07988
-0.159512
-8.08692
-0.189238
-8.09295
-0.223282
-8.10137
-0.26028
-8.10911
-0.303748
-8.11672
-0.351771
-8.12281
-0.402275
-8.13378
-0.461074
-8.13967
-0.523568
-8.1483
-0.59751
-8.15137
-0.673615
-8.15694
-0.768613
-8.15549
-0.861741
-8.15609
-0.966733
-8.14045
-0.84761
-7.92888
-6.19654
-0.0685714
-8.05147
0.0544638
-0.0842268
-8.05361
-0.101853
-8.05733
-0.121327
-8.0604
-0.143356
-8.06489
-0.167573
-8.06873
-0.195958
-8.07299
-0.229197
-8.07587
-0.264201
-8.08172
-0.30241
-8.0846
-0.346031
-8.09016
-0.396523
-8.08918
-0.449797
-8.09503
-0.511353
-8.08982
-0.573889
-8.0944
-0.650323
-8.07906
-0.724203
-8.08221
-0.812365
-8.05229
-0.743982
-7.99727
-6.94053
-0.06367
-8.03805
0.0502442
-0.0781549
-8.03912
-0.0945036
-8.04098
-0.112249
-8.04266
-0.132168
-8.04497
-0.155219
-8.04568
-0.178397
-8.04981
-0.202914
-8.05135
-0.230423
-8.05421
-0.260979
-8.05405
-0.293921
-8.05722
-0.326505
-8.0566
-0.361686
-8.05985
-0.396656
-8.05485
-0.434832
-8.05622
-0.468526
-8.04537
-0.507226
-8.04351
-0.534557
-8.02496
-0.516843
-8.01498
-7.45737
-0.0475363
-8.02869