/*--------------------------------*- C++ -*----------------------------------*\
  =========                 |
  \\      /  F ield         | OpenFOAM: The Open Source CFD Toolbox
   \\    /   O peration     | Website:  https://openfoam.org
    \\  /    A nd           | Version:  9
     \\/     M anipulation  |
\*---------------------------------------------------------------------------*/
FoamFile
{
    format      ascii;
    class       volVectorField;
    location    "2";
    object      U;
}
// * * * * * * * * * * * * * * * * * * * * * * * * * * * * * * * * * * * * * //

dimensions      [0 1 -1 0 0 0 0];

internalField   nonuniform List<vector> 
46400
(
(7.66391 -7.54259 -2.08222e-19)
(16.118 -15.2706 1.63097e-19)
(17.4747 -17.3865 -5.85007e-20)
(16.9249 -17.4548 -4.7811e-20)
(16.3966 -17.4336 -4.39868e-20)
(15.8145 -17.4678 3.30747e-20)
(15.3423 -17.4692 -4.51605e-20)
(14.8501 -17.4935 3.55475e-20)
(14.4207 -17.533 -4.18019e-20)
(13.981 -17.5323 4.72578e-20)
(13.5927 -17.5883 -5.19604e-20)
(13.2364 -17.6375 0)
(12.9002 -17.7184 3.58892e-19)
(12.558 -17.7426 -4.1194e-19)
(12.228 -17.7854 -5.34878e-19)
(11.9459 -17.8507 -9.63076e-20)
(11.6502 -17.9237 -2.76713e-20)
(11.3771 -17.9275 4.31951e-19)
(11.0953 -17.8959 5.99535e-19)
(10.6845 -18.0945 -5.52443e-19)
(7.9889 -7.17653 0)
(16.27 -14.3829 -2.88621e-20)
(17.4256 -16.1087 0)
(16.8336 -16.2076 7.48825e-20)
(16.3208 -16.2472 -7.43235e-20)
(15.792 -16.3417 1.99519e-20)
(15.3357 -16.4374 0)
(14.842 -16.4749 -3.55456e-20)
(14.3608 -16.5109 4.17992e-20)
(13.9387 -16.568 -4.72553e-20)
(13.5313 -16.6448 5.69506e-19)
(13.1722 -16.7237 3.53989e-20)
(12.8163 -16.8157 -4.76353e-19)
(12.4914 -16.8884 0)
(12.1828 -16.9915 6.53703e-20)
(11.8886 -17.0511 6.77281e-20)
(11.6017 -17.1443 0)
(11.3614 -17.1879 -6.54518e-19)
(11.1247 -17.2401 -1.69979e-19)
(10.7859 -17.4377 6.67016e-19)
(8.28254 -6.78819 1.75554e-20)
(16.3181 -13.4571 -1.1953e-19)
(17.2671 -14.8804 1.05956e-19)
(16.6224 -15.0631 1.93338e-19)
(16.0983 -15.1288 -1.8981e-19)
(15.5047 -15.2353 0)
(15.0298 -15.3354 -6.34228e-19)
(14.5544 -15.4475 5.45989e-19)
(14.1122 -15.5565 -7.17515e-19)
(13.6607 -15.6119 7.10366e-19)
(13.2616 -15.7263 6.82197e-19)
(12.9018 -15.8271 -6.51892e-20)
(12.5683 -15.9684 -5.93105e-19)
(12.224 -16.0435 0)
(11.8978 -16.1473 7.41107e-19)
(11.6283 -16.2757 -7.29873e-19)
(11.3436 -16.4029 0)
(11.094 -16.4736 -1.50695e-20)
(10.829 -16.5526 8.56161e-20)
(10.4816 -16.798 -7.90273e-19)
(8.46032 -6.35278 -1.44331e-19)
(16.2624 -12.501 3.11111e-20)
(16.9711 -13.6185 2.73515e-19)
(16.3223 -13.8146 -2.70092e-19)
(15.8323 -13.9581 -2.41221e-19)
(15.3164 -14.1331 3.29065e-19)
(14.8543 -14.3138 4.55546e-19)
(14.3684 -14.4198 -1.15545e-18)
(13.8972 -14.5487 9.6987e-19)
(13.4819 -14.6662 -9.09267e-20)
(13.0592 -14.7933 0)
(12.6957 -14.9184 9.58513e-20)
(12.3525 -15.0774 -9.7608e-20)
(12.0466 -15.2174 0)
(11.7193 -15.3447 8.7667e-19)
(11.4188 -15.4444 -7.46154e-19)
(11.1531 -15.6167 0)
(10.9296 -15.7501 1.01423e-19)
(10.6968 -15.8748 1.14647e-19)
(10.3311 -16.1355 9.15534e-19)
(8.61087 -5.90313 0)
(16.0681 -11.434 0)
(16.6182 -12.4436 -3.93573e-19)
(15.961 -12.6973 2.72447e-19)
(15.4195 -12.8476 -5.39034e-19)
(14.8325 -13.0129 4.37284e-19)
(14.3687 -13.2177 0)
(13.925 -13.4159 4.87578e-19)
(13.4814 -13.5996 -5.89831e-19)
(13.0337 -13.719 -1.34457e-19)
(12.6348 -13.894 -1.35173e-19)
(12.2673 -14.0412 0)
(11.9364 -14.2381 1.0172e-18)
(11.6116 -14.3824 -1.00129e-18)
(11.3094 -14.5608 0)
(11.0251 -14.7096 -1.12615e-18)
(10.7182 -14.8418 9.93909e-19)
(10.4833 -14.9823 9.96231e-19)
(10.266 -15.1629 -1.08763e-18)
(9.93576 -15.4562 0)
(8.8115 -5.45103 0)
(15.7167 -10.255 0)
(16.1123 -11.1616 0)
(15.4649 -11.4414 -2.92443e-20)
(14.9859 -11.7129 0)
(14.4828 -11.9517 0)
(14.0116 -12.2121 0)
(13.5488 -12.3925 -1.55085e-19)
(13.1123 -12.6256 0)
(12.7182 -12.813 1.34455e-19)
(12.2885 -12.9881 -2.02696e-20)
(11.9225 -13.1549 -1.3239e-18)
(11.5879 -13.3716 9.96715e-19)
(11.2989 -13.5721 -1.30976e-18)
(10.9744 -13.7439 9.87954e-19)
(10.7087 -13.9297 0)
(10.4421 -14.1357 -1.1277e-18)
(10.1727 -14.2497 9.64503e-19)
(9.95593 -14.4395 0)
(9.6382 -14.7717 -1.52389e-19)
(9.039 -5.06189 5.57815e-19)
(15.2622 -9.15758 1.62587e-19)
(15.5084 -10.0032 6.35435e-19)
(14.8695 -10.3298 -6.56069e-19)
(14.3332 -10.6119 -6.62681e-19)
(13.7813 -10.8593 1.31981e-18)
(13.3437 -11.1732 -1.50757e-18)
(12.9392 -11.4513 1.42662e-19)
(12.5071 -11.7038 4.84122e-19)
(12.0998 -11.9085 0)
(11.7295 -12.1554 -1.97289e-20)
(11.3494 -12.3252 -1.8798e-20)
(11.0168 -12.5553 1.53841e-19)
(10.7317 -12.7764 1.2765e-18)
(10.4511 -13.0069 -1.12243e-18)
(10.1571 -13.1663 -1.428e-18)
(9.90481 -13.3891 1.24374e-18)
(9.66985 -13.554 -1.43902e-20)
(9.42961 -13.7055 -1.58114e-19)
(9.14804 -14.053 -1.13491e-18)
(9.28743 -4.64109 -1.86069e-19)
(14.6514 -8.06902 3.19654e-20)
(14.7339 -8.78435 -2.00673e-19)
(14.1618 -9.16617 -7.92004e-19)
(13.7156 -9.56913 5.47337e-19)
(13.2498 -9.87468 0)
(12.7856 -10.2121 1.14515e-18)
(12.3763 -10.4815 -5.52026e-19)
(11.9988 -10.8176 3.75912e-19)
(11.6292 -11.062 1.96337e-19)
(11.2373 -11.3131 -3.72086e-19)
(10.8953 -11.534 9.02899e-19)
(10.5363 -11.7515 1.8886e-19)
(10.2582 -11.9922 -1.07128e-18)
(9.99117 -12.2575 2.99518e-18)
(9.74238 -12.4892 -1.22002e-18)
(9.47183 -12.7063 1.54198e-18)
(9.24885 -12.9072 -1.0091e-18)
(9.01584 -13.0876 3.30015e-19)
(8.71377 -13.3924 1.59418e-18)
(9.49366 -4.24464 9.58282e-19)
(13.9335 -7.08836 -1.97279e-19)
(13.8353 -7.7463 -2.84269e-20)
(13.298 -8.14486 4.31538e-19)
(12.8112 -8.56884 2.02835e-19)
(12.3404 -8.89211 2.25974e-19)
(11.9515 -9.29967 -1.05726e-18)
(11.5838 -9.62776 6.40785e-19)
(11.1985 -9.95656 -1.98428e-19)
(10.8682 -10.2547 -1.96339e-19)
(10.5428 -10.5628 -1.94034e-19)
(10.2085 -10.795 -2.08607e-19)
(9.88659 -11.0462 -3.94016e-19)
(9.57645 -11.2452 1.36453e-18)
(9.32159 -11.5118 -1.90798e-18)
(9.08663 -11.7489 -1.94453e-19)
(8.8679 -12.0182 1.34897e-20)
(8.65811 -12.2205 -1.43241e-18)
(8.47276 -12.4602 1.06852e-18)
(8.21831 -12.7568 -1.7009e-18)
(9.57046 -3.9363 8.63715e-19)
(13.0538 -6.08035 -2.18758e-18)
(12.8375 -6.74043 1.44919e-18)
(12.431 -7.16962 -2.29028e-19)
(12.0565 -7.68731 -2.50885e-19)
(11.6452 -8.04698 9.73557e-19)
(11.2206 -8.44582 -1.1795e-18)
(10.8841 -8.79264 0)
(10.5575 -9.19003 9.12454e-19)
(10.2259 -9.48351 -8.97264e-19)
(9.90837 -9.82309 -6.53862e-19)
(9.62932 -10.1144 8.52444e-19)
(9.31858 -10.396 2.05131e-19)
(9.04298 -10.6403 -8.35663e-19)
(8.75498 -10.886 2.0094e-19)
(8.51715 -11.1266 1.00186e-18)
(8.28323 -11.3929 -1.76799e-18)
(8.08246 -11.6245 1.167e-18)
(7.88972 -11.8734 -1.1504e-20)
(7.66976 -12.216 -1.62445e-18)
(9.38341 -3.55669 1.20058e-18)
(12.1038 -5.25719 -8.10444e-19)
(11.7891 -5.89481 5.41966e-19)
(11.3579 -6.32441 7.18145e-21)
(10.9625 -6.83326 -1.06632e-18)
(10.5969 -7.22838 -1.01435e-18)
(10.2671 -7.69912 1.26074e-18)
(9.93324 -8.05611 -7.41402e-19)
(9.6242 -8.45939 9.83309e-19)
(9.36312 -8.81949 0)
(9.06757 -9.15498 1.55708e-20)
(8.80683 -9.45889 2.24532e-19)
(8.55481 -9.77715 2.34409e-19)
(8.29613 -10.0285 -2.2949e-19)
(8.06754 -10.3126 0)
(7.82548 -10.5316 2.19817e-19)
(7.62075 -10.7972 0)
(7.42181 -11.0118 4.09914e-19)
(7.24542 -11.2541 1.99875e-18)
(7.04802 -11.5678 -1.41056e-20)
(8.97971 -3.10815 6.62777e-19)
(11.0468 -4.43475 -1.4018e-19)
(10.7228 -5.07254 -2.04192e-18)
(10.4141 -5.53358 1.1429e-18)
(10.1273 -6.12318 2.72094e-19)
(9.75891 -6.50644 -2.67892e-19)
(9.39781 -6.96436 -1.0897e-18)
(9.13419 -7.37579 8.12084e-19)
(8.82978 -7.79489 0)
(8.57984 -8.1684 0)
(8.33946 -8.58159 -1.24933e-18)
(8.08703 -8.89813 9.88862e-19)
(7.85299 -9.257 -2.34381e-19)
(7.62639 -9.55146 -7.11766e-19)
(7.39343 -9.85273 6.34105e-21)
(7.19432 -10.1282 1.58658e-18)
(6.96996 -10.3902 -8.86483e-19)
(6.79599 -10.6381 6.49911e-19)
(6.60465 -10.8794 -1.05366e-18)
(6.42098 -11.1895 0)
(8.36943 -2.63012 -5.78177e-19)
(9.97422 -3.74357 9.3556e-19)
(9.59597 -4.39366 1.59832e-19)
(9.19934 -4.83022 1.57062e-19)
(8.91044 -5.40371 0)
(8.67386 -5.87196 1.1771e-18)
(8.35569 -6.33612 -1.15648e-18)
(8.08262 -6.73233 1.44974e-19)
(7.83831 -7.17944 0)
(7.58992 -7.54149 1.08091e-18)
(7.37979 -7.94771 -9.27591e-19)
(7.18949 -8.31161 1.03309e-18)
(6.9758 -8.65736 -1.0167e-18)
(6.79638 -8.98642 9.86485e-19)
(6.6 -9.29879 -8.47846e-19)
(6.41893 -9.5803 -9.41527e-19)
(6.24622 -9.87751 1.84742e-18)
(6.06404 -10.1058 -7.91364e-19)
(5.91696 -10.3802 1.12287e-19)
(5.72222 -10.6517 9.44189e-19)
(7.57896 -2.14151 -4.63115e-19)
(8.74923 -3.07108 5.00663e-19)
(8.43582 -3.74248 -1.59841e-19)
(8.2057 -4.25257 -1.57056e-19)
(7.95551 -4.87323 0)
(7.68853 -5.31908 0)
(7.43079 -5.84098 0)
(7.18483 -6.24906 -2.96412e-19)
(6.9445 -6.70842 -1.15808e-18)
(6.752 -7.11267 2.27019e-18)
(6.52424 -7.52756 -1.24844e-18)
(6.35611 -7.90476 -1.37829e-19)
(6.17918 -8.31007 0)
(6.00365 -8.63356 0)
(5.85093 -9.0129 -2.51604e-19)
(5.68179 -9.2936 0)
(5.53974 -9.63746 9.55481e-19)
(5.38787 -9.8827 -1.17547e-18)
(5.25189 -10.1758 -1.02147e-18)
(5.10682 -10.4547 9.92928e-19)
(6.66102 -1.67198 4.82592e-19)
(7.59 -2.51048 8.74083e-19)
(7.23474 -3.17501 -3.31618e-23)
(6.85359 -3.62418 -1.20072e-21)
(6.67747 -4.27647 1.66208e-19)
(6.54572 -4.80672 -4.83114e-19)
(6.30145 -5.31408 0)
(6.10936 -5.74834 -4.64156e-19)
(5.88364 -6.18856 1.57385e-19)
(5.68959 -6.56355 5.91097e-19)
(5.5277 -6.99281 5.72682e-19)
(5.34481 -7.3331 -4.25565e-19)
(5.21564 -7.7493 1.09038e-18)
(5.06479 -8.08156 -9.3782e-19)
(4.93834 -8.46479 1.16576e-18)
(4.80857 -8.78881 -2.16281e-18)
(4.68371 -9.13797 9.96952e-19)
(4.57012 -9.4446 1.19046e-19)
(4.45115 -9.75149 9.38436e-19)
(4.33418 -10.0931 -1.02577e-18)
(5.60223 -1.21413 1.68306e-19)
(6.20809 -2.01141 -1.78357e-19)
(6.03777 -2.75691 7.14379e-19)
(5.78547 -3.24831 -7.01258e-19)
(5.51117 -3.83063 -3.41713e-19)
(5.40939 -4.39635 -8.32088e-19)
(5.29812 -5.01146 4.0926e-21)
(5.14084 -5.483 6.40667e-19)
(5.00402 -6.01495 -1.53276e-19)
(4.82783 -6.40266 0)
(4.66425 -6.85041 0)
(4.51372 -7.19763 0)
(4.35623 -7.58704 0)
(4.23033 -7.91311 3.50377e-21)
(4.09126 -8.26504 0)
(3.98033 -8.57267 1.28892e-19)
(3.85524 -8.89978 5.06949e-19)
(3.75718 -9.18559 -1.48835e-18)
(3.64731 -9.48222 1.0969e-18)
(3.54543 -9.79968 -1.04093e-18)
(4.61162 -0.900131 0)
(4.84364 -1.61681 -9.4868e-20)
(4.7631 -2.36549 0)
(4.54417 -2.86513 2.67901e-19)
(4.29118 -3.42333 -1.78784e-19)
(4.07809 -3.84984 -6.84756e-19)
(3.98076 -4.43227 4.32789e-21)
(3.88132 -4.90146 6.56733e-19)
(3.7889 -5.44409 -6.35876e-19)
(3.71069 -5.89928 1.24527e-18)
(3.61272 -6.38275 -5.47112e-21)
(3.51992 -6.79298 -5.94629e-19)
(3.42241 -7.22365 5.74078e-19)
(3.3304 -7.59177 -7.04096e-19)
(3.23439 -7.97839 0)
(3.14658 -8.30931 -5.31388e-19)
(3.05419 -8.66225 5.23466e-19)
(2.96823 -8.95554 0)
(2.88603 -9.26767 -1.22482e-19)
(2.79496 -9.57828 0)
(3.22837 -0.595297 9.66419e-20)
(3.3178 -1.28285 9.48352e-20)
(3.44399 -2.18594 0)
(3.40871 -2.80455 3.65176e-19)
(3.2975 -3.48694 -4.50585e-19)
(3.14459 -3.94088 2.61137e-19)
(2.98175 -4.47815 -7.69991e-19)
(2.87231 -4.90004 3.34816e-19)
(2.75894 -5.39258 -8.18034e-20)
(2.66989 -5.79433 0)
(2.581 -6.25489 -7.76849e-20)
(2.50755 -6.63165 -7.56892e-20)
(2.42471 -7.05649 -7.37456e-20)
(2.36179 -7.40491 0)
(2.28953 -7.79848 -5.53996e-19)
(2.23198 -8.11715 1.15361e-18)
(2.16795 -8.48483 -9.91369e-19)
(2.11359 -8.77126 5.1834e-19)
(2.05383 -9.09623 6.3183e-20)
(1.99651 -9.40265 5.39907e-19)
(2.31101 -0.575504 -1.47935e-19)
(1.80375 -0.922725 -1.94152e-19)
(1.81692 -1.68603 5.6227e-22)
(1.86023 -2.22419 5.11317e-19)
(1.88345 -2.96823 -1.37537e-19)
(1.87702 -3.50057 -8.86936e-20)
(1.83128 -4.14039 8.73194e-20)
(1.77566 -4.60968 1.69528e-19)
(1.71486 -5.16738 8.17854e-20)
(1.66389 -5.58946 -3.19309e-19)
(1.61015 -6.08537 3.52572e-19)
(1.5611 -6.4673 7.56847e-20)
(1.5158 -6.91445 3.68898e-19)
(1.46576 -7.25932 -3.03045e-21)
(1.42556 -7.66592 3.22924e-20)
(1.37885 -7.97991 -6.16922e-19)
(1.34133 -8.35446 1.68823e-19)
(1.29981 -8.63935 0)
(1.26462 -8.9669 -3.13432e-20)
(1.22346 -9.27123 -2.72845e-19)
(0.497859 -1.13038 0)
(0.982946 -1.05852 -9.53668e-20)
(0.724232 -2.10108 1.03511e-19)
(0.723937 -2.37425 -4.71939e-20)
(0.598088 -3.1218 -4.6171e-20)
(0.60845 -3.49982 0)
(0.544586 -4.15866 -8.67908e-20)
(0.565551 -4.54575 1.69878e-19)
(0.525709 -5.13151 -8.31494e-20)
(0.535185 -5.5012 8.02868e-20)
(0.508581 -6.02778 -3.97831e-20)
(0.512237 -6.37616 -7.6172e-20)
(0.490238 -6.8519 1.49153e-19)
(0.491105 -7.17736 -1.45297e-19)
(0.470123 -7.60683 3.58596e-20)
(0.469113 -7.90811 2.44939e-34)
(0.449136 -8.2998 -3.33145e-20)
(0.44731 -8.57373 1.961e-19)
(0.43006 -8.91413 -9.6764e-20)
(0.42843 -9.21017 -6.94186e-20)
(-0.103457 0.942604 2.00571e-20)
(-0.2587 1.25296 2.41834e-20)
(0.308574 -0.370562 0)
(1.54444 -4.82633 2.28226e-20)
(4.69638 -13.5312 2.19044e-20)
(7.24033 -20.9738 2.17573e-20)
(8.70888 -24.9492 0)
(9.19924 -26.4875 2.01125e-20)
(9.38225 -26.9812 0)
(9.41988 -27.1266 0)
(9.40886 -27.1285 -1.59226e-20)
(9.37328 -27.0802 4.87686e-22)
(9.27624 -26.992 3.58518e-20)
(9.22717 -26.932 0)
(9.18564 -26.9546 1.52715e-20)
(9.149 -26.9257 1.58873e-20)
(9.06873 -26.9088 1.57282e-20)
(9.01855 -26.8508 0)
(8.95159 -26.8773 -2.87945e-20)
(8.92371 -26.8407 2.68593e-20)
(-0.303368 1.28642 7.4136e-20)
(0.122085 0.505917 -1.20636e-19)
(0.781894 -2.59911 0)
(3.50964 -10.1205 -1.01725e-19)
(6.67879 -18.7223 6.89579e-20)
(8.58772 -23.8643 -1.96169e-19)
(9.36513 -26.1453 8.38777e-20)
(9.61467 -26.8504 5.9449e-20)
(9.65965 -27.048 -2.51837e-19)
(9.65265 -27.0405 1.34468e-19)
(9.59792 -26.9995 -1.74627e-20)
(9.51846 -26.8682 1.41543e-19)
(9.44879 -26.8422 -2.27624e-21)
(9.41831 -26.8136 -1.34221e-19)
(9.33217 -26.8021 -1.63703e-20)
(9.28427 -26.7307 -1.61968e-20)
(9.19391 -26.7346 -1.5718e-20)
(9.16447 -26.7116 0)
(9.06507 -26.7108 -1.10675e-19)
(9.0279 -26.6281 1.60495e-21)
(-0.230289 1.19762 -4.96879e-20)
(0.39388 -0.661769 0)
(1.82983 -5.58537 0)
(5.61482 -15.2983 -4.11217e-20)
(8.06482 -22.2678 4.49506e-20)
(9.32371 -25.6806 0)
(9.73417 -26.7309 -4.04169e-20)
(9.81331 -27.0149 1.10514e-19)
(9.80548 -27.0088 -1.0482e-19)
(9.76157 -26.9613 1.39996e-19)
(9.67045 -26.826 -1.82077e-19)
(9.62175 -26.7582 0)
(9.55566 -26.7311 -1.36021e-19)
(9.50954 -26.6541 -1.28848e-19)
(9.42473 -26.6209 2.27131e-19)
(9.39535 -26.5913 -2.39914e-19)
(9.31752 -26.598 2.01645e-19)
(9.28241 -26.5208 0)
(9.15968 -26.4927 -2.46181e-19)
(9.13813 -26.4177 4.069e-19)
(0.144053 0.924132 2.48696e-19)
(0.736301 -2.34954 0)
(3.58438 -10.0571 5.37332e-20)
(7.31835 -19.1911 3.15248e-20)
(9.18759 -24.4693 -2.73009e-19)
(9.92491 -26.3715 8.51649e-20)
(10.0762 -26.8864 4.16711e-20)
(10.0932 -26.9113 4.1322e-19)
(10.0595 -26.8825 -5.65071e-19)
(9.97406 -26.7502 -6.55925e-20)
(9.89908 -26.6571 3.2901e-19)
(9.83723 -26.5843 6.88011e-20)
(9.76403 -26.5338 -3.30953e-19)
(9.71762 -26.4792 3.24204e-19)
(9.6334 -26.4817 9.26747e-20)
(9.59746 -26.4198 -5.80872e-20)
(9.48497 -26.3969 8.49836e-20)
(9.43566 -26.2955 0)
(9.31726 -26.2928 -2.44197e-20)
(9.29745 -26.2074 0)
(0.435526 -0.123311 0)
(1.37197 -4.31359 3.88574e-19)
(5.24936 -13.9991 -4.75765e-19)
(8.36604 -22.1493 4.63825e-19)
(9.8611 -25.7691 -3.68154e-19)
(10.2016 -26.7531 -8.57568e-20)
(10.3024 -26.9084 0)
(10.271 -26.8764 2.11436e-19)
(10.211 -26.7638 -2.95602e-19)
(10.1134 -26.6102 3.67111e-19)
(10.05 -26.5148 -2.87686e-19)
(9.989 -26.4483 -6.88042e-20)
(9.92639 -26.407 3.2403e-19)
(9.86552 -26.3378 -5.64938e-19)
(9.77163 -26.2839 3.61246e-19)
(9.73056 -26.2187 -1.1839e-19)
(9.61253 -26.1837 -2.75613e-19)
(9.58125 -26.1079 6.2626e-19)
(9.45543 -26.0937 -3.49637e-19)
(9.42822 -25.9678 -4.12819e-19)
(0.377402 -1.10521 4.10044e-19)
(2.30347 -6.62979 3.97546e-19)
(6.84482 -17.4981 -3.9122e-19)
(9.51605 -24.0043 -9.58614e-20)
(10.4356 -26.352 9.12868e-20)
(10.6676 -26.8215 3.28686e-19)
(10.6401 -26.8183 -3.10895e-19)
(10.5899 -26.7071 0)
(10.4791 -26.5191 3.00777e-19)
(10.4093 -26.4117 -2.95756e-19)
(10.3356 -26.3276 -2.73949e-19)
(10.2625 -26.2551 2.69498e-19)
(10.1772 -26.1777 0)
(10.0979 -26.0935 0)
(10.0125 -26.0777 5.16377e-19)
(9.95597 -26.0066 -5.06901e-19)
(9.82373 -25.9657 -4.19333e-19)
(9.78028 -25.8613 4.07658e-19)
(9.62185 -25.8399 -3.75437e-19)
(9.59493 -25.6968 4.5062e-19)
(0.406884 -2.0551 -3.12126e-19)
(3.62146 -9.87659 1.07729e-19)
(8.03955 -20.0275 7.02823e-21)
(10.248 -25.325 4.9099e-19)
(10.8524 -26.7059 0)
(10.9056 -26.8071 0)
(10.89 -26.7312 6.22646e-19)
(10.7863 -26.537 -2.23671e-20)
(10.7207 -26.4122 -6.14297e-19)
(10.6211 -26.2639 5.62907e-19)
(10.5416 -26.1542 -5.53647e-19)
(10.455 -26.0611 0)
(10.3741 -25.9879 4.83733e-19)
(10.2947 -25.9247 -4.76119e-19)
(10.1963 -25.8579 0)
(10.1181 -25.7647 0)
(9.98364 -25.7037 0)
(9.94225 -25.6193 0)
(9.77631 -25.5917 0)
(9.74927 -25.4188 -4.36551e-20)
(0.718895 -2.87881 3.31996e-19)
(4.84718 -12.1892 -5.37275e-19)
(9.2279 -21.9825 0)
(11.0569 -25.9968 0)
(11.3732 -26.7197 8.35481e-19)
(11.4029 -26.704 5.53036e-20)
(11.3123 -26.5363 -7.39737e-19)
(11.2079 -26.3392 0)
(11.0843 -26.1379 7.33463e-20)
(10.9823 -25.9994 -6.90134e-20)
(10.8863 -25.8974 0)
(10.7904 -25.8119 6.12861e-20)
(10.6838 -25.7208 -5.22133e-19)
(10.5712 -25.6177 9.51542e-19)
(10.4667 -25.5709 -1.60594e-20)
(10.3726 -25.4865 -4.10665e-19)
(10.23 -25.4358 -4.63608e-20)
(10.1711 -25.3306 4.36175e-20)
(9.9718 -25.2907 0)
(9.9419 -25.0993 3.85147e-20)
(1.14479 -3.816 2.20876e-19)
(6.23118 -14.4107 2.08615e-19)
(10.3467 -23.3311 -6.57556e-19)
(11.7276 -26.352 2.03614e-19)
(11.8734 -26.6735 9.2133e-20)
(11.7974 -26.5418 7.56851e-19)
(11.6489 -26.2902 -1.07781e-18)
(11.5151 -26.0781 7.87582e-19)
(11.4034 -25.9298 -6.4005e-19)
(11.2689 -25.7752 7.59612e-19)
(11.1546 -25.6549 1.24867e-19)
(11.0277 -25.538 5.25727e-19)
(10.9081 -25.4358 -2.94848e-19)
(10.7969 -25.3672 -5.74918e-19)
(10.6794 -25.2917 5.07664e-19)
(10.5588 -25.1892 0)
(10.4111 -25.1145 1.32481e-19)
(10.3379 -25.0244 3.71179e-20)
(10.1342 -24.982 -7.63014e-20)
(10.0995 -24.7794 3.22457e-20)
(1.89541 -4.95314 -8.3978e-20)
(7.46015 -15.8623 3.67884e-19)
(11.4059 -24.1787 7.38948e-22)
(12.4548 -26.3588 -4.06721e-19)
(12.4483 -26.4154 -3.683e-19)
(12.3233 -26.1998 -1.72226e-19)
(12.1616 -25.9914 -4.36187e-21)
(12.0043 -25.7797 -1.52773e-19)
(11.8283 -25.5568 0)
(11.6739 -25.4002 -1.33356e-19)
(11.5327 -25.2818 -1.24857e-19)
(11.3956 -25.1842 -6.79043e-21)
(11.2534 -25.0905 4.08886e-19)
(11.104 -24.9831 -2.10312e-19)
(10.9662 -24.9182 -4.62345e-19)
(10.8275 -24.8284 3.59775e-19)
(10.6697 -24.7703 2.36319e-19)
(10.5689 -24.6693 -3.98719e-19)
(10.3443 -24.617 7.67753e-20)
(10.2921 -24.4075 4.64923e-19)
(2.45468 -5.60203 0)
(8.57893 -17.011 1.00966e-18)
(12.4198 -24.6019 -1.27331e-18)
(13.101 -26.1428 1.01848e-18)
(13.004 -26.0979 8.81955e-19)
(12.7882 -25.8354 -6.98438e-19)
(12.5746 -25.592 -9.19942e-19)
(12.3592 -25.357 3.59352e-20)
(12.1844 -25.2008 5.51695e-19)
(11.996 -25.0488 -3.61431e-19)
(11.8322 -24.929 9.19062e-19)
(11.6555 -24.8052 -5.4903e-19)
(11.4864 -24.6918 -1.0276e-19)
(11.3333 -24.6192 2.62398e-19)
(11.1813 -24.5438 -6.86562e-19)
(11.0158 -24.4457 3.28702e-19)
(10.8484 -24.3683 0)
(10.7282 -24.2834 -5.43944e-19)
(10.5078 -24.2382 5.35842e-19)
(10.4317 -24.0322 -4.20967e-19)
(3.04152 -6.67339 2.29824e-19)
(9.7585 -17.838 2.17538e-19)
(13.3203 -24.6815 1.0916e-18)
(13.7828 -25.7467 9.33759e-19)
(13.5685 -25.5855 -5.60472e-19)
(13.331 -25.3174 7.87944e-19)
(13.0959 -25.1181 -4.65859e-19)
(12.8653 -24.9118 5.2854e-19)
(12.6236 -24.6906 -1.00472e-18)
(12.4069 -24.5381 3.576e-19)
(12.2103 -24.4197 0)
(12.0217 -24.3231 0)
(11.8329 -24.2375 0)
(11.6419 -24.1374 -6.42528e-19)
(11.462 -24.0736 6.3259e-19)
(11.2777 -23.99 0)
(11.0976 -23.9278 0)
(10.9369 -23.8463 -5.54557e-20)
(10.7042 -23.7948 0)
(10.6213 -23.5884 -4.62609e-19)
(3.67453 -7.12623 -4.47168e-19)
(10.6967 -18.461 -1.11131e-18)
(14.166 -24.5233 -7.69957e-19)
(14.362 -25.2174 -1.27949e-19)
(14.0752 -25.0356 1.00863e-18)
(13.796 -24.7837 -2.06771e-19)
(13.4972 -24.5525 -4.3833e-20)
(13.2021 -24.3244 -6.45642e-19)
(12.9618 -24.179 0)
(12.7119 -24.0406 -3.04865e-19)
(12.4929 -23.9348 4.86115e-19)
(12.2631 -23.8203 0)
(12.0422 -23.7142 6.12338e-19)
(11.8435 -23.6487 -6.02746e-19)
(11.6489 -23.5861 5.10493e-19)
(11.4417 -23.5 -9.14402e-19)
(11.2452 -23.4303 4.59402e-19)
(11.0711 -23.3737 5.54547e-20)
(10.8417 -23.3361 -4.06618e-20)
(10.7445 -23.1385 3.28529e-19)
(4.25558 -7.6364 -6.16529e-19)
(11.7738 -18.5825 4.2009e-20)
(14.8577 -24.1003 6.13225e-20)
(15.0174 -24.5192 1.39143e-18)
(14.6069 -24.3136 1.06259e-19)
(14.305 -24.0779 -7.22121e-19)
(13.9907 -23.9005 -4.85105e-19)
(13.6796 -23.7196 1.60059e-19)
(13.3712 -23.5181 5.2475e-19)
(13.091 -23.3889 -5.37973e-19)
(12.8377 -23.2888 2.58989e-19)
(12.5978 -23.2112 -6.41876e-19)
(12.3593 -23.1446 5.03915e-19)
(12.1245 -23.0598 -4.6396e-19)
(11.9035 -23.0153 4.08747e-19)
(11.68 -22.9488 3.19307e-19)
(11.4658 -22.8959 -3.684e-19)
(11.2585 -22.8392 2.67499e-19)
(11.0214 -22.8129 -2.53959e-19)
(10.9144 -22.6215 -2.69082e-19)
(4.87242 -7.92624 -7.7128e-19)
(12.6399 -18.6685 -1.40514e-19)
(15.5245 -23.5496 7.06771e-19)
(15.4892 -23.7747 -6.05783e-19)
(15.0491 -23.5809 5.94556e-19)
(14.688 -23.3739 1.33248e-19)
(14.3199 -23.1717 0)
(13.9473 -22.9781 -9.0979e-20)
(13.6447 -22.86 2.40108e-19)
(13.3343 -22.7468 -8.39462e-19)
(13.0606 -22.6691 5.8509e-19)
(12.7795 -22.5765 1.21749e-19)
(12.5104 -22.4967 6.07195e-20)
(12.2681 -22.4536 0)
(12.0307 -22.4156 1.35303e-20)
(11.7852 -22.3522 2.73083e-19)
(11.5566 -22.3002 -3.27751e-20)
(11.3378 -22.2769 2.49137e-20)
(11.1107 -22.2766 -1.99735e-19)
(10.9931 -22.0993 3.8307e-20)
(5.40689 -8.07181 7.01981e-19)
(13.4706 -18.3543 -1.20002e-18)
(16.1164 -22.7292 6.57311e-19)
(15.9995 -22.8445 5.33683e-19)
(15.5037 -22.6663 -5.63477e-20)
(15.1167 -22.4929 -3.60901e-19)
(14.7402 -22.3601 8.51283e-20)
(14.353 -22.2205 9.09665e-20)
(13.9802 -22.0561 0)
(13.6414 -21.9638 0)
(13.3359 -21.8994 -4.02562e-19)
(13.0511 -21.8575 6.4818e-19)
(12.764 -21.8159 -3.38145e-19)
(12.4864 -21.753 0)
(12.2304 -21.7464 1.46786e-20)
(11.9756 -21.7099 -1.77583e-19)
(11.7251 -21.6755 1.70801e-19)
(11.4712 -21.6476 -2.05347e-20)
(11.2399 -21.6652 -7.18948e-20)
(11.1135 -21.503 5.54414e-20)
(5.97442 -8.15768 -6.17247e-19)
(14.2077 -18.0911 7.71843e-19)
(16.6119 -21.8447 0)
(16.3294 -21.9157 0)
(15.8254 -21.7679 9.16552e-20)
(15.3722 -21.6276 -4.29053e-19)
(14.9483 -21.4771 2.34601e-20)
(14.5102 -21.3423 2.76552e-19)
(14.1527 -21.2671 -3.98138e-19)
(13.7878 -21.1906 7.20607e-19)
(13.4643 -21.1528 -3.23702e-19)
(13.1405 -21.0968 5.85258e-20)
(12.833 -21.0648 1.77687e-19)
(12.5512 -21.0519 -3.23359e-20)
(12.2736 -21.0446 -9.34864e-20)
(11.9993 -21.0152 1.50486e-20)
(11.7392 -20.9936 -2.47812e-20)
(11.4784 -21.0034 1.38133e-20)
(11.2566 -21.0393 1.39906e-20)
(11.1325 -20.9136 -4.00464e-20)
(6.42082 -8.10402 0)
(14.8196 -17.4571 3.44368e-19)
(16.958 -20.8399 -3.86686e-19)
(16.669 -20.8123 0)
(16.118 -20.7091 -9.165e-20)
(15.6657 -20.6196 2.45202e-19)
(15.2483 -20.5508 -3.06004e-19)
(14.8014 -20.4651 0)
(14.374 -20.3517 2.43654e-19)
(13.9896 -20.3036 -2.39603e-19)
(13.6409 -20.2885 8.79991e-21)
(13.3203 -20.2886 -2.07033e-20)
(12.9898 -20.2768 -1.45203e-20)
(12.6759 -20.2483 -9.00732e-21)
(12.3942 -20.2933 4.50105e-20)
(12.1167 -20.2956 -1.29103e-19)
(11.83 -20.2928 1.87325e-19)
(11.5353 -20.2906 -2.35167e-19)
(11.2973 -20.3401 1.17688e-19)
(11.1732 -20.2479 -1.41765e-20)
(6.89353 -8.0054 0)
(15.394 -16.8971 -3.74497e-19)
(17.2339 -19.7641 2.07323e-19)
(16.8281 -19.7716 1.9789e-19)
(16.2934 -19.6827 -5.04336e-20)
(15.7593 -19.6285 -4.44289e-20)
(15.3035 -19.5454 -1.49428e-19)
(14.8219 -19.4851 0)
(14.4201 -19.4649 0)
(14.0097 -19.4274 0)
(13.6445 -19.4348 -8.79899e-21)
(13.2931 -19.4311 0)
(12.9609 -19.4586 1.40015e-19)
(12.6408 -19.4708 -1.16326e-19)
(12.3269 -19.4956 1.85481e-19)
(12.0369 -19.5144 -3.9609e-19)
(11.7482 -19.5446 2.10223e-19)
(11.4558 -19.5836 2.90461e-19)
(11.1936 -19.6369 -5.22694e-19)
(11.0789 -19.538 2.83827e-19)
(7.28068 -7.78397 0)
(15.788 -16.0791 0)
(17.3967 -18.5748 7.19121e-20)
(16.9514 -18.5719 5.72175e-20)
(16.4089 -18.5361 0)
(15.9018 -18.5389 5.55401e-20)
(15.4589 -18.5466 -5.45651e-20)
(14.9759 -18.5184 0)
(14.5083 -18.4684 -9.36779e-20)
(14.0941 -18.4697 9.2119e-20)
(13.7095 -18.5024 0)
(13.3594 -18.5392 2.33854e-19)
(12.9966 -18.5674 1.83832e-20)
(12.6557 -18.5808 -2.66116e-19)
(12.3483 -18.6632 0)
(12.044 -18.6947 0)
(11.7124 -18.7365 0)
(11.4018 -18.744 3.62591e-19)
(11.0789 -18.7639 -3.96346e-19)
(10.9155 -18.7159 0)
(8.35443 -26.716 0)
(8.00801 -26.3747 0)
(7.26071 -26.4393 -2.48382e-21)
(6.8428 -26.4297 -2.41526e-21)
(6.20711 -26.4522 0)
(5.73956 -26.4983 -2.63072e-23)
(5.21105 -26.5111 2.31329e-21)
(4.78224 -26.6028 0)
(4.32281 -26.6725 2.16769e-21)
(3.91611 -26.7196 0)
(3.49769 -26.7637 -2.11445e-21)
(3.1477 -26.7812 -1.05247e-21)
(2.76492 -26.8049 1.05879e-21)
(2.47616 -26.8149 2.0275e-21)
(2.13097 -26.8164 0)
(1.89463 -26.7475 -4.93635e-22)
(1.57267 -26.6204 1.94026e-21)
(1.39685 -25.1919 0)
(0.859872 -20.5752 0)
(0.278915 -11.1573 1.88445e-21)
(8.37585 -26.4951 1.23065e-20)
(8.0429 -26.187 0)
(7.28194 -26.2609 1.2003e-20)
(6.84135 -26.2409 -7.16617e-21)
(6.21992 -26.3012 0)
(5.73229 -26.3879 -1.09716e-20)
(5.17249 -26.4086 4.39097e-21)
(4.7087 -26.4842 0)
(4.24741 -26.5477 2.03e-21)
(3.84581 -26.601 -4.21853e-21)
(3.43513 -26.6508 6.21592e-21)
(3.09047 -26.6746 -8.17371e-21)
(2.71593 -26.708 6.07826e-21)
(2.44284 -26.7333 -2.06446e-21)
(2.10376 -26.7421 -1.98708e-21)
(1.88797 -26.6783 1.91803e-21)
(1.58348 -26.5528 -3.08455e-21)
(1.39915 -25.0863 -4.65077e-21)
(0.841757 -20.3933 -2.29367e-21)
(0.28646 -10.9846 -2.35072e-21)
(8.49711 -26.2864 -2.66983e-21)
(8.15668 -26.0312 -1.13506e-20)
(7.28651 -26.0846 -8.87701e-21)
(6.84819 -26.0993 0)
(6.2077 -26.1281 0)
(5.71467 -26.1883 1.263e-20)
(5.20517 -26.2223 -1.67566e-22)
(4.76992 -26.3332 -1.16342e-22)
(4.31754 -26.42 -1.2613e-22)
(3.91294 -26.4825 -8.04992e-21)
(3.50021 -26.5423 0)
(3.15233 -26.574 0)
(2.77411 -26.6154 0)
(2.48892 -26.6395 -7.53831e-21)
(2.14494 -26.6552 0)
(1.91466 -26.5973 -7.38838e-21)
(1.59352 -26.4859 5.83242e-21)
(1.40412 -25.0005 2.79981e-21)
(0.859618 -20.2821 4.61463e-21)
(0.291933 -10.8516 7.1574e-21)
(8.55029 -26.0538 1.9986e-20)
(8.18759 -25.8228 -3.94917e-20)
(7.29693 -25.8857 2.18933e-22)
(6.84615 -25.9069 1.71365e-20)
(6.22253 -25.9717 0)
(5.71429 -26.0761 1.56941e-20)
(5.17544 -26.1208 -3.88107e-20)
(4.70083 -26.2146 2.32557e-20)
(4.24468 -26.2952 -1.52204e-20)
(3.84413 -26.3641 7.58714e-21)
(3.43823 -26.4303 -2.08275e-22)
(3.09526 -26.4686 -7.47893e-21)
(2.72396 -26.5185 7.51858e-21)
(2.45349 -26.5587 3.8558e-21)
(2.11556 -26.582 3.69978e-21)
(1.90542 -26.5298 7.38395e-21)
(1.60168 -26.4197 -7.259e-21)
(1.40431 -24.9015 3.56537e-21)
(0.843712 -20.114 -1.78196e-21)
(0.300173 -10.6861 -7.14624e-21)
(8.66568 -25.8199 4.35643e-20)
(8.2923 -25.6401 9.4273e-21)
(7.30893 -25.6949 -1.65796e-20)
(6.86125 -25.7621 2.38126e-20)
(6.22258 -25.7988 0)
(5.70225 -25.8769 -7.26159e-21)
(5.20888 -25.9352 7.57942e-21)
(4.76192 -26.0616 0)
(4.31535 -26.1683 3.94709e-22)
(3.9115 -26.247 0)
(3.50272 -26.3227 -1.44982e-20)
(3.15608 -26.3687 0)
(2.78103 -26.4275 0)
(2.49831 -26.4658 -1.40679e-20)
(2.15462 -26.4966 7.12395e-21)
(1.93038 -26.4507 -6.90725e-21)
(1.60906 -26.3544 0)
(1.408 -24.8222 1.72605e-21)
(0.859151 -20.0152 -1.73168e-21)
(0.306248 -10.5545 0)
(8.74672 -25.5515 1.68192e-20)
(8.32429 -25.4093 -1.66968e-20)
(7.33337 -25.4803 3.67146e-20)
(6.86815 -25.5693 -3.78988e-20)
(6.24061 -25.637 1.35803e-20)
(5.70757 -25.7621 7.28409e-21)
(5.18459 -25.8342 -1.34274e-20)
(4.69717 -25.9426 -1.34337e-20)
(4.24464 -26.0438 7.11969e-21)
(3.84395 -26.1288 1.37842e-20)
(3.44114 -26.2113 -6.75386e-21)
(3.09905 -26.2645 0)
(2.72998 -26.3311 0)
(2.46094 -26.3857 4.07938e-22)
(2.12342 -26.4245 -6.85849e-21)
(1.91863 -26.3847 6.90051e-21)
(1.61464 -26.2901 0)
(1.40618 -24.731 -1.32305e-20)
(0.844627 -19.8616 -1.24295e-20)
(0.314696 -10.3958 -8.36935e-22)
(8.85096 -25.3038 -4.95645e-20)
(8.41118 -25.2022 5.03069e-20)
(7.35707 -25.2784 -1.46214e-20)
(6.88909 -25.4169 0)
(6.25082 -25.4637 -1.36378e-20)
(5.70142 -25.5626 2.61966e-20)
(5.21834 -25.6482 -1.28178e-20)
(4.75787 -25.7877 1.34714e-20)
(4.3154 -25.9172 0)
(3.91126 -26.0128 0)
(3.50499 -26.1045 1.31125e-20)
(3.15884 -26.165 -1.31597e-20)
(2.78564 -26.2406 0)
(2.50422 -26.2934 1.99584e-20)
(2.16018 -26.3405 -6.58671e-21)
(1.94149 -26.3076 -6.5261e-21)
(1.61939 -26.2267 5.24179e-21)
(1.40902 -24.6594 1.64606e-20)
(0.857442 -19.7761 8.34295e-21)
(0.321263 -10.2666 1.62496e-21)
(8.96037 -25.0067 0)
(8.4468 -24.9496 -2.79896e-20)
(7.40311 -25.0533 2.80708e-20)
(6.90589 -25.2239 0)
(6.26713 -25.2968 0)
(5.70842 -25.4447 -2.44362e-20)
(5.19518 -25.5466 2.45091e-20)
(4.69618 -25.668 0)
(4.24676 -25.7929 1.23508e-20)
(3.84484 -25.8951 -2.48125e-20)
(3.44373 -25.9939 1.24622e-20)
(3.10175 -26.0619 1.25361e-20)
(2.73392 -26.1451 -1.2573e-20)
(2.46519 -26.2139 0)
(2.12754 -26.2693 0)
(1.92715 -26.243 -6.30963e-21)
(1.62244 -26.1644 7.5919e-21)
(1.40511 -24.5768 4.64817e-25)
(0.843321 -19.6381 -4.74176e-21)
(0.329939 -10.1148 1.57771e-21)
(9.07764 -24.7159 2.84009e-20)
(8.52672 -24.7214 -2.85162e-20)
(7.44439 -24.8381 -3.49242e-20)
(6.9312 -25.0586 4.69765e-20)
(6.28516 -25.1207 -4.58626e-20)
(5.70771 -25.2448 -7.75593e-23)
(5.22922 -25.3604 2.28101e-20)
(4.75676 -25.5127 0)
(4.3174 -25.6667 0)
(3.91171 -25.7796 1.13244e-20)
(3.50684 -25.8876 0)
(3.16038 -25.963 0)
(2.78787 -26.055 0)
(2.50662 -26.1223 0)
(2.16181 -26.1866 0)
(1.94742 -26.1679 0)
(1.62459 -26.1032 -4.88651e-21)
(1.40721 -24.5137 6.10586e-21)
(0.853393 -19.5643 -1.52916e-21)
(0.337528 -9.98894 1.52927e-21)
(9.20871 -24.3759 -2.44593e-20)
(8.57035 -24.4496 -3.7747e-20)
(7.5065 -24.6035 -1.02864e-20)
(6.95274 -24.8613 -9.94418e-21)
(6.30054 -24.95 1.02677e-20)
(5.71692 -25.1228 3.08036e-20)
(5.20563 -25.2571 1.01098e-20)
(4.69733 -25.3919 0)
(4.25092 -25.5422 -1.1363e-20)
(3.84659 -25.6625 2.11919e-20)
(3.44607 -25.7778 1.08677e-20)
(3.10338 -25.8607 1.09522e-20)
(2.7358 -25.9601 0)
(2.46627 -26.0433 1.12187e-20)
(2.12805 -26.116 1.14367e-20)
(1.93024 -26.1045 0)
(1.62511 -26.0434 0)
(1.40144 -24.4397 0)
(0.838921 -19.4458 0)
(0.345508 -9.8441 0)