/*--------------------------------*- C++ -*----------------------------------*\
  =========                 |
  \\      /  F ield         | OpenFOAM: The Open Source CFD Toolbox
   \\    /   O peration     | Website:  https://openfoam.org
    \\  /    A nd           | Version:  9
     \\/     M anipulation  |
\*---------------------------------------------------------------------------*/
FoamFile
{
    format      ascii;
    class       volVectorField;
    location    "9.1";
    object      U;
}
// * * * * * * * * * * * * * * * * * * * * * * * * * * * * * * * * * * * * * //

dimensions      [0 1 -1 0 0 0 0];

internalField   nonuniform List<vector> 
46400
(
(9.90562 -9.77072 -6.72612e-19)
(20.8687 -19.9629 7.52204e-19)
(23.0944 -23.0982 -7.09477e-20)
(22.4862 -23.206 4.49297e-20)
(21.7069 -23.1402 -5.68574e-20)
(20.9877 -23.111 -6.56525e-19)
(20.322 -23.0776 3.35347e-19)
(19.6883 -23.0834 -5.27071e-20)
(19.0643 -23.0285 4.23813e-20)
(18.4794 -22.9992 -3.30675e-20)
(17.9428 -23.0019 2.47181e-20)
(17.4369 -22.9937 0)
(16.9569 -23.0135 -1.26177e-19)
(16.4948 -22.9881 1.34359e-19)
(16.0339 -22.9725 3.50299e-20)
(15.6226 -22.9565 -5.03948e-20)
(15.1941 -22.9484 -4.16498e-20)
(14.8146 -22.92 3.25803e-20)
(14.4346 -22.7728 1.40516e-19)
(13.9024 -22.96 -1.2478e-19)
(10.2216 -9.29245 0)
(21.1411 -18.7085 -3.45608e-20)
(23.1791 -21.5013 0)
(22.4396 -21.5366 -4.48283e-19)
(21.6984 -21.553 3.34247e-19)
(20.9784 -21.608 -7.71895e-20)
(20.3432 -21.6381 0)
(19.6911 -21.6681 5.27091e-20)
(19.1058 -21.6979 -4.2383e-20)
(18.5233 -21.7198 3.30685e-20)
(17.9862 -21.7428 -1.0649e-19)
(17.4839 -21.7933 5.24205e-20)
(16.9983 -21.8152 1.72636e-20)
(16.5348 -21.8541 0)
(16.0945 -21.8727 1.53556e-21)
(15.6832 -21.9115 6.72369e-21)
(15.2924 -21.9326 0)
(14.9342 -21.953 -2.16847e-19)
(14.6313 -21.9299 -7.78665e-20)
(14.1455 -22.0836 2.29356e-19)
(10.5346 -8.77506 -3.13615e-19)
(21.2442 -17.4405 2.91454e-19)
(23.0278 -19.8595 -3.32889e-19)
(22.3136 -20.017 -2.14538e-19)
(21.5612 -20.0423 2.10637e-19)
(20.8236 -20.1201 0)
(20.1829 -20.2024 1.61843e-19)
(19.5525 -20.2981 -1.49022e-19)
(18.9355 -20.3388 8.50016e-21)
(18.3583 -20.3978 -1.32832e-21)
(17.8159 -20.4641 9.31895e-20)
(17.3187 -20.5323 2.20723e-20)
(16.8466 -20.6226 -1.06753e-19)
(16.3938 -20.6687 0)
(15.9424 -20.7202 2.47549e-19)
(15.5489 -20.7821 -2.43792e-19)
(15.1502 -20.867 0)
(14.7885 -20.8923 -1.55346e-20)
(14.4547 -20.9385 3.37859e-20)
(14.0104 -21.2057 -3.68025e-19)
(10.7613 -8.24149 1.71895e-19)
(21.2637 -16.174 -7.06912e-20)
(22.8183 -18.2336 -1.41189e-19)
(22.0477 -18.4011 1.39359e-19)
(21.353 -18.5252 4.36954e-20)
(20.6233 -18.6604 -4.4544e-20)
(19.9793 -18.7603 1.92554e-20)
(19.3696 -18.9098 -1.49616e-19)
(18.7987 -19.0403 1.55594e-19)
(18.2309 -19.1363 -1.3355e-20)
(17.6963 -19.2415 0)
(17.2044 -19.3512 2.48744e-20)
(16.7404 -19.4706 -2.96759e-20)
(16.3097 -19.6038 0)
(15.8683 -19.6835 3.87321e-19)
(15.4482 -19.7594 -3.23256e-19)
(15.0772 -19.8699 0)
(14.7221 -19.9646 4.65636e-20)
(14.4032 -19.9997 6.33163e-20)
(13.913 -20.2554 4.87939e-19)
(10.9328 -7.67173 0)
(21.1502 -14.9139 0)
(22.4353 -16.6562 1.06327e-20)
(21.6493 -16.8972 -2.87937e-20)
(20.9537 -17.0329 -6.99618e-20)
(20.2426 -17.2261 7.03405e-20)
(19.6182 -17.3927 0)
(18.9902 -17.5469 1.6001e-19)
(18.4106 -17.7046 -1.87838e-19)
(17.8591 -17.8499 -5.88318e-20)
(17.3225 -17.984 -6.27517e-20)
(16.8304 -18.1144 0)
(16.3501 -18.2426 4.909e-19)
(15.9234 -18.3792 -4.83217e-19)
(15.5182 -18.5433 0)
(15.1214 -18.6562 -6.04377e-19)
(14.7262 -18.7877 5.38037e-19)
(14.3845 -18.9019 5.71025e-19)
(14.0996 -19.06 -6.22902e-19)
(13.6537 -19.3456 0)
(11.027 -7.07985 0)
(20.9234 -13.665 0)
(21.9405 -15.0895 0)
(21.1965 -15.3986 -2.99057e-20)
(20.5528 -15.6181 0)
(19.8463 -15.8274 0)
(19.2232 -16.0188 0)
(18.655 -16.2505 -7.33358e-20)
(18.094 -16.4523 0)
(17.5694 -16.6441 5.88334e-20)
(17.0555 -16.8324 -2.10404e-20)
(16.5923 -17.0143 -7.10012e-19)
(16.1446 -17.2031 5.2578e-19)
(15.7051 -17.3544 -7.45536e-19)
(15.2865 -17.52 5.54781e-19)
(14.8967 -17.6726 0)
(14.5287 -17.8403 -6.84525e-19)
(14.1339 -17.9104 5.81343e-19)
(13.8349 -18.0558 0)
(13.4416 -18.3987 -9.72223e-20)
(11.0696 -6.47479 1.36204e-19)
(20.5464 -12.3548 5.54471e-20)
(21.3854 -13.6475 2.35492e-19)
(20.575 -13.9438 -2.61717e-19)
(19.9438 -14.2125 -2.9496e-19)
(19.2848 -14.4961 6.0705e-19)
(18.6652 -14.7273 -7.41288e-19)
(18.0565 -14.9346 5.18107e-20)
(17.5091 -15.1804 2.45798e-19)
(16.9848 -15.385 0)
(16.4707 -15.6017 -2.05064e-20)
(15.9931 -15.7892 -1.9566e-20)
(15.5415 -16.0024 8.81354e-20)
(15.1339 -16.1915 7.82769e-19)
(14.7452 -16.4124 -6.97348e-19)
(14.3636 -16.5859 -9.17892e-19)
(14.0428 -16.8439 7.97501e-19)
(13.7039 -17.0081 -1.51324e-20)
(13.3559 -17.11 -1.0735e-19)
(12.9827 -17.4862 -7.52578e-19)
(11.1188 -5.90288 -7.89541e-20)
(20.0152 -10.9737 3.02731e-20)
(20.66 -12.1308 -9.88317e-20)
(19.9507 -12.5329 -4.09952e-19)
(19.3367 -12.8445 2.63969e-19)
(18.6943 -13.1664 0)
(18.124 -13.4733 6.43804e-19)
(17.585 -13.7624 -3.05167e-19)
(17.04 -14.0262 2.21931e-19)
(16.5582 -14.291 1.23203e-19)
(16.0738 -14.5391 -2.34602e-19)
(15.6371 -14.7717 5.61263e-19)
(15.22 -15.0257 1.24816e-19)
(14.7886 -15.2164 -7.05652e-19)
(14.3861 -15.4273 1.98605e-18)
(13.975 -15.5883 -8.15478e-19)
(13.6136 -15.7983 1.05691e-18)
(13.3228 -16.0507 -6.88864e-19)
(13 -16.1817 2.29929e-19)
(12.5803 -16.5209 1.10355e-18)
(11.2004 -5.29052 4.66192e-19)
(19.4305 -9.71931 -8.92214e-20)
(19.9092 -10.741 -2.90811e-20)
(19.1013 -11.1363 2.3929e-19)
(18.5291 -11.5367 1.10558e-19)
(17.921 -11.9061 1.3933e-19)
(17.3328 -12.2396 -6.44305e-19)
(16.7886 -12.5381 3.97477e-19)
(16.2679 -12.8544 -1.21897e-19)
(15.7814 -13.1219 -1.232e-19)
(15.3156 -13.4319 -1.24091e-19)
(14.8474 -13.646 -1.42757e-19)
(14.4419 -13.9261 -2.66947e-19)
(14.0849 -14.1781 9.46826e-19)
(13.7414 -14.4555 -1.31983e-18)
(13.3832 -14.6637 -1.39128e-19)
(13.0002 -14.8587 1.44352e-20)
(12.7055 -15.0855 -1.02761e-18)
(12.4488 -15.314 7.68863e-19)
(12.1116 -15.672 -1.21548e-18)
(11.3048 -4.67484 5.24997e-19)
(18.6675 -8.47567 -1.24466e-18)
(18.9205 -9.34603 8.4098e-19)
(18.2322 -9.83923 -1.33501e-19)
(17.6594 -10.2588 -1.618e-19)
(17.1292 -10.6959 6.37112e-19)
(16.6269 -11.127 -7.6619e-19)
(16.1407 -11.4861 0)
(15.6479 -11.8335 6.17767e-19)
(15.1817 -12.1222 -6.07461e-19)
(14.7719 -12.4582 -4.51807e-19)
(14.3909 -12.7757 5.85928e-19)
(13.9787 -13.0426 1.42131e-19)
(13.5665 -13.2792 -5.99241e-19)
(13.2101 -13.5352 1.3682e-19)
(12.8907 -13.8003 7.23586e-19)
(12.5224 -13.9967 -1.2992e-18)
(12.1857 -14.2008 8.58071e-19)
(11.8779 -14.3649 -1.25272e-20)
(11.5695 -14.7469 -1.19392e-18)
(11.523 -4.13494 8.09551e-19)
(17.7903 -7.31959 -5.02409e-19)
(17.8917 -8.10324 3.53189e-19)
(17.2138 -8.59807 1.89721e-20)
(16.6717 -9.11344 -7.11601e-19)
(16.1193 -9.51568 -6.81522e-19)
(15.609 -9.96716 8.54937e-19)
(15.1731 -10.3787 -5.15687e-19)
(14.7412 -10.8048 6.87267e-19)
(14.2948 -11.1366 0)
(13.8178 -11.4342 1.71091e-20)
(13.4274 -11.745 1.60005e-19)
(13.112 -12.1182 1.7409e-19)
(12.7886 -12.4149 -1.71778e-19)
(12.4412 -12.7083 0)
(12.1622 -12.9999 1.66951e-19)
(11.8562 -13.279 0)
(11.5763 -13.5104 3.11586e-19)
(11.2864 -13.7122 1.53454e-18)
(10.9547 -13.9928 -2.02491e-21)
(11.5867 -3.69216 4.62833e-19)
(16.7509 -6.20111 -8.24311e-20)
(16.6487 -6.97581 -1.39173e-18)
(16.0974 -7.49201 7.81891e-19)
(15.6182 -8.04507 1.85537e-19)
(15.2042 -8.54915 -1.85289e-19)
(14.7265 -9.01045 -7.82591e-19)
(14.2859 -9.41599 5.85638e-19)
(13.8993 -9.85883 0)
(13.574 -10.296 0)
(13.2203 -10.689 -9.2616e-19)
(12.7825 -10.952 7.35698e-19)
(12.4177 -11.2804 -1.74099e-19)
(12.0953 -11.5934 -5.44215e-19)
(11.7533 -11.8765 -1.60522e-23)
(11.4677 -12.177 1.22105e-18)
(11.1815 -12.4716 -6.83377e-19)
(10.9191 -12.7571 5.09583e-19)
(10.6946 -13.027 -8.21262e-19)
(10.4194 -13.3781 0)
(11.5282 -3.26763 -4.11943e-19)
(15.6373 -5.21619 6.55855e-19)
(15.4282 -5.97754 1.15845e-19)
(14.9704 -6.52368 1.14955e-19)
(14.4549 -7.07436 0)
(14.0244 -7.54799 8.66899e-19)
(13.6409 -8.08247 -8.51681e-19)
(13.253 -8.51649 1.09546e-19)
(12.815 -8.92165 0)
(12.4379 -9.30026 8.21039e-19)
(12.1802 -9.79558 -7.03034e-19)
(11.8688 -10.1746 7.95042e-19)
(11.5151 -10.511 -7.82415e-19)
(11.2643 -10.8798 7.68249e-19)
(10.948 -11.1843 -6.59032e-19)
(10.6636 -11.473 -7.41409e-19)
(10.3845 -11.7557 1.45846e-18)
(10.1151 -12.0108 -6.25293e-19)
(9.87394 -12.2659 9.03841e-20)
(9.63151 -12.6032 7.38792e-19)
(11.2331 -2.81095 -3.39196e-19)
(14.3889 -4.34144 3.66495e-19)
(14.1111 -5.08219 -1.15871e-19)
(13.7258 -5.64155 -1.14962e-19)
(13.3678 -6.28041 0)
(12.9976 -6.77498 0)
(12.5997 -7.2939 0)
(12.311 -7.79169 -2.2688e-19)
(12.0189 -8.30477 -8.9427e-19)
(11.5878 -8.63118 1.75831e-18)
(11.2493 -9.02354 -9.68972e-19)
(11.0234 -9.4589 -1.09147e-19)
(10.6873 -9.80324 0)
(10.4193 -10.165 0)
(10.1941 -10.5368 -2.00378e-19)
(9.95781 -10.8697 0)
(9.72978 -11.2013 7.70189e-19)
(9.48999 -11.4849 -9.47951e-19)
(9.27425 -11.7615 -8.30017e-19)
(9.03532 -12.0922 7.84034e-19)
(10.7028 -2.33629 3.57789e-19)
(13.1255 -3.57328 6.6485e-19)
(12.8166 -4.29484 3.4418e-21)
(12.4653 -4.86073 2.38085e-21)
(12.0443 -5.47724 1.32621e-19)
(11.7553 -6.03616 -3.71801e-19)
(11.3906 -6.55553 0)
(11.0134 -6.97769 -3.66675e-19)
(10.8141 -7.52741 1.22708e-19)
(10.6117 -8.01367 4.67138e-19)
(10.2334 -8.37645 4.57005e-19)
(9.98646 -8.78672 -3.40455e-19)
(9.74549 -9.1814 8.78253e-19)
(9.46329 -9.5149 -7.54206e-19)
(9.20499 -9.8616 9.46393e-19)
(8.97277 -10.1852 -1.76273e-18)
(8.77405 -10.5335 8.13982e-19)
(8.55798 -10.8374 9.70368e-20)
(8.35521 -11.1277 7.7673e-19)
(8.15774 -11.4962 -8.22711e-19)
(9.98033 -1.85478 1.25954e-19)
(11.8233 -2.88462 -1.36106e-19)
(11.5026 -3.63434 5.58017e-19)
(11.1932 -4.21693 -5.47716e-19)
(10.8691 -4.84281 -2.69409e-19)
(10.6358 -5.41929 -6.58539e-19)
(10.4471 -6.06576 7.16948e-22)
(10.121 -6.51307 5.10731e-19)
(9.75551 -6.96929 -1.21977e-19)
(9.57333 -7.46319 0)
(9.344 -7.91983 0)
(9.08457 -8.29449 0)
(8.8709 -8.71605 0)
(8.67296 -9.08074 4.70163e-21)
(8.47348 -9.45183 0)
(8.24637 -9.765 1.05827e-19)
(8.05023 -10.0934 4.21877e-19)
(7.87161 -10.4021 -1.24184e-18)
(7.66675 -10.6705 9.17396e-19)
(7.4808 -11.0018 -8.50114e-19)
(9.07483 -1.40162 0)
(10.3715 -2.29984 -7.59537e-20)
(10.0563 -3.02147 0)
(9.85869 -3.63164 2.15136e-19)
(9.4805 -4.23095 -1.45216e-19)
(9.12474 -4.69533 -5.5554e-19)
(8.96698 -5.34304 1.4412e-21)
(8.8474 -5.91778 5.34892e-19)
(8.59505 -6.41356 -5.21741e-19)
(8.39553 -6.88528 1.02354e-18)
(8.22281 -7.38243 -2.67772e-21)
(8.01666 -7.8025 -4.91409e-19)
(7.80477 -8.2104 4.77889e-19)
(7.60412 -8.59446 -5.85396e-19)
(7.43015 -8.97644 0)
(7.27275 -9.33781 -4.47163e-19)
(7.08647 -9.67326 4.40477e-19)
(6.9437 -10.0043 0)
(6.79137 -10.3053 -1.03273e-19)
(6.60767 -10.6303 0)
(8.04759 -0.98881 7.52335e-20)
(9.07733 -1.81984 7.60456e-20)
(8.81879 -2.60844 0)
(8.62394 -3.23216 2.9748e-19)
(8.55856 -3.92821 -3.6982e-19)
(8.21646 -4.4218 2.14788e-19)
(7.85983 -4.86094 -6.36936e-19)
(7.76479 -5.42284 2.77163e-19)
(7.55973 -5.89571 -6.86722e-20)
(7.35906 -6.36601 0)
(7.20068 -6.81823 -6.56346e-20)
(7.09344 -7.2942 -6.41584e-20)
(6.92572 -7.71058 -6.27131e-20)
(6.77019 -8.11955 0)
(6.60234 -8.49102 -4.71829e-19)
(6.45783 -8.86887 9.84527e-19)
(6.31076 -9.21204 -8.48175e-19)
(6.15849 -9.54963 4.44381e-19)
(6.04856 -9.86021 5.47562e-20)
(5.91408 -10.211 4.53139e-19)
(6.83833 -0.63972 -1.15554e-19)
(7.33308 -1.42427 -1.61832e-19)
(7.1212 -2.14991 1.34508e-22)
(7.05182 -2.82804 4.27167e-19)
(6.89342 -3.50315 -1.16276e-19)
(6.94983 -4.23508 -7.5436e-20)
(6.68467 -4.73393 7.25071e-20)
(6.49783 -5.28073 1.42958e-19)
(6.39368 -5.78474 6.86729e-20)
(6.22455 -6.25836 -2.71477e-19)
(6.03587 -6.66948 2.98997e-19)
(5.88274 -7.09309 6.41683e-20)
(5.78712 -7.50478 3.15878e-19)
(5.66804 -7.90202 -1.84694e-21)
(5.54229 -8.27579 2.88244e-20)
(5.43923 -8.64266 -5.32735e-19)
(5.3263 -8.99644 1.46079e-19)
(5.21017 -9.33036 0)
(5.09901 -9.6373 -2.677e-20)
(4.98991 -9.98298 -2.31712e-19)
(5.67162 -0.435362 4.02212e-20)
(6.15181 -1.12968 -8.30241e-20)
(6.0104 -1.83029 1.62902e-19)
(5.81376 -2.46785 -3.96151e-20)
(5.63265 -3.01462 -3.96386e-20)
(5.5557 -3.66486 0)
(5.52423 -4.25147 -7.45238e-20)
(5.37787 -4.78561 1.46065e-19)
(5.29704 -5.30516 -7.15877e-20)
(5.24783 -5.83066 6.95011e-20)
(5.17292 -6.30968 -3.46978e-20)
(5.04266 -6.75487 -6.63038e-20)
(4.9102 -7.17415 1.30008e-19)
(4.81145 -7.58143 -1.26996e-19)
(4.68962 -7.9712 3.16067e-20)
(4.57198 -8.32283 2.16763e-34)
(4.48351 -8.69396 -2.96894e-20)
(4.38576 -9.01883 1.73399e-19)
(4.30417 -9.3395 -8.5278e-20)
(4.21634 -9.6779 -5.968e-20)
(0.112127 -1.72525 1.1026e-19)
(1.44255 -12.0103 5.40258e-20)
(3.76465 -27.3045 0)
(5.30767 -36.9432 5.12528e-20)
(5.70065 -40.0186 4.9234e-20)
(5.79986 -40.4064 4.51076e-20)
(5.78209 -40.2818 0)
(5.70348 -39.8903 4.16016e-20)
(5.63024 -39.5623 0)
(5.54742 -39.2362 0)
(5.46213 -38.937 -3.54969e-20)
(5.37274 -38.6548 2.19566e-21)
(5.27446 -38.3807 6.74991e-20)
(5.20107 -38.1185 0)
(5.07538 -37.8792 3.00383e-20)
(5.01939 -37.5614 2.86305e-20)
(4.8463 -37.2337 2.73238e-20)
(4.80352 -36.819 0)
(4.59409 -36.4021 -4.95623e-20)
(4.56018 -35.9443 4.77304e-20)
(0.107056 -3.02597 1.68875e-19)
(2.11741 -15.2298 -2.73106e-19)
(4.75213 -30.3755 0)
(6.24923 -38.4917 -2.55582e-19)
(6.51338 -40.3997 2.47895e-19)
(6.56964 -40.4509 -4.10268e-19)
(6.52333 -40.1468 1.76105e-19)
(6.43697 -39.7268 1.24393e-19)
(6.36297 -39.355 -5.61101e-19)
(6.28756 -39.0433 3.1145e-19)
(6.20614 -38.7316 -3.64602e-20)
(6.12086 -38.4421 2.72208e-19)
(6.03066 -38.1781 -8.83707e-21)
(5.93464 -37.8826 -2.54935e-19)
(5.81937 -37.5903 -3.00377e-20)
(5.73814 -37.2985 -2.86307e-20)
(5.58046 -36.9772 -2.73235e-20)
(5.5176 -36.5114 0)
(5.30497 -36.1078 -1.94424e-19)
(5.26255 -35.6672 5.74857e-21)
(0.207457 -4.1631 -1.16955e-19)
(3.09267 -18.1379 0)
(5.87649 -32.6255 0)
(7.32365 -39.3314 -1.06714e-19)
(7.50319 -40.4881 9.72238e-20)
(7.50583 -40.3759 0)
(7.41705 -39.962 -8.78055e-20)
(7.31952 -39.5451 2.48514e-19)
(7.21629 -39.2027 -2.47224e-19)
(7.11291 -38.8438 2.99219e-19)
(6.99927 -38.5223 -3.66194e-19)
(6.88505 -38.2124 0)
(6.7601 -37.8931 -2.55763e-19)
(6.65365 -37.6066 -2.34314e-19)
(6.51121 -37.3346 4.20244e-19)
(6.42017 -37.0002 -4.39491e-19)
(6.2238 -36.6349 3.80198e-19)
(6.14832 -36.1829 0)
(5.89948 -35.7508 -4.27745e-19)
(5.86304 -35.3164 7.27092e-19)
(0.454451 -5.34544 5.87899e-19)
(4.24921 -20.5613 0)
(7.11315 -34.4507 2.24868e-19)
(8.45645 -39.9501 3.12365e-19)
(8.53115 -40.5071 -6.03685e-19)
(8.45856 -40.2192 1.86367e-19)
(8.3118 -39.6875 8.9791e-20)
(8.20067 -39.289 9.18633e-19)
(8.07682 -38.8777 -1.28156e-18)
(7.94858 -38.5353 -1.26804e-19)
(7.82785 -38.1843 6.55967e-19)
(7.69657 -37.8719 1.34513e-19)
(7.57788 -37.5962 -6.31553e-19)
(7.44189 -37.2806 6.16857e-19)
(7.29994 -36.9719 1.72543e-19)
(7.17358 -36.6457 -1.08338e-19)
(6.98632 -36.2861 1.55505e-19)
(6.88362 -35.8075 0)
(6.6293 -35.4137 -4.52452e-20)
(6.58744 -35.0055 0)
(0.94041 -6.66193 0)
(5.59207 -22.5413 6.07198e-19)
(8.47348 -35.6677 -1.14771e-18)
(9.5705 -40.0525 1.05952e-18)
(9.60309 -40.2676 -8.15951e-19)
(9.45095 -39.8691 -1.87142e-19)
(9.28299 -39.4173 0)
(9.13044 -38.986 4.90817e-19)
(8.9688 -38.6191 -6.48577e-19)
(8.81855 -38.2337 7.37105e-19)
(8.65698 -37.9029 -5.76956e-19)
(8.50581 -37.5749 -1.34498e-19)
(8.3407 -37.2353 6.2228e-19)
(8.19095 -36.9293 -1.07623e-18)
(8.01964 -36.6281 6.78922e-19)
(7.88436 -36.2849 -2.22856e-19)
(7.66174 -35.91 -5.01641e-19)
(7.53996 -35.4369 1.15014e-18)
(7.2497 -35.0093 -6.53409e-19)
(7.19981 -34.5877 -7.66579e-19)
(1.72227 -7.93544 7.89312e-19)
(6.36358 -23.9548 5.24371e-19)
(9.91851 -36.6375 -9.32637e-19)
(10.7218 -40.0964 -2.12264e-19)
(10.688 -40.0349 1.97757e-19)
(10.496 -39.5238 7.33153e-19)
(10.293 -39.0006 -7.27812e-19)
(10.1059 -38.5728 0)
(9.92038 -38.1512 6.134e-19)
(9.72804 -37.7956 -6.03142e-19)
(9.5512 -37.4208 -5.43872e-19)
(9.35936 -37.1034 5.35072e-19)
(9.19493 -36.8115 0)
(9.00637 -36.4911 0)
(8.82377 -36.1824 9.75717e-19)
(8.64333 -35.8417 -9.56449e-19)
(8.4172 -35.457 -7.7385e-19)
(8.26099 -34.9816 7.62367e-19)
(7.96352 -34.5944 -6.9643e-19)
(7.90767 -34.1953 8.53697e-19)
(2.31245 -8.63669 0)
(7.61201 -25.132 2.4092e-19)
(11.2847 -37.0389 4.10468e-20)
(11.9966 -39.7603 1.08472e-18)
(11.8105 -39.5402 0)
(11.5337 -39.0028 0)
(11.2868 -38.5529 1.36674e-18)
(11.055 -38.1121 -6.22917e-20)
(10.8171 -37.7265 -1.25909e-18)
(10.6017 -37.3343 1.1289e-18)
(10.3799 -37.0025 -1.11033e-18)
(10.1773 -36.6647 0)
(9.96075 -36.3344 9.40917e-19)
(9.75941 -36.0153 -9.26135e-19)
(9.54769 -35.7025 0)
(9.36187 -35.3712 0)
(9.10746 -35.0109 0)
(8.92987 -34.5326 0)
(8.5977 -34.1236 0)
(8.53002 -33.7069 -8.27243e-20)
(2.76375 -9.82227 7.03717e-19)
(8.96617 -26.0378 -8.56818e-19)
(12.6673 -37.2149 0)
(13.1397 -39.3068 0)
(12.9282 -38.9549 1.71663e-18)
(12.6261 -38.4312 1.05198e-19)
(12.33 -37.9298 -1.57629e-18)
(12.0615 -37.5057 0)
(11.7985 -37.1028 1.47552e-19)
(11.5343 -36.75 -1.38103e-19)
(11.2911 -36.3809 0)
(11.036 -36.0751 1.21355e-19)
(10.8168 -35.7758 -1.02317e-18)
(10.571 -35.4765 1.85742e-18)
(10.3444 -35.1753 -3.67512e-20)
(10.1056 -34.8361 -7.93058e-19)
(9.84086 -34.4573 -8.92515e-20)
(9.62486 -34.003 8.40799e-20)
(9.27936 -33.6265 0)
(9.20027 -33.2218 7.54814e-20)
(3.41155 -10.2565 4.61433e-19)
(9.99476 -26.8775 4.1109e-19)
(13.9857 -37.1206 -1.38116e-18)
(14.3253 -38.7304 4.06478e-19)
(13.9846 -38.2993 1.83263e-19)
(13.6412 -37.7695 1.56534e-18)
(13.2889 -37.3066 -2.17303e-18)
(12.9765 -36.8681 1.58211e-18)
(12.6641 -36.4827 -1.28027e-18)
(12.3754 -36.1081 1.51772e-18)
(12.0899 -35.7826 2.48516e-19)
(11.8246 -35.4582 1.04092e-18)
(11.5524 -35.1538 -5.83073e-19)
(11.2937 -34.8322 -1.13e-18)
(11.0334 -34.5415 9.97732e-19)
(10.7931 -34.2447 0)
(10.5033 -33.9022 2.58508e-19)
(10.2661 -33.4388 7.5028e-20)
(9.88946 -33.0532 -1.50189e-19)
(9.7984 -32.6434 6.68585e-20)
(4.02216 -10.7794 -9.02714e-19)
(11.3927 -27.0939 9.24078e-19)
(15.2905 -36.7177 -1.38788e-20)
(15.4847 -37.8886 -8.01069e-19)
(15.0855 -37.4243 -7.41925e-19)
(14.7009 -36.9353 -3.52005e-19)
(14.307 -36.4742 -1.28714e-20)
(13.9516 -36.0764 -3.05103e-19)
(13.6097 -35.7064 0)
(13.2724 -35.3718 -2.65795e-19)
(12.9608 -35.0305 -2.48504e-19)
(12.644 -34.7445 -1.16108e-20)
(12.3672 -34.4641 8.18272e-19)
(12.0695 -34.1979 -4.19151e-19)
(11.7941 -33.906 -9.20398e-19)
(11.5044 -33.5964 7.17568e-19)
(11.204 -33.2648 4.73005e-19)
(10.9287 -32.8495 -7.91835e-19)
(10.5396 -32.4764 1.50103e-19)
(10.4317 -32.0683 9.4191e-19)
(4.67331 -11.1848 -2.19746e-18)
(12.6241 -27.3581 2.22015e-18)
(16.4821 -36.124 -2.45552e-18)
(16.592 -37.0605 1.99246e-18)
(16.0853 -36.5819 1.75522e-18)
(15.6597 -36.1024 -1.3672e-18)
(15.2021 -35.653 -1.81038e-18)
(14.8024 -35.2396 6.42452e-20)
(14.4158 -34.8811 1.09272e-18)
(14.0521 -34.5469 -7.22861e-19)
(13.7026 -34.243 1.84406e-18)
(13.372 -33.9537 -1.10368e-18)
(13.0438 -33.6835 -2.06507e-19)
(12.7267 -33.3905 5.37169e-19)
(12.4183 -33.1452 -1.40207e-18)
(12.1263 -32.8805 6.72584e-19)
(11.7986 -32.5692 0)
(11.5039 -32.1609 -1.12412e-18)
(11.0864 -31.811 1.10595e-18)
(10.9674 -31.4036 -8.83175e-19)
(5.3147 -11.4181 4.27568e-19)
(13.8273 -27.2193 4.7162e-19)
(17.6395 -35.3205 2.05308e-18)
(17.5928 -35.9161 1.79438e-18)
(17.0593 -35.4656 -1.07695e-18)
(16.592 -35.0405 1.52862e-18)
(16.1152 -34.6439 -9.02195e-19)
(15.6732 -34.2887 1.04911e-18)
(15.2596 -33.9599 -2.00465e-18)
(14.8535 -33.6627 7.17324e-19)
(14.4775 -33.3651 0)
(14.1031 -33.1059 0)
(13.7724 -32.8667 0)
(13.4269 -32.6364 -1.35769e-18)
(13.1022 -32.3739 1.33668e-18)
(12.7714 -32.1253 0)
(12.4429 -31.8542 0)
(12.1164 -31.4856 -1.26025e-19)
(11.6895 -31.1392 0)
(11.5521 -30.7388 -1.04376e-18)
(5.94377 -11.5811 -8.19868e-19)
(14.9949 -27.0075 -2.03226e-18)
(18.6627 -34.3655 -1.46438e-18)
(18.5852 -34.8738 -2.67742e-19)
(17.9615 -34.4426 1.93202e-18)
(17.4558 -34.0295 -3.80365e-19)
(16.9102 -33.6188 -6.82307e-20)
(16.427 -33.2561 -1.2841e-18)
(15.9735 -32.9486 0)
(15.5415 -32.6696 -6.32045e-19)
(15.1329 -32.4078 1.01692e-18)
(14.7414 -32.171 0)
(14.3606 -31.9409 1.33932e-18)
(13.9934 -31.7014 -1.31833e-18)
(13.6406 -31.5046 1.15641e-18)
(13.3009 -31.2823 -2.08339e-18)
(12.9417 -31.0357 1.0595e-18)
(12.6009 -30.7149 1.26026e-19)
(12.148 -30.3959 -1.05154e-19)
(11.998 -29.9914 8.27021e-19)
(6.57602 -11.613 -1.11224e-18)
(16.0583 -26.5631 6.20562e-20)
(19.629 -33.2716 9.28644e-20)
(19.3918 -33.5171 2.61538e-18)
(18.7486 -33.1435 2.29506e-19)
(18.2068 -32.7958 -1.4018e-18)
(17.6684 -32.4809 -9.80081e-19)
(17.1468 -32.1753 3.02881e-19)
(16.6697 -31.8938 1.09234e-18)
(16.2046 -31.6526 -1.16397e-18)
(15.7719 -31.4045 5.64223e-19)
(15.3458 -31.1834 -1.4719e-18)
(14.9678 -31.0051 1.14319e-18)
(14.5783 -30.8152 -1.12244e-18)
(14.2087 -30.5996 9.79244e-19)
(13.8454 -30.416 8.31422e-19)
(13.492 -30.2065 -9.48032e-19)
(13.1293 -29.9207 7.28682e-19)
(12.6798 -29.6408 -7.07249e-19)
(12.513 -29.2464 -8.13238e-19)
(7.16094 -11.5625 -1.39997e-18)
(17.0542 -25.9673 -2.747e-19)
(20.4445 -32.0265 1.35786e-18)
(20.2337 -32.2837 -1.16396e-18)
(19.5135 -31.937 1.14281e-18)
(18.9384 -31.6166 2.63662e-19)
(18.3238 -31.2701 0)
(17.7701 -30.9809 -2.00911e-19)
(17.2572 -30.7358 5.48413e-19)
(16.7679 -30.5207 -1.93602e-18)
(16.3106 -30.3234 1.36122e-18)
(15.8654 -30.1357 3.01872e-19)
(15.437 -29.9466 1.47707e-19)
(15.0342 -29.7877 0)
(14.6426 -29.6424 1.63991e-20)
(14.264 -29.474 8.40156e-19)
(13.8832 -29.3075 -5.39025e-20)
(13.5105 -29.0795 1.35521e-19)
(13.0361 -28.8159 -6.99331e-19)
(12.8578 -28.4223 1.57325e-19)
(7.7404 -11.4342 1.2894e-18)
(17.9706 -25.2672 -2.22177e-18)
(21.2003 -30.7321 1.24502e-18)
(20.8111 -30.7977 1.05832e-18)
(20.0991 -30.5079 -7.52582e-20)
(19.4826 -30.2549 -7.31788e-19)
(18.9061 -30.03 1.95572e-19)
(18.3166 -29.7834 2.0091e-19)
(17.7862 -29.557 0)
(17.2726 -29.3826 0)
(16.7942 -29.1941 -1.11737e-18)
(16.3276 -29.0383 1.85649e-18)
(15.9053 -28.9127 -1.00505e-18)
(15.4733 -28.759 0)
(15.0683 -28.6156 1.72897e-20)
(14.676 -28.4898 -7.95745e-19)
(14.2999 -28.3455 7.77331e-19)
(13.92 -28.1792 -8.45013e-20)
(13.4688 -27.9935 -5.98176e-19)
(13.275 -27.606 4.11327e-19)
(8.25211 -11.2264 -1.17127e-18)
(18.7724 -24.3811 1.46795e-18)
(21.7727 -29.2435 0)
(21.429 -29.4038 0)
(20.6756 -29.1571 2.08902e-19)
(20.0398 -28.9421 -9.92494e-19)
(19.3786 -28.6862 3.39059e-20)
(18.776 -28.486 6.92764e-19)
(18.2121 -28.3047 -1.15973e-18)
(17.678 -28.153 2.19196e-18)
(17.1825 -28.0255 -1.0343e-18)
(16.6942 -27.8833 2.24523e-19)
(16.2303 -27.7574 8.7342e-19)
(15.8036 -27.6739 2.01497e-20)
(15.3776 -27.5767 -5.29478e-19)
(14.9746 -27.4792 8.37766e-20)
(14.5732 -27.3746 -5.95201e-19)
(14.1793 -27.2335 5.11468e-19)
(13.7162 -27.0862 1.53755e-20)
(13.5204 -26.7174 4.04609e-19)
(8.74483 -10.9522 0)
(19.5009 -23.4459 7.25302e-19)
(22.3461 -27.848 -7.76307e-19)
(21.7945 -27.8353 0)
(21.0519 -27.6359 -2.08897e-19)
(20.386 -27.4854 6.72444e-19)
(19.7833 -27.3565 -8.31194e-19)
(19.1446 -27.1832 0)
(18.5745 -27.024 9.76619e-19)
(18.0237 -26.922 -9.60333e-19)
(17.514 -26.8046 9.15853e-20)
(17.0198 -26.7251 -1.02163e-19)
(16.5545 -26.634 -9.19672e-20)
(16.0868 -26.5309 -8.26437e-20)
(15.6562 -26.4621 -5.68718e-19)
(15.2392 -26.3934 9.24317e-19)
(14.8482 -26.3327 -8.16047e-19)
(14.4532 -26.2737 7.1949e-19)
(14.0212 -26.2037 -2.85132e-19)
(13.8186 -25.8624 4.15836e-20)
(9.16741 -10.6049 0)
(20.0494 -22.3213 -8.73521e-19)
(22.6617 -26.2355 4.56449e-19)
(22.175 -26.3551 5.39587e-19)
(21.404 -26.2036 -6.4488e-20)
(20.7224 -26.0835 -5.82254e-20)
(20.0445 -25.9337 -5.53537e-19)
(19.4153 -25.835 0)
(18.8108 -25.7126 0)
(18.2417 -25.6203 0)
(17.7171 -25.5616 -9.15812e-20)
(17.203 -25.4768 0)
(16.7182 -25.4297 -5.13267e-19)
(16.2674 -25.3943 4.54962e-19)
(15.8094 -25.3476 -3.41473e-19)
(15.3874 -25.3058 6.25125e-19)
(14.9559 -25.2478 -2.84505e-19)
(14.5367 -25.2136 -2.18263e-19)
(14.1017 -25.197 3.53054e-19)
(13.8926 -24.8867 -1.58069e-19)
(9.56062 -10.2101 0)
(20.549 -21.2136 0)
(23.0123 -24.7384 1.90869e-19)
(22.3458 -24.7148 1.70674e-19)
(21.589 -24.6201 0)
(20.8929 -24.5756 4.5329e-19)
(20.2712 -24.533 -4.45327e-19)
(19.6083 -24.4504 0)
(19.0173 -24.3751 5.93741e-19)
(18.4404 -24.335 -5.83836e-19)
(17.9103 -24.2892 0)
(17.3994 -24.2747 -3.61332e-19)
(16.8976 -24.2116 1.0964e-19)
(16.406 -24.1696 2.92337e-19)
(15.9515 -24.1518 0)
(15.5112 -24.1295 0)
(15.0815 -24.1186 0)
(14.6305 -24.0982 -2.56984e-20)
(14.2131 -24.0123 4.28326e-20)
(13.9174 -23.8576 0)
(3.72453 -34.9403 0)
(3.3257 -33.3875 0)
(2.3368 -32.2439 -2.74697e-21)
(2.0451 -31.2009 -2.23406e-21)
(1.48139 -30.3575 0)
(1.20436 -29.5271 1.48748e-22)
(0.899285 -28.8382 1.20116e-21)
(0.680195 -28.3059 0)
(0.507123 -27.7885 5.2057e-22)
(0.354608 -27.3657 0)
(0.246916 -27.0405 -1.78169e-22)
(0.158078 -26.7427 4.2159e-24)
(0.0815386 -26.514 -4.23841e-24)
(0.0473742 -26.288 -1.85176e-22)
(-0.0183859 -26.1459 0)
(-0.0185984 -25.9078 9.17122e-23)
(-0.0543065 -25.2382 -4.97235e-22)
(-0.00250993 -22.5018 0)
(-0.0471997 -16.0191 0)
(-0.00300727 -6.79006 -4.85656e-22)
(4.35363 -34.7294 2.05267e-20)
(3.91305 -33.108 0)
(2.83858 -32.0212 1.25239e-20)
(2.46811 -31.0754 -7.58998e-21)
(1.84271 -30.2821 0)
(1.49583 -29.4754 -6.20327e-21)
(1.15348 -28.7839 2.29585e-21)
(0.88728 -28.2563 0)
(0.686211 -27.7482 2.92375e-22)
(0.502019 -27.336 -8.17357e-22)
(0.373989 -27.015 3.60407e-22)
(0.263357 -26.7235 -1.16635e-22)
(0.168019 -26.501 -2.07147e-22)
(0.117642 -26.2785 9.31127e-23)
(0.039011 -26.1385 2.34302e-22)
(0.0310438 -25.8987 -3.81754e-22)
(-0.0259258 -25.2393 7.88606e-22)
(0.0145124 -22.5009 1.17e-21)
(-0.0383346 -16.0207 6.06937e-22)
(-0.0159253 -6.79808 6.06977e-22)
(4.82829 -34.3716 -9.30076e-21)
(4.22439 -32.9363 -1.74889e-20)
(3.07548 -31.8611 -1.02213e-20)
(2.65289 -30.9129 0)
(2.00047 -30.108 0)
(1.62386 -29.3373 6.93885e-21)
(1.26691 -28.6811 -1.17724e-21)
(0.980285 -28.1809 -9.33859e-22)
(0.767919 -27.6878 -8.13543e-22)
(0.569747 -27.285 -1.49326e-21)
(0.433085 -26.9762 0)
(0.312998 -26.6912 0)
(0.211644 -26.4743 0)
(0.154307 -26.2573 9.12177e-22)
(0.072068 -26.1223 0)
(0.0576439 -25.8957 1.51309e-21)
(-0.000523308 -25.2433 -1.72945e-21)
(0.0282657 -22.5163 -6.68327e-22)
(-0.0325156 -16.0286 -1.19596e-21)
(-0.0304463 -6.81315 -2.03839e-21)
(5.46887 -34.1159 3.00083e-20)
(4.80054 -32.6388 -5.69742e-20)
(3.57143 -31.6285 1.88759e-21)
(3.06364 -30.7804 1.82797e-20)
(2.3555 -30.0248 0)
(1.90675 -29.2787 8.2872e-21)
(1.51622 -28.6226 -1.77507e-20)
(1.18183 -28.1258 8.17848e-21)
(0.942891 -27.6434 -3.75561e-21)
(0.713734 -27.251 6.93849e-22)
(0.556922 -26.9468 -3.45623e-22)
(0.415377 -26.6683 3.38246e-22)
(0.29646 -26.4575 -3.39887e-22)
(0.223995 -26.2439 -3.64702e-22)
(0.128526 -26.1114 -5.50062e-22)
(0.106141 -25.8845 -1.5122e-21)
(0.0273092 -25.2449 2.19171e-21)
(0.0440124 -22.5263 -9.34779e-22)
(-0.0215074 -16.0375 4.98814e-22)
(-0.047237 -6.8291 2.03501e-21)
(5.9418 -33.7036 7.64419e-20)
(5.10408 -32.4303 1.32166e-20)
(3.80138 -31.437 -1.79285e-20)
(3.23645 -30.5918 2.52896e-20)
(2.50907 -29.8369 0)
(2.02844 -29.1285 -4.44662e-21)
(1.62636 -28.5105 3.40183e-21)
(1.27095 -28.0412 0)
(1.02169 -27.5759 1.60998e-22)
(0.779258 -27.1931 0)
(0.613887 -26.9018 -5.76218e-22)
(0.463872 -26.6301 0)
(0.338591 -26.4256 0)
(0.260882 -26.2189 2.27337e-21)
(0.161027 -26.0922 -1.18395e-21)
(0.13077 -25.8785 1.66119e-21)
(0.0506695 -25.2479 0)
(0.060847 -22.5485 -5.01881e-22)
(-0.0154925 -16.0491 5.13098e-22)
(-0.0618733 -6.85095 0)
(6.57309 -33.384 3.04905e-20)
(5.66175 -32.1041 -2.45756e-20)
(4.28872 -31.1941 4.21886e-20)
(3.63276 -30.449 -4.14652e-20)
(2.85696 -29.7458 1.07536e-20)
(2.30244 -29.0621 4.46055e-21)
(1.8702 -28.4467 -5.96858e-21)
(1.46653 -27.9803 -4.1557e-21)
(1.19219 -27.5272 1.4698e-21)
(0.919693 -27.1548 8.43838e-22)
(0.734291 -26.8686 -6.22698e-22)
(0.563818 -26.6035 0)
(0.422529 -26.4054 0)
(0.329467 -26.2017 1.75675e-23)
(0.215416 -26.0771 1.27341e-21)
(0.175412 -25.8643 -1.65958e-21)
(0.0801847 -25.2512 0)
(0.0774608 -22.5668 4.21313e-21)
(-0.00512109 -16.0622 4.07909e-21)
(-0.0718769 -6.87452 2.69405e-22)
(7.04721 -32.9251 -8.47545e-20)
(5.95491 -31.8511 7.89753e-20)
(4.51081 -30.9714 -1.81752e-20)
(3.79488 -30.2355 0)
(3.00698 -29.5444 -1.07995e-20)
(2.41883 -28.901 1.39293e-20)
(1.97744 -28.3265 -7.99078e-21)
(1.55273 -27.8869 4.16749e-21)
(1.26846 -27.4531 0)
(0.983662 -27.0903 0)
(0.789511 -26.8179 -4.65015e-22)
(0.611352 -26.5599 4.66682e-22)
(0.463576 -26.3687 0)
(0.364908 -26.1726 -3.73752e-21)
(0.245944 -26.0543 1.36234e-21)
(0.199679 -25.8562 1.85365e-21)
(0.106542 -25.2544 -1.85977e-21)
(0.0952949 -22.5952 -5.28634e-21)
(0.00235765 -16.08 -2.69934e-21)
(-0.0742215 -6.90139 -5.52829e-22)
(7.65394 -32.532 0)
(6.4923 -31.4854 -4.00809e-20)
(4.98427 -30.7124 4.02052e-20)
(4.17693 -30.0829 0)
(3.34587 -29.4448 0)
(2.68382 -28.8258 -1.29924e-20)
(2.21446 -28.2565 1.30316e-20)
(1.74264 -27.8201 0)
(1.43402 -27.4003 1.43389e-21)
(1.12034 -27.0478 -1.70787e-21)
(0.906009 -26.7808 2.70475e-22)
(0.70842 -26.5297 -1.5769e-21)
(0.544707 -26.3449 1.58165e-21)
(0.430059 -26.1514 0)
(0.296004 -26.0351 0)
(0.240539 -25.8401 1.92637e-21)
(0.13551 -25.2595 -2.9807e-21)
(0.114225 -22.6201 -6.16229e-23)
(0.01377 -16.1003 1.68045e-21)
(-0.0647129 -6.9287 -5.66779e-22)
(8.11147 -32.0245 4.95152e-20)
(6.76896 -31.1915 -4.96049e-20)
(5.19685 -30.4564 -4.4697e-20)
(4.33022 -29.8451 5.16714e-20)
(3.49262 -29.2304 -3.90049e-20)
(2.7971 -28.6546 4.47658e-21)
(2.31898 -28.1294 1.20886e-20)
(1.82714 -27.7187 0)
(1.50811 -27.3198 0)
(1.18322 -26.9771 2.78918e-22)
(0.959462 -26.7246 0)
(0.754508 -26.4813 0)
(0.583435 -26.3034 0)
(0.46261 -26.1177 0)
(0.323736 -26.0087 0)
(0.264688 -25.8307 0)
(0.157388 -25.2643 2.14448e-21)
(0.133391 -22.655 -2.16191e-21)
(0.0236888 -16.1286 5.79765e-22)
(-0.0429031 -6.95506 -5.80167e-22)
(8.68127 -31.5518 -5.23959e-20)
(7.2814 -30.7849 -6.75458e-20)
(5.65318 -30.1799 -1.18628e-20)
(4.69696 -29.6824 -5.52023e-21)
(3.82016 -29.1221 1.42532e-20)
(3.05317 -28.57 2.17106e-20)
(2.54807 -28.0526 4.24257e-21)
(2.01172 -27.646 0)
(1.66826 -27.2628 -2.96454e-22)
(1.31588 -26.9305 1.20272e-21)
(1.07163 -26.6833 -9.33527e-22)
(0.84797 -26.4473 -1.89012e-21)
(0.660338 -26.2756 0)
(0.524256 -26.0924 -3.1976e-21)
(0.371989 -25.986 -3.5974e-21)